FOO
138240
    1MOL0     O    1   6.776   6.057   4.874  0.0760 -0.3814 -1.0479
    1MOL0     C    2   6.715   6.163   4.885  0.0379 -0.9710 -0.2417
    1MOL0     O    3   6.779   6.289   4.882  0.4370 -0.5909 -0.2010
    1MOL0     C    4   6.921   6.311   4.895 -0.3510  0.6485  0.2426
    1MOL0     C    5   7.016   6.210   4.931  0.0271  0.0409 -0.4694
    1MOL0     C    6   7.153   6.237   4.934 -0.4401 -0.0618  0.6355
    1MOL0     C    7   7.201   6.364   4.920 -1.0954 -0.3819 -0.5058
    1MOL0     O    8   7.339   6.364   4.922  0.4526  0.1014  0.7369
    1MOL0     C    9   7.411   6.462   4.846 -0.3781  0.4072 -0.0276
    1MOL0     C   10   7.555   6.404   4.816  0.4840 -0.3167  1.0358
    1MOL0     C   11   7.627   6.371   4.942  0.2982  0.0568  0.3047
    1MOL0     C   12   7.777   6.387   4.908  0.7363  0.0351  0.5380
    1MOL0     C   13   7.866   6.328   5.023  0.2883 -0.3982  0.2903
    1MOL0     C   14   8.016   6.359   4.997 -0.5952  0.1758  0.5053
    1MOL0     C   15   8.105   6.316   5.112 -0.1589  0.5152  0.0262
    1MOL0     C   16   8.134   6.422   5.217  0.0069 -0.4482  0.1814
    1MOL0     N   17   8.227   6.373   5.331  0.0080 -0.0247 -0.7422
    1MOL0     C   18   8.322   6.457   5.378  0.0670 -0.2445 -0.1675
    1MOL0     C   19   8.381   6.396   5.486 -0.4036  0.7563  0.3123
    1MOL0     C   20   8.479   6.456   5.562  0.4462 -0.1339 -0.0667
    1MOL0     C   21   8.560   6.351   5.647 -0.7358 -0.3030 -1.0341
    1MOL0     C   22   8.681   6.419   5.728  0.4149 -0.1393 -0.6971
    1MOL0     C   23   8.816   6.408   5.660 -0.8748  0.6518  0.0801
    1MOL0     O   24   8.848   6.263   5.663 -0.0885 -0.8122 -0.3135
    1MOL0     C   25   8.974   6.225   5.653 -0.0850  0.4753  0.1332
    1MOL0     C   26   9.091   6.309   5.664  0.5617  0.2776  0.3517
    1MOL0     C   27   9.215   6.264   5.621  0.3281 -0.2595  0.6894
    1MOL0     C   28   9.234   6.133   5.572 -0.1765  0.0904 -0.5227
    1MOL0     C   29   9.360   6.096   5.511  0.1003  0.4261  0.7078
    1MOL0     O   30   9.464   6.187   5.531  0.2365  0.6459 -0.4243
    1MOL0     C   31   9.570   6.195   5.438  0.8016  0.5019 -0.3555
    1MOL0     C   32   9.560   6.206   5.303  0.1728 -1.0756  0.3756
    1MOL0     C   33   9.685   6.207   5.229 -0.1073  0.7645 -0.4611
    1MOL0     C   34   9.813   6.203   5.290 -0.9072 -0.7715  0.9043
    1MOL0     O   35   9.926   6.212   5.216  0.7933 -1.1333 -0.5119
    1MOL0     C   36  10.048   6.255   5.283 -0.2423  0.2681 -0.5865
    1MOL0     C   37  10.155   6.257   5.182 -0.3423 -0.2526 -0.3509
    1MOL0     C   38  10.186   6.117   5.143  0.1917 -0.5520  0.1908
    1MOL0     C   39  10.304   6.101   5.041  0.4789  0.0874  0.3031
    1MOL0     C   40  10.352   5.955   5.043 -0.3457  0.3299  0.5104
    1MOL0     C   41  10.478   5.919   4.955  0.1613 -0.6166 -0.5422
    1MOL0     C   42  10.586   6.019   4.978 -0.1437 -0.8896 -0.2694
    1MOL0     C   43  10.719   5.984   4.906 -0.0836  0.3752 -0.4539
    1MOL0    Cl   44  10.843   6.094   4.970 -0.2563 -0.3675 -0.1515
    1MOL0     C   45   9.820   6.213   5.430  0.7921  1.1138 -0.2222
    1MOL0     C   46   9.696   6.201   5.498 -0.7523  0.3836  0.5392
    1MOL0     O   47   9.363   6.005   5.430  0.2376 -0.2823  0.2683
    1MOL0     C   48   9.122   6.047   5.565  0.1338  0.0975  0.3135
    1MOL0     C   49   8.998   6.095   5.601 -0.2567 -0.9049 -0.3890
    1MOL0     N   50   8.313   6.271   5.511 -0.3711 -0.1342  0.6522
    1MOL0     N   51   8.228   6.261   5.410  0.3520 -0.6468  0.0862
    1MOL0     C   52   7.111   6.466   4.891 -0.0799  0.6080 -0.3106
    1MOL0     C   53   6.974   6.434   4.884 -0.0386 -0.2277  0.1704
    1MOL0     C   54   6.566   6.159   4.910  0.4977  0.1293 -0.0991
    1MOL0     C   55   6.500   6.283   4.899  0.2003  0.2210  0.7454
    1MOL0     C   56   6.368   6.296   4.916  0.7513  0.5987  0.5258
    1MOL0     C   57   6.287   6.182   4.943 -0.2523 -0.0152 -1.0657
    1MOL0     O   58   6.158   6.177   4.977 -0.5869 -0.0804 -0.1111
    1MOL0     C   59   6.081   6.297   4.946  0.1273 -0.4170 -0.2771
    1MOL0     C   60   5.931   6.259   4.940  0.9537 -0.5588  0.2156
    1MOL0     C   61   5.891   6.187   4.813 -1.0096 -1.1030 -0.2557
    1MOL0     C   62   5.783   6.088   4.856 -0.0447 -0.2652 -0.7794
    1MOL0     C   63   5.667   6.158   4.894  0.4230 -0.4490  0.1346
    1MOL0     C   64   5.569   6.228   4.908  0.2673  0.2866  0.6781
    1MOL0     C   65   6.348   6.065   4.959 -0.9698  0.0852  0.8416
    1MOL0     C   66   6.482   6.042   4.930 -0.4131  0.8905  1.1179
    1MOL0     C   67   6.534   5.906   4.892  0.1589 -0.8302  1.2110
    1MOL0     H   68   6.996   6.108   4.961  2.8051 -0.7984 -1.2185
    1MOL0     H   69   7.227   6.158   4.942  0.0027  0.3219  0.3939
    1MOL0     H   70   7.375   6.496   4.748  4.0889  1.1676 -1.6412
    1MOL0     H   71   7.428   6.551   4.907 -1.1814  1.2361 -0.9803
    1MOL0     H   72   7.598   6.481   4.751 -0.2292 -1.0202 -0.3052
    1MOL0     H   73   7.536   6.319   4.750 -2.1338  1.0556 -0.1282
    1MOL0     H   74   7.605   6.271   4.979 -0.5587 -0.4245 -1.3831
    1MOL0     H   75   7.603   6.434   5.028 -0.6960  1.1441 -0.7284
    1MOL0     H   76   7.796   6.329   4.817 -1.1146 -1.9782  1.3347
    1MOL0     H   77   7.800   6.493   4.897  1.8960 -0.1185  1.3481
    1MOL0     H   78   7.833   6.364   5.120 -2.6786 -0.6104 -0.5469
    1MOL0     H   79   7.851   6.221   5.036  0.2408 -0.7205 -2.0117
    1MOL0     H   80   8.037   6.296   4.910  1.0504 -0.1329  1.0911
    1MOL0     H   81   8.038   6.460   4.964  1.8428 -0.4248  0.1523
    1MOL0     H   82   8.204   6.283   5.078 -1.2060 -2.3188 -0.5703
    1MOL0     H   83   8.069   6.227   5.165  1.9377 -0.2926  0.2307
    1MOL0     H   84   8.164   6.517   5.174  1.0604 -0.1536  1.5137
    1MOL0     H   85   8.032   6.443   5.252  0.3830 -2.0714  2.5243
    1MOL0     H   86   8.341   6.558   5.342 -0.7650 -1.6276 -5.2406
    1MOL0     H   87   8.546   6.513   5.498  0.7049 -1.9858 -1.5382
    1MOL0     H   88   8.443   6.528   5.637  0.8140 -1.5851  1.5651
    1MOL0     H   89   8.482   6.317   5.715 -0.5641  1.0620 -0.1136
    1MOL0     H   90   8.584   6.265   5.584 -1.0656 -0.2795 -1.1940
    1MOL0     H   91   8.671   6.377   5.829  2.7276  3.3983  1.2347
    1MOL0     H   92   8.666   6.523   5.756  0.3730 -0.8828  2.4598
    1MOL0     H   93   8.884   6.469   5.721  1.3232 -1.6983  0.1636
    1MOL0     H   94   8.815   6.440   5.556 -2.7013 -3.9773 -1.5395
    1MOL0     H   95   9.076   6.415   5.684 -0.4749  1.0429 -3.5605
    1MOL0     H   96   9.295   6.336   5.612 -1.8040  2.1001 -0.7402
    1MOL0     H   97   9.464   6.207   5.251  0.0710  0.4541  0.5459
    1MOL0     H   98   9.690   6.202   5.121  2.8840  3.2845 -0.5524
    1MOL0     H   99  10.027   6.350   5.332  2.2800  0.9684 -0.7087
    1MOL0     H  100  10.084   6.189   5.363 -0.5266  0.3704 -0.3732
    1MOL0     H  101  10.140   6.321   5.094 -0.4525 -2.5077 -2.0462
    1MOL0     H  102  10.248   6.285   5.232 -0.8796 -2.1203  1.8075
    1MOL0     H  103  10.199   6.060   5.235 -1.1433 -0.7069  0.2984
    1MOL0     H  104  10.097   6.081   5.089  0.5135  0.2470 -0.9167
    1MOL0     H  105  10.380   6.176   5.066 -1.7133  2.2042  0.9642
    1MOL0     H  106  10.266   6.127   4.942  2.8427 -0.3471 -0.7800
    1MOL0     H  107  10.277   5.883   5.009  2.0526 -0.9421 -2.6256
    1MOL0     H  108  10.381   5.938   5.147 -1.4171 -0.4008  0.7029
    1MOL0     H  109  10.525   5.821   4.970  0.9416  0.0777  2.0778
    1MOL0     H  110  10.457   5.923   4.848  4.1533  1.4490 -1.4355
    1MOL0     H  111  10.618   6.013   5.083  2.3740  0.2306 -0.8969
    1MOL0     H  112  10.556   6.122   4.955  1.1112  0.1620  2.3177
    1MOL0     H  113  10.749   5.882   4.931 -1.4291  0.2467  0.7227
    1MOL0     H  114  10.706   6.000   4.798 -1.5813  0.0220 -0.3535
    1MOL0     H  115   9.904   6.210   5.498  0.2834 -0.4692  0.3926
    1MOL0     H  116   9.702   6.201   5.606  0.4483 -1.3722  0.5217
    1MOL0     H  117   9.144   5.944   5.540  0.4951  0.7175 -2.2317
    1MOL0     H  118   8.918   6.037   5.557  0.9724 -3.1147  0.1289
    1MOL0     H  119   7.151   6.566   4.880  2.1270 -0.0644  0.8460
    1MOL0     H  120   6.896   6.508   4.863 -0.2822  0.3296  2.6955
    1MOL0     H  121   6.558   6.374   4.883 -1.6274  1.6881  1.9541
    1MOL0     H  122   6.332   6.397   4.899  0.2704  0.1325 -1.4895
    1MOL0     H  123   6.115   6.336   4.850 -0.2616 -1.7817 -1.0039
    1MOL0     H  124   6.109   6.368   5.023  0.0540 -1.4311  0.7157
    1MOL0     H  125   5.870   6.349   4.935  2.2842  0.3142 -1.3460
    1MOL0     H  126   5.913   6.200   5.030  0.5917  1.2027  1.3544
    1MOL0     H  127   5.974   6.125   4.776  0.2731 -0.3748  1.2838
    1MOL0     H  128   5.863   6.255   4.732  0.4935  0.7570  0.7228
    1MOL0     H  129   5.766   6.012   4.780  1.6174 -2.9344  1.3528
    1MOL0     H  130   5.827   6.022   4.931  1.3405 -0.8872 -2.0843
    1MOL0     H  131   5.484   6.294   4.915  1.2482  1.6269  0.3849
    1MOL0     H  132   6.285   5.977   4.968  0.7588 -1.0338  2.9233
    1MOL0     H  133   6.587   5.906   4.797  1.8828 -0.9645  2.1440
    1MOL0     H  134   6.610   5.881   4.966  2.0061  0.4136 -0.1942
    1MOL0     H  135   6.450   5.836   4.899 -1.7542  1.0903 -1.0136
    2MOL0     O  136   6.285   9.413  10.030 -0.4272 -0.5995  0.1505
    2MOL0     C  137   6.257   9.438   9.918 -0.1932 -0.2363  0.3600
    2MOL0     O  138   6.347   9.444   9.811 -0.7327 -0.2853  0.2724
    2MOL0     C  139   6.466   9.378   9.828 -0.0034 -0.9068  0.2862
    2MOL0     C  140   6.465   9.241   9.806  0.0417  0.4286 -0.2507
    2MOL0     C  141   6.575   9.162   9.853 -0.9554 -0.5158  0.0134
    2MOL0     C  142   6.682   9.223   9.921 -0.7627  0.0636 -0.4761
    2MOL0     O  143   6.797   9.171   9.963 -0.6230 -0.4193  0.1733
    2MOL0     C  144   6.796   9.028   9.994  0.6258 -0.5777  0.3935
    2MOL0     C  145   6.938   8.992  10.026 -0.5439  0.1075 -0.5697
    2MOL0     C  146   6.997   9.049  10.164  0.2135 -0.3249  1.1631
    2MOL0     C  147   7.134   8.985  10.182 -0.4932 -0.0440 -0.7580
    2MOL0     C  148   7.214   9.069  10.288  0.7399 -0.1902 -0.3087
    2MOL0     C  149   7.223   8.996  10.429 -0.6609  0.4939  0.0289
    2MOL0     C  150   7.092   8.988  10.502  0.2363  0.1065  0.5885
    2MOL0     C  151   7.049   9.124  10.574 -0.2377  0.2705 -0.3326
    2MOL0     N  152   7.158   9.187  10.658  0.4410  0.1286 -0.4985
    2MOL0     C  153   7.257   9.273  10.618 -0.1539  0.1047  0.6498
    2MOL0     C  154   7.333   9.290  10.731 -0.1410 -0.3654  1.2133
    2MOL0     C  155   7.451   9.381  10.755  0.0024  0.1221  0.0556
    2MOL0     C  156   7.554   9.381  10.643 -0.2075  0.1087 -0.4241
    2MOL0     C  157   7.663   9.470  10.691 -0.1863  0.3328 -0.4047
    2MOL0     C  158   7.778   9.478  10.591  0.2090  1.0102 -0.5788
    2MOL0     O  159   7.845   9.600  10.610  0.0655 -0.6411  1.0369
    2MOL0     C  160   7.979   9.592  10.600 -0.1612  0.7769  0.1495
    2MOL0     C  161   8.064   9.620  10.711 -0.2794  0.5248  0.2294
    2MOL0     C  162   8.203   9.609  10.696 -0.7836 -0.4823 -0.6268
    2MOL0     C  163   8.263   9.585  10.578  1.0196  0.3706 -0.1838
    2MOL0     C  164   8.417   9.562  10.560 -0.3402  0.5549  0.1403
    2MOL0     O  165   8.495   9.574  10.671  0.2949 -0.3214  0.1320
    2MOL0     C  166   8.631   9.555  10.665  0.1113 -0.5277 -1.0086
    2MOL0     C  167   8.692   9.442  10.600 -0.6065 -0.4826  0.8153
    2MOL0     C  168   8.826   9.421  10.604 -0.9259  0.2609 -0.0171
    2MOL0     C  169   8.905   9.504  10.687 -0.4873  0.9812 -0.6168
    2MOL0     O  170   9.040   9.496  10.691 -0.9476  0.4318  0.0951
    2MOL0     C  171   9.116   9.593  10.751 -0.0259 -0.7039 -0.8071
    2MOL0     C  172   9.278   9.575  10.732 -0.0474 -0.6368 -0.3785
    2MOL0     C  173   9.339   9.446  10.797  1.0793  0.1829 -0.1161
    2MOL0     C  174   9.492   9.455  10.781  0.5006  0.5362  0.4298
    2MOL0     C  175   9.553   9.317  10.825 -0.0920  0.8423 -0.2075
    2MOL0     C  176   9.703   9.317  10.823  0.0609  0.4740 -0.4402
    2MOL0     C  177   9.774   9.182  10.837 -0.7115  0.2089  0.2394
    2MOL0     C  178   9.806   9.128  10.698 -0.1235  0.5404  0.3191
    2MOL0    Cl  179   9.870   8.960  10.724  0.5411 -0.6336  0.7447
    2MOL0     C  180   8.843   9.600  10.760 -0.0516  0.1084  0.4080
    2MOL0     C  181   8.712   9.624  10.756 -0.1058 -0.2842  0.6099
    2MOL0     O  182   8.459   9.557  10.446 -0.9013  0.4288  0.0087
    2MOL0     C  183   8.178   9.562  10.465 -0.9528  0.5310  0.2156
    2MOL0     C  184   8.041   9.581  10.472  0.1282 -0.2723 -0.6027
    2MOL0     N  185   7.275   9.215  10.828 -0.3945 -0.6019  0.1078
    2MOL0     N  186   7.168   9.161  10.792 -0.7376  0.1597  0.7767
    2MOL0     C  187   6.677   9.363   9.944  0.9393 -1.1128  0.7923
    2MOL0     C  188   6.565   9.441   9.903  0.8539  0.3753 -0.4817
    2MOL0     C  189   6.129   9.497   9.901  0.0979  0.6416 -0.7727
    2MOL0     C  190   6.086   9.618   9.971 -0.5372 -0.1514  0.2667
    2MOL0     C  191   5.965   9.678   9.943  0.8835 -0.2918  0.5389
    2MOL0     C  192   5.879   9.626   9.843 -0.2738  0.6625 -0.2975
    2MOL0     O  193   5.750   9.666   9.816 -0.0343  0.2363 -0.1497
    2MOL0     C  194   5.712   9.802   9.821 -0.5805 -0.1321 -0.7630
    2MOL0     C  195   5.767   9.886   9.717  0.1879  0.5080 -0.1903
    2MOL0     C  196   5.711   9.880   9.572  0.4628  0.3449  0.4047
    2MOL0     C  197   5.556   9.899   9.565  0.2140  1.1826 -0.7747
    2MOL0     C  198   5.505  10.008   9.652  0.6417 -0.3105  0.3301
    2MOL0     C  199   5.455  10.089   9.735  0.3744  0.4552  0.1271
    2MOL0     C  200   5.926   9.510   9.774  0.9338  0.0586 -0.5146
    2MOL0     C  201   6.049   9.446   9.793 -0.7927 -0.0294  0.3364
    2MOL0     C  202   6.096   9.330   9.703 -0.7140 -0.5445  0.7638
    2MOL0     H  203   6.384   9.188   9.756 -0.5736 -0.8794  1.9425
    2MOL0     H  204   6.582   9.055   9.836 -0.6289 -0.5616  0.4066
    2MOL0     H  205   6.722   9.001  10.069 -1.3188  0.4514 -1.0451
    2MOL0     H  206   6.773   8.983   9.897 -3.3709  3.2834 -0.8139
    2MOL0     H  207   7.006   9.012   9.943 -1.5708 -0.2241 -1.5143
    2MOL0     H  208   6.946   8.883  10.037  3.2159  0.4182  1.1574
    2MOL0     H  209   6.923   9.017  10.238 -1.3260  2.8040  1.1438
    2MOL0     H  210   7.001   9.158  10.157 -1.1595 -0.3774 -2.2658
    2MOL0     H  211   7.123   8.879  10.206 -0.2246  0.0831 -0.0359
    2MOL0     H  212   7.186   8.996  10.087 -0.7065  2.1392 -0.6631
    2MOL0     H  213   7.318   9.073  10.256  0.9333  0.0854  0.3334
    2MOL0     H  214   7.176   9.171  10.302 -2.0754 -0.8746 -2.0889
    2MOL0     H  215   7.248   8.893  10.402  1.1706  0.8924  0.0552
    2MOL0     H  216   7.302   9.041  10.490 -0.6001 -0.3068  0.5573
    2MOL0     H  217   7.100   8.910  10.578  0.7384 -1.6906 -1.2197
    2MOL0     H  218   7.014   8.952  10.435 -0.2485  0.2414  1.0711
    2MOL0     H  219   7.004   9.191  10.500  3.0873 -0.1682 -3.0181
    2MOL0     H  220   6.972   9.088  10.643 -1.6091  1.2821 -1.2734
    2MOL0     H  221   7.266   9.317  10.519 -0.3648 -0.8414  0.2044
    2MOL0     H  222   7.414   9.482  10.777  2.7039  0.8809  1.5393
    2MOL0     H  223   7.499   9.356  10.850  1.8888  1.1398 -0.5749
    2MOL0     H  224   7.586   9.283  10.606 -1.2895  0.9428 -4.0235
    2MOL0     H  225   7.515   9.441  10.561 -1.4417  2.4866  1.7570
    2MOL0     H  226   7.713   9.415  10.772 -1.1997  1.4707  1.0342
    2MOL0     H  227   7.622   9.569  10.711 -0.2457 -0.0457  1.6447
    2MOL0     H  228   7.743   9.466  10.488 -0.5193  1.3173 -0.3690
    2MOL0     H  229   7.856   9.403  10.611  0.3579  1.0165 -1.1135
    2MOL0     H  230   8.023   9.638  10.810 -0.7174 -1.4224  0.4245
    2MOL0     H  231   8.271   9.624  10.780  1.9748  1.8738 -3.0635
    2MOL0     H  232   8.626   9.380  10.540 -0.3121  1.1825 -1.3391
    2MOL0     H  233   8.884   9.354  10.542  0.4660  1.5024 -0.1140
    2MOL0     H  234   9.091   9.697  10.730  0.0373 -0.1349  1.6389
    2MOL0     H  235   9.099   9.581  10.858 -1.8556  2.1528 -0.6643
    2MOL0     H  236   9.301   9.574  10.625  1.9238  0.2349 -0.0012
    2MOL0     H  237   9.317   9.668  10.774 -3.6275  1.2315 -0.7006
    2MOL0     H  238   9.307   9.430  10.900  4.2204  1.6961  1.2356
    2MOL0     H  239   9.301   9.359  10.743 -3.3437  0.2575  2.3597
    2MOL0     H  240   9.536   9.541  10.832  1.1685  0.5264 -0.1208
    2MOL0     H  241   9.510   9.460  10.673 -2.0517 -2.0739 -0.2559
    2MOL0     H  242   9.519   9.241  10.754 -0.3570  3.2970 -2.8712
    2MOL0     H  243   9.517   9.298  10.927 -1.0074  2.6751 -0.1575
    2MOL0     H  244   9.733   9.359  10.727 -1.9561  0.2555 -1.2224
    2MOL0     H  245   9.741   9.378  10.905  1.0725  0.0588 -0.5904
    2MOL0     H  246   9.707   9.110  10.885  2.3974 -3.5157 -0.4960
    2MOL0     H  247   9.863   9.188  10.900 -0.0529 -2.0521 -0.3663
    2MOL0     H  248   9.719   9.131  10.631 -0.1930 -0.9552  0.3085
    2MOL0     H  249   9.885   9.194  10.662 -1.0365  0.2680 -2.4228
    2MOL0     H  250   8.894   9.661  10.833 -2.0509  1.4228  0.7974
    2MOL0     H  251   8.661   9.698  10.816 -0.4840 -1.4672  1.7834
    2MOL0     H  252   8.222   9.516  10.377  1.4434  3.2313 -0.1472
    2MOL0     H  253   7.974   9.554  10.392  0.0089 -4.1485  0.5845
    2MOL0     H  254   6.761   9.413   9.992 -0.0439  1.7366 -0.2257
    2MOL0     H  255   6.552   9.543   9.938 -0.2470  0.4499 -1.0725
    2MOL0     H  256   6.161   9.667  10.033 -1.5457 -2.8683  3.9768
    2MOL0     H  257   5.936   9.769   9.994 -1.1678 -0.0627 -0.9037
    2MOL0     H  258   5.749   9.843   9.915 -2.3355  0.1649 -0.1790
    2MOL0     H  259   5.603   9.794   9.818 -0.6643 -0.9978  1.9237
    2MOL0     H  260   5.875   9.865   9.719  0.4156  1.6144  0.8813
    2MOL0     H  261   5.761   9.993   9.738  2.0737  1.0251 -1.9512
    2MOL0     H  262   5.739   9.784   9.529  2.2002  1.6442 -1.5467
    2MOL0     H  263   5.767   9.954   9.514  1.4427 -0.0794  0.7744
    2MOL0     H  264   5.521   9.920   9.463 -0.2406  2.4905 -0.3754
    2MOL0     H  265   5.508   9.807   9.598  1.3519  0.6986 -0.4337
    2MOL0     H  266   5.437  10.151   9.820 -1.5845  1.7081 -1.1255
    2MOL0     H  267   5.851   9.469   9.707  0.5847 -1.9497  0.9995
    2MOL0     H  268   6.179   9.368   9.643  0.4374 -2.0990  1.3036
    2MOL0     H  269   6.122   9.235   9.750  1.3060 -0.5090 -0.1575
    2MOL0     H  270   6.015   9.308   9.633  0.9701 -0.5201 -1.2630
    3MOL0     O  271  10.112   4.583   2.059 -0.1537 -0.1104 -0.1920
    3MOL0     C  272  10.043   4.540   1.967  0.1244 -0.3629  0.1857
    3MOL0     O  273  10.043   4.591   1.833 -0.6067 -0.1317  0.1710
    3MOL0     C  274  10.093   4.718   1.809 -0.0598  0.8359 -0.5833
    3MOL0     C  275  10.132   4.749   1.682 -0.2359 -0.0530  0.1812
    3MOL0     C  276  10.188   4.870   1.649  0.5485 -1.0072  0.1925
    3MOL0     C  277  10.211   4.978   1.736 -0.0382 -1.0480 -0.6460
    3MOL0     O  278  10.272   5.096   1.713  0.2981 -0.0561  0.5853
    3MOL0     C  279  10.253   5.157   1.578  0.0893 -0.2559 -0.5782
    3MOL0     C  280  10.274   5.309   1.570  0.0019 -0.6104 -1.0661
    3MOL0     C  281  10.426   5.338   1.608  0.1246  0.9807 -0.1385
    3MOL0     C  282  10.448   5.491   1.605 -0.3973  0.0016 -0.3495
    3MOL0     C  283  10.591   5.527   1.644  0.0937  0.0774 -0.3934
    3MOL0     C  284  10.610   5.684   1.640 -0.2334  0.1633 -0.7956
    3MOL0     C  285  10.756   5.715   1.667  0.1653 -0.3941  0.3606
    3MOL0     C  286  10.782   5.859   1.614 -0.7069  0.2514  0.0846
    3MOL0     N  287  10.924   5.899   1.653  0.3176  1.0041  0.1989
    3MOL0     C  288  11.015   5.960   1.571  0.3560 -0.9341 -0.2540
    3MOL0     C  289  11.128   5.963   1.640  0.2157 -1.0616  0.0335
    3MOL0     C  290  11.263   6.020   1.594  0.4221  0.0849 -0.3170
    3MOL0     C  291  11.246   6.160   1.540 -0.0114  0.0072 -0.3685
    3MOL0     C  292  11.224   6.270   1.647 -0.1699 -0.8365 -0.6812
    3MOL0     C  293  11.342   6.287   1.748 -0.6339 -0.7626 -1.2244
    3MOL0     O  294  11.466   6.342   1.691 -0.0956  1.0064  0.0093
    3MOL0     C  295  11.574   6.374   1.776  0.3830  0.5130  0.1499
    3MOL0     C  296  11.702   6.407   1.719 -0.5588  0.3648 -0.0233
    3MOL0     C  297  11.816   6.426   1.802  0.2367 -0.5499 -0.6344
    3MOL0     C  298  11.803   6.414   1.941  0.4313 -0.2369 -0.3702
    3MOL0     C  299  11.912   6.441   2.027  0.7047 -0.4047 -0.2493
    3MOL0     O  300  11.889   6.433   2.161  0.3136 -0.1016  0.3318
    3MOL0     C  301  11.982   6.490   2.245 -0.0319  0.9280  0.8253
    3MOL0     C  302  12.030   6.401   2.347  0.3202  0.0803 -0.1805
    3MOL0     C  303  12.089   6.458   2.459  0.2553  0.3746  0.2891
    3MOL0     C  304  12.120   6.602   2.460 -0.1859  0.2391 -0.0994
    3MOL0     O  305  12.180   6.667   2.564 -0.2807  0.1886 -0.0049
    3MOL0     C  306  12.208   6.603   2.690 -0.4490  0.8594  0.1044
    3MOL0     C  307  12.084   6.615   2.779  0.0910  0.0882 -0.1446
    3MOL0     C  308  12.043   6.762   2.785  0.0789 -0.7125  0.4234
    3MOL0     C  309  11.934   6.802   2.895  0.1129 -0.0244  0.7305
    3MOL0     C  310  11.905   6.952   2.886  0.4428 -0.0588 -1.2985
    3MOL0     C  311  11.828   7.002   3.016 -0.3073  0.0770 -0.1114
    3MOL0     C  312  11.806   7.158   3.023 -0.2649 -0.0470  0.6797
    3MOL0     C  313  11.747   7.210   3.156 -0.5217 -0.1095  0.1583
    3MOL0    Cl  314  11.858   7.221   3.299  0.2420  0.8356 -0.1629
    3MOL0     C  315  12.078   6.683   2.358 -0.0341  0.6056  0.1024
    3MOL0     C  316  12.009   6.631   2.253  0.4103 -0.0995  0.0759
    3MOL0     O  317  12.022   6.457   1.975 -0.2586 -0.9288  0.0770
    3MOL0     C  318  11.680   6.380   1.994  0.1438  0.4022  0.1279
    3MOL0     C  319  11.564   6.371   1.920 -1.2250 -0.0601  0.4501
    3MOL0     N  320  11.113   5.911   1.761 -0.8332  0.6898 -0.0421
    3MOL0     N  321  10.993   5.871   1.766 -0.4465  0.0346  0.1182
    3MOL0     C  322  10.165   4.952   1.872 -0.7763  0.3366 -0.7512
    3MOL0     C  323  10.118   4.820   1.903 -0.0387 -0.3947  0.6984
    3MOL0     C  324   9.974   4.416   1.979 -0.0926  0.4242 -0.4408
    3MOL0     C  325   9.980   4.358   2.109 -0.3854 -0.3434 -1.0133
    3MOL0     C  326   9.923   4.234   2.143  0.0866 -0.0184  0.0320
    3MOL0     C  327   9.848   4.169   2.046  0.1163  0.1772  0.8473
    3MOL0     O  328   9.788   4.046   2.060  0.2391  0.3809  0.3817
    3MOL0     C  329   9.745   3.998   2.185 -0.5510  0.8955 -0.5140
    3MOL0     C  330   9.698   3.855   2.163  0.3925  0.6316 -0.9748
    3MOL0     C  331   9.562   3.853   2.082 -0.7453  0.4632 -0.0189
    3MOL0     C  332   9.512   3.714   2.086  0.4143  0.8271  0.4175
    3MOL0     C  333   9.435   3.689   1.961 -0.4041 -0.1476 -0.2655
    3MOL0     C  334   9.364   3.682   1.860  0.0683  0.4894 -0.5572
    3MOL0     C  335   9.834   4.225   1.920  0.2393  0.4351 -0.2448
    3MOL0     C  336   9.899   4.340   1.881  0.1748  0.4847 -0.0908
    3MOL0     C  337   9.878   4.395   1.737  0.7364 -0.0329 -0.6071
    3MOL0     H  338  10.128   4.658   1.622  0.6786 -0.8187  1.2237
    3MOL0     H  339  10.218   4.887   1.546 -1.7126  0.7405 -0.2600
    3MOL0     H  340  10.325   5.118   1.505  1.3606  0.0073  0.5080
    3MOL0     H  341  10.149   5.137   1.551 -0.4226  0.4247  0.8521
    3MOL0     H  342  10.198   5.359   1.630  1.0905 -0.9450  0.6921
    3MOL0     H  343  10.257   5.342   1.467 -0.6394 -0.6437 -0.9740
    3MOL0     H  344  10.491   5.292   1.533  2.8007 -1.0080  3.1499
    3MOL0     H  345  10.450   5.297   1.707 -0.2307 -2.1661 -1.2189
    3MOL0     H  346  10.423   5.530   1.506 -2.7940  3.2649  1.3540
    3MOL0     H  347  10.381   5.541   1.675 -1.1548 -0.8491 -0.4414
    3MOL0     H  348  10.620   5.495   1.744 -0.0961 -1.6317 -0.8556
    3MOL0     H  349  10.663   5.468   1.587 -2.5542 -1.6478 -2.2122
    3MOL0     H  350  10.589   5.726   1.541 -0.2546  1.0113 -0.4449
    3MOL0     H  351  10.549   5.740   1.711 -2.6604 -2.1896 -0.8737
    3MOL0     H  352  10.813   5.639   1.612  1.9891 -0.5665  2.3590
    3MOL0     H  353  10.771   5.711   1.775  0.6217 -4.4190  0.2716
    3MOL0     H  354  10.770   5.864   1.505 -0.7420  1.5177  0.1304
    3MOL0     H  355  10.717   5.931   1.665  0.5855  1.1572  0.4886
    3MOL0     H  356  11.002   6.004   1.473  0.1701  0.1487  0.2501
    3MOL0     H  357  11.340   6.020   1.672  1.5644  0.2152 -1.4028
    3MOL0     H  358  11.298   5.959   1.510  0.5355 -0.5306  0.1686
    3MOL0     H  359  11.335   6.173   1.478 -1.1316  1.3922 -1.7702
    3MOL0     H  360  11.175   6.174   1.458  2.2188  2.2939 -2.0529
    3MOL0     H  361  11.141   6.239   1.711  1.6472 -2.5667  1.0130
    3MOL0     H  362  11.191   6.366   1.608 -0.8443 -1.3011 -1.2879
    3MOL0     H  363  11.371   6.192   1.793 -1.5464  0.1137  1.4337
    3MOL0     H  364  11.316   6.353   1.831 -0.1615 -3.3367  1.1159
    3MOL0     H  365  11.703   6.438   1.615 -1.2289 -2.5150 -0.9575
    3MOL0     H  366  11.915   6.447   1.763  1.3916 -0.0176  2.2884
    3MOL0     H  367  12.012   6.294   2.344 -0.8905  0.1511  2.2744
    3MOL0     H  368  12.125   6.396   2.541  3.2250 -0.8913 -1.7830
    3MOL0     H  369  12.253   6.503   2.684  0.5579  1.1655  1.7283
    3MOL0     H  370  12.291   6.661   2.733  0.1828 -0.6914  1.0765
    3MOL0     H  371  12.001   6.564   2.729 -0.5899  0.3633  0.6710
    3MOL0     H  372  12.097   6.571   2.878  1.0168 -0.1738 -0.3780
    3MOL0     H  373  12.134   6.819   2.804  0.4211  0.2226 -3.3364
    3MOL0     H  374  12.017   6.801   2.686  0.3884 -0.1351  0.5689
    3MOL0     H  375  11.968   6.762   2.991 -1.6837  1.1695  1.9440
    3MOL0     H  376  11.850   6.740   2.862  0.6857 -0.0937 -0.6738
    3MOL0     H  377  11.850   6.981   2.796 -1.8897  2.5601  0.7684
    3MOL0     H  378  12.003   6.998   2.900 -0.3356  1.0557  1.1468
    3MOL0     H  379  11.733   6.947   3.017  0.1249 -0.6764  0.6211
    3MOL0     H  380  11.887   6.982   3.106 -2.9437 -2.0090  1.3153
    3MOL0     H  381  11.728   7.189   2.952  1.2323 -0.0400 -1.0374
    3MOL0     H  382  11.899   7.203   2.989 -0.7019 -1.5979 -3.0095
    3MOL0     H  383  11.704   7.308   3.134 -1.7996 -0.5732  0.4970
    3MOL0     H  384  11.669   7.140   3.187  0.3457 -1.4976 -0.6568
    3MOL0     H  385  12.093   6.790   2.355  0.7598  0.4847 -1.8042
    3MOL0     H  386  11.976   6.691   2.168  0.5186  1.6539  1.2210
    3MOL0     H  387  11.665   6.382   2.102 -1.3547 -0.1124 -0.0442
    3MOL0     H  388  11.477   6.345   1.980 -0.0499 -1.4534  1.5908
    3MOL0     H  389  10.180   5.035   1.941 -0.4330  0.6097 -1.1537
    3MOL0     H  390  10.100   4.814   2.010 -0.2421  0.5633  0.7238
    3MOL0     H  391  10.044   4.403   2.184 -2.9242  0.3461  0.8790
    3MOL0     H  392   9.929   4.189   2.241 -0.8419 -2.0536 -0.7844
    3MOL0     H  393   9.673   4.061   2.237 -0.1065  0.4346  0.6915
    3MOL0     H  394   9.832   3.994   2.251 -1.5494  0.4817  0.8000
    3MOL0     H  395   9.702   3.798   2.256  0.4652 -0.6588 -1.7478
    3MOL0     H  396   9.767   3.801   2.098  0.0124  0.6239 -1.3759
    3MOL0     H  397   9.584   3.893   1.983 -1.6162  0.5751 -0.1747
    3MOL0     H  398   9.501   3.934   2.121  0.7324  1.9287 -0.6367
    3MOL0     H  399   9.595   3.644   2.076  1.6944  2.3580 -0.2105
    3MOL0     H  400   9.457   3.708   2.180  0.7658 -0.0242  0.5775
    3MOL0     H  401   9.308   3.658   1.771  1.0102 -0.4923 -0.9102
    3MOL0     H  402   9.765   4.179   1.851 -2.7508 -0.7120  3.2058
    3MOL0     H  403   9.817   4.320   1.686 -3.4163  0.9842  2.3336
    3MOL0     H  404   9.824   4.489   1.739 -0.2700 -0.5896 -0.9420
    3MOL0     H  405   9.977   4.409   1.692  1.4307  1.4403  1.2440
    4MOL0     O  406   6.216  10.811  10.453  0.0938  0.4463 -0.4021
    4MOL0     C  407   6.168  10.780  10.561 -0.6155  0.0768  0.3432
    4MOL0     O  408   6.241  10.758  10.672 -0.1117 -0.2496 -0.5044
    4MOL0     C  409   6.374  10.775  10.668  0.2826  0.5641  0.5012
    4MOL0     C  410   6.440  10.900  10.692  0.2266  0.3708 -0.6864
    4MOL0     C  411   6.581  10.901  10.704  0.7513 -0.5832 -0.2938
    4MOL0     C  412   6.661  10.787  10.677  0.4984 -1.0525 -0.8877
    4MOL0     O  413   6.801  10.791  10.672  0.5101  0.1333 -0.5702
    4MOL0     C  414   6.870  10.911  10.700  0.1441 -0.0315 -0.6187
    4MOL0     C  415   7.027  10.885  10.698  0.3636 -0.5445 -0.0251
    4MOL0     C  416   7.084  10.877  10.555  0.2796 -0.2187  0.1434
    4MOL0     C  417   7.233  10.895  10.550  0.0233 -0.4620  0.3486
    4MOL0     C  418   7.288  11.035  10.559 -0.0000  0.4983 -0.0968
    4MOL0     C  419   7.442  11.036  10.582 -0.2597 -0.7296 -0.3286
    4MOL0     C  420   7.502  11.168  10.621  1.0139 -0.1125  0.1198
    4MOL0     C  421   7.651  11.179  10.661 -0.8531  1.0297  0.1718
    4MOL0     N  422   7.745  11.127  10.570  0.6270 -0.8049  0.2265
    4MOL0     C  423   7.778  11.183  10.455 -1.0790 -0.0128 -0.1310
    4MOL0     C  424   7.889  11.117  10.417  0.0211  0.5868  1.1559
    4MOL0     C  425   7.975  11.165  10.296  0.1772  0.3015  0.5815
    4MOL0     C  426   8.111  11.213  10.325 -0.6180  0.5110 -0.4720
    4MOL0     C  427   8.198  11.124  10.408 -0.7353  0.6279 -0.2158
    4MOL0     C  428   8.348  11.132  10.370  0.8628 -0.2562  0.2560
    4MOL0     O  429   8.412  11.258  10.359  0.8515 -0.1080 -0.2670
    4MOL0     C  430   8.551  11.258  10.339  0.0736 -0.0839 -0.4283
    4MOL0     C  431   8.625  11.141  10.323  0.0745  0.0715  1.0758
    4MOL0     C  432   8.762  11.144  10.314  1.4046 -0.0164  0.0554
    4MOL0     C  433   8.836  11.263  10.319 -0.0187 -0.1963 -0.8814
    4MOL0     C  434   8.982  11.274  10.278 -0.2003 -0.3410 -0.1316
    4MOL0     O  435   9.048  11.393  10.270  0.2142 -0.1525 -0.1044
    4MOL0     C  436   9.180  11.398  10.246  0.3008  0.0829  0.9064
    4MOL0     C  437   9.271  11.388  10.349 -0.1905 -0.0538 -0.0849
    4MOL0     C  438   9.408  11.359  10.331  0.0312 -0.7070  0.3088
    4MOL0     C  439   9.452  11.354  10.198 -0.0139 -0.0872 -0.0370
    4MOL0     O  440   9.581  11.336  10.184 -0.4416  0.5062 -0.5110
    4MOL0     C  441   9.627  11.341  10.054 -1.2136  0.0159  0.1830
    4MOL0     C  442   9.777  11.311  10.046  0.0953  0.1564  0.6015
    4MOL0     C  443   9.839  11.356   9.905 -1.1656  0.2764 -0.5401
    4MOL0     C  444   9.992  11.370   9.901 -0.6591  0.1967 -0.5035
    4MOL0     C  445  10.049  11.361   9.762 -0.3797  0.0788  0.7664
    4MOL0     C  446  10.200  11.395   9.769 -1.2272 -0.6113 -0.2385
    4MOL0     C  447  10.257  11.429   9.632  0.5365  0.1474  0.3839
    4MOL0     C  448  10.411  11.418   9.619  0.2952  0.1219 -0.2977
    4MOL0    Cl  449  10.477  11.519   9.756 -0.1316  0.1407  0.4709
    4MOL0     C  450   9.358  11.380  10.089 -0.3992 -0.0572 -0.0077
    4MOL0     C  451   9.225  11.399  10.116  0.3154  0.1200  0.6019
    4MOL0     O  452   9.031  11.163  10.259  0.7414 -0.5986  0.2828
    4MOL0     C  453   8.762  11.383  10.329 -0.2192  0.9244  0.3236
    4MOL0     C  454   8.621  11.381  10.343 -0.1526  0.0211 -0.1979
    4MOL0     N  455   7.913  11.011  10.508  0.4785 -0.5700  0.2028
    4MOL0     N  456   7.822  11.023  10.599  0.3490 -0.5459  0.1944
    4MOL0     C  457   6.594  10.668  10.639 -0.2427  0.2728 -0.0300
    4MOL0     C  458   6.454  10.660  10.645 -0.1809  0.4525  0.3572
    4MOL0     C  459   6.018  10.749  10.568  0.0915 -0.0210 -0.1142
    4MOL0     C  460   5.965  10.721  10.695  0.1484 -0.4150  0.5847
    4MOL0     C  461   5.827  10.710  10.716  0.8358 -0.3263  0.3928
    4MOL0     C  462   5.732  10.716  10.613 -0.4228  0.3802 -0.1463
    4MOL0     O  463   5.604  10.682  10.645  0.2365 -0.2909 -0.1349
    4MOL0     C  464   5.506  10.663  10.546  0.8243  0.2880 -0.2155
    4MOL0     C  465   5.380  10.574  10.594 -0.2821 -0.5614  0.4472
    4MOL0     C  466   5.308  10.639  10.706 -0.0465 -0.3339  0.1754
    4MOL0     C  467   5.189  10.565  10.765 -0.3385  0.3624  0.9558
    4MOL0     C  468   5.067  10.573  10.675  0.1250 -0.0140  0.9367
    4MOL0     C  469   4.966  10.584  10.605  0.0535 -0.6052  0.1851
    4MOL0     C  470   5.785  10.743  10.489  0.2099 -0.4115 -0.1389
    4MOL0     C  471   5.920  10.759  10.464  0.4026 -0.1844 -0.0657
    4MOL0     C  472   5.963  10.801  10.323 -0.0023  0.5008 -0.2707
    4MOL0     H  473   6.379  10.987  10.714  0.0715  0.5261 -1.6635
    4MOL0     H  474   6.631  10.996  10.720 -0.9717  0.2834  0.1216
    4MOL0     H  475   6.860  10.998  10.634  1.9968  0.8677  0.2172
    4MOL0     H  476   6.838  10.947  10.799  2.1748  2.2534 -0.7026
    4MOL0     H  477   7.052  10.799  10.759  3.2504  0.8446  0.9279
    4MOL0     H  478   7.074  10.972  10.746 -0.7639  0.0393  0.0570
    4MOL0     H  479   7.041  10.966  10.508 -1.1817 -0.1781  1.4599
    4MOL0     H  480   7.036  10.791  10.507 -2.3496  1.1898  0.0579
    4MOL0     H  481   7.274  10.823  10.622 -1.6485 -1.5746  0.2568
    4MOL0     H  482   7.272  10.860  10.453  1.9008  0.5579  0.6829
    4MOL0     H  483   7.271  11.086  10.464 -0.1249  1.3529  0.3722
    4MOL0     H  484   7.223  11.088  10.629 -1.4651 -1.0227 -0.2305
    4MOL0     H  485   7.469  10.985  10.675  0.6362  2.9629  1.6797
    4MOL0     H  486   7.493  10.996  10.494 -1.1731  0.5000 -1.4764
    4MOL0     H  487   7.437  11.213  10.696 -2.4437 -2.7704 -1.0163
    4MOL0     H  488   7.500  11.234  10.534  1.5715 -1.3302 -0.8501
    4MOL0     H  489   7.681  11.282  10.685  0.9723  0.9764 -1.6603
    4MOL0     H  490   7.660  11.124  10.755 -0.6054  0.9031  0.0742
    4MOL0     H  491   7.727  11.265  10.405  0.4632 -0.5974 -2.8409
    4MOL0     H  492   7.969  11.090  10.216 -1.1838  1.5789 -0.5755
    4MOL0     H  493   7.927  11.246  10.240  2.7125 -0.0585 -2.3502
    4MOL0     H  494   8.164  11.250  10.237  1.3665 -0.3496  0.2995
    4MOL0     H  495   8.107  11.303  10.387  0.4139  1.7574 -2.0943
    4MOL0     H  496   8.159  11.022  10.400 -1.9697  1.0559  0.1676
    4MOL0     H  497   8.192  11.166  10.509  1.7009 -0.2204  0.3579
    4MOL0     H  498   8.364  11.098  10.268  0.8143  2.5009 -0.7614
    4MOL0     H  499   8.393  11.083  10.457  0.9845  2.8176  2.0911
    4MOL0     H  500   8.574  11.046  10.335  2.0249 -1.2424 -0.3943
    4MOL0     H  501   8.815  11.051  10.296  0.5097  0.0865 -3.7817
    4MOL0     H  502   9.233  11.394  10.451  2.0942  0.4244  0.7974
    4MOL0     H  503   9.478  11.355  10.414  0.1530  2.6874  0.5312
    4MOL0     H  504   9.578  11.262   9.996 -0.9676 -0.0803  0.1045
    4MOL0     H  505   9.593  11.432  10.004 -0.4269 -0.2503 -0.8820
    4MOL0     H  506   9.826  11.359  10.132 -2.6672  0.6190  2.0288
    4MOL0     H  507   9.798  11.205  10.060 -3.9823 -1.4882 -3.4618
    4MOL0     H  508   9.799  11.282   9.836 -0.1817 -0.5560 -0.2505
    4MOL0     H  509   9.798  11.453   9.876  1.1341  1.5165  0.1070
    4MOL0     H  510  10.039  11.285   9.951  0.8844  2.1801  1.5954
    4MOL0     H  511  10.038  11.455   9.953  2.9548 -3.1512  2.3838
    4MOL0     H  512  10.001  11.428   9.690  0.8751  1.2859  1.0126
    4MOL0     H  513  10.037  11.263   9.716 -1.0337  0.2989  0.4476
    4MOL0     H  514  10.223  11.486   9.825  0.8372 -0.1068 -1.7720
    4MOL0     H  515  10.255  11.309   9.808  1.3816  0.4898 -1.2717
    4MOL0     H  516  10.233  11.532   9.604  1.6035  0.0060 -1.1638
    4MOL0     H  517  10.219  11.359   9.557 -2.0285 -0.2613  1.9201
    4MOL0     H  518  10.446  11.314   9.623 -0.7608 -0.2887 -1.1230
    4MOL0     H  519  10.445  11.444   9.519  0.6914 -1.1802 -0.5187
    4MOL0     H  520   9.382  11.366   9.984 -0.7558 -0.0400 -0.0944
    4MOL0     H  521   9.148  11.413  10.041  0.1988  2.6136  1.0934
    4MOL0     H  522   8.810  11.480  10.333 -0.9969  1.2856  1.2717
    4MOL0     H  523   8.559  11.468  10.361 -1.8928 -1.2995  0.4147
    4MOL0     H  524   6.664  10.587  10.620 -2.9973 -1.9256 -1.5591
    4MOL0     H  525   6.414  10.562  10.621 -0.9441  0.3596  1.8777
    4MOL0     H  526   6.041  10.714  10.772  0.7245  2.7693  0.4436
    4MOL0     H  527   5.786  10.682  10.813  0.1326 -0.4080  0.0777
    4MOL0     H  528   5.548  10.608  10.460 -1.1646  0.2098 -1.1924
    4MOL0     H  529   5.477  10.752  10.489  0.2860 -1.3987 -2.7402
    4MOL0     H  530   5.405  10.470  10.615  0.5355 -0.2959  0.8506
    4MOL0     H  531   5.313  10.565  10.508 -1.1560  3.0548  0.5669
    4MOL0     H  532   5.269  10.735  10.671 -1.0589 -1.3961 -1.7068
    4MOL0     H  533   5.382  10.657  10.785  0.8973  0.5499 -0.8672
    4MOL0     H  534   5.206  10.458  10.777 -1.9081 -0.0883 -0.4504
    4MOL0     H  535   5.152  10.618  10.854 -1.1117  0.9052  0.3211
    4MOL0     H  536   4.874  10.610  10.556  0.5101  1.4761  0.3426
    4MOL0     H  537   5.715  10.754  10.407  0.3759 -0.0135 -0.2330
    4MOL0     H  538   5.885  10.780  10.249  1.2251  1.1995 -1.8250
    4MOL0     H  539   5.987  10.908  10.323 -3.6784  1.4717 -0.7492
    4MOL0     H  540   6.049  10.744  10.287 -3.7512 -4.2179 -2.8822
    5MOL0     O  541   6.377   9.777   1.412 -0.5362 -0.9460  0.6460
    5MOL0     C  542   6.371   9.664   1.371  0.0944 -0.7323 -0.8580
    5MOL0     O  543   6.480   9.578   1.341  0.1206  0.6116  0.1584
    5MOL0     C  544   6.612   9.624   1.352 -0.1384  0.3657  0.5241
    5MOL0     C  545   6.707   9.631   1.249 -0.8828  1.2839 -0.3265
    5MOL0     C  546   6.843   9.669   1.277 -0.2674  0.0265 -0.0749
    5MOL0     C  547   6.876   9.700   1.413  0.8075  0.2335  0.6954
    5MOL0     O  548   7.004   9.735   1.444 -0.0319  1.0061 -0.8499
    5MOL0     C  549   7.012   9.859   1.516 -0.4775  0.0277 -0.1835
    5MOL0     C  550   7.131   9.936   1.454  0.3524 -0.0267 -0.1133
    5MOL0     C  551   7.266   9.904   1.512  0.2523  0.0959  0.3220
    5MOL0     C  552   7.380   9.979   1.460 -0.1792  0.1590 -0.0299
    5MOL0     C  553   7.521   9.935   1.511 -0.4143  0.7040 -0.1911
    5MOL0     C  554   7.531   9.948   1.667  0.0466 -0.3525  1.0107
    5MOL0     C  555   7.678   9.924   1.699 -0.1781  0.4028 -0.4425
    5MOL0     C  556   7.695   9.919   1.855  0.3215 -0.0768  0.3042
    5MOL0     N  557   7.823   9.845   1.884 -0.4628 -0.4436 -0.2622
    5MOL0     C  558   7.840   9.711   1.904  0.8965  1.1644  0.3293
    5MOL0     C  559   7.973   9.685   1.902  0.1752 -0.3560 -0.4519
    5MOL0     C  560   8.055   9.561   1.944  0.6990  0.0280 -0.5689
    5MOL0     C  561   8.205   9.569   1.939  0.4833  0.2196  0.2313
    5MOL0     C  562   8.291   9.443   1.976  0.1372  0.2051  0.2892
    5MOL0     C  563   8.433   9.480   2.007 -0.2073 -0.7122  0.2620
    5MOL0     O  564   8.437   9.554   2.135 -0.3973  0.1882 -0.2435
    5MOL0     C  565   8.566   9.567   2.168 -1.0529 -0.1586 -0.0761
    5MOL0     C  566   8.642   9.486   2.258 -0.2954 -0.2347  1.3240
    5MOL0     C  567   8.768   9.527   2.311  0.1201 -0.9849  0.0827
    5MOL0     C  568   8.824   9.646   2.268  0.2190 -0.7870  0.2078
    5MOL0     C  569   8.959   9.693   2.323 -0.8828  0.2610 -0.0962
    5MOL0     O  570   9.013   9.794   2.255 -0.1264  0.3125 -0.2987
    5MOL0     C  571   9.136   9.845   2.296 -0.2147  0.8490  0.8746
    5MOL0     C  572   9.160   9.901   2.422 -0.4290 -0.4059  0.4125
    5MOL0     C  573   9.292   9.928   2.465 -0.3602  0.3646 -0.0400
    5MOL0     C  574   9.403   9.910   2.380 -0.4208 -0.3581 -0.9320
    5MOL0     O  575   9.539   9.942   2.416  0.2613  0.0413  0.0164
    5MOL0     C  576   9.614  10.016   2.327  0.4077  0.1780  0.1330
    5MOL0     C  577   9.555  10.156   2.284  0.1381 -0.4662 -0.3552
    5MOL0     C  578   9.650  10.232   2.192 -0.3585 -0.1647  0.1902
    5MOL0     C  579   9.751  10.141   2.107 -0.1173 -0.4681 -0.5176
    5MOL0     C  580   9.846  10.230   2.014 -0.1277 -0.7470  0.0295
    5MOL0     C  581   9.953  10.319   2.088 -0.2738  0.0909 -0.0418
    5MOL0     C  582  10.095  10.243   2.093 -0.1650  0.4731  1.0145
    5MOL0     C  583  10.203  10.351   2.104  0.4932  0.1370  0.5300
    5MOL0    Cl  584  10.377  10.305   2.087  0.1528 -0.2887 -0.2321
    5MOL0     C  585   9.378   9.854   2.255  0.8324 -0.2385 -0.0743
    5MOL0     C  586   9.246   9.824   2.208  0.0203 -0.2785 -0.0558
    5MOL0     O  587   9.018   9.630   2.414  0.5528  0.4105  0.0574
    5MOL0     C  588   8.752   9.722   2.173 -0.1550 -0.4934 -0.4564
    5MOL0     C  589   8.630   9.684   2.128  0.1289 -0.4573 -0.4722
    5MOL0     N  590   8.037   9.809   1.884 -0.0084 -1.1990  0.4836
    5MOL0     N  591   7.947   9.903   1.884  0.9713  0.1156  0.4304
    5MOL0     C  592   6.776   9.696   1.512  0.0460  0.7480  0.1048
    5MOL0     C  593   6.648   9.650   1.486  0.0208 -0.1666 -0.9143
    5MOL0     C  594   6.233   9.617   1.342  0.5165 -0.3973 -0.5556
    5MOL0     C  595   6.222   9.493   1.285 -0.0714 -0.2923  0.3246
    5MOL0     C  596   6.105   9.435   1.261  0.0051  0.3777  0.8686
    5MOL0     C  597   5.986   9.507   1.289  0.0153  0.6839  0.3801
    5MOL0     O  598   5.875   9.429   1.262  0.2501  0.2339  0.4121
    5MOL0     C  599   5.754   9.457   1.346 -0.4473  0.2591  0.0472
    5MOL0     C  600   5.649   9.338   1.345 -0.5315  0.0741 -0.2402
    5MOL0     C  601   5.562   9.321   1.227  0.5096  0.5085  0.4280
    5MOL0     C  602   5.448   9.413   1.232  0.0134 -0.4069  0.4320
    5MOL0     C  603   5.389   9.421   1.101  0.0233  0.6944 -0.0529
    5MOL0     C  604   5.322   9.441   1.001 -0.2585  1.0303 -0.6173
    5MOL0     C  605   5.989   9.634   1.347  0.4345  0.1670 -0.2869
    5MOL0     C  606   6.112   9.688   1.368  0.3179  0.1083 -0.4927
    5MOL0     C  607   6.104   9.829   1.424 -0.6682  0.5020 -0.5113
    5MOL0     H  608   6.682   9.599   1.149  0.5412  0.1076 -0.3262
    5MOL0     H  609   6.914   9.672   1.195 -0.2567  2.4867 -0.0570
    5MOL0     H  610   6.920   9.918   1.503 -1.4495 -1.4311 -0.1931
    5MOL0     H  611   7.018   9.834   1.622 -2.5170 -1.8989 -0.4506
    5MOL0     H  612   7.122  10.043   1.476  3.8524  0.4291 -0.2824
    5MOL0     H  613   7.136   9.918   1.347 -0.8129  1.1966 -0.3922
    5MOL0     H  614   7.282   9.796   1.508 -2.9889 -0.4472 -1.6833
    5MOL0     H  615   7.263   9.925   1.619  0.0984  0.5734  0.2238
    5MOL0     H  616   7.378   9.970   1.351 -2.9977 -1.3026  0.0316
    5MOL0     H  617   7.367  10.081   1.496 -0.2202 -0.2639  1.2086
    5MOL0     H  618   7.544   9.831   1.485 -0.8962 -0.2827  2.8337
    5MOL0     H  619   7.594  10.007   1.474 -1.1806  1.3615 -0.4397
    5MOL0     H  620   7.506  10.047   1.706  2.6548  0.5110  0.6680
    5MOL0     H  621   7.472   9.871   1.718 -1.9657 -1.4246 -2.5841
    5MOL0     H  622   7.740  10.002   1.654  2.0481  0.1658  2.0170
    5MOL0     H  623   7.710   9.828   1.658  2.4622  0.3765  1.4872
    5MOL0     H  624   7.696  10.015   1.909 -2.6626 -0.2381  0.8320
    5MOL0     H  625   7.616   9.860   1.903  1.3682 -1.3496  0.5104
    5MOL0     H  626   7.771   9.628   1.918  0.3669  1.5709  0.1327
    5MOL0     H  627   8.018   9.527   2.042  1.5037 -3.9268 -1.4418
    5MOL0     H  628   8.037   9.481   1.872 -1.3108  1.5497 -1.8598
    5MOL0     H  629   8.233   9.588   1.835 -0.1556  0.5207  0.1057
    5MOL0     H  630   8.231   9.651   2.006 -0.0791  0.4885  0.1352
    5MOL0     H  631   8.303   9.389   1.882  1.0217  1.8548 -0.5905
    5MOL0     H  632   8.255   9.380   2.059 -0.3837  1.2390  0.8693
    5MOL0     H  633   8.475   9.554   1.937 -0.2426 -0.4905  0.4727
    5MOL0     H  634   8.495   9.391   2.013  0.1269 -0.3641  3.9424
    5MOL0     H  635   8.596   9.401   2.307  0.2242 -0.2960  1.7206
    5MOL0     H  636   8.812   9.474   2.395 -0.7532 -3.0219 -0.6709
    5MOL0     H  637   9.073   9.914   2.486 -1.1443 -0.9312 -0.4307
    5MOL0     H  638   9.303   9.976   2.562 -1.8574  0.1676  0.2561
    5MOL0     H  639   9.706  10.039   2.382 -0.9483  4.3025  1.0123
    5MOL0     H  640   9.640   9.961   2.236  0.7904  0.6452 -0.0472
    5MOL0     H  641   9.458  10.148   2.234  1.1609  0.1660 -2.5635
    5MOL0     H  642   9.523  10.220   2.367 -1.1356  0.4964 -1.5322
    5MOL0     H  643   9.600  10.313   2.139  0.8462  2.4287  2.6989
    5MOL0     H  644   9.719  10.288   2.256  1.7445 -2.8880  0.5341
    5MOL0     H  645   9.680  10.089   2.041 -1.3764  1.1802 -0.5317
    5MOL0     H  646   9.804  10.062   2.161 -1.7929 -1.1127  0.2778
    5MOL0     H  647   9.774  10.286   1.954 -1.0182  0.3619  2.0456
    5MOL0     H  648   9.909  10.166   1.952  3.0597  2.0626  0.0453
    5MOL0     H  649   9.975  10.408   2.029 -1.4436 -2.3875 -4.7162
    5MOL0     H  650   9.924  10.344   2.191  0.9654 -2.2215  0.9339
    5MOL0     H  651  10.115  10.183   2.004 -1.6174 -0.1206  1.0558
    5MOL0     H  652  10.114  10.172   2.173  1.1508 -1.4081 -0.8570
    5MOL0     H  653  10.188  10.427   2.026  2.2808  0.3501  0.3550
    5MOL0     H  654  10.195  10.389   2.206  2.0301 -2.3230  1.6464
    5MOL0     H  655   9.457   9.832   2.184  2.1745 -2.6162  1.9793
    5MOL0     H  656   9.226   9.796   2.106 -0.2216  0.5023 -0.2254
    5MOL0     H  657   8.787   9.817   2.133 -1.5861  0.0528 -0.4891
    5MOL0     H  658   8.567   9.747   2.065 -0.7467 -0.1709  0.6666
    5MOL0     H  659   6.802   9.708   1.617  2.6730 -0.9565 -0.2757
    5MOL0     H  660   6.580   9.642   1.569 -2.8181  1.0513 -2.9460
    5MOL0     H  661   6.310   9.430   1.273  0.1124 -0.2065  1.1123
    5MOL0     H  662   6.097   9.337   1.216 -1.5893  1.0158 -0.3696
    5MOL0     H  663   5.696   9.547   1.322  0.2037  0.7912  0.4619
    5MOL0     H  664   5.797   9.463   1.446  0.5056 -1.2324 -0.2431
    5MOL0     H  665   5.591   9.346   1.437 -2.2480 -1.0116 -1.1810
    5MOL0     H  666   5.700   9.242   1.355  0.2967  0.0558 -3.4270
    5MOL0     H  667   5.517   9.221   1.233 -1.1412  1.2658  1.6184
    5MOL0     H  668   5.610   9.323   1.129 -1.9819 -2.2948 -0.9922
    5MOL0     H  669   5.366   9.378   1.295 -1.4335 -1.4162 -1.8875
    5MOL0     H  670   5.477   9.515   1.260 -3.2420  0.5343  0.8048
    5MOL0     H  671   5.252   9.463   0.923  0.1925  2.6460 -0.5918
    5MOL0     H  672   5.891   9.674   1.370 -0.4339 -1.5358 -0.8095
    5MOL0     H  673   6.129   9.902   1.347 -4.2946 -0.5215 -2.9124
    5MOL0     H  674   5.999   9.848   1.446 -0.4828 -0.1277  1.0571
    5MOL0     H  675   6.171   9.836   1.511 -0.9880 -4.4954  0.4314
    6MOL0     O  676   5.138   9.195   8.384  0.0765 -0.1406 -0.2414
    6MOL0     C  677   5.069   9.288   8.426 -0.9545 -0.0350 -0.6441
    6MOL0     O  678   5.124   9.410   8.473  0.1041  0.4572 -0.0367
    6MOL0     C  679   5.249   9.430   8.526  0.3966 -0.6341 -0.0243
    6MOL0     C  680   5.294   9.568   8.529 -0.6371 -0.5437  0.8649
    6MOL0     C  681   5.428   9.586   8.571 -0.2710 -0.3007  0.4652
    6MOL0     C  682   5.522   9.488   8.601  0.4472  1.1321  0.1903
    6MOL0     O  683   5.649   9.515   8.634  0.2166 -0.5992 -0.8478
    6MOL0     C  684   5.760   9.439   8.577  0.0057  0.1009  0.1836
    6MOL0     C  685   5.893   9.511   8.597  0.6234  0.7775 -0.0755
    6MOL0     C  686   5.991   9.478   8.489 -0.0608 -0.5263 -0.1378
    6MOL0     C  687   6.123   9.554   8.504 -0.2352 -0.5668 -0.7014
    6MOL0     C  688   6.217   9.513   8.625  0.3495 -0.1399  0.1217
    6MOL0     C  689   6.359   9.571   8.609  0.5129  0.3347  0.0252
    6MOL0     C  690   6.447   9.538   8.740 -0.3254  0.9578 -0.3795
    6MOL0     C  691   6.581   9.618   8.737  0.3279 -0.5986 -0.7525
    6MOL0     N  692   6.683   9.564   8.832  0.6336 -0.4124  0.4778
    6MOL0     C  693   6.667   9.565   8.966 -0.3767 -0.2292  0.1896
    6MOL0     C  694   6.780   9.486   8.995 -0.3247 -0.1081 -0.3066
    6MOL0     C  695   6.826   9.442   9.130 -0.0700 -0.7220  0.3302
    6MOL0     C  696   6.731   9.358   9.219  0.4234  0.5821  0.3984
    6MOL0     C  697   6.690   9.225   9.163 -0.4732 -0.7891  0.7778
    6MOL0     C  698   6.559   9.227   9.087 -0.1293 -0.0562 -0.3703
    6MOL0     O  699   6.450   9.194   9.175  1.3457 -0.6974  0.1684
    6MOL0     C  700   6.316   9.204   9.121 -0.0968 -0.5261  0.0556
    6MOL0     C  701   6.204   9.190   9.201  0.3916 -0.0675  0.1406
    6MOL0     C  702   6.073   9.196   9.149 -0.9428 -0.5461 -0.0912
    6MOL0     C  703   6.054   9.209   9.008  0.8668 -0.0982 -0.7796
    6MOL0     C  704   5.921   9.224   8.965 -0.0922  0.6570 -0.1377
    6MOL0     O  705   5.824   9.198   9.053  0.0406 -0.2135  0.3612
    6MOL0     C  706   5.694   9.174   9.001 -0.0176 -0.5232 -0.1333
    6MOL0     C  707   5.585   9.221   9.075  0.1630  0.0046  0.3323
    6MOL0     C  708   5.455   9.193   9.030 -0.3981 -0.5516 -0.1012
    6MOL0     C  709   5.430   9.131   8.903  0.1081 -0.8928 -0.3247
    6MOL0     O  710   5.302   9.112   8.850  0.5472 -0.3571 -0.7204
    6MOL0     C  711   5.197   9.210   8.874 -0.1198  0.0172  0.4174
    6MOL0     C  712   5.070   9.149   8.818  1.0697 -0.0956  0.5411
    6MOL0     C  713   4.947   9.225   8.875  0.2436  0.2218 -0.0581
    6MOL0     C  714   4.808   9.161   8.846  0.4666  0.3930  0.2137
    6MOL0     C  715   4.694   9.226   8.935  0.2235 -0.5417  0.0837
    6MOL0     C  716   4.591   9.124   8.989  0.7459 -0.9952 -0.4779
    6MOL0     C  717   4.495   9.197   9.087  0.4337 -1.0218  0.5807
    6MOL0     C  718   4.462   9.105   9.204 -0.0616  0.6499  0.3780
    6MOL0    Cl  719   4.403   8.955   9.136 -0.4136  0.7135 -0.3823
    6MOL0     C  720   5.533   9.080   8.829  0.0284  0.6601  0.3836
    6MOL0     C  721   5.660   9.093   8.884 -0.5081 -0.7973 -0.1895
    6MOL0     O  722   5.906   9.245   8.847  0.4015 -0.6841  0.2210
    6MOL0     C  723   6.167   9.206   8.924 -0.9939 -0.7919  0.4021
    6MOL0     C  724   6.300   9.214   8.980  0.1717  0.2496 -0.1999
    6MOL0     N  725   6.847   9.446   8.882  0.0911 -0.3631 -0.0276
    6MOL0     N  726   6.788   9.496   8.779 -1.2199 -0.5811 -0.3430
    6MOL0     C  727   5.470   9.355   8.600  0.3002 -0.4599 -0.1934
    6MOL0     C  728   5.343   9.327   8.561 -0.2436 -0.4196 -0.1283
    6MOL0     C  729   4.925   9.264   8.401 -0.5497  0.3625  0.3490
    6MOL0     C  730   4.870   9.139   8.413  0.4279  0.2087  0.4324
    6MOL0     C  731   4.730   9.119   8.396 -0.7124  0.4956  0.3298
    6MOL0     C  732   4.648   9.227   8.373  0.0700 -0.9429  0.7237
    6MOL0     O  733   4.510   9.221   8.354  0.9626 -0.2921 -0.2275
    6MOL0     C  734   4.437   9.104   8.396 -0.4531  0.2611  0.9400
    6MOL0     C  735   4.405   9.124   8.547 -0.1374  0.2125 -0.0489
    6MOL0     C  736   4.278   9.210   8.570  0.0096  0.2644 -0.0625
    6MOL0     C  737   4.274   9.266   8.710  0.6743  1.1031 -0.5359
    6MOL0     C  738   4.233   9.160   8.811  0.0467 -0.3642  0.2417
    6MOL0     C  739   4.205   9.078   8.896 -0.1054  0.4030  0.1041
    6MOL0     C  740   4.699   9.353   8.352 -0.3262 -0.1801  0.0502
    6MOL0     C  741   4.838   9.374   8.355  0.3451  0.0173  0.8967
    6MOL0     C  742   4.888   9.508   8.313  0.2417 -0.4240 -0.1037
    6MOL0     H  743   5.239   9.658   8.505 -1.4972 -2.0642 -4.0265
    6MOL0     H  744   5.452   9.692   8.572 -2.9742  0.4259 -1.2714
    6MOL0     H  745   5.767   9.336   8.615 -0.5745 -0.6995 -1.7192
    6MOL0     H  746   5.735   9.436   8.471  0.7834  1.1000 -0.0449
    6MOL0     H  747   5.925   9.478   8.696 -2.0982  0.7534  0.8722
    6MOL0     H  748   5.879   9.620   8.593 -1.0974  0.5543 -1.2083
    6MOL0     H  749   5.945   9.493   8.391 -1.3415 -4.2671 -0.2919
    6MOL0     H  750   6.009   9.370   8.484  0.7758 -0.4130  0.2921
    6MOL0     H  751   6.174   9.560   8.407 -1.8698 -1.3808 -1.6597
    6MOL0     H  752   6.089   9.657   8.520 -2.6365 -1.4874  0.5774
    6MOL0     H  753   6.173   9.542   8.720 -0.7663  2.1977 -1.0174
    6MOL0     H  754   6.237   9.405   8.627 -2.3131 -0.6962  2.7848
    6MOL0     H  755   6.398   9.526   8.517 -1.3887 -2.3474  0.4253
    6MOL0     H  756   6.354   9.679   8.595 -0.9927  0.6427  2.3397
    6MOL0     H  757   6.461   9.431   8.751  0.0585  1.0446 -0.0090
    6MOL0     H  758   6.397   9.569   8.833  1.4104 -1.3973  1.4533
    6MOL0     H  759   6.617   9.607   8.634  1.5786  1.4028 -0.5663
    6MOL0     H  760   6.567   9.725   8.755  0.0259 -0.4008 -2.0344
    6MOL0     H  761   6.596   9.621   9.027  1.3591  2.3379  0.0311
    6MOL0     H  762   6.922   9.392   9.111 -0.7663 -1.4756 -1.3737
    6MOL0     H  763   6.848   9.527   9.195 -1.6602 -0.1232  0.1084
    6MOL0     H  764   6.774   9.342   9.319  0.6597  1.4875  0.4559
    6MOL0     H  765   6.648   9.427   9.239 -1.3509 -1.8683  2.0959
    6MOL0     H  766   6.692   9.160   9.251  0.4804 -1.0015  0.6062
    6MOL0     H  767   6.763   9.188   9.091 -1.8688 -2.4016  0.1356
    6MOL0     H  768   6.561   9.157   9.003  1.3216 -0.9652  0.3840
    6MOL0     H  769   6.531   9.330   9.061 -2.8159 -0.3154  1.1330
    6MOL0     H  770   6.222   9.176   9.307 -1.0494 -0.4616  0.3609
    6MOL0     H  771   5.989   9.178   9.215 -1.4013 -2.4203 -1.1160
    6MOL0     H  772   5.593   9.270   9.172 -1.0302  2.7092 -0.8206
    6MOL0     H  773   5.374   9.219   9.097  0.9165  2.3779  0.5005
    6MOL0     H  774   5.181   9.232   8.980  0.6923  0.4290  0.4569
    6MOL0     H  775   5.221   9.299   8.814  0.9730 -0.7081 -0.2494
    6MOL0     H  776   5.069   9.134   8.710 -2.1922 -0.8541  0.5664
    6MOL0     H  777   5.064   9.052   8.869  3.5429  0.5787  2.3419
    6MOL0     H  778   4.954   9.226   8.985  1.1964  5.6358  0.0954
    6MOL0     H  779   4.935   9.325   8.833  0.0582 -0.2953 -1.2901
    6MOL0     H  780   4.805   9.053   8.862 -0.0901  0.2365 -0.8916
    6MOL0     H  781   4.782   9.178   8.741  0.2435 -0.0399  0.1948
    6MOL0     H  782   4.647   9.311   8.887  2.3792 -0.2887 -1.7459
    6MOL0     H  783   4.744   9.260   9.026 -1.2469 -2.4843  1.7041
    6MOL0     H  784   4.528   9.083   8.909 -0.1529 -1.6820  0.5494
    6MOL0     H  785   4.638   9.047   9.050 -4.5364 -4.0215  0.4044
    6MOL0     H  786   4.402   9.226   9.038  0.2796  1.6365  2.2533
    6MOL0     H  787   4.534   9.290   9.129 -2.0739 -1.1016  3.4253
    6MOL0     H  788   4.547   9.082   9.269  0.1308 -0.7232 -0.3113
    6MOL0     H  789   4.379   9.145   9.262  2.3133  1.6602  3.3321
    6MOL0     H  790   5.515   9.023   8.739  0.0944 -1.5875  1.7248
    6MOL0     H  791   5.743   9.049   8.828 -2.3982 -0.5881 -3.3738
    6MOL0     H  792   6.151   9.208   8.816  1.4611  0.4781 -0.0181
    6MOL0     H  793   6.383   9.196   8.913 -0.8948  0.7089 -1.6840
    6MOL0     H  794   5.529   9.271   8.635 -2.4843 -2.8163 -0.7878
    6MOL0     H  795   5.310   9.223   8.556 -1.8173  0.0990 -1.3390
    6MOL0     H  796   4.946   9.062   8.424  1.4615  1.1011 -0.2157
    6MOL0     H  797   4.701   9.016   8.378  1.4363 -0.4558  1.9335
    6MOL0     H  798   4.491   9.013   8.370 -1.1052  0.7270 -2.5468
    6MOL0     H  799   4.348   9.104   8.333  2.5694  4.1419 -4.0929
    6MOL0     H  800   4.498   9.158   8.594  0.4093  1.3909 -1.8996
    6MOL0     H  801   4.385   9.031   8.602  0.7904 -1.0484 -1.7697
    6MOL0     H  802   4.188   9.149   8.555 -0.2287  0.6907 -0.3864
    6MOL0     H  803   4.270   9.291   8.496  1.7803 -0.8755 -1.6025
    6MOL0     H  804   4.372   9.311   8.729  0.1947  1.3637  1.5341
    6MOL0     H  805   4.192   9.338   8.720  0.1487  0.1856  2.6192
    6MOL0     H  806   4.165   9.003   8.961 -1.4205  0.2623 -0.8320
    6MOL0     H  807   4.636   9.436   8.320  0.6764  0.7015  0.2921
    6MOL0     H  808   4.883   9.582   8.394 -2.5523  0.4691 -0.9657
    6MOL0     H  809   4.986   9.500   8.266  1.5311 -0.3063  2.3707
    6MOL0     H  810   4.837   9.551   8.226  3.7581  2.0455 -1.1819
    7MOL0     O  811   5.004   3.827   5.871 -0.1130 -0.4326  0.1054
    7MOL0     C  812   4.922   3.867   5.785  0.3423  0.4577  0.4441
    7MOL0     O  813   4.954   3.959   5.689  0.4372  0.4604 -0.4333
    7MOL0     C  814   5.088   3.982   5.677 -0.5664  0.7203 -0.8850
    7MOL0     C  815   5.166   4.037   5.786 -0.3163 -0.0590 -0.3547
    7MOL0     C  816   5.306   4.049   5.765  0.3539 -0.2041 -0.6945
    7MOL0     C  817   5.371   4.013   5.649 -0.1881 -0.0311  0.3707
    7MOL0     O  818   5.509   4.031   5.637 -0.1011 -0.1557 -0.3844
    7MOL0     C  819   5.571   3.951   5.539 -0.1103  0.2584  0.1342
    7MOL0     C  820   5.719   3.978   5.561 -0.0916 -0.6210  0.7031
    7MOL0     C  821   5.786   3.876   5.468 -0.3313  0.7024  0.3643
    7MOL0     C  822   5.918   3.930   5.419  0.8447  0.1103 -0.1295
    7MOL0     C  823   5.986   3.811   5.344  0.1880  0.0497 -0.0204
    7MOL0     C  824   6.121   3.861   5.298  0.1028 -0.1211  0.4943
    7MOL0     C  825   6.224   3.859   5.416  0.1559  0.1450  0.6362
    7MOL0     C  826   6.377   3.867   5.363  0.2002 -0.2977 -0.5593
    7MOL0     N  827   6.426   3.785   5.265 -0.7415  0.0077  0.4420
    7MOL0     C  828   6.472   3.653   5.287  0.0971  0.7386  0.1982
    7MOL0     C  829   6.559   3.618   5.183  0.5922 -0.8207 -0.0318
    7MOL0     C  830   6.644   3.499   5.177  0.9329  0.6588  0.1969
    7MOL0     C  831   6.787   3.527   5.217 -0.2410 -0.5454 -0.4784
    7MOL0     C  832   6.818   3.520   5.368  0.3750  0.4312  1.3077
    7MOL0     C  833   6.946   3.456   5.412  0.5961 -0.4730  0.4667
    7MOL0     O  834   7.055   3.519   5.356  0.6862  0.0839  0.4149
    7MOL0     C  835   7.181   3.496   5.393  0.1064  0.5069 -0.1646
    7MOL0     C  836   7.218   3.382   5.468 -0.2973  0.3263  0.4169
    7MOL0     C  837   7.346   3.354   5.515 -0.0149 -0.2022  0.5520
    7MOL0     C  838   7.453   3.448   5.480  0.6160  0.5876 -1.0101
    7MOL0     C  839   7.590   3.417   5.518 -0.2616 -0.2257  0.8523
    7MOL0     O  840   7.614   3.297   5.581 -0.2623  0.3719  0.0631
    7MOL0     C  841   7.745   3.278   5.634 -0.4408  1.1327 -0.0821
    7MOL0     C  842   7.768   3.142   5.662 -0.3182 -0.3231 -0.1271
    7MOL0     C  843   7.889   3.096   5.735 -0.4166  0.3288  0.0587
    7MOL0     C  844   7.973   3.195   5.786 -0.2720 -0.3476 -0.0224
    7MOL0     O  845   8.077   3.154   5.869 -0.3573 -0.6755  1.1093
    7MOL0     C  846   8.213   3.182   5.823  0.0906 -0.2940 -0.5078
    7MOL0     C  847   8.264   3.302   5.914 -0.4114  0.6364 -0.0782
    7MOL0     C  848   8.243   3.260   6.055  0.2380 -0.1816 -0.5659
    7MOL0     C  849   8.315   3.360   6.150 -0.0218 -0.7823 -0.7399
    7MOL0     C  850   8.472   3.374   6.148 -0.8028  0.1874  0.5759
    7MOL0     C  851   8.544   3.239   6.131 -0.0780 -0.4967  0.2847
    7MOL0     C  852   8.695   3.243   6.105 -0.4053  0.5080  0.7256
    7MOL0     C  853   8.770   3.273   6.240 -0.5937  1.2746 -0.4843
    7MOL0    Cl  854   8.928   3.354   6.203 -0.0387  0.1690 -0.4081
    7MOL0     C  855   7.948   3.330   5.758 -0.3060 -0.4172 -0.0855
    7MOL0     C  856   7.836   3.372   5.686 -1.4546  0.2960 -0.0570
    7MOL0     O  857   7.671   3.497   5.477 -0.2705 -0.5728  0.2266
    7MOL0     C  858   7.415   3.559   5.407 -0.3275 -0.1465 -0.2132
    7MOL0     C  859   7.287   3.580   5.369 -0.2090 -0.4699 -0.0282
    7MOL0     N  860   6.570   3.735   5.105 -0.1559 -0.0586  0.0071
    7MOL0     N  861   6.493   3.828   5.154 -0.0652 -0.7030  1.0400
    7MOL0     C  862   5.289   3.957   5.546  0.0759  0.7273  0.1474
    7MOL0     C  863   5.149   3.935   5.568 -0.0328 -0.2247  0.2006
    7MOL0     C  864   4.778   3.847   5.806 -0.2998  0.2852  0.1855
    7MOL0     C  865   4.687   3.927   5.735 -0.3340 -0.5849 -0.0669
    7MOL0     C  866   4.548   3.928   5.762 -0.5603  0.8566 -0.1671
    7MOL0     C  867   4.500   3.827   5.839  0.5320  0.2194  0.5320
    7MOL0     O  868   4.363   3.809   5.860 -0.4184 -0.2611 -0.4034
    7MOL0     C  869   4.298   3.778   5.737  0.2336  0.0735  0.6988
    7MOL0     C  870   4.155   3.766   5.759  0.9033  0.3747 -0.4161
    7MOL0     C  871   4.087   3.915   5.758 -0.4473  0.1848 -0.7581
    7MOL0     C  872   3.941   3.911   5.785  0.6585 -0.0670  0.3933
    7MOL0     C  873   3.870   3.828   5.684  0.2462  0.0352 -1.4524
    7MOL0     C  874   3.826   3.742   5.612  0.8828  0.4160  0.8343
    7MOL0     C  875   4.591   3.744   5.908  0.8132 -0.2224 -0.6839
    7MOL0     C  876   4.728   3.745   5.890  0.6014 -0.2099  0.0623
    7MOL0     C  877   4.811   3.643   5.964 -0.1567  0.9547  0.1341
    7MOL0     H  878   5.115   4.076   5.874 -1.9102  0.0257 -1.2807
    7MOL0     H  879   5.372   4.086   5.843 -0.6420 -0.4832  0.3138
    7MOL0     H  880   5.553   3.846   5.563  0.3887  0.7100  2.9207
    7MOL0     H  881   5.536   3.977   5.439 -1.8560  0.5944  0.7895
    7MOL0     H  882   5.752   3.971   5.665 -2.4462 -1.1165  1.4641
    7MOL0     H  883   5.748   4.077   5.526  1.3575 -1.7482 -1.5546
    7MOL0     H  884   5.722   3.853   5.383  0.8157 -0.2558 -0.2655
    7MOL0     H  885   5.799   3.783   5.524  1.8715  1.6300  1.5310
    7MOL0     H  886   5.892   4.013   5.352 -0.4939  2.2996  2.8705
    7MOL0     H  887   5.981   3.972   5.498 -3.0306  0.2233  3.1998
    7MOL0     H  888   5.997   3.722   5.407  2.1861  0.4101  0.2159
    7MOL0     H  889   5.926   3.780   5.259  0.4436 -1.9827  0.4916
    7MOL0     H  890   6.158   3.792   5.222 -0.3871  0.2885 -0.1340
    7MOL0     H  891   6.098   3.956   5.249  2.3310 -0.9449 -2.4741
    7MOL0     H  892   6.208   3.772   5.479 -0.5045 -0.1935  0.0183
    7MOL0     H  893   6.195   3.947   5.475 -1.9823  1.8976 -2.7079
    7MOL0     H  894   6.384   3.969   5.325  2.9231  0.0002  0.5117
    7MOL0     H  895   6.444   3.852   5.448 -0.0551 -1.7880 -0.6004
    7MOL0     H  896   6.436   3.586   5.364 -1.1104  3.1264  1.8636
    7MOL0     H  897   6.604   3.429   5.251 -1.4047 -1.6469 -2.9524
    7MOL0     H  898   6.638   3.438   5.087 -1.2202 -1.1699  1.4656
    7MOL0     H  899   6.843   3.440   5.184 -1.5564 -2.6915  2.4677
    7MOL0     H  900   6.827   3.618   5.170  1.4126 -1.8510 -1.7033
    7MOL0     H  901   6.740   3.460   5.416 -2.3467  2.9961  0.4031
    7MOL0     H  902   6.800   3.621   5.408  1.2302  2.2957 -2.5369
    7MOL0     H  903   6.947   3.349   5.390 -0.6150 -0.0642 -1.8462
    7MOL0     H  904   6.955   3.479   5.519 -1.0759  0.7072  0.3915
    7MOL0     H  905   7.144   3.307   5.496  0.9529 -1.3211 -0.5152
    7MOL0     H  906   7.362   3.261   5.568  2.9127  0.4808  1.0148
    7MOL0     H  907   7.697   3.069   5.626 -0.9010 -1.6058  3.2514
    7MOL0     H  908   7.912   2.991   5.751  0.9926  0.7229  0.7441
    7MOL0     H  909   8.277   3.100   5.856  1.5052  1.7057  2.1367
    7MOL0     H  910   8.234   3.198   5.717  2.0743 -0.9233 -0.2421
    7MOL0     H  911   8.370   3.310   5.889  0.2389  0.7937  2.4904
    7MOL0     H  912   8.205   3.389   5.884 -3.9737 -1.8929 -1.1093
    7MOL0     H  913   8.140   3.268   6.092  0.8678 -0.5858  1.3955
    7MOL0     H  914   8.269   3.156   6.079  0.1792  0.0021  0.3528
    7MOL0     H  915   8.281   3.327   6.249 -1.9753  0.4390 -0.9622
    7MOL0     H  916   8.283   3.462   6.128  1.3274 -0.1359  0.1191
    7MOL0     H  917   8.505   3.425   6.239 -2.7926  0.7622  1.0248
    7MOL0     H  918   8.489   3.448   6.070  0.3441  1.5905  2.1105
    7MOL0     H  919   8.528   3.168   6.213 -0.2508 -2.2056 -1.1724
    7MOL0     H  920   8.496   3.192   6.046  0.2180 -0.8109  0.2916
    7MOL0     H  921   8.717   3.319   6.030 -1.4974 -0.5615 -0.7392
    7MOL0     H  922   8.731   3.146   6.069 -0.1867  1.4108 -1.6134
    7MOL0     H  923   8.709   3.341   6.300 -1.3966  0.8975 -0.8738
    7MOL0     H  924   8.792   3.177   6.287  3.7674  1.4800 -1.5964
    7MOL0     H  925   8.020   3.400   5.800  2.0560 -3.2997  0.9551
    7MOL0     H  926   7.830   3.476   5.656 -0.1744  0.4111  0.0286
    7MOL0     H  927   7.491   3.629   5.376  0.7000 -1.5345 -0.9462
    7MOL0     H  928   7.272   3.672   5.313 -2.5845 -1.4521 -1.1399
    7MOL0     H  929   5.326   3.926   5.449 -0.8350  0.8563 -0.2564
    7MOL0     H  930   5.086   3.901   5.487  0.5180  0.0375 -0.3459
    7MOL0     H  931   4.719   3.998   5.660  0.4798 -0.8579  0.0095
    7MOL0     H  932   4.477   3.997   5.718  1.7727  2.5612 -1.4964
    7MOL0     H  933   4.340   3.684   5.702  2.1137  1.8401 -2.2544
    7MOL0     H  934   4.316   3.855   5.661 -0.8476 -1.9970 -1.8291
    7MOL0     H  935   4.130   3.702   5.845 -3.1604  0.7275 -1.1174
    7MOL0     H  936   4.107   3.712   5.677 -3.5478  1.6915  1.0002
    7MOL0     H  937   4.099   3.968   5.664  1.1478  0.3198 -0.5018
    7MOL0     H  938   4.136   3.972   5.837  2.1693 -1.0575 -1.3734
    7MOL0     H  939   3.932   3.874   5.888  1.0313 -1.5100 -0.0665
    7MOL0     H  940   3.893   4.009   5.787 -1.3905 -0.9648 -1.2159
    7MOL0     H  941   3.791   3.656   5.558  1.5541 -1.0896  2.6828
    7MOL0     H  942   4.549   3.698   5.997  1.6716  1.6861  0.7517
    7MOL0     H  943   4.911   3.625   5.924  0.2077  1.3736  0.8382
    7MOL0     H  944   4.821   3.670   6.069  0.8261 -0.7090  0.5173
    7MOL0     H  945   4.755   3.549   5.974  2.1519 -0.7867 -1.8733
    8MOL0     O  946   8.924   6.138   2.560  0.7010 -0.1033  0.4175
    8MOL0     C  947   8.905   6.016   2.547  0.9326  0.6837 -0.2955
    8MOL0     O  948   9.001   5.923   2.511  0.2652  0.1585 -0.0989
    8MOL0     C  949   9.118   5.971   2.464  1.0985  0.3280  0.3027
    8MOL0     C  950   9.130   5.952   2.328  0.2933  0.0661  0.5441
    8MOL0     C  951   9.242   5.998   2.269 -0.6623 -0.7541  0.9821
    8MOL0     C  952   9.351   6.043   2.343  0.3956  0.1787 -0.3459
    8MOL0     O  953   9.455   6.085   2.268 -0.6147  0.0185 -0.1385
    8MOL0     C  954   9.585   6.125   2.318  0.8557  0.4113  0.1440
    8MOL0     C  955   9.695   6.148   2.203  0.5893  0.9260 -0.1084
    8MOL0     C  956   9.833   6.198   2.253 -0.3412 -0.7278 -0.4520
    8MOL0     C  957   9.850   6.349   2.232  0.9254 -0.2691 -0.1633
    8MOL0     C  958   9.983   6.390   2.286  0.1082 -0.7930 -0.8746
    8MOL0     C  959  10.021   6.530   2.240  0.0067  0.1600 -0.4943
    8MOL0     C  960   9.946   6.631   2.316 -0.3958  0.5321 -0.0050
    8MOL0     C  961   9.984   6.773   2.295 -0.4402  0.2330  1.0616
    8MOL0     N  962   9.959   6.807   2.156  0.5677 -0.3407 -0.0434
    8MOL0     C  963   9.856   6.766   2.079  0.3812  0.5688  0.7026
    8MOL0     C  964   9.887   6.815   1.958  1.0267 -0.1877 -0.2252
    8MOL0     C  965   9.802   6.801   1.830 -0.0753 -0.0609  0.3135
    8MOL0     C  966   9.718   6.923   1.796  0.9723 -0.2002  0.3483
    8MOL0     C  967   9.648   6.903   1.663  0.2378  0.0729 -0.0172
    8MOL0     C  968   9.746   6.910   1.539  0.8792 -0.6501 -0.7135
    8MOL0     O  969   9.821   7.040   1.540 -0.0286  0.4314  0.6699
    8MOL0     C  970   9.937   7.034   1.481  0.2862  0.2003  0.5904
    8MOL0     C  971   9.955   6.986   1.349 -0.4454 -0.5032  0.3435
    8MOL0     C  972  10.084   6.963   1.304 -0.2615 -0.1396  0.6191
    8MOL0     C  973  10.200   6.989   1.391 -0.1808 -0.7382  0.4466
    8MOL0     C  974  10.334   6.957   1.338  0.3951  0.3264  0.5969
    8MOL0     O  975  10.350   6.918   1.215 -0.1996 -0.0865  0.2406
    8MOL0     C  976  10.478   6.885   1.174 -0.2132  0.2648  0.3299
    8MOL0     C  977  10.540   6.769   1.216 -0.5929 -0.2976 -0.2987
    8MOL0     C  978  10.668   6.724   1.178 -0.6276 -0.6930 -0.2520
    8MOL0     C  979  10.738   6.803   1.084 -0.7953  0.4456 -0.0878
    8MOL0     O  980  10.865   6.779   1.037  0.8935  0.1937  0.1206
    8MOL0     C  981  10.901   6.641   1.007 -0.8628 -0.2189  0.3593
    8MOL0     C  982  11.050   6.633   0.973 -0.9033  0.2687 -0.3281
    8MOL0     C  983  11.074   6.691   0.840  0.2705 -0.3686  0.2766
    8MOL0     C  984  11.217   6.674   0.803 -0.1850  0.9785  0.9140
    8MOL0     C  985  11.269   6.719   0.672  0.4681 -0.5362 -0.2517
    8MOL0     C  986  11.413   6.674   0.632  0.4550  0.3474  0.1566
    8MOL0     C  987  11.531   6.756   0.699 -0.1529 -0.0229 -0.5015
    8MOL0     C  988  11.665   6.713   0.658  0.3700  0.5791  0.2737
    8MOL0    Cl  989  11.764   6.817   0.750 -0.8710  0.5042  0.1260
    8MOL0     C  990  10.669   6.915   1.032 -0.2913 -0.7060  0.4597
    8MOL0     C  991  10.548   6.959   1.080 -0.1718 -0.6536 -0.1816
    8MOL0     O  992  10.424   6.978   1.411  0.6135 -0.6184  0.0694
    8MOL0     C  993  10.171   7.054   1.512  0.0861 -0.0375 -0.3080
    8MOL0     C  994  10.044   7.080   1.549 -0.7872  1.0938 -0.5484
    8MOL0     N  995   9.996   6.897   1.977  0.2344 -0.2675 -0.0481
    8MOL0     N  996  10.048   6.886   2.094 -0.5088 -0.0697  0.3992
    8MOL0     C  997   9.339   6.054   2.486  0.0886 -1.9728  0.1842
    8MOL0     C  998   9.216   6.012   2.554 -0.2896 -0.3446 -0.4274
    8MOL0     C  999   8.780   5.969   2.612 -0.2930 -0.0414 -0.0362
    8MOL0     C 1000   8.664   6.042   2.569 -0.2283 -0.7248 -0.1731
    8MOL0     C 1001   8.536   5.998   2.600  0.3151 -0.9400 -0.2223
    8MOL0     C 1002   8.521   5.883   2.680  0.8862  0.1966 -1.1885
    8MOL0     O 1003   8.403   5.825   2.712  0.2113 -0.0718  0.0548
    8MOL0     C 1004   8.288   5.865   2.644 -0.5234 -0.0248 -0.5333
    8MOL0     C 1005   8.220   5.734   2.620 -0.1578  0.6591  0.1844
    8MOL0     C 1006   8.073   5.754   2.570 -1.2067  0.3957  1.2609
    8MOL0     C 1007   7.992   5.619   2.577  1.0741 -0.6521 -0.3428
    8MOL0     C 1008   7.993   5.544   2.705  0.3753 -1.1659 -0.6412
    8MOL0     C 1009   8.008   5.511   2.819 -0.2661 -0.0213  0.0890
    8MOL0     C 1010   8.632   5.809   2.728  0.0403 -1.0092  0.1670
    8MOL0     C 1011   8.763   5.857   2.702 -0.0726  0.8602  1.0689
    8MOL0     C 1012   8.881   5.780   2.746  0.6073 -0.5053  0.2915
    8MOL0     H 1013   9.045   5.914   2.273  2.7503 -1.0712 -2.7747
    8MOL0     H 1014   9.262   5.984   2.163 -0.7717 -2.0043  1.1069
    8MOL0     H 1015   9.574   6.223   2.366  0.6476  0.5658 -0.2185
    8MOL0     H 1016   9.615   6.048   2.390  2.0537  0.3743 -0.3715
    8MOL0     H 1017   9.653   6.221   2.133  0.1223  1.0448  0.2869
    8MOL0     H 1018   9.698   6.047   2.161 -2.3398 -0.1060  1.8221
    8MOL0     H 1019   9.902   6.144   2.187 -0.0693 -0.5899 -0.2832
    8MOL0     H 1020   9.859   6.168   2.355  0.8233  0.9853 -0.1855
    8MOL0     H 1021   9.829   6.367   2.126 -0.7557  0.7196  0.2959
    8MOL0     H 1022   9.773   6.393   2.295 -1.4559 -2.7052 -1.1787
    8MOL0     H 1023   9.983   6.379   2.395  0.2970 -0.6439 -0.8584
    8MOL0     H 1024  10.055   6.318   2.245 -0.9597 -3.0036  0.8612
    8MOL0     H 1025  10.129   6.527   2.254 -0.0504 -0.3515 -0.1554
    8MOL0     H 1026  10.010   6.542   2.131 -0.5464  1.4527 -0.3185
    8MOL0     H 1027   9.966   6.607   2.421 -0.1455 -0.9141 -0.3580
    8MOL0     H 1028   9.838   6.620   2.298 -0.1633 -0.0287 -1.2049
    8MOL0     H 1029   9.929   6.831   2.369 -2.5685 -0.8033  0.3741
    8MOL0     H 1030  10.092   6.793   2.301 -0.3405  0.9189 -1.5968
    8MOL0     H 1031   9.771   6.700   2.094  1.9526 -1.3485  1.6098
    8MOL0     H 1032   9.865   6.770   1.746  0.4761  0.4730  0.5244
    8MOL0     H 1033   9.737   6.714   1.831 -0.2806 -0.0419 -2.6093
    8MOL0     H 1034   9.631   6.924   1.862  0.3911 -1.5414 -0.3716
    8MOL0     H 1035   9.779   7.014   1.798  2.4921 -1.1911  0.5221
    8MOL0     H 1036   9.569   6.977   1.671  0.3262  0.2966 -1.0314
    8MOL0     H 1037   9.614   6.799   1.666  1.5643 -0.3619  1.3322
    8MOL0     H 1038   9.678   6.912   1.454 -1.5476  1.4662  1.1420
    8MOL0     H 1039   9.815   6.824   1.537  0.7848 -0.7380 -0.2632
    8MOL0     H 1040   9.865   6.951   1.297 -0.0627  1.0081 -1.4348
    8MOL0     H 1041  10.110   6.911   1.212 -2.4623  0.8205 -0.6050
    8MOL0     H 1042  10.487   6.718   1.296  0.6963 -1.3743 -0.1004
    8MOL0     H 1043  10.720   6.647   1.234  2.4229  0.5224 -1.1741
    8MOL0     H 1044  10.882   6.576   1.093 -1.6991 -2.8635 -1.6561
    8MOL0     H 1045  10.844   6.603   0.921  0.6047  0.5854 -1.0239
    8MOL0     H 1046  11.107   6.682   1.052 -0.2923 -1.8569  0.6300
    8MOL0     H 1047  11.071   6.527   0.989 -2.6105 -0.0111  0.2683
    8MOL0     H 1048  11.017   6.643   0.760  0.7594 -0.4956  0.0050
    8MOL0     H 1049  11.043   6.795   0.833 -0.1620 -0.5820 -1.3971
    8MOL0     H 1050  11.230   6.565   0.798 -2.3549  0.6673  1.2020
    8MOL0     H 1051  11.280   6.715   0.883  0.7345 -1.3612  1.4942
    8MOL0     H 1052  11.254   6.828   0.670  3.3441 -0.0911 -0.9972
    8MOL0     H 1053  11.193   6.680   0.603 -0.0969 -1.6436  0.9494
    8MOL0     H 1054  11.426   6.568   0.653 -2.6709 -0.7295 -2.3841
    8MOL0     H 1055  11.422   6.681   0.523  1.6925 -1.0225  0.1502
    8MOL0     H 1056  11.514   6.723   0.802  2.8517  0.9327  0.4138
    8MOL0     H 1057  11.520   6.865   0.698  0.9077  0.0870 -0.8870
    8MOL0     H 1058  11.679   6.605   0.668  0.3168  0.5173 -0.2845
    8MOL0     H 1059  11.680   6.733   0.552  1.0289  0.6132  0.3736
    8MOL0     H 1060  10.710   6.981   0.956 -1.4746 -0.8856 -0.3785
    8MOL0     H 1061  10.517   7.060   1.057  0.6808 -0.8157 -2.2687
    8MOL0     H 1062  10.253   7.067   1.582 -1.2534 -0.8391  1.4666
    8MOL0     H 1063  10.024   7.130   1.642 -1.6931 -0.1406 -0.0570
    8MOL0     H 1064   9.415   6.115   2.534 -1.4928  1.1548 -0.9834
    8MOL0     H 1065   9.209   6.015   2.662  0.2084 -1.8820 -0.3350
    8MOL0     H 1066   8.667   6.130   2.507  2.0381 -1.2099 -0.8564
    8MOL0     H 1067   8.459   6.052   2.546  2.4362 -1.4557 -4.1932
    8MOL0     H 1068   8.300   5.920   2.550 -3.4904  3.2555  0.7477
    8MOL0     H 1069   8.238   5.925   2.721  2.2542 -0.6903  1.9582
    8MOL0     H 1070   8.232   5.674   2.710  0.3862  1.0190  0.3568
    8MOL0     H 1071   8.272   5.678   2.543 -2.6343 -0.4704 -0.7736
    8MOL0     H 1072   8.070   5.793   2.468 -3.1882 -2.3183  0.1327
    8MOL0     H 1073   8.027   5.835   2.627  0.2743  3.0777 -1.1082
    8MOL0     H 1074   7.886   5.632   2.553 -0.0641 -5.3935  0.9949
    8MOL0     H 1075   8.022   5.551   2.497 -0.5074 -1.3698 -0.3740
    8MOL0     H 1076   8.043   5.476   2.914  1.0478 -2.5300 -1.2053
    8MOL0     H 1077   8.615   5.716   2.782  0.8575 -1.7961 -0.9084
    8MOL0     H 1078   8.859   5.741   2.846  1.9065  0.8316  1.1348
    8MOL0     H 1079   8.885   5.694   2.678  1.7032 -1.8883  2.0145
    8MOL0     H 1080   8.974   5.837   2.744 -0.6418  1.6338 -0.4801
    9MOL0     O 1081   5.769   6.207  10.427  0.3086 -0.3703 -0.1971
    9MOL0     C 1082   5.791   6.330  10.422 -0.5713  0.1017 -0.0818
    9MOL0     O 1083   5.916   6.393  10.436  0.4285 -0.4450  0.5056
    9MOL0     C 1084   6.027   6.317  10.425 -0.3629  0.0772 -0.3987
    9MOL0     C 1085   6.085   6.302  10.308  0.2918  0.0540 -0.6094
    9MOL0     C 1086   6.195   6.218  10.297  0.1768  0.7157 -0.3252
    9MOL0     C 1087   6.242   6.143  10.407  0.3103  0.0365 -0.7133
    9MOL0     O 1088   6.368   6.085  10.404  0.1883  0.4251  0.2892
    9MOL0     C 1089   6.405   6.012  10.285 -0.3828 -0.4403  0.0919
    9MOL0     C 1090   6.546   6.052  10.245 -0.2520 -0.5689 -0.3780
    9MOL0     C 1091   6.651   6.018  10.340  0.5263  0.0723 -0.1677
    9MOL0     C 1092   6.783   6.086  10.296 -0.2532  1.0928 -0.1000
    9MOL0     C 1093   6.903   6.034  10.378 -0.1147  0.2924  0.4274
    9MOL0     C 1094   7.040   6.100  10.350  0.3782 -0.2308 -0.8667
    9MOL0     C 1095   7.030   6.241  10.413 -0.0811 -0.1665 -0.1554
    9MOL0     C 1096   7.162   6.317  10.393 -0.3420 -0.4488 -0.7303
    9MOL0     N 1097   7.290   6.259  10.443 -0.9169 -0.2515  0.6039
    9MOL0     C 1098   7.358   6.163  10.381  0.7951 -0.9589 -0.7831
    9MOL0     C 1099   7.448   6.126  10.470  0.2919 -0.0500 -0.9775
    9MOL0     C 1100   7.534   6.012  10.462 -0.2756 -0.1593  0.0539
    9MOL0     C 1101   7.685   6.056  10.461 -0.8113 -1.1822 -0.0608
    9MOL0     C 1102   7.786   5.941  10.457 -0.4404 -0.1286  0.0632
    9MOL0     C 1103   7.924   5.970  10.506 -0.3177  1.3892  0.3530
    9MOL0     O 1104   8.005   6.021  10.392  0.4658  0.3912  0.3751
    9MOL0     C 1105   8.136   6.047  10.415  0.3875 -0.4350  0.6339
    9MOL0     C 1106   8.191   6.076  10.538  0.3850  0.4310 -0.1125
    9MOL0     C 1107   8.322   6.111  10.546  0.0028 -0.5729  0.0642
    9MOL0     C 1108   8.406   6.122  10.441  0.0591  0.0574 -0.1742
    9MOL0     C 1109   8.546   6.156  10.463  0.6378 -0.5104 -0.2475
    9MOL0     O 1110   8.594   6.161  10.594 -0.0750  0.4077 -0.1723
    9MOL0     C 1111   8.726   6.194  10.621  0.2292 -0.0440 -0.1239
    9MOL0     C 1112   8.753   6.241  10.746  0.3385  0.5616  0.5425
    9MOL0     C 1113   8.884   6.262  10.787 -0.1843  0.0804 -0.7014
    9MOL0     C 1114   8.994   6.244  10.699  0.7233  0.2600  0.2095
    9MOL0     O 1115   9.113   6.284  10.744 -0.3000  0.1310 -0.2001
    9MOL0     C 1116   9.211   6.331  10.648  0.0990  0.7300  0.1066
    9MOL0     C 1117   9.343   6.371  10.709  0.4735 -0.1367 -0.9440
    9MOL0     C 1118   9.457   6.386  10.606  0.2116  0.1816  0.0907
    9MOL0     C 1119   9.580   6.434  10.671 -0.6716 -0.1759 -0.6848
    9MOL0     C 1120   9.658   6.313  10.741  0.1667 -0.7748 -0.2547
    9MOL0     C 1121   9.732   6.369  10.861 -0.7798  1.4207  0.1373
    9MOL0     C 1122   9.801   6.264  10.950 -0.6084  0.2431  0.7145
    9MOL0     C 1123   9.727   6.243  11.087  0.0244 -0.5252 -0.5129
    9MOL0    Cl 1124   9.590   6.128  11.065 -0.6575  0.4039  0.2421
    9MOL0     C 1125   8.960   6.208  10.563 -0.7104  0.0463  0.1200
    9MOL0     C 1126   8.828   6.177  10.529 -1.3994  0.0725 -0.6512
    9MOL0     O 1127   8.611   6.198  10.362  0.2209 -0.5118  0.0019
    9MOL0     C 1128   8.351   6.089  10.315 -0.0282  0.1171  0.2585
    9MOL0     C 1129   8.221   6.051  10.304 -1.1400 -0.3973 -0.7051
    9MOL0     N 1130   7.439   6.200  10.588  0.2871  0.2555 -0.3699
    9MOL0     N 1131   7.337   6.282  10.570  0.0426  0.5738  0.0973
    9MOL0     C 1132   6.195   6.164  10.534 -0.6740  0.1182  0.2100
    9MOL0     C 1133   6.090   6.267  10.539 -0.1114  0.3861  0.5430
    9MOL0     C 1134   5.668   6.407  10.420  0.7275 -0.9691 -0.7696
    9MOL0     C 1135   5.543   6.338  10.440 -0.4841  0.9521  0.1956
    9MOL0     C 1136   5.425   6.404  10.423  0.9190 -0.1267 -0.5399
    9MOL0     C 1137   5.419   6.545  10.398  0.8121 -0.1957  0.0522
    9MOL0     O 1138   5.299   6.615  10.380 -0.3623 -0.5054  0.3163
    9MOL0     C 1139   5.169   6.553  10.387  0.2522  0.2012  0.2703
    9MOL0     C 1140   5.065   6.661  10.389 -0.8618  0.7089  0.2400
    9MOL0     C 1141   4.918   6.607  10.375  0.2995  0.3399  0.6700
    9MOL0     C 1142   4.878   6.536  10.511  0.5395 -0.2973  0.0297
    9MOL0     C 1143   4.843   6.643  10.609  0.8246 -0.2377 -0.7141
    9MOL0     C 1144   4.809   6.729  10.686 -0.7790  0.5524  0.0574
    9MOL0     C 1145   5.538   6.616  10.387  0.1517 -0.2095  0.0396
    9MOL0     C 1146   5.665   6.550  10.397  0.4677 -0.1600  0.3747
    9MOL0     C 1147   5.780   6.642  10.371 -0.0342 -0.6345 -0.1382
    9MOL0     H 1148   6.034   6.349  10.224  0.3040 -2.4905 -2.1374
    9MOL0     H 1149   6.253   6.225  10.206  0.9714 -0.4665  0.0687
    9MOL0     H 1150   6.405   5.904  10.300 -2.3428 -0.5716 -0.5022
    9MOL0     H 1151   6.341   6.034  10.199 -1.7244  0.7160  1.3063
    9MOL0     H 1152   6.546   6.161  10.255 -3.1257 -0.6421  1.5488
    9MOL0     H 1153   6.572   6.025  10.142  0.4607 -1.9760  0.1499
    9MOL0     H 1154   6.656   5.909  10.352 -3.4633 -0.2115  0.2250
    9MOL0     H 1155   6.631   6.054  10.441  0.8089 -0.7462  0.1877
    9MOL0     H 1156   6.793   6.059  10.190  3.0587  1.6936 -0.0777
    9MOL0     H 1157   6.786   6.195  10.302 -0.2006  1.2132 -1.7719
    9MOL0     H 1158   6.878   6.035  10.484  1.0077 -2.5257  0.8029
    9MOL0     H 1159   6.921   5.929  10.350  0.2029  0.2419  0.8151
    9MOL0     H 1160   7.118   6.035  10.391  2.3036  2.4429  0.0112
    9MOL0     H 1161   7.073   6.097  10.246 -1.2001  1.0161 -1.4396
    9MOL0     H 1162   7.002   6.232  10.518 -3.7880  0.7911 -0.9174
    9MOL0     H 1163   6.946   6.299  10.372  0.1015 -0.7675 -1.4073
    9MOL0     H 1164   7.164   6.342  10.287 -1.1390  1.1765 -0.3935
    9MOL0     H 1165   7.163   6.410  10.450  2.3985 -0.2220 -1.0431
    9MOL0     H 1166   7.352   6.119  10.282 -1.3976 -3.6549  0.4056
    9MOL0     H 1167   7.511   5.939  10.539 -0.7208 -0.9026 -0.7618
    9MOL0     H 1168   7.507   5.962  10.368 -0.7388  0.3516 -0.0846
    9MOL0     H 1169   7.704   6.142  10.396  2.1067 -1.4293  0.3260
    9MOL0     H 1170   7.706   6.094  10.561 -0.1857 -0.7425 -0.3523
    9MOL0     H 1171   7.789   5.885  10.363 -1.5964 -0.9202  0.4662
    9MOL0     H 1172   7.747   5.862  10.522  0.5932  0.2215  1.1400
    9MOL0     H 1173   7.968   5.876  10.541 -1.8753  0.3485 -0.4136
    9MOL0     H 1174   7.928   6.041  10.589 -1.0212  0.3009  1.3427
    9MOL0     H 1175   8.139   6.076  10.633  1.7578  0.2912  0.6542
    9MOL0     H 1176   8.360   6.117  10.648  1.3763 -0.8613 -0.4047
    9MOL0     H 1177   8.670   6.272  10.808 -1.2636  0.1046 -1.3113
    9MOL0     H 1178   8.898   6.305  10.886 -3.2556 -2.0165  0.8174
    9MOL0     H 1179   9.235   6.262  10.567  4.1087 -0.1812  1.8048
    9MOL0     H 1180   9.165   6.421  10.606 -1.1001  0.0440 -0.0605
    9MOL0     H 1181   9.319   6.465  10.758  0.6584  1.0673 -3.0376
    9MOL0     H 1182   9.371   6.297  10.784  1.7517  1.3930  0.1220
    9MOL0     H 1183   9.470   6.293  10.549 -2.7665  0.2409 -0.8185
    9MOL0     H 1184   9.431   6.460  10.529 -0.2753  0.6618  0.7093
    9MOL0     H 1185   9.567   6.513  10.745  3.3573  1.1622 -1.1412
    9MOL0     H 1186   9.662   6.469  10.607 -0.1745  0.2810  0.1683
    9MOL0     H 1187   9.726   6.272  10.666 -1.5415 -0.3453 -2.1226
    9MOL0     H 1188   9.588   6.235  10.773  0.3305 -1.1404 -0.7789
    9MOL0     H 1189   9.814   6.432  10.826  0.8103  0.2128  1.5124
    9MOL0     H 1190   9.679   6.439  10.927  2.8613  0.1723  5.0474
    9MOL0     H 1191   9.904   6.295  10.967  0.5700 -2.4762 -0.8270
    9MOL0     H 1192   9.804   6.174  10.888  0.6407 -0.1683  1.3306
    9MOL0     H 1193   9.805   6.206  11.154 -0.0714 -1.4373 -0.8912
    9MOL0     H 1194   9.695   6.341  11.124  1.9959  0.1373 -0.4557
    9MOL0     H 1195   9.039   6.196  10.489  0.0494 -2.6764  1.2390
    9MOL0     H 1196   8.817   6.134  10.430  1.4200  1.1736 -1.5393
    9MOL0     H 1197   8.413   6.076  10.227  0.4918 -0.7262  0.7362
    9MOL0     H 1198   8.162   6.041  10.214  0.0199  0.1051 -1.5564
    9MOL0     H 1199   6.248   6.130  10.623  3.2068  0.2280 -1.8295
    9MOL0     H 1200   6.053   6.296  10.636 -0.1116  1.2343  0.2939
    9MOL0     H 1201   5.533   6.232  10.460  0.2618 -0.1514 -4.2988
    9MOL0     H 1202   5.328   6.355  10.425  0.7828  0.0598 -1.8793
    9MOL0     H 1203   5.159   6.489  10.475  0.2998  2.5445  2.0894
    9MOL0     H 1204   5.147   6.484  10.305  0.1204 -2.6817  2.5601
    9MOL0     H 1205   5.082   6.732  10.307 -0.3905  0.0900 -0.1959
    9MOL0     H 1206   5.070   6.726  10.477 -0.7468  1.3836 -0.2597
    9MOL0     H 1207   4.903   6.540  10.290  0.6912  0.0140  0.8525
    9MOL0     H 1208   4.864   6.698  10.348  3.2970  1.9215 -0.4713
    9MOL0     H 1209   4.794   6.469  10.493  0.0798  0.7361 -1.9484
    9MOL0     H 1210   4.966   6.478  10.539  0.0978 -1.1626 -0.3338
    9MOL0     H 1211   4.765   6.810  10.741  0.2541  2.3340 -1.6098
    9MOL0     H 1212   5.528   6.722  10.365 -0.8242 -0.5230 -1.1442
    9MOL0     H 1213   5.828   6.602  10.281 -3.9895  0.7520 -3.1224
    9MOL0     H 1214   5.748   6.739  10.334  2.7123  0.7271  0.7591
    9MOL0     H 1215   5.860   6.648  10.445  0.2283 -2.0738 -0.2686
   10MOL0     O 1216  10.275   9.945   5.036 -1.3364  0.0564  0.4439
   10MOL0     C 1217  10.287   9.991   4.922  0.0986 -0.5590 -0.6014
   10MOL0     O 1218  10.387   9.970   4.838 -0.2801 -0.2499  0.1935
   10MOL0     C 1219  10.499   9.895   4.884 -0.8445  0.2912 -0.3713
   10MOL0     C 1220  10.493   9.755   4.885  0.2424 -0.7196  0.3099
   10MOL0     C 1221  10.605   9.687   4.928 -0.1754 -0.3777 -0.6878
   10MOL0     C 1222  10.731   9.755   4.949  0.8480 -1.4772  0.0555
   10MOL0     O 1223  10.847   9.688   4.987 -0.1398  0.2185  0.5251
   10MOL0     C 1224  10.825   9.568   5.066  0.8117 -1.0632 -0.1302
   10MOL0     C 1225  10.962   9.542   5.127 -0.1862 -0.1826 -0.0879
   10MOL0     C 1226  11.047   9.434   5.055 -0.2056  0.3254 -0.0619
   10MOL0     C 1227  11.188   9.431   5.125 -0.1981 -0.5243 -0.6265
   10MOL0     C 1228  11.271   9.323   5.056  0.1383 -0.2589  0.0125
   10MOL0     C 1229  11.422   9.335   5.086 -0.0024 -0.3641  0.6239
   10MOL0     C 1230  11.497   9.192   5.067  0.0624 -0.2433  0.1141
   10MOL0     C 1231  11.646   9.213   5.079  0.1691  1.7723  0.6872
   10MOL0     N 1232  11.722   9.089   5.093 -0.1295  0.1877  0.2466
   10MOL0     C 1233  11.835   9.054   5.026  1.0717  1.2486  0.8129
   10MOL0     C 1234  11.857   8.925   5.061  0.1995  1.5880 -0.5911
   10MOL0     C 1235  11.958   8.835   5.000  0.5535 -0.0242 -0.3974
   10MOL0     C 1236  12.092   8.910   4.965 -0.0923 -0.8500  0.3798
   10MOL0     C 1237  12.186   8.799   4.917  0.3696  0.2012 -0.4196
   10MOL0     C 1238  12.315   8.862   4.881 -0.4103 -0.3394 -0.3185
   10MOL0     O 1239  12.394   8.755   4.825 -0.5980 -0.1216  0.2304
   10MOL0     C 1240  12.529   8.761   4.818 -0.1338  0.4037  0.4479
   10MOL0     C 1241  12.598   8.641   4.798 -1.0442  0.4063 -0.4080
   10MOL0     C 1242  12.738   8.646   4.786  0.1990 -0.5653 -0.2589
   10MOL0     C 1243  12.810   8.766   4.784 -0.1142 -0.1573 -0.6777
   10MOL0     C 1244  12.956   8.766   4.806  0.0984  0.0857  0.4252
   10MOL0     O 1245  13.012   8.640   4.830 -0.2716  0.2333 -0.1376
   10MOL0     C 1246  13.149   8.623   4.842  0.6222 -0.2753  0.3915
   10MOL0     C 1247  13.241   8.700   4.906 -0.9205 -1.0043 -0.3223
   10MOL0     C 1248  13.378   8.664   4.916 -0.7623 -0.2372  0.4849
   10MOL0     C 1249  13.411   8.540   4.860  0.4563 -0.3116 -0.4487
   10MOL0     O 1250  13.539   8.486   4.857  0.5025 -0.3938 -0.2897
   10MOL0     C 1251  13.631   8.529   4.951 -1.4164 -0.7707 -0.1430
   10MOL0     C 1252  13.752   8.431   4.942 -0.1101 -0.1989  0.1493
   10MOL0     C 1253  13.840   8.444   4.819  0.2878 -0.1413 -0.0339
   10MOL0     C 1254  13.874   8.302   4.763 -0.0087 -0.7495 -0.0117
   10MOL0     C 1255  13.972   8.297   4.634  0.2519  0.5471 -0.7026
   10MOL0     C 1256  13.907   8.373   4.516 -0.5871  0.4597 -1.0152
   10MOL0     C 1257  13.982   8.376   4.385  0.3500  0.6899 -0.0831
   10MOL0     C 1258  14.004   8.238   4.325 -0.4984  0.3644  0.5454
   10MOL0    Cl 1259  14.110   8.253   4.187  0.4616 -0.4736  0.0477
   10MOL0     C 1260  13.317   8.463   4.800 -0.0898  0.1532  0.2989
   10MOL0     C 1261  13.183   8.500   4.784 -0.0684 -0.5775 -1.0319
   10MOL0     O 1262  13.018   8.874   4.798  0.3179 -0.7363 -0.3238
   10MOL0     C 1263  12.735   8.884   4.797  0.3333  0.3776  0.2466
   10MOL0     C 1264  12.593   8.888   4.808  0.6656  0.4144  0.2696
   10MOL0     N 1265  11.761   8.880   5.150  0.2726  0.3894 -0.3143
   10MOL0     N 1266  11.684   8.981   5.171  0.3672 -0.1132  0.1368
   10MOL0     C 1267  10.737   9.888   4.937 -0.1154  0.0619  0.4105
   10MOL0     C 1268  10.617   9.961   4.911  0.0202 -0.1581  0.3765
   10MOL0     C 1269  10.163  10.050   4.871 -0.0286 -0.2211 -0.2605
   10MOL0     C 1270  10.144  10.039   4.738  0.0170  0.2383 -0.4824
   10MOL0     C 1271  10.033  10.098   4.675 -0.3842  0.0771 -0.1480
   10MOL0     C 1272   9.921  10.146   4.743  0.5530  0.1682  0.2545
   10MOL0     O 1273   9.806  10.190   4.682 -0.4774 -0.1214 -0.0882
   10MOL0     C 1274   9.737  10.089   4.606 -0.0382 -0.3789 -0.0083
   10MOL0     C 1275   9.597  10.117   4.635  0.8979 -0.3492  0.3280
   10MOL0     C 1276   9.511  10.003   4.572  0.3396  0.3063  1.2801
   10MOL0     C 1277   9.490  10.021   4.406  0.1166  0.6314 -0.5219
   10MOL0     C 1278   9.611   9.975   4.327  0.3034  0.2899  0.1066
   10MOL0     C 1279   9.711   9.936   4.272  0.3795 -0.1041  0.2192
   10MOL0     C 1280   9.931  10.131   4.887 -0.6992  0.9287  0.1218
   10MOL0     C 1281  10.054  10.102   4.947 -0.6156 -0.0244 -0.4182
   10MOL0     C 1282  10.061  10.113   5.097  0.1721  0.2215  0.0808
   10MOL0     H 1283  10.404   9.703   4.852  0.0751 -1.3903  1.7687
   10MOL0     H 1284  10.604   9.580   4.943  3.1889 -0.9209 -3.1521
   10MOL0     H 1285  10.755   9.589   5.147 -1.6896  0.6742 -2.5713
   10MOL0     H 1286  10.788   9.480   5.011  1.1285  0.6243 -3.2529
   10MOL0     H 1287  10.930   9.508   5.227 -1.9418 -0.5548 -0.7354
   10MOL0     H 1288  11.019   9.633   5.145 -2.9985  1.6973 -0.0020
   10MOL0     H 1289  11.063   9.465   4.951  4.8092  4.2993  1.4615
   10MOL0     H 1290  11.002   9.335   5.054  0.0467  0.2116 -1.0861
   10MOL0     H 1291  11.242   9.525   5.104  1.3807 -0.3524  3.4159
   10MOL0     H 1292  11.191   9.416   5.233 -0.1914 -0.0223 -0.5530
   10MOL0     H 1293  11.232   9.229   5.097 -0.8745  0.2908  0.3611
   10MOL0     H 1294  11.260   9.322   4.947  3.2859 -1.1822 -0.3773
   10MOL0     H 1295  11.466   9.418   5.032 -1.9348  1.7038  2.0505
   10MOL0     H 1296  11.415   9.367   5.191 -1.2607  2.2626 -0.1772
   10MOL0     H 1297  11.476   9.139   4.973 -2.5707  1.8720 -0.6254
   10MOL0     H 1298  11.466   9.121   5.144  2.0945  0.8966  2.1053
   10MOL0     H 1299  11.690   9.274   5.000  1.8438  0.1122  0.2636
   10MOL0     H 1300  11.668   9.280   5.163 -0.6457  2.1458  0.6190
   10MOL0     H 1301  11.894   9.113   4.956  1.7343  1.1324  1.2689
   10MOL0     H 1302  11.975   8.743   5.057  2.8110  1.0086  0.7239
   10MOL0     H 1303  11.923   8.808   4.900  0.5362  1.6700 -0.8683
   10MOL0     H 1304  12.072   8.976   4.881 -0.1147 -1.0008  0.2668
   10MOL0     H 1305  12.137   8.954   5.055 -0.4632  1.5081 -0.5293
   10MOL0     H 1306  12.143   8.757   4.826 -1.7750  1.6051 -0.1231
   10MOL0     H 1307  12.205   8.720   4.991 -0.3315 -0.8636 -1.3512
   10MOL0     H 1308  12.361   8.908   4.969 -0.0776  1.3848 -1.3501
   10MOL0     H 1309  12.306   8.951   4.818  0.5241  0.0250  0.0355
   10MOL0     H 1310  12.539   8.550   4.805  0.2270 -0.3359  4.3625
   10MOL0     H 1311  12.793   8.552   4.791 -0.6343 -1.0187  1.9253
   10MOL0     H 1312  13.220   8.798   4.947  1.8497  0.0439 -1.1599
   10MOL0     H 1313  13.458   8.720   4.964  1.3319 -3.7934  1.5280
   10MOL0     H 1314  13.676   8.628   4.937 -0.1530 -1.1530  0.9936
   10MOL0     H 1315  13.584   8.525   5.049 -3.0428 -1.1065 -0.9065
   10MOL0     H 1316  13.824   8.441   5.024 -1.2828  2.7674  0.9511
   10MOL0     H 1317  13.712   8.329   4.949  0.2173 -0.5260 -2.0673
   10MOL0     H 1318  13.783   8.503   4.746 -1.2956 -1.1135  0.3731
   10MOL0     H 1319  13.933   8.498   4.840  0.6654 -0.5199 -0.7028
   10MOL0     H 1320  13.784   8.249   4.730  0.3724 -1.2513 -0.2550
   10MOL0     H 1321  13.925   8.252   4.846  1.3278  1.1960  0.4046
   10MOL0     H 1322  13.993   8.194   4.604 -1.7218 -0.1805  0.2446
   10MOL0     H 1323  14.065   8.344   4.668 -0.0971 -1.7813  4.4548
   10MOL0     H 1324  13.808   8.327   4.509 -0.0316 -0.7955 -0.8337
   10MOL0     H 1325  13.889   8.477   4.546  1.2331  0.5230  0.0359
   10MOL0     H 1326  14.080   8.420   4.406  0.2267  0.5401  0.8742
   10MOL0     H 1327  13.924   8.434   4.314 -2.3984 -1.1046  0.5403
   10MOL0     H 1328  14.040   8.171   4.403 -2.1889 -0.7061  0.4524
   10MOL0     H 1329  13.910   8.185   4.310 -1.3972  1.1504  2.9938
   10MOL0     H 1330  13.351   8.373   4.750  0.0189  1.4854 -2.2004
   10MOL0     H 1331  13.116   8.443   4.720  0.1722 -1.1202 -0.8004
   10MOL0     H 1332  12.773   8.985   4.810 -2.2878  1.4276  0.4649
   10MOL0     H 1333  12.544   8.985   4.799 -3.3590 -1.3516  0.7329
   10MOL0     H 1334  10.827   9.947   4.946 -0.8753  1.9475 -2.8290
   10MOL0     H 1335  10.609  10.069   4.917 -2.1374 -0.2136 -0.3817
   10MOL0     H 1336  10.220  10.008   4.669  0.7297  4.0353 -1.6424
   10MOL0     H 1337  10.035  10.098   4.567  0.7269 -1.9812 -0.2003
   10MOL0     H 1338   9.753   9.984   4.633  0.9588  0.4671  3.0465
   10MOL0     H 1339   9.756  10.114   4.501 -0.2890  2.7509  0.5968
   10MOL0     H 1340   9.575  10.218   4.598  0.7864 -0.0246  1.2563
   10MOL0     H 1341   9.585  10.115   4.744 -1.0937  1.7838  0.2416
   10MOL0     H 1342   9.410  10.014   4.614  1.2432  0.9932  3.4694
   10MOL0     H 1343   9.545   9.903   4.600  0.8013 -0.3806 -1.4772
   10MOL0     H 1344   9.402   9.961   4.382  1.3974 -1.2634 -0.7238
   10MOL0     H 1345   9.459  10.120   4.372 -2.8652 -0.6656 -1.9784
   10MOL0     H 1346   9.806   9.908   4.229  0.5223  2.7214 -1.5207
   10MOL0     H 1347   9.845  10.161   4.946  0.0612  1.2954  1.0628
   10MOL0     H 1348   9.981  10.180   5.131  0.3526  1.3320 -1.5530
   10MOL0     H 1349  10.061  10.008   5.128  3.6531  0.0919  0.0712
   10MOL0     H 1350  10.157  10.153   5.132 -0.3570  0.8479  0.8670
   11MOL0     O 1351   9.535   9.428   2.706  0.5064  0.0489  1.0240
   11MOL0     C 1352   9.485   9.335   2.769 -0.7651  0.2644  0.0530
   11MOL0     O 1353   9.556   9.229   2.828  1.1467 -0.0176  0.4210
   11MOL0     C 1354   9.689   9.253   2.842 -0.2788 -0.3683 -0.1527
   11MOL0     C 1355   9.783   9.218   2.749 -0.1955 -0.3747  0.1420
   11MOL0     C 1356   9.913   9.263   2.764 -0.0287  0.2235  0.6028
   11MOL0     C 1357   9.964   9.327   2.886 -0.8403  0.0999 -0.3661
   11MOL0     O 1358  10.103   9.339   2.896 -0.0739 -1.0191 -0.2043
   11MOL0     C 1359  10.162   9.416   3.003  0.6803 -0.3175  0.5743
   11MOL0     C 1360  10.308   9.367   3.005  0.4448  0.4981  0.1172
   11MOL0     C 1361  10.398   9.458   3.091  0.3932  0.3032  0.4715
   11MOL0     C 1362  10.554   9.415   3.079  0.4724  0.1146  0.5015
   11MOL0     C 1363  10.642   9.524   3.150 -0.2205 -0.4669  0.1360
   11MOL0     C 1364  10.790   9.508   3.119 -0.3996 -0.1434  0.1661
   11MOL0     C 1365  10.853   9.393   3.190 -0.1959  0.6821 -0.2096
   11MOL0     C 1366  11.004   9.381   3.165 -0.8057  0.3249  0.1192
   11MOL0     N 1367  11.020   9.340   3.026  0.3135  0.1450  0.0308
   11MOL0     C 1368  11.033   9.429   2.920 -0.2919  0.1895  0.1855
   11MOL0     C 1369  11.056   9.344   2.815 -0.1762 -0.4748 -0.3299
   11MOL0     C 1370  11.071   9.401   2.675 -0.3030  0.0636  0.0788
   11MOL0     C 1371  11.211   9.431   2.625  0.0392  0.0738  0.4720
   11MOL0     C 1372  11.298   9.304   2.638 -1.0860 -0.1295  0.4094
   11MOL0     C 1373  11.440   9.340   2.596 -0.7057 -0.1630  0.4308
   11MOL0     O 1374  11.515   9.217   2.585  0.1992  0.6621 -0.5567
   11MOL0     C 1375  11.641   9.222   2.529 -0.4740  0.4618 -0.1056
   11MOL0     C 1376  11.700   9.331   2.460  0.4674 -0.7926  0.6591
   11MOL0     C 1377  11.828   9.329   2.409  0.4098  0.0401  0.3498
   11MOL0     C 1378  11.909   9.217   2.414 -0.6770 -0.4930 -0.5697
   11MOL0     C 1379  12.047   9.212   2.357  0.0447  0.3727 -0.4289
   11MOL0     O 1380  12.073   9.091   2.305 -0.5643 -0.6412  0.5169
   11MOL0     C 1381  12.208   9.078   2.263 -0.0684  0.1660  0.4221
   11MOL0     C 1382  12.304   9.023   2.343  0.5153 -0.2930  0.1062
   11MOL0     C 1383  12.430   8.999   2.310 -0.2991  0.1236 -0.7698
   11MOL0     C 1384  12.463   9.035   2.173 -0.0960  0.2137  0.2880
   11MOL0     O 1385  12.593   9.022   2.116  0.3620 -0.0832  0.7592
   11MOL0     C 1386  12.695   8.989   2.211 -0.6442  0.2336 -0.7939
   11MOL0     C 1387  12.821   8.962   2.128  0.4741 -0.0173  0.2775
   11MOL0     C 1388  12.940   8.931   2.214  0.9926  0.0689  0.9090
   11MOL0     C 1389  12.971   8.785   2.232  0.7040  0.2522 -0.7849
   11MOL0     C 1390  13.062   8.770   2.347  0.5183 -0.0869  1.1867
   11MOL0     C 1391  13.208   8.827   2.323  0.2224 -0.0318  0.1585
   11MOL0     C 1392  13.285   8.830   2.460  0.1648  0.5003 -0.1304
   11MOL0     C 1393  13.427   8.881   2.436 -0.3165  0.1292  0.0218
   11MOL0    Cl 1394  13.512   8.823   2.578  0.4582 -0.0755 -0.0623
   11MOL0     C 1395  12.371   9.099   2.090  0.5666  0.3093  1.0586
   11MOL0     C 1396  12.243   9.125   2.140  0.5740  0.8351  0.3748
   11MOL0     O 1397  12.118   9.307   2.356 -0.0896 -0.6408 -0.5726
   11MOL0     C 1398  11.851   9.102   2.469 -0.2816 -1.0908  0.2758
   11MOL0     C 1399  11.721   9.103   2.524 -0.7054  0.7577  0.0548
   11MOL0     N 1400  11.055   9.211   2.852  0.3416 -0.2895 -0.2230
   11MOL0     N 1401  11.025   9.211   2.979 -0.4170  1.2733 -0.5974
   11MOL0     C 1402   9.860   9.372   2.971 -0.0110 -0.0204  0.1357
   11MOL0     C 1403   9.731   9.335   2.953  0.3332  0.9948  0.2899
   11MOL0     C 1404   9.341   9.337   2.783  0.4020  0.6975  0.0552
   11MOL0     C 1405   9.292   9.261   2.893 -0.1562  0.3261  0.0756
   11MOL0     C 1406   9.162   9.266   2.926  0.4356  0.8304 -0.6525
   11MOL0     C 1407   9.076   9.348   2.857 -0.5368 -1.2178 -0.3460
   11MOL0     O 1408   8.944   9.359   2.892 -0.3040 -0.3906 -0.6124
   11MOL0     C 1409   8.893   9.298   3.019 -0.7051  0.2970 -0.6139
   11MOL0     C 1410   8.854   9.151   3.006 -0.3996 -0.5163  0.0477
   11MOL0     C 1411   8.804   9.088   3.140 -0.9006 -0.8617  0.0283
   11MOL0     C 1412   8.685   8.999   3.109  0.3332 -0.3973 -0.1190
   11MOL0     C 1413   8.560   9.052   3.046 -0.0526 -1.0869  0.4903
   11MOL0     C 1414   8.467   9.095   2.976  0.1390 -0.3088 -0.3627
   11MOL0     C 1415   9.108   9.408   2.739  0.0399  0.2674  0.2508
   11MOL0     C 1416   9.243   9.407   2.695 -0.2950  0.2753 -0.4099
   11MOL0     C 1417   9.274   9.445   2.548  0.4977 -0.6317  0.1253
   11MOL0     H 1418   9.744   9.170   2.660  0.9453  0.3511 -0.7897
   11MOL0     H 1419   9.983   9.221   2.693  0.6094 -2.1891  2.5440
   11MOL0     H 1420  10.151   9.524   2.991 -0.0589 -0.4661 -0.1402
   11MOL0     H 1421  10.112   9.386   3.096 -2.2338  0.3092 -0.6976
   11MOL0     H 1422  10.352   9.379   2.906 -0.3314  0.5854 -0.2288
   11MOL0     H 1423  10.315   9.264   3.041  0.5044 -0.3541 -2.1482
   11MOL0     H 1424  10.371   9.446   3.196  1.2831  1.9941  0.9404
   11MOL0     H 1425  10.380   9.564   3.070 -0.8876 -0.3617 -2.2259
   11MOL0     H 1426  10.565   9.314   3.118 -0.0438  0.4847  1.6614
   11MOL0     H 1427  10.585   9.424   2.974  0.9802  3.5285  0.8133
   11MOL0     H 1428  10.620   9.626   3.117 -0.8792  0.9684  4.3640
   11MOL0     H 1429  10.624   9.517   3.257 -0.8115  0.4437  0.1058
   11MOL0     H 1430  10.804   9.509   3.010 -0.0375  1.0332  0.2046
   11MOL0     H 1431  10.828   9.605   3.154 -1.3558 -0.1523  1.2867
   11MOL0     H 1432  10.806   9.305   3.145 -4.2285  2.3405  0.3207
   11MOL0     H 1433  10.825   9.398   3.296  1.3008  0.8926  0.1952
   11MOL0     H 1434  11.042   9.482   3.182  0.8325 -0.3189  0.4354
   11MOL0     H 1435  11.062   9.319   3.234 -0.7556  1.5146  1.1896
   11MOL0     H 1436  11.025   9.537   2.910 -0.7132  0.0334 -1.5009
   11MOL0     H 1437  11.027   9.330   2.604  0.5292  1.7377 -2.2419
   11MOL0     H 1438  11.010   9.492   2.668 -2.4174 -1.3406 -1.0012
   11MOL0     H 1439  11.207   9.443   2.516 -1.5271 -1.0522  0.3635
   11MOL0     H 1440  11.256   9.513   2.680 -0.0486 -0.1913  0.9410
   11MOL0     H 1441  11.257   9.224   2.575 -0.8435  0.6157 -0.7193
   11MOL0     H 1442  11.317   9.274   2.742  3.8489 -0.6491 -0.4083
   11MOL0     H 1443  11.493   9.406   2.666  0.0448 -0.4116  0.1083
   11MOL0     H 1444  11.441   9.391   2.499 -0.2200 -0.2663  0.3792
   11MOL0     H 1445  11.643   9.419   2.433 -0.2216 -0.7995  2.0025
   11MOL0     H 1446  11.869   9.411   2.351  0.2985  0.1247  0.3898
   11MOL0     H 1447  12.268   8.993   2.441  2.0489  0.2607  0.8722
   11MOL0     H 1448  12.497   8.941   2.373 -0.5077  1.5910  0.8982
   11MOL0     H 1449  12.705   9.067   2.287  0.5684  1.5011 -2.1904
   11MOL0     H 1450  12.669   8.893   2.257 -1.1868  0.0973 -1.3793
   11MOL0     H 1451  12.800   8.884   2.055 -2.4415  1.1132 -0.2402
   11MOL0     H 1452  12.836   9.059   2.079 -2.5813 -0.0055 -0.8525
   11MOL0     H 1453  13.031   8.971   2.170  1.3528 -1.8713 -0.2148
   11MOL0     H 1454  12.931   8.983   2.311 -0.5557 -0.9375  1.3428
   11MOL0     H 1455  13.016   8.738   2.144 -1.1249  0.6317 -1.9648
   11MOL0     H 1456  12.876   8.736   2.254  1.0129 -0.3931 -0.8786
   11MOL0     H 1457  13.070   8.662   2.363  0.3590 -0.4940 -1.1744
   11MOL0     H 1458  13.012   8.819   2.432 -1.4744 -0.3715  0.2442
   11MOL0     H 1459  13.256   8.761   2.250  1.0838  1.3314 -0.5501
   11MOL0     H 1460  13.209   8.928   2.282  0.5681 -1.2426 -3.0749
   11MOL0     H 1461  13.284   8.741   2.522 -1.1050  2.2306  2.4856
   11MOL0     H 1462  13.237   8.908   2.520  2.7330  1.0102  1.4052
   11MOL0     H 1463  13.472   8.828   2.351  0.9110  2.2351 -0.7330
   11MOL0     H 1464  13.434   8.991   2.431  3.3037  0.0742  0.9135
   11MOL0     H 1465  12.410   9.140   1.997 -1.1269 -1.2800 -0.4192
   11MOL0     H 1466  12.167   9.175   2.082 -1.2907 -1.1351  1.0078
   11MOL0     H 1467  11.908   9.010   2.478 -0.8066 -1.3558  0.9196
   11MOL0     H 1468  11.671   9.009   2.546 -0.5880  1.5860  5.1985
   11MOL0     H 1469   9.897   9.421   3.061 -0.7696 -0.4214  0.6792
   11MOL0     H 1470   9.653   9.367   3.021 -2.7231 -0.0154 -2.4503
   11MOL0     H 1471   9.358   9.200   2.954 -0.6278  1.4179  1.7407
   11MOL0     H 1472   9.130   9.208   3.012 -0.3328  0.3414 -1.2442
   11MOL0     H 1473   8.803   9.359   3.033 -1.0165 -0.3208  0.1071
   11MOL0     H 1474   8.964   9.326   3.098 -0.5619  3.7713 -1.7836
   11MOL0     H 1475   8.943   9.102   2.966  0.0786  0.0659  0.3770
   11MOL0     H 1476   8.772   9.133   2.936 -1.7549 -1.9052  1.8736
   11MOL0     H 1477   8.797   9.158   3.224 -0.0926 -1.9625  1.0448
   11MOL0     H 1478   8.876   9.013   3.172 -1.4382 -2.8403 -2.9548
   11MOL0     H 1479   8.717   8.905   3.065  2.0031 -0.5024  1.2029
   11MOL0     H 1480   8.661   8.961   3.209  1.9817 -4.5309 -1.1200
   11MOL0     H 1481   8.382   9.133   2.924  0.7518  1.7202  0.0239
   11MOL0     H 1482   9.032   9.448   2.671  0.5665 -0.0752 -0.5608
   11MOL0     H 1483   9.271   9.552   2.526  0.9902 -0.8968 -1.3441
   11MOL0     H 1484   9.360   9.395   2.502  0.1450 -0.7031 -0.4687
   11MOL0     H 1485   9.194   9.400   2.488  0.5775 -2.8623  1.5457
   12MOL0     O 1486   3.615   8.335   5.129 -0.3005  0.1793  0.1829
   12MOL0     C 1487   3.518   8.268   5.122  0.3105 -1.1320 -1.0102
   12MOL0     O 1488   3.492   8.180   5.029  0.2697 -0.2477 -0.8100
   12MOL0     C 1489   3.550   8.193   4.905 -0.0998 -0.6242 -0.1233
   12MOL0     C 1490   3.632   8.094   4.857 -0.0579  0.4020 -0.1459
   12MOL0     C 1491   3.678   8.080   4.723 -0.1490  0.1765  0.7397
   12MOL0     C 1492   3.639   8.181   4.635  0.6001  0.2364  1.0356
   12MOL0     O 1493   3.690   8.176   4.505 -0.5498  0.3890 -0.4908
   12MOL0     C 1494   3.611   8.227   4.398  0.9604  1.0665 -0.1070
   12MOL0     C 1495   3.677   8.190   4.266 -0.2857  0.3516  0.7125
   12MOL0     C 1496   3.831   8.179   4.265 -0.2335  0.0252 -0.0816
   12MOL0     C 1497   3.895   8.315   4.283  0.1348  0.5948 -0.0648
   12MOL0     C 1498   4.039   8.294   4.311 -0.3348  0.2493 -0.5197
   12MOL0     C 1499   4.121   8.418   4.315 -0.8410  0.3338 -0.1142
   12MOL0     C 1500   4.271   8.393   4.369 -0.3042  0.5613 -0.0532
   12MOL0     C 1501   4.342   8.297   4.269  1.0539 -0.4119  0.6184
   12MOL0     N 1502   4.484   8.314   4.271 -0.5319  0.3468  0.0055
   12MOL0     C 1503   4.567   8.257   4.362 -0.3491  0.4797 -0.3445
   12MOL0     C 1504   4.692   8.265   4.307 -0.1251  0.0867  0.2991
   12MOL0     C 1505   4.818   8.235   4.384  0.2255  0.6863 -0.0563
   12MOL0     C 1506   4.927   8.341   4.382 -0.8906  0.2167 -0.1294
   12MOL0     C 1507   5.064   8.284   4.431 -0.2788  0.1341 -0.2455
   12MOL0     C 1508   5.167   8.401   4.443  0.2451  0.3415  0.1636
   12MOL0     O 1509   5.291   8.336   4.450  0.2085 -0.0968  0.1335
   12MOL0     C 1510   5.402   8.419   4.431  0.8867  0.5508  0.1413
   12MOL0     C 1511   5.528   8.355   4.444 -0.3849 -0.1503 -0.1902
   12MOL0     C 1512   5.645   8.425   4.443 -1.0908 -0.5506 -0.3098
   12MOL0     C 1513   5.647   8.555   4.402  0.2686 -0.2854  0.5966
   12MOL0     C 1514   5.771   8.626   4.362 -0.3612  0.8963  0.4866
   12MOL0     O 1515   5.884   8.547   4.397 -0.3257 -0.8073  0.2860
   12MOL0     C 1516   6.010   8.571   4.356 -0.4539  0.0045 -0.3897
   12MOL0     C 1517   6.055   8.670   4.272  0.3558 -1.3417  0.4254
   12MOL0     C 1518   6.194   8.681   4.229 -0.0005 -0.0057 -0.2824
   12MOL0     C 1519   6.286   8.583   4.271  0.0517  0.0291  0.3118
   12MOL0     O 1520   6.423   8.574   4.227  0.2700  0.4007  0.3014
   12MOL0     C 1521   6.483   8.668   4.130  0.4983  0.0480 -0.3940
   12MOL0     C 1522   6.629   8.669   4.151 -0.2083 -0.6666 -0.3206
   12MOL0     C 1523   6.690   8.773   4.058 -0.3178 -0.5135 -0.3331
   12MOL0     C 1524   6.847   8.793   4.086 -0.5905  0.4106  0.5716
   12MOL0     C 1525   6.916   8.878   3.979  0.7574  0.4048 -0.4859
   12MOL0     C 1526   7.028   8.969   4.028  0.3075  0.6605 -0.6555
   12MOL0     C 1527   7.131   8.896   4.113  0.0367 -0.6759 -0.1316
   12MOL0     C 1528   7.254   8.975   4.149 -0.0650  0.0643 -0.0563
   12MOL0    Cl 1529   7.330   8.883   4.276  0.0955 -0.5112  0.2494
   12MOL0     C 1530   6.232   8.473   4.346 -0.1572  0.4280  1.3962
   12MOL0     C 1531   6.105   8.477   4.399  0.2418 -0.1066  0.2529
   12MOL0     O 1532   5.769   8.743   4.328 -0.3653  0.1003 -0.0090
   12MOL0     C 1533   5.526   8.629   4.397 -0.1989  0.3815 -0.2357
   12MOL0     C 1534   5.402   8.559   4.412 -0.0690 -0.6994  0.3907
   12MOL0     N 1535   4.687   8.325   4.185  0.5477 -0.5868 -0.8433
   12MOL0     N 1536   4.563   8.349   4.161  0.3802  0.0920  0.9067
   12MOL0     C 1537   3.556   8.286   4.679  0.0694 -0.1978  0.5144
   12MOL0     C 1538   3.512   8.290   4.819  0.7643  0.3230 -0.9878
   12MOL0     C 1539   3.415   8.279   5.225 -0.3345 -1.0420 -0.6283
   12MOL0     C 1540   3.287   8.225   5.202 -0.5438 -1.1134  0.3192
   12MOL0     C 1541   3.200   8.207   5.307  0.4754 -0.3309 -0.3238
   12MOL0     C 1542   3.215   8.267   5.436  0.3475  0.2161 -0.0647
   12MOL0     O 1543   3.117   8.266   5.535  0.1001  0.2946  0.7332
   12MOL0     C 1544   3.013   8.170   5.533 -0.1381  0.0174  0.7892
   12MOL0     C 1545   2.974   8.124   5.668  1.2765  0.1293 -0.3725
   12MOL0     C 1546   2.820   8.112   5.650 -0.2394  0.7756  0.4851
   12MOL0     C 1547   2.740   8.046   5.759  0.1077  0.0484  1.3722
   12MOL0     C 1548   2.594   8.072   5.724 -0.5676  0.2274  0.1653
   12MOL0     C 1549   2.496   8.115   5.670  0.6514  0.0377 -0.5561
   12MOL0     C 1550   3.332   8.343   5.456 -0.2653  1.2411  0.6190
   12MOL0     C 1551   3.432   8.346   5.356 -0.3678  0.0984 -0.2051
   12MOL0     C 1552   3.567   8.403   5.403 -0.2151 -0.5917  0.5796
   12MOL0     H 1553   3.664   8.022   4.931 -2.5429 -1.1778 -0.4878
   12MOL0     H 1554   3.740   7.995   4.697 -1.3701 -0.3424 -0.6272
   12MOL0     H 1555   3.511   8.183   4.396  1.5474 -0.3503 -0.1186
   12MOL0     H 1556   3.606   8.335   4.409 -0.1616  1.0570 -0.4353
   12MOL0     H 1557   3.644   8.256   4.185 -0.4449 -0.9082 -0.2725
   12MOL0     H 1558   3.642   8.090   4.242  0.1462  0.5489 -0.8745
   12MOL0     H 1559   3.864   8.130   4.172  1.5730 -2.8797  1.9295
   12MOL0     H 1560   3.862   8.104   4.338 -0.4846 -0.6087 -0.6166
   12MOL0     H 1561   3.878   8.370   4.190  0.6111 -0.5106 -0.8304
   12MOL0     H 1562   3.857   8.360   4.375  1.7433 -1.0490  1.5075
   12MOL0     H 1563   4.050   8.249   4.411 -0.2952  2.6429  0.6240
   12MOL0     H 1564   4.087   8.236   4.232  2.9508  2.3697 -0.2641
   12MOL0     H 1565   4.131   8.454   4.213  1.2279  0.6064  0.1476
   12MOL0     H 1566   4.076   8.503   4.367  1.9404  1.4987  0.5542
   12MOL0     H 1567   4.265   8.347   4.468 -1.7660 -1.4256 -0.9930
   12MOL0     H 1568   4.325   8.489   4.368 -0.6041  0.7295 -0.7141
   12MOL0     H 1569   4.318   8.194   4.295 -0.2474 -0.2931 -0.0356
   12MOL0     H 1570   4.306   8.316   4.167  2.1565 -0.0461  0.2826
   12MOL0     H 1571   4.548   8.223   4.463  1.0763 -0.0448 -0.2357
   12MOL0     H 1572   4.787   8.226   4.488 -2.4258  2.4634 -0.6004
   12MOL0     H 1573   4.853   8.134   4.360 -2.3179 -0.2204 -0.2227
   12MOL0     H 1574   4.953   8.365   4.279  1.0661 -0.3187  0.1939
   12MOL0     H 1575   4.899   8.430   4.440  1.3241  0.8457  0.0733
   12MOL0     H 1576   5.101   8.212   4.357 -2.9870  0.7903 -2.4314
   12MOL0     H 1577   5.064   8.230   4.526  3.6118 -0.6138 -0.5054
   12MOL0     H 1578   5.145   8.459   4.533  1.9551 -0.9448  1.4893
   12MOL0     H 1579   5.150   8.464   4.355 -0.0195 -1.2475 -0.9844
   12MOL0     H 1580   5.523   8.254   4.482 -0.4904  0.3765  1.2556
   12MOL0     H 1581   5.734   8.366   4.463 -2.0257 -1.7810  0.3456
   12MOL0     H 1582   5.987   8.746   4.234  2.0040 -0.2758 -0.5138
   12MOL0     H 1583   6.223   8.767   4.170 -1.2906  0.7907  0.2163
   12MOL0     H 1584   6.456   8.643   4.027 -0.8695  0.9751 -0.2866
   12MOL0     H 1585   6.443   8.768   4.151  0.0484 -0.4358  1.1784
   12MOL0     H 1586   6.651   8.706   4.252  0.1118 -1.0654 -0.2458
   12MOL0     H 1587   6.664   8.567   4.132 -1.0602 -1.0091 -0.0819
   12MOL0     H 1588   6.671   8.734   3.958 -2.0288  0.0328 -0.2360
   12MOL0     H 1589   6.652   8.874   4.069 -1.4235 -0.6833 -2.2328
   12MOL0     H 1590   6.893   8.697   4.109 -3.2959 -0.5861  2.4019
   12MOL0     H 1591   6.856   8.846   4.182 -0.4072 -1.7441  1.7967
   12MOL0     H 1592   6.851   8.945   3.922  2.4193  1.2070 -1.4986
   12MOL0     H 1593   6.953   8.803   3.908 -0.9054  0.2567 -1.2497
   12MOL0     H 1594   7.074   9.026   3.947  3.8015  0.4704  1.0357
   12MOL0     H 1595   6.987   9.047   4.094 -0.6513 -1.1985  1.0539
   12MOL0     H 1596   7.165   8.802   4.070 -1.0928 -1.4679  0.6493
   12MOL0     H 1597   7.076   8.869   4.203  0.9878  0.6900  0.9050
   12MOL0     H 1598   7.324   8.979   4.064  3.2441  0.9597  2.4957
   12MOL0     H 1599   7.234   9.074   4.190 -1.4222 -0.4888  0.6942
   12MOL0     H 1600   6.305   8.394   4.364  1.2069  0.8918 -1.5416
   12MOL0     H 1601   6.080   8.398   4.469  0.7874 -0.1298  0.4232
   12MOL0     H 1602   5.539   8.736   4.384  2.1681  0.1826  0.0391
   12MOL0     H 1603   5.305   8.608   4.401  0.6026  0.8563  1.1058
   12MOL0     H 1604   3.533   8.367   4.611  1.1138  1.0273  1.5572
   12MOL0     H 1605   3.442   8.365   4.855  2.3297  0.3797  2.2619
   12MOL0     H 1606   3.264   8.181   5.105  0.3154 -1.5089  0.2860
   12MOL0     H 1607   3.107   8.154   5.288 -1.1072  2.4911 -1.1239
   12MOL0     H 1608   3.051   8.080   5.483 -0.6141  0.6675 -0.7893
   12MOL0     H 1609   2.934   8.213   5.471  0.8628  1.6603  0.5964
   12MOL0     H 1610   2.971   8.211   5.734 -1.6554 -1.1522  1.3830
   12MOL0     H 1611   3.023   8.039   5.716 -1.4036 -0.2145  2.0655
   12MOL0     H 1612   2.793   8.063   5.555 -0.5922  0.9564  0.4917
   12MOL0     H 1613   2.776   8.210   5.632  1.9492  1.8911  0.8517
   12MOL0     H 1614   2.773   7.945   5.782  0.0581 -1.2905 -3.4434
   12MOL0     H 1615   2.758   8.103   5.851  0.1406  4.3285 -1.0495
   12MOL0     H 1616   2.428   8.169   5.607 -0.5782 -1.7052 -0.8135
   12MOL0     H 1617   3.336   8.386   5.556 -2.5363  0.3340  1.1452
   12MOL0     H 1618   3.570   8.510   5.380 -0.3921 -0.9138 -1.0427
   12MOL0     H 1619   3.571   8.397   5.512  1.7532 -0.5569  0.5396
   12MOL0     H 1620   3.660   8.362   5.363  0.0207  1.2698 -0.9289
   13MOL0     O 1621  11.182   0.920   3.434 -0.5175 -0.5331 -0.1848
   13MOL0     C 1622  11.150   1.036   3.442 -0.3291 -0.2927  0.8820
   13MOL0     O 1623  11.237   1.143   3.446  0.3630  0.0850  0.1597
   13MOL0     C 1624  11.367   1.111   3.415  0.1013  0.1603 -0.8223
   13MOL0     C 1625  11.444   1.038   3.497 -0.1986 -0.6228 -1.1944
   13MOL0     C 1626  11.576   1.016   3.477  0.2954  0.4022  0.2298
   13MOL0     C 1627  11.638   1.055   3.365 -0.6053 -0.0947 -0.0518
   13MOL0     O 1628  11.769   1.016   3.354  0.2064 -0.2556  0.2990
   13MOL0     C 1629  11.850   1.061   3.248  0.2196 -0.6724 -0.5606
   13MOL0     C 1630  11.861   0.974   3.127  1.0668 -0.2116  0.5179
   13MOL0     C 1631  11.918   0.836   3.163  0.0188 -0.7574  0.0438
   13MOL0     C 1632  12.053   0.819   3.229  0.6304  0.0949 -0.6396
   13MOL0     C 1633  12.079   0.694   3.314 -0.0464  0.7235 -0.4140
   13MOL0     C 1634  12.219   0.701   3.381  0.1226  0.2741  0.1635
   13MOL0     C 1635  12.258   0.563   3.448 -0.5092 -0.5456 -0.1863
   13MOL0     C 1636  12.406   0.553   3.479  0.3033 -0.7243  0.5048
   13MOL0     N 1637  12.478   0.671   3.531  0.3700 -0.9777  0.2606
   13MOL0     C 1638  12.438   0.732   3.640 -0.7172  0.3933 -0.5527
   13MOL0     C 1639  12.541   0.814   3.666  0.1851 -0.5209 -0.5869
   13MOL0     C 1640  12.567   0.899   3.788 -0.5251 -0.0536 -0.6037
   13MOL0     C 1641  12.550   0.810   3.906  0.2849 -0.0782 -0.8570
   13MOL0     C 1642  12.666   0.715   3.925  0.2661  0.0056 -0.3026
   13MOL0     C 1643  12.804   0.781   3.940  0.0722  0.6582  0.1745
   13MOL0     O 1644  12.869   0.714   4.050 -0.0604 -0.6298  0.3915
   13MOL0     C 1645  13.002   0.726   4.066 -0.7146  0.2169 -0.5796
   13MOL0     C 1646  13.094   0.785   3.980  0.2458  0.3532 -1.0354
   13MOL0     C 1647  13.228   0.786   3.998 -0.1542 -0.4695 -0.7403
   13MOL0     C 1648  13.275   0.733   4.119  0.1569 -0.7856 -0.7027
   13MOL0     C 1649  13.422   0.748   4.148  0.2300  0.1156 -0.1780
   13MOL0     O 1650  13.505   0.804   4.054 -0.4620 -0.0344  0.1184
   13MOL0     C 1651  13.626   0.860   4.088 -0.3232 -0.3655  0.5392
   13MOL0     C 1652  13.725   0.788   4.143  0.4564  0.8285 -0.1607
   13MOL0     C 1653  13.854   0.845   4.158 -0.4199  0.3257 -0.6206
   13MOL0     C 1654  13.878   0.970   4.109 -0.3731 -0.0033  0.4234
   13MOL0     O 1655  14.000   1.032   4.119  0.6829  0.3034  0.5088
   13MOL0     C 1656  14.110   0.955   4.153 -0.4449  0.1643 -0.6506
   13MOL0     C 1657  14.230   1.045   4.174 -0.0369  0.6951 -0.3167
   13MOL0     C 1658  14.370   0.986   4.144 -0.0411  0.9998  0.2953
   13MOL0     C 1659  14.451   1.072   4.044 -0.4108  0.3068 -0.7364
   13MOL0     C 1660  14.611   1.034   4.058 -0.1119 -0.0385  0.0706
   13MOL0     C 1661  14.693   1.125   3.966  1.2373  0.1311  0.2174
   13MOL0     C 1662  14.833   1.077   3.945  0.6219  1.2029 -0.1850
   13MOL0     C 1663  14.887   1.116   3.805  0.1982 -0.0682 -1.0918
   13MOL0    Cl 1664  14.921   1.294   3.803 -0.3793 -0.4332 -0.0598
   13MOL0     C 1665  13.771   1.051   4.058  0.3016 -0.0092 -0.2977
   13MOL0     C 1666  13.648   0.994   4.039 -0.3017  0.1997  0.3894
   13MOL0     O 1667  13.466   0.699   4.252 -0.7417  0.1736 -0.1997
   13MOL0     C 1668  13.189   0.671   4.216  0.3147  0.5110 -0.3182
   13MOL0     C 1669  13.053   0.678   4.191  0.2462 -0.2475  0.4385
   13MOL0     N 1670  12.631   0.812   3.564 -0.0162  0.4101 -0.5376
   13MOL0     N 1671  12.599   0.718   3.483  0.6506  0.3216  0.1755
   13MOL0     C 1672  11.561   1.126   3.268 -0.5142  0.0893 -0.2360
   13MOL0     C 1673  11.426   1.159   3.302  0.0575 -0.7266 -0.3216
   13MOL0     C 1674  11.006   1.064   3.434 -0.0815 -0.0156  0.0842
   13MOL0     C 1675  10.919   0.961   3.462 -0.1090  0.1901  0.4728
   13MOL0     C 1676  10.783   0.982   3.469  0.1729  0.6062  0.9355
   13MOL0     C 1677  10.722   1.101   3.443  0.5431 -0.9615 -0.2761
   13MOL0     O 1678  10.587   1.126   3.440 -0.3901 -0.4823 -0.2160
   13MOL0     C 1679  10.494   1.025   3.442 -0.0913  0.8603  0.1327
   13MOL0     C 1680  10.365   1.079   3.388 -0.0086 -0.5244  0.0757
   13MOL0     C 1681  10.298   1.184   3.486 -0.1196  0.0291  0.0772
   13MOL0     C 1682  10.203   1.290   3.411 -0.3637  0.3418 -0.0626
   13MOL0     C 1683  10.099   1.223   3.330 -0.0484 -0.1741  0.3943
   13MOL0     C 1684  10.027   1.157   3.266  0.8432 -0.6573 -0.9970
   13MOL0     C 1685  10.808   1.207   3.406 -0.0830 -0.1264  0.2924
   13MOL0     C 1686  10.947   1.187   3.404  0.1302 -0.1986  0.8683
   13MOL0     C 1687  11.019   1.307   3.350 -0.5056 -0.8512  0.2242
   13MOL0     H 1688  11.414   1.011   3.598  0.4854 -0.7130 -1.0112
   13MOL0     H 1689  11.626   0.958   3.554 -0.4679  0.6063  0.8861
   13MOL0     H 1690  11.812   1.159   3.219 -3.8291 -0.4033  4.2974
   13MOL0     H 1691  11.946   1.074   3.299 -0.6305 -1.4718  1.3562
   13MOL0     H 1692  11.929   1.019   3.054  1.4093 -1.3226  0.1327
   13MOL0     H 1693  11.757   0.969   3.095 -0.1372 -1.9647  4.1405
   13MOL0     H 1694  11.919   0.779   3.070 -0.3621 -1.1917  0.3031
   13MOL0     H 1695  11.846   0.774   3.218  0.6832 -0.1513  1.6565
   13MOL0     H 1696  12.127   0.821   3.149  0.7084  1.0532 -0.5546
   13MOL0     H 1697  12.068   0.897   3.304  1.9465 -2.5569  2.0772
   13MOL0     H 1698  12.000   0.704   3.389 -0.9398  0.1429 -1.2561
   13MOL0     H 1699  12.062   0.598   3.265  0.4522 -1.3423  3.1475
   13MOL0     H 1700  12.296   0.731   3.309 -0.1981 -0.0358 -0.3084
   13MOL0     H 1701  12.208   0.783   3.453  2.2895  0.5368  0.2771
   13MOL0     H 1702  12.236   0.474   3.388 -1.8197  1.1148 -2.3439
   13MOL0     H 1703  12.202   0.559   3.542 -1.4757 -0.9800 -0.7585
   13MOL0     H 1704  12.426   0.474   3.553 -0.1867 -0.1944  1.2210
   13MOL0     H 1705  12.464   0.528   3.389  3.7992  1.7256  1.8498
   13MOL0     H 1706  12.349   0.718   3.699  0.0028 -2.1437  0.0692
   13MOL0     H 1707  12.665   0.946   3.777 -0.8346  1.8641  3.2718
   13MOL0     H 1708  12.499   0.984   3.794  2.0787  2.0816  1.5585
   13MOL0     H 1709  12.537   0.872   3.995  2.0475 -0.5380 -0.2251
   13MOL0     H 1710  12.459   0.751   3.896 -0.3399  0.4144  1.3686
   13MOL0     H 1711  12.662   0.644   3.842 -2.1355 -2.0634  1.4501
   13MOL0     H 1712  12.635   0.659   4.013  1.2308 -0.0287  0.0257
   13MOL0     H 1713  12.806   0.887   3.965  1.0869  1.2319 -2.1094
   13MOL0     H 1714  12.850   0.762   3.842  0.0215 -1.2449  0.4862
   13MOL0     H 1715  13.064   0.825   3.883  0.2584 -0.9169 -1.5765
   13MOL0     H 1716  13.292   0.841   3.930  2.7589 -1.0272  1.3664
   13MOL0     H 1717  13.721   0.683   4.168 -0.4410  1.3417  2.1448
   13MOL0     H 1718  13.932   0.786   4.205 -0.1570  1.0696 -0.1044
   13MOL0     H 1719  14.089   0.909   4.250 -1.3506  2.3961  0.3061
   13MOL0     H 1720  14.135   0.880   4.078 -0.9719 -0.9321  0.2526
   13MOL0     H 1721  14.225   1.133   4.109  0.0947  0.9366 -0.0033
   13MOL0     H 1722  14.223   1.062   4.282 -3.5359 -3.2564  0.3435
   13MOL0     H 1723  14.429   0.970   4.235 -1.1454  2.3088  1.2884
   13MOL0     H 1724  14.350   0.884   4.110 -3.7344  0.2167  3.9922
   13MOL0     H 1725  14.454   1.180   4.055  1.3356  0.2969 -0.9318
   13MOL0     H 1726  14.416   1.051   3.943  3.0585 -2.0668 -1.6081
   13MOL0     H 1727  14.627   0.931   4.023 -2.0715 -0.2319 -0.3383
   13MOL0     H 1728  14.650   1.045   4.159  0.1618 -2.1772  0.2492
   13MOL0     H 1729  14.643   1.126   3.868 -1.7302 -2.7924  1.5206
   13MOL0     H 1730  14.691   1.227   4.006  0.6779 -0.4600  1.7752
   13MOL0     H 1731  14.833   0.967   3.942  0.9494  1.2173 -2.8927
   13MOL0     H 1732  14.899   1.109   4.026  2.0652  1.1781 -1.3030
   13MOL0     H 1733  14.974   1.057   3.775 -1.0719 -1.8471 -1.4629
   13MOL0     H 1734  14.804   1.111   3.734 -1.9665  2.0547  1.1268
   13MOL0     H 1735  13.796   1.152   4.028  3.7064 -0.4233  0.7127
   13MOL0     H 1736  13.581   1.051   3.975  1.0846  0.6940 -0.6791
   13MOL0     H 1737  13.231   0.632   4.308 -1.4020  2.8141  1.5752
   13MOL0     H 1738  12.971   0.643   4.252 -2.8583  1.0603 -2.6435
   13MOL0     H 1739  11.610   1.157   3.177  0.4045  0.4092  0.3530
   13MOL0     H 1740  11.369   1.208   3.225  1.3543  0.5232 -0.5241
   13MOL0     H 1741  10.958   0.860   3.456 -0.4665  0.0459  0.5890
   13MOL0     H 1742  10.710   0.902   3.479 -0.0481  0.7811  0.7327
   13MOL0     H 1743  10.470   0.989   3.542  0.7227  2.8616  1.0964
   13MOL0     H 1744  10.523   0.937   3.383 -1.0656 -0.3173  1.3555
   13MOL0     H 1745  10.305   0.988   3.379  2.8990 -2.6439  0.6158
   13MOL0     H 1746  10.370   1.108   3.283 -3.7802 -2.1580 -0.7065
   13MOL0     H 1747  10.365   1.252   3.540 -0.1570  0.1935 -0.0824
   13MOL0     H 1748  10.231   1.137   3.559 -0.5368  0.0737 -0.2717
   13MOL0     H 1749  10.145   1.338   3.490 -1.6960 -1.7371  0.3253
   13MOL0     H 1750  10.248   1.368   3.350  0.8051 -0.4416 -0.2508
   13MOL0     H 1751   9.957   1.094   3.217  0.1579  0.6526 -1.7505
   13MOL0     H 1752  10.760   1.303   3.392  0.0534  0.0293  0.8729
   13MOL0     H 1753  10.946   1.385   3.324 -1.5731 -1.5793  0.9676
   13MOL0     H 1754  11.098   1.343   3.417  1.2975 -2.8437 -0.7257
   13MOL0     H 1755  11.062   1.279   3.253 -2.9044  1.5416 -1.7014
   14MOL0     O 1756   1.625   8.148  10.815 -0.4837 -0.0091 -0.2201
   14MOL0     C 1757   1.569   8.068  10.885  1.0171  0.5413  0.4477
   14MOL0     O 1758   1.628   7.955  10.937  0.6828  0.0911 -0.1125
   14MOL0     C 1759   1.763   7.953  10.971  0.8790  0.1652 -0.1860
   14MOL0     C 1760   1.815   8.028  11.076 -0.5237 -0.2330 -0.9911
   14MOL0     C 1761   1.950   8.008  11.118  0.3600  0.9145 -0.6254
   14MOL0     C 1762   2.042   7.917  11.067  0.1313 -1.2432  0.2634
   14MOL0     O 1763   2.169   7.897  11.118  0.0510  0.3581 -0.6925
   14MOL0     C 1764   2.268   7.871  11.025 -0.4937  0.5971  0.7937
   14MOL0     C 1765   2.415   7.853  11.079 -0.0318 -0.0586 -0.8396
   14MOL0     C 1766   2.510   7.975  11.073 -0.6429  0.0877 -0.2274
   14MOL0     C 1767   2.632   7.949  11.170 -0.8206  0.4833  0.6863
   14MOL0     C 1768   2.724   8.074  11.183  0.5774  0.0619 -0.6788
   14MOL0     C 1769   2.773   8.105  11.324 -1.1430 -0.1387 -0.8436
   14MOL0     C 1770   2.867   8.001  11.382 -1.2332 -0.3811  1.0570
   14MOL0     C 1771   3.001   8.008  11.303 -0.2570  0.5301  0.5723
   14MOL0     N 1772   3.085   8.122  11.333 -0.0021  0.1751 -0.1950
   14MOL0     C 1773   3.100   8.177  11.456 -1.1899 -0.4297 -1.2869
   14MOL0     C 1774   3.178   8.288  11.440 -0.0744  1.1786 -0.3044
   14MOL0     C 1775   3.216   8.398  11.538  0.2616  0.5258 -0.1172
   14MOL0     C 1776   3.232   8.350  11.684 -0.9475 -0.2249 -1.2758
   14MOL0     C 1777   3.351   8.245  11.708  0.0579  0.0603 -0.4041
   14MOL0     C 1778   3.360   8.176  11.842  0.6431  0.4090  0.9294
   14MOL0     O 1779   3.444   8.060  11.831 -0.0225  0.3075  0.9336
   14MOL0     C 1780   3.573   8.072  11.881 -0.9915  0.2834  0.3529
   14MOL0     C 1781   3.612   8.123  12.002  0.2747 -0.2462 -0.3283
   14MOL0     C 1782   3.751   8.130  12.049  0.1681 -0.0379 -0.0219
   14MOL0     C 1783   3.843   8.077  11.960 -0.0684  0.2648 -0.1123
   14MOL0     C 1784   3.990   8.082  11.997 -0.3327  0.3586 -0.7459
   14MOL0     O 1785   4.078   8.005  11.924 -0.1733 -0.6503  0.2795
   14MOL0     C 1786   4.217   8.008  11.919 -0.5503 -0.3029 -0.3937
   14MOL0     C 1787   4.300   8.039  12.031 -0.4575 -0.4076 -0.3058
   14MOL0     C 1788   4.439   8.050  12.017 -0.6616 -0.4103 -0.0287
   14MOL0     C 1789   4.497   8.035  11.890  0.5287 -1.0286 -0.4624
   14MOL0     O 1790   4.635   8.061  11.876  0.5638  0.5726 -0.1178
   14MOL0     C 1791   4.668   8.187  11.828 -0.2854 -0.1979  0.5284
   14MOL0     C 1792   4.824   8.193  11.810 -0.0413 -0.2898 -0.4982
   14MOL0     C 1793   4.865   8.316  11.734 -0.0190  0.2859 -0.5331
   14MOL0     C 1794   5.009   8.291  11.688  0.3446  0.1797  0.2149
   14MOL0     C 1795   5.065   8.397  11.596 -0.6636  0.2381  0.8874
   14MOL0     C 1796   5.109   8.524  11.675  0.1054  0.4108  0.6501
   14MOL0     C 1797   5.169   8.632  11.594 -0.3777 -0.9314  0.7315
   14MOL0     C 1798   5.219   8.752  11.682 -0.1070  0.4672  0.4284
   14MOL0    Cl 1799   5.361   8.704  11.766 -0.1319 -0.0174  0.0793
   14MOL0     C 1800   4.417   7.998  11.788 -1.1327 -0.2628 -0.2185
   14MOL0     C 1801   4.279   7.976  11.799 -0.5363  0.3825 -0.4083
   14MOL0     O 1802   4.022   8.162  12.086 -0.9627  0.2092  0.3695
   14MOL0     C 1803   3.804   8.009  11.840  0.2606  0.1147  0.6446
   14MOL0     C 1804   3.670   8.009  11.796  0.0154  0.4974 -0.1034
   14MOL0     N 1805   3.208   8.290  11.306 -0.3605  0.6305  0.3956
   14MOL0     N 1806   3.159   8.195  11.244 -0.6785  0.7013 -0.6679
   14MOL0     C 1807   1.986   7.856  10.953  0.0553  0.8168 -0.0863
   14MOL0     C 1808   1.853   7.872  10.900  0.3226 -0.6716 -0.1468
   14MOL0     C 1809   1.414   8.074  10.891 -1.6292 -0.2776  0.6306
   14MOL0     C 1810   1.360   7.969  10.969  0.2643 -0.1497  2.0233
   14MOL0     C 1811   1.225   7.938  10.944 -0.4927  0.4879 -0.6389
   14MOL0     C 1812   1.143   8.022  10.866 -0.7645 -0.0397 -0.0273
   14MOL0     O 1813   1.014   7.972  10.862  0.0108 -0.1809  0.3051
   14MOL0     C 1814   0.905   8.048  10.809 -0.2629 -0.1388 -0.0487
   14MOL0     C 1815   0.771   8.009  10.863 -0.3588 -0.1250  0.2483
   14MOL0     C 1816   0.694   8.130  10.915 -0.9223 -0.6510 -0.3027
   14MOL0     C 1817   0.562   8.098  10.989  0.3902  0.2773 -0.6417
   14MOL0     C 1818   0.470   8.054  10.885  0.4082  0.0071 -0.5055
   14MOL0     C 1819   0.409   8.006  10.796  0.1162 -0.8905  0.1784
   14MOL0     C 1820   1.193   8.134  10.809 -0.2687  0.1581 -0.3862
   14MOL0     C 1821   1.332   8.166  10.819 -0.8842  0.0427 -0.0392
   14MOL0     C 1822   1.391   8.284  10.751 -0.1081  0.6397  0.2928
   14MOL0     H 1823   1.765   8.098  11.141 -0.9412 -1.2706 -0.1706
   14MOL0     H 1824   1.973   8.045  11.218 -0.3401  0.2967 -0.2274
   14MOL0     H 1825   2.241   7.780  10.970  1.1486  0.8545 -0.5352
   14MOL0     H 1826   2.274   7.954  10.953  2.3089 -0.5297 -0.4309
   14MOL0     H 1827   2.464   7.773  11.023 -1.0968 -0.2430 -1.5386
   14MOL0     H 1828   2.397   7.816  11.181 -2.5314 -0.0057 -1.1981
   14MOL0     H 1829   2.452   8.063  11.103 -1.4343 -1.2473  2.4353
   14MOL0     H 1830   2.542   7.989  10.969  0.0230  0.2831 -0.0041
   14MOL0     H 1831   2.577   7.929  11.263  1.3961 -1.8774  1.5913
   14MOL0     H 1832   2.689   7.859  11.147  0.9849  1.7376  0.0141
   14MOL0     H 1833   2.810   8.054  11.118 -0.4886  1.1246 -2.4911
   14MOL0     H 1834   2.669   8.164  11.154 -0.6865 -1.3196 -2.9341
   14MOL0     H 1835   2.827   8.200  11.326 -0.2249 -0.6516 -0.8659
   14MOL0     H 1836   2.685   8.123  11.386 -1.0865  0.1682 -0.8486
   14MOL0     H 1837   2.826   7.901  11.367  0.1159 -0.9329  0.8675
   14MOL0     H 1838   2.875   8.011  11.491 -1.7913 -2.9441  1.4078
   14MOL0     H 1839   3.063   7.923  11.334  0.6762  1.2040  0.6007
   14MOL0     H 1840   2.986   7.993  11.196 -0.9513 -3.3280  1.0689
   14MOL0     H 1841   3.048   8.150  11.548  1.0733  2.4903  1.0818
   14MOL0     H 1842   3.308   8.447  11.504  1.1698 -2.6506 -2.7726
   14MOL0     H 1843   3.150   8.485  11.541  1.2032  1.2381  1.6524
   14MOL0     H 1844   3.252   8.441  11.741 -1.3383 -1.4491  0.9355
   14MOL0     H 1845   3.144   8.303  11.726 -0.6502  0.2643 -0.0558
   14MOL0     H 1846   3.441   8.303  11.687 -1.1381  1.6155 -1.5056
   14MOL0     H 1847   3.336   8.169  11.630 -0.6390  0.6834 -0.8883
   14MOL0     H 1848   3.260   8.142  11.870  0.5396  0.6277  0.8281
   14MOL0     H 1849   3.400   8.245  11.917  0.6138  3.4626 -1.6712
   14MOL0     H 1850   3.533   8.162  12.064  0.5892 -3.5930  2.4673
   14MOL0     H 1851   3.764   8.152  12.154 -1.1672 -1.3328  0.4540
   14MOL0     H 1852   4.258   8.063  12.128  0.7932  2.6560 -0.4009
   14MOL0     H 1853   4.490   8.087  12.105  0.2228  4.2307 -2.1556
   14MOL0     H 1854   4.630   8.217  11.730 -0.8819 -2.4813  0.0054
   14MOL0     H 1855   4.632   8.256  11.905 -2.9432 -2.6272  1.6262
   14MOL0     H 1856   4.874   8.183  11.907  1.0900 -1.4887 -1.1684
   14MOL0     H 1857   4.862   8.101  11.764 -0.5682 -1.0951  0.6404
   14MOL0     H 1858   4.798   8.337  11.649  0.7721  0.1363 -1.2049
   14MOL0     H 1859   4.872   8.399  11.804  2.1961 -1.3850  1.3697
   14MOL0     H 1860   5.001   8.203  11.623  1.2401 -0.1409  0.5294
   14MOL0     H 1861   5.082   8.271  11.766  0.6309  0.8657  0.1348
   14MOL0     H 1862   4.987   8.429  11.526  0.1324 -2.6359 -1.5271
   14MOL0     H 1863   5.155   8.370  11.540 -1.0051  1.7051 -0.4423
   14MOL0     H 1864   5.024   8.570  11.726 -0.6080  1.1279 -1.1186
   14MOL0     H 1865   5.181   8.487  11.749  0.9027  2.6527  1.0755
   14MOL0     H 1866   5.091   8.676  11.532  0.5706  1.3321  1.0699
   14MOL0     H 1867   5.248   8.588  11.531  0.9368  1.2864  0.7393
   14MOL0     H 1868   5.235   8.842  11.622 -3.7192  0.9508 -0.0334
   14MOL0     H 1869   5.160   8.796  11.763 -1.5437  3.9981 -2.2766
   14MOL0     H 1870   4.451   7.981  11.686 -2.0947  0.4698 -0.6770
   14MOL0     H 1871   4.218   7.946  11.714 -0.6094 -1.3647  0.2234
   14MOL0     H 1872   3.865   7.954  11.768  0.9652  1.5915  0.0808
   14MOL0     H 1873   3.638   7.964  11.703  0.7550  0.0546 -0.1587
   14MOL0     H 1874   2.047   7.784  10.898 -4.6753 -2.4823 -1.6740
   14MOL0     H 1875   1.814   7.812  10.819  0.1242 -1.5165  0.5596
   14MOL0     H 1876   1.422   7.904  11.030  1.5311 -2.7128 -1.6208
   14MOL0     H 1877   1.181   7.853  10.996 -2.8559 -0.1263 -3.3713
   14MOL0     H 1878   0.901   8.025  10.703 -0.5972  1.6136 -0.4478
   14MOL0     H 1879   0.918   8.157  10.814 -1.9429  0.5528 -5.0065
   14MOL0     H 1880   0.791   7.944  10.948  0.8748  1.7710  1.4939
   14MOL0     H 1881   0.716   7.963  10.780 -0.6227 -0.6213  0.6970
   14MOL0     H 1882   0.674   8.203  10.835 -0.1516 -0.1473 -0.0528
   14MOL0     H 1883   0.748   8.173  11.000 -0.8498 -2.2578  0.5008
   14MOL0     H 1884   0.580   8.018  11.061  3.2475  1.8442  0.5330
   14MOL0     H 1885   0.525   8.175  11.057  2.2541  0.0907  0.6612
   14MOL0     H 1886   0.372   7.978  10.699  0.6964 -0.0372 -0.2982
   14MOL0     H 1887   1.125   8.199  10.755  0.8706  3.9076  2.2782
   14MOL0     H 1888   1.306   8.339  10.709 -0.8062 -0.2654  0.4677
   14MOL0     H 1889   1.439   8.357  10.816 -2.2385  1.2066  1.3302
   14MOL0     H 1890   1.458   8.249  10.672  0.7718 -0.5158  1.5117
   15MOL0     O 1891   0.904   1.456   6.600  0.4340  0.1650 -0.0861
   15MOL0     C 1892   0.910   1.481   6.720  0.1367 -0.0541 -0.5362
   15MOL0     O 1893   1.000   1.557   6.788  0.9742  0.0998  0.0044
   15MOL0     C 1894   1.105   1.617   6.720  0.6145 -0.8146 -0.1750
   15MOL0     C 1895   1.144   1.735   6.773  0.4190  0.4881 -0.3744
   15MOL0     C 1896   1.273   1.786   6.756 -0.1393 -0.9043  0.4681
   15MOL0     C 1897   1.355   1.717   6.670  0.3880 -0.7057  0.4796
   15MOL0     O 1898   1.482   1.756   6.662 -0.1830 -0.7804  0.5185
   15MOL0     C 1899   1.535   1.805   6.537  0.8349 -0.5712  0.4774
   15MOL0     C 1900   1.655   1.894   6.576  0.5002  0.5371  0.2127
   15MOL0     C 1901   1.774   1.810   6.618 -0.0589 -0.6845 -0.5313
   15MOL0     C 1902   1.908   1.884   6.620  0.5384  0.6283 -0.3009
   15MOL0     C 1903   2.035   1.811   6.641 -0.5440  0.5927 -0.0889
   15MOL0     C 1904   2.150   1.911   6.625  0.0399 -0.2617 -0.0534
   15MOL0     C 1905   2.285   1.854   6.662  0.0184  0.2814 -0.2308
   15MOL0     C 1906   2.315   1.883   6.807 -0.5700 -0.8127  1.2196
   15MOL0     N 1907   2.430   1.807   6.846 -1.0699  0.0364  0.0282
   15MOL0     C 1908   2.549   1.818   6.779 -0.4225 -0.4002  0.0381
   15MOL0     C 1909   2.644   1.753   6.849 -0.2687  0.8869  0.3892
   15MOL0     C 1910   2.790   1.759   6.818  0.4811 -0.1670 -0.0260
   15MOL0     C 1911   2.889   1.704   6.921  0.5833  0.1018  0.2084
   15MOL0     C 1912   2.903   1.549   6.934  0.1352  0.2895  0.1034
   15MOL0     C 1913   2.970   1.472   6.823 -0.1130  0.2098 -0.1944
   15MOL0     O 1914   3.090   1.531   6.772 -0.3810  0.0026 -0.2980
   15MOL0     C 1915   3.199   1.531   6.863 -0.3689  0.0992 -0.1052
   15MOL0     C 1916   3.248   1.419   6.931  0.0212 -1.0456 -0.0472
   15MOL0     C 1917   3.365   1.420   7.008 -0.0060  0.2072  0.2555
   15MOL0     C 1918   3.432   1.544   7.034  0.2518 -0.2622  0.4203
   15MOL0     C 1919   3.554   1.552   7.103 -0.2945 -0.7272  0.0749
   15MOL0     O 1920   3.599   1.450   7.180 -0.4739  0.2726  0.2655
   15MOL0     C 1921   3.709   1.468   7.263  0.1047 -0.0221 -0.2336
   15MOL0     C 1922   3.691   1.526   7.388 -0.1575 -0.2509  0.7786
   15MOL0     C 1923   3.803   1.530   7.473 -0.0004  0.1703  0.1633
   15MOL0     C 1924   3.933   1.477   7.433  0.1727  0.1419 -0.3741
   15MOL0     O 1925   4.046   1.499   7.513  1.1905 -0.1474  0.1521
   15MOL0     C 1926   4.176   1.475   7.465  0.6696 -0.3408  0.1436
   15MOL0     C 1927   4.291   1.532   7.553 -0.3602 -0.1579 -0.6148
   15MOL0     C 1928   4.431   1.505   7.492  0.2788 -0.6629 -0.2507
   15MOL0     C 1929   4.549   1.557   7.573 -0.0236 -0.7071 -0.9367
   15MOL0     C 1930   4.550   1.511   7.718 -0.5821 -0.1747  0.1210
   15MOL0     C 1931   4.686   1.551   7.787 -0.4399 -0.5036 -0.0672
   15MOL0     C 1932   4.675   1.529   7.932  0.1887  0.0708  0.4601
   15MOL0     C 1933   4.806   1.585   7.998  0.3891  0.5871 -0.3884
   15MOL0    Cl 1934   4.949   1.476   7.979 -0.0900  0.0880  0.1588
   15MOL0     C 1935   3.941   1.412   7.309  0.8227  0.2513  0.6968
   15MOL0     C 1936   3.825   1.401   7.236 -0.0744 -0.0527 -0.2530
   15MOL0     O 1937   3.603   1.665   7.098  0.5209 -0.5100 -0.6669
   15MOL0     C 1938   3.378   1.661   6.972 -0.1795  0.9263 -0.4089
   15MOL0     C 1939   3.266   1.650   6.889  0.8260  0.0624  0.5962
   15MOL0     N 1940   2.573   1.688   6.952  0.6172  0.5417  0.1377
   15MOL0     N 1941   2.447   1.723   6.949  0.6917  0.4167  1.0014
   15MOL0     C 1942   1.313   1.602   6.604 -0.3653  0.7002  0.5728
   15MOL0     C 1943   1.189   1.550   6.630 -0.1327 -0.4822  0.1389
   15MOL0     C 1944   0.808   1.406   6.809 -0.5960  0.8626 -0.4230
   15MOL0     C 1945   0.715   1.324   6.741  0.2415  0.3586 -0.1215
   15MOL0     C 1946   0.610   1.270   6.812 -0.4295  0.5425 -0.7754
   15MOL0     C 1947   0.609   1.267   6.960 -0.4004  0.7517 -0.1589
   15MOL0     O 1948   0.514   1.188   7.029  0.3687  0.2339 -0.5314
   15MOL0     C 1949   0.466   1.238   7.159 -1.0004 -0.5127  0.6899
   15MOL0     C 1950   0.356   1.156   7.216  0.3979  0.3890  0.2244
   15MOL0     C 1951   0.393   1.006   7.242  0.3996  0.9750 -0.3410
   15MOL0     C 1952   0.296   0.931   7.347  0.1783 -0.1098  0.1311
   15MOL0     C 1953   0.288   0.996   7.488  0.8942  0.0620  0.5229
   15MOL0     C 1954   0.298   1.041   7.600 -0.2539 -0.1409 -0.7647
   15MOL0     C 1955   0.708   1.337   7.026 -0.0815 -0.4486 -0.2039
   15MOL0     C 1956   0.800   1.414   6.951  0.0796 -0.0985  0.3971
   15MOL0     C 1957   0.895   1.503   7.040  0.3216 -0.2582 -0.4048
   15MOL0     H 1958   1.080   1.771   6.853 -3.1643  1.9392 -3.5840
   15MOL0     H 1959   1.300   1.881   6.800  0.1809 -2.1504  3.1278
   15MOL0     H 1960   1.561   1.734   6.458 -3.1681  1.0335 -2.7021
   15MOL0     H 1961   1.454   1.867   6.498  0.5569  1.8962  4.4276
   15MOL0     H 1962   1.620   1.966   6.650  0.6828 -0.4224  1.2592
   15MOL0     H 1963   1.682   1.945   6.483  3.4897 -2.1371 -0.5700
   15MOL0     H 1964   1.785   1.733   6.540 -0.6888  0.7114 -2.0638
   15MOL0     H 1965   1.755   1.783   6.722 -1.3143  0.2467 -0.4993
   15MOL0     H 1966   1.919   1.945   6.529  1.4698  1.6878  0.4940
   15MOL0     H 1967   1.900   1.952   6.705 -1.8257  0.2252 -0.1242
   15MOL0     H 1968   2.053   1.766   6.739  0.4413 -0.9409 -0.9291
   15MOL0     H 1969   2.050   1.738   6.561 -0.8249  0.1312  0.2748
   15MOL0     H 1970   2.147   1.948   6.522 -2.8280  2.3223  0.7862
   15MOL0     H 1971   2.136   1.996   6.693  0.7714 -1.3344  1.5046
   15MOL0     H 1972   2.364   1.906   6.607 -0.7755  0.0643 -1.6180
   15MOL0     H 1973   2.281   1.748   6.638 -0.5983  0.4538 -0.9168
   15MOL0     H 1974   2.338   1.989   6.825 -3.6985 -0.0014  1.0258
   15MOL0     H 1975   2.231   1.860   6.872  1.1805 -1.5896  3.3266
   15MOL0     H 1976   2.568   1.882   6.693  0.1661 -2.3490 -1.3446
   15MOL0     H 1977   2.790   1.709   6.721 -2.5663  2.5972 -1.6843
   15MOL0     H 1978   2.810   1.865   6.796  0.1806  0.1488  1.1733
   15MOL0     H 1979   2.990   1.743   6.908  1.3918 -1.1758  2.2445
   15MOL0     H 1980   2.863   1.738   7.022  0.0458 -1.5721  0.6648
   15MOL0     H 1981   2.806   1.500   6.946  1.8753 -3.6162 -0.2288
   15MOL0     H 1982   2.958   1.526   7.025  0.5143  0.5920 -0.0445
   15MOL0     H 1983   2.901   1.472   6.738  0.5753  2.0208 -0.7926
   15MOL0     H 1984   2.988   1.370   6.858  0.9115 -0.3370 -2.1521
   15MOL0     H 1985   3.197   1.325   6.909 -1.8009  0.0294 -0.7012
   15MOL0     H 1986   3.398   1.325   7.049 -0.3662  0.9324  2.3307
   15MOL0     H 1987   3.595   1.569   7.414  1.5033  2.5120  2.8482
   15MOL0     H 1988   3.800   1.576   7.571  1.4032  0.6571 -0.0054
   15MOL0     H 1989   4.177   1.366   7.460 -1.1711 -0.4458  1.2461
   15MOL0     H 1990   4.189   1.508   7.361  0.3774  0.8525  0.4662
   15MOL0     H 1991   4.275   1.638   7.574  1.7473 -0.2318  1.7569
   15MOL0     H 1992   4.291   1.479   7.649  0.5822 -0.4585 -0.7729
   15MOL0     H 1993   4.449   1.398   7.478  0.9040 -0.5099 -0.6353
   15MOL0     H 1994   4.449   1.554   7.396  1.6874  0.9531  0.7951
   15MOL0     H 1995   4.547   1.667   7.571 -0.0738 -0.6181  1.1685
   15MOL0     H 1996   4.641   1.526   7.524  0.6423 -0.7493  0.3040
   15MOL0     H 1997   4.533   1.403   7.717 -0.5715 -0.2017  1.3635
   15MOL0     H 1998   4.467   1.559   7.771 -0.2551 -0.0232  0.5043
   15MOL0     H 1999   4.766   1.491   7.742 -1.8591 -3.3871  0.9788
   15MOL0     H 2000   4.712   1.657   7.779  1.9150 -1.0985 -1.3705
   15MOL0     H 2001   4.681   1.422   7.952  2.6633  0.7048  3.9999
   15MOL0     H 2002   4.582   1.573   7.970  0.2211 -2.0148  3.2069
   15MOL0     H 2003   4.839   1.684   7.966  1.0817  0.1155 -1.1653
   15MOL0     H 2004   4.791   1.592   8.107  0.2118  0.5468 -0.4106
   15MOL0     H 2005   4.034   1.370   7.273  1.0092 -0.2879  1.7865
   15MOL0     H 2006   3.823   1.340   7.146  0.6532 -3.1847  1.7206
   15MOL0     H 2007   3.417   1.762   6.980  1.6852  0.1399  1.1285
   15MOL0     H 2008   3.218   1.744   6.861 -2.4993 -1.0907  1.8972
   15MOL0     H 2009   1.376   1.540   6.541 -0.2183  0.9392  0.4855
   15MOL0     H 2010   1.169   1.446   6.604  3.0389 -0.7554 -1.7282
   15MOL0     H 2011   0.712   1.309   6.634  0.1654 -1.4238  0.0973
   15MOL0     H 2012   0.527   1.219   6.763  1.3978 -2.0274 -1.4202
   15MOL0     H 2013   0.429   1.340   7.146  1.1518  0.3010  0.6628
   15MOL0     H 2014   0.542   1.250   7.237 -0.4037 -0.1589  0.0651
   15MOL0     H 2015   0.270   1.167   7.148  0.6355  0.9826  0.0101
   15MOL0     H 2016   0.321   1.196   7.311 -2.9562 -1.4739 -0.0770
   15MOL0     H 2017   0.496   1.013   7.279  0.3348  2.0151 -0.3165
   15MOL0     H 2018   0.395   0.961   7.143  3.6192 -0.0998  0.0821
   15MOL0     H 2019   0.195   0.921   7.305  0.9784 -0.0682 -1.9549
   15MOL0     H 2020   0.350   0.835   7.341  0.8990  0.3657 -3.1970
   15MOL0     H 2021   0.297   1.067   7.704  1.4338 -0.4482 -0.6354
   15MOL0     H 2022   0.729   1.322   7.132 -0.9659  1.1253  0.2232
   15MOL0     H 2023   0.881   1.465   7.142  0.1272 -3.2172 -1.4282
   15MOL0     H 2024   1.001   1.487   7.015  0.2833  2.1392 -2.4235
   15MOL0     H 2025   0.872   1.609   7.031 -0.6456 -0.5029 -0.9756
   16MOL0     O 2026   8.850   2.505   7.892  0.4262 -1.0984  0.1833
   16MOL0     C 2027   8.812   2.508   7.780  0.3402  0.1616  0.2057
   16MOL0     O 2028   8.895   2.516   7.661 -0.7530 -0.3805 -0.0390
   16MOL0     C 2029   9.028   2.529   7.689 -0.3832  0.1577 -0.4205
   16MOL0     C 2030   9.124   2.452   7.617  0.2271  0.1165 -0.0911
   16MOL0     C 2031   9.263   2.469   7.644  0.2513  0.1618  0.7324
   16MOL0     C 2032   9.307   2.575   7.714 -0.5545 -0.7812 -0.6000
   16MOL0     O 2033   9.439   2.590   7.722  0.5773  0.5023 -0.4628
   16MOL0     C 2034   9.503   2.685   7.798 -0.2145  0.2219  0.0587
   16MOL0     C 2035   9.661   2.677   7.795  0.1545  0.2945 -0.5240
   16MOL0     C 2036   9.713   2.722   7.661  0.3194  0.3544 -0.1164
   16MOL0     C 2037   9.865   2.690   7.649 -0.4751 -0.5676  0.7743
   16MOL0     C 2038   9.918   2.757   7.516 -0.1278  0.4085  0.3003
   16MOL0     C 2039  10.073   2.749   7.495  1.0108  0.3717 -0.1336
   16MOL0     C 2040  10.119   2.805   7.363  0.5602 -0.3101  0.7525
   16MOL0     C 2041  10.273   2.781   7.339 -0.4005  0.4268 -0.4836
   16MOL0     N 2042  10.309   2.868   7.227  0.5764  0.2265 -0.1794
   16MOL0     C 2043  10.320   2.833   7.095  0.7105 -0.5544 -0.0290
   16MOL0     C 2044  10.378   2.942   7.034  0.0832  0.0147 -0.3967
   16MOL0     C 2045  10.421   2.950   6.893  0.2973 -0.8905 -0.1042
   16MOL0     C 2046  10.392   3.075   6.827 -0.3908  0.0807  0.6048
   16MOL0     C 2047  10.439   3.075   6.676 -0.3268 -1.0863 -0.9760
   16MOL0     C 2048  10.586   3.044   6.678 -0.7836  0.3949 -0.6608
   16MOL0     O 2049  10.654   3.076   6.554  0.1585  0.1904 -0.4308
   16MOL0     C 2050  10.741   3.181   6.544 -0.3140 -0.3727 -0.2271
   16MOL0     C 2051  10.850   3.160   6.457 -0.3076  0.7137 -0.1074
   16MOL0     C 2052  10.952   3.259   6.434  1.3456 -0.4721 -0.8803
   16MOL0     C 2053  10.941   3.376   6.514 -0.8419 -0.3869 -1.2531
   16MOL0     C 2054  11.058   3.470   6.504  0.5632 -0.0561 -0.7602
   16MOL0     O 2055  11.064   3.574   6.592  0.2847  0.2088 -0.6537
   16MOL0     C 2056  11.150   3.676   6.572  0.4205 -0.8317 -0.3360
   16MOL0     C 2057  11.284   3.674   6.544  0.5093  0.1791  0.3020
   16MOL0     C 2058  11.359   3.796   6.542  0.1028 -0.6884 -0.5781
   16MOL0     C 2059  11.297   3.926   6.572  0.2333  0.0562 -0.3725
   16MOL0     O 2060  11.367   4.045   6.572 -0.2622 -0.2030  0.5329
   16MOL0     C 2061  11.509   4.039   6.575  0.0882  0.3094  0.0749
   16MOL0     C 2062  11.555   4.174   6.637  0.3873 -0.7564 -0.5397
   16MOL0     C 2063  11.708   4.156   6.644  0.4417 -0.2749 -0.6451
   16MOL0     C 2064  11.785   4.150   6.516  0.6920  0.0028  0.1373
   16MOL0     C 2065  11.937   4.168   6.527 -0.1661  0.8409  0.1441
   16MOL0     C 2066  11.970   4.306   6.583  0.3482  0.5718  0.6274
   16MOL0     C 2067  12.107   4.356   6.535  0.3301 -0.3721 -0.4546
   16MOL0     C 2068  12.170   4.455   6.642 -0.5643  1.1801 -0.4533
   16MOL0    Cl 2069  12.353   4.461   6.619 -0.0481  0.1383  0.2483
   16MOL0     C 2070  11.163   3.923   6.618 -0.5046  0.5665  0.4156
   16MOL0     C 2071  11.094   3.802   6.608  0.6230  0.1238 -0.3207
   16MOL0     O 2072  11.137   3.456   6.412  0.1875 -0.1149  0.3565
   16MOL0     C 2073  10.832   3.403   6.596 -0.3275  0.1420 -0.0844
   16MOL0     C 2074  10.732   3.306   6.607  0.2028  0.2721  0.0979
   16MOL0     N 2075  10.378   3.043   7.126 -0.3953  0.1811  0.5868
   16MOL0     N 2076  10.334   3.001   7.237  0.0670  0.6895  0.1797
   16MOL0     C 2077   9.215   2.672   7.770  0.6848 -0.2164 -0.0003
   16MOL0     C 2078   9.078   2.638   7.770  0.0890  0.2363  0.3841
   16MOL0     C 2079   8.676   2.460   7.751  0.8410  0.0329  0.2520
   16MOL0     C 2080   8.644   2.396   7.633  0.0383 -0.4598  0.3332
   16MOL0     C 2081   8.514   2.359   7.591  0.1028 -0.2578 -0.4483
   16MOL0     C 2082   8.404   2.398   7.667  1.0766  0.2306 -0.4977
   16MOL0     O 2083   8.275   2.377   7.622  0.2259 -0.2691 -0.3262
   16MOL0     C 2084   8.172   2.401   7.714 -0.5730  0.6847 -0.0462
   16MOL0     C 2085   8.047   2.331   7.661  0.0846  0.3866  0.1827
   16MOL0     C 2086   7.931   2.370   7.751  0.2005  0.3835 -0.5166
   16MOL0     C 2087   7.790   2.343   7.693 -0.1884  0.6141  1.2810
   16MOL0     C 2088   7.779   2.196   7.679  0.1655 -0.3253 -0.1699
   16MOL0     C 2089   7.765   2.079   7.661  0.4676 -0.2333 -0.0996
   16MOL0     C 2090   8.428   2.457   7.798 -0.3929 -0.0967  0.2021
   16MOL0     C 2091   8.567   2.477   7.837  0.4990  0.4041  0.4273
   16MOL0     C 2092   8.590   2.534   7.976 -0.7282 -0.5551  0.3426
   16MOL0     H 2093   9.095   2.367   7.557 -0.4026 -0.6419  1.2573
   16MOL0     H 2094   9.334   2.406   7.592 -1.9554 -1.1292 -0.9241
   16MOL0     H 2095   9.467   2.787   7.781 -0.1322  0.5423  1.6776
   16MOL0     H 2096   9.474   2.681   7.903  0.6408 -0.5003  0.2807
   16MOL0     H 2097   9.683   2.572   7.816  5.4397  1.7667  3.5152
   16MOL0     H 2098   9.713   2.742   7.865  0.2478  0.3112 -0.6094
   16MOL0     H 2099   9.705   2.831   7.672  1.2238  0.2046  2.8732
   16MOL0     H 2100   9.652   2.679   7.581  0.4092 -1.9886  0.9951
   16MOL0     H 2101   9.919   2.724   7.738 -1.6573  0.1204  1.2615
   16MOL0     H 2102   9.876   2.582   7.635 -3.3430 -1.1642  2.2730
   16MOL0     H 2103   9.877   2.710   7.427  1.3889 -1.1652  0.3739
   16MOL0     H 2104   9.886   2.862   7.513  1.6561  0.9804  0.2014
   16MOL0     H 2105  10.121   2.794   7.582  2.1450  2.2040 -1.6217
   16MOL0     H 2106  10.098   2.643   7.490  1.2825  0.4791 -1.4931
   16MOL0     H 2107  10.094   2.911   7.352  1.1666 -0.3311 -1.1854
   16MOL0     H 2108  10.071   2.741   7.288  1.5645  1.4276 -1.4804
   16MOL0     H 2109  10.329   2.806   7.429 -0.2532  1.3444 -0.8197
   16MOL0     H 2110  10.287   2.674   7.323  1.0419  0.3608  0.9485
   16MOL0     H 2111  10.311   2.736   7.047 -0.7986 -0.4745  0.0630
   16MOL0     H 2112  10.529   2.931   6.887  0.0658 -2.9403  1.1301
   16MOL0     H 2113  10.373   2.869   6.836 -0.0742 -1.1643  0.5819
   16MOL0     H 2114  10.284   3.086   6.813 -0.1321  1.2154 -0.7482
   16MOL0     H 2115  10.422   3.160   6.889 -2.2833  1.9590 -0.8754
   16MOL0     H 2116  10.422   3.172   6.629 -0.1608 -0.0808  0.9279
   16MOL0     H 2117  10.397   2.987   6.628  0.6880 -2.2887  0.2577
   16MOL0     H 2118  10.600   2.937   6.696 -0.8921  0.3253 -0.9902
   16MOL0     H 2119  10.636   3.095   6.762 -0.5322  0.1344 -0.6483
   16MOL0     H 2120  10.852   3.066   6.403 -2.0394  0.6393 -0.0680
   16MOL0     H 2121  11.033   3.236   6.365  2.8261  0.8310  0.3493
   16MOL0     H 2122  11.339   3.581   6.541  3.5938  1.7609  2.2389
   16MOL0     H 2123  11.465   3.782   6.524  0.1010 -1.1921 -0.2247
   16MOL0     H 2124  11.539   3.952   6.633 -0.4072  0.9821  1.3759
   16MOL0     H 2125  11.545   4.031   6.472  0.2751  0.9600  0.0877
   16MOL0     H 2126  11.521   4.258   6.576  2.3320 -1.1529 -2.2964
   16MOL0     H 2127  11.507   4.191   6.733 -1.1529 -0.1238 -1.3839
   16MOL0     H 2128  11.741   4.249   6.691 -1.1132  0.2172 -0.4708
   16MOL0     H 2129  11.740   4.072   6.705  2.8931  0.4289 -0.8363
   16MOL0     H 2130  11.740   4.221   6.446 -1.5557 -1.3775  0.1051
   16MOL0     H 2131  11.778   4.047   6.479 -1.3791  0.0683  0.2468
   16MOL0     H 2132  11.986   4.151   6.431 -1.2928 -0.1003 -0.2928
   16MOL0     H 2133  11.972   4.094   6.600 -3.3308  0.3238  1.3203
   16MOL0     H 2134  11.899   4.378   6.541 -0.6172  0.1940  1.5777
   16MOL0     H 2135  11.948   4.298   6.690 -3.4469  0.5245 -0.0144
   16MOL0     H 2136  12.094   4.409   6.440  1.4790 -0.1220 -0.4873
   16MOL0     H 2137  12.168   4.265   6.529  0.1352 -0.4561 -1.2830
   16MOL0     H 2138  12.115   4.549   6.649 -0.6651  1.2000 -1.4001
   16MOL0     H 2139  12.155   4.400   6.736  1.0485  1.3345 -0.0697
   16MOL0     H 2140  11.112   4.011   6.657 -0.9638 -0.1235  1.4113
   16MOL0     H 2141  10.991   3.808   6.642  0.3662  0.2358 -1.1081
   16MOL0     H 2142  10.822   3.496   6.651 -0.5334 -0.7561  1.4583
   16MOL0     H 2143  10.638   3.322   6.659 -1.6137  1.9347 -3.3798
   16MOL0     H 2144   9.252   2.766   7.810  2.3328 -0.7579 -0.1819
   16MOL0     H 2145   9.018   2.713   7.820 -0.5482  0.1075 -0.1683
   16MOL0     H 2146   8.720   2.373   7.559 -0.4426 -2.7205  0.4662
   16MOL0     H 2147   8.491   2.315   7.495 -2.8586  1.2911 -0.5495
   16MOL0     H 2148   8.158   2.509   7.727  2.8599  1.2493 -0.2297
   16MOL0     H 2149   8.201   2.359   7.811  1.5490 -0.8413 -1.2741
   16MOL0     H 2150   8.062   2.224   7.679 -2.9702 -0.0092  0.9172
   16MOL0     H 2151   8.027   2.348   7.554  1.8154 -0.8919 -0.4021
   16MOL0     H 2152   7.946   2.474   7.782 -1.4977 -0.3888  3.4930
   16MOL0     H 2153   7.934   2.322   7.849 -1.9946  1.2798  0.0514
   16MOL0     H 2154   7.713   2.383   7.759 -1.5473  2.1613 -1.0957
   16MOL0     H 2155   7.785   2.391   7.594  2.7831 -1.8846 -0.2667
   16MOL0     H 2156   7.738   1.979   7.634 -2.4008  0.6693 -0.9178
   16MOL0     H 2157   8.353   2.469   7.876  2.8094  0.0040  3.5595
   16MOL0     H 2158   8.667   2.473   8.025 -0.7953 -0.9015  0.0218
   16MOL0     H 2159   8.626   2.637   7.973 -0.5365 -0.4370  3.6156
   16MOL0     H 2160   8.499   2.521   8.034 -0.0315 -0.9170  1.3834
   17MOL0     O 2161   1.446   2.688  10.327 -0.2295 -0.9715 -0.6793
   17MOL0     C 2162   1.412   2.598  10.403  0.0506  0.2598 -0.3326
   17MOL0     O 2163   1.481   2.499  10.438  0.3431 -1.0013 -0.2751
   17MOL0     C 2164   1.595   2.469  10.374 -0.1285  0.2944 -1.0291
   17MOL0     C 2165   1.692   2.422  10.456  0.2890 -0.5559  0.3637
   17MOL0     C 2166   1.807   2.371  10.402 -0.1768 -0.1559  0.4921
   17MOL0     C 2167   1.817   2.339  10.266 -0.4319  0.7794  0.5749
   17MOL0     O 2168   1.917   2.272  10.204  0.0416  0.2996 -0.1352
   17MOL0     C 2169   2.008   2.207  10.283 -0.2148 -0.1301 -0.0821
   17MOL0     C 2170   2.112   2.124  10.203 -0.9796 -0.0548  0.0815
   17MOL0     C 2171   2.212   2.211  10.130 -0.0023 -0.4429 -0.1052
   17MOL0     C 2172   2.291   2.133  10.026  0.5866  0.4542 -0.5561
   17MOL0     C 2173   2.390   2.225   9.955 -0.1272 -0.1927 -0.0158
   17MOL0     C 2174   2.521   2.223  10.026 -0.6046 -0.0312 -0.5938
   17MOL0     C 2175   2.627   2.318   9.969  0.4058  0.1585 -0.3047
   17MOL0     C 2176   2.669   2.267   9.836 -0.9777 -0.4944  0.6613
   17MOL0     N 2177   2.797   2.323   9.793  0.0057  0.4958 -0.7137
   17MOL0     C 2178   2.820   2.456   9.749  0.5194  1.0946  0.3287
   17MOL0     C 2179   2.956   2.455   9.726  0.1862 -0.0680  0.0727
   17MOL0     C 2180   3.022   2.583   9.673  0.0068 -0.4027  1.1769
   17MOL0     C 2181   3.042   2.694   9.783  0.5786  0.6824  1.2767
   17MOL0     C 2182   3.104   2.641   9.909 -1.0979  0.6976  0.4524
   17MOL0     C 2183   3.268   2.634   9.897 -0.3605 -0.7090  0.8802
   17MOL0     O 2184   3.298   2.562  10.021  0.5487 -0.1854 -0.6941
   17MOL0     C 2185   3.427   2.550  10.064  0.5027 -0.0703  0.1728
   17MOL0     C 2186   3.452   2.434  10.143 -0.4851  0.3334 -0.0378
   17MOL0     C 2187   3.590   2.410  10.189  0.2935  0.6108 -0.4571
   17MOL0     C 2188   3.696   2.495  10.152 -0.1386 -0.1655 -0.1948
   17MOL0     C 2189   3.834   2.466  10.186 -0.0030  0.0820 -0.9443
   17MOL0     O 2190   3.919   2.559  10.160 -0.1656  0.3006 -0.2881
   17MOL0     C 2191   4.052   2.543  10.197 -0.7673 -0.5683 -0.5469
   17MOL0     C 2192   4.082   2.519  10.332 -0.5079  0.1299  0.2191
   17MOL0     C 2193   4.215   2.495  10.375  0.9327 -0.5801  0.0054
   17MOL0     C 2194   4.324   2.510  10.289 -0.0813 -0.7099 -0.6871
   17MOL0     O 2195   4.445   2.493  10.342 -0.4971  0.3761  0.6191
   17MOL0     C 2196   4.532   2.599  10.322  0.4115 -0.0039 -1.0195
   17MOL0     C 2197   4.665   2.544  10.377  0.4163  0.2169  0.3707
   17MOL0     C 2198   4.767   2.651  10.397 -0.5264  0.1442  0.1757
   17MOL0     C 2199   4.881   2.601  10.488  0.2249 -0.1372 -0.0409
   17MOL0     C 2200   4.999   2.693  10.474  0.7228 -0.2580 -0.4616
   17MOL0     C 2201   5.105   2.653  10.568  0.0753  0.3555  0.4264
   17MOL0     C 2202   5.224   2.757  10.570 -0.0285  0.3997  0.9813
   17MOL0     C 2203   5.320   2.706  10.674 -0.0935 -0.3179  0.5019
   17MOL0    Cl 2204   5.474   2.798  10.679 -0.0168  0.7593  0.5702
   17MOL0     C 2205   4.293   2.532  10.156  0.2697 -0.0086 -0.0492
   17MOL0     C 2206   4.162   2.548  10.105  0.7260 -0.0773 -0.0979
   17MOL0     O 2207   3.857   2.358  10.242 -0.6601  0.0223 -0.1439
   17MOL0     C 2208   3.664   2.596  10.064 -0.3278 -0.4768 -1.1594
   17MOL0     C 2209   3.531   2.634  10.022 -0.5473  0.2865 -0.5393
   17MOL0     N 2210   3.008   2.328   9.761  0.2064  0.2034  0.1540
   17MOL0     N 2211   2.913   2.252   9.803  0.3426 -0.0297  0.0196
   17MOL0     C 2212   1.719   2.385  10.177 -0.1016 -0.2964 -0.3608
   17MOL0     C 2213   1.610   2.454  10.233  0.2621 -0.5928 -0.1208
   17MOL0     C 2214   1.291   2.615  10.485 -0.5843  0.4773  0.3172
   17MOL0     C 2215   1.280   2.550  10.611 -0.2120  0.3219 -0.0691
   17MOL0     C 2216   1.160   2.562  10.685 -0.2820  0.7929  0.2925
   17MOL0     C 2217   1.047   2.623  10.641  0.2243  0.7098  0.4336
   17MOL0     O 2218   0.922   2.624  10.696 -0.6061 -0.6505 -0.1752
   17MOL0     C 2219   0.900   2.543  10.822 -0.4933 -0.4958  0.2057
   17MOL0     C 2220   0.760   2.571  10.872  0.0463 -0.3420  0.6085
   17MOL0     C 2221   0.754   2.722  10.903  0.1702 -0.8557  0.5835
   17MOL0     C 2222   0.628   2.759  10.972 -0.4466  0.2872 -1.1459
   17MOL0     C 2223   0.516   2.719  10.901  0.7935 -0.0236  0.1116
   17MOL0     C 2224   0.406   2.692  10.852  0.0595 -0.5544  0.3061
   17MOL0     C 2225   1.057   2.694  10.528  0.2461 -0.6533  0.0748
   17MOL0     C 2226   1.181   2.701  10.447 -0.1793 -0.4119 -1.6159
   17MOL0     C 2227   1.172   2.778  10.321  0.6707  0.1579 -0.0436
   17MOL0     H 2228   1.678   2.437  10.562  0.4720  1.8971  0.0938
   17MOL0     H 2229   1.878   2.340  10.478 -0.2333  1.0447  1.0640
   17MOL0     H 2230   2.075   2.276  10.336  0.0060 -0.7770  0.4956
   17MOL0     H 2231   1.963   2.145  10.361  2.0512 -1.0826  0.5636
   17MOL0     H 2232   2.068   2.054  10.132 -0.9780  1.5405 -1.5651
   17MOL0     H 2233   2.160   2.057  10.275  2.0522  0.7288 -1.0696
   17MOL0     H 2234   2.287   2.253  10.197 -0.0637 -5.4318  3.6208
   17MOL0     H 2235   2.173   2.298  10.076  1.3598  0.0567 -0.3306
   17MOL0     H 2236   2.343   2.049  10.072 -0.0627  0.7396  0.7472
   17MOL0     H 2237   2.226   2.095   9.947  0.2393 -0.9680  0.3838
   17MOL0     H 2238   2.424   2.184   9.859  3.7940  2.4195  0.0377
   17MOL0     H 2239   2.368   2.330   9.930  4.3202  0.8932 -0.1176
   17MOL0     H 2240   2.499   2.259  10.127 -2.2376 -2.7188  0.1102
   17MOL0     H 2241   2.571   2.125  10.032 -0.8868 -0.1492 -0.1656
   17MOL0     H 2242   2.711   2.338  10.037  0.0086  2.7143 -0.4626
   17MOL0     H 2243   2.579   2.415   9.958 -1.6398 -0.2902  3.3102
   17MOL0     H 2244   2.687   2.159   9.843  2.8287 -0.1427 -1.1471
   17MOL0     H 2245   2.596   2.295   9.760 -1.3515 -0.8564  0.8807
   17MOL0     H 2246   2.742   2.531   9.748 -1.8215 -1.1768 -0.5847
   17MOL0     H 2247   3.117   2.556   9.626 -0.6641  0.8377 -1.0713
   17MOL0     H 2248   2.951   2.610   9.594 -2.3635  0.3322  3.4078
   17MOL0     H 2249   3.108   2.774   9.749  1.0524  0.6430  2.1009
   17MOL0     H 2250   2.945   2.739   9.807  0.8226  2.0704 -0.1689
   17MOL0     H 2251   3.062   2.544   9.937 -1.4309  1.3363  2.2636
   17MOL0     H 2252   3.085   2.710   9.992 -1.9366  0.7236  0.2430
   17MOL0     H 2253   3.309   2.735   9.890  1.2099 -1.4044 -0.6108
   17MOL0     H 2254   3.303   2.571   9.815 -1.1360 -0.1997  0.1428
   17MOL0     H 2255   3.380   2.359  10.172  1.6867 -1.8023  0.2043
   17MOL0     H 2256   3.616   2.323  10.248 -1.3593 -0.1614 -0.8203
   17MOL0     H 2257   4.004   2.521  10.408 -0.9130 -1.3227 -0.1235
   17MOL0     H 2258   4.231   2.488  10.482 -1.1817  0.6391  0.4636
   17MOL0     H 2259   4.551   2.636  10.221  0.2637  0.4692 -0.8749
   17MOL0     H 2260   4.506   2.687  10.381  0.6013 -0.3050 -0.4775
   17MOL0     H 2261   4.633   2.498  10.471 -0.0268  2.6167  1.4509
   17MOL0     H 2262   4.705   2.459  10.320 -2.2302 -0.9827  0.1674
   17MOL0     H 2263   4.795   2.705  10.306  1.0409  1.6378  1.4447
   17MOL0     H 2264   4.722   2.731  10.457 -2.2684 -0.9078  0.3322
   17MOL0     H 2265   4.921   2.504  10.456  2.7744  0.7367  0.2596
   17MOL0     H 2266   4.841   2.602  10.590  2.1780 -1.9421  0.8274
   17MOL0     H 2267   4.974   2.791  10.516  2.1213 -0.7413  1.6446
   17MOL0     H 2268   5.029   2.692  10.368 -2.0229 -4.7867 -1.4688
   17MOL0     H 2269   5.063   2.629  10.666 -3.8654 -1.9533 -1.5428
   17MOL0     H 2270   5.139   2.564  10.514 -1.6696 -0.1307  0.0710
   17MOL0     H 2271   5.193   2.859  10.591  1.4097  0.7477  1.5196
   17MOL0     H 2272   5.278   2.754  10.475 -0.9977  1.0439  0.4037
   17MOL0     H 2273   5.266   2.707  10.770 -2.3376  3.6623 -0.5675
   17MOL0     H 2274   5.336   2.603  10.643  0.4638 -0.0680 -0.0487
   17MOL0     H 2275   4.374   2.538  10.085 -1.0456 -0.5469 -1.6835
   17MOL0     H 2276   4.148   2.540   9.998  0.2662 -1.8978  0.0498
   17MOL0     H 2277   3.748   2.659  10.034  0.7915 -0.9940  0.7643
   17MOL0     H 2278   3.523   2.714   9.949 -1.9890  1.1527  0.5150
   17MOL0     H 2279   1.719   2.358  10.072 -0.0764  0.5235 -0.5772
   17MOL0     H 2280   1.534   2.497  10.169 -0.1483  0.2324  0.8848
   17MOL0     H 2281   1.368   2.490  10.635  1.6833  1.4148 -3.4666
   17MOL0     H 2282   1.168   2.502  10.776  1.3527 -0.8995 -0.9039
   17MOL0     H 2283   0.974   2.577  10.896 -0.4526  0.1496 -0.1231
   17MOL0     H 2284   0.914   2.439  10.791 -2.2927 -0.6803 -0.0665
   17MOL0     H 2285   0.746   2.517  10.966 -5.3570 -2.8109 -1.2332
   17MOL0     H 2286   0.695   2.535  10.792 -0.8253 -1.0388  1.6114
   17MOL0     H 2287   0.770   2.784  10.815  0.2456  2.1120  2.5623
   17MOL0     H 2288   0.839   2.746  10.968  1.2156  1.1418 -1.4120
   17MOL0     H 2289   0.633   2.718  11.073  1.0543  0.5088 -1.1109
   17MOL0     H 2290   0.625   2.869  10.978  1.6148  0.3801 -1.1814
   17MOL0     H 2291   0.313   2.661  10.810 -0.5312 -0.8544  1.7729
   17MOL0     H 2292   0.967   2.748  10.502  0.0157 -1.0690  0.0103
   17MOL0     H 2293   1.260   2.841  10.306 -1.5013  3.3292 -0.3480
   17MOL0     H 2294   1.160   2.722  10.228  0.4170  0.3990 -0.1584
   17MOL0     H 2295   1.089   2.850  10.319 -2.0231 -2.7279 -0.8106
   18MOL0     O 2296   6.880   3.522   7.805  0.8597  0.0876  0.1451
   18MOL0     C 2297   6.793   3.469   7.731 -1.1736  0.6222  0.0661
   18MOL0     O 2298   6.827   3.431   7.603 -0.0166  0.3028  0.2584
   18MOL0     C 2299   6.947   3.461   7.544 -0.5461 -0.0899  0.4918
   18MOL0     C 2300   7.062   3.367   7.563  0.6541 -0.1539  0.3472
   18MOL0     C 2301   7.176   3.398   7.491  0.1009  0.6787  0.0396
   18MOL0     C 2302   7.185   3.506   7.406 -0.5793  0.2569  0.0754
   18MOL0     O 2303   7.311   3.523   7.364 -0.1076  0.0586  0.2550
   18MOL0     C 2304   7.326   3.572   7.227 -0.5983 -0.8230  0.4357
   18MOL0     C 2305   7.434   3.476   7.172  0.0935 -0.8849  0.2680
   18MOL0     C 2306   7.558   3.488   7.245 -0.3616  0.7142 -0.0653
   18MOL0     C 2307   7.664   3.394   7.182 -0.1681  0.3159 -0.0865
   18MOL0     C 2308   7.795   3.408   7.252 -0.0297  0.4299 -0.0181
   18MOL0     C 2309   7.899   3.294   7.231 -0.2467 -0.2254 -0.3663
   18MOL0     C 2310   7.967   3.283   7.088 -0.2909 -1.0982  0.3509
   18MOL0     C 2311   8.068   3.178   7.085 -0.2310  0.1753  0.4159
   18MOL0     N 2312   8.014   3.046   7.069 -0.0376  0.7726 -0.9980
   18MOL0     C 2313   8.079   2.925   7.097  0.3201 -0.3858 -0.1238
   18MOL0     C 2314   8.005   2.828   7.038 -0.4302 -0.4613 -0.4818
   18MOL0     C 2315   8.010   2.681   7.041 -0.4279  0.4309 -0.3529
   18MOL0     C 2316   8.104   2.615   6.941 -0.0015  0.5777 -0.4418
   18MOL0     C 2317   8.249   2.657   6.972 -0.5882 -0.4887 -0.2447
   18MOL0     C 2318   8.349   2.551   6.921  0.0566  0.4249  0.4673
   18MOL0     O 2319   8.490   2.595   6.910  0.0168 -0.2171 -0.2525
   18MOL0     C 2320   8.538   2.670   6.804  0.5661 -0.7465  0.4347
   18MOL0     C 2321   8.460   2.725   6.706  0.3469 -0.3850  0.9185
   18MOL0     C 2322   8.509   2.797   6.601 -0.6548  0.0726  0.7369
   18MOL0     C 2323   8.654   2.806   6.594  0.8105 -0.0999 -0.8719
   18MOL0     C 2324   8.718   2.865   6.480 -1.0039  0.1861  0.3841
   18MOL0     O 2325   8.838   2.794   6.432  0.8350 -0.4552  0.2872
   18MOL0     C 2326   8.903   2.839   6.314  0.3702 -0.7600  0.4490
   18MOL0     C 2327   8.946   2.969   6.299  0.8939 -0.0777 -0.7968
   18MOL0     C 2328   8.999   3.015   6.178  0.4999 -0.3702 -0.0102
   18MOL0     C 2329   9.018   2.932   6.067 -0.5645  0.1041 -0.6203
   18MOL0     O 2330   9.080   2.960   5.945 -0.1312  0.1839  0.3159
   18MOL0     C 2331   9.116   3.083   5.897 -1.1959 -0.2026 -0.3993
   18MOL0     C 2332   9.150   3.100   5.744 -0.1147 -0.1244  0.1188
   18MOL0     C 2333   9.281   3.039   5.715 -0.3442 -0.4755  0.4705
   18MOL0     C 2334   9.323   3.055   5.570 -0.2087  0.4128  0.6874
   18MOL0     C 2335   9.446   2.973   5.532 -0.1256 -0.8775 -0.0223
   18MOL0     C 2336   9.503   3.019   5.399  0.2259 -0.1457 -0.3661
   18MOL0     C 2337   9.639   2.958   5.348  0.3326 -0.9063 -0.0934
   18MOL0     C 2338   9.662   2.991   5.193  0.0162 -0.0229  0.4985
   18MOL0    Cl 2339   9.690   3.169   5.181  0.0327  0.4259  0.0690
   18MOL0     C 2340   8.968   2.798   6.084  0.3699  0.4033  0.4175
   18MOL0     C 2341   8.917   2.756   6.206 -0.1714  0.4168 -0.1822
   18MOL0     O 2342   8.665   2.963   6.419  0.2520  0.0055 -0.1718
   18MOL0     C 2343   8.734   2.757   6.702  0.4744 -0.7794 -0.6555
   18MOL0     C 2344   8.674   2.685   6.800 -0.0104 -0.7950  0.6102
   18MOL0     N 2345   7.902   2.884   6.961 -0.2949 -0.0311  1.1243
   18MOL0     N 2346   7.908   3.008   6.981  0.7268 -0.4181 -0.1585
   18MOL0     C 2347   7.074   3.590   7.387  0.4818 -0.2738 -0.5639
   18MOL0     C 2348   6.960   3.573   7.462 -0.0279  0.3155  0.9386
   18MOL0     C 2349   6.657   3.447   7.785 -0.8423  0.6117  0.3795
   18MOL0     C 2350   6.553   3.397   7.693 -0.7724  0.0046 -0.0786
   18MOL0     C 2351   6.419   3.376   7.733 -0.4222 -0.0905 -0.4275
   18MOL0     C 2352   6.373   3.391   7.859 -0.2546  0.0510  0.0806
   18MOL0     O 2353   6.254   3.360   7.916 -0.4688 -0.0411 -1.0473
   18MOL0     C 2354   6.169   3.269   7.840 -0.0808  0.0425 -0.6287
   18MOL0     C 2355   6.212   3.116   7.855  0.0921  0.1952  0.2602
   18MOL0     C 2356   6.155   3.023   7.749  0.0068  0.1108  0.2309
   18MOL0     C 2357   6.174   2.874   7.790  1.1106  0.0081  0.2194
   18MOL0     C 2358   6.085   2.841   7.902 -0.0090 -0.1731 -0.5041
   18MOL0     C 2359   5.996   2.833   7.987  0.3790  0.3518  0.4316
   18MOL0     C 2360   6.478   3.445   7.941 -0.1088  0.3148  0.0060
   18MOL0     C 2361   6.614   3.472   7.915 -0.4090  0.5767  0.1408
   18MOL0     C 2362   6.701   3.517   8.034 -0.5920  0.1485 -0.6370
   18MOL0     H 2363   7.054   3.279   7.625  0.2083  0.2494  0.8766
   18MOL0     H 2364   7.264   3.335   7.498  0.4341  1.0842 -0.5039
   18MOL0     H 2365   7.235   3.558   7.168 -0.1780 -0.8272 -0.2152
   18MOL0     H 2366   7.368   3.673   7.235 -0.7705 -0.7811  0.8751
   18MOL0     H 2367   7.434   3.495   7.065 -2.1035  2.3167  0.6990
   18MOL0     H 2368   7.389   3.378   7.195 -0.8918 -0.0977  1.9041
   18MOL0     H 2369   7.547   3.462   7.350 -0.5876 -0.9585 -0.4728
   18MOL0     H 2370   7.591   3.592   7.255  1.1106  0.0620  2.4839
   18MOL0     H 2371   7.637   3.289   7.196  1.9293 -0.1068  1.3881
   18MOL0     H 2372   7.684   3.416   7.076 -0.0001  3.6439  0.5397
   18MOL0     H 2373   7.832   3.504   7.216  0.5524 -0.8488 -3.0823
   18MOL0     H 2374   7.775   3.417   7.360 -0.5333  2.3999 -0.2414
   18MOL0     H 2375   7.974   3.321   7.306 -0.4692  1.8033 -0.8231
   18MOL0     H 2376   7.853   3.199   7.259  1.1447 -0.0860  2.8507
   18MOL0     H 2377   8.032   3.370   7.070 -2.1195  0.0373 -1.0529
   18MOL0     H 2378   7.897   3.276   7.005  1.0540  0.2344 -0.9535
   18MOL0     H 2379   8.123   3.202   6.994 -0.4112  1.5723  0.6426
   18MOL0     H 2380   8.136   3.182   7.171 -1.7375  1.0813  1.6258
   18MOL0     H 2381   8.171   2.917   7.154 -0.6180  2.2611  1.9695
   18MOL0     H 2382   8.043   2.644   7.138 -0.7343  0.5859 -0.1907
   18MOL0     H 2383   7.908   2.650   7.018  0.0380 -0.7908 -0.8628
   18MOL0     H 2384   8.093   2.507   6.952 -1.2240  0.7875  0.7143
   18MOL0     H 2385   8.074   2.653   6.843  1.0292  0.1386 -0.9376
   18MOL0     H 2386   8.267   2.679   7.078  2.5125  1.7089 -1.0831
   18MOL0     H 2387   8.267   2.750   6.918  2.5662 -0.5747  0.4691
   18MOL0     H 2388   8.311   2.520   6.823  1.0350 -0.5952  0.3913
   18MOL0     H 2389   8.347   2.468   6.992  0.4437  0.9705  1.1226
   18MOL0     H 2390   8.352   2.718   6.699  0.3513 -0.2827  0.7438
   18MOL0     H 2391   8.446   2.811   6.514 -0.1094  0.1235  0.3494
   18MOL0     H 2392   8.934   3.016   6.396 -0.3551 -1.9523  0.0132
   18MOL0     H 2393   9.026   3.120   6.168  1.7013 -0.8340 -2.1808
   18MOL0     H 2394   9.036   3.156   5.914  0.8140  1.9322  0.2945
   18MOL0     H 2395   9.205   3.121   5.948 -1.4756 -0.3876  0.2370
   18MOL0     H 2396   9.075   3.044   5.687 -2.7459  2.0271  1.2332
   18MOL0     H 2397   9.149   3.203   5.705  4.0811 -0.6747 -1.9985
   18MOL0     H 2398   9.359   3.092   5.771  1.4716  0.1660 -2.4516
   18MOL0     H 2399   9.289   2.934   5.744 -0.9143 -0.9295 -0.9148
   18MOL0     H 2400   9.350   3.159   5.550  1.9103  0.5663  3.7400
   18MOL0     H 2401   9.242   3.027   5.502  0.7691  1.0845 -0.8218
   18MOL0     H 2402   9.433   2.865   5.543  0.5244 -1.4566 -3.6744
   18MOL0     H 2403   9.524   2.994   5.606  1.5094 -3.2675 -0.9563
   18MOL0     H 2404   9.428   3.000   5.321  0.7111  4.3031 -2.2269
   18MOL0     H 2405   9.505   3.128   5.397  0.1754 -0.1004  1.1719
   18MOL0     H 2406   9.650   2.851   5.367  2.2759 -2.1853 -6.0081
   18MOL0     H 2407   9.719   3.014   5.396  1.3528 -1.0924 -1.5249
   18MOL0     H 2408   9.755   2.951   5.151 -0.7583 -1.8981  0.4642
   18MOL0     H 2409   9.574   2.974   5.131  2.6458 -2.2372 -3.0069
   18MOL0     H 2410   8.977   2.728   6.002  2.5916 -1.5335  2.1534
   18MOL0     H 2411   8.873   2.657   6.208 -0.3072  0.4475 -1.0696
   18MOL0     H 2412   8.842   2.759   6.690  0.5150 -1.8523 -0.5630
   18MOL0     H 2413   8.738   2.640   6.875 -0.4198 -1.8165  0.3638
   18MOL0     H 2414   7.077   3.681   7.328 -2.0768  2.0581  2.5529
   18MOL0     H 2415   6.880   3.647   7.456 -0.1827  0.0822 -0.1813
   18MOL0     H 2416   6.580   3.381   7.590 -0.6436 -3.6741  0.4176
   18MOL0     H 2417   6.360   3.332   7.654 -0.2538 -0.1990 -0.4918
   18MOL0     H 2418   6.179   3.276   7.731  4.9970 -2.2881 -0.6036
   18MOL0     H 2419   6.068   3.292   7.873  0.6895  4.2196 -0.6174
   18MOL0     H 2420   6.174   3.094   7.956  0.1043 -1.2018 -0.0142
   18MOL0     H 2421   6.321   3.107   7.860 -0.0953 -2.1266  1.3100
   18MOL0     H 2422   6.202   3.049   7.654  0.2223 -0.2348  0.2397
   18MOL0     H 2423   6.050   3.053   7.739 -0.1443 -0.0919  1.1174
   18MOL0     H 2424   6.149   2.786   7.732  1.1820 -1.3414  2.1310
   18MOL0     H 2425   6.277   2.860   7.823  0.6787  0.3576  1.8182
   18MOL0     H 2426   5.923   2.833   8.065  1.0694  0.7131  1.0861
   18MOL0     H 2427   6.445   3.458   8.044  1.9915  0.3175  0.7292
   18MOL0     H 2428   6.721   3.625   8.025 -0.2678  0.0034 -1.7765
   18MOL0     H 2429   6.656   3.495   8.131 -1.3427  2.4813 -0.3828
   18MOL0     H 2430   6.796   3.464   8.028  1.8008  3.9466  0.3957
   19MOL0     O 2431   3.209   6.252   5.901  0.4325  0.2192 -0.3292
   19MOL0     C 2432   3.147   6.330   5.977  0.3638  0.1816 -0.1506
   19MOL0     O 2433   3.202   6.413   6.074  0.1484  0.3132 -0.0307
   19MOL0     C 2434   3.325   6.382   6.131  0.4249  0.4739  0.2420
   19MOL0     C 2435   3.440   6.365   6.065 -0.5528  0.1080 -0.2365
   19MOL0     C 2436   3.564   6.335   6.120 -0.2917 -0.0364 -0.1892
   19MOL0     C 2437   3.567   6.320   6.262  0.3028 -0.2568  0.1955
   19MOL0     O 2438   3.670   6.269   6.337  0.3953 -0.4952 -0.0495
   19MOL0     C 2439   3.806   6.293   6.289 -0.6577 -0.1615  0.7055
   19MOL0     C 2440   3.904   6.298   6.403  0.1471 -0.5549 -0.0802
   19MOL0     C 2441   4.054   6.298   6.359 -0.4380  0.5661  0.0131
   19MOL0     C 2442   4.154   6.344   6.466 -0.4819 -0.9189 -0.0048
   19MOL0     C 2443   4.300   6.340   6.433 -0.2845 -0.4987 -0.5838
   19MOL0     C 2444   4.376   6.395   6.556  0.4449 -0.0993 -0.6653
   19MOL0     C 2445   4.524   6.436   6.521  0.5881  0.1474 -0.5580
   19MOL0     C 2446   4.614   6.334   6.470  0.0917  1.0166  0.2157
   19MOL0     N 2447   4.755   6.347   6.513 -0.8533 -0.1149 -0.1789
   19MOL0     C 2448   4.851   6.253   6.498 -0.1624  0.7255 -0.9725
   19MOL0     C 2449   4.962   6.319   6.536  0.1531 -0.5090  0.9110
   19MOL0     C 2450   5.105   6.277   6.522 -0.2174  0.4120  1.0221
   19MOL0     C 2451   5.196   6.324   6.623  0.8815  0.4482 -0.2370
   19MOL0     C 2452   5.335   6.306   6.596  0.0520 -0.3573 -0.1529
   19MOL0     C 2453   5.429   6.382   6.680  0.7287 -0.3016 -0.2548
   19MOL0     O 2454   5.562   6.345   6.639 -0.3534 -0.0431  0.3670
   19MOL0     C 2455   5.669   6.370   6.723 -0.0235 -1.2117 -0.6910
   19MOL0     C 2456   5.663   6.446   6.844  0.3456  0.0990  0.8553
   19MOL0     C 2457   5.788   6.475   6.895 -0.1235 -0.0889  0.8168
   19MOL0     C 2458   5.911   6.425   6.848  0.2489 -0.8951 -0.5589
   19MOL0     C 2459   6.045   6.459   6.908 -0.7411 -0.3416  0.5235
   19MOL0     O 2460   6.156   6.387   6.863 -0.0886  0.6365 -0.4149
   19MOL0     C 2461   6.273   6.390   6.938 -0.0219 -0.1616  0.8793
   19MOL0     C 2462   6.282   6.360   7.073  0.2250 -0.3432 -1.1250
   19MOL0     C 2463   6.403   6.352   7.138 -1.4685 -1.0518  0.6281
   19MOL0     C 2464   6.528   6.367   7.047 -0.1190  0.3703 -0.3990
   19MOL0     O 2465   6.657   6.358   7.098  0.6081  0.6260  0.2599
   19MOL0     C 2466   6.667   6.397   7.239  0.3622 -0.2873 -0.3503
   19MOL0     C 2467   6.808   6.392   7.307 -0.0212 -1.0991  0.2731
   19MOL0     C 2468   6.838   6.255   7.345  0.2323 -0.0858  0.3939
   19MOL0     C 2469   6.975   6.240   7.413 -0.3079 -0.1160 -0.2711
   19MOL0     C 2470   7.012   6.092   7.446  0.5999  0.0273  0.2770
   19MOL0     C 2471   6.920   6.043   7.556  1.1042 -0.5465  0.4471
   19MOL0     C 2472   6.944   5.906   7.612  0.0007  0.8915  0.0474
   19MOL0     C 2473   6.855   5.881   7.729 -0.1640  0.1704 -0.1350
   19MOL0    Cl 2474   6.846   6.004   7.853 -0.1388  0.0166 -0.0929
   19MOL0     C 2475   6.512   6.399   6.915  0.2714 -0.1339 -0.8662
   19MOL0     C 2476   6.391   6.411   6.864 -0.2733 -0.4559  0.9292
   19MOL0     O 2477   6.039   6.538   7.005  0.1782  0.8902  0.9473
   19MOL0     C 2478   5.911   6.339   6.739  0.0169  0.4155  0.4533
   19MOL0     C 2479   5.788   6.308   6.678 -0.0506 -0.5105 -0.4382
   19MOL0     N 2480   4.931   6.451   6.558 -0.1044  0.8635 -0.0682
   19MOL0     N 2481   4.807   6.461   6.552  0.2520  0.1996  0.2011
   19MOL0     C 2482   3.451   6.353   6.336 -0.4315 -0.7756  0.2313
   19MOL0     C 2483   3.336   6.386   6.264 -0.7262 -0.0820 -0.1770
   19MOL0     C 2484   2.999   6.326   5.974 -0.4597 -0.8300  0.2827
   19MOL0     C 2485   2.927   6.347   6.096 -0.0563 -0.5308  0.1830
   19MOL0     C 2486   2.791   6.342   6.101  0.9545 -0.0306 -0.1911
   19MOL0     C 2487   2.714   6.299   5.993 -0.4073 -0.4006 -0.0829
   19MOL0     O 2488   2.580   6.277   5.998  0.3210 -0.2123 -0.5308
   19MOL0     C 2489   2.507   6.340   6.108  0.3269  0.2853 -0.1402
   19MOL0     C 2490   2.356   6.354   6.078  0.5961  0.2016  0.9236
   19MOL0     C 2491   2.321   6.372   5.929  0.2009 -0.0788 -0.6475
   19MOL0     C 2492   2.177   6.429   5.906  0.2403  0.1388 -0.3268
   19MOL0     C 2493   2.078   6.343   5.967  0.1075  0.2631  0.2377
   19MOL0     C 2494   1.988   6.291   6.032  0.0745 -0.2267 -0.3923
   19MOL0     C 2495   2.779   6.270   5.869 -0.9215  0.2409 -0.5743
   19MOL0     C 2496   2.920   6.289   5.857 -0.4860 -0.2247 -0.0999
   19MOL0     C 2497   2.983   6.271   5.718  0.4952  0.1708 -0.8424
   19MOL0     H 2498   3.435   6.387   5.959 -1.2610  3.1787  0.3319
   19MOL0     H 2499   3.655   6.314   6.065 -0.9148  1.9044 -2.0842
   19MOL0     H 2500   3.833   6.208   6.226 -0.0955 -0.3955  1.2487
   19MOL0     H 2501   3.807   6.387   6.234  0.6374 -1.3967 -1.4966
   19MOL0     H 2502   3.882   6.216   6.472 -4.5492  2.2572  2.3189
   19MOL0     H 2503   3.871   6.387   6.457 -1.3020  0.5253 -2.5635
   19MOL0     H 2504   4.069   6.355   6.266  0.0440 -1.1408 -0.9933
   19MOL0     H 2505   4.085   6.196   6.336  0.7283  1.5026 -3.0746
   19MOL0     H 2506   4.129   6.449   6.487  0.9582 -0.4566 -0.4526
   19MOL0     H 2507   4.139   6.280   6.553  2.2830 -1.8268 -0.0975
   19MOL0     H 2508   4.320   6.234   6.419 -1.8990 -0.6687 -2.0217
   19MOL0     H 2509   4.317   6.401   6.343 -0.3444  1.2933  0.5717
   19MOL0     H 2510   4.322   6.485   6.589  2.2398  0.5755  0.6094
   19MOL0     H 2511   4.372   6.319   6.635 -0.8062 -0.1832 -0.7915
   19MOL0     H 2512   4.565   6.466   6.618  2.8318 -1.0058 -1.0920
   19MOL0     H 2513   4.534   6.515   6.446  2.1918 -0.7864 -1.3662
   19MOL0     H 2514   4.578   6.236   6.505 -1.5082 -0.0680 -3.9121
   19MOL0     H 2515   4.608   6.324   6.362  0.1386  0.2521  0.2743
   19MOL0     H 2516   4.835   6.148   6.473 -2.4704  0.8436 -0.2167
   19MOL0     H 2517   5.100   6.168   6.534 -0.6040  0.2195 -0.6466
   19MOL0     H 2518   5.146   6.295   6.423  1.0076 -2.2524  0.9503
   19MOL0     H 2519   5.180   6.432   6.634 -0.6636  0.3158 -0.8594
   19MOL0     H 2520   5.160   6.289   6.720 -0.5948  3.4724  0.4391
   19MOL0     H 2521   5.354   6.342   6.494  0.2023 -0.0253 -0.0090
   19MOL0     H 2522   5.359   6.200   6.606  5.9569  0.4015 -2.2499
   19MOL0     H 2523   5.398   6.341   6.776 -1.0051 -1.5858 -1.3117
   19MOL0     H 2524   5.411   6.490   6.674 -0.2348 -0.4076  0.5844
   19MOL0     H 2525   5.581   6.507   6.883  1.9077  1.8690  1.5300
   19MOL0     H 2526   5.809   6.543   6.977  2.6892  1.1440 -0.7840
   19MOL0     H 2527   6.193   6.342   7.133  1.1175  0.8322  0.6434
   19MOL0     H 2528   6.402   6.331   7.245 -1.7742  0.1645  0.8821
   19MOL0     H 2529   6.623   6.498   7.242 -1.4634 -0.9990 -1.4282
   19MOL0     H 2530   6.606   6.332   7.301 -0.3053  2.4383  2.0741
   19MOL0     H 2531   6.890   6.442   7.255  0.6743 -2.0867  0.4054
   19MOL0     H 2532   6.792   6.448   7.400 -1.6602 -3.0365  1.2445
   19MOL0     H 2533   6.761   6.205   7.404 -1.0739 -1.0854 -2.0090
   19MOL0     H 2534   6.851   6.193   7.256  2.6198 -1.0278  1.3155
   19MOL0     H 2535   6.978   6.311   7.496  1.5097  1.4576 -1.5771
   19MOL0     H 2536   7.051   6.292   7.354 -1.9846  1.6125 -1.0595
   19MOL0     H 2537   7.116   6.098   7.478  0.8773 -3.3525  0.3196
   19MOL0     H 2538   7.002   6.029   7.357 -0.6596 -2.8988  2.3151
   19MOL0     H 2539   6.920   6.114   7.640  1.5119  0.1230 -0.1142
   19MOL0     H 2540   6.822   6.044   7.506  1.9679  4.0206 -1.6275
   19MOL0     H 2541   7.050   5.904   7.638 -0.2232  2.1890  1.1788
   19MOL0     H 2542   6.920   5.836   7.532 -0.0661  2.3300 -1.2428
   19MOL0     H 2543   6.753   5.849   7.705 -0.1832  1.0664 -1.3294
   19MOL0     H 2544   6.902   5.796   7.779 -1.3246  0.0854  0.8756
   19MOL0     H 2545   6.602   6.420   6.858  1.3216 -1.7138  0.1268
   19MOL0     H 2546   6.368   6.430   6.759 -0.7646 -0.0768  1.0986
   19MOL0     H 2547   5.995   6.285   6.696  0.8198 -2.1056  4.6027
   19MOL0     H 2548   5.782   6.261   6.580 -0.7914 -1.7437  0.1716
   19MOL0     H 2549   3.442   6.331   6.442 -1.9779 -3.5782 -0.3777
   19MOL0     H 2550   3.244   6.403   6.320  1.4838  0.2512  3.6932
   19MOL0     H 2551   2.970   6.366   6.193 -1.1934  1.3434  0.3554
   19MOL0     H 2552   2.749   6.379   6.194  2.0697 -0.3360  0.4605
   19MOL0     H 2553   2.533   6.446   6.107 -2.3179  1.0197 -0.0765
   19MOL0     H 2554   2.529   6.298   6.207  0.5246  4.4605  1.7924
   19MOL0     H 2555   2.299   6.432   6.129 -0.0677  0.3289  0.0076
   19MOL0     H 2556   2.312   6.262   6.119 -0.3151  0.2428  0.0834
   19MOL0     H 2557   2.335   6.287   5.863 -1.7767  2.0295 -4.1024
   19MOL0     H 2558   2.394   6.442   5.887  1.8900 -2.4526 -1.8241
   19MOL0     H 2559   2.158   6.529   5.947 -2.0421 -1.5972  3.3111
   19MOL0     H 2560   2.168   6.428   5.797  1.3602 -1.8590 -0.4441
   19MOL0     H 2561   1.906   6.259   6.093 -1.3101  1.9676 -0.9856
   19MOL0     H 2562   2.724   6.240   5.781 -3.1408  2.2160  0.0482
   19MOL0     H 2563   3.067   6.336   5.693  0.5728  0.5011  0.2297
   19MOL0     H 2564   3.025   6.171   5.706  2.3091  0.4231  2.3586
   19MOL0     H 2565   2.907   6.275   5.639  2.5167  0.0946 -2.8695
   20MOL0     O 2566   5.986   4.039   4.983 -0.4054 -0.3839 -0.0160
   20MOL0     C 2567   5.997   3.961   4.891 -0.6195  0.0380  0.2606
   20MOL0     O 2568   6.110   3.912   4.843 -0.4975 -0.8354  0.0570
   20MOL0     C 2569   6.221   3.981   4.866 -0.3596 -0.0278 -1.1548
   20MOL0     C 2570   6.241   4.126   4.867 -0.7744  0.6025  0.9180
   20MOL0     C 2571   6.359   4.196   4.863 -0.9504  0.8237  0.2911
   20MOL0     C 2572   6.478   4.114   4.871 -0.4990 -0.1615 -0.3922
   20MOL0     O 2573   6.599   4.180   4.879 -0.0572  0.4133  0.3481
   20MOL0     C 2574   6.718   4.122   4.926 -0.0146  0.3930 -0.4992
   20MOL0     C 2575   6.757   4.184   5.068  0.6189 -0.0532 -0.5854
   20MOL0     C 2576   6.658   4.149   5.184  0.5718 -0.3512  0.5937
   20MOL0     C 2577   6.703   4.210   5.313  0.0961  0.0639  0.3481
   20MOL0     C 2578   6.841   4.160   5.353 -0.1621 -0.2357  0.1161
   20MOL0     C 2579   6.851   4.009   5.364  1.0097  0.1520 -0.3659
   20MOL0     C 2580   6.750   3.938   5.458  0.5134 -0.3167 -0.9089
   20MOL0     C 2581   6.730   3.998   5.594 -0.0591 -0.7058 -0.1109
   20MOL0     N 2582   6.862   4.014   5.665  0.4177  0.5239  0.0865
   20MOL0     C 2583   6.950   3.909   5.702  0.5327 -0.3862 -0.0160
   20MOL0     C 2584   7.053   3.975   5.768 -0.0219  0.0747  0.6598
   20MOL0     C 2585   7.162   3.914   5.848 -0.2165 -0.2519  0.3788
   20MOL0     C 2586   7.107   3.907   5.995 -0.0554 -0.3680  0.6190
   20MOL0     C 2587   7.161   3.768   6.059  1.3281 -0.4251  0.4333
   20MOL0     C 2588   7.306   3.778   6.089 -0.1509  0.4909 -0.2360
   20MOL0     O 2589   7.323   3.848   6.211 -0.0212  0.3908  0.0319
   20MOL0     C 2590   7.453   3.884   6.249 -0.7723 -0.4294 -0.0947
   20MOL0     C 2591   7.567   3.819   6.199 -1.1234  0.4102  0.2555
   20MOL0     C 2592   7.690   3.840   6.259  0.3090 -0.4630 -0.0012
   20MOL0     C 2593   7.717   3.953   6.338  0.1733  0.0164  0.0642
   20MOL0     C 2594   7.858   3.983   6.375 -0.5424 -0.2850  0.4375
   20MOL0     O 2595   7.867   4.021   6.508 -0.0005  0.0439 -0.4470
   20MOL0     C 2596   7.997   4.022   6.567 -0.0505  0.2784  0.7004
   20MOL0     C 2597   8.019   4.134   6.653 -0.2512  0.8185  0.8942
   20MOL0     C 2598   8.149   4.160   6.708  0.6121  0.1002  0.6917
   20MOL0     C 2599   8.254   4.070   6.687 -0.3300 -0.1828 -0.4267
   20MOL0     O 2600   8.384   4.090   6.741 -0.7976  0.0819 -0.5771
   20MOL0     C 2601   8.510   4.100   6.661 -0.5975 -0.1788 -0.3998
   20MOL0     C 2602   8.631   4.061   6.750 -0.3687  0.2010 -0.0508
   20MOL0     C 2603   8.638   3.911   6.770  0.1881  0.9720 -0.2611
   20MOL0     C 2604   8.780   3.870   6.797 -0.0413 -0.7455  0.2578
   20MOL0     C 2605   8.781   3.747   6.888 -0.0874  0.7109 -0.3281
   20MOL0     C 2606   8.918   3.689   6.907  0.2266  0.4873 -0.3788
   20MOL0     C 2607   8.932   3.566   6.989  0.1429 -0.3743 -0.6208
   20MOL0     C 2608   9.076   3.508   6.989  0.0614 -0.4037 -0.4002
   20MOL0    Cl 2609   9.063   3.340   7.066  0.1962  0.2816  0.0977
   20MOL0     C 2610   8.224   3.947   6.616  0.2238  0.4662  0.6044
   20MOL0     C 2611   8.102   3.922   6.551  0.2852  0.1009 -0.1455
   20MOL0     O 2612   7.955   3.975   6.291  0.4084 -0.6129 -0.1199
   20MOL0     C 2613   7.609   4.040   6.370  0.0748 -0.2095 -1.0232
   20MOL0     C 2614   7.481   3.998   6.326  0.8051  0.2446 -0.1976
   20MOL0     N 2615   7.038   4.110   5.765  0.2162  0.3793  0.0371
   20MOL0     N 2616   6.928   4.131   5.692  0.8471 -0.6644  0.2768
   20MOL0     C 2617   6.468   3.970   4.876  0.0325  0.1895  0.0824
   20MOL0     C 2618   6.340   3.909   4.857  0.3544  0.1266  0.4351
   20MOL0     C 2619   5.870   3.898   4.853  0.2112 -0.1065 -0.3582
   20MOL0     C 2620   5.786   3.840   4.951 -0.4830 -0.1480 -0.0856
   20MOL0     C 2621   5.671   3.777   4.925  0.3362  0.2492  0.6171
   20MOL0     C 2622   5.624   3.775   4.793 -0.4069  0.6411 -0.4740
   20MOL0     O 2623   5.502   3.717   4.765 -1.1560  0.3969 -0.3195
   20MOL0     C 2624   5.474   3.658   4.638  0.3823  0.1978 -0.5987
   20MOL0     C 2625   5.350   3.566   4.637  0.2192 -0.0192 -0.1681
   20MOL0     C 2626   5.218   3.654   4.657  0.2610 -0.3535  0.0164
   20MOL0     C 2627   5.093   3.564   4.650 -0.1617 -0.0112 -0.4596
   20MOL0     C 2628   4.989   3.652   4.592 -0.7298 -0.3783 -0.5676
   20MOL0     C 2629   4.897   3.719   4.544 -0.1010 -0.2087 -0.8175
   20MOL0     C 2630   5.711   3.817   4.694  1.2192 -0.3050  0.3427
   20MOL0     C 2631   5.835   3.882   4.719  0.4611  0.7620  0.3253
   20MOL0     C 2632   5.921   3.939   4.609 -0.9960 -0.2524 -0.2599
   20MOL0     H 2633   6.155   4.192   4.872 -0.8784  0.4753  0.8349
   20MOL0     H 2634   6.359   4.304   4.864 -1.3737  0.8225  0.7139
   20MOL0     H 2635   6.705   4.014   4.932  0.9523  0.2499 -0.8180
   20MOL0     H 2636   6.804   4.150   4.864 -2.0502  3.3583 -2.2726
   20MOL0     H 2637   6.770   4.291   5.051  1.7397  0.0360  0.6696
   20MOL0     H 2638   6.858   4.149   5.093  1.6802  1.6946 -2.2056
   20MOL0     H 2639   6.651   4.040   5.185  0.5646 -0.3487  0.8977
   20MOL0     H 2640   6.555   4.181   5.169  0.8255 -0.5781 -2.0657
   20MOL0     H 2641   6.701   4.318   5.297 -1.3392  0.1229  0.7875
   20MOL0     H 2642   6.635   4.191   5.396 -1.5878  0.8675 -0.7781
   20MOL0     H 2643   6.917   4.197   5.284 -0.5369 -0.0934 -0.2254
   20MOL0     H 2644   6.864   4.208   5.449 -1.0819  0.6666 -0.0941
   20MOL0     H 2645   6.841   3.967   5.264 -0.4381 -1.6591  0.4855
   20MOL0     H 2646   6.948   3.976   5.402  0.4157 -1.3071 -0.0737
   20MOL0     H 2647   6.766   3.830   5.460 -0.7861 -0.5639  2.5094
   20MOL0     H 2648   6.653   3.951   5.410 -0.7157 -1.3007  1.1960
   20MOL0     H 2649   6.681   4.092   5.566  0.1697  0.2916  2.5312
   20MOL0     H 2650   6.667   3.942   5.663  1.0755  0.1972  1.7571
   20MOL0     H 2651   6.929   3.803   5.705 -0.2895 -0.3952 -2.9202
   20MOL0     H 2652   7.186   3.814   5.811  2.5457  0.8914 -1.2792
   20MOL0     H 2653   7.253   3.973   5.833 -0.9858  1.3463  1.7300
   20MOL0     H 2654   7.142   3.998   6.046 -1.1174  1.3082 -1.4911
   20MOL0     H 2655   6.998   3.915   5.992  0.1046  3.1636 -0.7965
   20MOL0     H 2656   7.145   3.678   6.000 -0.8539  0.0553  0.2104
   20MOL0     H 2657   7.101   3.750   6.149 -0.5607 -0.2090 -0.7373
   20MOL0     H 2658   7.359   3.839   6.017 -1.6121  0.9586 -0.9637
   20MOL0     H 2659   7.349   3.678   6.103 -0.0030  0.5057 -0.5720
   20MOL0     H 2660   7.558   3.728   6.141  1.5518 -0.7038  1.4019
   20MOL0     H 2661   7.773   3.779   6.224  0.6163 -0.1044  0.0817
   20MOL0     H 2662   7.935   4.201   6.667 -0.7481  0.5505 -0.5847
   20MOL0     H 2663   8.163   4.243   6.775  1.4907 -0.0241  0.6668
   20MOL0     H 2664   8.497   4.036   6.573 -2.5772  1.1201 -1.1279
   20MOL0     H 2665   8.525   4.200   6.620 -3.3973  0.7395  0.5457
   20MOL0     H 2666   8.719   4.089   6.692  1.1987 -3.6077  0.1358
   20MOL0     H 2667   8.629   4.122   6.841  3.1560 -0.9105  0.9514
   20MOL0     H 2668   8.579   3.882   6.857  1.5858 -1.4666 -0.0223
   20MOL0     H 2669   8.602   3.854   6.683  3.3912 -1.5648 -0.1239
   20MOL0     H 2670   8.818   3.957   6.852  2.0420 -0.5317 -1.4167
   20MOL0     H 2671   8.836   3.846   6.706  1.1552 -4.1119  1.7125
   20MOL0     H 2672   8.718   3.672   6.841  1.8828 -0.1765 -1.7119
   20MOL0     H 2673   8.732   3.776   6.981 -0.9484  3.3372 -1.5017
   20MOL0     H 2674   8.966   3.669   6.811  0.6082  2.4984 -0.6537
   20MOL0     H 2675   8.972   3.770   6.957  0.4959  0.8396 -1.2268
   20MOL0     H 2676   8.852   3.496   6.964  0.1199  0.1164 -1.9905
   20MOL0     H 2677   8.912   3.594   7.093  2.0405 -2.5921  0.4520
   20MOL0     H 2678   9.099   3.489   6.884 -2.3032 -2.7920 -0.6205
   20MOL0     H 2679   9.139   3.588   7.029 -3.3805  2.8831 -0.9428
   20MOL0     H 2680   8.309   3.885   6.589  1.9383  2.5806  0.7728
   20MOL0     H 2681   8.082   3.829   6.498 -0.5199 -0.2267  0.6844
   20MOL0     H 2682   7.627   4.135   6.420 -1.6319 -0.9898  1.1880
   20MOL0     H 2683   7.396   4.065   6.332 -0.7880 -1.5828 -1.3670
   20MOL0     H 2684   6.545   3.895   4.886  2.3715  2.3544 -0.5262
   20MOL0     H 2685   6.334   3.801   4.863  0.5368  0.0027 -1.2397
   20MOL0     H 2686   5.829   3.840   5.051  0.3363 -0.4777 -0.4257
   20MOL0     H 2687   5.613   3.741   5.009 -2.8915 -0.0751 -1.5594
   20MOL0     H 2688   5.554   3.589   4.609 -1.5576 -2.8090  0.6192
   20MOL0     H 2689   5.457   3.737   4.564 -1.4452  0.6272  0.2165
   20MOL0     H 2690   5.358   3.487   4.711 -0.3251  1.1625  1.1925
   20MOL0     H 2691   5.350   3.504   4.547  1.0058 -0.7884  0.3601
   20MOL0     H 2692   5.226   3.734   4.584 -1.3311 -1.9221 -1.9961
   20MOL0     H 2693   5.235   3.702   4.754  2.1607  2.6326 -1.6381
   20MOL0     H 2694   5.104   3.480   4.581 -0.2127 -0.2667 -0.1556
   20MOL0     H 2695   5.057   3.530   4.747  0.8002 -1.9905 -0.7482
   20MOL0     H 2696   4.807   3.766   4.510 -0.1309  1.3548  1.2684
   20MOL0     H 2697   5.680   3.815   4.590  0.0026 -0.0395  0.6826
   20MOL0     H 2698   6.005   3.869   4.596 -1.6204 -0.8097 -1.4933
   20MOL0     H 2699   5.867   3.939   4.514  0.4092  0.3196 -1.0832
   20MOL0     H 2700   5.945   4.044   4.625  2.1510 -0.8005 -0.7949
   21MOL0     O 2701   3.735   2.038   0.701 -0.0287  0.1466 -0.5840
   21MOL0     C 2702   3.668   1.943   0.728 -0.3420 -0.0092  0.1615
   21MOL0     O 2703   3.700   1.854   0.824 -0.2871 -0.0490 -0.0195
   21MOL0     C 2704   3.820   1.849   0.888 -0.5128 -0.0802 -0.3096
   21MOL0     C 2705   3.813   1.821   1.025  0.0361  0.0060  0.4548
   21MOL0     C 2706   3.926   1.806   1.105  0.2694 -0.6608  0.0486
   21MOL0     C 2707   4.052   1.821   1.047 -0.1181  0.6679 -0.2967
   21MOL0     O 2708   4.167   1.821   1.116 -0.0973  0.2835  0.2249
   21MOL0     C 2709   4.260   1.722   1.092  0.2175  0.4471 -0.5452
   21MOL0     C 2710   4.396   1.767   1.049 -0.7587 -0.3878  0.9426
   21MOL0     C 2711   4.471   1.808   1.175  0.3203 -0.2414  0.5507
   21MOL0     C 2712   4.615   1.807   1.146  0.3467  0.1745 -0.1992
   21MOL0     C 2713   4.699   1.820   1.280 -0.6392 -0.0584  1.1222
   21MOL0     C 2714   4.852   1.846   1.235 -0.0751 -0.2687 -0.1736
   21MOL0     C 2715   4.952   1.816   1.345 -0.1585  0.4298 -0.1601
   21MOL0     C 2716   5.089   1.880   1.308  0.1856  0.1797 -0.6922
   21MOL0     N 2717   5.156   1.833   1.184  0.6978 -0.9924  0.3546
   21MOL0     C 2718   5.143   1.705   1.120  0.6696  0.0270  0.0477
   21MOL0     C 2719   5.170   1.730   0.989 -0.9187  0.3506  1.0532
   21MOL0     C 2720   5.122   1.651   0.868  0.6260 -0.2969  0.4246
   21MOL0     C 2721   5.166   1.503   0.873  0.0992  0.0826  1.2512
   21MOL0     C 2722   5.148   1.443   0.734 -0.2718 -0.7316  0.0706
   21MOL0     C 2723   4.998   1.424   0.680 -0.6397  0.3511  0.6073
   21MOL0     O 2724   4.933   1.543   0.647  0.0435 -0.3047  0.9090
   21MOL0     C 2725   4.799   1.542   0.634 -0.9961 -0.3295 -1.1122
   21MOL0     C 2726   4.743   1.667   0.660  0.1933  0.8107 -1.1444
   21MOL0     C 2727   4.605   1.682   0.661 -0.4290 -1.3382  0.8077
   21MOL0     C 2728   4.520   1.574   0.639 -0.1844  0.7306  0.7020
   21MOL0     C 2729   4.381   1.595   0.637  0.2829  0.9439 -0.0739
   21MOL0     O 2730   4.310   1.487   0.582  0.4752 -0.0034 -0.0558
   21MOL0     C 2731   4.177   1.508   0.556  0.2683  0.6281 -0.0839
   21MOL0     C 2732   4.082   1.530   0.657  1.1345 -0.2817  1.0337
   21MOL0     C 2733   3.942   1.528   0.619 -0.8428  0.6143 -0.4966
   21MOL0     C 2734   3.902   1.503   0.484 -0.8517  0.0339 -0.5566
   21MOL0     O 2735   3.763   1.523   0.459  0.0346  0.0968  0.0240
   21MOL0     C 2736   3.712   1.507   0.320 -0.2558  0.2666 -1.1917
   21MOL0     C 2737   3.565   1.545   0.332 -0.0678 -0.8089  1.0030
   21MOL0     C 2738   3.491   1.497   0.205  0.5576  0.4761 -0.0080
   21MOL0     C 2739   3.342   1.520   0.219  0.4177 -0.0778  0.2161
   21MOL0     C 2740   3.280   1.431   0.328  0.5716  0.4909 -0.4310
   21MOL0     C 2741   3.281   1.286   0.300 -0.5890  0.5827 -0.4325
   21MOL0     C 2742   3.207   1.199   0.401 -0.1821 -0.3345 -0.0240
   21MOL0     C 2743   3.247   1.050   0.377 -0.2088  0.1615 -0.3681
   21MOL0    Cl 2744   3.129   0.924   0.438 -0.3838 -0.2785  0.2343
   21MOL0     C 2745   4.003   1.482   0.388  0.7635 -0.6963 -0.5745
   21MOL0     C 2746   4.134   1.490   0.425 -0.3943 -0.1186 -0.0316
   21MOL0     O 2747   4.334   1.704   0.680  0.2948  0.5658 -0.4433
   21MOL0     C 2748   4.583   1.452   0.607  0.3409 -0.2551 -0.1079
   21MOL0     C 2749   4.719   1.433   0.615  0.3830 -0.2141 -0.7471
   21MOL0     N 2750   5.211   1.862   0.988  0.2856 -0.1485  0.0924
   21MOL0     N 2751   5.210   1.931   1.098  0.0332  0.6520 -0.3689
   21MOL0     C 2752   4.057   1.840   0.908 -0.4276 -0.5373  0.3833
   21MOL0     C 2753   3.944   1.845   0.824  1.1500  0.5698 -0.5589
   21MOL0     C 2754   3.537   1.930   0.662 -0.2211  0.0765  0.9312
   21MOL0     C 2755   3.442   1.845   0.721 -0.6663  0.6364 -0.0010
   21MOL0     C 2756   3.325   1.805   0.651 -0.6554  0.5037 -0.1366
   21MOL0     C 2757   3.302   1.852   0.523 -0.2832  0.7224 -0.3974
   21MOL0     O 2758   3.189   1.836   0.453  0.0139  0.1580  0.1528
   21MOL0     C 2759   3.103   1.738   0.497 -0.1084  0.3871 -0.1707
   21MOL0     C 2760   2.991   1.728   0.402 -0.2654 -0.2030 -0.5260
   21MOL0     C 2761   2.902   1.614   0.455  0.1277 -0.9144  0.5407
   21MOL0     C 2762   2.783   1.593   0.359  0.0153  0.0615  0.5226
   21MOL0     C 2763   2.679   1.497   0.406  0.6495 -1.2346 -0.4436
   21MOL0     C 2764   2.577   1.431   0.441  0.6620 -0.0297 -0.7900
   21MOL0     C 2765   3.397   1.942   0.470 -0.1032 -0.4486 -0.0745
   21MOL0     C 2766   3.515   1.981   0.531 -0.1667  0.3024 -0.0466
   21MOL0     C 2767   3.614   2.063   0.447 -0.4222 -0.2326 -0.4052
   21MOL0     H 2768   3.711   1.801   1.054  0.3693 -1.2094  0.8474
   21MOL0     H 2769   3.925   1.809   1.213  0.1857 -0.2733  0.0385
   21MOL0     H 2770   4.274   1.669   1.187 -0.1300  0.0354 -0.7242
   21MOL0     H 2771   4.225   1.643   1.025 -1.6117  1.7786 -1.2371
   21MOL0     H 2772   4.400   1.839   0.967  1.1728 -0.7608  0.6519
   21MOL0     H 2773   4.436   1.669   1.019  0.6684  0.6284 -0.6844
   21MOL0     H 2774   4.459   1.729   1.250 -1.8979 -1.0666 -0.5705
   21MOL0     H 2775   4.433   1.905   1.206  1.3165  0.8844 -1.5710
   21MOL0     H 2776   4.640   1.712   1.097 -0.7266  1.1711 -2.8501
   21MOL0     H 2777   4.640   1.892   1.082  3.8478  0.4470  1.3114
   21MOL0     H 2778   4.682   1.905   1.347 -0.8918  0.0908  0.8665
   21MOL0     H 2779   4.694   1.728   1.339  0.7050 -1.0739 -0.2712
   21MOL0     H 2780   4.877   1.788   1.146  1.9168 -0.1582  0.2729
   21MOL0     H 2781   4.862   1.950   1.204 -0.0512 -0.0278  0.6244
   21MOL0     H 2782   4.955   1.706   1.349  0.1834  0.3950 -0.9967
   21MOL0     H 2783   4.918   1.859   1.439 -0.7462 -0.9152  0.2769
   21MOL0     H 2784   5.066   1.987   1.297 -1.7000 -0.0850  0.2660
   21MOL0     H 2785   5.152   1.867   1.397  2.1681 -2.9563 -2.3801
   21MOL0     H 2786   5.089   1.616   1.152  1.4261 -0.9589 -1.2882
   21MOL0     H 2787   5.012   1.653   0.864  0.5698 -1.2785  1.1652
   21MOL0     H 2788   5.156   1.707   0.781 -2.4582  0.7333 -0.2660
   21MOL0     H 2789   5.273   1.501   0.894  0.6751  0.0103 -1.3238
   21MOL0     H 2790   5.113   1.445   0.949  0.9980 -0.1746  1.6876
   21MOL0     H 2791   5.178   1.338   0.737 -2.0355 -1.3543 -1.4834
   21MOL0     H 2792   5.201   1.503   0.660 -1.2568  0.2849  0.1557
   21MOL0     H 2793   4.952   1.374   0.766 -0.5836  1.1363  1.1078
   21MOL0     H 2794   4.975   1.353   0.600  0.2821 -1.0727  1.5450
   21MOL0     H 2795   4.794   1.761   0.680 -1.1899  1.1560  1.1041
   21MOL0     H 2796   4.565   1.780   0.686 -0.4088 -1.1724  0.1883
   21MOL0     H 2797   4.115   1.543   0.760  1.5130  2.2288  0.6706
   21MOL0     H 2798   3.864   1.556   0.689 -1.6925 -0.8827 -0.7997
   21MOL0     H 2799   3.770   1.581   0.264  1.3568 -1.3600 -1.7779
   21MOL0     H 2800   3.726   1.407   0.278 -2.0816 -1.6404  2.2761
   21MOL0     H 2801   3.535   1.501   0.428  0.3478  2.5758  2.8562
   21MOL0     H 2802   3.557   1.654   0.339  4.0756 -0.3747  1.2278
   21MOL0     H 2803   3.533   1.552   0.121 -0.2041 -1.0581 -1.4398
   21MOL0     H 2804   3.499   1.388   0.196 -0.5591  0.3858 -0.0073
   21MOL0     H 2805   3.291   1.523   0.122  1.6570 -0.1892 -0.4697
   21MOL0     H 2806   3.326   1.622   0.254 -2.6925 -0.4305  0.1362
   21MOL0     H 2807   3.175   1.459   0.342 -1.4236 -3.3592 -4.8350
   21MOL0     H 2808   3.325   1.451   0.425 -3.6607  0.2689  1.8099
   21MOL0     H 2809   3.229   1.277   0.205 -0.3983 -1.4154 -0.3749
   21MOL0     H 2810   3.381   1.247   0.279 -0.2493  1.8978 -1.3507
   21MOL0     H 2811   3.098   1.203   0.390  0.0257 -1.6763 -6.4393
   21MOL0     H 2812   3.246   1.233   0.497 -1.6985 -1.9231  1.2280
   21MOL0     H 2813   3.249   1.023   0.271  0.5449 -1.0424 -0.0621
   21MOL0     H 2814   3.344   1.028   0.420 -0.8933  1.0976  1.7924
   21MOL0     H 2815   3.982   1.462   0.284 -0.9495 -4.0846  0.2730
   21MOL0     H 2816   4.192   1.467   0.336  0.9789  1.2595  0.4606
   21MOL0     H 2817   4.523   1.365   0.584 -0.8976  1.1395 -2.4714
   21MOL0     H 2818   4.749   1.331   0.590  0.1181 -0.6950  0.7893
   21MOL0     H 2819   4.148   1.852   0.849 -1.3967 -0.4268 -1.1333
   21MOL0     H 2820   3.958   1.856   0.717  1.2567 -0.1526 -0.6258
   21MOL0     H 2821   3.458   1.803   0.819  1.1802  1.0749 -0.0860
   21MOL0     H 2822   3.260   1.739   0.708  0.6514 -0.3960  0.3494
   21MOL0     H 2823   3.066   1.749   0.600 -1.3934  0.9307 -0.6747
   21MOL0     H 2824   3.157   1.643   0.502  0.1435  0.5712  1.0990
   21MOL0     H 2825   3.042   1.700   0.310 -1.4589  2.4480 -2.1370
   21MOL0     H 2826   2.936   1.820   0.378  0.2004 -0.3276 -2.1237
   21MOL0     H 2827   2.880   1.637   0.559  2.3019  0.5502  0.7517
   21MOL0     H 2828   2.964   1.523   0.454  0.2984 -0.7957  0.0824
   21MOL0     H 2829   2.731   1.689   0.360  0.1354  0.1562 -0.8090
   21MOL0     H 2830   2.818   1.566   0.259  1.5794 -0.2071  1.1178
   21MOL0     H 2831   2.482   1.389   0.471 -0.6158  2.8447 -0.4370
   21MOL0     H 2832   3.381   1.965   0.365 -0.3988 -1.1132 -0.1839
   21MOL0     H 2833   3.719   2.032   0.452 -0.3596  0.0649  0.2892
   21MOL0     H 2834   3.586   2.049   0.343 -0.6603 -2.4792 -0.1080
   21MOL0     H 2835   3.609   2.165   0.485 -2.1400  0.0243 -1.2423
   22MOL0     O 2836   4.299   8.504   7.123  0.0038 -0.0650 -0.2634
   22MOL0     C 2837   4.332   8.384   7.102  0.2313  0.0958 -0.7768
   22MOL0     O 2838   4.460   8.332   7.108  0.7030 -0.2083 -0.5428
   22MOL0     C 2839   4.563   8.405   7.156  0.4224  0.6200 -0.0822
   22MOL0     C 2840   4.609   8.524   7.095  0.2073 -0.1780 -0.8824
   22MOL0     C 2841   4.719   8.592   7.158 -0.4906  0.7266  0.6292
   22MOL0     C 2842   4.776   8.553   7.280 -0.9051 -0.1672 -0.5333
   22MOL0     O 2843   4.881   8.605   7.346 -0.0663 -0.7350 -0.1319
   22MOL0     C 2844   4.978   8.683   7.269  0.2012 -0.4761 -0.0127
   22MOL0     C 2845   5.102   8.689   7.359  0.1913 -1.2182  0.2859
   22MOL0     C 2846   5.208   8.782   7.299 -0.8847 -0.4200 -0.5489
   22MOL0     C 2847   5.310   8.691   7.224 -0.0601 -0.0789 -0.1198
   22MOL0     C 2848   5.432   8.770   7.179  0.1668  1.1749 -0.6747
   22MOL0     C 2849   5.401   8.869   7.067  0.7903  0.6284 -0.7182
   22MOL0     C 2850   5.511   8.964   7.032  0.9251  0.1579  0.8643
   22MOL0     C 2851   5.460   9.043   6.911  0.2309  0.0262 -0.3451
   22MOL0     N 2852   5.521   8.971   6.796 -0.2627 -1.1461 -0.1346
   22MOL0     C 2853   5.640   8.995   6.730  0.3480  0.2724  0.5838
   22MOL0     C 2854   5.639   8.916   6.621 -0.3682 -0.1654 -0.2628
   22MOL0     C 2855   5.757   8.907   6.520  0.6476  0.3283  0.4533
   22MOL0     C 2856   5.813   8.771   6.531  0.7382 -0.6013 -0.4668
   22MOL0     C 2857   5.958   8.751   6.491 -0.0024 -0.2557  0.4469
   22MOL0     C 2858   5.999   8.793   6.354  0.6511  0.4317 -0.0817
   22MOL0     O 2859   6.115   8.727   6.305 -0.0259 -0.1317 -0.8771
   22MOL0     C 2860   6.239   8.756   6.351 -0.2755 -0.4281 -0.5686
   22MOL0     C 2861   6.345   8.694   6.287  0.3906  0.0269 -0.6433
   22MOL0     C 2862   6.478   8.721   6.317  0.1675 -0.1135 -0.5263
   22MOL0     C 2863   6.511   8.827   6.411  0.5845  0.2976  0.4105
   22MOL0     C 2864   6.648   8.857   6.460 -0.0980 -0.1909  0.1209
   22MOL0     O 2865   6.671   8.986   6.480 -0.1567  0.1190 -0.5353
   22MOL0     C 2866   6.808   9.018   6.502  0.3640  0.9499  0.1341
   22MOL0     C 2867   6.914   8.977   6.427  0.2497  0.9458 -0.0006
   22MOL0     C 2868   7.045   9.014   6.465  0.3701 -0.3969  0.1509
   22MOL0     C 2869   7.076   9.095   6.576  0.3526  0.3361 -0.2956
   22MOL0     O 2870   7.207   9.123   6.583 -0.2015 -0.3476  0.3029
   22MOL0     C 2871   7.250   9.211   6.692 -0.7594 -0.2031  0.0934
   22MOL0     C 2872   7.400   9.233   6.703 -0.7778 -0.2959  0.6000
   22MOL0     C 2873   7.459   9.327   6.599 -0.3950 -0.1641 -0.1446
   22MOL0     C 2874   7.603   9.294   6.569 -0.8902  0.1317  0.9801
   22MOL0     C 2875   7.667   9.404   6.491 -0.3565 -0.5087  1.3135
   22MOL0     C 2876   7.791   9.360   6.406  0.7546  0.1743 -0.1023
   22MOL0     C 2877   7.919   9.353   6.488 -0.1213  0.1594 -0.4700
   22MOL0     C 2878   8.044   9.330   6.397  0.1506  0.5997 -0.4930
   22MOL0    Cl 2879   8.066   9.489   6.308  0.2102  0.3520  0.6100
   22MOL0     C 2880   6.960   9.132   6.655 -0.0865 -0.3028 -0.1694
   22MOL0     C 2881   6.833   9.098   6.606 -0.1936 -0.0851  0.7810
   22MOL0     O 2882   6.732   8.761   6.460  0.5335 -0.4096  0.0700
   22MOL0     C 2883   6.397   8.898   6.465  0.4861  0.0067 -0.1324
   22MOL0     C 2884   6.267   8.872   6.426  0.1803 -0.6385  0.0994
   22MOL0     N 2885   5.522   8.852   6.620 -0.7678  0.0923  0.0142
   22MOL0     N 2886   5.448   8.888   6.722 -0.4311 -0.2370  0.1735
   22MOL0     C 2887   4.721   8.442   7.339  0.4755  0.2044  0.0915
   22MOL0     C 2888   4.621   8.367   7.281 -0.5526 -0.5371  0.2613
   22MOL0     C 2889   4.229   8.293   7.057  0.7971  0.1250  0.1533
   22MOL0     C 2890   4.102   8.292   7.112  0.6345 -0.3045 -0.2348
   22MOL0     C 2891   3.989   8.218   7.064 -0.5833  0.4401 -0.6644
   22MOL0     C 2892   4.015   8.139   6.958 -0.7255  0.1007  1.1353
   22MOL0     O 2893   3.936   8.059   6.884 -0.1670  0.0572 -0.0371
   22MOL0     C 2894   3.803   8.026   6.931 -0.3787  0.8053 -0.4878
   22MOL0     C 2895   3.717   8.047   6.805  0.0648 -0.0383 -0.2770
   22MOL0     C 2896   3.586   7.976   6.810 -0.1884  0.8543 -1.1852
   22MOL0     C 2897   3.486   8.027   6.711  0.6348 -0.1913 -0.5899
   22MOL0     C 2898   3.426   8.150   6.758 -0.0811 -0.8863  0.0060
   22MOL0     C 2899   3.365   8.251   6.794 -0.6081  0.1845  0.4245
   22MOL0     C 2900   4.142   8.127   6.909 -0.4993  0.8675  0.3302
   22MOL0     C 2901   4.257   8.208   6.947  0.6176  1.0418  0.2138
   22MOL0     C 2902   4.385   8.199   6.869  0.0810 -0.2841 -0.1399
   22MOL0     H 2903   4.567   8.569   7.005  3.0392 -1.5752 -3.0425
   22MOL0     H 2904   4.755   8.685   7.115 -2.0471 -0.6855 -4.2989
   22MOL0     H 2905   5.001   8.627   7.177  0.6676 -2.1567  1.0689
   22MOL0     H 2906   4.936   8.781   7.246 -2.3280 -0.8427  2.4802
   22MOL0     H 2907   5.139   8.588   7.380  0.9438 -0.3772  3.5615
   22MOL0     H 2908   5.079   8.733   7.456  1.9589 -1.8545  1.0429
   22MOL0     H 2909   5.264   8.837   7.374  0.6423 -1.8675 -0.5783
   22MOL0     H 2910   5.167   8.859   7.233  0.3874  1.5090  0.8051
   22MOL0     H 2911   5.350   8.616   7.293 -2.0582  0.4440  1.7449
   22MOL0     H 2912   5.265   8.644   7.136 -1.4235 -0.6720  0.8516
   22MOL0     H 2913   5.486   8.807   7.266  0.1115 -1.0072  0.3530
   22MOL0     H 2914   5.508   8.700   7.143  2.5376  1.9319  2.4165
   22MOL0     H 2915   5.382   8.809   6.977  0.1174 -2.2287  1.2018
   22MOL0     H 2916   5.310   8.925   7.089  1.0637  0.6556  0.3640
   22MOL0     H 2917   5.609   8.919   7.013  0.1259 -0.5049 -2.1908
   22MOL0     H 2918   5.535   9.043   7.103 -2.1330  0.9348  1.1755
   22MOL0     H 2919   5.352   9.056   6.900  0.5390  0.9165 -2.9542
   22MOL0     H 2920   5.495   9.146   6.902 -0.6887  0.3407 -0.3982
   22MOL0     H 2921   5.729   9.047   6.762 -1.0144  1.4185  2.7023
   22MOL0     H 2922   5.727   8.922   6.416  2.3311  2.3080  0.1840
   22MOL0     H 2923   5.839   8.977   6.541  0.4049  1.0022 -0.7241
   22MOL0     H 2924   5.809   8.747   6.637  0.4780 -0.2721 -0.4000
   22MOL0     H 2925   5.748   8.701   6.477 -0.0067 -1.8230  1.8947
   22MOL0     H 2926   5.965   8.642   6.492 -1.3538 -0.3597  1.3365
   22MOL0     H 2927   6.018   8.802   6.567 -1.1113  0.2520  1.0037
   22MOL0     H 2928   6.000   8.901   6.334 -2.3329  0.1941 -2.0054
   22MOL0     H 2929   5.917   8.776   6.284  2.2355 -2.6226 -1.3803
   22MOL0     H 2930   6.328   8.615   6.215 -2.6446  1.1348 -1.2803
   22MOL0     H 2931   6.549   8.656   6.266 -1.5389 -2.0301 -0.5766
   22MOL0     H 2932   6.899   8.918   6.337  1.8284 -1.5538  1.2455
   22MOL0     H 2933   7.131   8.989   6.403 -0.2178 -1.0963 -0.4085
   22MOL0     H 2934   7.204   9.308   6.669 -0.6568 -0.3741 -0.8646
   22MOL0     H 2935   7.209   9.173   6.786  0.5450  0.4393  0.9524
   22MOL0     H 2936   7.417   9.277   6.802  1.0968 -2.1124  1.1556
   22MOL0     H 2937   7.450   9.137   6.719  4.1731  2.4380  4.2552
   22MOL0     H 2938   7.395   9.337   6.511 -1.7700  2.1646  1.0146
   22MOL0     H 2939   7.453   9.424   6.649 -2.6567 -0.0344 -0.5809
   22MOL0     H 2940   7.591   9.209   6.501 -1.4557  0.8384  0.1812
   22MOL0     H 2941   7.663   9.259   6.654 -0.9819  0.7447  1.3064
   22MOL0     H 2942   7.686   9.482   6.564  1.4287  1.3696 -0.9763
   22MOL0     H 2943   7.600   9.435   6.409  1.6436 -0.9426 -0.5822
   22MOL0     H 2944   7.770   9.258   6.373  0.4752 -0.8302  2.8462
   22MOL0     H 2945   7.799   9.425   6.319 -1.6304 -0.7348 -1.0979
   22MOL0     H 2946   7.910   9.273   6.561 -0.6029  0.3840 -0.2793
   22MOL0     H 2947   7.937   9.453   6.528  0.5611  0.8695 -2.4063
   22MOL0     H 2948   8.134   9.304   6.454  0.0622 -0.6068 -0.8659
   22MOL0     H 2949   8.025   9.247   6.328  0.3467  0.1941 -0.0625
   22MOL0     H 2950   6.952   9.203   6.737 -0.2762  0.3361 -0.7281
   22MOL0     H 2951   6.744   9.147   6.645 -1.5481 -1.5569 -0.3422
   22MOL0     H 2952   6.413   8.968   6.546  1.4385 -2.5962  2.0942
   22MOL0     H 2953   6.188   8.937   6.464 -0.4335  0.4785 -2.8107
   22MOL0     H 2954   4.769   8.404   7.429  3.4819  2.5727 -0.3228
   22MOL0     H 2955   4.583   8.275   7.324 -1.6831 -0.5813 -0.7728
   22MOL0     H 2956   4.074   8.351   7.198 -0.9596 -1.2024 -0.0987
   22MOL0     H 2957   3.898   8.232   7.121 -0.0504  2.1745 -0.1586
   22MOL0     H 2958   3.768   8.096   7.007 -0.3266 -0.4994  0.7753
   22MOL0     H 2959   3.795   7.925   6.973  0.0940  0.7360 -0.5601
   22MOL0     H 2960   3.767   8.025   6.710  1.2180 -0.2773  0.3701
   22MOL0     H 2961   3.695   8.154   6.798 -1.0425 -0.1777  0.6298
   22MOL0     H 2962   3.552   7.992   6.913  6.4052 -0.7136  1.7557
   22MOL0     H 2963   3.606   7.870   6.792 -0.1707  1.2409 -3.9058
   22MOL0     H 2964   3.533   8.042   6.613  0.6369  0.9102 -0.4345
   22MOL0     H 2965   3.407   7.951   6.710  0.6819 -0.4791  2.9974
   22MOL0     H 2966   3.304   8.330   6.833  0.0049 -0.1775  2.2006
   22MOL0     H 2967   4.159   8.050   6.835 -0.3660  1.5319 -0.3407
   22MOL0     H 2968   4.365   8.170   6.765 -0.8688  0.6259 -0.2251
   22MOL0     H 2969   4.439   8.294   6.873  2.6956 -1.7090  0.8266
   22MOL0     H 2970   4.446   8.116   6.905 -1.2391  0.3023  3.9047
   23MOL0     O 2971   7.925   8.261   6.626 -0.4774 -0.2238  0.1016
   23MOL0     C 2972   7.955   8.155   6.574 -0.4411 -0.0314  0.7277
   23MOL0     O 2973   8.076   8.100   6.571 -0.3810 -0.0264  0.2920
   23MOL0     C 2974   8.192   8.172   6.599  0.0874 -0.1440  0.3791
   23MOL0     C 2975   8.204   8.240   6.718  0.5358  0.0549  0.1682
   23MOL0     C 2976   8.324   8.304   6.752  0.1023  0.1653 -0.3447
   23MOL0     C 2977   8.431   8.304   6.665 -0.7752 -1.1844  0.3790
   23MOL0     O 2978   8.552   8.345   6.715  0.0033 -0.1025  0.5895
   23MOL0     C 2979   8.649   8.374   6.618 -0.4765  0.8536 -0.7368
   23MOL0     C 2980   8.781   8.416   6.688 -0.5172 -0.0923  0.5567
   23MOL0     C 2981   8.778   8.559   6.743 -1.1456 -0.1240  0.1153
   23MOL0     C 2982   8.913   8.594   6.806  0.5628 -0.8813  0.6080
   23MOL0     C 2983   8.886   8.703   6.908 -0.5018 -0.7209 -0.7469
   23MOL0     C 2984   9.012   8.772   6.951  0.3782  0.5055 -0.2547
   23MOL0     C 2985   9.067   8.882   6.848  0.1648  0.9695 -0.0259
   23MOL0     C 2986   9.012   9.024   6.879 -1.0032  0.1115  0.1422
   23MOL0     N 2987   8.871   9.023   6.860 -1.0530 -0.3086 -0.4953
   23MOL0     C 2988   8.814   9.065   6.740  0.5046 -1.1903  0.6542
   23MOL0     C 2989   8.686   9.087   6.778 -0.0639 -0.4388  0.1404
   23MOL0     C 2990   8.580   9.127   6.678 -0.2132 -0.6356  0.1892
   23MOL0     C 2991   8.576   9.276   6.641 -1.3527  0.3338 -0.2822
   23MOL0     C 2992   8.542   9.364   6.767  0.7065  0.4540 -0.3021
   23MOL0     C 2993   8.541   9.513   6.721  0.1422 -0.5603 -0.1461
   23MOL0     O 2994   8.442   9.528   6.611  0.1891 -0.1206 -0.6745
   23MOL0     C 2995   8.461   9.620   6.511 -0.0056  0.4516 -0.1692
   23MOL0     C 2996   8.362   9.625   6.417 -0.0177  0.2815  0.6116
   23MOL0     C 2997   8.360   9.728   6.324 -0.0898 -0.5090  0.0503
   23MOL0     C 2998   8.474   9.822   6.310 -0.2850  0.6355  0.2631
   23MOL0     C 2999   8.481   9.925   6.200  0.7260 -0.4227  0.3164
   23MOL0     O 3000   8.591  10.003   6.203  0.0857  0.0503  0.3180
   23MOL0     C 3001   8.600  10.108   6.115 -0.2692  0.2189 -0.2396
   23MOL0     C 3002   8.720  10.125   6.062  0.7567  0.3730  0.7460
   23MOL0     C 3003   8.742  10.215   5.957  0.2707 -0.0674  0.0323
   23MOL0     C 3004   8.644  10.309   5.917 -0.3535 -0.5273 -0.8411
   23MOL0     O 3005   8.679  10.414   5.828 -0.1574  0.1118 -1.2089
   23MOL0     C 3006   8.572  10.477   5.758 -0.3800 -0.1191 -0.7212
   23MOL0     C 3007   8.617  10.575   5.653  0.0146  0.1747  0.2775
   23MOL0     C 3008   8.692  10.492   5.542 -0.3160  0.6156 -0.5659
   23MOL0     C 3009   8.780  10.575   5.453  1.4760 -0.0437  0.7415
   23MOL0     C 3010   8.904  10.616   5.530 -0.0063 -0.0040 -0.6332
   23MOL0     C 3011   8.993  10.716   5.450  0.8160 -0.5305 -0.5364
   23MOL0     C 3012   9.062  10.641   5.334  0.3731  0.2250 -0.3361
   23MOL0     C 3013   9.163  10.728   5.267  0.7562 -0.3944  0.1326
   23MOL0    Cl 3014   9.257  10.628   5.150  0.2292  0.0208 -0.5724
   23MOL0     C 3015   8.514  10.293   5.973 -0.8648 -0.4854 -0.0522
   23MOL0     C 3016   8.494  10.198   6.077  0.6830  0.7776 -0.1211
   23MOL0     O 3017   8.399   9.924   6.106 -0.4925  0.0008 -0.1661
   23MOL0     C 3018   8.577   9.801   6.396 -0.3122  1.0005 -0.6706
   23MOL0     C 3019   8.571   9.705   6.498  0.3935  0.5545  0.4088
   23MOL0     N 3020   8.664   9.056   6.904 -1.3096 -0.1941 -0.2907
   23MOL0     N 3021   8.779   9.021   6.952 -0.7494 -0.0558 -0.1449
   23MOL0     C 3022   8.410   8.253   6.538  0.2274  0.3042 -0.0336
   23MOL0     C 3023   8.285   8.194   6.501 -0.4999 -0.1811 -0.7882
   23MOL0     C 3024   7.843   8.086   6.519 -1.1150  0.5941  1.1543
   23MOL0     C 3025   7.871   8.007   6.399 -0.3967 -0.5302 -1.2136
   23MOL0     C 3026   7.772   7.926   6.348 -0.0036 -0.9444  0.4091
   23MOL0     C 3027   7.642   7.922   6.406 -0.6843 -0.0017  0.5846
   23MOL0     O 3028   7.537   7.840   6.371  0.2730  0.3866 -0.4970
   23MOL0     C 3029   7.558   7.737   6.269 -0.2881  0.4215 -0.1118
   23MOL0     C 3030   7.459   7.619   6.264  0.0011 -0.1674 -0.1025
   23MOL0     C 3031   7.312   7.656   6.243  0.5681  0.2311 -0.4041
   23MOL0     C 3032   7.209   7.537   6.280 -0.2565 -0.6934  0.2611
   23MOL0     C 3033   7.217   7.420   6.198  0.1040  0.5866  0.4092
   23MOL0     C 3034   7.233   7.335   6.117 -0.3508 -0.1973  0.6383
   23MOL0     C 3035   7.617   7.990   6.516 -0.6389  0.5805 -1.3059
   23MOL0     C 3036   7.720   8.071   6.582  0.3724  0.7575 -0.0093
   23MOL0     C 3037   7.692   8.115   6.717 -0.4321  0.2812  0.4779
   23MOL0     H 3038   8.113   8.252   6.775 -0.3922 -2.2649 -0.6868
   23MOL0     H 3039   8.327   8.369   6.839 -0.3015 -0.2568 -0.0129
   23MOL0     H 3040   8.683   8.280   6.574 -2.3535 -1.9112  3.0907
   23MOL0     H 3041   8.613   8.449   6.547 -1.6694  2.6173  1.5605
   23MOL0     H 3042   8.858   8.406   6.611 -0.5204 -1.1670  0.6723
   23MOL0     H 3043   8.809   8.358   6.776 -1.6253 -0.8407  0.4497
   23MOL0     H 3044   8.696   8.567   6.814  0.2641  0.7537  1.7232
   23MOL0     H 3045   8.777   8.624   6.655  1.1696  0.3606  0.3876
   23MOL0     H 3046   8.951   8.501   6.849 -1.9469 -1.4861  1.7266
   23MOL0     H 3047   8.984   8.642   6.739 -1.2278 -0.1996 -0.8927
   23MOL0     H 3048   8.822   8.784   6.871  2.1616  0.9164 -2.1228
   23MOL0     H 3049   8.844   8.658   6.998  0.6655 -0.3507  0.0066
   23MOL0     H 3050   9.001   8.828   7.044 -1.4205 -1.6465  0.9235
   23MOL0     H 3051   9.083   8.691   6.966 -1.4222 -0.9044  1.0669
   23MOL0     H 3052   9.041   8.853   6.745  3.4366 -1.0453 -0.4383
   23MOL0     H 3053   9.174   8.874   6.866 -0.2049  0.7727  2.4720
   23MOL0     H 3054   9.042   9.058   6.978 -0.4930  2.0726 -0.6521
   23MOL0     H 3055   9.058   9.088   6.804  0.8162  1.2368  2.0992
   23MOL0     H 3056   8.859   9.082   6.643  0.6730  0.0626  0.9334
   23MOL0     H 3057   8.605   9.066   6.590 -0.3303 -1.1134  0.4810
   23MOL0     H 3058   8.484   9.097   6.720 -2.1699  0.5070 -3.0483
   23MOL0     H 3059   8.673   9.314   6.608 -0.9565  2.4644  2.8179
   23MOL0     H 3060   8.509   9.296   6.557 -1.4490  0.4571 -0.1755
   23MOL0     H 3061   8.613   9.346   6.848 -1.1023 -2.6390  0.7607
   23MOL0     H 3062   8.442   9.337   6.801  0.1190  1.6869 -0.9842
   23MOL0     H 3063   8.636   9.547   6.679 -1.5791  4.1725 -0.8896
   23MOL0     H 3064   8.523   9.580   6.806 -1.2300 -0.7689 -0.2509
   23MOL0     H 3065   8.285   9.549   6.419 -0.1445  0.3393 -0.9880
   23MOL0     H 3066   8.266   9.731   6.268 -0.0049 -1.5045 -0.1792
   23MOL0     H 3067   8.801  10.058   6.088  1.0804  0.4692  0.0123
   23MOL0     H 3068   8.841  10.213   5.912  0.8457  1.9406  1.0890
   23MOL0     H 3069   8.508  10.400   5.714 -2.0678  0.9984 -0.3028
   23MOL0     H 3070   8.510  10.539   5.824 -0.2994 -1.0538  0.2699
   23MOL0     H 3071   8.524  10.619   5.615 -0.8342  0.0406  2.0787
   23MOL0     H 3072   8.672  10.664   5.685  0.2070  0.2041 -0.1185
   23MOL0     H 3073   8.753  10.411   5.584 -0.1757  0.2268 -1.5121
   23MOL0     H 3074   8.619  10.444   5.477 -0.9015  0.0541  0.4754
   23MOL0     H 3075   8.720  10.661   5.422  0.2488 -1.0384  0.2415
   23MOL0     H 3076   8.816  10.526   5.362 -0.8224  0.4660 -0.5235
   23MOL0     H 3077   8.953  10.528   5.573 -0.7519  0.0986  0.4509
   23MOL0     H 3078   8.865  10.678   5.611 -0.2433  0.3690 -1.0237
   23MOL0     H 3079   8.940  10.805   5.415  1.0218  0.7697  2.1940
   23MOL0     H 3080   9.080  10.751   5.507 -0.0559 -0.8175  1.0498
   23MOL0     H 3081   9.000  10.600   5.254  2.3851 -1.1695 -1.2628
   23MOL0     H 3082   9.114  10.553   5.371 -2.2591 -1.4686 -0.4284
   23MOL0     H 3083   9.116  10.815   5.220 -0.1439 -0.5766  0.6971
   23MOL0     H 3084   9.233  10.776   5.336 -0.0247  2.9199 -1.1773
   23MOL0     H 3085   8.437  10.368   5.954 -0.8860  0.1603  2.2392
   23MOL0     H 3086   8.394  10.186   6.118  1.0180 -1.5267  0.1323
   23MOL0     H 3087   8.664   9.864   6.407  1.1772 -1.3904  3.2325
   23MOL0     H 3088   8.652   9.695   6.570  0.0732 -0.0966  0.6915
   23MOL0     H 3089   8.494   8.256   6.470  1.2011  0.0023  1.1109
   23MOL0     H 3090   8.264   8.163   6.399 -2.3655  2.9872 -1.4981
   23MOL0     H 3091   7.969   8.019   6.355 -0.2827  3.4609 -0.2424
   23MOL0     H 3092   7.802   7.875   6.257  1.2377 -0.0725  0.2964
   23MOL0     H 3093   7.656   7.693   6.287 -0.1190  1.5361  1.9781
   23MOL0     H 3094   7.562   7.779   6.169 -4.5623 -1.9097 -1.5327
   23MOL0     H 3095   7.468   7.562   6.357  0.0963 -1.0431 -0.6414
   23MOL0     H 3096   7.485   7.551   6.182  2.0698 -0.3154  0.5985
   23MOL0     H 3097   7.303   7.686   6.139  0.7118  2.2285  0.1094
   23MOL0     H 3098   7.294   7.748   6.299  0.8066  0.0358  0.0037
   23MOL0     H 3099   7.206   7.513   6.387 -1.0933  0.8069  0.6014
   23MOL0     H 3100   7.111   7.581   6.259 -0.3476 -1.1550 -0.3040
   23MOL0     H 3101   7.231   7.259   6.041 -0.8764  0.2556  0.1940
   23MOL0     H 3102   7.521   7.976   6.565 -0.4012  0.6908 -0.7983
   23MOL0     H 3103   7.737   8.055   6.797 -0.8397  0.0213  0.5164
   23MOL0     H 3104   7.710   8.222   6.723 -0.6243  0.3112  0.5035
   23MOL0     H 3105   7.584   8.115   6.735 -1.0814 -1.4479 -2.6907
   24MOL0     O 3106   6.864   6.878  10.290  0.6227 -0.1366 -0.4009
   24MOL0     C 3107   6.757   6.923  10.339 -0.0354  1.0467 -0.3188
   24MOL0     O 3108   6.725   6.911  10.469  0.5763 -0.7831  0.1384
   24MOL0     C 3109   6.807   6.841  10.552  0.3813  0.1011  0.4948
   24MOL0     C 3110   6.808   6.704  10.554 -0.4956 -0.0401  0.5316
   24MOL0     C 3111   6.912   6.640  10.632  0.4502 -0.1494 -0.4700
   24MOL0     C 3112   7.003   6.707  10.714  0.0386 -0.0325 -0.2561
   24MOL0     O 3113   7.073   6.632  10.807  0.9082  0.0404  0.7777
   24MOL0     C 3114   7.142   6.515  10.763 -0.0126  0.1203 -0.5721
   24MOL0     C 3115   7.186   6.445  10.893  0.8131 -0.5400  0.8230
   24MOL0     C 3116   7.329   6.463  10.908 -1.0489 -0.0436  0.2985
   24MOL0     C 3117   7.397   6.393  11.026  0.7793  0.3985  0.0077
   24MOL0     C 3118   7.545   6.410  11.029  0.3638 -0.5803 -0.1211
   24MOL0     C 3119   7.630   6.362  10.906  0.3190 -0.3232  0.2682
   24MOL0     C 3120   7.780   6.355  10.933  0.0212  0.7220  0.4890
   24MOL0     C 3121   7.861   6.324  10.804  0.3298 -0.2382  0.9049
   24MOL0     N 3122   8.008   6.343  10.826 -0.5446  0.8905 -0.0179
   24MOL0     C 3123   8.057   6.453  10.881  0.1465 -0.4204  0.0890
   24MOL0     C 3124   8.192   6.438  10.884 -0.7350 -0.2461  1.7733
   24MOL0     C 3125   8.293   6.556  10.899  0.2277 -0.0357 -1.0126
   24MOL0     C 3126   8.435   6.523  10.854 -0.1366 -0.7476  0.1984
   24MOL0     C 3127   8.516   6.647  10.860 -0.2568  0.4139 -0.3143
   24MOL0     C 3128   8.670   6.610  10.850  0.7024  0.5971 -0.9937
   24MOL0     O 3129   8.734   6.727  10.893  0.4906 -0.0824  0.3512
   24MOL0     C 3130   8.865   6.729  10.903  0.1358  0.4188 -0.4627
   24MOL0     C 3131   8.913   6.852  10.964  0.3698  0.3532  1.4491
   24MOL0     C 3132   9.052   6.861  10.984  0.3942  0.1873 -0.0242
   24MOL0     C 3133   9.134   6.753  10.949  0.7598  0.4533 -1.0476
   24MOL0     C 3134   9.277   6.773  10.967  0.5507 -0.1526 -0.0376
   24MOL0     O 3135   9.354   6.662  10.952 -0.6900  0.4860 -0.5165
   24MOL0     C 3136   9.482   6.668  10.986 -0.7934  0.7694 -0.9116
   24MOL0     C 3137   9.571   6.722  10.896 -0.4273 -0.3969 -0.4578
   24MOL0     C 3138   9.709   6.732  10.926  0.4490  0.3963  0.2575
   24MOL0     C 3139   9.759   6.678  11.046  0.0519 -0.9075  1.2346
   24MOL0     O 3140   9.890   6.701  11.078 -0.0966 -0.2556  0.2852
   24MOL0     C 3141   9.982   6.655  10.980 -0.9492 -0.3490  0.2050
   24MOL0     C 3142  10.075   6.566  11.053 -0.0414 -0.3406  0.5876
   24MOL0     C 3143  10.170   6.490  10.964 -0.1350 -0.0166 -0.0653
   24MOL0     C 3144  10.261   6.390  11.035 -0.8768 -0.1607 -0.7372
   24MOL0     C 3145  10.357   6.317  10.941  0.3941 -0.2664 -1.0475
   24MOL0     C 3146  10.457   6.244  11.034 -0.4061  0.9792  0.2067
   24MOL0     C 3147  10.575   6.183  10.954 -0.2353 -0.2943  0.3374
   24MOL0     C 3148  10.680   6.130  11.040 -0.1369  0.1725  0.2316
   24MOL0    Cl 3149  10.802   6.047  10.925  0.1250  0.0603 -0.2718
   24MOL0     C 3150   9.670   6.617  11.132  0.1490 -0.5647 -0.7823
   24MOL0     C 3151   9.533   6.617  11.111  0.8417  0.0461  0.3051
   24MOL0     O 3152   9.324   6.893  11.002  0.5479  0.3525  0.4181
   24MOL0     C 3153   9.080   6.629  10.909 -0.4161 -0.8300  0.9217
   24MOL0     C 3154   8.949   6.622  10.877  0.0615 -0.0406 -0.3994
   24MOL0     N 3155   8.224   6.308  10.823  0.9009  0.5185 -0.5547
   24MOL0     N 3156   8.110   6.261  10.788  0.0535  0.3409 -0.4728
   24MOL0     C 3157   7.002   6.844  10.712  1.3573 -0.1740  0.2856
   24MOL0     C 3158   6.903   6.912  10.627 -0.5680  0.7214 -0.1469
   24MOL0     C 3159   6.666   6.986  10.247  0.4217  0.7331  0.0501
   24MOL0     C 3160   6.678   6.957  10.109 -0.2409 -0.6509 -0.5322
   24MOL0     C 3161   6.583   6.989  10.014 -0.3123  0.5917  0.6396
   24MOL0     C 3162   6.470   7.054  10.043  0.4067  0.1213  0.9483
   24MOL0     O 3163   6.377   7.097   9.946  0.4358 -1.3223 -0.7784
   24MOL0     C 3164   6.331   6.999   9.858 -0.4180  0.4017  0.4818
   24MOL0     C 3165   6.197   6.933   9.907 -0.5027 -0.8234  0.3097
   24MOL0     C 3166   6.106   7.046   9.954  0.1949 -0.1882  1.1607
   24MOL0     C 3167   5.963   7.007   9.958 -0.1069 -0.6405  0.5777
   24MOL0     C 3168   5.905   6.987   9.826  0.1976  0.7094  0.5998
   24MOL0     C 3169   5.876   6.983   9.709 -0.4216 -0.0034  0.1895
   24MOL0     C 3170   6.447   7.086  10.175 -0.7047  0.4394  0.0384
   24MOL0     C 3171   6.541   7.053  10.272  0.5624  0.4751  0.8412
   24MOL0     C 3172   6.485   7.085  10.412  0.5173  0.4615  0.2417
   24MOL0     H 3173   6.752   6.644  10.483  0.8047 -2.9009  1.7875
   24MOL0     H 3174   6.908   6.531  10.627 -1.5890 -0.2082  0.8908
   24MOL0     H 3175   7.077   6.444  10.710  1.4674 -1.6798 -0.0928
   24MOL0     H 3176   7.227   6.541  10.700 -1.1931  0.3969 -2.1269
   24MOL0     H 3177   7.160   6.339  10.894 -2.0467 -0.0161 -1.8164
   24MOL0     H 3178   7.141   6.483  10.985  0.0219  0.1819  0.1561
   24MOL0     H 3179   7.347   6.571  10.913 -1.2700 -0.0433  1.3181
   24MOL0     H 3180   7.383   6.419  10.824  0.4966  1.1426  0.6287
   24MOL0     H 3181   7.351   6.429  11.118  2.2761  1.3882  0.3945
   24MOL0     H 3182   7.371   6.287  11.017  1.8381  0.1758 -0.6656
   24MOL0     H 3183   7.565   6.516  11.046  1.7097 -1.0705  1.6781
   24MOL0     H 3184   7.584   6.360  11.118 -1.4694 -0.3220  0.8872
   24MOL0     H 3185   7.598   6.260  10.880 -1.6288 -0.3081  2.3308
   24MOL0     H 3186   7.618   6.433  10.823 -0.5810  1.1200  1.5866
   24MOL0     H 3187   7.799   6.281  11.011 -1.3344  1.4931  1.5805
   24MOL0     H 3188   7.808   6.455  10.968 -0.8355  0.3783  2.2549
   24MOL0     H 3189   7.842   6.225  10.762 -0.3516  1.5990 -3.6489
   24MOL0     H 3190   7.830   6.398  10.729 -2.2087 -0.4771  1.6497
   24MOL0     H 3191   7.998   6.541  10.906 -2.1786 -1.9685  0.3006
   24MOL0     H 3192   8.248   6.635  10.838 -0.6544  1.4557  1.4438
   24MOL0     H 3193   8.305   6.592  11.001  3.0282  0.9954 -1.6102
   24MOL0     H 3194   8.483   6.442  10.909  3.7595  1.0858 -0.1938
   24MOL0     H 3195   8.436   6.496  10.748  3.1130 -1.0836  0.2331
   24MOL0     H 3196   8.491   6.703  10.950 -2.8513  0.5722 -1.0262
   24MOL0     H 3197   8.511   6.717  10.776 -2.2935 -1.7235 -2.1406
   24MOL0     H 3198   8.698   6.569  10.753  1.7356 -0.0882 -0.4282
   24MOL0     H 3199   8.689   6.530  10.923  0.4215 -0.0325 -1.6003
   24MOL0     H 3200   8.847   6.936  10.982 -2.1081 -1.3650  0.8997
   24MOL0     H 3201   9.091   6.954  11.024  1.0390  0.3265 -0.9343
   24MOL0     H 3202   9.533   6.770  10.806  0.8172 -0.8684 -1.2590
   24MOL0     H 3203   9.780   6.787  10.866  0.9270 -1.1173 -0.6232
   24MOL0     H 3204   9.933   6.604  10.897 -0.1334 -0.5595 -0.1544
   24MOL0     H 3205  10.035   6.739  10.935 -2.6340 -1.4671 -4.5081
   24MOL0     H 3206  10.122   6.630  11.129 -0.7381 -0.9311  1.5244
   24MOL0     H 3207  10.022   6.489  11.109 -0.8909 -0.1191  0.0968
   24MOL0     H 3208  10.115   6.434  10.888  0.6404 -1.2769  0.2769
   24MOL0     H 3209  10.238   6.561  10.917 -0.7861  0.4404 -0.3347
   24MOL0     H 3210  10.198   6.312  11.079  0.3481 -1.1596 -0.6923
   24MOL0     H 3211  10.310   6.437  11.120 -2.0586 -4.1451  2.5005
   24MOL0     H 3212  10.404   6.400  10.887 -0.2818 -0.0712 -1.3502
   24MOL0     H 3213  10.299   6.247  10.879 -0.5913 -0.2133 -0.2172
   24MOL0     H 3214  10.494   6.324  11.099 -2.1909  2.3679 -0.3981
   24MOL0     H 3215  10.402   6.164  11.084  0.5510 -1.5063 -2.4336
   24MOL0     H 3216  10.620   6.265  10.896 -2.3647  2.8030  2.7365
   24MOL0     H 3217  10.538   6.107  10.884  3.7380 -2.9405  0.7550
   24MOL0     H 3218  10.734   6.203  11.101  2.0279 -2.2607  1.4010
   24MOL0     H 3219  10.634   6.054  11.103  0.4653 -1.6637 -1.4552
   24MOL0     H 3220   9.709   6.580  11.227 -0.5012  2.2403  0.6878
   24MOL0     H 3221   9.457   6.576  11.176 -0.2438  2.2136  0.4925
   24MOL0     H 3222   9.140   6.539  10.898  1.2868 -0.0539  3.1488
   24MOL0     H 3223   8.906   6.536  10.827  0.9674  0.6073 -2.3950
   24MOL0     H 3224   7.075   6.896  10.773  0.4740  1.5406 -0.0643
   24MOL0     H 3225   6.894   7.020  10.627 -0.5155  0.8228  2.7361
   24MOL0     H 3226   6.774   6.928  10.069 -0.7627 -1.4902 -1.2145
   24MOL0     H 3227   6.594   6.960   9.910  0.2254  0.8110  0.6293
   24MOL0     H 3228   6.401   6.915   9.855  0.0983  0.6512  2.9173
   24MOL0     H 3229   6.312   7.052   9.765 -1.0306 -0.4264  0.1185
   24MOL0     H 3230   6.222   6.876   9.997  1.3114 -1.0724 -0.3145
   24MOL0     H 3231   6.165   6.863   9.829 -0.9035  0.0644 -0.3424
   24MOL0     H 3232   6.110   7.137   9.892  0.2011  1.7415  3.8036
   24MOL0     H 3233   6.132   7.079  10.055 -0.2988 -0.3656  1.3520
   24MOL0     H 3234   5.944   6.922  10.023 -3.2414  0.0168  0.7116
   24MOL0     H 3235   5.906   7.095   9.990  0.1337  2.3152 -5.5825
   24MOL0     H 3236   5.850   6.976   9.605  0.3324  1.6747 -0.1451
   24MOL0     H 3237   6.357   7.133  10.213  0.5160  0.5431  3.0909
   24MOL0     H 3238   6.570   7.115  10.473  2.1344 -0.9474 -1.1866
   24MOL0     H 3239   6.410   7.164  10.409  2.0846  1.9815  0.0014
   24MOL0     H 3240   6.443   6.996  10.461  0.6385  0.7316  0.8411
   25MOL0     O 3241   3.399   1.539   2.821 -0.3278  0.3899 -0.1966
   25MOL0     C 3242   3.378   1.500   2.705  0.4238  0.5386  0.1356
   25MOL0     O 3243   3.475   1.488   2.611 -1.1695  0.3787  0.7645
   25MOL0     C 3244   3.601   1.528   2.646 -0.3119  0.1379 -0.2953
   25MOL0     C 3245   3.685   1.425   2.684 -0.0170 -0.0657 -0.2975
   25MOL0     C 3246   3.817   1.444   2.728  0.3499  0.8137 -0.8359
   25MOL0     C 3247   3.872   1.569   2.739 -0.6508  0.1373  0.3290
   25MOL0     O 3248   4.003   1.595   2.768 -0.3357 -0.2031  0.2485
   25MOL0     C 3249   4.071   1.472   2.805 -0.1379 -0.3753  0.3162
   25MOL0     C 3250   4.215   1.500   2.832  0.2816 -0.2041  0.1146
   25MOL0     C 3251   4.244   1.555   2.965 -0.0172 -0.7396 -0.7573
   25MOL0     C 3252   4.397   1.563   2.998 -0.5560  1.1006  0.7180
   25MOL0     C 3253   4.422   1.649   3.119 -0.3983 -0.2076 -0.0337
   25MOL0     C 3254   4.414   1.579   3.256 -0.5163  0.2598 -1.0811
   25MOL0     C 3255   4.510   1.463   3.276  0.4644 -0.2171 -0.7502
   25MOL0     C 3256   4.498   1.401   3.411  0.5928 -0.6276 -0.1261
   25MOL0     N 3257   4.561   1.483   3.520  0.2733 -0.2615 -0.5505
   25MOL0     C 3258   4.683   1.542   3.525  0.3847  0.3968 -0.0693
   25MOL0     C 3259   4.698   1.590   3.650  0.8466  0.7554 -0.0029
   25MOL0     C 3260   4.819   1.665   3.704  0.1453  0.5777  1.1671
   25MOL0     C 3261   4.930   1.557   3.738 -0.5844  0.8702 -1.2105
   25MOL0     C 3262   4.885   1.453   3.848 -0.4214 -0.8314 -0.8218
   25MOL0     C 3263   4.880   1.512   3.989  0.0965  0.5131  0.0647
   25MOL0     O 3264   4.874   1.397   4.087  0.1628 -0.2314 -0.1363
   25MOL0     C 3265   4.993   1.362   4.138 -0.0590  0.1232 -0.1885
   25MOL0     C 3266   5.071   1.460   4.213  0.2522  0.5986 -0.2042
   25MOL0     C 3267   5.194   1.423   4.273  0.0415  0.1295 -0.9240
   25MOL0     C 3268   5.245   1.291   4.265 -0.9090 -0.5634 -1.4368
   25MOL0     C 3269   5.378   1.262   4.325 -0.5590  0.8519  0.0063
   25MOL0     O 3270   5.425   1.136   4.287 -0.3874 -0.2821 -0.5421
   25MOL0     C 3271   5.541   1.078   4.346 -0.8255  0.2132  0.3305
   25MOL0     C 3272   5.588   1.106   4.473  0.4634 -0.2992  0.3898
   25MOL0     C 3273   5.706   1.057   4.516  0.3652  0.1759 -0.7515
   25MOL0     C 3274   5.778   0.976   4.438  1.0978  1.3839  0.1777
   25MOL0     O 3275   5.900   0.929   4.479 -0.1811 -0.8466 -0.0717
   25MOL0     C 3276   5.982   1.032   4.533  0.3142  0.8856 -0.0816
   25MOL0     C 3277   6.126   0.997   4.532 -0.4776 -0.0694  0.1466
   25MOL0     C 3278   6.168   0.920   4.660 -0.5789  0.7957  0.3456
   25MOL0     C 3279   6.314   0.879   4.654  0.2239 -0.5699  0.1595
   25MOL0     C 3280   6.401   0.999   4.696 -0.3449  0.1806  0.4176
   25MOL0     C 3281   6.555   0.980   4.704  0.6759 -0.0738 -0.7482
   25MOL0     C 3282   6.597   1.102   4.783 -0.3191 -0.5187  0.3797
   25MOL0     C 3283   6.739   1.103   4.835  0.3399  0.1659 -0.0337
   25MOL0    Cl 3284   6.845   1.073   4.692  0.2182 -0.3987  0.0879
   25MOL0     C 3285   5.725   0.930   4.323  0.0054  0.3712 -0.1376
   25MOL0     C 3286   5.609   0.983   4.273 -0.5745 -0.8041  0.4049
   25MOL0     O 3287   5.443   1.352   4.381  0.5606  0.3132 -0.2524
   25MOL0     C 3288   5.154   1.194   4.213 -0.3811 -0.1862 -0.5399
   25MOL0     C 3289   5.038   1.231   4.148 -0.0545 -1.0957  0.1541
   25MOL0     N 3290   4.582   1.554   3.720  0.2078  0.2150  0.6004
   25MOL0     N 3291   4.504   1.494   3.644  0.2644 -0.0822 -0.1477
   25MOL0     C 3292   3.786   1.677   2.707  1.1951  0.9091 -0.6393
   25MOL0     C 3293   3.654   1.654   2.656 -0.2108  0.3191  0.2917
   25MOL0     C 3294   3.241   1.485   2.653  0.2252 -0.4386  0.1469
   25MOL0     C 3295   3.138   1.554   2.721 -0.2815  0.3798  0.0069
   25MOL0     C 3296   3.005   1.548   2.679 -0.0807  1.2667 -0.1639
   25MOL0     C 3297   2.974   1.486   2.552  0.5057  0.6676  0.0138
   25MOL0     O 3298   2.849   1.496   2.493  1.0684 -0.3963  0.9233
   25MOL0     C 3299   2.750   1.573   2.559 -0.4797  0.1175  0.7064
   25MOL0     C 3300   2.635   1.600   2.464  0.3580 -0.3211 -0.2910
   25MOL0     C 3301   2.515   1.655   2.542 -0.6415  0.1787  0.8697
   25MOL0     C 3302   2.418   1.736   2.456  0.2177 -0.7560  0.4445
   25MOL0     C 3303   2.376   1.670   2.333 -0.2666  0.7342 -0.7598
   25MOL0     C 3304   2.342   1.614   2.229 -0.2468  0.1885  0.1112
   25MOL0     C 3305   3.073   1.410   2.482 -0.3792  0.5937 -0.3922
   25MOL0     C 3306   3.207   1.416   2.529  0.1549  0.6427 -0.1248
   25MOL0     C 3307   3.299   1.337   2.440  0.2504 -0.7672  0.0042
   25MOL0     H 3308   3.649   1.325   2.665  2.9287 -1.9421  2.8924
   25MOL0     H 3309   3.874   1.355   2.751  1.3145  1.6591  0.1681
   25MOL0     H 3310   4.025   1.418   2.888 -3.3168 -0.0961 -1.1175
   25MOL0     H 3311   4.077   1.401   2.723  1.5083  0.1587 -0.0649
   25MOL0     H 3312   4.257   1.568   2.757  1.5663 -0.0500  0.9519
   25MOL0     H 3313   4.272   1.408   2.820  0.0409 -0.7223  2.5380
   25MOL0     H 3314   4.207   1.484   3.041  0.6249  2.4328  2.8200
   25MOL0     H 3315   4.194   1.652   2.976  3.7705  1.3145  0.0673
   25MOL0     H 3316   4.442   1.464   3.011 -0.8379  0.9582  0.6044
   25MOL0     H 3317   4.437   1.608   2.907  0.4115 -2.4485 -0.7920
   25MOL0     H 3318   4.525   1.685   3.113  0.5689 -2.5123  1.5231
   25MOL0     H 3319   4.358   1.738   3.112  1.4499  1.0507 -2.8318
   25MOL0     H 3320   4.441   1.656   3.329 -0.8666 -1.9684  1.5473
   25MOL0     H 3321   4.311   1.547   3.273 -0.6029 -0.4664 -2.7330
   25MOL0     H 3322   4.616   1.488   3.262  0.2305 -0.1677 -2.7921
   25MOL0     H 3323   4.488   1.386   3.202  1.0298  0.5347 -1.7389
   25MOL0     H 3324   4.390   1.390   3.423  0.7971 -1.1829  1.4205
   25MOL0     H 3325   4.540   1.300   3.415  0.1737 -0.9136 -1.9061
   25MOL0     H 3326   4.755   1.564   3.446 -0.8473 -1.2720 -1.7612
   25MOL0     H 3327   4.862   1.722   3.621 -1.0021 -1.0248 -0.5967
   25MOL0     H 3328   4.793   1.727   3.791 -1.1064  1.8942 -0.0939
   25MOL0     H 3329   4.961   1.502   3.649 -1.3170  0.0027 -0.9439
   25MOL0     H 3330   5.019   1.608   3.778 -0.0151  0.3365 -1.7708
   25MOL0     H 3331   4.948   1.364   3.843  0.3566 -0.2348 -2.4428
   25MOL0     H 3332   4.786   1.417   3.818 -1.5848  1.8244 -0.4278
   25MOL0     H 3333   4.792   1.573   4.012  0.4366  1.2198 -0.4498
   25MOL0     H 3334   4.972   1.571   3.994  1.4802 -1.6431  1.9768
   25MOL0     H 3335   5.032   1.560   4.230 -2.0337 -0.2071 -0.3553
   25MOL0     H 3336   5.249   1.502   4.323  0.9373 -0.3098 -1.1827
   25MOL0     H 3337   5.532   1.174   4.536 -2.1427 -1.5040 -0.4598
   25MOL0     H 3338   5.747   1.082   4.613  1.3631  1.2806 -1.4361
   25MOL0     H 3339   5.979   1.124   4.475 -1.8262  0.7326 -0.2741
   25MOL0     H 3340   5.944   1.066   4.630 -0.0354  2.6326 -0.7981
   25MOL0     H 3341   6.159   0.935   4.448  4.5925 -1.7545  2.9243
   25MOL0     H 3342   6.184   1.090   4.542  1.2889 -1.1370  0.3378
   25MOL0     H 3343   6.153   0.982   4.749 -0.5915  0.5084  0.5470
   25MOL0     H 3344   6.101   0.833   4.658 -1.7257  1.6636  0.0688
   25MOL0     H 3345   6.342   0.849   4.553  0.7045  2.5679 -0.7428
   25MOL0     H 3346   6.339   0.800   4.726  1.5949 -0.0403  0.2962
   25MOL0     H 3347   6.369   1.016   4.799  1.1727  0.1118  0.9264
   25MOL0     H 3348   6.373   1.086   4.637  0.9713  0.9976  0.9480
   25MOL0     H 3349   6.567   0.882   4.750 -4.0305  0.0606  1.3852
   25MOL0     H 3350   6.601   0.979   4.605 -1.7940 -0.2370 -1.9776
   25MOL0     H 3351   6.525   1.109   4.865 -0.6831 -2.1463  0.2302
   25MOL0     H 3352   6.580   1.189   4.718 -2.0720 -2.9414 -2.6786
   25MOL0     H 3353   6.757   1.200   4.882  0.8338  0.1405 -0.1657
   25MOL0     H 3354   6.760   1.022   4.906 -1.0610 -0.4236 -0.2548
   25MOL0     H 3355   5.770   0.852   4.262  1.4915  0.0694  1.2789
   25MOL0     H 3356   5.583   0.969   4.169  0.5862  4.5588 -0.9026
   25MOL0     H 3357   5.187   1.091   4.211 -0.2744 -0.1908  0.7110
   25MOL0     H 3358   4.970   1.166   4.094  0.6452 -0.2187 -1.8872
   25MOL0     H 3359   3.828   1.775   2.730  0.3476  0.8068  1.6234
   25MOL0     H 3360   3.590   1.736   2.624  1.1746  0.6638 -1.8106
   25MOL0     H 3361   3.163   1.609   2.811 -1.6467  0.1890  0.5146
   25MOL0     H 3362   2.950   1.617   2.742  1.6149  1.5383  1.0985
   25MOL0     H 3363   2.790   1.674   2.575  0.7956 -0.0579 -1.1279
   25MOL0     H 3364   2.717   1.524   2.652  0.6739 -1.4894  0.3128
   25MOL0     H 3365   2.599   1.505   2.421  1.5176 -0.4315 -1.0569
   25MOL0     H 3366   2.659   1.661   2.377 -2.6460  0.3565 -0.7709
   25MOL0     H 3367   2.550   1.727   2.616  1.2798  0.6817 -0.4459
   25MOL0     H 3368   2.453   1.585   2.598 -1.9834 -0.5097 -1.3704
   25MOL0     H 3369   2.323   1.747   2.509  0.3409 -0.0288  0.5224
   25MOL0     H 3370   2.465   1.833   2.439 -2.2815  0.3961 -0.4180
   25MOL0     H 3371   2.323   1.561   2.138  0.7597 -0.7592  0.4363
   25MOL0     H 3372   3.059   1.351   2.391  0.8492  2.4442 -1.8617
   25MOL0     H 3373   3.240   1.274   2.373 -0.1679 -1.2191  0.7831
   25MOL0     H 3374   3.367   1.410   2.396 -0.3828 -0.5108 -0.5707
   25MOL0     H 3375   3.369   1.271   2.493 -0.1694  0.4300  2.1427
   26MOL0     O 3376   7.293   8.506   0.535  0.1946  0.3619 -0.3332
   26MOL0     C 3377   7.385   8.501   0.456 -0.9816  0.2147  0.4882
   26MOL0     O 3378   7.371   8.511   0.326  0.0701  0.1414  0.3307
   26MOL0     C 3379   7.262   8.572   0.274 -0.1788  0.3657  1.2798
   26MOL0     C 3380   7.223   8.697   0.322 -0.0879 -0.0045 -0.6065
   26MOL0     C 3381   7.108   8.763   0.270 -0.7335  0.2757 -0.4433
   26MOL0     C 3382   7.045   8.712   0.153 -0.1321 -0.0763  0.4184
   26MOL0     O 3383   6.943   8.784   0.095 -0.8957 -0.1858  0.8354
   26MOL0     C 3384   6.845   8.714   0.023  0.6021  0.2316  0.1430
   26MOL0     C 3385   6.724   8.805   0.006  0.1030  0.7310 -1.1229
   26MOL0     C 3386   6.645   8.821   0.138 -0.3445 -0.0690 -0.1762
   26MOL0     C 3387   6.543   8.936   0.126 -0.8912  1.0471 -0.3924
   26MOL0     C 3388   6.436   8.911   0.240  0.2972  0.1103  0.7597
   26MOL0     C 3389   6.302   8.992   0.217 -0.4212  0.3475 -0.0438
   26MOL0     C 3390   6.201   8.923   0.129 -0.0988  0.1674  0.9484
   26MOL0     C 3391   6.135   9.030   0.048 -0.3266 -0.2942 -0.2934
   26MOL0     N 3392   6.233   9.099  -0.038  0.7837  0.3691  0.5012
   26MOL0     C 3393   6.226   9.235  -0.059 -0.3669  0.4949 -1.0300
   26MOL0     C 3394   6.325   9.258  -0.145 -0.2119 -0.1049  0.7280
   26MOL0     C 3395   6.367   9.398  -0.178  0.4370 -0.0630 -1.2726
   26MOL0     C 3396   6.484   9.443  -0.087 -0.0047 -0.3755  0.4657
   26MOL0     C 3397   6.611   9.356  -0.106 -0.3480 -0.4056 -0.5263
   26MOL0     C 3398   6.738   9.438  -0.083 -0.1429  0.1072  0.5318
   26MOL0     O 3399   6.839   9.338  -0.103  0.0833 -0.9810  0.8905
   26MOL0     C 3400   6.966   9.397  -0.119 -0.0105  0.6812  0.0760
   26MOL0     C 3401   7.059   9.314  -0.181 -1.0951  0.2917 -0.4623
   26MOL0     C 3402   7.187   9.368  -0.204 -0.5227 -0.3389  0.3975
   26MOL0     C 3403   7.227   9.497  -0.152  0.2048 -0.3118 -0.4265
   26MOL0     C 3404   7.366   9.545  -0.162  0.1510 -1.2580  0.0686
   26MOL0     O 3405   7.438   9.489  -0.266 -0.6580 -0.2238  0.5223
   26MOL0     C 3406   7.574   9.504  -0.270 -0.0792  0.5742 -0.4883
   26MOL0     C 3407   7.634   9.597  -0.354 -0.7374 -0.4558  0.0243
   26MOL0     C 3408   7.773   9.621  -0.359 -0.1518 -0.5443 -0.9814
   26MOL0     C 3409   7.861   9.541  -0.286  0.2166  0.3954 -0.2863
   26MOL0     O 3410   7.997   9.554  -0.300  0.5095  0.1112 -0.1222
   26MOL0     C 3411   8.089   9.470  -0.222  0.2124  0.0394 -1.2554
   26MOL0     C 3412   8.233   9.510  -0.252 -0.2956 -0.5071 -0.3853
   26MOL0     C 3413   8.258   9.666  -0.232  0.4153  1.1127  0.3250
   26MOL0     C 3414   8.399   9.697  -0.282 -0.0040 -0.0775 -0.6036
   26MOL0     C 3415   8.502   9.643  -0.185  0.2087  0.3615 -0.2201
   26MOL0     C 3416   8.636   9.714  -0.209  0.5878 -1.2533 -0.4685
   26MOL0     C 3417   8.736   9.671  -0.098  0.4072  0.4929 -0.2636
   26MOL0     C 3418   8.882   9.686  -0.141 -0.4196  0.1150  0.0896
   26MOL0    Cl 3419   8.968   9.532  -0.182 -0.0849  0.0146 -0.2377
   26MOL0     C 3420   7.803   9.454  -0.188  0.2672  0.6038  0.0832
   26MOL0     C 3421   7.666   9.440  -0.173  0.7672 -0.4848 -0.7403
   26MOL0     O 3422   7.407   9.623  -0.074  0.8417 -0.1671  0.2612
   26MOL0     C 3423   7.134   9.577  -0.090  0.7090 -0.4882  0.4376
   26MOL0     C 3424   7.000   9.527  -0.080 -0.6449  0.1664  0.2767
   26MOL0     N 3425   6.374   9.139  -0.196 -0.7906  0.1361  0.6290
   26MOL0     N 3426   6.309   9.046  -0.140  0.1260 -0.2495  0.0138
   26MOL0     C 3427   7.088   8.590   0.104 -0.2034  0.2967 -0.0406
   26MOL0     C 3428   7.190   8.521   0.165  0.0734  0.1040  0.7971
   26MOL0     C 3429   7.510   8.433   0.491 -1.1065  0.3039 -0.1991
   26MOL0     C 3430   7.628   8.489   0.453 -0.0646  0.0148  0.4779
   26MOL0     C 3431   7.749   8.426   0.473  0.9398 -0.4173  0.3381
   26MOL0     C 3432   7.754   8.316   0.557  0.2503  0.1710  0.3587
   26MOL0     O 3433   7.879   8.269   0.580 -0.0905  0.8130 -0.2093
   26MOL0     C 3434   7.888   8.124   0.611  0.6389 -0.0500 -0.1128
   26MOL0     C 3435   8.039   8.104   0.640  0.4598  0.0409  0.3376
   26MOL0     C 3436   8.075   7.981   0.721 -0.5231 -0.2658  0.1189
   26MOL0     C 3437   8.230   7.991   0.734 -0.1185  0.0055 -0.8727
   26MOL0     C 3438   8.279   7.878   0.816 -0.2988 -0.4985 -0.3285
   26MOL0     C 3439   8.360   7.797   0.867  0.6518  0.5255  0.6841
   26MOL0     C 3440   7.641   8.261   0.600 -0.3689 -0.6053 -0.6278
   26MOL0     C 3441   7.510   8.314   0.572 -0.5561 -0.3235  0.1124
   26MOL0     C 3442   7.387   8.241   0.625 -0.2344  0.6081 -0.1469
   26MOL0     H 3443   7.280   8.748   0.400 -0.9306 -1.7488  1.2475
   26MOL0     H 3444   7.064   8.859   0.296  0.5987  1.4820 -2.3589
   26MOL0     H 3445   6.881   8.684  -0.076  1.4453 -0.8391  0.7524
   26MOL0     H 3446   6.805   8.625   0.072 -0.8455  1.3054  1.0029
   26MOL0     H 3447   6.665   8.768  -0.078 -1.0068  0.9366 -0.4597
   26MOL0     H 3448   6.761   8.904  -0.023 -2.0769  1.9064 -0.1495
   26MOL0     H 3449   6.715   8.847   0.219  0.4914 -1.1261 -0.5407
   26MOL0     H 3450   6.599   8.726   0.165  1.6673 -1.0327  0.0072
   26MOL0     H 3451   6.588   9.036   0.131  2.3622 -0.1728 -2.1729
   26MOL0     H 3452   6.497   8.925   0.028 -1.1900 -2.0282 -0.0261
   26MOL0     H 3453   6.408   8.805   0.241 -2.3221  0.6828 -1.6543
   26MOL0     H 3454   6.491   8.931   0.333  1.5131  0.5803 -0.0314
   26MOL0     H 3455   6.266   8.993   0.320  0.0185  2.3069  0.1356
   26MOL0     H 3456   6.321   9.093   0.180 -0.4651  0.3515 -0.0548
   26MOL0     H 3457   6.124   8.878   0.193 -0.7094 -0.1118  0.0244
   26MOL0     H 3458   6.248   8.842   0.073  1.2172  3.5166 -3.4092
   26MOL0     H 3459   6.056   8.988  -0.015 -1.1449 -0.8716  1.0905
   26MOL0     H 3460   6.093   9.106   0.114  0.7829 -0.2924  0.4277
   26MOL0     H 3461   6.176   9.313  -0.002  3.8160  1.1494  2.2985
   26MOL0     H 3462   6.400   9.415  -0.281 -0.2595  0.9093 -1.3502
   26MOL0     H 3463   6.282   9.466  -0.165  0.3599 -0.2264 -0.9123
   26MOL0     H 3464   6.517   9.544  -0.112  2.2495 -0.7492  1.6008
   26MOL0     H 3465   6.459   9.437   0.019 -0.7070  0.6258  0.3644
   26MOL0     H 3466   6.628   9.329  -0.211  1.2970  4.0881 -1.6573
   26MOL0     H 3467   6.611   9.264  -0.047  2.0019 -0.3514 -0.3772
   26MOL0     H 3468   6.737   9.478   0.019  1.1205 -0.7785  0.9110
   26MOL0     H 3469   6.736   9.511  -0.164 -2.1814 -0.6014 -0.1257
   26MOL0     H 3470   7.038   9.210  -0.201 -3.2178  1.3038 -4.6620
   26MOL0     H 3471   7.271   9.313  -0.246  2.5272  3.7829  0.4375
   26MOL0     H 3472   7.566   9.651  -0.419  1.2273 -0.1399 -1.8939
   26MOL0     H 3473   7.822   9.693  -0.425  0.1575 -0.8344 -1.0750
   26MOL0     H 3474   8.075   9.489  -0.115  0.4700  1.0562 -1.3875
   26MOL0     H 3475   8.084   9.362  -0.240  2.6795 -0.1092 -1.4115
   26MOL0     H 3476   8.302   9.454  -0.189  0.7191 -0.6594 -1.6165
   26MOL0     H 3477   8.251   9.484  -0.356 -0.3559 -0.7506 -0.3354
   26MOL0     H 3478   8.193   9.732  -0.291  0.7151 -0.4268 -1.8238
   26MOL0     H 3479   8.244   9.685  -0.125 -0.1208 -1.5690  0.8083
   26MOL0     H 3480   8.406   9.806  -0.285 -2.5840  0.1935  0.6173
   26MOL0     H 3481   8.422   9.660  -0.383 -0.1131  1.2510 -1.1407
   26MOL0     H 3482   8.517   9.534  -0.188  1.5836  0.4631  1.5563
   26MOL0     H 3483   8.457   9.657  -0.087  0.4015 -0.5528  0.0107
   26MOL0     H 3484   8.675   9.680  -0.306  0.0732 -2.7820 -0.1722
   26MOL0     H 3485   8.619   9.822  -0.209 -2.5055 -1.6487 -0.4517
   26MOL0     H 3486   8.713   9.567  -0.072 -2.2889  1.5926  2.3998
   26MOL0     H 3487   8.721   9.724  -0.004  2.0078  0.3735  0.0889
   26MOL0     H 3488   8.883   9.741  -0.235 -1.2970 -1.0323 -0.6260
   26MOL0     H 3489   8.943   9.735  -0.065  0.9559  0.7020 -1.3448
   26MOL0     H 3490   7.859   9.386  -0.124 -0.0900  0.3020  0.0774
   26MOL0     H 3491   7.620   9.370  -0.104 -0.7478  0.0205 -1.1956
   26MOL0     H 3492   7.156   9.671  -0.040 -1.2609 -1.5296  3.5715
   26MOL0     H 3493   6.935   9.589  -0.019  1.4196  2.1687  0.5883
   26MOL0     H 3494   7.037   8.546   0.019 -0.4810 -0.7999  0.6722
   26MOL0     H 3495   7.241   8.432   0.128 -2.1158 -1.3302  1.0687
   26MOL0     H 3496   7.625   8.589   0.412  1.1094  0.3933  1.2764
   26MOL0     H 3497   7.837   8.468   0.425  0.7402 -2.1057 -1.6595
   26MOL0     H 3498   7.853   8.059   0.530 -3.1627  0.9033  0.5557
   26MOL0     H 3499   7.830   8.103   0.701  2.4940 -0.5104  1.0252
   26MOL0     H 3500   8.060   8.197   0.693 -0.3851 -0.2306  1.1650
   26MOL0     H 3501   8.099   8.098   0.549  0.1811  0.1555  0.1426
   26MOL0     H 3502   8.049   7.886   0.673 -0.6333  1.3591 -3.3458
   26MOL0     H 3503   8.021   7.991   0.815  2.1532  1.4267  1.5992
   26MOL0     H 3504   8.276   7.976   0.637 -0.1810 -0.8985 -0.7754
   26MOL0     H 3505   8.267   8.087   0.772  0.6202  1.1140 -4.0812
   26MOL0     H 3506   8.440   7.730   0.892  2.1460  0.6096 -3.1559
   26MOL0     H 3507   7.649   8.181   0.672  2.0663  0.4939  0.4203
   26MOL0     H 3508   7.413   8.148   0.676 -0.7299  0.3402 -0.3732
   26MOL0     H 3509   7.328   8.295   0.700  0.3077 -2.9025  3.1577
   26MOL0     H 3510   7.317   8.219   0.544 -0.8402  1.2397  0.1979
   27MOL0     O 3511  10.160   6.654   3.175 -0.5415 -0.5148  0.1043
   27MOL0     C 3512  10.117   6.686   3.278 -0.7267  0.0308  0.2759
   27MOL0     O 3513  10.178   6.788   3.363 -0.0222 -0.0552 -0.2099
   27MOL0     C 3514  10.315   6.819   3.340  0.5176  0.4594 -0.0075
   27MOL0     C 3515  10.355   6.900   3.233 -0.3884 -0.2911 -0.4397
   27MOL0     C 3516  10.495   6.918   3.216 -0.7266  0.0557 -0.3763
   27MOL0     C 3517  10.592   6.864   3.301 -1.0589  0.6521 -0.4465
   27MOL0     O 3518  10.719   6.897   3.298  0.6674  0.3971  0.2194
   27MOL0     C 3519  10.783   6.972   3.398 -1.3376  0.4042  0.0126
   27MOL0     C 3520  10.897   7.049   3.337  0.5692  0.3468  0.8903
   27MOL0     C 3521  11.017   6.965   3.299 -0.1660  0.1950 -0.3664
   27MOL0     C 3522  11.149   7.050   3.263 -0.4457  0.6883  0.0770
   27MOL0     C 3523  11.273   6.963   3.267  0.4751  0.7005  0.2982
   27MOL0     C 3524  11.321   6.944   3.413 -0.3042 -0.0130  0.2477
   27MOL0     C 3525  11.412   7.068   3.455  0.7108 -0.5898 -0.6877
   27MOL0     C 3526  11.441   7.069   3.607  0.0830  0.5638  0.0698
   27MOL0     N 3527  11.500   7.191   3.665  0.1460  0.2556  0.9997
   27MOL0     C 3528  11.613   7.234   3.611 -0.1146 -0.0354  0.3953
   27MOL0     C 3529  11.645   7.335   3.700  0.5286  0.7683 -0.4635
   27MOL0     C 3530  11.776   7.407   3.720 -0.7281  0.6830  0.0386
   27MOL0     C 3531  11.887   7.308   3.758 -0.4051 -0.9882  0.6140
   27MOL0     C 3532  11.995   7.394   3.837 -0.4764  0.2699  0.2133
   27MOL0     C 3533  12.080   7.494   3.749 -1.0214  0.6517  0.1039
   27MOL0     O 3534  12.115   7.432   3.631  0.0141  0.0023  0.1099
   27MOL0     C 3535  12.227   7.353   3.625 -0.4849  0.3700 -0.1455
   27MOL0     C 3536  12.319   7.339   3.724 -0.5376  0.2492  0.3960
   27MOL0     C 3537  12.431   7.252   3.721  0.5898  0.4162 -0.2352
   27MOL0     C 3538  12.460   7.191   3.598  0.7941  1.0498 -0.6011
   27MOL0     C 3539  12.583   7.117   3.595  0.9734  0.3772  0.2104
   27MOL0     O 3540  12.651   7.097   3.708 -0.3346  0.1010  0.0964
   27MOL0     C 3541  12.781   7.046   3.700 -0.8766 -0.9217 -0.4539
   27MOL0     C 3542  12.804   6.917   3.762 -0.6733  0.5548  0.4086
   27MOL0     C 3543  12.929   6.856   3.761  0.0707  0.1735  0.6291
   27MOL0     C 3544  13.037   6.931   3.705  0.3777  0.8631  0.4539
   27MOL0     O 3545  13.154   6.872   3.723  0.4184 -0.1570 -0.1822
   27MOL0     C 3546  13.209   6.880   3.857 -0.4883 -0.4260 -0.0914
   27MOL0     C 3547  13.355   6.899   3.837  0.6054 -0.5058  0.6297
   27MOL0     C 3548  13.396   7.047   3.820  0.3374  0.3941 -0.8165
   27MOL0     C 3549  13.532   7.070   3.744  0.3361 -0.2517 -0.6810
   27MOL0     C 3550  13.579   7.213   3.775  0.6205 -0.0385 -0.2674
   27MOL0     C 3551  13.699   7.247   3.689  0.1487  0.2857 -0.5511
   27MOL0     C 3552  13.662   7.292   3.536  1.1202 -0.1561 -0.9518
   27MOL0     C 3553  13.632   7.438   3.519 -0.7506 -0.1820  0.9204
   27MOL0    Cl 3554  13.592   7.468   3.351 -0.2026 -0.0259  0.6269
   27MOL0     C 3555  13.013   7.047   3.636  0.7415  0.1160  0.6396
   27MOL0     C 3556  12.893   7.109   3.637  0.3263 -0.0293  0.4972
   27MOL0     O 3557  12.611   7.079   3.483 -0.3339 -0.4145 -0.2024
   27MOL0     C 3558  12.365   7.197   3.491 -0.4295 -0.2206  0.5187
   27MOL0     C 3559  12.249   7.275   3.508 -0.5815  0.3975  0.7805
   27MOL0     N 3560  11.533   7.363   3.779 -1.1104 -0.0897 -0.1781
   27MOL0     N 3561  11.446   7.275   3.755 -0.1202 -0.8010  0.5440
   27MOL0     C 3562  10.555   6.773   3.392  0.3229 -0.1789  0.3307
   27MOL0     C 3563  10.414   6.755   3.413 -1.0706 -0.4249 -0.0263
   27MOL0     C 3564   9.987   6.619   3.324 -0.4537  0.7267  0.7140
   27MOL0     C 3565   9.943   6.663   3.448 -0.4954  0.1843  0.3182
   27MOL0     C 3566   9.832   6.603   3.513 -0.4627  0.2436  0.4822
   27MOL0     C 3567   9.765   6.495   3.462 -0.4585  0.0400  0.1322
   27MOL0     O 3568   9.664   6.448   3.539 -0.2827 -0.3307 -0.8678
   27MOL0     C 3569   9.590   6.333   3.489  0.4560  0.4190  0.4610
   27MOL0     C 3570   9.523   6.265   3.603 -0.6529 -0.5542  0.1799
   27MOL0     C 3571   9.415   6.162   3.554 -0.2290  0.4877 -0.1230
   27MOL0     C 3572   9.476   6.034   3.499 -0.9229 -0.2690  0.0067
   27MOL0     C 3573   9.513   5.943   3.605  0.9195  1.0230  0.1216
   27MOL0     C 3574   9.542   5.871   3.704  0.1124 -0.1844  0.1602
   27MOL0     C 3575   9.807   6.455   3.334  0.3061  0.4999 -0.5989
   27MOL0     C 3576   9.914   6.513   3.265 -0.0526 -0.1952  1.1567
   27MOL0     C 3577   9.937   6.459   3.123  0.0489  0.7637  0.1672
   27MOL0     H 3578  10.280   6.949   3.172 -1.0967  2.8247  2.6315
   27MOL0     H 3579  10.515   6.996   3.143  0.0073  0.2204 -0.0084
   27MOL0     H 3580  10.719   7.051   3.439  1.3662  2.4638  0.5039
   27MOL0     H 3581  10.809   6.912   3.486 -1.3720  0.5410  0.1162
   27MOL0     H 3582  10.925   7.134   3.400  0.9104 -0.2178  1.5155
   27MOL0     H 3583  10.861   7.093   3.244 -1.9389 -1.3703  0.9717
   27MOL0     H 3584  10.995   6.907   3.209 -1.3235  0.1025 -0.0304
   27MOL0     H 3585  11.047   6.901   3.382  1.8256  1.9481  0.3778
   27MOL0     H 3586  11.148   7.092   3.161  2.3759  2.1307  0.5479
   27MOL0     H 3587  11.161   7.139   3.325  1.1442  0.4930  0.0848
   27MOL0     H 3588  11.250   6.872   3.212 -0.3919  1.0479  0.0783
   27MOL0     H 3589  11.352   7.011   3.208  2.2046 -2.2553 -0.0162
   27MOL0     H 3590  11.244   6.932   3.489  0.1167 -3.1109  0.3102
   27MOL0     H 3591  11.380   6.852   3.411 -0.6920 -0.2573 -0.2715
   27MOL0     H 3592  11.357   7.160   3.430  1.8606  0.7330  1.3474
   27MOL0     H 3593  11.505   7.082   3.398  0.7181 -0.2478 -0.5963
   27MOL0     H 3594  11.349   7.038   3.656  1.2483 -0.9398  1.4106
   27MOL0     H 3595  11.513   6.987   3.615 -0.7431 -0.1983 -0.1681
   27MOL0     H 3596  11.673   7.191   3.531  1.2106  2.4307 -0.0573
   27MOL0     H 3597  11.812   7.461   3.632  1.7758  0.4210  0.8076
   27MOL0     H 3598  11.766   7.473   3.807  2.0236 -2.3021  2.9355
   27MOL0     H 3599  11.846   7.230   3.823 -0.0328 -1.6409  0.0784
   27MOL0     H 3600  11.926   7.265   3.665 -0.7921  2.3724 -1.2693
   27MOL0     H 3601  12.062   7.318   3.878  2.5073  2.1350 -0.8608
   27MOL0     H 3602  11.953   7.445   3.924  0.7929 -1.4953  1.9567
   27MOL0     H 3603  12.157   7.542   3.809  0.5148 -3.1848  1.5563
   27MOL0     H 3604  12.007   7.572   3.727  0.8013  2.4404  0.1752
   27MOL0     H 3605  12.309   7.404   3.810  2.7372 -1.6592  2.4522
   27MOL0     H 3606  12.503   7.245   3.801 -0.4348 -1.7128  0.5686
   27MOL0     H 3607  12.726   6.857   3.808 -0.3419 -1.9228 -2.0015
   27MOL0     H 3608  12.940   6.762   3.813 -0.6649 -0.0689  0.3542
   27MOL0     H 3609  13.184   6.966   3.919 -0.1359 -0.1616 -0.3115
   27MOL0     H 3610  13.191   6.792   3.919 -1.6150  0.2392  0.5582
   27MOL0     H 3611  13.411   6.840   3.910  0.6435  0.0275  1.0303
   27MOL0     H 3612  13.371   6.860   3.736 -0.4934 -0.2862  0.3564
   27MOL0     H 3613  13.317   7.108   3.775 -0.3562  0.5074  0.5196
   27MOL0     H 3614  13.400   7.086   3.922  1.8702 -0.8118 -0.3757
   27MOL0     H 3615  13.523   7.043   3.639 -2.0825 -1.6515 -0.1945
   27MOL0     H 3616  13.607   7.002   3.785  2.3193  0.8842 -2.2422
   27MOL0     H 3617  13.596   7.225   3.883  0.4644  2.5334 -0.4551
   27MOL0     H 3618  13.487   7.270   3.756  0.6851  0.0435 -0.3345
   27MOL0     H 3619  13.760   7.328   3.729 -0.7727  0.8168 -0.1882
   27MOL0     H 3620  13.754   7.155   3.669  0.6618  1.1549 -3.6750
   27MOL0     H 3621  13.571   7.244   3.499  0.9349 -1.0544  0.5890
   27MOL0     H 3622  13.745   7.258   3.472  0.1851 -1.6266 -1.4303
   27MOL0     H 3623  13.548   7.463   3.585  1.1666  0.6466  3.1747
   27MOL0     H 3624  13.718   7.501   3.541 -1.4747  0.7215  1.2546
   27MOL0     H 3625  13.089   7.096   3.575  0.7836  1.2959  1.6173
   27MOL0     H 3626  12.886   7.202   3.581  0.0740 -0.4860 -0.2401
   27MOL0     H 3627  12.388   7.137   3.404  0.5661 -1.4296  1.5691
   27MOL0     H 3628  12.182   7.279   3.422  0.2164 -2.3171 -0.0655
   27MOL0     H 3629  10.626   6.728   3.461 -1.5238  0.2355  2.6632
   27MOL0     H 3630  10.381   6.700   3.500  0.6774 -0.5215  0.6131
   27MOL0     H 3631   9.990   6.746   3.499  2.2612  0.2008 -1.9869
   27MOL0     H 3632   9.795   6.637   3.609  0.6776  0.2896  0.9276
   27MOL0     H 3633   9.653   6.252   3.452 -0.4856  0.1811 -0.6784
   27MOL0     H 3634   9.516   6.363   3.413  1.7169 -0.3551 -1.1394
   27MOL0     H 3635   9.474   6.344   3.660  0.7636  0.1706  0.4284
   27MOL0     H 3636   9.596   6.215   3.668  0.3986  2.2159  1.2848
   27MOL0     H 3637   9.341   6.204   3.485 -1.2301 -0.6484  0.2300
   27MOL0     H 3638   9.359   6.146   3.647 -1.0602  1.1219 -0.5048
   27MOL0     H 3639   9.403   5.976   3.441 -1.6305 -1.7454  2.2398
   27MOL0     H 3640   9.564   6.052   3.437 -0.1995 -2.0391  0.4719
   27MOL0     H 3641   9.559   5.818   3.796 -3.7338 -1.9340  0.0606
   27MOL0     H 3642   9.742   6.380   3.292  3.0261 -1.4464 -1.6004
   27MOL0     H 3643   9.957   6.551   3.066  1.6446 -0.3939 -1.2599
   27MOL0     H 3644  10.025   6.394   3.121  0.3140  0.9294  2.9452
   27MOL0     H 3645   9.846   6.408   3.090  0.1599 -0.1846  1.2805
   28MOL0     O 3646   8.637   7.289  10.126 -0.3906 -0.0227 -0.5586
   28MOL0     C 3647   8.605   7.397  10.072  0.5833  0.5341  0.5051
   28MOL0     O 3648   8.661   7.516  10.086 -0.3087 -0.3367  0.2100
   28MOL0     C 3649   8.777   7.526  10.153 -0.1617 -0.1530  0.0026
   28MOL0     C 3650   8.801   7.489  10.289 -1.7427  0.8136 -0.4519
   28MOL0     C 3651   8.925   7.517  10.347 -0.3381 -0.0852 -0.3605
   28MOL0     C 3652   9.031   7.576  10.272 -0.9020  0.5532 -0.1662
   28MOL0     O 3653   9.155   7.612  10.329 -0.3730 -0.1337  0.0876
   28MOL0     C 3654   9.173   7.620  10.476  0.1631  0.9404  0.1782
   28MOL0     C 3655   9.286   7.718  10.510 -0.6508  0.2718  0.3547
   28MOL0     C 3656   9.426   7.671  10.464  0.1846  0.0399  0.2893
   28MOL0     C 3657   9.549   7.727  10.526  0.7771  0.8654 -0.7249
   28MOL0     C 3658   9.689   7.690  10.468 -0.5119  0.2278 -0.3985
   28MOL0     C 3659   9.800   7.806  10.490  0.4828  0.0447 -0.7687
   28MOL0     C 3660   9.932   7.775  10.426  0.5156  0.1993  0.1494
   28MOL0     C 3661   9.930   7.806  10.271  0.0288 -0.3173  0.0904
   28MOL0     N 3662   9.968   7.950  10.242 -0.4313  0.2541 -0.0767
   28MOL0     C 3663   9.917   8.064  10.301 -0.3632 -0.1252  0.0999
   28MOL0     C 3664   9.999   8.163  10.260 -0.1123  0.2202 -0.4590
   28MOL0     C 3665   9.995   8.310  10.292  1.3222  0.6657 -0.4168
   28MOL0     C 3666  10.003   8.324  10.447 -0.2594  0.4154  0.2741
   28MOL0     C 3667   9.962   8.460  10.483 -0.4453  0.0085  0.2912
   28MOL0     C 3668  10.015   8.479  10.628  0.4600  0.1302 -0.3281
   28MOL0     O 3669  10.157   8.504  10.615  0.6842 -0.1746  0.6100
   28MOL0     C 3670  10.206   8.629  10.608 -0.5325  0.2354  0.0368
   28MOL0     C 3671  10.344   8.624  10.591  0.0391 -0.5328 -0.0902
   28MOL0     C 3672  10.424   8.737  10.570  0.3353  0.1230  0.2045
   28MOL0     C 3673  10.369   8.869  10.591  0.3459  0.3858  0.5253
   28MOL0     C 3674  10.457   8.988  10.597 -0.4810 -0.1206 -0.9751
   28MOL0     O 3675  10.585   8.966  10.591 -0.1593 -0.2512 -0.5890
   28MOL0     C 3676  10.667   9.072  10.581 -0.1260 -0.0162  0.8447
   28MOL0     C 3677  10.733   9.102  10.461  0.1968 -0.6250 -0.5219
   28MOL0     C 3678  10.821   9.211  10.454  0.3877  0.3973  0.3638
   28MOL0     C 3679  10.853   9.290  10.560  0.5330  0.4249 -0.7243
   28MOL0     O 3680  10.963   9.371  10.542  0.5472  0.3541 -0.1462
   28MOL0     C 3681  10.991   9.444  10.664  0.5304  0.8993 -0.2484
   28MOL0     C 3682  11.080   9.572  10.657  0.0294  0.1950  0.6520
   28MOL0     C 3683  11.037   9.670  10.547 -0.7470 -0.3226 -0.3835
   28MOL0     C 3684  11.109   9.808  10.560  0.3069 -0.5356  0.9623
   28MOL0     C 3685  11.247   9.800  10.499 -0.8884 -0.3642  0.0164
   28MOL0     C 3686  11.333   9.919  10.538 -0.4486 -0.4939  0.3582
   28MOL0     C 3687  11.300  10.053  10.479 -0.7191 -0.2988 -0.6077
   28MOL0     C 3688  11.235  10.149  10.578  0.5704 -0.6543 -0.2860
   28MOL0    Cl 3689  11.322  10.183  10.735  0.2314  0.2617 -0.0705
   28MOL0     C 3690  10.782   9.255  10.686 -0.1754  0.0835  0.3873
   28MOL0     C 3691  10.692   9.151  10.691  0.1809  0.0004  0.2938
   28MOL0     O 3692  10.404   9.096  10.605 -0.5620  0.2404 -0.3697
   28MOL0     C 3693  10.227   8.874  10.616  0.5068 -0.1754  0.3058
   28MOL0     C 3694  10.141   8.755  10.620  0.3961 -0.2678 -0.0214
   28MOL0     N 3695  10.092   8.117  10.180 -0.7338  0.6787  0.7051
   28MOL0     N 3696  10.071   7.993  10.160  0.4105  0.0603  0.0194
   28MOL0     C 3697   9.007   7.597  10.126 -0.2848 -0.7247  0.2039
   28MOL0     C 3698   8.877   7.580  10.071 -0.3035 -0.5727  0.3811
   28MOL0     C 3699   8.480   7.401   9.978  0.1875  0.4363 -0.1366
   28MOL0     C 3700   8.467   7.510   9.890 -0.5654  0.2889 -0.1767
   28MOL0     C 3701   8.355   7.520   9.812  0.4954  0.2554  0.3644
   28MOL0     C 3702   8.251   7.420   9.808  0.3213 -1.7717 -1.0637
   28MOL0     O 3703   8.133   7.423   9.737 -0.3062  0.0950  0.2817
   28MOL0     C 3704   8.115   7.538   9.647 -0.3072  0.2056  0.3051
   28MOL0     C 3705   7.970   7.552   9.594 -0.3689 -0.1006  0.1624
   28MOL0     C 3706   7.911   7.428   9.523 -0.2518  0.3929 -0.2427
   28MOL0     C 3707   7.780   7.444   9.459  0.0236 -0.3979 -0.3254
   28MOL0     C 3708   7.680   7.495   9.556  1.0567  0.3133 -0.1752
   28MOL0     C 3709   7.615   7.542   9.649 -0.3743  0.5986  0.2649
   28MOL0     C 3710   8.261   7.322   9.899  0.0947  0.5287 -1.2277
   28MOL0     C 3711   8.371   7.315   9.985  0.6036  1.0185 -0.5967
   28MOL0     C 3712   8.366   7.194  10.078  0.1199  0.2400 -0.1678
   28MOL0     H 3713   8.722   7.437  10.343 -0.4992  1.2775  1.9516
   28MOL0     H 3714   8.937   7.488  10.451  0.0298  0.9937 -0.0879
   28MOL0     H 3715   9.086   7.673  10.514 -0.3555  0.7179 -0.6792
   28MOL0     H 3716   9.200   7.523  10.519  0.3404  1.0642  0.3475
   28MOL0     H 3717   9.276   7.740  10.616 -3.8688 -0.4776  0.2845
   28MOL0     H 3718   9.265   7.811  10.456 -1.6110  0.7084  1.4503
   28MOL0     H 3719   9.437   7.661  10.356  2.6238 -0.4115  0.5209
   28MOL0     H 3720   9.422   7.567  10.497 -1.1790  0.1455  0.5208
   28MOL0     H 3721   9.536   7.834  10.513  2.0192  1.6411  3.2345
   28MOL0     H 3722   9.545   7.718  10.635 -0.8855  2.2535 -0.6323
   28MOL0     H 3723   9.733   7.595  10.502 -0.2629 -0.0159 -1.3678
   28MOL0     H 3724   9.681   7.672  10.361 -4.2606  0.0792 -0.2133
   28MOL0     H 3725   9.753   7.899  10.457 -0.5809 -0.4733 -0.7391
   28MOL0     H 3726   9.801   7.826  10.597 -4.0326 -0.0455 -0.5290
   28MOL0     H 3727   9.942   7.667  10.438  0.2222  0.3916  2.4101
   28MOL0     H 3728  10.016   7.829  10.470  1.5018 -2.0893  1.2439
   28MOL0     H 3729  10.015   7.751  10.228  0.3581  0.0307  0.2858
   28MOL0     H 3730   9.837   7.785  10.219 -0.3826  0.2813  0.5722
   28MOL0     H 3731   9.843   8.083  10.378  1.0853  1.3526  1.1935
   28MOL0     H 3732  10.078   8.372  10.257  0.0444  3.0610  0.5405
   28MOL0     H 3733   9.904   8.351  10.247 -0.8603 -3.3953 -0.0958
   28MOL0     H 3734   9.937   8.258  10.505 -2.4204  0.0812 -2.3578
   28MOL0     H 3735  10.110   8.313  10.468 -0.1811  0.3031 -0.1821
   28MOL0     H 3736   9.855   8.484  10.479  0.1248  2.7812 -1.7513
   28MOL0     H 3737  10.009   8.531  10.415 -0.9335  0.0574  0.0006
   28MOL0     H 3738  10.024   8.389  10.690  5.1637  0.9548  0.5868
   28MOL0     H 3739   9.954   8.549  10.686 -1.2467 -0.5917 -1.1978
   28MOL0     H 3740  10.386   8.523  10.589  0.6058 -0.3185  0.6397
   28MOL0     H 3741  10.532   8.732  10.560  0.3773  1.6691 -0.3467
   28MOL0     H 3742  10.709   9.041  10.374 -0.5890 -1.8819  0.5453
   28MOL0     H 3743  10.881   9.218  10.363  0.0688 -3.4077 -0.2957
   28MOL0     H 3744  10.902   9.481  10.715  0.9672 -1.7735  2.7857
   28MOL0     H 3745  11.049   9.384  10.735  0.3274  2.6996  1.5580
   28MOL0     H 3746  11.073   9.626  10.752  1.2303 -1.4348  1.7318
   28MOL0     H 3747  11.183   9.539  10.639 -0.0534 -0.2066  0.9140
   28MOL0     H 3748  11.048   9.619  10.451  1.0079 -1.4944  0.3829
   28MOL0     H 3749  10.936   9.701  10.576  0.1559 -0.0049  2.8604
   28MOL0     H 3750  11.102   9.844  10.663  0.4883 -0.2144  0.8652
   28MOL0     H 3751  11.050   9.870  10.491 -0.6349 -1.4931  0.8950
   28MOL0     H 3752  11.235   9.792  10.391  1.0116  0.9935 -0.3453
   28MOL0     H 3753  11.310   9.717  10.533  0.2836 -0.5077 -2.2730
   28MOL0     H 3754  11.331   9.937  10.646 -1.7829 -0.0523  0.2841
   28MOL0     H 3755  11.438   9.895  10.519  0.1722  2.7166 -0.9350
   28MOL0     H 3756  11.235  10.033  10.393 -0.2009 -1.8758 -0.6558
   28MOL0     H 3757  11.380  10.113  10.435 -1.6359 -1.0679 -3.5989
   28MOL0     H 3758  11.217  10.237  10.516  0.1140  0.4762  1.3658
   28MOL0     H 3759  11.140  10.101  10.602 -0.2894  0.7124 -0.8417
   28MOL0     H 3760  10.818   9.312  10.771  1.7863  0.2104 -0.4641
   28MOL0     H 3761  10.647   9.138  10.789 -2.0311  2.5157 -0.2697
   28MOL0     H 3762  10.186   8.974  10.623 -0.1287 -0.5296  2.4142
   28MOL0     H 3763  10.033   8.759  10.619  0.3349  0.4722 -3.3943
   28MOL0     H 3764   9.086   7.648  10.073  1.6380  0.6557  4.0588
   28MOL0     H 3765   8.852   7.587   9.966 -0.9212  0.4145  0.5786
   28MOL0     H 3766   8.540   7.590   9.884  2.8430 -2.3067  2.1966
   28MOL0     H 3767   8.350   7.603   9.742 -0.4057 -0.4278 -0.4047
   28MOL0     H 3768   8.174   7.523   9.556  2.1258  0.7281  1.7103
   28MOL0     H 3769   8.153   7.629   9.694 -2.6459  0.9198  0.9741
   28MOL0     H 3770   7.947   7.644   9.540 -2.7180 -1.8520 -2.1152
   28MOL0     H 3771   7.904   7.565   9.681  0.0488  1.8509  0.2303
   28MOL0     H 3772   7.915   7.350   9.599  0.0161  1.1215  0.4981
   28MOL0     H 3773   7.985   7.402   9.446  0.6578  0.3817  0.6110
   28MOL0     H 3774   7.800   7.512   9.376  0.0387  0.1505  0.1266
   28MOL0     H 3775   7.744   7.351   9.414  1.1403  0.2083 -2.6227
   28MOL0     H 3776   7.579   7.584   9.741  2.6424 -0.3405  2.0340
   28MOL0     H 3777   8.168   7.266   9.906 -0.1377  0.7736 -2.1736
   28MOL0     H 3778   8.388   7.232  10.178  1.2332  2.2586 -1.1114
   28MOL0     H 3779   8.272   7.138  10.074  0.5984 -0.8541  2.1423
   28MOL0     H 3780   8.448   7.128  10.048 -0.4406  0.1258 -1.5330
   29MOL0     O 3781   9.555   1.169   6.786 -0.4603 -0.0373  0.0844
   29MOL0     C 3782   9.504   1.141   6.890  0.6430  0.5444  0.2885
   29MOL0     O 3783   9.505   1.216   7.003  0.3403 -0.5900  0.5745
   29MOL0     C 3784   9.614   1.297   7.016  0.6608  0.6711 -0.0208
   29MOL0     C 3785   9.710   1.260   7.103 -0.6825  1.2163  0.2193
   29MOL0     C 3786   9.828   1.342   7.115  0.3500 -0.4404 -0.7056
   29MOL0     C 3787   9.837   1.464   7.049 -0.6694 -0.6371 -0.2316
   29MOL0     O 3788   9.951   1.530   7.083 -0.3608  0.5768 -0.3064
   29MOL0     C 3789   9.963   1.673   7.062 -0.4857  0.3882  0.3874
   29MOL0     C 3790   9.919   1.743   7.184 -0.1710  0.8449 -0.3351
   29MOL0     C 3791   9.775   1.737   7.229 -0.6625 -0.2916  0.1993
   29MOL0     C 3792   9.748   1.834   7.349 -0.0486 -0.2186  0.4577
   29MOL0     C 3793   9.612   1.834   7.392  0.2397 -0.4606  0.7795
   29MOL0     C 3794   9.593   1.715   7.487  0.4822 -0.4763  0.3876
   29MOL0     C 3795   9.448   1.727   7.552  0.1465 -0.4970  0.3332
   29MOL0     C 3796   9.342   1.686   7.441  0.2102 -0.5313 -0.1220
   29MOL0     N 3797   9.212   1.708   7.511 -0.1901  0.5117 -0.3985
   29MOL0     C 3798   9.134   1.820   7.515 -0.1472 -0.4160  0.1434
   29MOL0     C 3799   9.017   1.784   7.564 -0.5759  0.4135 -0.2680
   29MOL0     C 3800   8.899   1.874   7.592 -0.4274  0.0716 -0.4261
   29MOL0     C 3801   8.763   1.828   7.534 -0.1032 -1.1929 -0.3378
   29MOL0     C 3802   8.662   1.942   7.539  0.7940  0.0967  0.5716
   29MOL0     C 3803   8.525   1.888   7.497  0.4465 -0.5287  0.2714
   29MOL0     O 3804   8.442   1.859   7.607 -0.3304 -0.3202  0.4789
   29MOL0     C 3805   8.308   1.839   7.574 -0.0064 -0.6312 -0.0969
   29MOL0     C 3806   8.227   1.795   7.682 -1.1242 -0.5887  0.8800
   29MOL0     C 3807   8.087   1.771   7.657  0.0911  0.1191 -0.3226
   29MOL0     C 3808   8.025   1.802   7.533 -0.3388  0.4459  0.1111
   29MOL0     C 3809   7.889   1.763   7.505  0.2334  0.0600  0.1411
   29MOL0     O 3810   7.837   1.688   7.604 -0.0894 -0.7489  0.0594
   29MOL0     C 3811   7.703   1.657   7.588 -0.1408  0.6333 -0.8492
   29MOL0     C 3812   7.605   1.716   7.656 -0.3188 -0.5232  0.0906
   29MOL0     C 3813   7.484   1.658   7.673  0.8499 -0.0770 -0.6005
   29MOL0     C 3814   7.451   1.539   7.616  0.7070  1.5435  0.5801
   29MOL0     O 3815   7.321   1.493   7.636  0.2576  0.8389 -0.0732
   29MOL0     C 3816   7.309   1.350   7.603 -0.1289 -1.4315  0.5395
   29MOL0     C 3817   7.179   1.305   7.661  0.1814  0.2616 -0.0935
   29MOL0     C 3818   7.055   1.349   7.585 -0.0104 -0.2127  0.0529
   29MOL0     C 3819   6.933   1.265   7.608 -0.3665 -0.1233  0.6776
   29MOL0     C 3820   6.809   1.329   7.544 -0.2931  0.1917  0.1182
   29MOL0     C 3821   6.805   1.313   7.391  0.0403  0.0506 -0.3091
   29MOL0     C 3822   6.672   1.360   7.344  1.1531 -0.5843  0.2580
   29MOL0     C 3823   6.549   1.273   7.385 -0.6584  0.6735 -0.4281
   29MOL0    Cl 3824   6.574   1.111   7.322 -0.0004  0.0487  0.0273
   29MOL0     C 3825   7.554   1.462   7.551 -0.0535  0.3051 -0.2193
   29MOL0     C 3826   7.676   1.524   7.538  1.2650 -0.4666 -0.2790
   29MOL0     O 3827   7.832   1.821   7.413  0.5100  0.7479 -0.0842
   29MOL0     C 3828   8.109   1.838   7.437  0.1318 -0.3965 -0.1522
   29MOL0     C 3829   8.245   1.863   7.452  0.1666 -0.1249 -0.5295
   29MOL0     N 3830   9.029   1.648   7.598 -0.0934  0.1456  0.0777
   29MOL0     N 3831   9.139   1.601   7.563 -0.2177 -0.1139  0.1043
   29MOL0     C 3832   9.733   1.502   6.962  0.1520 -1.0687  0.6067
   29MOL0     C 3833   9.623   1.417   6.943 -0.8114 -0.7998 -0.3566
   29MOL0     C 3834   9.396   1.036   6.883  1.4235  0.2679  1.1102
   29MOL0     C 3835   9.305   1.036   6.770 -0.1331  0.6295 -0.3745
   29MOL0     C 3836   9.198   0.955   6.765 -0.4153  0.8391 -0.3864
   29MOL0     C 3837   9.181   0.863   6.870 -0.4158  0.2552 -0.3579
   29MOL0     O 3838   9.067   0.777   6.884  0.0127  0.3055 -0.5837
   29MOL0     C 3839   8.961   0.777   6.778 -0.0343 -0.2701 -0.1546
   29MOL0     C 3840   8.853   0.887   6.779  0.0492  0.6189 -0.4476
   29MOL0     C 3841   8.822   0.939   6.923 -0.0751  0.4539 -0.7344
   29MOL0     C 3842   8.739   1.070   6.922 -0.6729  1.0287 -0.3075
   29MOL0     C 3843   8.602   1.048   6.880 -0.7187 -0.1935 -0.2075
   29MOL0     C 3844   8.492   1.031   6.836  0.1584  0.3806 -0.0734
   29MOL0     C 3845   9.267   0.862   6.984 -0.5614  0.3184  0.2977
   29MOL0     C 3846   9.369   0.951   6.986  0.8001 -0.2644  0.2852
   29MOL0     C 3847   9.461   0.936   7.100 -0.1949 -0.4073 -0.5784
   29MOL0     H 3848   9.717   1.166   7.157 -2.5835  1.8774  1.7539
   29MOL0     H 3849   9.909   1.298   7.173  1.5242  2.1988 -0.1635
   29MOL0     H 3850  10.069   1.694   7.044 -0.8766  0.3011 -2.5152
   29MOL0     H 3851   9.905   1.701   6.973 -0.3711 -0.6074 -0.0072
   29MOL0     H 3852   9.928   1.852   7.175 -1.8179  1.0437  0.0079
   29MOL0     H 3853   9.983   1.715   7.268 -3.6377 -1.1531  1.9157
   29MOL0     H 3854   9.741   1.637   7.259 -4.0324  1.5891  3.4969
   29MOL0     H 3855   9.715   1.759   7.141 -2.6539 -2.2600  0.9362
   29MOL0     H 3856   9.805   1.815   7.440 -2.9025  2.4340  3.0210
   29MOL0     H 3857   9.780   1.931   7.310 -0.6904 -0.9924 -2.1966
   29MOL0     H 3858   9.598   1.929   7.445  0.8988 -1.2621  2.4476
   29MOL0     H 3859   9.543   1.820   7.308  0.9482  1.1635 -0.1247
   29MOL0     H 3860   9.604   1.616   7.441 -1.2629 -0.9695  0.9506
   29MOL0     H 3861   9.660   1.714   7.574  0.8015  3.4926  0.3641
   29MOL0     H 3862   9.421   1.826   7.589 -1.2623 -1.1842  1.2411
   29MOL0     H 3863   9.438   1.654   7.634  0.2346 -0.5387  0.3080
   29MOL0     H 3864   9.339   1.750   7.352  0.4337  0.6340  0.6858
   29MOL0     H 3865   9.354   1.579   7.418  2.4050  0.0049 -1.8409
   29MOL0     H 3866   9.157   1.922   7.486  0.5476 -0.1411  1.5673
   29MOL0     H 3867   8.889   1.886   7.700 -2.4033  0.5872 -0.6287
   29MOL0     H 3868   8.929   1.969   7.548 -2.3215 -0.5807 -3.3911
   29MOL0     H 3869   8.776   1.782   7.435 -2.4232 -1.2393 -0.6633
   29MOL0     H 3870   8.726   1.747   7.597 -0.8917  0.1909  1.0470
   29MOL0     H 3871   8.694   2.026   7.477 -1.4863  2.7054  2.6836
   29MOL0     H 3872   8.669   1.985   7.640 -1.1083  1.9915 -0.0341
   29MOL0     H 3873   8.537   1.808   7.424 -2.8315 -1.0358  0.1503
   29MOL0     H 3874   8.476   1.971   7.446 -0.9555 -1.1018  0.6575
   29MOL0     H 3875   8.282   1.790   7.776  1.2169  1.5875 -0.2416
   29MOL0     H 3876   8.039   1.736   7.748  0.3530  1.1188  0.2229
   29MOL0     H 3877   7.639   1.810   7.699  3.0496 -0.8473 -1.4943
   29MOL0     H 3878   7.407   1.719   7.719  0.1021 -2.7410  1.9722
   29MOL0     H 3879   7.309   1.359   7.494  0.5302 -1.6515  0.5190
   29MOL0     H 3880   7.394   1.297   7.646 -0.8152 -1.2873  2.1596
   29MOL0     H 3881   7.181   1.196   7.671  2.0450  0.3416  0.7435
   29MOL0     H 3882   7.172   1.339   7.765  1.3811 -1.8015  0.7223
   29MOL0     H 3883   7.044   1.448   7.629  2.2212  0.2691 -0.3850
   29MOL0     H 3884   7.077   1.353   7.478 -1.1608 -0.1509 -0.1984
   29MOL0     H 3885   6.913   1.258   7.716 -3.0730 -1.7322  0.1698
   29MOL0     H 3886   6.947   1.168   7.561  0.5698 -1.1926  2.9972
   29MOL0     H 3887   6.817   1.433   7.578 -2.9353 -0.5503  3.7719
   29MOL0     H 3888   6.724   1.281   7.594  0.2348 -0.2290  0.6233
   29MOL0     H 3889   6.883   1.372   7.343 -0.3027  0.1725 -0.7225
   29MOL0     H 3890   6.809   1.207   7.363 -1.1227 -0.7622  2.3234
   29MOL0     H 3891   6.682   1.361   7.235 -1.6895 -0.9982 -0.0773
   29MOL0     H 3892   6.651   1.462   7.378  2.2513  0.9390 -3.2311
   29MOL0     H 3893   6.545   1.253   7.493  2.7618 -0.5329 -0.3860
   29MOL0     H 3894   6.452   1.308   7.349 -1.7653 -0.7739  0.9712
   29MOL0     H 3895   7.539   1.377   7.485  0.8930  0.9025 -1.2474
   29MOL0     H 3896   7.755   1.465   7.493  0.6341 -1.8353  0.3552
   29MOL0     H 3897   8.077   1.854   7.335  1.9451 -1.1772 -0.8912
   29MOL0     H 3898   8.294   1.908   7.367  1.8319 -1.0892 -0.1368
   29MOL0     H 3899   9.745   1.586   6.894  2.0651 -1.7872 -0.0115
   29MOL0     H 3900   9.536   1.441   6.883  0.4113  0.8932 -1.5436
   29MOL0     H 3901   9.337   1.101   6.689  1.8137 -1.2386 -1.2261
   29MOL0     H 3902   9.131   0.959   6.680 -1.8053 -2.1851  0.4460
   29MOL0     H 3903   8.890   0.699   6.809 -0.4872  1.1566  2.7916
   29MOL0     H 3904   8.987   0.759   6.674  0.2009 -3.3646  0.3514
   29MOL0     H 3905   8.756   0.853   6.742 -0.4109  3.6788 -2.4524
   29MOL0     H 3906   8.888   0.970   6.717  1.2638  1.3888  1.1826
   29MOL0     H 3907   8.910   0.955   6.986 -1.3286 -1.4617  1.6439
   29MOL0     H 3908   8.766   0.864   6.979  0.0065  1.1407  0.2855
   29MOL0     H 3909   8.747   1.115   7.021  1.6500  2.3856 -1.0589
   29MOL0     H 3910   8.786   1.141   6.854  0.9044 -0.4633 -0.8716
   29MOL0     H 3911   8.392   1.011   6.803  0.3154 -0.1371 -0.2415
   29MOL0     H 3912   9.240   0.801   7.069 -2.6456 -0.1701 -0.6406
   29MOL0     H 3913   9.536   1.011   7.125 -1.0044 -0.5362  2.6747
   29MOL0     H 3914   9.396   0.936   7.188 -0.8808 -0.0286 -1.0721
   29MOL0     H 3915   9.516   0.841   7.105  0.2863 -0.0827  0.5679
   30MOL0     O 3916  11.278   6.576   3.218  0.4336 -0.3322  0.4971
   30MOL0     C 3917  11.296   6.519   3.324  0.1854 -0.0136  0.4972
   30MOL0     O 3918  11.408   6.524   3.395 -0.0529  0.7102 -0.3917
   30MOL0     C 3919  11.505   6.616   3.396 -0.4708  0.5762  0.7073
   30MOL0     C 3920  11.560   6.684   3.288 -0.7076  0.1957  0.5257
   30MOL0     C 3921  11.674   6.758   3.293 -0.2860  1.0664  0.2984
   30MOL0     C 3922  11.751   6.760   3.406 -0.7692 -0.0878  0.4334
   30MOL0     O 3923  11.874   6.830   3.408 -0.8786  0.1144  0.4083
   30MOL0     C 3924  11.950   6.822   3.529  0.4540 -0.1436  0.1823
   30MOL0     C 3925  12.067   6.918   3.514  0.4394 -0.3290 -0.0295
   30MOL0     C 3926  12.196   6.876   3.455  0.3605  0.0438  0.5023
   30MOL0     C 3927  12.263   6.759   3.534  0.4772 -0.7199  0.3291
   30MOL0     C 3928  12.415   6.761   3.524 -0.8172  1.2580  0.0594
   30MOL0     C 3929  12.465   6.755   3.382 -0.4969  0.4269 -0.6776
   30MOL0     C 3930  12.618   6.756   3.377  0.5530 -0.1554 -0.0096
   30MOL0     C 3931  12.670   6.717   3.243 -0.0968  0.2833 -0.9474
   30MOL0     N 3932  12.813   6.735   3.236  0.0654  0.0297  0.8365
   30MOL0     C 3933  12.896   6.857   3.253  0.1882  0.0413 -0.9761
   30MOL0     C 3934  13.024   6.816   3.232  0.1564 -0.0099  0.0562
   30MOL0     C 3935  13.140   6.907   3.211  0.4840  0.3412 -0.1766
   30MOL0     C 3936  13.214   6.934   3.339  0.1879  0.5306 -0.4477
   30MOL0     C 3937  13.247   6.817   3.430 -0.0953 -0.1715  0.3562
   30MOL0     C 3938  13.324   6.712   3.373 -0.0537  0.3350  0.2635
   30MOL0     O 3939  13.431   6.776   3.314 -0.1388  1.0459  0.2188
   30MOL0     C 3940  13.536   6.796   3.399 -0.0760 -0.1779  0.0534
   30MOL0     C 3941  13.563   6.744   3.530 -0.1769 -0.6329  0.4123
   30MOL0     C 3942  13.685   6.766   3.602  0.0782  0.2765  0.3978
   30MOL0     C 3943  13.784   6.853   3.550 -0.3081 -0.5956  0.5093
   30MOL0     C 3944  13.893   6.894   3.633 -0.3544  0.0311 -0.2250
   30MOL0     O 3945  13.999   6.949   3.575 -0.4573  0.4159  1.3042
   30MOL0     C 3946  14.116   6.971   3.643 -0.1002 -0.0705  0.1257
   30MOL0     C 3947  14.170   7.100   3.629 -0.5620 -0.1009  0.1443
   30MOL0     C 3948  14.304   7.119   3.667 -0.8541  0.7411  0.9963
   30MOL0     C 3949  14.379   7.028   3.747 -0.2534 -0.0111  0.5724
   30MOL0     O 3950  14.498   7.062   3.801 -0.1423  0.2604 -0.5934
   30MOL0     C 3951  14.591   6.952   3.837 -0.8175  0.1277  0.4012
   30MOL0     C 3952  14.741   6.978   3.845  0.1222  0.0317 -0.3182
   30MOL0     C 3953  14.802   6.846   3.891 -0.2058 -0.1909 -0.2142
   30MOL0     C 3954  14.955   6.867   3.864 -0.2155  0.2164  0.0414
   30MOL0     C 3955  15.038   6.731   3.880 -0.0748 -0.8689 -0.0509
   30MOL0     C 3956  15.189   6.752   3.881  0.4523 -0.0728 -0.8585
   30MOL0     C 3957  15.258   6.624   3.951  0.6669  0.1173  0.6885
   30MOL0     C 3958  15.416   6.626   3.964  0.0227 -0.3188  0.1424
   30MOL0    Cl 3959  15.443   6.742   4.097 -0.0972  0.3058  0.4543
   30MOL0     C 3960  14.321   6.897   3.765 -0.2221  0.5620  0.1534
   30MOL0     C 3961  14.189   6.871   3.718 -0.0448 -0.2562  0.0599
   30MOL0     O 3962  13.887   6.868   3.750 -0.6511  0.5794  0.3807
   30MOL0     C 3963  13.761   6.904   3.420 -1.1759  0.7451  0.7764
   30MOL0     C 3964  13.637   6.883   3.357  0.8300  0.5529  0.3607
   30MOL0     N 3965  13.016   6.680   3.202  0.4444  0.0075 -0.3291
   30MOL0     N 3966  12.896   6.644   3.186 -0.2710 -0.2367  0.6856
   30MOL0     C 3967  11.702   6.686   3.519 -0.1389 -0.2026  1.1850
   30MOL0     C 3968  11.578   6.621   3.514 -0.9804 -0.0085 -0.6746
   30MOL0     C 3969  11.190   6.425   3.370 -0.1671 -0.2977 -0.2278
   30MOL0     C 3970  11.235   6.302   3.411 -0.9366 -0.3122  0.2540
   30MOL0     C 3971  11.152   6.198   3.445 -1.0582  0.6118  0.2452
   30MOL0     C 3972  11.010   6.223   3.437  0.3639  0.3160 -0.9170
   30MOL0     O 3973  10.917   6.119   3.468  0.0275 -0.3536 -0.1891
   30MOL0     C 3974  10.808   6.150   3.561 -0.1650 -1.0245 -0.3292
   30MOL0     C 3975  10.721   6.024   3.593  0.3365  0.0438 -1.0094
   30MOL0     C 3976  10.611   6.049   3.695  0.1273 -0.3166 -1.0210
   30MOL0     C 3977  10.536   5.911   3.735  0.7193 -1.1219 -0.4935
   30MOL0     C 3978  10.406   5.936   3.804 -0.2174 -0.2106 -0.2215
   30MOL0     C 3979  10.304   5.951   3.868 -0.0000  0.0364  0.0628
   30MOL0     C 3980  10.974   6.352   3.402 -0.0251  0.4516 -0.7956
   30MOL0     C 3981  11.057   6.456   3.381 -0.0750  0.3131  0.1355
   30MOL0     C 3982  10.996   6.589   3.341  0.1709  0.2194 -0.0944
   30MOL0     H 3983  11.504   6.677   3.195 -0.0766 -0.0479  0.1567
   30MOL0     H 3984  11.702   6.812   3.203 -0.4362 -2.2017 -1.8844
   30MOL0     H 3985  11.889   6.837   3.619 -3.9508 -3.4094 -1.8742
   30MOL0     H 3986  11.995   6.723   3.536 -1.5511 -1.0355  1.4446
   30MOL0     H 3987  12.085   6.964   3.612  0.9429  3.5854 -1.7405
   30MOL0     H 3988  12.028   6.997   3.449  0.0879 -1.4654 -1.2446
   30MOL0     H 3989  12.261   6.963   3.446 -1.6435  1.8384  2.3199
   30MOL0     H 3990  12.178   6.846   3.352 -1.3988 -2.1595  1.3681
   30MOL0     H 3991  12.244   6.764   3.642  2.0343 -0.6727  0.6252
   30MOL0     H 3992  12.228   6.664   3.492  1.7792 -1.1103  0.0834
   30MOL0     H 3993  12.451   6.856   3.565 -0.0354  0.3916  1.4667
   30MOL0     H 3994  12.455   6.678   3.583 -2.7343  0.1322 -0.1279
   30MOL0     H 3995  12.434   6.664   3.329 -0.9743 -0.2561  0.7191
   30MOL0     H 3996  12.424   6.842   3.330 -1.6512  0.2129 -0.1518
   30MOL0     H 3997  12.655   6.683   3.449 -1.4996 -0.7449  0.5109
   30MOL0     H 3998  12.660   6.853   3.405 -0.0581  1.1199 -3.0688
   30MOL0     H 3999  12.654   6.610   3.230  1.4658 -0.3955  2.0054
   30MOL0     H 4000  12.611   6.776   3.172 -1.2246  1.0674  0.5966
   30MOL0     H 4001  12.867   6.961   3.259 -2.3822 -0.6499 -0.0716
   30MOL0     H 4002  13.214   6.870   3.138  2.0441  2.0950  0.4379
   30MOL0     H 4003  13.111   7.004   3.171  1.8778  0.8532  0.0077
   30MOL0     H 4004  13.292   7.001   3.303 -0.4591  0.5882 -1.8155
   30MOL0     H 4005  13.151   6.996   3.404  0.3596  1.0898 -0.8022
   30MOL0     H 4006  13.152   6.784   3.473 -0.2370  0.4053  0.4925
   30MOL0     H 4007  13.306   6.862   3.511 -2.1993  3.3260  0.1513
   30MOL0     H 4008  13.260   6.665   3.297  0.4697 -1.5968  0.9404
   30MOL0     H 4009  13.345   6.640   3.453 -2.8149  1.1804  1.8971
   30MOL0     H 4010  13.492   6.674   3.573 -1.9022 -0.7861 -2.4520
   30MOL0     H 4011  13.696   6.714   3.697 -1.9693  2.1599  1.7677
   30MOL0     H 4012  14.117   7.169   3.566  0.7627 -0.0947 -1.0254
   30MOL0     H 4013  14.356   7.208   3.631 -0.6185  0.0915 -0.3599
   30MOL0     H 4014  14.554   6.917   3.934  1.4701 -3.1421  0.2837
   30MOL0     H 4015  14.585   6.874   3.761  3.0037  1.1914 -1.2360
   30MOL0     H 4016  14.790   6.994   3.748 -1.1176 -2.6437 -1.4787
   30MOL0     H 4017  14.760   7.062   3.913 -1.0459  1.1827 -1.3704
   30MOL0     H 4018  14.774   6.811   3.991 -0.2136 -0.3290 -0.2637
   30MOL0     H 4019  14.764   6.759   3.836 -3.4874  0.7840  0.2971
   30MOL0     H 4020  14.996   6.942   3.932  1.1215 -0.0018 -0.4959
   30MOL0     H 4021  14.968   6.898   3.760 -0.4512 -0.5754 -0.2340
   30MOL0     H 4022  15.016   6.652   3.806  0.9353 -0.9227 -0.3103
   30MOL0     H 4023  15.017   6.683   3.976  2.9897 -2.1398  0.0872
   30MOL0     H 4024  15.225   6.766   3.779 -0.1859 -2.7931 -1.5282
   30MOL0     H 4025  15.211   6.846   3.933 -0.5202  0.3511 -1.1944
   30MOL0     H 4026  15.237   6.546   3.877  0.7514  1.6479 -1.0032
   30MOL0     H 4027  15.205   6.606   4.045 -0.3154  2.0366  0.5598
   30MOL0     H 4028  15.453   6.527   3.993  1.1863  0.3023  0.8400
   30MOL0     H 4029  15.460   6.655   3.869  0.4953 -2.9644 -0.5292
   30MOL0     H 4030  14.367   6.818   3.823 -3.6662 -1.1418  0.8225
   30MOL0     H 4031  14.137   6.776   3.723 -2.2470  0.9522  1.5136
   30MOL0     H 4032  13.829   6.972   3.370 -2.9748  1.4654 -0.8361
   30MOL0     H 4033  13.633   6.941   3.265  1.7513  0.9459  0.5524
   30MOL0     H 4034  11.748   6.670   3.616  0.0301  0.6639  1.2579
   30MOL0     H 4035  11.548   6.559   3.599 -4.0630 -0.2726 -1.8271
   30MOL0     H 4036  11.339   6.279   3.392 -1.1503 -3.0664  1.8277
   30MOL0     H 4037  11.189   6.103   3.483  0.7699  1.3748  0.4829
   30MOL0     H 4038  10.735   6.222   3.522  0.3238  1.2429  2.5426
   30MOL0     H 4039  10.840   6.198   3.654 -3.3110 -1.4457  1.0753
   30MOL0     H 4040  10.801   5.958   3.628 -0.9550 -1.5199 -0.9096
   30MOL0     H 4041  10.679   5.976   3.504 -1.4303 -4.2235  1.8122
   30MOL0     H 4042  10.538   6.118   3.653  2.1182  1.0901 -2.3386
   30MOL0     H 4043  10.647   6.096   3.787 -0.3406 -0.0895 -0.9491
   30MOL0     H 4044  10.512   5.843   3.653 -0.1198 -2.9804  1.2265
   30MOL0     H 4045  10.593   5.859   3.812 -2.1623  0.4360  2.9829
   30MOL0     H 4046  10.215   5.982   3.918  0.5709 -1.0676  1.8522
   30MOL0     H 4047  10.867   6.367   3.393 -0.7841 -1.9497  2.4026
   30MOL0     H 4048  11.008   6.672   3.411 -2.7214  1.0743 -0.4550
   30MOL0     H 4049  11.041   6.627   3.248 -1.4712  1.4312 -0.4423
   30MOL0     H 4050  10.890   6.590   3.314  0.5873  0.1252 -1.9096
   31MOL0     O 4051  10.600   3.873   3.206  0.4007  0.1139 -0.4598
   31MOL0     C 4052  10.627   3.905   3.322  0.2749  1.1138  0.8273
   31MOL0     O 4053  10.738   3.853   3.391  0.5273 -0.3876 -0.5736
   31MOL0     C 4054  10.839   3.811   3.308  0.3456 -0.1015  0.5518
   31MOL0     C 4055  10.832   3.690   3.224 -0.0365 -0.2524  0.4713
   31MOL0     C 4056  10.941   3.672   3.135  0.5037  0.2065  0.4955
   31MOL0     C 4057  11.058   3.753   3.138 -0.3231 -0.1092 -0.4953
   31MOL0     O 4058  11.156   3.739   3.041 -0.8805 -0.3309  0.7247
   31MOL0     C 4059  11.296   3.704   3.085 -0.0983 -0.2165  0.1657
   31MOL0     C 4060  11.394   3.732   2.986  0.3347  0.5335  0.7437
   31MOL0     C 4061  11.535   3.676   3.007  0.3315  0.1126 -0.4407
   31MOL0     C 4062  11.626   3.684   2.890 -1.1122 -0.2620  0.5332
   31MOL0     C 4063  11.773   3.704   2.922 -0.7045  0.2151  0.9005
   31MOL0     C 4064  11.860   3.696   2.794 -0.3053 -0.1974  0.2310
   31MOL0     C 4065  12.007   3.674   2.840  0.4518 -1.5065 -0.2529
   31MOL0     C 4066  12.066   3.786   2.928  0.4073 -0.4860 -0.1605
   31MOL0     N 4067  12.212   3.758   2.932  0.2668 -0.1636  0.0377
   31MOL0     C 4068  12.304   3.773   2.836  0.5804  0.0783 -0.4678
   31MOL0     C 4069  12.421   3.723   2.897  0.2289 -0.4637 -0.9175
   31MOL0     C 4070  12.555   3.705   2.843 -0.2062 -0.9441  0.1295
   31MOL0     C 4071  12.623   3.573   2.879 -0.7209  0.3924 -0.1992
   31MOL0     C 4072  12.587   3.459   2.785  0.0201 -0.1659  0.4948
   31MOL0     C 4073  12.634   3.323   2.837  0.4023 -0.2730  0.2386
   31MOL0     O 4074  12.536   3.216   2.809  0.0829  0.8590 -0.0401
   31MOL0     C 4075  12.415   3.226   2.876  0.6336 -0.2739 -0.4634
   31MOL0     C 4076  12.381   3.321   2.984  0.2689  0.0578  0.5235
   31MOL0     C 4077  12.254   3.305   3.033 -0.1437 -0.0097 -0.0129
   31MOL0     C 4078  12.159   3.222   2.984 -0.1812 -0.0172  1.1483
   31MOL0     C 4079  12.021   3.223   3.037  0.5640 -0.8705  0.2531
   31MOL0     O 4080  11.950   3.123   2.972 -0.9847 -0.5723  0.4951
   31MOL0     C 4081  11.819   3.133   2.978 -0.0157 -0.1142  0.3040
   31MOL0     C 4082  11.748   3.066   3.078 -0.1976 -0.0149  0.0406
   31MOL0     C 4083  11.612   3.070   3.092  0.1465 -0.5123 -0.7836
   31MOL0     C 4084  11.541   3.146   3.000 -0.3334  0.1832  0.9858
   31MOL0     O 4085  11.403   3.146   3.010  0.4248  0.0312  0.2001
   31MOL0     C 4086  11.328   3.256   2.953  0.1325  0.5980  0.0945
   31MOL0     C 4087  11.193   3.250   3.014  0.2058 -0.1041  0.5665
   31MOL0     C 4088  11.117   3.112   2.997  0.2889 -0.3062 -0.6110
   31MOL0     C 4089  10.976   3.130   3.058 -0.8366  0.2728  0.0800
   31MOL0     C 4090  10.909   3.007   3.090 -0.0831  0.1067 -0.9065
   31MOL0     C 4091  10.784   3.015   3.181  0.1769 -0.5797 -0.5380
   31MOL0     C 4092  10.668   3.082   3.104  0.5584 -0.4444  0.0038
   31MOL0     C 4093  10.542   2.994   3.090 -0.2138  0.2347 -0.2035
   31MOL0    Cl 4094  10.579   2.831   3.035 -0.0399  0.2602  0.1939
   31MOL0     C 4095  11.618   3.225   2.903 -0.1723  0.0009 -0.0243
   31MOL0     C 4096  11.758   3.218   2.893  0.4277  0.3313 -0.0526
   31MOL0     O 4097  11.979   3.306   3.115 -0.3330  0.2533  0.2496
   31MOL0     C 4098  12.192   3.132   2.880 -1.3993 -0.4154  0.0969
   31MOL0     C 4099  12.325   3.130   2.835 -0.5338 -0.5046 -0.5766
   31MOL0     N 4100  12.393   3.686   3.027  1.0945  0.0358 -0.2757
   31MOL0     N 4101  12.266   3.703   3.045  0.1733 -0.3309 -0.0098
   31MOL0     C 4102  11.061   3.868   3.217  0.4055 -0.4147 -0.0666
   31MOL0     C 4103  10.949   3.896   3.301  0.1612  0.5885 -0.2281
   31MOL0     C 4104  10.521   3.983   3.383 -0.5954  0.9011 -0.5857
   31MOL0     C 4105  10.422   3.911   3.457  0.5095 -0.6335 -0.0084
   31MOL0     C 4106  10.310   3.993   3.493  0.3170 -0.6327 -0.2437
   31MOL0     C 4107  10.312   4.134   3.487  0.7992  0.1292  0.7816
   31MOL0     O 4108  10.213   4.203   3.548  0.3818  0.0533  0.3952
   31MOL0     C 4109  10.174   4.337   3.506 -0.0130 -0.5029  0.0545
   31MOL0     C 4110  10.104   4.327   3.373  0.1004  0.3215 -0.3656
   31MOL0     C 4111   9.988   4.219   3.365 -0.2635 -0.2950  0.5936
   31MOL0     C 4112   9.866   4.263   3.443 -0.4973  0.7161 -0.6299
   31MOL0     C 4113   9.789   4.360   3.365  0.0048 -0.5414  0.0997
   31MOL0     C 4114   9.731   4.456   3.309  0.1791  0.2037  0.6378
   31MOL0     C 4115  10.422   4.197   3.433 -0.5723  0.9210 -0.5518
   31MOL0     C 4116  10.525   4.126   3.379  0.0599  0.4599  0.5393
   31MOL0     C 4117  10.636   4.191   3.312 -0.3422  0.1575  0.2710
   31MOL0     H 4118  10.742   3.630   3.216 -0.7490  1.0430 -2.5017
   31MOL0     H 4119  10.930   3.579   3.080 -2.4624  1.1934 -0.7855
   31MOL0     H 4120  11.319   3.759   3.177  0.9886 -1.0594  0.4261
   31MOL0     H 4121  11.302   3.599   3.115 -0.4357  0.2670  2.0662
   31MOL0     H 4122  11.402   3.839   2.968 -1.4828  0.5597 -0.0433
   31MOL0     H 4123  11.350   3.694   2.894  2.4826  1.5653 -0.8076
   31MOL0     H 4124  11.536   3.574   3.046 -4.0662 -0.6722 -1.7327
   31MOL0     H 4125  11.578   3.736   3.087 -0.2279  0.5188 -0.4320
   31MOL0     H 4126  11.620   3.599   2.823  1.3358  2.1800 -3.1940
   31MOL0     H 4127  11.601   3.767   2.823  1.5426 -1.5010 -2.2271
   31MOL0     H 4128  11.796   3.794   2.978  1.9289 -0.2853  0.7206
   31MOL0     H 4129  11.790   3.614   2.983 -3.8081 -1.3457 -0.2748
   31MOL0     H 4130  11.845   3.612   2.727  1.5233 -0.9690  0.7023
   31MOL0     H 4131  11.858   3.785   2.730 -5.3469 -0.2678 -0.0662
   31MOL0     H 4132  12.065   3.667   2.747  2.9002  1.5956  0.8844
   31MOL0     H 4133  12.029   3.576   2.883  0.8691 -1.0469  0.5917
   31MOL0     H 4134  12.039   3.886   2.894 -2.2155  0.0783  3.1206
   31MOL0     H 4135  12.022   3.787   3.028 -0.0067  0.0851 -0.3474
   31MOL0     H 4136  12.278   3.821   2.742  0.2743  0.8108 -0.0172
   31MOL0     H 4137  12.549   3.707   2.734  2.0812  0.2500 -0.0426
   31MOL0     H 4138  12.608   3.794   2.879 -0.4052 -1.3804  1.5245
   31MOL0     H 4139  12.732   3.577   2.872 -0.8254  0.1954 -3.5827
   31MOL0     H 4140  12.593   3.535   2.977 -0.6113 -0.8093 -0.6094
   31MOL0     H 4141  12.621   3.462   2.681 -2.3808 -1.8451 -0.4223
   31MOL0     H 4142  12.478   3.467   2.784 -0.0727 -0.2007  3.0223
   31MOL0     H 4143  12.655   3.327   2.944  0.8497 -2.8112  0.3186
   31MOL0     H 4144  12.727   3.293   2.787  0.6940  1.2290 -0.1818
   31MOL0     H 4145  12.444   3.392   3.037 -0.3014  0.8847  0.1128
   31MOL0     H 4146  12.230   3.361   3.123  0.4698  1.4359 -0.7182
   31MOL0     H 4147  11.809   3.008   3.147 -2.2916 -0.6729  1.4345
   31MOL0     H 4148  11.541   3.013   3.150 -3.3353  1.7446 -2.4450
   31MOL0     H 4149  11.373   3.354   2.968  1.5933 -0.1987  1.1358
   31MOL0     H 4150  11.311   3.236   2.847 -1.2085 -2.0464  0.7037
   31MOL0     H 4151  11.201   3.274   3.120  0.4783  0.2120  0.4771
   31MOL0     H 4152  11.139   3.336   2.973 -1.6618 -1.6999 -0.4817
   31MOL0     H 4153  11.106   3.086   2.892  3.5147  1.9102 -1.6648
   31MOL0     H 4154  11.177   3.035   3.047  2.1308  0.8446 -0.9605
   31MOL0     H 4155  10.909   3.173   2.983  0.0097 -1.0744 -1.5351
   31MOL0     H 4156  10.978   3.200   3.142  1.2312 -1.3050  1.4557
   31MOL0     H 4157  10.978   2.954   3.157 -0.6780 -1.6573 -1.6206
   31MOL0     H 4158  10.888   2.943   3.003 -1.7751 -3.1817  1.6963
   31MOL0     H 4159  10.757   2.912   3.205  1.0111 -0.4914  0.9369
   31MOL0     H 4160  10.800   3.076   3.271 -0.4263 -0.9577 -0.1672
   31MOL0     H 4161  10.693   3.094   2.998 -1.7923 -1.6921 -0.7758
   31MOL0     H 4162  10.653   3.179   3.152 -0.0345 -0.5718  0.0896
   31MOL0     H 4163  10.494   2.989   3.188  2.5236  1.1516  1.3029
   31MOL0     H 4164  10.471   3.039   3.020 -0.8769  3.2758  2.2150
   31MOL0     H 4165  11.576   3.295   2.833  3.3257  0.4414 -1.8961
   31MOL0     H 4166  11.815   3.282   2.826  0.9218 -1.8321 -1.8574
   31MOL0     H 4167  12.128   3.055   2.838 -1.8983 -1.3240  2.3511
   31MOL0     H 4168  12.374   3.064   2.763  1.6551  0.2904  0.1182
   31MOL0     H 4169  11.153   3.925   3.221 -0.1313  0.6054 -1.5304
   31MOL0     H 4170  10.954   3.985   3.363  1.4597  1.0359 -0.9568
   31MOL0     H 4171  10.421   3.803   3.464  4.7274 -0.7851  0.8421
   31MOL0     H 4172  10.219   3.943   3.524  0.0758  0.1605  0.3643
   31MOL0     H 4173  10.251   4.415   3.493 -2.4357  1.5829 -3.3359
   31MOL0     H 4174  10.100   4.380   3.574 -0.1713 -2.9833  1.5472
   31MOL0     H 4175  10.179   4.317   3.295 -0.0896  2.3453 -0.8588
   31MOL0     H 4176  10.071   4.431   3.367  0.6448  0.4993 -0.2709
   31MOL0     H 4177  10.008   4.115   3.393 -0.0967  0.3549  3.0670
   31MOL0     H 4178   9.954   4.208   3.261 -0.2742 -1.5174  0.7148
   31MOL0     H 4179   9.808   4.172   3.463 -1.0595  1.1335 -0.3038
   31MOL0     H 4180   9.911   4.314   3.529 -0.1196  1.5582 -1.3200
   31MOL0     H 4181   9.690   4.543   3.263 -4.1940 -0.8715  2.0972
   31MOL0     H 4182  10.430   4.305   3.431  4.6969  0.7950 -1.2091
   31MOL0     H 4183  10.728   4.170   3.369  0.9324 -2.8604 -2.5649
   31MOL0     H 4184  10.660   4.146   3.215  1.6126  0.5981  0.5129
   31MOL0     H 4185  10.624   4.300   3.306 -2.9378  0.0693  2.1975
   32MOL0     O 4186   1.668   5.866   6.606 -0.1190  0.4764  0.5318
   32MOL0     C 4187   1.607   5.855   6.502 -0.1723 -0.3439  0.0007
   32MOL0     O 4188   1.667   5.884   6.384  0.1347  0.1582  0.1136
   32MOL0     C 4189   1.797   5.917   6.383  0.6243 -0.4147  0.6393
   32MOL0     C 4190   1.901   5.840   6.433  0.1989 -1.2053 -0.8659
   32MOL0     C 4191   2.033   5.883   6.435 -0.3522 -0.0143  0.5362
   32MOL0     C 4192   2.064   6.004   6.374 -0.7721  0.5837 -0.4604
   32MOL0     O 4193   2.198   6.044   6.359  0.5054  0.2549 -0.5194
   32MOL0     C 4194   2.299   5.940   6.374  0.2766 -0.0561 -0.3158
   32MOL0     C 4195   2.436   6.016   6.349  0.5662 -0.4203 -0.3341
   32MOL0     C 4196   2.552   5.930   6.367 -0.8857  0.7870 -0.1006
   32MOL0     C 4197   2.680   6.002   6.398 -0.4011  0.3303 -0.9271
   32MOL0     C 4198   2.745   6.052   6.264  0.5646 -1.1636 -0.3902
   32MOL0     C 4199   2.780   5.932   6.183 -0.3506  0.0134 -0.2108
   32MOL0     C 4200   2.870   5.953   6.063 -0.3412  0.6866  1.0520
   32MOL0     C 4201   2.891   5.828   5.972 -0.6450 -0.3460  0.8360
   32MOL0     N 4202   2.954   5.716   6.036 -0.3538 -0.2204  0.2119
   32MOL0     C 4203   3.086   5.733   6.064 -0.2056 -0.5627  0.1498
   32MOL0     C 4204   3.113   5.623   6.147  0.5942 -0.7011 -0.5649
   32MOL0     C 4205   3.247   5.575   6.210  0.3059 -0.6464  0.5601
   32MOL0     C 4206   3.289   5.449   6.142 -0.7137  0.4915  0.0967
   32MOL0     C 4207   3.391   5.462   6.025  0.1738  0.0960  0.7139
   32MOL0     C 4208   3.528   5.508   6.069 -0.6153  0.0506  0.2923
   32MOL0     O 4209   3.597   5.533   5.947 -0.0651 -0.1387 -0.0576
   32MOL0     C 4210   3.733   5.531   5.946 -0.6241 -0.1302  0.8386
   32MOL0     C 4211   3.818   5.554   6.053 -0.2306 -0.0567  0.2635
   32MOL0     C 4212   3.953   5.539   6.027  0.1347  0.0267  0.9202
   32MOL0     C 4213   4.007   5.532   5.895 -0.4354 -0.0876  0.0124
   32MOL0     C 4214   4.154   5.535   5.875 -0.8870  0.1658 -0.3920
   32MOL0     O 4215   4.215   5.621   5.966  0.2119  0.1686 -0.5303
   32MOL0     C 4216   4.346   5.653   5.939 -0.4979 -0.4620  0.1969
   32MOL0     C 4217   4.454   5.576   5.986 -0.3455 -0.1349 -0.0447
   32MOL0     C 4218   4.585   5.598   5.946 -0.0229 -0.6367  0.8319
   32MOL0     C 4219   4.612   5.724   5.877 -0.1267  0.2660  0.5335
   32MOL0     O 4220   4.740   5.759   5.824 -0.6401  0.1350  0.1577
   32MOL0     C 4221   4.853   5.719   5.906 -0.4844  0.0434 -0.1105
   32MOL0     C 4222   4.969   5.814   5.884  0.7234 -0.1682  0.2791
   32MOL0     C 4223   5.098   5.733   5.919  0.2230  0.1106  0.4423
   32MOL0     C 4224   5.202   5.853   5.956 -0.4483  0.4418  0.6570
   32MOL0     C 4225   5.352   5.799   5.974  0.5456 -0.7579 -0.1590
   32MOL0     C 4226   5.368   5.700   6.099  0.8844 -0.5458 -0.5323
   32MOL0     C 4227   5.514   5.685   6.140  0.1291 -0.0314 -0.2255
   32MOL0     C 4228   5.522   5.621   6.277 -0.1373 -0.2013 -0.4709
   32MOL0    Cl 4229   5.502   5.450   6.249 -0.0800  0.7074  0.3017
   32MOL0     C 4230   4.510   5.801   5.830  0.2833 -1.0671  0.5276
   32MOL0     C 4231   4.377   5.766   5.856  0.8783 -0.7302 -0.0909
   32MOL0     O 4232   4.208   5.481   5.776 -0.5409 -0.2345 -0.4194
   32MOL0     C 4233   3.924   5.527   5.793 -0.2379 -0.1755  0.3233
   32MOL0     C 4234   3.786   5.520   5.819  0.2762  0.4320  0.3846
   32MOL0     N 4235   2.997   5.554   6.162 -0.5367  0.8797  0.2168
   32MOL0     N 4236   2.901   5.610   6.097 -0.6052 -0.1474  0.1631
   32MOL0     C 4237   1.962   6.090   6.338  0.0562 -0.2652  0.5176
   32MOL0     C 4238   1.824   6.044   6.340 -0.2060 -0.0306  0.4371
   32MOL0     C 4239   1.465   5.802   6.490  0.5786  0.6537 -0.5803
   32MOL0     C 4240   1.395   5.827   6.372  0.1084  0.5404  0.3162
   32MOL0     C 4241   1.262   5.792   6.357  0.1932  0.1841 -0.3089
   32MOL0     C 4242   1.196   5.714   6.452  0.4318  0.4091 -0.4949
   32MOL0     O 4243   1.069   5.672   6.450 -0.0431 -0.8199  0.3119
   32MOL0     C 4244   0.991   5.689   6.336 -0.3069 -0.1727 -0.7231
   32MOL0     C 4245   0.867   5.614   6.358 -0.9940  0.3954 -0.1456
   32MOL0     C 4246   0.758   5.641   6.254 -1.1376 -0.0463  0.1086
   32MOL0     C 4247   0.649   5.534   6.282 -0.8554 -0.6753 -0.6221
   32MOL0     C 4248   0.542   5.526   6.180  0.4751 -0.6946  0.2504
   32MOL0     C 4249   0.466   5.554   6.086 -0.3176  0.2157 -0.3314
   32MOL0     C 4250   1.268   5.681   6.565  0.1871 -0.1222 -0.2440
   32MOL0     C 4251   1.400   5.735   6.589 -0.0153 -0.6082  1.2083
   32MOL0     C 4252   1.457   5.712   6.723  2.0830 -0.5450  0.0351
   32MOL0     H 4253   1.865   5.742   6.465  2.6023 -1.9089 -0.0970
   32MOL0     H 4254   2.114   5.814   6.460  0.3183  0.7451  0.4808
   32MOL0     H 4255   2.303   5.902   6.477 -0.6211 -2.3308 -1.0543
   32MOL0     H 4256   2.291   5.856   6.304 -1.3357  0.6462 -1.0047
   32MOL0     H 4257   2.444   6.096   6.424 -0.4923  1.8177 -2.4601
   32MOL0     H 4258   2.438   6.062   6.250 -1.7959  2.0387  0.6228
   32MOL0     H 4259   2.560   5.865   6.279 -0.7136  1.0092 -0.2503
   32MOL0     H 4260   2.528   5.875   6.458 -2.2537 -3.6597 -2.8187
   32MOL0     H 4261   2.668   6.092   6.459  0.8228  0.7998 -1.3370
   32MOL0     H 4262   2.736   5.926   6.454  1.0133  1.2512 -1.0443
   32MOL0     H 4263   2.678   6.117   6.208  2.0698  1.2902  0.4808
   32MOL0     H 4264   2.837   6.104   6.295 -2.5206  4.1126  1.3331
   32MOL0     H 4265   2.822   5.857   6.251  2.4214  0.8261 -0.9236
   32MOL0     H 4266   2.689   5.891   6.138 -0.7983 -0.0845  0.7568
   32MOL0     H 4267   2.964   5.983   6.111 -0.6416 -1.1545  2.9287
   32MOL0     H 4268   2.827   6.041   6.015  0.2544  2.0692  2.9146
   32MOL0     H 4269   2.799   5.798   5.921  0.6911 -1.4180 -1.0807
   32MOL0     H 4270   2.966   5.856   5.897 -0.0652  1.2250  1.9375
   32MOL0     H 4271   3.149   5.809   6.019 -4.7207  3.2638 -0.4789
   32MOL0     H 4272   3.325   5.650   6.198 -0.3306 -0.1087 -0.3540
   32MOL0     H 4273   3.238   5.563   6.319 -3.1789  2.1691  0.7779
   32MOL0     H 4274   3.339   5.400   6.226 -0.1636 -1.5993 -1.3677
   32MOL0     H 4275   3.206   5.385   6.112 -0.6389 -0.0350  0.9580
   32MOL0     H 4276   3.349   5.538   5.958 -0.3426  1.4025  2.4373
   32MOL0     H 4277   3.408   5.375   5.961  1.0372  0.9249 -0.2221
   32MOL0     H 4278   3.579   5.430   6.126 -0.8524 -2.0565 -2.1905
   32MOL0     H 4279   3.522   5.593   6.138 -1.0372  1.7167 -1.6941
   32MOL0     H 4280   3.796   5.573   6.158  2.5275 -1.5717  1.2218
   32MOL0     H 4281   4.024   5.543   6.110  1.7230  1.0346 -0.4349
   32MOL0     H 4282   4.439   5.480   6.034  0.8782 -1.6741 -2.5457
   32MOL0     H 4283   4.666   5.529   5.967 -1.9339 -2.6443  2.0025
   32MOL0     H 4284   4.827   5.719   6.012 -3.2813 -0.5239 -0.7076
   32MOL0     H 4285   4.877   5.616   5.878  0.9562  0.5399 -0.8238
   32MOL0     H 4286   4.972   5.867   5.789 -0.3351 -1.1067 -0.3104
   32MOL0     H 4287   4.955   5.894   5.957 -0.5107 -0.6353  0.5902
   32MOL0     H 4288   5.078   5.665   6.002 -0.9078 -1.5427 -1.1165
   32MOL0     H 4289   5.131   5.670   5.836 -0.6596  1.0481 -0.6564
   32MOL0     H 4290   5.165   5.909   6.042 -0.5761  2.5738 -0.7259
   32MOL0     H 4291   5.211   5.922   5.872  3.1578  0.5514  0.9528
   32MOL0     H 4292   5.407   5.893   5.991 -1.0274  0.0363  0.7142
   32MOL0     H 4293   5.398   5.754   5.886  2.2473  0.6273 -0.0449
   32MOL0     H 4294   5.315   5.743   6.184  0.5669  2.7400 -2.2460
   32MOL0     H 4295   5.329   5.600   6.078  0.4824 -0.7954  1.2112
   32MOL0     H 4296   5.563   5.782   6.146 -0.9115  0.5801 -1.1009
   32MOL0     H 4297   5.555   5.620   6.063 -1.0232  0.4659 -1.3036
   32MOL0     H 4298   5.619   5.649   6.318 -0.2166  0.3698 -0.6515
   32MOL0     H 4299   5.441   5.657   6.341  0.7976  0.3533  0.4300
   32MOL0     H 4300   4.536   5.900   5.792 -0.6204 -0.5370  1.2612
   32MOL0     H 4301   4.296   5.834   5.833 -0.6589 -0.9068  3.9117
   32MOL0     H 4302   3.959   5.503   5.693 -1.8733 -2.6577  0.2537
   32MOL0     H 4303   3.724   5.528   5.730 -1.3891 -1.8027  1.2537
   32MOL0     H 4304   1.995   6.187   6.303  0.0852 -0.3690  0.2520
   32MOL0     H 4305   1.743   6.106   6.306 -2.2601 -2.6315  0.2846
   32MOL0     H 4306   1.432   5.877   6.283  1.8298 -1.0413  0.0639
   32MOL0     H 4307   1.221   5.819   6.261  0.8062  4.4034  0.4086
   32MOL0     H 4308   1.047   5.658   6.247  0.1930  0.1363 -0.5199
   32MOL0     H 4309   0.961   5.794   6.335 -1.6402 -0.5097  0.3516
   32MOL0     H 4310   0.841   5.626   6.463  0.3464  0.2234  0.2189
   32MOL0     H 4311   0.905   5.512   6.347  0.3543  1.1105 -3.2304
   32MOL0     H 4312   0.800   5.636   6.153 -1.1752  1.3441 -0.0049
   32MOL0     H 4313   0.718   5.741   6.273 -0.2771 -0.0012  1.8940
   32MOL0     H 4314   0.691   5.432   6.284 -0.0710 -0.4141 -2.1539
   32MOL0     H 4315   0.605   5.570   6.375 -1.3008 -2.1290 -0.2350
   32MOL0     H 4316   0.379   5.563   6.024 -2.5376 -2.6699  2.0714
   32MOL0     H 4317   1.204   5.629   6.636 -2.5251 -0.9310 -3.0546
   32MOL0     H 4318   1.535   5.636   6.722  1.3791 -1.2771  0.0009
   32MOL0     H 4319   1.486   5.807   6.769  0.9668 -0.9931  1.7724
   32MOL0     H 4320   1.378   5.672   6.788  2.0476 -1.3165 -0.4738
   33MOL0     O 4321   4.791  10.524   2.296 -0.7183 -0.1836 -0.1590
   33MOL0     C 4322   4.684  10.512   2.356  0.1382  0.5975 -0.7396
   33MOL0     O 4323   4.658  10.511   2.491 -0.3994  1.1422 -0.6562
   33MOL0     C 4324   4.766  10.513   2.585 -0.1364  0.5781  0.8170
   33MOL0     C 4325   4.820  10.632   2.633 -0.8916  0.5587 -0.1224
   33MOL0     C 4326   4.935  10.639   2.707 -0.0731 -0.4707  0.2502
   33MOL0     C 4327   5.000  10.527   2.746  0.3574 -0.4976 -0.4190
   33MOL0     O 4328   5.119  10.520   2.813 -0.1296  0.0950 -0.1575
   33MOL0     C 4329   5.175  10.640   2.864 -0.9172  0.1353  0.3042
   33MOL0     C 4330   5.301  10.594   2.950  0.4930  0.1232  0.8340
   33MOL0     C 4331   5.395  10.500   2.876 -0.6758  0.3372  0.0788
   33MOL0     C 4332   5.475  10.416   2.973 -0.2845 -0.0338 -0.1921
   33MOL0     C 4333   5.574  10.317   2.903  0.5081  0.0505  0.0771
   33MOL0     C 4334   5.677  10.379   2.810  0.1365 -0.0583 -0.1214
   33MOL0     C 4335   5.749  10.271   2.741 -0.2743 -0.0730  0.0764
   33MOL0     C 4336   5.864  10.313   2.646 -0.0921 -0.1209 -0.2370
   33MOL0     N 4337   5.978  10.364   2.727 -0.5372  0.1401  0.3820
   33MOL0     C 4338   6.092  10.291   2.763 -0.2781  0.4136 -0.6133
   33MOL0     C 4339   6.156  10.378   2.842 -0.3054 -0.6673 -0.2386
   33MOL0     C 4340   6.294  10.345   2.889  0.4491  0.9796  0.5705
   33MOL0     C 4341   6.310  10.394   3.029 -0.1025  0.4484  0.9341
   33MOL0     C 4342   6.439  10.328   3.079  0.4479 -0.1224  0.2108
   33MOL0     C 4343   6.472  10.345   3.228 -0.9129  1.0505  0.0135
   33MOL0     O 4344   6.490  10.480   3.267  0.5997 -0.3216 -0.3392
   33MOL0     C 4345   6.577  10.512   3.372  0.6221 -0.8746 -0.2331
   33MOL0     C 4346   6.663  10.433   3.438  0.2933  0.6397 -0.5637
   33MOL0     C 4347   6.750  10.478   3.535 -0.5047 -0.2403  0.0673
   33MOL0     C 4348   6.752  10.607   3.563  0.2393  0.3114 -0.2255
   33MOL0     C 4349   6.845  10.659   3.662 -0.7198 -0.1279 -1.0881
   33MOL0     O 4350   6.828  10.782   3.708 -0.8417 -0.0186 -0.0087
   33MOL0     C 4351   6.888  10.832   3.821  0.9266 -0.3708  0.2183
   33MOL0     C 4352   6.985  10.929   3.792  0.6662  1.0005  0.1668
   33MOL0     C 4353   7.045  10.996   3.899  0.4009 -0.8586  0.0535
   33MOL0     C 4354   7.007  10.964   4.033  0.1379  0.2089 -0.0249
   33MOL0     O 4355   7.072  11.030   4.137 -0.9353 -0.2445  0.4819
   33MOL0     C 4356   7.010  11.052   4.266 -0.2474 -0.8212  0.5360
   33MOL0     C 4357   7.109  10.994   4.371 -0.3394 -0.5425 -0.1049
   33MOL0     C 4358   7.214  11.112   4.392 -0.2207 -0.2239  0.4122
   33MOL0     C 4359   7.321  11.072   4.494  0.0052 -0.7712  0.7823
   33MOL0     C 4360   7.419  10.960   4.456  0.6840  0.1673  0.7929
   33MOL0     C 4361   7.472  10.983   4.317 -0.2666  0.0481  0.3104
   33MOL0     C 4362   7.596  10.899   4.306 -0.1597  0.5917  0.2848
   33MOL0     C 4363   7.661  10.930   4.171  0.1552  0.0447 -0.8833
   33MOL0    Cl 4364   7.776  11.065   4.174  0.6036  0.1476  0.3802
   33MOL0     C 4365   6.915  10.860   4.058  0.1652  0.1241 -0.7947
   33MOL0     C 4366   6.851  10.801   3.952  0.9389 -0.2087  0.2921
   33MOL0     O 4367   6.925  10.580   3.714 -0.2467 -0.6488 -0.3251
   33MOL0     C 4368   6.666  10.696   3.500 -0.0078  0.2956 -0.2817
   33MOL0     C 4369   6.580  10.647   3.402  0.4022  0.4564  0.3894
   33MOL0     N 4370   6.094  10.505   2.840  0.1958 -0.2870  0.3775
   33MOL0     N 4371   5.987  10.491   2.770 -0.4139  0.1740 -0.2742
   33MOL0     C 4372   4.948  10.400   2.706 -1.1444 -0.0295 -0.1279
   33MOL0     C 4373   4.830  10.396   2.634 -0.4176  0.0348  0.3521
   33MOL0     C 4374   4.565  10.521   2.274 -0.3225  0.2139  0.1620
   33MOL0     C 4375   4.459  10.615   2.318 -0.3721  0.9570 -0.4138
   33MOL0     C 4376   4.344  10.627   2.245 -0.2849 -1.2455  0.1240
   33MOL0     C 4377   4.329  10.554   2.126 -0.3732  0.4085  0.0036
   33MOL0     O 4378   4.222  10.555   2.047 -0.0866  0.5753 -0.5324
   33MOL0     C 4379   4.096  10.622   2.073 -0.1217  0.9412  0.2054
   33MOL0     C 4380   3.999  10.552   1.989  0.1776 -0.2538 -0.1973
   33MOL0     C 4381   4.020  10.595   1.841  1.1055 -0.1403 -0.4583
   33MOL0     C 4382   3.894  10.565   1.762  0.5951 -0.2937  0.2629
   33MOL0     C 4383   3.792  10.670   1.760  0.0449 -0.5788  0.0975
   33MOL0     C 4384   3.702  10.755   1.762 -0.5088  0.0427 -0.7698
   33MOL0     C 4385   4.416  10.459   2.090  0.1002 -0.9337  0.4183
   33MOL0     C 4386   4.544  10.448   2.158 -0.8130 -0.0220  0.2807
   33MOL0     C 4387   4.638  10.344   2.101  0.1869 -0.4801 -0.7714
   33MOL0     H 4388   4.782  10.727   2.595 -2.9596 -0.4834 -0.8347
   33MOL0     H 4389   4.971  10.737   2.737  0.6450 -0.6680  0.0622
   33MOL0     H 4390   5.203  10.710   2.786 -0.4776  1.8770  1.9501
   33MOL0     H 4391   5.100  10.691   2.925 -2.1163  0.9707 -1.8010
   33MOL0     H 4392   5.269  10.555   3.047  0.1141 -0.6718  0.4084
   33MOL0     H 4393   5.373  10.675   2.963  3.8142 -1.8250 -3.1680
   33MOL0     H 4394   5.455  10.550   2.800 -0.0858 -1.3076 -0.5827
   33MOL0     H 4395   5.344  10.418   2.825  0.5482 -0.9448  0.8743
   33MOL0     H 4396   5.523  10.486   3.042 -0.4978 -0.6552  0.5952
   33MOL0     H 4397   5.404  10.364   3.037  0.1769 -0.2507  0.1460
   33MOL0     H 4398   5.629  10.267   2.983 -2.7928  1.3791  3.5033
   33MOL0     H 4399   5.523  10.236   2.850  0.3406  1.3439 -1.8417
   33MOL0     H 4400   5.625  10.439   2.734  0.4013 -0.7952 -0.9070
   33MOL0     H 4401   5.741  10.444   2.870 -1.8450  3.6596 -1.7306
   33MOL0     H 4402   5.678  10.206   2.689  0.9018 -2.4126  1.2067
   33MOL0     H 4403   5.789  10.209   2.822 -0.0992 -1.8752 -1.3153
   33MOL0     H 4404   5.906  10.231   2.587 -0.5077  0.4766 -1.3827
   33MOL0     H 4405   5.831  10.396   2.582 -2.3986  0.2342  1.2903
   33MOL0     H 4406   6.122  10.193   2.728  3.3881  0.5656  1.5566
   33MOL0     H 4407   6.296  10.236   2.891  0.7498  0.8752 -2.0764
   33MOL0     H 4408   6.364  10.379   2.813  0.2425  1.9312  0.7919
   33MOL0     H 4409   6.314  10.503   3.022 -2.2727  0.5196 -0.0146
   33MOL0     H 4410   6.235  10.360   3.101 -0.0277 -0.9563  0.3764
   33MOL0     H 4411   6.524  10.359   3.017  1.1932 -2.0533  0.1872
   33MOL0     H 4412   6.437  10.219   3.064  4.0584 -0.5935  1.9082
   33MOL0     H 4413   6.556  10.279   3.249 -1.6763 -0.8936 -2.5647
   33MOL0     H 4414   6.385  10.302   3.279 -0.2331  0.8333  1.0268
   33MOL0     H 4415   6.676  10.327   3.419  2.6618  0.2450  2.5014
   33MOL0     H 4416   6.809  10.404   3.588 -1.3118 -0.8417  0.1391
   33MOL0     H 4417   7.013  10.957   3.691  0.8134  1.1275  0.2440
   33MOL0     H 4418   7.109  11.077   3.867 -4.0136  3.0219 -0.0256
   33MOL0     H 4419   6.983  11.156   4.286 -4.0640 -1.5426 -0.0321
   33MOL0     H 4420   6.909  11.009   4.265  0.3270 -2.2117 -0.6802
   33MOL0     H 4421   7.059  10.979   4.467 -1.0620 -0.0716 -0.3926
   33MOL0     H 4422   7.156  10.904   4.331 -0.9381 -0.5337 -0.8559
   33MOL0     H 4423   7.254  11.136   4.293 -2.0410  0.3867 -0.2145
   33MOL0     H 4424   7.159  11.199   4.428  0.2098  0.7729 -1.2125
   33MOL0     H 4425   7.272  11.049   4.589 -3.3282 -1.2488 -0.9229
   33MOL0     H 4426   7.381  11.161   4.511 -0.2829 -0.1277 -1.3473
   33MOL0     H 4427   7.367  10.864   4.452  3.2147 -1.2643 -0.7986
   33MOL0     H 4428   7.505  10.962   4.525  3.2199  1.2833 -2.1541
   33MOL0     H 4429   7.403  10.950   4.239 -0.2768  1.1894 -0.1889
   33MOL0     H 4430   7.516  11.082   4.304  1.6407 -0.6934  0.6590
   33MOL0     H 4431   7.569  10.794   4.323  0.4610  0.5955  1.4370
   33MOL0     H 4432   7.667  10.922   4.386  0.1708  0.5475  0.0053
   33MOL0     H 4433   7.712  10.835   4.153 -1.1673 -0.8680  0.0330
   33MOL0     H 4434   7.591  10.927   4.087  0.3590  1.5548 -1.1445
   33MOL0     H 4435   6.907  10.816   4.157 -0.5157 -0.2499 -1.0019
   33MOL0     H 4436   6.772  10.729   3.972  0.4350  0.0431 -0.7252
   33MOL0     H 4437   6.655  10.802   3.521 -1.8426  0.0161  0.3698
   33MOL0     H 4438   6.513  10.714   3.349  1.0543 -0.8172 -2.2566
   33MOL0     H 4439   5.002  10.307   2.721 -0.6978  0.4257  1.3083
   33MOL0     H 4440   4.775  10.305   2.613 -0.8996  0.4658 -0.2948
   33MOL0     H 4441   4.485  10.672   2.406  0.9627  1.2365 -0.9660
   33MOL0     H 4442   4.260  10.693   2.268  1.4137  0.6811  1.0731
   33MOL0     H 4443   4.097  10.729   2.051 -2.7978  0.6336 -1.8901
   33MOL0     H 4444   4.060  10.612   2.176 -0.9720  1.4136 -0.0357
   33MOL0     H 4445   3.898  10.576   2.024 -0.1733 -1.2177 -0.5242
   33MOL0     H 4446   4.019  10.445   1.999  2.6861  0.2832  1.4898
   33MOL0     H 4447   4.105  10.534   1.808  1.3601 -0.6029  0.9966
   33MOL0     H 4448   4.052  10.699   1.829  0.1438  0.1536 -0.5555
   33MOL0     H 4449   3.923  10.543   1.659  0.4416  3.0209 -0.6129
   33MOL0     H 4450   3.849  10.475   1.806  2.5056 -1.8509 -0.7836
   33MOL0     H 4451   3.623  10.827   1.749 -1.9089  0.2881  5.8447
   33MOL0     H 4452   4.403  10.415   1.991  0.3303  1.4518 -0.7488
   33MOL0     H 4453   4.648  10.367   1.994  1.9106  0.1624 -0.4972
   33MOL0     H 4454   4.740  10.344   2.139  0.8320 -0.9466 -2.4261
   33MOL0     H 4455   4.584  10.249   2.108 -1.3348  0.3400 -0.9093
   34MOL0     O 4456   6.885   1.133  10.655  0.6083  0.3710 -0.3906
   34MOL0     C 4457   6.825   1.053  10.585 -1.0371  0.2501  0.5288
   34MOL0     O 4458   6.878   0.945  10.518  0.0322 -0.3109 -0.0463
   34MOL0     C 4459   6.979   0.877  10.580  0.1677 -0.0683  0.0401
   34MOL0     C 4460   7.092   0.941  10.639  1.6335  0.0548 -0.7763
   34MOL0     C 4461   7.191   0.865  10.710  0.5571 -0.9128 -0.2135
   34MOL0     C 4462   7.192   0.726  10.710 -0.1987  0.3757  0.1452
   34MOL0     O 4463   7.293   0.654  10.770 -0.1091 -0.0752 -0.8973
   34MOL0     C 4464   7.362   0.725  10.875  0.5816  0.2838  0.9079
   34MOL0     C 4465   7.436   0.631  10.970  0.5292 -0.3941  0.0403
   34MOL0     C 4466   7.500   0.719  11.077 -0.4891 -0.5277 -0.4336
   34MOL0     C 4467   7.553   0.623  11.185 -0.2460 -1.0568 -0.0840
   34MOL0     C 4468   7.661   0.684  11.276  0.1844  1.0076  0.5272
   34MOL0     C 4469   7.730   0.575  11.359 -0.6396  0.4048 -0.5611
   34MOL0     C 4470   7.846   0.635  11.442  0.0172  0.1842 -0.7778
   34MOL0     C 4471   7.903   0.531  11.546  0.2219 -0.3506  0.1127
   34MOL0     N 4472   7.997   0.597  11.631  0.7869 -0.3025  0.1838
   34MOL0     C 4473   8.047   0.551  11.749  0.2108  0.1314 -0.8701
   34MOL0     C 4474   8.118   0.656  11.805  0.1450 -0.2450 -0.7166
   34MOL0     C 4475   8.189   0.678  11.934 -0.7279  0.2575 -0.2342
   34MOL0     C 4476   8.344   0.698  11.919  0.2520 -0.5398 -0.2140
   34MOL0     C 4477   8.415   0.701  12.053 -0.4851 -0.3689  0.0428
   34MOL0     C 4478   8.531   0.790  12.053 -0.7398 -0.8380  0.3975
   34MOL0     O 4479   8.629   0.749  11.952 -0.2534 -0.3816 -0.2783
   34MOL0     C 4480   8.750   0.806  11.944 -0.4378 -0.8198  0.8694
   34MOL0     C 4481   8.821   0.890  12.038  0.0237 -0.3304  0.0891
   34MOL0     C 4482   8.945   0.935  12.004 -0.5648 -0.4558  0.5077
   34MOL0     C 4483   9.004   0.919  11.870  0.2508 -0.7650 -0.3809
   34MOL0     C 4484   9.142   0.966  11.839  0.3789 -0.7079 -0.1059
   34MOL0     O 4485   9.208   1.051  11.925 -0.0689  0.3026 -0.5483
   34MOL0     C 4486   9.317   1.123  11.884  0.2338 -0.4060  0.2263
   34MOL0     C 4487   9.426   1.075  11.818 -0.5695  0.0954  0.6229
   34MOL0     C 4488   9.539   1.151  11.779  0.1828  0.0443 -0.0364
   34MOL0     C 4489   9.547   1.279  11.799  0.5304  0.0826 -0.3688
   34MOL0     O 4490   9.662   1.346  11.756 -0.0237 -0.9304 -1.0747
   34MOL0     C 4491   9.649   1.482  11.717  0.0188  0.9661  0.2241
   34MOL0     C 4492   9.788   1.515  11.658  0.5300 -0.0626  0.2173
   34MOL0     C 4493   9.784   1.674  11.640  0.0379  0.1732  0.5837
   34MOL0     C 4494   9.909   1.742  11.576  0.5895  0.1789  0.3621
   34MOL0     C 4495  10.020   1.782  11.678  0.8267 -0.6470  0.1231
   34MOL0     C 4496  10.144   1.820  11.595  0.9623 -0.0093  0.4519
   34MOL0     C 4497  10.250   1.890  11.683  0.6372  0.4874  0.2300
   34MOL0     C 4498  10.326   1.790  11.767 -0.1136  0.0188 -0.5732
   34MOL0    Cl 4499  10.408   1.673  11.657 -0.1067  0.2463 -0.4307
   34MOL0     C 4500   9.433   1.340  11.863  1.0179 -0.0614  0.1638
   34MOL0     C 4501   9.326   1.262  11.910  0.6283 -0.5767  0.0292
   34MOL0     O 4502   9.179   0.943  11.722  0.3060  0.2128  0.0692
   34MOL0     C 4503   8.936   0.831  11.789 -0.2993  0.7120 -0.7319
   34MOL0     C 4504   8.810   0.777  11.818 -0.0715 -0.3370 -0.4003
   34MOL0     N 4505   8.111   0.765  11.718  0.7396  0.0503 -0.4586
   34MOL0     N 4506   8.032   0.733  11.619  0.4487  0.0915  0.3562
   34MOL0     C 4507   7.080   0.661  10.644  0.3864 -0.1880  0.1266
   34MOL0     C 4508   6.975   0.739  10.587  0.0660 -0.3649  0.3417
   34MOL0     C 4509   6.677   1.071  10.560  0.1869 -0.2953 -1.1061
   34MOL0     C 4510   6.646   1.185  10.500 -0.1634 -0.0406  0.3501
   34MOL0     C 4511   6.514   1.228  10.478 -0.4042  0.2425  0.3422
   34MOL0     C 4512   6.414   1.149  10.517 -0.2388 -0.6836 -0.3919
   34MOL0     O 4513   6.277   1.175  10.486 -0.1038  0.0995 -0.4700
   34MOL0     C 4514   6.234   1.292  10.403  0.3444  0.8049 -0.9296
   34MOL0     C 4515   6.205   1.260  10.257  0.8303 -0.0317 -1.0918
   34MOL0     C 4516   6.320   1.207  10.180  0.0827 -0.5180  0.6782
   34MOL0     C 4517   6.278   1.205  10.034 -0.0742 -0.1627  0.6603
   34MOL0     C 4518   6.160   1.118  10.003 -1.0177 -0.1945  0.1544
   34MOL0     C 4519   6.058   1.051   9.990 -0.1563  0.4416 -0.4360
   34MOL0     C 4520   6.450   1.027  10.579  0.5783  0.0294  0.7386
   34MOL0     C 4521   6.579   0.983  10.600 -0.0049 -0.4251  0.0618
   34MOL0     C 4522   6.604   0.849  10.668  0.2162 -0.8414  0.0975
   34MOL0     H 4523   7.117   1.046  10.645  0.8358  0.2338 -0.4837
   34MOL0     H 4524   7.268   0.923  10.759  0.2919 -1.2320  0.6057
   34MOL0     H 4525   7.430   0.791  10.820 -1.2915 -0.5512 -2.7228
   34MOL0     H 4526   7.289   0.781  10.936  2.1046 -1.1969  4.3654
   34MOL0     H 4527   7.531   0.599  10.925  1.8554 -0.4981  2.6996
   34MOL0     H 4528   7.378   0.541  10.992  0.9265 -0.5950  0.2945
   34MOL0     H 4529   7.417   0.777  11.119 -0.6430 -1.1478  0.1286
   34MOL0     H 4530   7.578   0.792  11.055 -1.4933  1.0605  1.0134
   34MOL0     H 4531   7.466   0.597  11.246 -0.1210  1.1974  1.1400
   34MOL0     H 4532   7.582   0.533  11.129 -0.0877 -0.7524 -0.4943
   34MOL0     H 4533   7.732   0.741  11.215  1.8002 -1.2091  0.2569
   34MOL0     H 4534   7.612   0.760  11.339 -0.3499  1.0324  0.0932
   34MOL0     H 4535   7.661   0.527  11.429  2.8561 -2.8621  0.9791
   34MOL0     H 4536   7.783   0.511  11.288  0.3899  0.9746 -0.3199
   34MOL0     H 4537   7.809   0.718  11.503  0.1938 -0.8356  0.7814
   34MOL0     H 4538   7.926   0.675  11.379 -0.0813  0.6375 -0.6246
   34MOL0     H 4539   7.823   0.498  11.614 -0.9970  2.6333  0.3134
   34MOL0     H 4540   7.946   0.443  11.499 -1.0128 -1.4779  0.9953
   34MOL0     H 4541   8.026   0.454  11.793  0.7390  0.3772 -0.0441
   34MOL0     H 4542   8.153   0.761  11.995 -0.9120  0.4793 -0.6496
   34MOL0     H 4543   8.178   0.586  11.993 -0.7797  0.5834  0.2691
   34MOL0     H 4544   8.378   0.624  11.847  1.6697 -0.5760  0.4786
   34MOL0     H 4545   8.356   0.793  11.865  0.6005  0.4496  1.5027
   34MOL0     H 4546   8.447   0.601  12.084 -0.9878 -0.3390  0.6668
   34MOL0     H 4547   8.349   0.733  12.133 -2.0809 -3.3093  0.0713
   34MOL0     H 4548   8.575   0.774  12.151  0.2426 -0.7984 -0.0256
   34MOL0     H 4549   8.506   0.896  12.044  2.9520  0.2179  0.9378
   34MOL0     H 4550   8.787   0.894  12.141  0.5990 -0.7661  0.3067
   34MOL0     H 4551   9.001   0.999  12.072 -0.9616  2.2355 -1.5650
   34MOL0     H 4552   9.431   0.971  11.788  2.2675  0.6908 -1.4280
   34MOL0     H 4553   9.623   1.106  11.726  1.1353  1.1240  0.5160
   34MOL0     H 4554   9.573   1.502  11.641 -1.5110  1.7194  1.8792
   34MOL0     H 4555   9.639   1.555  11.799  2.8624  1.4322  0.2855
   34MOL0     H 4556   9.877   1.496  11.719  0.4899 -1.6475 -0.1861
   34MOL0     H 4557   9.807   1.464  11.563 -0.0099 -0.0329  0.0940
   34MOL0     H 4558   9.692   1.700  11.587  0.0968  0.0835  0.4365
   34MOL0     H 4559   9.766   1.718  11.738  1.7811  0.3765  0.8465
   34MOL0     H 4560   9.870   1.831  11.525 -1.4954 -1.4208 -1.0377
   34MOL0     H 4561   9.950   1.680  11.495 -2.3943 -1.1906 -0.2390
   34MOL0     H 4562  10.036   1.697  11.745  1.7720 -1.3170 -0.9157
   34MOL0     H 4563   9.994   1.866  11.743  2.8037 -0.7574  1.1121
   34MOL0     H 4564  10.180   1.731  11.542 -0.2240  0.0311 -0.4733
   34MOL0     H 4565  10.113   1.881  11.509 -1.9570  0.6125  1.8330
   34MOL0     H 4566  10.199   1.960  11.751  0.0977 -0.1751  0.5215
   34MOL0     H 4567  10.320   1.945  11.620  3.1704 -2.9026 -0.1589
   34MOL0     H 4568  10.401   1.837  11.831 -2.2448  0.3773  1.8621
   34MOL0     H 4569  10.258   1.744  11.840 -0.0985  0.1648 -0.4671
   34MOL0     H 4570   9.439   1.447  11.883  3.2583  0.1975 -1.4875
   34MOL0     H 4571   9.236   1.307  11.950 -0.0657 -1.3370 -0.6317
   34MOL0     H 4572   8.981   0.810  11.693  1.9905  1.8761  0.0122
   34MOL0     H 4573   8.739   0.719  11.760 -0.2778  1.9151 -2.5840
   34MOL0     H 4574   7.070   0.553  10.644 -4.1805  0.0344  0.2379
   34MOL0     H 4575   6.892   0.683  10.545  1.2347 -1.6333 -0.3934
   34MOL0     H 4576   6.730   1.246  10.466  0.1831 -0.5854  0.2192
   34MOL0     H 4577   6.507   1.332  10.447 -0.3226 -0.7770 -3.7687
   34MOL0     H 4578   6.309   1.370  10.411  0.0471  0.8914  2.1418
   34MOL0     H 4579   6.145   1.339  10.446 -2.0941 -1.0806 -3.5373
   34MOL0     H 4580   6.165   1.352  10.215 -0.1056 -1.4005 -3.3723
   34MOL0     H 4581   6.122   1.189  10.255  1.5488 -0.9161 -0.8630
   34MOL0     H 4582   6.352   1.104  10.202  2.7943  0.2919  0.8625
   34MOL0     H 4583   6.400   1.276  10.206  0.0262  1.6044 -3.7679
   34MOL0     H 4584   6.247   1.304   9.997 -0.2713 -0.0109  1.2173
   34MOL0     H 4585   6.361   1.169   9.973 -0.0513 -0.4267  0.8437
   34MOL0     H 4586   5.960   1.011   9.972  1.2184 -3.5900  0.1205
   34MOL0     H 4587   6.367   0.964  10.607 -0.6942  0.5374 -1.6237
   34MOL0     H 4588   6.660   0.794  10.593 -1.1609  1.8849 -3.1895
   34MOL0     H 4589   6.675   0.856  10.751 -0.7445  0.2542  0.8617
   34MOL0     H 4590   6.505   0.810  10.692 -0.8807  0.5060 -1.9765
   35MOL0     O 4591   3.610   1.926   7.859  0.0531 -0.2914  0.1675
   35MOL0     C 4592   3.630   1.853   7.758 -0.2570  0.7088 -0.2438
   35MOL0     O 4593   3.744   1.792   7.718 -0.9330 -0.2986 -0.2077
   35MOL0     C 4594   3.864   1.848   7.757 -0.3727 -0.3825 -0.5249
   35MOL0     C 4595   3.886   1.998   7.765  0.1479 -0.5441 -0.8402
   35MOL0     C 4596   4.014   2.039   7.814 -0.0765  0.0511  0.0989
   35MOL0     C 4597   4.103   1.945   7.860  0.0276  0.4634  0.6663
   35MOL0     O 4598   4.226   1.979   7.915 -0.1187 -0.1144 -0.3834
   35MOL0     C 4599   4.260   2.119   7.903 -0.0101  0.1995 -0.4058
   35MOL0     C 4600   4.414   2.117   7.913  0.3023 -0.8253 -0.4124
   35MOL0     C 4601   4.474   2.043   7.789 -0.8109 -0.3233  0.2490
   35MOL0     C 4602   4.624   2.025   7.807  0.5197 -0.3262  0.3391
   35MOL0     C 4603   4.689   1.986   7.673  0.9845  0.2626  0.2696
   35MOL0     C 4604   4.834   1.944   7.699 -1.0021 -0.0278 -0.3597
   35MOL0     C 4605   4.891   1.862   7.581 -0.1580  0.4515 -0.0064
   35MOL0     C 4606   5.020   1.780   7.613  0.6294  0.9218  0.2689
   35MOL0     N 4607   5.123   1.865   7.684 -0.0569 -0.2207  0.1439
   35MOL0     C 4608   5.227   1.933   7.625  0.0980 -0.1662 -0.0326
   35MOL0     C 4609   5.285   1.990   7.730 -0.6434  0.3891  0.1324
   35MOL0     C 4610   5.409   2.074   7.732 -0.1830 -0.4049  0.0965
   35MOL0     C 4611   5.360   2.215   7.718  0.4510 -0.0871  0.6479
   35MOL0     C 4612   5.472   2.317   7.704  0.3065  1.0106  0.2821
   35MOL0     C 4613   5.434   2.462   7.706 -0.1253  0.5293  0.4225
   35MOL0     O 4614   5.544   2.539   7.669 -0.5045 -0.4046 -0.7076
   35MOL0     C 4615   5.556   2.656   7.739 -0.6322 -0.4008 -0.3747
   35MOL0     C 4616   5.466   2.704   7.842 -0.9983  0.0659  0.3619
   35MOL0     C 4617   5.506   2.824   7.919 -0.3157  0.2512  0.3441
   35MOL0     C 4618   5.632   2.887   7.897  0.9278 -0.1463 -0.4818
   35MOL0     C 4619   5.672   3.008   7.982 -0.7497 -0.0413 -0.3377
   35MOL0     O 4620   5.790   3.060   7.958  0.1124  0.1327  0.1195
   35MOL0     C 4621   5.826   3.183   8.016  0.5416  0.3663  0.2953
   35MOL0     C 4622   5.914   3.183   8.128  0.0672 -0.0450 -0.0650
   35MOL0     C 4623   5.967   3.306   8.171  0.4947  0.7108 -0.0090
   35MOL0     C 4624   5.942   3.426   8.108  0.1497  0.1409 -0.6343
   35MOL0     O 4625   5.997   3.549   8.146  0.5446 -0.0165 -0.3922
   35MOL0     C 4626   6.139   3.559   8.115 -0.1706  0.0405 -0.0346
   35MOL0     C 4627   6.189   3.690   8.163 -0.1949  0.2523  0.1006
   35MOL0     C 4628   6.337   3.715   8.132 -0.2292 -0.3147 -0.5272
   35MOL0     C 4629   6.390   3.857   8.145 -0.4852  0.3588 -0.2044
   35MOL0     C 4630   6.548   3.864   8.137  0.0526  0.8235 -0.0832
   35MOL0     C 4631   6.604   3.947   8.252 -0.6602  0.2308 -0.6842
   35MOL0     C 4632   6.588   3.883   8.394 -0.1443  0.2713  0.2668
   35MOL0     C 4633   6.595   3.984   8.503 -0.3785 -0.3599  0.3502
   35MOL0    Cl 4634   6.758   4.068   8.517 -0.1361 -0.0413 -0.6294
   35MOL0     C 4635   5.857   3.427   8.000 -0.6618 -0.5700  0.3790
   35MOL0     C 4636   5.791   3.308   7.954  0.5933  0.0251  0.0675
   35MOL0     O 4637   5.592   3.054   8.061  0.3741  0.5573  0.3722
   35MOL0     C 4638   5.716   2.837   7.795  0.8236  0.0616  0.2593
   35MOL0     C 4639   5.683   2.724   7.719  0.9373 -0.2843 -0.7935
   35MOL0     N 4640   5.219   1.963   7.847 -0.1417  0.0639  0.0409
   35MOL0     N 4641   5.119   1.884   7.821 -0.6630 -0.2362 -0.4088
   35MOL0     C 4642   4.080   1.803   7.845 -0.4474 -0.3906 -0.5045
   35MOL0     C 4643   3.963   1.755   7.794  0.1980 -1.1745 -0.0604
   35MOL0     C 4644   3.510   1.796   7.700 -0.8982  0.6481 -0.0059
   35MOL0     C 4645   3.491   1.655   7.699 -0.3553  0.5411 -0.8717
   35MOL0     C 4646   3.373   1.606   7.646  0.0520  0.2109  0.2903
   35MOL0     C 4647   3.276   1.687   7.597 -0.0737 -0.4960 -0.4451
   35MOL0     O 4648   3.160   1.637   7.542 -0.1669 -0.2665 -0.5780
   35MOL0     C 4649   3.164   1.605   7.397 -0.5230 -1.1462  0.2575
   35MOL0     C 4650   3.026   1.531   7.372 -0.6384 -0.2117 -0.2156
   35MOL0     C 4651   2.900   1.608   7.400 -0.6219  0.0602 -0.0098
   35MOL0     C 4652   2.833   1.573   7.536 -0.3337  0.1465  1.0881
   35MOL0     C 4653   2.688   1.615   7.547  0.0896  0.0302  0.7816
   35MOL0     C 4654   2.574   1.652   7.557 -0.0202 -0.6822 -1.1492
   35MOL0     C 4655   3.290   1.823   7.609  0.7451 -0.3600  0.2940
   35MOL0     C 4656   3.412   1.885   7.646 -0.1745  0.5490  0.2336
   35MOL0     C 4657   3.428   2.037   7.652 -0.5652  0.1979 -0.4896
   35MOL0     H 4658   3.816   2.075   7.734 -0.3836 -1.2217 -1.3649
   35MOL0     H 4659   4.033   2.146   7.814  1.3607 -0.1184  2.9615
   35MOL0     H 4660   4.243   2.164   7.805  2.4968  0.7303 -0.6512
   35MOL0     H 4661   4.224   2.184   7.984 -0.6270  0.0858 -0.5795
   35MOL0     H 4662   4.444   2.062   8.003 -0.0963 -0.2901  0.0543
   35MOL0     H 4663   4.448   2.220   7.923 -0.3948 -0.7562  1.6848
   35MOL0     H 4664   4.454   2.105   7.702 -0.6191 -1.1377 -0.3842
   35MOL0     H 4665   4.425   1.947   7.769 -0.8081 -0.4911  1.0058
   35MOL0     H 4666   4.679   2.110   7.848 -1.4958  1.0593  0.2809
   35MOL0     H 4667   4.632   1.947   7.884 -3.6548 -0.2216  1.1366
   35MOL0     H 4668   4.635   1.896   7.640  0.1948 -0.5621  3.5240
   35MOL0     H 4669   4.682   2.073   7.606 -0.0781  1.8935  2.4095
   35MOL0     H 4670   4.892   2.036   7.710 -0.4680 -0.3844 -0.1355
   35MOL0     H 4671   4.840   1.885   7.791  0.5212  1.4770  0.5480
   35MOL0     H 4672   4.907   1.933   7.500 -0.4608  2.9681  2.0165
   35MOL0     H 4673   4.810   1.790   7.568 -0.6353  0.5047  2.2560
   35MOL0     H 4674   4.997   1.693   7.674  1.0141  0.8900  0.3744
   35MOL0     H 4675   5.043   1.739   7.514 -1.3409  0.7418 -0.1464
   35MOL0     H 4676   5.266   1.925   7.524 -1.7932 -1.8999 -0.6866
   35MOL0     H 4677   5.457   2.066   7.830  2.1813  2.7323 -0.6574
   35MOL0     H 4678   5.485   2.048   7.657 -1.4505 -0.3075 -1.2671
   35MOL0     H 4679   5.292   2.225   7.633  0.7847  1.4602  0.5338
   35MOL0     H 4680   5.317   2.232   7.817  0.5674 -3.7199  1.4496
   35MOL0     H 4681   5.525   2.297   7.611  2.1201 -0.6176  1.5887
   35MOL0     H 4682   5.539   2.288   7.786  1.6167  1.8014 -0.4727
   35MOL0     H 4683   5.385   2.489   7.799 -0.1042  0.0128  0.5873
   35MOL0     H 4684   5.348   2.479   7.640 -1.5375  0.4250  2.1802
   35MOL0     H 4685   5.363   2.672   7.855 -1.5975  2.4296  2.2472
   35MOL0     H 4686   5.432   2.861   7.990 -0.2607  0.7077  0.1674
   35MOL0     H 4687   5.958   3.093   8.169 -1.4722 -0.6094  0.4390
   35MOL0     H 4688   6.045   3.304   8.246  2.4946  0.8201 -1.9795
   35MOL0     H 4689   6.199   3.485   8.169  1.9397  2.6415  1.4221
   35MOL0     H 4690   6.146   3.538   8.008 -0.6931 -2.4435  0.3543
   35MOL0     H 4691   6.138   3.773   8.113 -1.1903  0.4282  1.3628
   35MOL0     H 4692   6.170   3.700   8.270 -0.8595 -0.1253  0.0254
   35MOL0     H 4693   6.399   3.651   8.196  1.6988 -0.2924 -2.2771
   35MOL0     H 4694   6.363   3.681   8.032  2.7885  1.5062 -0.4754
   35MOL0     H 4695   6.345   3.899   8.235 -1.2442  1.4276 -1.0566
   35MOL0     H 4696   6.334   3.907   8.064  0.3124 -1.3947 -1.9216
   35MOL0     H 4697   6.580   3.904   8.040 -0.8418  1.7735 -0.0056
   35MOL0     H 4698   6.586   3.762   8.147 -3.8642 -0.6880  0.8562
   35MOL0     H 4699   6.708   3.965   8.226 -0.7746  0.8394 -0.7488
   35MOL0     H 4700   6.561   4.047   8.266  1.4678  1.1210 -0.0137
   35MOL0     H 4701   6.665   3.809   8.415 -0.2463  0.1110  0.0762
   35MOL0     H 4702   6.491   3.839   8.417 -0.2375 -0.3791 -1.2429
   35MOL0     H 4703   6.524   4.065   8.483 -0.0274  0.1831  1.2576
   35MOL0     H 4704   6.560   3.934   8.594 -1.7403 -0.7867 -0.3849
   35MOL0     H 4705   5.843   3.520   7.948  2.7949 -1.4621 -2.5826
   35MOL0     H 4706   5.725   3.315   7.869  2.1787 -0.8528 -1.2807
   35MOL0     H 4707   5.818   2.871   7.779  0.9155  0.4763  1.6295
   35MOL0     H 4708   5.755   2.689   7.645  0.2210 -1.5608 -0.9152
   35MOL0     H 4709   4.157   1.731   7.870 -0.8316 -0.7989 -0.4872
   35MOL0     H 4710   3.943   1.648   7.803  0.4323 -1.2442 -0.3845
   35MOL0     H 4711   3.570   1.587   7.729 -1.0744  0.6603  1.5711
   35MOL0     H 4712   3.351   1.501   7.636 -1.5094  0.6152 -1.0061
   35MOL0     H 4713   3.247   1.541   7.367  1.9716  1.7273  0.5939
   35MOL0     H 4714   3.181   1.698   7.342  0.7147 -0.5721  1.5490
   35MOL0     H 4715   3.031   1.441   7.433 -1.5489 -0.4508 -0.4814
   35MOL0     H 4716   3.021   1.501   7.267  3.6436  2.1248 -1.3520
   35MOL0     H 4717   2.832   1.579   7.320 -1.7484 -1.1504  1.3117
   35MOL0     H 4718   2.923   1.715   7.403 -0.7698  0.2329 -2.9314
   35MOL0     H 4719   2.846   1.465   7.551 -0.3347  0.0599  0.4836
   35MOL0     H 4720   2.886   1.624   7.617  1.4075 -1.1733  0.8478
   35MOL0     H 4721   2.476   1.694   7.570 -0.1974 -1.7736  2.2043
   35MOL0     H 4722   3.208   1.877   7.564  1.3390 -0.6362 -1.1481
   35MOL0     H 4723   3.426   2.066   7.757 -4.5614 -2.7814  0.5005
   35MOL0     H 4724   3.513   2.075   7.594 -1.8194  1.5308 -1.5278
   35MOL0     H 4725   3.338   2.082   7.610 -1.6789 -1.7792 -0.3147
   36MOL0     O 4726   7.104   7.524   2.991  1.1218  0.2195 -0.2246
   36MOL0     C 4727   7.003   7.463   2.973 -0.2184  0.2977  0.0045
   36MOL0     O 4728   6.973   7.343   3.037 -0.0684  0.4146  0.2730
   36MOL0     C 4729   7.069   7.283   3.107 -0.7919 -0.3348  0.4769
   36MOL0     C 4730   7.143   7.179   3.041  0.3695  0.5813  0.1049
   36MOL0     C 4731   7.245   7.106   3.109  1.2737  0.6772 -0.3503
   36MOL0     C 4732   7.266   7.131   3.244  0.5174  0.3604 -0.0822
   36MOL0     O 4733   7.352   7.055   3.323  0.3679 -0.5969 -0.1763
   36MOL0     C 4734   7.446   6.967   3.263 -0.6925 -0.5789  0.9675
   36MOL0     C 4735   7.534   6.891   3.355 -0.1858  0.5547  0.8115
   36MOL0     C 4736   7.612   6.979   3.451 -1.1707 -0.3677  0.8366
   36MOL0     C 4737   7.714   6.890   3.522  0.4794  0.0183  0.3783
   36MOL0     C 4738   7.781   6.972   3.622 -1.2283  0.5559 -1.4368
   36MOL0     C 4739   7.856   6.873   3.724  0.4339 -0.7337  0.2744
   36MOL0     C 4740   7.938   6.951   3.831 -0.6391  0.0778 -0.4080
   36MOL0     C 4741   8.025   6.855   3.906 -0.7840  0.6720 -0.4025
   36MOL0     N 4742   8.109   6.796   3.803 -0.4212  0.0582 -0.1670
   36MOL0     C 4743   8.222   6.857   3.758  0.0606  0.4117  0.3148
   36MOL0     C 4744   8.273   6.764   3.675  1.0735 -0.6235  0.9293
   36MOL0     C 4745   8.366   6.809   3.565 -0.3618 -1.0799 -0.6745
   36MOL0     C 4746   8.508   6.824   3.625  0.3303 -0.6800  0.0152
   36MOL0     C 4747   8.578   6.690   3.636 -0.4060 -0.3425 -0.6390
   36MOL0     C 4748   8.532   6.592   3.748  0.2813 -0.1331  0.4011
   36MOL0     O 4749   8.519   6.656   3.877 -0.1222  0.2326 -0.1962
   36MOL0     C 4750   8.611   6.631   3.975 -0.7401 -0.4625  0.1135
   36MOL0     C 4751   8.573   6.670   4.104 -0.7076 -0.2467  0.3215
   36MOL0     C 4752   8.665   6.684   4.210 -0.7083  0.6638  0.3144
   36MOL0     C 4753   8.797   6.641   4.177  0.7139  0.1415  0.4701
   36MOL0     C 4754   8.904   6.659   4.276 -1.0427 -0.4326  0.2104
   36MOL0     O 4755   9.032   6.667   4.228 -0.0484  0.1182 -0.8232
   36MOL0     C 4756   9.145   6.651   4.299  0.3009  0.9080 -0.8103
   36MOL0     C 4757   9.164   6.580   4.420 -0.8440  0.0220 -0.0429
   36MOL0     C 4758   9.288   6.564   4.476 -0.4123 -0.1044 -0.5440
   36MOL0     C 4759   9.408   6.607   4.412  0.4030  0.4024 -0.2973
   36MOL0     O 4760   9.537   6.590   4.467 -0.0195 -0.1721  0.5919
   36MOL0     C 4761   9.568   6.455   4.510  0.8017 -0.1320  0.8000
   36MOL0     C 4762   9.726   6.444   4.514  0.4003  0.1465  0.1872
   36MOL0     C 4763   9.798   6.485   4.389 -0.5613 -0.1669  0.1538
   36MOL0     C 4764   9.949   6.467   4.392 -0.2342  1.0048 -0.5744
   36MOL0     C 4765  10.020   6.492   4.254 -0.5614  1.0539  0.0999
   36MOL0     C 4766  10.116   6.371   4.211  1.1305  0.5886 -0.3914
   36MOL0     C 4767  10.230   6.350   4.325  0.2511  0.0657 -0.1632
   36MOL0     C 4768  10.312   6.481   4.356 -0.4686 -0.3067  0.0014
   36MOL0    Cl 4769  10.348   6.599   4.216 -0.3056  0.2770 -0.1107
   36MOL0     C 4770   9.392   6.688   4.299  0.3021 -0.7904  1.0767
   36MOL0     C 4771   9.258   6.702   4.247  0.1371  0.5107  0.9308
   36MOL0     O 4772   8.870   6.646   4.393 -0.0933 -0.1598  0.4702
   36MOL0     C 4773   8.828   6.591   4.045 -0.5642  0.4794  0.8485
   36MOL0     C 4774   8.736   6.591   3.951  0.5629  0.3666  0.0043
   36MOL0     N 4775   8.199   6.651   3.679  0.0482  0.0687  0.6980
   36MOL0     N 4776   8.104   6.670   3.758 -0.3651  0.6739  0.2816
   36MOL0     C 4777   7.194   7.241   3.304 -0.2598 -0.6974 -0.6696
   36MOL0     C 4778   7.096   7.315   3.234 -0.9095 -0.0571  0.3636
   36MOL0     C 4779   6.895   7.520   2.896 -0.1774  0.3159  0.6019
   36MOL0     C 4780   6.783   7.445   2.868  0.1438 -0.2850  0.2754
   36MOL0     C 4781   6.685   7.479   2.776  0.5211 -1.6079 -1.0993
   36MOL0     C 4782   6.697   7.608   2.716  0.1019  0.0971 -0.9127
   36MOL0     O 4783   6.605   7.653   2.626 -0.0719 -0.4980  0.7321
   36MOL0     C 4784   6.517   7.561   2.555  0.4353 -0.6693 -0.3716
   36MOL0     C 4785   6.452   7.645   2.447  1.0935  0.8265 -0.1760
   36MOL0     C 4786   6.327   7.717   2.497 -0.1764  1.0883  0.3826
   36MOL0     C 4787   6.226   7.758   2.382  0.1404 -0.3507  0.6988
   36MOL0     C 4788   6.092   7.822   2.412 -0.4099  0.8484 -0.4964
   36MOL0     C 4789   5.978   7.855   2.440 -0.0897 -0.3797  0.1500
   36MOL0     C 4790   6.799   7.693   2.747 -0.4257  0.2848  0.4770
   36MOL0     C 4791   6.895   7.649   2.840 -0.1503  0.0016  0.0644
   36MOL0     C 4792   7.016   7.741   2.857  0.3799 -0.5674  0.4499
   36MOL0     H 4793   7.101   7.163   2.942 -0.4286  2.2992  0.1224
   36MOL0     H 4794   7.303   7.035   3.052  0.2250  0.1435 -0.7704
   36MOL0     H 4795   7.403   6.894   3.193  2.1421 -0.0654 -1.5199
   36MOL0     H 4796   7.519   7.025   3.206  0.5248  0.1535  3.1947
   36MOL0     H 4797   7.608   6.854   3.284 -0.9337  0.9636 -0.1975
   36MOL0     H 4798   7.483   6.809   3.407  0.5550  0.2005  0.9833
   36MOL0     H 4799   7.539   7.031   3.515  0.5178  0.6264  2.0378
   36MOL0     H 4800   7.668   7.056   3.397 -0.6412 -1.4831 -0.2464
   36MOL0     H 4801   7.663   6.805   3.570  1.9416 -3.7423 -3.9697
   36MOL0     H 4802   7.797   6.850   3.464 -0.1505 -2.7729  1.1957
   36MOL0     H 4803   7.850   7.039   3.569 -1.7224  1.1973 -1.2891
   36MOL0     H 4804   7.719   7.035   3.686  0.0886 -0.0548  0.5334
   36MOL0     H 4805   7.789   6.799   3.767 -1.2596 -0.8729 -2.3520
   36MOL0     H 4806   7.919   6.806   3.664  0.3485  0.2426 -0.9498
   36MOL0     H 4807   7.872   7.022   3.881 -2.8103  1.0395 -4.1777
   36MOL0     H 4808   8.014   7.011   3.781  2.9353 -1.1389  3.0845
   36MOL0     H 4809   8.086   6.908   3.980 -0.2577 -0.2230 -0.1762
   36MOL0     H 4810   7.971   6.776   3.960 -0.1508 -0.3585 -1.2306
   36MOL0     H 4811   8.257   6.960   3.756  1.5394 -0.0789 -0.3285
   36MOL0     H 4812   8.384   6.737   3.485  0.2087 -1.0467 -0.5750
   36MOL0     H 4813   8.327   6.903   3.525  1.5852  1.1349  2.2244
   36MOL0     H 4814   8.570   6.884   3.557 -1.8282  0.8451 -0.7022
   36MOL0     H 4815   8.515   6.893   3.709  2.1984 -0.0175 -0.6335
   36MOL0     H 4816   8.686   6.701   3.651 -0.1832  2.7780 -3.3784
   36MOL0     H 4817   8.571   6.644   3.537  1.2576 -0.8014 -0.5784
   36MOL0     H 4818   8.598   6.505   3.747  0.6129  0.1103 -1.2853
   36MOL0     H 4819   8.434   6.557   3.714 -0.5497  2.0367  0.4183
   36MOL0     H 4820   8.474   6.711   4.121 -0.8858 -0.7584  0.5548
   36MOL0     H 4821   8.629   6.719   4.306 -1.4606  2.2704 -0.5114
   36MOL0     H 4822   9.076   6.543   4.472 -1.9071  1.6532 -0.6225
   36MOL0     H 4823   9.292   6.516   4.573  3.8843  0.1394 -0.3759
   36MOL0     H 4824   9.522   6.436   4.607 -2.0220  1.0069 -0.1982
   36MOL0     H 4825   9.530   6.386   4.434 -1.8424 -0.0685  1.9610
   36MOL0     H 4826   9.765   6.516   4.586  2.6839  1.7842 -2.4962
   36MOL0     H 4827   9.753   6.346   4.555  0.8451  0.8797  1.6973
   36MOL0     H 4828   9.747   6.441   4.303 -2.1823 -0.4643  1.2205
   36MOL0     H 4829   9.775   6.591   4.378  2.4183  0.3283 -3.4087
   36MOL0     H 4830   9.964   6.363   4.421 -0.6504  0.2366 -2.9080
   36MOL0     H 4831  10.011   6.513   4.470  1.9583 -0.0849 -1.5837
   36MOL0     H 4832  10.076   6.584   4.269  1.9914 -0.4580  0.4999
   36MOL0     H 4833   9.947   6.514   4.176 -1.7652  0.0636  0.9119
   36MOL0     H 4834  10.064   6.275   4.211 -0.6500  1.4967  0.1908
   36MOL0     H 4835  10.156   6.378   4.110 -3.3513 -0.9338 -2.5336
   36MOL0     H 4836  10.302   6.275   4.289 -0.2360 -0.5641  0.1555
   36MOL0     H 4837  10.192   6.324   4.424  1.3890  3.2964  1.2553
   36MOL0     H 4838  10.262   6.538   4.435  2.2436  0.2299  1.4612
   36MOL0     H 4839  10.405   6.441   4.398  0.3820 -0.2878 -1.7893
   36MOL0     H 4840   9.475   6.735   4.247  0.1154 -1.2739  0.3369
   36MOL0     H 4841   9.251   6.752   4.151  2.1967  2.0048  1.4717
   36MOL0     H 4842   8.932   6.566   4.025 -1.1870 -4.7354  2.5966
   36MOL0     H 4843   8.756   6.569   3.847 -1.4166 -1.7990 -0.0059
   36MOL0     H 4844   7.229   7.269   3.403  3.0316 -1.6041 -1.4582
   36MOL0     H 4845   7.037   7.398   3.272 -1.2740 -0.6184  1.0463
   36MOL0     H 4846   6.771   7.344   2.905 -2.5735 -0.3856 -0.6238
   36MOL0     H 4847   6.602   7.409   2.764  0.0433 -1.6648  1.8103
   36MOL0     H 4848   6.444   7.526   2.629  2.4382 -0.5697  1.7714
   36MOL0     H 4849   6.576   7.479   2.516 -2.5109 -2.6094 -1.0800
   36MOL0     H 4850   6.423   7.574   2.369  1.9634 -0.2202  0.4163
   36MOL0     H 4851   6.525   7.715   2.407 -0.6807  1.7672 -1.9176
   36MOL0     H 4852   6.353   7.809   2.550  0.9141  0.0134  1.7442
   36MOL0     H 4853   6.260   7.657   2.560  2.5071 -0.5936  1.8029
   36MOL0     H 4854   6.270   7.835   2.318  0.3769 -1.3710 -0.4013
   36MOL0     H 4855   6.195   7.674   2.318 -2.3645  2.2054 -1.7329
   36MOL0     H 4856   5.884   7.902   2.459  1.7645  4.3168 -0.6740
   36MOL0     H 4857   6.807   7.784   2.689 -0.0669 -0.4726 -0.7103
   36MOL0     H 4858   7.034   7.764   2.962  0.2478 -0.6616  0.4922
   36MOL0     H 4859   7.103   7.702   2.803  0.4160  1.2531 -0.9451
   36MOL0     H 4860   6.998   7.838   2.809  0.7776 -0.5931  0.2336
   37MOL0     O 4861   6.550   5.585   0.659 -0.9808  0.1823  0.0647
   37MOL0     C 4862   6.524   5.473   0.618 -0.4100 -0.2332 -0.2245
   37MOL0     O 4863   6.601   5.362   0.621  0.0468 -0.2462  0.3097
   37MOL0     C 4864   6.725   5.353   0.683 -0.6671  0.1169 -0.3623
   37MOL0     C 4865   6.817   5.462   0.663 -0.5487 -0.0770  0.3918
   37MOL0     C 4866   6.941   5.458   0.730 -0.9458 -0.0267 -0.4532
   37MOL0     C 4867   6.987   5.339   0.787  0.0045 -0.4066 -0.2476
   37MOL0     O 4868   7.116   5.348   0.838  0.4526 -0.0789  0.3831
   37MOL0     C 4869   7.189   5.224   0.857  0.1611 -1.0909 -0.1344
   37MOL0     C 4870   7.341   5.272   0.851 -0.5733 -0.1593  0.1473
   37MOL0     C 4871   7.379   5.352   0.721 -0.6245  0.1700  0.2878
   37MOL0     C 4872   7.366   5.267   0.587  0.3010  0.2127 -0.0233
   37MOL0     C 4873   7.447   5.133   0.585  0.2060  0.1189  0.0510
   37MOL0     C 4874   7.597   5.153   0.636 -0.3363 -0.4217  0.7839
   37MOL0     C 4875   7.666   5.022   0.599 -0.4261  1.3345 -0.4614
   37MOL0     C 4876   7.812   5.021   0.639 -0.1656  0.0720 -0.3750
   37MOL0     N 4877   7.896   5.089   0.537 -0.7315 -0.8152  0.3387
   37MOL0     C 4878   7.963   5.036   0.428  0.5534  0.7019  0.6363
   37MOL0     C 4879   8.058   5.114   0.391  0.4807  0.1555 -0.1210
   37MOL0     C 4880   8.163   5.096   0.283  0.1296  0.1102 -0.5301
   37MOL0     C 4881   8.258   4.978   0.318 -0.2054 -0.6933 -0.1921
   37MOL0     C 4882   8.360   5.005   0.434 -0.1306  0.0281 -0.5491
   37MOL0     C 4883   8.435   5.138   0.444 -0.2574 -0.0019  0.3181
   37MOL0     O 4884   8.488   5.172   0.316 -0.1590 -0.4173 -0.1023
   37MOL0     C 4885   8.603   5.110   0.263  0.0773  0.0329  0.1597
   37MOL0     C 4886   8.676   5.013   0.337  0.0759 -0.7152 -0.0629
   37MOL0     C 4887   8.793   4.969   0.274 -0.6276  0.0629 -0.8027
   37MOL0     C 4888   8.824   5.017   0.148 -0.2999 -0.1205  0.3694
   37MOL0     C 4889   8.949   4.978   0.084 -0.5083 -0.1164  0.3187
   37MOL0     O 4890   8.958   4.971  -0.053  0.1441  0.5341 -0.1799
   37MOL0     C 4891   9.082   4.948  -0.110  0.4167 -0.3064 -0.2354
   37MOL0     C 4892   9.137   5.027  -0.215 -1.0352 -0.2497  0.2593
   37MOL0     C 4893   9.258   4.996  -0.271 -0.5684 -0.4154 -0.2637
   37MOL0     C 4894   9.334   4.884  -0.228 -0.6441 -0.4752  0.0826
   37MOL0     O 4895   9.456   4.852  -0.287  0.2648  0.0336  0.1687
   37MOL0     C 4896   9.521   4.931  -0.386  1.0158 -0.7607 -0.6258
   37MOL0     C 4897   9.635   4.852  -0.452  0.2298 -0.7150  0.1819
   37MOL0     C 4898   9.758   4.807  -0.355  0.4060 -0.1914  0.1785
   37MOL0     C 4899   9.861   4.728  -0.432  0.5570 -0.2940 -0.2001
   37MOL0     C 4900   9.978   4.675  -0.337  0.3657 -0.8973 -0.9520
   37MOL0     C 4901   9.930   4.589  -0.220 -0.0016 -0.2554  0.0585
   37MOL0     C 4902  10.047   4.526  -0.141  0.0071 -0.5763  0.3738
   37MOL0     C 4903  10.074   4.606  -0.007  0.2640  0.0886  0.3080
   37MOL0    Cl 4904  10.253   4.588   0.047 -0.0425 -0.0897 -0.3681
   37MOL0     C 4905   9.280   4.806  -0.129 -0.6500  0.3803  0.1383
   37MOL0     C 4906   9.162   4.832  -0.073  0.9608 -0.3112 -0.5391
   37MOL0     O 4907   9.046   4.960   0.158 -0.5693 -0.4422  0.4067
   37MOL0     C 4908   8.746   5.103   0.080  0.6250  0.3126  0.8594
   37MOL0     C 4909   8.635   5.153   0.139  0.1529 -0.0345  0.3803
   37MOL0     N 4910   8.057   5.218   0.489 -0.1596  0.1132  1.3107
   37MOL0     N 4911   7.962   5.206   0.571 -0.0812 -0.2009  0.8333
   37MOL0     C 4912   6.893   5.233   0.802 -0.8601 -0.6201 -0.0817
   37MOL0     C 4913   6.772   5.238   0.743 -0.0150  0.2682 -0.4090
   37MOL0     C 4914   6.380   5.444   0.591  0.7783  0.0594  0.5344
   37MOL0     C 4915   6.324   5.319   0.621 -0.1067  0.7209 -0.7781
   37MOL0     C 4916   6.187   5.283   0.608 -0.1032  0.2078  0.9981
   37MOL0     C 4917   6.103   5.371   0.539 -0.5471  0.3986  0.0154
   37MOL0     O 4918   5.970   5.348   0.514  0.6451 -0.6554 -0.0766
   37MOL0     C 4919   5.909   5.233   0.574  0.2168 -0.3865  0.2534
   37MOL0     C 4920   5.761   5.250   0.581 -0.1925  0.6596 -0.3436
   37MOL0     C 4921   5.685   5.122   0.639 -0.0230  0.1430  0.1568
   37MOL0     C 4922   5.530   5.153   0.657 -0.9707  0.9238 -1.0624
   37MOL0     C 4923   5.451   5.189   0.540 -0.2085 -0.1837 -0.0261
   37MOL0     C 4924   5.390   5.190   0.437  0.2510  0.0623  0.0319
   37MOL0     C 4925   6.151   5.496   0.512 -0.3705  0.4150 -1.1094
   37MOL0     C 4926   6.288   5.532   0.531  0.1374 -0.5739  0.1030
   37MOL0     C 4927   6.328   5.676   0.495  0.5388 -0.3587  0.0239
   37MOL0     H 4928   6.800   5.554   0.608  0.4961 -1.0616 -1.6908
   37MOL0     H 4929   7.013   5.539   0.721 -1.4894  0.4187 -0.8628
   37MOL0     H 4930   7.167   5.193   0.960  1.3958 -1.0496  0.1671
   37MOL0     H 4931   7.170   5.140   0.790  3.0532 -1.3682 -0.7395
   37MOL0     H 4932   7.410   5.188   0.861 -0.1165  0.0933 -0.7873
   37MOL0     H 4933   7.365   5.336   0.936  0.8762  2.3530 -2.0471
   37MOL0     H 4934   7.482   5.386   0.730 -0.2168 -1.2454  1.4327
   37MOL0     H 4935   7.318   5.442   0.726  0.1101  0.6119  2.0623
   37MOL0     H 4936   7.258   5.252   0.580  0.3973 -0.9621  0.5843
   37MOL0     H 4937   7.413   5.331   0.512  2.4167 -1.2030 -0.0035
   37MOL0     H 4938   7.400   5.057   0.647 -0.9563  0.4842 -0.3442
   37MOL0     H 4939   7.443   5.098   0.482 -0.2743 -1.2351  0.5119
   37MOL0     H 4940   7.650   5.232   0.582 -0.8403  0.9244  2.1806
   37MOL0     H 4941   7.620   5.174   0.740  0.3866 -0.2468  0.5932
   37MOL0     H 4942   7.637   4.989   0.498 -2.1955  0.1301  0.3865
   37MOL0     H 4943   7.625   4.938   0.655  1.4945  2.2683  2.5685
   37MOL0     H 4944   7.818   5.086   0.728  0.6105  1.9570 -1.7300
   37MOL0     H 4945   7.855   4.925   0.668  4.9831  1.2796 -2.9156
   37MOL0     H 4946   7.940   4.944   0.375 -0.6919  1.6429 -0.5310
   37MOL0     H 4947   8.110   5.090   0.188  2.2082  0.7834 -1.7885
   37MOL0     H 4948   8.224   5.186   0.268  0.1841  0.2610  0.5283
   37MOL0     H 4949   8.200   4.887   0.336 -2.0972  0.5336  0.2859
   37MOL0     H 4950   8.327   4.967   0.234  0.6946 -0.3188  0.4748
   37MOL0     H 4951   8.435   4.926   0.421 -0.5756 -0.5458  0.3263
   37MOL0     H 4952   8.316   4.976   0.529  0.2131  1.5073  0.0928
   37MOL0     H 4953   8.513   5.145   0.520  1.3689  1.7815 -1.4060
   37MOL0     H 4954   8.360   5.218   0.455 -0.7407 -0.3813 -0.1586
   37MOL0     H 4955   8.653   4.973   0.435  2.3816 -0.6388  0.5870
   37MOL0     H 4956   8.853   4.900   0.332 -1.3496  0.3265  0.2895
   37MOL0     H 4957   9.088   5.114  -0.256 -0.6451  0.1508  0.6255
   37MOL0     H 4958   9.299   5.055  -0.352 -0.6414 -0.3264 -0.2349
   37MOL0     H 4959   9.454   4.952  -0.469 -0.2216 -2.8226 -0.2026
   37MOL0     H 4960   9.560   5.022  -0.338  0.2075 -0.1846 -1.0418
   37MOL0     H 4961   9.594   4.768  -0.509  0.9719 -1.2743  0.4457
   37MOL0     H 4962   9.671   4.911  -0.538  1.7122 -1.6196  0.1452
   37MOL0     H 4963   9.794   4.896  -0.302  0.8594 -0.5402  0.4690
   37MOL0     H 4964   9.712   4.741  -0.280 -1.8072  2.9199  1.7742
   37MOL0     H 4965   9.898   4.788  -0.515 -1.0276 -2.6829 -2.7876
   37MOL0     H 4966   9.809   4.644  -0.478  5.5802 -2.5090 -2.5746
   37MOL0     H 4967  10.041   4.756  -0.298  1.7174 -2.4334  0.1665
   37MOL0     H 4968  10.052   4.627  -0.402  1.5429  0.5277 -0.7416
   37MOL0     H 4969   9.877   4.655  -0.150  0.0483 -0.8373  0.6485
   37MOL0     H 4970   9.866   4.514  -0.266  0.8992  1.3683 -4.3104
   37MOL0     H 4971  10.131   4.530  -0.212 -2.3653  1.5569 -2.5700
   37MOL0     H 4972  10.016   4.422  -0.127  0.4767 -0.9973 -1.4241
   37MOL0     H 4973  10.063   4.714  -0.021 -3.3515 -0.3133 -0.9996
   37MOL0     H 4974  10.000   4.564   0.061 -0.5300 -1.4426 -1.3995
   37MOL0     H 4975   9.346   4.723  -0.105 -1.2260 -0.3986 -0.8622
   37MOL0     H 4976   9.142   4.776   0.018 -0.0229 -1.4134 -1.4043
   37MOL0     H 4977   8.756   5.130  -0.024 -1.2257  4.1643  1.5059
   37MOL0     H 4978   8.567   5.220   0.086 -0.8790 -0.6417  0.9155
   37MOL0     H 4979   6.914   5.145   0.864 -0.3241  1.3089  2.6767
   37MOL0     H 4980   6.703   5.155   0.746  2.6331 -2.1649 -1.8427
   37MOL0     H 4981   6.393   5.246   0.662 -1.0315 -0.9301 -2.0727
   37MOL0     H 4982   6.158   5.187   0.650 -1.1152 -0.8127 -1.7680
   37MOL0     H 4983   5.944   5.221   0.677 -0.2199  0.6484  0.5344
   37MOL0     H 4984   5.934   5.145   0.513 -1.7290 -1.1343  0.4568
   37MOL0     H 4985   5.725   5.265   0.479  0.3199  0.7683 -0.5112
   37MOL0     H 4986   5.733   5.333   0.646 -2.6392 -0.2179 -0.1795
   37MOL0     H 4987   5.724   5.090   0.736  0.5999 -1.1905 -0.5039
   37MOL0     H 4988   5.710   5.037   0.575 -1.0468 -1.1773  1.4465
   37MOL0     H 4989   5.493   5.062   0.706  2.6630 -0.1243  0.0809
   37MOL0     H 4990   5.507   5.233   0.727  0.7462 -1.1892  2.1438
   37MOL0     H 4991   5.331   5.199   0.347  0.8943 -0.7657 -0.4936
   37MOL0     H 4992   6.082   5.568   0.469 -1.8154  0.2229  0.7588
   37MOL0     H 4993   6.360   5.728   0.586  3.7627 -0.7844 -0.7723
   37MOL0     H 4994   6.418   5.673   0.433 -0.1111 -2.7428 -0.8967
   37MOL0     H 4995   6.246   5.736   0.454  0.4393 -0.0151  0.7024
   38MOL0     O 4996   8.067   5.995   1.206  0.2615 -0.0141 -0.8129
   38MOL0     C 4997   8.045   6.086   1.118 -0.1327  0.0090 -0.1674
   38MOL0     O 4998   8.137   6.189   1.090 -0.1626  0.8934  0.0584
   38MOL0     C 4999   8.262   6.173   1.146 -0.0536 -0.1561  0.4193
   38MOL0     C 5000   8.268   6.221   1.275 -0.9714 -0.0239  0.8913
   38MOL0     C 5001   8.394   6.209   1.333 -0.1152  0.7136 -0.0960
   38MOL0     C 5002   8.512   6.160   1.273  0.4858 -0.1804  0.1094
   38MOL0     O 5003   8.642   6.175   1.317  0.9970  0.0343  0.0471
   38MOL0     C 5004   8.649   6.166   1.462  0.5125 -0.3527  0.2516
   38MOL0     C 5005   8.800   6.159   1.477 -0.4646  0.0432  0.5379
   38MOL0     C 5006   8.854   6.020   1.428  0.1378  0.1409 -0.3825
   38MOL0     C 5007   8.984   6.062   1.348 -0.2964 -1.2821 -0.5228
   38MOL0     C 5008   9.037   5.945   1.272 -0.8128 -0.4276 -0.2412
   38MOL0     C 5009   9.142   6.004   1.187 -0.3990 -0.0978  0.0921
   38MOL0     C 5010   9.218   5.894   1.108  0.2028 -0.5953 -0.0532
   38MOL0     C 5011   9.158   5.858   0.975 -0.9065  1.0006  0.1805
   38MOL0     N 5012   9.205   5.718   0.939 -0.4422 -0.0021  0.9058
   38MOL0     C 5013   9.310   5.685   0.851  0.3494  0.3967  0.0772
   38MOL0     C 5014   9.315   5.553   0.858 -0.1513  0.6818  0.2623
   38MOL0     C 5015   9.416   5.458   0.790  0.4033  0.0856  0.4565
   38MOL0     C 5016   9.544   5.474   0.875  1.3783  0.4077  0.2022
   38MOL0     C 5017   9.646   5.383   0.810  0.3243 -0.5281  0.2796
   38MOL0     C 5018   9.789   5.436   0.855 -0.6038  0.1120 -0.0759
   38MOL0     O 5019   9.805   5.422   0.998 -0.4556  0.3751  0.3072
   38MOL0     C 5020   9.938   5.419   1.039 -0.7878  0.4255 -0.2291
   38MOL0     C 5021   9.981   5.526   1.110 -0.4093  0.2072 -0.0074
   38MOL0     C 5022  10.115   5.517   1.154  0.3927  0.4184 -1.4702
   38MOL0     C 5023  10.200   5.412   1.118  0.6273 -0.0070  0.4883
   38MOL0     C 5024  10.339   5.417   1.169 -0.9716 -0.0482 -0.3751
   38MOL0     O 5025  10.430   5.337   1.105 -0.0861 -0.9207 -0.6535
   38MOL0     C 5026  10.563   5.337   1.131 -0.1465  0.2403  0.0964
   38MOL0     C 5027  10.631   5.221   1.087  0.0409 -0.4875 -0.8117
   38MOL0     C 5028  10.771   5.209   1.097 -0.4816  0.3757 -1.1251
   38MOL0     C 5029  10.845   5.304   1.170  0.2786 -0.1419  0.2912
   38MOL0     O 5030  10.978   5.307   1.175 -0.4675  0.5903 -0.2423
   38MOL0     C 5031  11.031   5.252   1.291  0.8812 -0.4648 -0.5713
   38MOL0     C 5032  11.177   5.219   1.301  0.6314 -0.5580  0.9152
   38MOL0     C 5033  11.249   5.350   1.308 -0.4717  0.4158 -0.4320
   38MOL0     C 5034  11.400   5.324   1.267 -0.2564  0.9071  0.8367
   38MOL0     C 5035  11.478   5.443   1.297  0.3634  0.5654  0.5180
   38MOL0     C 5036  11.624   5.419   1.323 -1.2882  0.3034  0.4018
   38MOL0     C 5037  11.697   5.360   1.195 -0.1917 -0.4723  0.1542
   38MOL0     C 5038  11.836   5.306   1.230  0.7597 -0.0729 -0.0669
   38MOL0    Cl 5039  11.899   5.357   1.394 -0.0918 -0.2043  0.2076
   38MOL0     C 5040  10.775   5.418   1.217 -0.8783 -0.6750 -0.0061
   38MOL0     C 5041  10.639   5.433   1.195  0.1394 -0.0806 -0.2418
   38MOL0     O 5042  10.359   5.492   1.269 -0.1143  0.5415 -0.1554
   38MOL0     C 5043  10.159   5.305   1.044  0.1729 -0.1321  0.4103
   38MOL0     C 5044  10.027   5.309   1.015 -0.4239  0.2142  0.0047
   38MOL0     N 5045   9.206   5.508   0.929 -0.5230 -0.2014  0.7450
   38MOL0     N 5046   9.150   5.603   0.985  0.3871 -0.1312  0.2785
   38MOL0     C 5047   8.498   6.117   1.140  0.4750  0.1966 -0.2867
   38MOL0     C 5048   8.370   6.118   1.079  0.5987  0.4153 -0.4588
   38MOL0     C 5049   7.917   6.099   1.040  0.6135  0.4677 -0.3410
   38MOL0     C 5050   7.889   6.217   0.974  0.7853 -0.1110  0.0246
   38MOL0     C 5051   7.767   6.227   0.911 -0.0527  0.0844  0.0678
   38MOL0     C 5052   7.674   6.124   0.896  0.3535 -0.0530 -0.7361
   38MOL0     O 5053   7.543   6.154   0.861  0.1972 -0.1198  0.0031
   38MOL0     C 5054   7.461   6.058   0.791 -0.0235 -0.0539  0.2085
   38MOL0     C 5055   7.387   6.128   0.680 -1.0965  0.6442 -0.2531
   38MOL0     C 5056   7.471   6.135   0.548  0.7357 -0.5170 -0.0558
   38MOL0     C 5057   7.576   6.250   0.535 -0.1379  0.6900 -0.1812
   38MOL0     C 5058   7.643   6.246   0.404 -0.0069  0.4339  0.0277
   38MOL0     C 5059   7.695   6.253   0.293  0.5071 -0.2527 -0.2448
   38MOL0     C 5060   7.704   6.007   0.964  0.2690  0.3258  0.4400
   38MOL0     C 5061   7.824   5.992   1.034 -0.2305  0.8330 -0.4390
   38MOL0     C 5062   7.856   5.857   1.090  0.1302  0.8400  0.4362
   38MOL0     H 5063   8.174   6.258   1.315 -1.2303  0.6133 -0.2581
   38MOL0     H 5064   8.414   6.247   1.433  2.0062 -1.2577  0.3367
   38MOL0     H 5065   8.617   6.258   1.511  1.9708  0.4137 -0.1614
   38MOL0     H 5066   8.591   6.085   1.507  1.0322  0.2681  2.1292
   38MOL0     H 5067   8.802   6.181   1.584  0.6409  2.3960  0.0843
   38MOL0     H 5068   8.847   6.242   1.424 -2.2160 -0.9063 -2.8101
   38MOL0     H 5069   8.795   5.964   1.355  0.6728 -0.6749 -0.1996
   38MOL0     H 5070   8.864   5.946   1.508 -2.8580 -2.6112 -2.3207
   38MOL0     H 5071   8.955   6.138   1.275 -1.4077 -0.9572  0.2331
   38MOL0     H 5072   9.054   6.109   1.418  0.9552 -3.8841  0.0933
   38MOL0     H 5073   9.071   5.870   1.344 -0.9723 -0.5166 -0.2567
   38MOL0     H 5074   8.956   5.904   1.210 -0.1608 -1.4923 -0.4181
   38MOL0     H 5075   9.118   6.094   1.130 -2.2424 -0.7410 -0.2051
   38MOL0     H 5076   9.213   6.034   1.264 -3.8030  4.7987  1.7416
   38MOL0     H 5077   9.210   5.801   1.164 -1.3643 -1.2063 -1.2231
   38MOL0     H 5078   9.322   5.924   1.091  0.8226 -1.4625  1.9094
   38MOL0     H 5079   9.049   5.861   0.983 -0.8703  2.7755  0.4599
   38MOL0     H 5080   9.191   5.934   0.903 -0.1031  2.7857  2.3147
   38MOL0     H 5081   9.375   5.750   0.793  1.6556 -1.9140 -1.1856
   38MOL0     H 5082   9.375   5.356   0.790 -0.5973  0.3822 -2.7687
   38MOL0     H 5083   9.425   5.486   0.684 -0.7929 -1.9997 -0.2638
   38MOL0     H 5084   9.583   5.577   0.868 -1.3992  1.7019  2.1220
   38MOL0     H 5085   9.515   5.446   0.976 -0.3652  2.0898  0.2290
   38MOL0     H 5086   9.634   5.392   0.702 -0.4409 -0.2498  0.3858
   38MOL0     H 5087   9.634   5.281   0.849 -2.8493  0.0807  1.1769
   38MOL0     H 5088   9.813   5.541   0.837  0.6883 -0.3444 -1.2705
   38MOL0     H 5089   9.854   5.365   0.802 -0.9464 -0.5228  0.3278
   38MOL0     H 5090   9.924   5.613   1.140  1.2729  0.0757  4.1725
   38MOL0     H 5091  10.148   5.602   1.213 -0.1630  0.2608 -0.9290
   38MOL0     H 5092  10.570   5.138   1.054 -1.9709 -0.6997  2.9371
   38MOL0     H 5093  10.819   5.129   1.041  0.3483  1.4247 -1.9575
   38MOL0     H 5094  11.012   5.331   1.364  1.8946 -1.0180  0.3404
   38MOL0     H 5095  10.969   5.168   1.323 -0.2171  1.2185  2.1001
   38MOL0     H 5096  11.204   5.153   1.384  2.8634 -1.0843 -0.1479
   38MOL0     H 5097  11.203   5.164   1.210  2.9964 -0.0789  1.2236
   38MOL0     H 5098  11.207   5.415   1.231  0.6718  1.0378 -0.5614
   38MOL0     H 5099  11.232   5.400   1.403  1.5732  0.2847  0.0498
   38MOL0     H 5100  11.412   5.307   1.159  1.2236  4.5317  0.2661
   38MOL0     H 5101  11.422   5.233   1.322 -0.3483 -0.4720 -1.2804
   38MOL0     H 5102  11.431   5.499   1.378 -0.1896  0.1002  0.5250
   38MOL0     H 5103  11.476   5.510   1.210 -1.1691 -1.1706 -0.8586
   38MOL0     H 5104  11.655   5.524   1.331 -1.6594  0.3407  1.5124
   38MOL0     H 5105  11.636   5.352   1.407 -0.3559  1.1669  0.9788
   38MOL0     H 5106  11.703   5.445   1.127  1.8772  0.6804  1.6637
   38MOL0     H 5107  11.641   5.281   1.145 -0.6202 -0.2107  0.2186
   38MOL0     H 5108  11.844   5.196   1.228 -0.1567 -0.1916  1.3978
   38MOL0     H 5109  11.904   5.344   1.154 -1.5354  2.0867 -1.1758
   38MOL0     H 5110  10.833   5.491   1.273  0.9661 -1.6814 -0.5202
   38MOL0     H 5111  10.594   5.527   1.225  0.3273  1.0784 -3.2536
   38MOL0     H 5112  10.223   5.224   1.011 -1.3434 -1.1460 -0.1447
   38MOL0     H 5113   9.969   5.232   0.965 -3.3969  0.3439  2.9328
   38MOL0     H 5114   8.577   6.075   1.078 -0.5186 -0.4947 -1.1178
   38MOL0     H 5115   8.359   6.070   0.983 -0.9786 -2.0088  0.8353
   38MOL0     H 5116   7.960   6.299   0.973 -0.2726  0.8256 -1.6983
   38MOL0     H 5117   7.748   6.324   0.865  1.6108 -0.3534 -1.6773
   38MOL0     H 5118   7.385   6.016   0.857 -2.1749  1.9961 -0.8420
   38MOL0     H 5119   7.524   5.983   0.742  1.2327  0.3714  1.1280
   38MOL0     H 5120   7.364   6.230   0.713 -1.0241  0.5004  0.2429
   38MOL0     H 5121   7.298   6.074   0.647  0.7129 -2.2061 -0.7414
   38MOL0     H 5122   7.390   6.157   0.478  0.3113 -2.8134 -0.3667
   38MOL0     H 5123   7.503   6.033   0.523 -4.0250 -2.4652  0.8710
   38MOL0     H 5124   7.530   6.348   0.546 -2.0629 -0.2636  0.7637
   38MOL0     H 5125   7.653   6.228   0.609 -2.9438 -1.3009  2.4327
   38MOL0     H 5126   7.739   6.253   0.195 -0.5370 -1.1715 -0.7417
   38MOL0     H 5127   7.634   5.926   0.944 -0.8718  1.7912 -1.8567
   38MOL0     H 5128   7.780   5.782   1.068 -0.9636  2.7994 -3.1016
   38MOL0     H 5129   7.949   5.821   1.045 -0.9284 -0.6668 -0.6484
   38MOL0     H 5130   7.873   5.861   1.198 -0.0965 -1.3597  0.5964
   39MOL0     O 5131   5.301   0.080   3.460 -0.4348  0.3326 -0.4437
   39MOL0     C 5132   5.225   0.175   3.481 -0.1654 -0.4192 -0.9248
   39MOL0     O 5133   5.259   0.310   3.489 -0.9200 -0.1266  0.7979
   39MOL0     C 5134   5.388   0.338   3.477  0.1512  0.6609 -0.1631
   39MOL0     C 5135   5.455   0.348   3.357 -0.2942 -0.2585 -0.8159
   39MOL0     C 5136   5.591   0.384   3.354  0.1780  0.2481  0.5916
   39MOL0     C 5137   5.655   0.385   3.479  0.1953  0.0678  0.8419
   39MOL0     O 5138   5.792   0.408   3.491 -0.4047 -0.4450 -0.0729
   39MOL0     C 5139   5.861   0.510   3.419  1.2545 -0.2360 -0.2834
   39MOL0     C 5140   5.992   0.560   3.477  0.6810 -0.7186  0.1047
   39MOL0     C 5141   5.972   0.623   3.615  0.2463 -0.5666  0.3306
   39MOL0     C 5142   6.093   0.688   3.676 -1.2776 -0.1958  0.3782
   39MOL0     C 5143   6.138   0.806   3.587 -0.4553  0.9179  0.0965
   39MOL0     C 5144   6.201   0.915   3.667 -0.3635 -0.4492 -0.9593
   39MOL0     C 5145   6.232   1.030   3.572 -0.2300  0.2570 -0.0458
   39MOL0     C 5146   6.361   1.109   3.623 -0.1742  0.2414 -0.3140
   39MOL0     N 5147   6.403   1.228   3.546  0.5501  0.0575 -0.1065
   39MOL0     C 5148   6.402   1.234   3.407 -0.6026 -0.2329 -0.0779
   39MOL0     C 5149   6.411   1.365   3.378 -0.3634 -0.4044 -0.2561
   39MOL0     C 5150   6.433   1.424   3.239 -0.2845  0.2296  0.2464
   39MOL0     C 5151   6.577   1.441   3.196 -0.7470 -0.3973  1.3955
   39MOL0     C 5152   6.691   1.346   3.244 -0.6036 -0.2354 -1.0275
   39MOL0     C 5153   6.820   1.417   3.257  0.3643 -0.7613 -1.0763
   39MOL0     O 5154   6.818   1.524   3.361  0.2582  0.4101 -0.6553
   39MOL0     C 5155   6.932   1.594   3.397 -0.1802 -0.2043 -0.1182
   39MOL0     C 5156   7.056   1.572   3.326 -0.2184 -0.1159 -0.3152
   39MOL0     C 5157   7.180   1.614   3.379 -0.0344 -0.1011  0.3557
   39MOL0     C 5158   7.181   1.687   3.500 -0.1470 -0.4672  0.2131
   39MOL0     C 5159   7.304   1.724   3.556  1.4359 -0.2665  0.4467
   39MOL0     O 5160   7.285   1.801   3.666 -0.5877  0.1002  0.7647
   39MOL0     C 5161   7.399   1.825   3.733 -0.3721 -0.0638 -0.0299
   39MOL0     C 5162   7.479   1.728   3.790  0.3443 -0.2271 -0.1753
   39MOL0     C 5163   7.591   1.760   3.858 -0.2347 -0.3246  0.6759
   39MOL0     C 5164   7.625   1.886   3.893  0.9808 -0.6109  0.0364
   39MOL0     O 5165   7.739   1.896   3.970 -0.4762 -0.1844  0.6162
   39MOL0     C 5166   7.775   2.024   4.010 -0.2334 -0.4959 -0.2506
   39MOL0     C 5167   7.919   2.017   4.050 -1.2380 -0.1909 -1.0116
   39MOL0     C 5168   8.014   1.998   3.929 -0.1905  1.1712  0.3447
   39MOL0     C 5169   8.162   1.984   3.965 -0.3370 -0.9202  0.2608
   39MOL0     C 5170   8.259   1.983   3.840  0.1836  0.1913 -0.7530
   39MOL0     C 5171   8.399   1.966   3.898 -0.5711  0.2330  0.0738
   39MOL0     C 5172   8.514   2.000   3.798  0.3845  0.9448 -0.2768
   39MOL0     C 5173   8.512   2.158   3.779  0.6396  0.0186  0.5016
   39MOL0    Cl 5174   8.572   2.252   3.926 -0.2068  0.0131  0.1047
   39MOL0     C 5175   7.536   1.992   3.850  0.6766 -0.0976 -0.1414
   39MOL0     C 5176   7.433   1.955   3.766  0.0277  0.4828  0.1288
   39MOL0     O 5177   7.408   1.690   3.507  0.5122  0.0809 -0.2127
   39MOL0     C 5178   7.056   1.716   3.564  0.0602 -0.1418 -0.7241
   39MOL0     C 5179   6.934   1.669   3.514 -0.7394  0.6535  0.0033
   39MOL0     N 5180   6.423   1.440   3.499  0.1751  0.6070 -0.3213
   39MOL0     N 5181   6.431   1.357   3.599 -0.1495  0.0325 -0.3306
   39MOL0     C 5182   5.589   0.373   3.597 -0.3422  0.5596  0.5631
   39MOL0     C 5183   5.457   0.347   3.598  0.4685  0.4742  0.8539
   39MOL0     C 5184   5.083   0.148   3.508  0.5809  0.4065  0.3938
   39MOL0     C 5185   5.005   0.244   3.586 -0.8527 -0.2099  0.0940
   39MOL0     C 5186   4.871   0.223   3.612 -1.0481 -0.3866 -0.3972
   39MOL0     C 5187   4.814   0.099   3.568  1.0501 -0.3040  1.3427
   39MOL0     O 5188   4.681   0.069   3.589  0.9550  0.4160  0.1293
   39MOL0     C 5189   4.653   0.061   3.729  0.0268 -0.2501  0.6972
   39MOL0     C 5190   4.503   0.046   3.755  0.0299 -0.4434 -1.1049
   39MOL0     C 5191   4.437   0.179   3.731  0.0738  0.1507 -0.2562
   39MOL0     C 5192   4.293   0.159   3.716 -0.0607  0.1659  0.0566
   39MOL0     C 5193   4.237   0.140   3.848  0.0850 -0.7192 -0.5625
   39MOL0     C 5194   4.187   0.137   3.957 -0.2455 -0.5096  1.3880
   39MOL0     C 5195   4.888   0.005   3.503  0.2424  0.0452 -0.0608
   39MOL0     C 5196   5.022   0.024   3.462  1.2558  0.3147  0.1708
   39MOL0     C 5197   5.090  -0.090   3.391  0.0433  0.6142  0.0607
   39MOL0     H 5198   5.394   0.327   3.270 -0.7516 -3.4042  0.1395
   39MOL0     H 5199   5.645   0.400   3.261  1.2320 -0.9797  0.9534
   39MOL0     H 5200   5.881   0.468   3.320  0.4785 -0.5532 -0.3106
   39MOL0     H 5201   5.785   0.588   3.414 -0.9801 -2.2608  0.1794
   39MOL0     H 5202   6.028   0.625   3.396  0.1240 -1.6080 -0.8799
   39MOL0     H 5203   6.068   0.483   3.489  2.6353  0.9480 -0.8700
   39MOL0     H 5204   5.922   0.556   3.685 -0.9275 -1.3704 -1.1991
   39MOL0     H 5205   5.885   0.687   3.595  0.9336  0.1381 -0.4998
   39MOL0     H 5206   6.073   0.719   3.779 -1.5840 -0.3937  0.3808
   39MOL0     H 5207   6.170   0.612   3.683 -1.4699 -0.3288  1.0869
   39MOL0     H 5208   6.204   0.764   3.511 -2.0768  0.8892 -1.3575
   39MOL0     H 5209   6.053   0.842   3.529 -1.7257  0.2762  1.5042
   39MOL0     H 5210   6.141   0.957   3.748  0.5928 -0.1453 -0.3923
   39MOL0     H 5211   6.286   0.869   3.718 -0.5481 -0.0477 -0.2748
   39MOL0     H 5212   6.153   1.105   3.577  0.7645  1.4876 -1.7194
   39MOL0     H 5213   6.238   0.992   3.469  0.8876  0.1138  0.0595
   39MOL0     H 5214   6.356   1.128   3.731  3.0148  1.2918 -0.2623
   39MOL0     H 5215   6.437   1.031   3.612  1.2476  1.7540 -1.5511
   39MOL0     H 5216   6.394   1.148   3.341 -3.1047 -0.5788  0.5614
   39MOL0     H 5217   6.379   1.357   3.171  0.5794 -1.5870  1.2808
   39MOL0     H 5218   6.388   1.523   3.226  1.1776  0.7765 -1.0298
   39MOL0     H 5219   6.572   1.439   3.086 -0.4551  2.1458  1.2776
   39MOL0     H 5220   6.604   1.536   3.244  1.6281 -0.9879  1.3694
   39MOL0     H 5221   6.706   1.263   3.174 -2.6437 -2.6935  1.2325
   39MOL0     H 5222   6.672   1.302   3.342  0.0460  2.2368  0.2850
   39MOL0     H 5223   6.848   1.455   3.158  0.2097  0.8019 -0.5456
   39MOL0     H 5224   6.897   1.341   3.278  1.3538  0.4017 -0.3591
   39MOL0     H 5225   7.060   1.516   3.234 -2.2195 -0.7892 -0.0329
   39MOL0     H 5226   7.270   1.582   3.327 -0.5624 -0.7493 -0.1749
   39MOL0     H 5227   7.441   1.626   3.782  0.6120 -0.3592  0.2465
   39MOL0     H 5228   7.650   1.677   3.896 -1.6397 -2.7149 -1.9569
   39MOL0     H 5229   7.761   2.103   3.935 -0.7354 -0.6537 -0.3286
   39MOL0     H 5230   7.718   2.061   4.096  0.7292  1.0153 -0.2278
   39MOL0     H 5231   7.963   2.098   4.108  0.4264 -0.3911 -1.9145
   39MOL0     H 5232   7.920   1.928   4.113 -1.3606 -1.8482 -3.2037
   39MOL0     H 5233   7.987   1.902   3.884  0.8590  1.4521 -0.9557
   39MOL0     H 5234   8.007   2.078   3.854  4.8905  3.1578  1.5612
   39MOL0     H 5235   8.170   1.895   4.028 -0.6414 -0.9814  0.2131
   39MOL0     H 5236   8.178   2.075   4.024 -1.6568 -2.4849  3.2695
   39MOL0     H 5237   8.243   2.070   3.775 -2.4529 -0.7811 -1.5391
   39MOL0     H 5238   8.231   1.902   3.771  0.9242  0.2517 -1.1276
   39MOL0     H 5239   8.411   2.002   4.000 -1.9033  3.0160 -0.6613
   39MOL0     H 5240   8.405   1.857   3.910 -2.8760 -0.9684 -5.8574
   39MOL0     H 5241   8.504   1.954   3.700  0.1792  2.5321 -1.0306
   39MOL0     H 5242   8.613   1.977   3.839  0.6927  2.4470 -0.0933
   39MOL0     H 5243   8.577   2.174   3.693  1.0677 -3.4742  0.0311
   39MOL0     H 5244   8.411   2.195   3.755  0.7597  0.9328  1.3631
   39MOL0     H 5245   7.553   2.098   3.868 -0.7983 -0.1435  1.7674
   39MOL0     H 5246   7.366   2.033   3.732 -0.8564 -0.3415 -0.0620
   39MOL0     H 5247   7.061   1.749   3.668  3.2839  2.0520 -1.4223
   39MOL0     H 5248   6.844   1.703   3.565 -0.1559  1.6167  0.4253
   39MOL0     H 5249   5.637   0.354   3.692 -0.9677 -2.7377  0.3442
   39MOL0     H 5250   5.396   0.323   3.684  0.3463 -2.9865 -0.0676
   39MOL0     H 5251   5.053   0.333   3.624 -1.2533 -0.6445  1.6929
   39MOL0     H 5252   4.812   0.306   3.648  0.2108  1.5571 -2.5502
   39MOL0     H 5253   4.695   0.148   3.781  1.6220  2.0588 -3.8002
   39MOL0     H 5254   4.693  -0.033   3.767  0.7039  0.5787  2.1193
   39MOL0     H 5255   4.487   0.032   3.863  1.8800  3.3640 -0.1496
   39MOL0     H 5256   4.459  -0.028   3.688 -0.4749 -0.7567 -0.4337
   39MOL0     H 5257   4.480   0.230   3.644  2.4437 -0.7040  0.3425
   39MOL0     H 5258   4.469   0.248   3.810 -0.4151 -0.7378  0.7282
   39MOL0     H 5259   4.251   0.247   3.668 -0.4907  0.5122  1.0374
   39MOL0     H 5260   4.276   0.068   3.658  1.2295 -0.6281  0.8522
   39MOL0     H 5261   4.148   0.132   4.057  0.6079 -0.9177  1.7105
   39MOL0     H 5262   4.842  -0.092   3.486  2.0477 -1.0584  0.9864
   39MOL0     H 5263   5.018  -0.147   3.331  0.2812  0.0739  0.2912
   39MOL0     H 5264   5.161  -0.053   3.316 -1.2722  0.7206 -1.1930
   39MOL0     H 5265   5.138  -0.148   3.469 -1.8407  3.5856  3.7387
   40MOL0     O 5266  11.142   9.396   1.395  0.3641 -0.7027 -0.1534
   40MOL0     C 5267  11.065   9.404   1.493 -0.4501 -0.2131  0.5080
   40MOL0     O 5268  11.056   9.509   1.576  0.2223  0.0029 -0.1590
   40MOL0     C 5269  11.165   9.596   1.559  0.2243 -0.5555  0.4809
   40MOL0     C 5270  11.288   9.580   1.635  0.2466 -1.3636 -0.4801
   40MOL0     C 5271  11.399   9.653   1.610  0.0524 -0.4969 -0.1513
   40MOL0     C 5272  11.403   9.760   1.528 -0.4220 -0.3049  0.3625
   40MOL0     O 5273  11.520   9.835   1.515 -0.8564 -0.4735  0.2795
   40MOL0     C 5274  11.581   9.836   1.381  0.1107 -0.0765 -0.2617
   40MOL0     C 5275  11.718   9.899   1.398  0.3466 -0.7330 -0.0197
   40MOL0     C 5276  11.824   9.803   1.446  0.8146 -0.3135  0.9026
   40MOL0     C 5277  11.956   9.880   1.456  0.1273 -0.4425 -0.6144
   40MOL0     C 5278  12.055   9.801   1.540 -0.9820  0.3498  0.2725
   40MOL0     C 5279  12.023   9.769   1.688  0.1653 -0.9696 -0.3906
   40MOL0     C 5280  11.958   9.884   1.760  0.5440  0.0261 -0.1865
   40MOL0     C 5281  12.042  10.019   1.773  0.2069  0.0892  0.5943
   40MOL0     N 5282  11.958  10.133   1.813  0.2760  0.3581 -0.1793
   40MOL0     C 5283  11.875  10.207   1.732 -0.4141 -0.1704 -1.0727
   40MOL0     C 5284  11.805  10.286   1.821  0.2730 -0.8001 -0.0221
   40MOL0     C 5285  11.689  10.379   1.782 -0.5539 -1.0003  0.1430
   40MOL0     C 5286  11.570  10.294   1.765  0.7244 -0.1868 -0.0398
   40MOL0     C 5287  11.530  10.259   1.619  0.3254 -0.2616  0.0328
   40MOL0     C 5288  11.399  10.195   1.601 -0.3668 -0.0001  0.6259
   40MOL0     O 5289  11.299  10.299   1.610 -0.4504 -0.3457  0.8829
   40MOL0     C 5290  11.267  10.364   1.496  0.0769 -0.5883 -0.4383
   40MOL0     C 5291  11.237  10.500   1.508 -0.4763  0.1051  0.2323
   40MOL0     C 5292  11.173  10.568   1.403  0.2418  0.0161  0.0852
   40MOL0     C 5293  11.136  10.502   1.279 -0.7718 -0.4710  0.5474
   40MOL0     C 5294  11.070  10.572   1.174 -0.1003 -0.1525 -0.3174
   40MOL0     O 5295  11.060  10.507   1.052  0.0732 -0.4722 -0.0657
   40MOL0     C 5296  11.030  10.592   0.952 -0.2672  0.0962 -0.2366
   40MOL0     C 5297  11.134  10.666   0.884  0.0332 -0.0315 -0.6386
   40MOL0     C 5298  11.098  10.765   0.790  0.4185 -1.0280 -0.1779
   40MOL0     C 5299  10.964  10.785   0.758 -0.2240  0.2730  0.0620
   40MOL0     O 5300  10.930  10.878   0.665  0.3324 -0.0698 -0.1290
   40MOL0     C 5301  10.834  10.976   0.704  0.5268 -0.1331 -0.0931
   40MOL0     C 5302  10.765  11.043   0.579 -0.5265 -0.9196 -0.7833
   40MOL0     C 5303  10.851  11.131   0.487 -0.3059 -0.4130 -1.0002
   40MOL0     C 5304  10.767  11.175   0.369 -0.5098 -0.3570  0.6429
   40MOL0     C 5305  10.846  11.222   0.244  0.1695  0.6934  0.2123
   40MOL0     C 5306  10.934  11.340   0.280  0.4931  0.0065 -1.0393
   40MOL0     C 5307  11.030  11.380   0.167  0.3313  0.0549 -0.2043
   40MOL0     C 5308  11.126  11.490   0.227  0.1406 -0.3636  0.6662
   40MOL0    Cl 5309  11.196  11.579   0.084 -0.4082  0.5352  0.1650
   40MOL0     C 5310  10.861  10.708   0.825 -0.8590  0.4418  0.1623
   40MOL0     C 5311  10.899  10.622   0.924 -0.0166  0.3582 -0.0962
   40MOL0     O 5312  11.017  10.683   1.208 -0.2212 -0.5892  0.4442
   40MOL0     C 5313  11.173  10.366   1.269  0.1390 -0.2436 -0.4239
   40MOL0     C 5314  11.236  10.301   1.374  0.4981  0.0899 -0.1935
   40MOL0     N 5315  11.861  10.274   1.942 -0.4221  0.2731  0.0314
   40MOL0     N 5316  11.960  10.188   1.935  0.1358 -0.3089  0.4277
   40MOL0     C 5317  11.287   9.777   1.456 -0.1685  0.2439 -0.1752
   40MOL0     C 5318  11.165   9.702   1.472  0.2723  0.0733 -0.1554
   40MOL0     C 5319  10.983   9.281   1.521 -0.7196 -0.2313 -0.2935
   40MOL0     C 5320  11.001   9.166   1.439 -0.1083 -0.0707 -0.1509
   40MOL0     C 5321  10.934   9.045   1.465  0.6619 -0.1092  0.0632
   40MOL0     C 5322  10.842   9.026   1.564 -0.3242 -0.2366 -0.6749
   40MOL0     O 5323  10.764   8.917   1.592 -0.0645 -0.3953  0.0154
   40MOL0     C 5324  10.809   8.785   1.580  0.6044 -0.6986  0.3016
   40MOL0     C 5325  10.695   8.689   1.635 -0.1694 -0.7688 -1.2599
   40MOL0     C 5326  10.638   8.727   1.772  0.0727  0.0519  0.0017
   40MOL0     C 5327  10.591   8.594   1.833  0.1600  0.4316  0.2182
   40MOL0     C 5328  10.545   8.610   1.965  0.3317 -0.0554 -0.1773
   40MOL0     C 5329  10.508   8.635   2.079 -0.0504 -0.0624 -0.7466
   40MOL0     C 5330  10.811   9.139   1.637 -0.1155  0.1365 -0.1551
   40MOL0     C 5331  10.885   9.258   1.619 -0.0894 -0.6940 -0.0063
   40MOL0     C 5332  10.838   9.370   1.715 -0.3693  0.0962 -0.5024
   40MOL0     H 5333  11.280   9.499   1.707  0.4921 -0.9891 -0.0301
   40MOL0     H 5334  11.480   9.618   1.672 -0.6478 -0.5193  0.7599
   40MOL0     H 5335  11.585   9.733   1.343 -1.6008 -0.8136  1.4015
   40MOL0     H 5336  11.517   9.906   1.327  0.6227 -1.5271 -2.9176
   40MOL0     H 5337  11.708   9.987   1.462 -2.2918  2.0504 -3.7535
   40MOL0     H 5338  11.736   9.946   1.301 -0.4902 -1.8651 -0.7518
   40MOL0     H 5339  11.833   9.721   1.374 -2.2928 -0.8344  0.9614
   40MOL0     H 5340  11.795   9.756   1.541  0.2445  1.2615  1.5395
   40MOL0     H 5341  11.996   9.897   1.356 -0.5939  0.4370 -0.7590
   40MOL0     H 5342  11.940   9.979   1.499 -2.9013 -0.9620 -0.2980
   40MOL0     H 5343  12.086   9.711   1.487  1.1602  1.7211 -0.9312
   40MOL0     H 5344  12.144   9.861   1.561  0.6262 -1.8971  0.3601
   40MOL0     H 5345  11.947   9.691   1.675 -1.8244  1.1332 -2.5991
   40MOL0     H 5346  12.109   9.742   1.749 -0.8100 -0.7555  1.1400
   40MOL0     H 5347  11.942   9.849   1.862  1.2489 -1.6755 -0.6323
   40MOL0     H 5348  11.857   9.905   1.724 -0.1168  0.2381  1.6671
   40MOL0     H 5349  12.135  10.007   1.829 -0.8454  0.0098  2.4013
   40MOL0     H 5350  12.068  10.040   1.669  1.5033 -0.0155  0.8835
   40MOL0     H 5351  11.863  10.185   1.627  0.9025 -0.2797 -1.2179
   40MOL0     H 5352  11.663  10.458   1.853 -3.5407  1.4244 -3.2552
   40MOL0     H 5353  11.721  10.437   1.695 -3.2931  0.6181  0.0899
   40MOL0     H 5354  11.591  10.203   1.822  2.2368 -0.3957 -0.8994
   40MOL0     H 5355  11.482  10.341   1.811  1.9482  1.2850  0.9227
   40MOL0     H 5356  11.606  10.194   1.575  0.8711  1.7563 -2.2561
   40MOL0     H 5357  11.534  10.349   1.557 -4.0341  0.7275  0.8537
   40MOL0     H 5358  11.378  10.116   1.674 -1.2844  0.3336  0.7255
   40MOL0     H 5359  11.402  10.157   1.498  1.9469 -1.2676  1.0716
   40MOL0     H 5360  11.250  10.543   1.607  0.3232  2.2916 -0.7666
   40MOL0     H 5361  11.139  10.669   1.425  1.7041  0.1823  1.7715
   40MOL0     H 5362  11.239  10.642   0.898 -0.4938 -1.9005  0.4095
   40MOL0     H 5363  11.174  10.828   0.744  0.4164 -1.4315 -0.7572
   40MOL0     H 5364  10.759  10.943   0.777 -0.4883  2.3424  0.0648
   40MOL0     H 5365  10.885  11.051   0.765 -0.9304  0.2727  0.6762
   40MOL0     H 5366  10.713  10.963   0.525 -2.7503  0.0811 -0.2613
   40MOL0     H 5367  10.687  11.109   0.618  1.8966 -0.4360  3.9002
   40MOL0     H 5368  10.891  11.222   0.533 -0.2030 -0.4959 -0.9252
   40MOL0     H 5369  10.937  11.076   0.449  0.5047  0.8201 -1.0154
   40MOL0     H 5370  10.704  11.257   0.403  1.5509  2.4796 -1.8048
   40MOL0     H 5371  10.713  11.090   0.326  0.4454 -0.4383 -0.4701
   40MOL0     H 5372  10.774  11.261   0.171  0.5906  2.9274  0.9043
   40MOL0     H 5373  10.904  11.138   0.205 -1.8170  0.3356 -2.2776
   40MOL0     H 5374  10.881  11.433   0.304 -0.2939 -0.7277  0.1778
   40MOL0     H 5375  11.003  11.324   0.364 -0.4257  0.2034 -0.2274
   40MOL0     H 5376  10.980  11.423   0.079 -0.0841 -0.5830 -0.2855
   40MOL0     H 5377  11.085  11.294   0.126  2.1751  0.9589  0.2762
   40MOL0     H 5378  11.091  11.565   0.298  3.2260  0.9646  0.9665
   40MOL0     H 5379  11.206  11.449   0.291  1.7055  2.4312  0.6635
   40MOL0     H 5380  10.762  10.735   0.788 -0.4899  3.1886  0.9609
   40MOL0     H 5381  10.814  10.589   0.982 -0.6067  2.1438  0.1335
   40MOL0     H 5382  11.156  10.311   1.177  0.6407 -0.6044 -0.3036
   40MOL0     H 5383  11.239  10.193   1.365 -0.1062  0.1929 -2.3057
   40MOL0     H 5384  11.284   9.863   1.391  1.4641  1.5632  1.3782
   40MOL0     H 5385  11.075   9.741   1.426 -0.3415  0.3249  1.2368
   40MOL0     H 5386  11.060   9.174   1.348  0.1141  0.2394  0.0188
   40MOL0     H 5387  10.960   8.959   1.404 -0.2500  0.9186 -1.8637
   40MOL0     H 5388  10.899   8.777   1.642  0.9867 -0.2411 -0.1859
   40MOL0     H 5389  10.843   8.758   1.479  2.5411  0.4401  0.6033
   40MOL0     H 5390  10.715   8.582   1.630 -1.7272 -1.4877  3.4378
   40MOL0     H 5391  10.612   8.711   1.567 -0.0395 -1.2164 -1.5646
   40MOL0     H 5392  10.557   8.799   1.755  0.1769  0.0902 -0.3372
   40MOL0     H 5393  10.713   8.777   1.834  0.4645  0.3732 -0.7219
   40MOL0     H 5394  10.522   8.552   1.759  0.7677  3.0446 -1.9842
   40MOL0     H 5395  10.672   8.520   1.843  2.7707  3.1346  0.3470
   40MOL0     H 5396  10.484   8.646   2.183  1.3514 -1.5592 -0.2276
   40MOL0     H 5397  10.738   9.144   1.717 -0.9048  3.6695 -0.9287
   40MOL0     H 5398  10.751   9.341   1.776  0.3100 -0.8955  0.0129
   40MOL0     H 5399  10.920   9.403   1.779  0.2350 -0.0653 -1.1833
   40MOL0     H 5400  10.795   9.457   1.664 -0.7907  0.4727  0.4727
   41MOL0     O 5401   8.094  11.296   3.553 -0.2318 -0.2214  0.5129
   41MOL0     C 5402   8.056  11.408   3.562  0.3794 -0.7428  0.0559
   41MOL0     O 5403   8.134  11.517   3.536  0.2451 -0.5850  0.6011
   41MOL0     C 5404   8.256  11.510   3.479 -0.1322 -0.4287  0.0951
   41MOL0     C 5405   8.294  11.427   3.368 -0.7275 -0.6543  0.4765
   41MOL0     C 5406   8.420  11.450   3.311 -0.2211 -0.7427 -1.0542
   41MOL0     C 5407   8.519  11.533   3.376  0.4229  0.0082  0.6518
   41MOL0     O 5408   8.632  11.543   3.301  0.3630 -0.2289  0.0422
   41MOL0     C 5409   8.725  11.626   3.358 -0.6655  0.3786 -0.4109
   41MOL0     C 5410   8.863  11.614   3.283 -0.1588  0.4443  0.1342
   41MOL0     C 5411   8.971  11.724   3.287  0.2286 -0.3353 -0.1709
   41MOL0     C 5412   8.922  11.858   3.233 -0.3840 -0.3526 -0.8802
   41MOL0     C 5413   9.032  11.970   3.228  0.0071 -0.4610 -0.4699
   41MOL0     C 5414   8.983  12.107   3.215  0.4332 -1.4546 -1.3700
   41MOL0     C 5415   8.913  12.115   3.079  0.7852  0.0519  0.8309
   41MOL0     C 5416   8.893  12.262   3.046 -0.0393 -0.6075 -0.0828
   41MOL0     N 5417   8.998  12.315   2.974 -0.5764  0.2527  0.5216
   41MOL0     C 5418   9.065  12.428   3.013  0.3577  0.5029 -0.4199
   41MOL0     C 5419   9.160  12.445   2.909 -0.4052 -0.4689 -0.8140
   41MOL0     C 5420   9.277  12.549   2.897  0.0509 -0.5767  0.0291
   41MOL0     C 5421   9.420  12.508   2.919 -0.4917  0.6931  0.0997
   41MOL0     C 5422   9.512  12.629   2.952 -0.2963 -0.4965 -0.1389
   41MOL0     C 5423   9.640  12.588   3.020 -0.1994  0.4288 -0.1052
   41MOL0     O 5424   9.711  12.498   2.939  0.4975  0.5860  0.6342
   41MOL0     C 5425   9.829  12.544   2.885  0.0647 -0.7988 -0.7199
   41MOL0     C 5426   9.912  12.636   2.952  0.0061  0.1475 -1.3802
   41MOL0     C 5427  10.035  12.669   2.898 -0.1304  0.7627  0.2977
   41MOL0     C 5428  10.085  12.621   2.778  0.3204  0.1183  0.6142
   41MOL0     C 5429  10.221  12.657   2.723 -1.2344  0.3392 -0.2274
   41MOL0     O 5430  10.274  12.581   2.623  0.3916  0.2157  0.3116
   41MOL0     C 5431  10.406  12.610   2.594  0.9123  0.0401  0.0236
   41MOL0     C 5432  10.439  12.650   2.465  0.7995  0.3626 -0.5004
   41MOL0     C 5433  10.571  12.683   2.429  0.6425  0.1300 -0.2905
   41MOL0     C 5434  10.676  12.650   2.524  0.2815  0.5512  1.2259
   41MOL0     O 5435  10.807  12.674   2.491 -0.0993  1.0222 -0.4386
   41MOL0     C 5436  10.856  12.620   2.373 -0.2298  0.1632  0.8780
   41MOL0     C 5437  10.827  12.474   2.336  0.4340  0.4990 -0.0852
   41MOL0     C 5438  10.879  12.364   2.443  0.5146 -0.6560 -0.2365
   41MOL0     C 5439  10.838  12.228   2.409 -0.1820 -0.6283 -0.3365
   41MOL0     C 5440  10.877  12.131   2.513 -0.3917 -0.8347  0.2179
   41MOL0     C 5441  10.854  11.984   2.469 -0.4581  0.1077 -0.1971
   41MOL0     C 5442  10.975  11.927   2.389 -0.4852 -0.6057 -0.0239
   41MOL0     C 5443  10.966  11.782   2.359 -0.3414 -0.1220  0.2126
   41MOL0    Cl 5444  10.796  11.748   2.284  0.0353  0.1650 -0.2451
   41MOL0     C 5445  10.645  12.603   2.647  0.6148 -0.0367  0.5207
   41MOL0     C 5446  10.507  12.582   2.680 -0.0448 -0.4643  0.2582
   41MOL0     O 5447  10.275  12.756   2.775  0.7274  0.1217 -0.3629
   41MOL0     C 5448   9.995  12.541   2.709 -0.0379 -0.4746  0.8330
   41MOL0     C 5449   9.866  12.507   2.758 -0.3006 -0.1888  0.2768
   41MOL0     N 5450   9.149  12.346   2.816  0.4117  0.1187  0.5746
   41MOL0     N 5451   9.058  12.270   2.864 -0.7303  0.6918  0.2912
   41MOL0     C 5452   8.477  11.609   3.488 -0.5929 -0.1623 -0.0580
   41MOL0     C 5453   8.349  11.591   3.536  0.2271 -0.3039  0.4071
   41MOL0     C 5454   7.913  11.451   3.604 -1.3553 -0.0327  0.9077
   41MOL0     C 5455   7.890  11.585   3.630 -0.0029  0.5694 -0.2592
   41MOL0     C 5456   7.773  11.639   3.654  0.5452 -0.3992  0.5574
   41MOL0     C 5457   7.659  11.547   3.654 -0.3627 -0.4759  0.4022
   41MOL0     O 5458   7.537  11.610   3.693  0.7421  0.8851 -0.0697
   41MOL0     C 5459   7.487  11.711   3.606  0.5430  0.4980 -0.1585
   41MOL0     C 5460   7.358  11.658   3.530 -0.1539  0.2626  0.3282
   41MOL0     C 5461   7.408  11.579   3.413 -0.4228 -0.6651 -0.5860
   41MOL0     C 5462   7.294  11.553   3.309  0.0557  0.1425 -0.3192
   41MOL0     C 5463   7.208  11.455   3.374 -0.0429  0.8876 -0.2884
   41MOL0     C 5464   7.155  11.361   3.422 -0.3867  1.2541 -1.0394
   41MOL0     C 5465   7.679  11.410   3.616  0.0124  0.1649 -1.0957
   41MOL0     C 5466   7.810  11.359   3.597  0.6793 -0.6234  0.8827
   41MOL0     C 5467   7.808  11.207   3.580 -1.1221  0.1444 -0.0954
   41MOL0     H 5468   8.220  11.362   3.322 -1.5562  1.8748 -2.0989
   41MOL0     H 5469   8.450  11.409   3.215 -0.2676  1.5878 -2.1355
   41MOL0     H 5470   8.695  11.730   3.345  2.8478  1.7804  1.3488
   41MOL0     H 5471   8.735  11.619   3.466 -0.3341 -2.3442 -0.5446
   41MOL0     H 5472   8.843  11.593   3.178 -4.2719 -1.0890  1.0339
   41MOL0     H 5473   8.909  11.525   3.327  2.7887  0.5353 -2.4276
   41MOL0     H 5474   9.069  11.706   3.242  0.2119  1.5418 -1.0489
   41MOL0     H 5475   8.988  11.735   3.395 -3.2740 -1.7628  0.6676
   41MOL0     H 5476   8.891  11.829   3.132  2.8174 -0.4256 -1.9416
   41MOL0     H 5477   8.834  11.893   3.288 -0.7465 -0.3724 -1.4388
   41MOL0     H 5478   9.079  11.974   3.327 -0.5982  2.3528 -0.2269
   41MOL0     H 5479   9.102  11.940   3.150  1.1932 -0.3157  0.5054
   41MOL0     H 5480   8.907  12.127   3.291  0.8270 -1.6857 -0.9128
   41MOL0     H 5481   9.063  12.181   3.212  0.4348 -1.4786 -2.5588
   41MOL0     H 5482   8.814  12.069   3.081  0.8833 -0.1716  0.4444
   41MOL0     H 5483   8.982  12.071   3.006  0.1958 -1.5052  1.1741
   41MOL0     H 5484   8.803  12.267   2.984 -0.4396 -2.3560  0.3123
   41MOL0     H 5485   8.871  12.319   3.137 -3.9037  0.3277 -1.4040
   41MOL0     H 5486   9.035  12.495   3.093 -2.5231 -2.1986  0.9885
   41MOL0     H 5487   9.263  12.593   2.798 -3.5341  1.6092  1.3180
   41MOL0     H 5488   9.250  12.627   2.968  1.0214  0.8808 -1.1203
   41MOL0     H 5489   9.412  12.442   3.006 -1.6089  0.0160 -0.4967
   41MOL0     H 5490   9.447  12.449   2.831 -0.7117 -0.1709  0.5959
   41MOL0     H 5491   9.460  12.699   3.018  1.7319  2.0049 -1.0299
   41MOL0     H 5492   9.537  12.681   2.859  2.1517 -0.6592  0.3582
   41MOL0     H 5493   9.615  12.543   3.116 -1.6838 -0.7842 -1.0050
   41MOL0     H 5494   9.698  12.678   3.039 -0.1150  0.3251  0.1339
   41MOL0     H 5495   9.892  12.666   3.055 -1.2481 -1.3435 -1.1435
   41MOL0     H 5496  10.098  12.730   2.963 -0.9174 -0.1485  1.9874
   41MOL0     H 5497  10.356  12.681   2.402  0.2665  2.1791  0.9853
   41MOL0     H 5498  10.586  12.721   2.329  2.6200  0.1963 -0.0024
   41MOL0     H 5499  10.817  12.677   2.288  0.8184 -1.1675 -0.5626
   41MOL0     H 5500  10.965  12.620   2.365 -0.2545  2.1948 -0.1077
   41MOL0     H 5501  10.721  12.448   2.334  0.4871  0.2034  0.7234
   41MOL0     H 5502  10.867  12.455   2.236 -0.6095 -1.5885 -0.1570
   41MOL0     H 5503  10.988  12.374   2.451  0.3311  4.7891 -0.7602
   41MOL0     H 5504  10.842  12.387   2.543 -0.9453  1.9909 -1.2986
   41MOL0     H 5505  10.879  12.212   2.309  3.0586  2.6311  0.2595
   41MOL0     H 5506  10.729  12.225   2.400 -0.3055 -0.6770  0.9178
   41MOL0     H 5507  10.821  12.144   2.606 -0.8194  3.2569 -0.4250
   41MOL0     H 5508  10.985  12.135   2.524 -0.2302 -0.7729 -1.1566
   41MOL0     H 5509  10.843  11.916   2.553  2.0376 -2.4020 -1.7294
   41MOL0     H 5510  10.759  11.990   2.415 -1.9177 -0.7228  2.1331
   41MOL0     H 5511  11.062  11.940   2.454 -1.4204  2.9630  0.7408
   41MOL0     H 5512  10.991  11.981   2.295  0.3290  1.3957  1.1890
   41MOL0     H 5513  11.038  11.752   2.283  1.5432  1.3659  1.3191
   41MOL0     H 5514  10.994  11.727   2.450 -1.3758  1.4446  1.5293
   41MOL0     H 5515  10.721  12.583   2.722 -0.5410 -2.4972  1.1237
   41MOL0     H 5516  10.484  12.554   2.782 -1.4554 -0.1105  0.0562
   41MOL0     H 5517  10.030  12.493   2.618  1.6513 -0.4060  1.3939
   41MOL0     H 5518   9.815  12.438   2.692 -1.9437 -0.0316  1.3149
   41MOL0     H 5519   8.547  11.680   3.532  1.4784 -1.5607 -0.9456
   41MOL0     H 5520   8.322  11.662   3.615  0.0813 -1.6315  1.5831
   41MOL0     H 5521   7.970  11.659   3.628 -1.8574  2.9198  3.1588
   41MOL0     H 5522   7.764  11.745   3.673  0.3732 -0.6555  2.0165
   41MOL0     H 5523   7.551  11.763   3.534 -0.5217  1.6659 -0.3021
   41MOL0     H 5524   7.452  11.790   3.673 -2.5295 -0.2501 -0.7577
   41MOL0     H 5525   7.298  11.740   3.489 -2.2657 -1.1330  0.4964
   41MOL0     H 5526   7.294  11.600   3.596  0.6946 -1.4972 -0.3261
   41MOL0     H 5527   7.456  11.483   3.435 -2.0104 -1.4838 -0.5531
   41MOL0     H 5528   7.480  11.647   3.366 -0.9517  0.3624  0.0578
   41MOL0     H 5529   7.238  11.646   3.304 -0.7926 -0.3184  0.2831
   41MOL0     H 5530   7.325  11.517   3.211  0.9620  1.3301 -0.4873
   41MOL0     H 5531   7.122  11.276   3.478  2.6466  0.1161 -0.7921
   41MOL0     H 5532   7.587  11.353   3.606 -0.3176  0.5855 -0.5399
   41MOL0     H 5533   7.706  11.167   3.573 -0.0238 -3.9603  3.3274
   41MOL0     H 5534   7.855  11.176   3.486  0.8461 -1.0330  1.2228
   41MOL0     H 5535   7.862  11.155   3.660 -0.2217  1.8659  0.4706
   42MOL0     O 5536   1.085   8.396   2.780  0.4970  0.2937  0.1181
   42MOL0     C 5537   1.009   8.409   2.685  0.2176  0.3718  0.1696
   42MOL0     O 5538   0.953   8.528   2.641  0.8897  0.5457  0.1867
   42MOL0     C 5539   0.840   8.534   2.568 -0.0929 -0.3422 -0.1134
   42MOL0     C 5540   0.733   8.443   2.580 -0.0282 -0.2434 -0.5413
   42MOL0     C 5541   0.607   8.470   2.526 -0.4916  0.1555  0.0538
   42MOL0     C 5542   0.578   8.582   2.454 -0.6536  0.1410  1.6145
   42MOL0     O 5543   0.454   8.615   2.413 -0.1042  0.8056 -0.0388
   42MOL0     C 5544   0.383   8.624   2.535  0.7084 -0.0315 -0.4580
   42MOL0     C 5545   0.241   8.673   2.507  0.2887  0.0445  0.9778
   42MOL0     C 5546   0.159   8.651   2.620  0.7002 -0.1375 -0.7330
   42MOL0     C 5547   0.031   8.745   2.610  0.1807  0.4020 -0.0233
   42MOL0     C 5548  -0.061   8.702   2.726 -0.4187 -0.3119 -0.2339
   42MOL0     C 5549  -0.190   8.776   2.750 -0.3888 -0.5382 -0.7239
   42MOL0     C 5550  -0.302   8.759   2.638 -0.4559  0.1915 -0.4763
   42MOL0     C 5551  -0.398   8.883   2.647 -0.4480  0.3627  0.0033
   42MOL0     N 5552  -0.514   8.886   2.551 -0.2719 -0.0743 -0.1565
   42MOL0     C 5553  -0.571   8.997   2.496 -0.5719 -0.3290 -0.0961
   42MOL0     C 5554  -0.665   8.944   2.414  0.1603 -0.0249 -0.6764
   42MOL0     C 5555  -0.750   9.020   2.319  0.3442 -0.2770  0.5344
   42MOL0     C 5556  -0.678   9.060   2.188  0.2297 -1.0235  1.1693
   42MOL0     C 5557  -0.597   8.956   2.114 -0.7631 -0.0134 -0.0126
   42MOL0     C 5558  -0.513   9.031   2.004 -0.0610  0.2340  0.2834
   42MOL0     O 5559  -0.416   8.943   1.954  0.3682 -0.4279  0.7696
   42MOL0     C 5560  -0.299   8.986   1.886 -0.3665  0.0993 -0.5131
   42MOL0     C 5561  -0.276   9.115   1.855 -0.2276 -0.1606  0.6829
   42MOL0     C 5562  -0.165   9.155   1.782 -0.3128  0.0533  0.8046
   42MOL0     C 5563  -0.071   9.057   1.739  0.2879 -0.1497 -0.5588
   42MOL0     C 5564   0.050   9.090   1.676 -0.2340  0.2551  0.1075
   42MOL0     O 5565   0.078   9.221   1.639 -0.2371  0.3157  0.5958
   42MOL0     C 5566   0.209   9.252   1.635 -1.3965  0.9699  0.0238
   42MOL0     C 5567   0.314   9.192   1.711  0.0973 -0.6380 -0.1173
   42MOL0     C 5568   0.448   9.232   1.685 -0.2770 -0.0794  0.2265
   42MOL0     C 5569   0.477   9.335   1.603  0.5240 -0.7312 -0.0905
   42MOL0     O 5570   0.605   9.379   1.592  0.4793  0.7044 -0.0594
   42MOL0     C 5571   0.700   9.299   1.522 -0.9248 -0.1327 -0.2197
   42MOL0     C 5572   0.781   9.397   1.421 -0.0017  0.6803 -0.6928
   42MOL0     C 5573   0.894   9.461   1.508 -0.2052 -0.1775 -0.5472
   42MOL0     C 5574   0.975   9.564   1.418 -0.6189  0.4748 -0.1184
   42MOL0     C 5575   1.068   9.651   1.506  0.0913  0.0347  0.4692
   42MOL0     C 5576   1.181   9.703   1.419  1.2041 -0.1161 -0.0849
   42MOL0     C 5577   1.282   9.792   1.498  0.2333 -0.5599 -0.4210
   42MOL0     C 5578   1.418   9.821   1.425 -0.0441  0.0084  0.0309
   42MOL0    Cl 5579   1.484   9.979   1.470 -0.0906  0.4053  0.1891
   42MOL0     C 5580   0.371   9.412   1.553 -0.9410 -0.4563 -1.4107
   42MOL0     C 5581   0.238   9.372   1.572  0.2063  1.0862 -0.7907
   42MOL0     O 5582   0.125   8.991   1.659 -0.2713 -0.3261 -0.4646
   42MOL0     C 5583  -0.096   8.923   1.768 -0.8205 -0.4517  0.7058
   42MOL0     C 5584  -0.209   8.888   1.837 -0.0546  0.4777 -0.1326
   42MOL0     N 5585  -0.668   8.807   2.427 -0.4134  0.1017  0.4489
   42MOL0     N 5586  -0.571   8.771   2.508 -0.0865  0.7620  0.8622
   42MOL0     C 5587   0.679   8.678   2.441 -0.2865  0.3855  0.4187
   42MOL0     C 5588   0.809   8.657   2.502 -0.1223  0.2649 -0.5459
   42MOL0     C 5589   0.980   8.282   2.603 -0.7485 -0.5246  0.1523
   42MOL0     C 5590   0.994   8.287   2.458 -0.5577 -0.0993 -0.6106
   42MOL0     C 5591   0.993   8.168   2.383  0.7611 -0.1597 -0.0054
   42MOL0     C 5592   0.957   8.049   2.444  0.8890 -0.9827  0.6560
   42MOL0     O 5593   0.964   7.935   2.367  0.1263  0.1261  0.4446
   42MOL0     C 5594   0.972   7.803   2.421  0.0434  0.0646  0.2652
   42MOL0     C 5595   0.943   7.700   2.316  0.6236 -0.0408  0.1459
   42MOL0     C 5596   0.790   7.679   2.292  0.2968  0.2346 -0.2467
   42MOL0     C 5597   0.698   7.601   2.399 -1.7302  0.1228 -0.5401
   42MOL0     C 5598   0.563   7.608   2.347  0.9863  0.3313  0.9894
   42MOL0     C 5599   0.457   7.614   2.287 -0.5210  0.5014 -0.1714
   42MOL0     C 5600   0.930   8.050   2.578  0.5907  0.1872 -0.8127
   42MOL0     C 5601   0.948   8.158   2.662 -0.3860 -0.6348  0.7890
   42MOL0     C 5602   0.929   8.141   2.805  0.9977  0.2416 -0.9789
   42MOL0     H 5603   0.754   8.360   2.647  1.7984  0.2656 -0.4242
   42MOL0     H 5604   0.539   8.386   2.537 -0.2054  0.1352  2.2171
   42MOL0     H 5605   0.377   8.526   2.583  1.9959  0.4908  0.8547
   42MOL0     H 5606   0.428   8.687   2.612  3.1053 -1.1324 -0.8344
   42MOL0     H 5607   0.203   8.630   2.414  1.3466  3.2342 -1.0695
   42MOL0     H 5608   0.243   8.780   2.484 -1.8170  0.1056  0.9240
   42MOL0     H 5609   0.211   8.684   2.711  1.5551 -3.5046  0.1634
   42MOL0     H 5610   0.133   8.546   2.633 -3.8031  0.8601 -0.2507
   42MOL0     H 5611   0.064   8.849   2.618 -2.4015  1.2828  0.3875
   42MOL0     H 5612  -0.019   8.726   2.515  0.8894 -0.7632 -0.1821
   42MOL0     H 5613  -0.079   8.595   2.722  0.3442 -0.4178 -2.2742
   42MOL0     H 5614  -0.001   8.731   2.812 -0.8468 -1.4445  0.4555
   42MOL0     H 5615  -0.229   8.741   2.846  1.4161 -0.6329  0.0116
   42MOL0     H 5616  -0.169   8.883   2.759 -2.2066 -0.0978 -1.2639
   42MOL0     H 5617  -0.354   8.666   2.659 -1.0466  0.1114 -2.1511
   42MOL0     H 5618  -0.259   8.739   2.540  1.3208 -0.1349  0.3215
   42MOL0     H 5619  -0.443   8.889   2.746 -1.4182 -0.2306 -0.3862
   42MOL0     H 5620  -0.344   8.978   2.638  0.0230  0.2162  1.1126
   42MOL0     H 5621  -0.551   9.104   2.491 -2.7338  0.1406 -0.0289
   42MOL0     H 5622  -0.836   8.959   2.288  0.8361 -0.0276 -1.4322
   42MOL0     H 5623  -0.784   9.112   2.366  2.8737  1.2478 -0.4202
   42MOL0     H 5624  -0.760   9.096   2.124  2.0429  1.5095  0.0975
   42MOL0     H 5625  -0.622   9.151   2.212 -0.1132 -1.1065  2.3140
   42MOL0     H 5626  -0.668   8.884   2.073 -0.2405 -0.0424 -0.8756
   42MOL0     H 5627  -0.532   8.915   2.193 -2.0245  0.0586  1.0980
   42MOL0     H 5628  -0.462   9.113   2.054  0.1007  0.5028 -0.3149
   42MOL0     H 5629  -0.579   9.068   1.925  1.3387  1.4687 -0.3481
   42MOL0     H 5630  -0.352   9.181   1.896 -0.6868 -0.7866  0.8460
   42MOL0     H 5631  -0.147   9.261   1.764 -1.2226  0.2442  0.9471
   42MOL0     H 5632   0.303   9.106   1.776 -0.1562  1.4191  2.7138
   42MOL0     H 5633   0.525   9.172   1.731 -0.0693  0.1315  0.1565
   42MOL0     H 5634   0.765   9.249   1.595  1.5813  2.9641 -0.0973
   42MOL0     H 5635   0.633   9.228   1.472 -3.2289 -0.2600  2.7510
   42MOL0     H 5636   0.825   9.336   1.342 -1.1429  2.9597 -3.2710
   42MOL0     H 5637   0.716   9.472   1.376 -1.1223  0.0858 -0.1061
   42MOL0     H 5638   0.861   9.508   1.601 -1.2571  0.6284 -1.3002
   42MOL0     H 5639   0.962   9.381   1.537 -0.9791 -0.1810  1.4263
   42MOL0     H 5640   0.905   9.638   1.379 -1.7054  0.4734  1.6708
   42MOL0     H 5641   1.018   9.503   1.338 -2.6643  0.3624 -1.1902
   42MOL0     H 5642   1.115   9.603   1.593 -0.6162 -1.2753  0.1607
   42MOL0     H 5643   1.005   9.728   1.551 -2.2785 -1.4348 -0.1463
   42MOL0     H 5644   1.225   9.615   1.371 -2.4804 -1.8568 -0.5782
   42MOL0     H 5645   1.143   9.756   1.332 -0.7199 -1.0321  0.1537
   42MOL0     H 5646   1.315   9.749   1.592  0.9387 -2.0059 -1.2994
   42MOL0     H 5647   1.237   9.887   1.527 -0.4625 -1.7119  2.5620
   42MOL0     H 5648   1.494   9.744   1.437  2.8549  2.6959  0.3977
   42MOL0     H 5649   1.410   9.834   1.316  3.3138 -0.2839 -0.3411
   42MOL0     H 5650   0.403   9.483   1.478 -1.0818  0.2683 -0.7957
   42MOL0     H 5651   0.163   9.437   1.529  1.3205  2.6213 -0.4846
   42MOL0     H 5652  -0.028   8.843   1.740  0.2133  1.3838 -2.6550
   42MOL0     H 5653  -0.206   8.782   1.861  2.2825  0.6827  0.7442
   42MOL0     H 5654   0.664   8.771   2.386 -0.7557  0.8950  1.3816
   42MOL0     H 5655   0.891   8.726   2.484 -0.2372 -0.3043 -3.8511
   42MOL0     H 5656   1.009   8.383   2.410 -0.3920  0.7140  0.9914
   42MOL0     H 5657   1.016   8.176   2.277 -0.8176 -2.5139 -0.5844
   42MOL0     H 5658   0.889   7.789   2.490 -0.2701 -1.5855 -0.3877
   42MOL0     H 5659   1.070   7.788   2.467 -1.5655  1.0215  4.4006
   42MOL0     H 5660   0.993   7.615   2.364  2.2267  0.5966 -0.3343
   42MOL0     H 5661   1.006   7.717   2.228 -0.0269 -0.1119 -0.3436
   42MOL0     H 5662   0.782   7.620   2.201 -0.2789  1.3360 -0.9268
   42MOL0     H 5663   0.744   7.777   2.276  2.2403  1.1859 -0.2599
   42MOL0     H 5664   0.732   7.497   2.402 -1.3809  0.1784 -1.9664
   42MOL0     H 5665   0.704   7.648   2.498  1.9022  1.5765 -1.3134
   42MOL0     H 5666   0.364   7.639   2.240 -1.0094 -0.2083  0.3876
   42MOL0     H 5667   0.895   7.962   2.631  2.9931 -0.3952 -0.0851
   42MOL0     H 5668   0.838   8.193   2.836  0.9119 -0.0670 -0.7094
   42MOL0     H 5669   0.905   8.040   2.839 -1.1233  1.0009 -0.0188
   42MOL0     H 5670   1.021   8.170   2.858  1.8768 -1.5310 -1.4429
   43MOL0     O 5671  10.695   6.792   2.847 -0.5989  0.3295 -0.3537
   43MOL0     C 5672  10.592   6.765   2.907 -0.1880 -0.5597  0.2734
   43MOL0     O 5673  10.471   6.836   2.899 -0.5345  0.6195  0.7820
   43MOL0     C 5674  10.456   6.926   2.800 -0.2803  0.5673  0.1956
   43MOL0     C 5675  10.431   6.899   2.665  0.1237  0.6592  0.1911
   43MOL0     C 5676  10.428   7.000   2.572  0.2142  0.4401 -0.1859
   43MOL0     C 5677  10.455   7.134   2.608  0.0438 -0.2434  0.5266
   43MOL0     O 5678  10.464   7.238   2.517  0.0776 -0.8161 -0.2776
   43MOL0     C 5679  10.584   7.318   2.501 -0.0897  0.2611  0.1272
   43MOL0     C 5680  10.580   7.381   2.367  0.1959  0.2211  0.0377
   43MOL0     C 5681  10.549   7.283   2.250 -1.1717 -0.6857 -0.7158
   43MOL0     C 5682  10.643   7.168   2.260 -1.3496  0.9369  0.1346
   43MOL0     C 5683  10.624   7.055   2.155  0.1775  0.0216 -0.3837
   43MOL0     C 5684  10.521   6.964   2.193  0.2374  0.5271  0.2029
   43MOL0     C 5685  10.521   6.824   2.129 -0.5938  0.1508  0.1950
   43MOL0     C 5686  10.390   6.755   2.181 -0.0166 -0.5154  0.5240
   43MOL0     N 5687  10.385   6.616   2.166  0.2987  0.4610 -0.6148
   43MOL0     C 5688  10.456   6.533   2.251 -0.1637  0.2975  0.3320
   43MOL0     C 5689  10.427   6.404   2.218 -0.3499 -0.1478  0.7828
   43MOL0     C 5690  10.496   6.277   2.278 -0.3875  0.0106 -0.1405
   43MOL0     C 5691  10.384   6.180   2.339  0.0545  0.7323  0.2108
   43MOL0     C 5692  10.423   6.038   2.354  0.0095  0.4314  0.2030
   43MOL0     C 5693  10.531   6.011   2.455 -0.1263 -0.0521  0.7442
   43MOL0     O 5694  10.658   6.055   2.397 -0.5569  0.3007  0.3079
   43MOL0     C 5695  10.776   6.022   2.465  0.1315 -0.1905  0.2346
   43MOL0     C 5696  10.791   5.938   2.576  0.6942 -0.2960  0.1364
   43MOL0     C 5697  10.918   5.901   2.630 -0.4110  0.1865  0.9377
   43MOL0     C 5698  11.030   5.959   2.576  0.4674  0.1559 -0.0959
   43MOL0     C 5699  11.165   5.930   2.639  0.0072  0.1039  0.2751
   43MOL0     O 5700  11.270   5.990   2.574 -0.3607  0.4266 -0.1306
   43MOL0     C 5701  11.400   5.937   2.598  0.4986  0.6340  0.4091
   43MOL0     C 5702  11.454   5.849   2.505 -0.7229 -0.4859 -1.3827
   43MOL0     C 5703  11.596   5.817   2.518  0.1421  0.2796 -0.6162
   43MOL0     C 5704  11.672   5.876   2.617 -1.0496  0.0515 -0.5470
   43MOL0     O 5705  11.799   5.858   2.630 -0.0395  0.0510 -0.2821
   43MOL0     C 5706  11.875   5.793   2.528  1.2694 -0.3645 -0.4077
   43MOL0     C 5707  12.025   5.837   2.537 -0.7099  0.0594  0.6285
   43MOL0     C 5708  12.077   5.887   2.408 -0.4227  0.4420  0.1320
   43MOL0     C 5709  12.223   5.940   2.422 -1.3719  0.3086 -0.4961
   43MOL0     C 5710  12.239   6.070   2.500 -0.4399  0.7024 -0.1693
   43MOL0     C 5711  12.349   6.169   2.459  0.3147 -0.6084 -0.3880
   43MOL0     C 5712  12.494   6.106   2.445 -0.5425  0.9022  0.3022
   43MOL0     C 5713  12.610   6.205   2.441  0.5743  0.4822 -1.1286
   43MOL0    Cl 5714  12.601   6.276   2.599 -0.4275 -0.0315  0.0368
   43MOL0     C 5715  11.616   5.962   2.710  0.2810  0.3283  0.1214
   43MOL0     C 5716  11.486   5.997   2.691 -0.5994 -0.1781  0.4331
   43MOL0     O 5717  11.174   5.842   2.726 -0.4490  0.6666  0.6172
   43MOL0     C 5718  11.024   6.041   2.463  0.6204  0.3925 -0.4430
   43MOL0     C 5719  10.897   6.067   2.404 -0.4646 -0.1225 -0.5151
   43MOL0     N 5720  10.332   6.409   2.114 -0.5455  0.1673 -0.1775
   43MOL0     N 5721  10.327   6.532   2.076  0.0650  0.2818  0.1223
   43MOL0     C 5722  10.473   7.166   2.743 -0.2348  0.8828  0.2869
   43MOL0     C 5723  10.470   7.064   2.841  0.4904  1.1806  1.1104
   43MOL0     C 5724  10.599   6.648   3.000 -0.4617  0.2355  0.3727
   43MOL0     C 5725  10.480   6.605   3.069  0.4787 -0.2032 -0.5898
   43MOL0     C 5726  10.477   6.500   3.158 -0.5988  0.5044  0.6011
   43MOL0     C 5727  10.595   6.424   3.181  0.4166 -0.2479 -1.3239
   43MOL0     O 5728  10.593   6.337   3.289  0.4304 -0.1620 -0.2360
   43MOL0     C 5729  10.643   6.206   3.242  0.1313 -0.3268  0.4836
   43MOL0     C 5730  10.545   6.118   3.164 -0.6888  0.0432  0.0332
   43MOL0     C 5731  10.407   6.104   3.225  0.5469 -0.1547  0.0335
   43MOL0     C 5732  10.318   6.006   3.149 -0.0000 -0.2550  0.5074
   43MOL0     C 5733  10.293   6.054   3.015  0.5921 -0.6168 -0.1456
   43MOL0     C 5734  10.249   6.111   2.920 -0.1093  0.2541  0.2393
   43MOL0     C 5735  10.714   6.467   3.118 -1.0728  0.8155 -0.0007
   43MOL0     C 5736  10.712   6.576   3.033 -0.2867  0.5169 -0.6690
   43MOL0     C 5737  10.853   6.626   2.998  0.5377 -0.2546  0.5192
   43MOL0     H 5738  10.422   6.794   2.638  1.8945  0.3372  0.7362
   43MOL0     H 5739  10.413   6.977   2.467 -2.4794 -3.2690  0.8250
   43MOL0     H 5740  10.593   7.394   2.579  4.0070 -0.3759  0.4686
   43MOL0     H 5741  10.669   7.250   2.511 -0.1214  0.0237 -1.1363
   43MOL0     H 5742  10.672   7.433   2.338 -1.5813  1.9154 -3.0882
   43MOL0     H 5743  10.491   7.444   2.367 -0.8055 -1.0844 -1.8128
   43MOL0     H 5744  10.544   7.351   2.164  2.0061  2.8830  1.5861
   43MOL0     H 5745  10.450   7.239   2.262  0.0632 -3.0032  2.3096
   43MOL0     H 5746  10.747   7.200   2.269 -1.5496  1.5330  0.3690
   43MOL0     H 5747  10.643   7.125   2.360  2.1076  2.2862  0.8472
   43MOL0     H 5748  10.598   7.091   2.056  1.7723 -2.9966 -2.0656
   43MOL0     H 5749  10.720   7.002   2.153 -0.5783 -1.4035 -0.4712
   43MOL0     H 5750  10.533   6.947   2.300  0.7233  0.7312  0.1832
   43MOL0     H 5751  10.417   6.996   2.180 -1.7575 -3.7268  3.1753
   43MOL0     H 5752  10.606   6.759   2.152 -1.8597 -0.5843  3.2557
   43MOL0     H 5753  10.512   6.844   2.022 -0.9502  2.9600  0.6772
   43MOL0     H 5754  10.363   6.791   2.281  0.4389 -0.3541  0.5908
   43MOL0     H 5755  10.304   6.793   2.124  0.0295 -0.6598  0.3618
   43MOL0     H 5756  10.527   6.560   2.329  0.1703  3.4793 -0.9271
   43MOL0     H 5757  10.533   6.214   2.196  0.2719  2.4959 -1.8954
   43MOL0     H 5758  10.580   6.304   2.342  1.6202 -1.1583 -2.1368
   43MOL0     H 5759  10.362   6.215   2.441  1.2610  0.1958  0.6715
   43MOL0     H 5760  10.292   6.176   2.280 -0.7403 -2.5162  1.4111
   43MOL0     H 5761  10.433   5.989   2.257  0.9000  2.1657 -0.6351
   43MOL0     H 5762  10.331   5.987   2.384 -0.4527  1.2908  0.3055
   43MOL0     H 5763  10.532   5.904   2.479  1.9378  0.1175  1.6218
   43MOL0     H 5764  10.508   6.061   2.550 -1.0666  0.5902  0.1923
   43MOL0     H 5765  10.703   5.893   2.623 -0.0637  1.3194  0.3254
   43MOL0     H 5766  10.931   5.841   2.719 -0.8787 -0.7869  0.3668
   43MOL0     H 5767  11.391   5.807   2.428 -0.7975 -1.4985 -0.7789
   43MOL0     H 5768  11.629   5.749   2.440  0.8250 -0.6807  0.4783
   43MOL0     H 5769  11.870   5.687   2.555  1.3495  0.4380  3.3520
   43MOL0     H 5770  11.841   5.822   2.428 -1.0979 -2.5580 -0.3532
   43MOL0     H 5771  12.038   5.917   2.610  1.1540  1.1025 -0.7241
   43MOL0     H 5772  12.085   5.760   2.586  0.1027  1.5077  1.9767
   43MOL0     H 5773  12.083   5.802   2.338  4.1825  1.4812 -1.0815
   43MOL0     H 5774  12.009   5.957   2.360  0.5985  0.1771 -1.8205
   43MOL0     H 5775  12.273   5.946   2.324 -1.5246  2.2453 -0.4852
   43MOL0     H 5776  12.273   5.859   2.476  0.6323  1.8564  0.0600
   43MOL0     H 5777  12.258   6.057   2.607 -0.3233 -0.2411 -0.3041
   43MOL0     H 5778  12.146   6.127   2.491 -1.4547 -0.2909  2.7749
   43MOL0     H 5779  12.318   6.212   2.363  0.3470  1.1417  0.3417
   43MOL0     H 5780  12.347   6.253   2.528 -0.4078 -1.1178  0.2263
   43MOL0     H 5781  12.490   6.052   2.350 -3.1184  1.5180 -0.0049
   43MOL0     H 5782  12.516   6.038   2.529 -0.4471 -1.3109 -1.4223
   43MOL0     H 5783  12.700   6.144   2.435 -0.5159 -1.3869  0.3414
   43MOL0     H 5784  12.605   6.282   2.363  0.3753 -1.4152 -3.0890
   43MOL0     H 5785  11.676   6.015   2.782  1.8969  1.9078 -2.2320
   43MOL0     H 5786  11.438   6.056   2.769 -1.6203 -0.0528 -0.2654
   43MOL0     H 5787  11.110   6.083   2.412  0.5767  0.2186 -0.6582
   43MOL0     H 5788  10.899   6.128   2.314  1.4752 -1.3612 -1.3929
   43MOL0     H 5789  10.494   7.268   2.775  2.0947  0.0887  1.5303
   43MOL0     H 5790  10.494   7.097   2.942  2.7403  2.7426  0.1311
   43MOL0     H 5791  10.386   6.659   3.054 -0.3182 -1.5233 -0.4682
   43MOL0     H 5792  10.389   6.470   3.214 -0.4503 -2.2423 -0.4532
   43MOL0     H 5793  10.673   6.142   3.326 -2.4956 -2.1943  0.1227
   43MOL0     H 5794  10.733   6.219   3.181  0.2947  0.0048  0.7925
   43MOL0     H 5795  10.593   6.020   3.161  2.1435  1.2637  1.3100
   43MOL0     H 5796  10.535   6.158   3.063 -1.5484 -1.5509 -0.5358
   43MOL0     H 5797  10.360   6.202   3.240  0.9862  0.1614 -0.6478
   43MOL0     H 5798  10.430   6.060   3.323 -1.0456 -1.8662 -0.3072
   43MOL0     H 5799  10.361   5.906   3.135 -0.2706 -0.8416  3.3549
   43MOL0     H 5800  10.224   5.978   3.198 -0.5482  1.4911  0.5109
   43MOL0     H 5801  10.215   6.166   2.835 -1.9099 -1.0547  0.0809
   43MOL0     H 5802  10.807   6.416   3.145 -0.2261  2.0089 -0.5658
   43MOL0     H 5803  10.919   6.596   3.080  2.2952 -1.5992 -1.2577
   43MOL0     H 5804  10.880   6.575   2.905  1.4602  0.0907  0.5848
   43MOL0     H 5805  10.853   6.735   2.994  0.2057 -0.2762 -1.7415
   44MOL0     O 5806   9.968   7.449   4.722 -0.0046  0.6092 -0.0407
   44MOL0     C 5807   9.861   7.388   4.744  0.5807 -0.0445  0.3721
   44MOL0     O 5808   9.834   7.297   4.849  0.3601 -0.1186 -0.1980
   44MOL0     C 5809   9.945   7.227   4.900  0.4320 -0.3553  0.3827
   44MOL0     C 5810   9.950   7.204   5.036 -0.4920  0.3643  0.6602
   44MOL0     C 5811  10.067   7.149   5.094 -0.4691  0.1922 -0.3747
   44MOL0     C 5812  10.174   7.130   5.012 -0.0950  0.1600 -0.3409
   44MOL0     O 5813  10.291   7.090   5.063 -0.0485 -0.2609  0.5260
   44MOL0     C 5814  10.365   7.205   5.114 -0.0127  0.6625  0.0540
   44MOL0     C 5815  10.494   7.156   5.186 -0.2157  0.3137 -0.1228
   44MOL0     C 5816  10.444   7.056   5.291 -1.2770 -0.4344  0.5049
   44MOL0     C 5817  10.532   7.054   5.411 -0.9410 -0.4961  0.3700
   44MOL0     C 5818  10.482   6.964   5.519  0.1986 -0.2589 -0.3882
   44MOL0     C 5819  10.548   6.976   5.657 -0.0802  0.4153 -0.1158
   44MOL0     C 5820  10.704   6.963   5.641  0.0238 -0.4069  0.1946
   44MOL0     C 5821  10.787   6.978   5.764 -0.4441  0.3162  1.2067
   44MOL0     N 5822  10.934   6.957   5.739 -0.6193  0.1586 -0.5099
   44MOL0     C 5823  11.007   6.838   5.738  0.1436  0.5944  0.3693
   44MOL0     C 5824  11.133   6.858   5.743 -0.1272 -0.7988 -0.1861
   44MOL0     C 5825  11.246   6.762   5.741  0.2159  0.3565  0.0762
   44MOL0     C 5826  11.374   6.827   5.802  0.4091  0.8499  0.1239
   44MOL0     C 5827  11.497   6.737   5.777  0.8301  0.4627  0.7909
   44MOL0     C 5828  11.620   6.777   5.849  0.1782 -0.5994  0.3603
   44MOL0     O 5829  11.709   6.658   5.843  0.8693 -0.3455  0.3070
   44MOL0     C 5830  11.835   6.670   5.892  0.1241  0.2970  0.3430
   44MOL0     C 5831  11.869   6.783   5.975  0.4867  0.1833 -0.0606
   44MOL0     C 5832  12.007   6.795   6.014 -0.6400  0.3457  0.3479
   44MOL0     C 5833  12.104   6.697   5.981  0.1210  0.7085 -0.0583
   44MOL0     C 5834  12.244   6.723   6.035 -0.1388  0.6747  0.4082
   44MOL0     O 5835  12.264   6.822   6.130 -0.1446 -0.0976 -0.1301
   44MOL0     C 5836  12.398   6.848   6.172  0.4722 -0.3063 -0.6698
   44MOL0     C 5837  12.487   6.892   6.079 -0.0352  0.0473  0.1877
   44MOL0     C 5838  12.621   6.917   6.117  0.1457  0.3797  0.1845
   44MOL0     C 5839  12.666   6.898   6.251 -0.4263 -0.3637  0.3334
   44MOL0     O 5840  12.801   6.897   6.271 -0.9854  0.3659 -0.3269
   44MOL0     C 5841  12.863   6.946   6.392 -0.3624  0.1369  0.3147
   44MOL0     C 5842  12.966   7.046   6.360  0.0167 -0.3789  0.1001
   44MOL0     C 5843  13.077   7.007   6.264  0.4126  0.1220 -0.0432
   44MOL0     C 5844  13.194   6.945   6.346  0.1310 -0.7207 -0.4655
   44MOL0     C 5845  13.307   6.902   6.256  0.4453  0.3193 -0.3161
   44MOL0     C 5846  13.393   7.002   6.181 -1.1346  0.2912  0.9925
   44MOL0     C 5847  13.490   6.934   6.078 -0.7433 -0.6864  0.1411
   44MOL0     C 5848  13.605   6.866   6.160 -0.1310 -0.4363  0.2265
   44MOL0    Cl 5849  13.693   6.742   6.064  0.4733 -0.1358  0.0075
   44MOL0     C 5850  12.569   6.871   6.345  0.5234 -0.0744  0.0862
   44MOL0     C 5851  12.430   6.845   6.308 -0.1441 -0.0787  0.7173
   44MOL0     O 5852  12.333   6.645   5.993 -0.8038 -0.3863  0.0070
   44MOL0     C 5853  12.061   6.583   5.903  0.9047 -0.2159 -0.7471
   44MOL0     C 5854  11.925   6.570   5.859 -0.1784 -0.4662 -0.4901
   44MOL0     N 5855  11.152   6.997   5.757  0.2805 -0.6637 -0.9518
   44MOL0     N 5856  11.031   7.052   5.737 -0.2492 -0.3322 -0.6807
   44MOL0     C 5857  10.153   7.132   4.874  0.2342  0.4644  0.1835
   44MOL0     C 5858  10.047   7.184   4.812  0.1444 -0.6884 -0.3392
   44MOL0     C 5859   9.755   7.421   4.647 -1.3398  0.5011  0.0079
   44MOL0     C 5860   9.740   7.332   4.546  0.1513  0.4882 -0.7611
   44MOL0     C 5861   9.646   7.359   4.441 -0.4202 -0.7868  0.7262
   44MOL0     C 5862   9.575   7.479   4.429  0.5338  0.1928 -0.3485
   44MOL0     O 5863   9.494   7.524   4.329 -0.4741  0.0889  0.2990
   44MOL0     C 5864   9.501   7.476   4.201  0.5567  0.4388  0.2590
   44MOL0     C 5865   9.419   7.348   4.170 -0.4029 -0.2391 -0.1249
   44MOL0     C 5866   9.270   7.367   4.160 -0.2589 -0.0331  0.8821
   44MOL0     C 5867   9.233   7.419   4.019 -0.8273  0.1431  0.4780
   44MOL0     C 5868   9.093   7.446   3.991 -0.3808  0.2802  1.3336
   44MOL0     C 5869   8.982   7.447   3.959 -0.7753 -0.1957  0.3897
   44MOL0     C 5870   9.583   7.556   4.545  0.1289  0.1689 -1.4088
   44MOL0     C 5871   9.667   7.530   4.653 -0.2195  0.0665  0.2341
   44MOL0     C 5872   9.660   7.626   4.772  0.0731  0.4102 -0.1723
   44MOL0     H 5873   9.871   7.232   5.105 -1.4931 -1.3191  0.2466
   44MOL0     H 5874  10.067   7.125   5.200 -0.2312  0.1277 -0.3891
   44MOL0     H 5875  10.403   7.275   5.038 -0.9945 -0.2490 -1.3252
   44MOL0     H 5876  10.302   7.266   5.179  0.3742  2.0419 -0.8206
   44MOL0     H 5877  10.541   7.241   5.236  1.3385 -0.6236  0.0884
   44MOL0     H 5878  10.574   7.109   5.128 -1.4359  0.8703 -2.3712
   44MOL0     H 5879  10.433   6.956   5.249 -1.7818 -0.9962  1.9094
   44MOL0     H 5880  10.344   7.089   5.319 -0.9164 -0.3400  1.7432
   44MOL0     H 5881  10.630   7.025   5.370 -1.6624 -2.8840  0.1608
   44MOL0     H 5882  10.550   7.157   5.440  3.7112 -1.2269  0.8860
   44MOL0     H 5883  10.373   6.972   5.522  0.1975  0.5582 -1.7514
   44MOL0     H 5884  10.507   6.869   5.471  1.5442  1.0171 -2.4095
   44MOL0     H 5885  10.514   7.067   5.706 -0.3500  0.8693 -1.1278
   44MOL0     H 5886  10.511   6.889   5.712 -1.4502 -0.9079 -2.9221
   44MOL0     H 5887  10.742   7.037   5.569 -0.7042 -2.3030 -2.2772
   44MOL0     H 5888  10.734   6.869   5.593  1.4181  0.8485 -1.5293
   44MOL0     H 5889  10.781   7.083   5.796  2.6813  0.7344  0.7677
   44MOL0     H 5890  10.749   6.909   5.840 -1.0955  0.0851  0.6746
   44MOL0     H 5891  10.966   6.738   5.726  0.2147  0.7235 -1.2974
   44MOL0     H 5892  11.225   6.671   5.799  2.8870 -0.2032  0.2925
   44MOL0     H 5893  11.246   6.728   5.637 -1.6493  0.2279  0.0846
   44MOL0     H 5894  11.386   6.927   5.758 -0.5490  0.5615 -0.8537
   44MOL0     H 5895  11.356   6.843   5.909 -2.7613  3.7528 -0.6407
   44MOL0     H 5896  11.516   6.733   5.669  0.3675 -0.7495  0.7423
   44MOL0     H 5897  11.473   6.633   5.803  0.2847  0.5433  0.6090
   44MOL0     H 5898  11.587   6.791   5.953 -4.8708 -3.3860 -0.5260
   44MOL0     H 5899  11.662   6.873   5.819 -2.1652 -0.0060 -1.2348
   44MOL0     H 5900  11.792   6.848   6.015 -2.5443 -1.0044 -3.3912
   44MOL0     H 5901  12.032   6.882   6.075 -1.3651  1.5550 -1.0099
   44MOL0     H 5902  12.464   6.915   5.976  3.8104 -3.1199 -1.6246
   44MOL0     H 5903  12.697   6.938   6.043  2.0694 -0.7597  1.7223
   44MOL0     H 5904  12.788   6.994   6.456  0.0030 -0.9448  1.5806
   44MOL0     H 5905  12.904   6.863   6.449  0.9973 -0.1278 -0.9839
   44MOL0     H 5906  12.905   7.126   6.316 -1.8063 -2.7396 -1.9207
   44MOL0     H 5907  13.002   7.086   6.456 -0.0108  1.6753 -0.6919
   44MOL0     H 5908  13.030   6.953   6.182 -0.2916  3.3456 -1.9436
   44MOL0     H 5909  13.120   7.096   6.216  0.9206 -0.7918 -1.3107
   44MOL0     H 5910  13.159   6.858   6.402  0.7989 -0.0395  1.0637
   44MOL0     H 5911  13.232   7.020   6.415 -2.7865 -0.0880  0.6183
   44MOL0     H 5912  13.258   6.843   6.178 -0.9092 -0.8175  1.3236
   44MOL0     H 5913  13.367   6.838   6.323 -1.4956 -0.2994  0.9246
   44MOL0     H 5914  13.336   7.077   6.125  1.3949  0.5537 -1.4840
   44MOL0     H 5915  13.466   7.051   6.246  0.2470  0.5432 -0.6863
   44MOL0     H 5916  13.544   6.994   6.003  0.5527 -1.3996  0.4766
   44MOL0     H 5917  13.427   6.866   6.021 -2.2289  0.2054  0.6630
   44MOL0     H 5918  13.686   6.934   6.187 -0.6584 -0.6834  2.6929
   44MOL0     H 5919  13.565   6.818   6.249  0.1962  1.5647  1.5202
   44MOL0     H 5920  12.590   6.879   6.451  1.3150 -3.2211  0.2675
   44MOL0     H 5921  12.359   6.813   6.384 -1.6754 -2.7646 -1.6811
   44MOL0     H 5922  12.138   6.510   5.879 -0.9234 -1.5239 -3.2200
   44MOL0     H 5923  11.892   6.482   5.805 -1.6358 -0.9116  1.0532
   44MOL0     H 5924  10.239   7.114   4.810 -0.8079  1.2594 -1.5316
   44MOL0     H 5925  10.022   7.204   4.709 -2.5116 -0.5100  0.2610
   44MOL0     H 5926   9.792   7.238   4.533 -0.2938 -0.3367  2.4961
   44MOL0     H 5927   9.647   7.284   4.362  4.4840  0.5189 -0.7759
   44MOL0     H 5928   9.602   7.445   4.174 -0.2384  0.9451 -4.0371
   44MOL0     H 5929   9.462   7.561   4.143  0.5115  0.5817  0.4975
   44MOL0     H 5930   9.448   7.272   4.243  1.0409 -0.3485 -0.7769
   44MOL0     H 5931   9.456   7.324   4.070 -1.1826  0.4022 -0.5785
   44MOL0     H 5932   9.236   7.435   4.239 -1.8820 -1.2824  1.3187
   44MOL0     H 5933   9.224   7.269   4.180 -0.5163 -0.2775 -0.7643
   44MOL0     H 5934   9.285   7.514   3.999 -0.6500 -0.0090  0.2048
   44MOL0     H 5935   9.269   7.340   3.952  1.3610 -0.0993  1.8262
   44MOL0     H 5936   8.887   7.462   3.911 -0.9742  0.9640  1.1022
   44MOL0     H 5937   9.520   7.642   4.568  1.7240  0.8005  0.9027
   44MOL0     H 5938   9.758   7.668   4.798  1.1932 -0.6617 -2.3562
   44MOL0     H 5939   9.586   7.702   4.744 -0.5000 -1.1230 -3.1844
   44MOL0     H 5940   9.628   7.573   4.862  1.2059  1.8285  1.1343
   45MOL0     O 5941   2.061   0.684   0.719  0.8373 -0.1919  0.0576
   45MOL0     C 5942   1.953   0.641   0.750  0.5171 -0.1026 -0.4610
   45MOL0     O 5943   1.936   0.521   0.818 -0.3396 -0.4049 -0.2365
   45MOL0     C 5944   2.050   0.466   0.876 -0.7231  0.4516 -0.2606
   45MOL0     C 5945   2.129   0.382   0.802 -0.0730  0.1963  0.6829
   45MOL0     C 5946   2.240   0.320   0.863 -0.7287  0.1894  0.0483
   45MOL0     C 5947   2.272   0.346   0.996  0.3070 -0.1791 -0.9996
   45MOL0     O 5948   2.376   0.281   1.057  0.0290  0.0480 -0.2698
   45MOL0     C 5949   2.469   0.200   0.984 -0.0503  0.5404  0.0485
   45MOL0     C 5950   2.574   0.158   1.088 -0.4366 -0.4032  0.1090
   45MOL0     C 5951   2.692   0.058   1.053  0.4589 -0.3846 -0.6322
   45MOL0     C 5952   2.780   0.088   0.932 -0.7424  0.3886  0.0730
   45MOL0     C 5953   2.925   0.039   0.936  0.3348  0.3411 -0.7130
   45MOL0     C 5954   2.992   0.080   0.800 -0.2226 -0.5069  0.1867
   45MOL0     C 5955   3.134   0.023   0.789  0.2120 -0.6511 -0.0915
   45MOL0     C 5956   3.211   0.084   0.669  0.0626  0.5986  0.5275
   45MOL0     N 5957   3.355   0.051   0.673  0.6158  0.7169  0.0447
   45MOL0     C 5958   3.435   0.099   0.779  0.6268 -0.2268 -0.7055
   45MOL0     C 5959   3.545   0.028   0.779 -0.2686  0.6099  0.3027
   45MOL0     C 5960   3.662   0.018   0.881  0.1906  0.3246  0.0013
   45MOL0     C 5961   3.686  -0.126   0.929 -0.5874 -1.0131  0.1199
   45MOL0     C 5962   3.787  -0.139   1.048  0.1737 -0.1746 -0.5494
   45MOL0     C 5963   3.924  -0.076   1.039 -0.1204  0.2989  0.3374
   45MOL0     O 5964   4.007  -0.129   1.146 -0.3210 -0.0820 -0.3371
   45MOL0     C 5965   4.139  -0.106   1.163  0.3494 -0.3807  0.7541
   45MOL0     C 5966   4.206  -0.002   1.092 -0.3496 -1.0861  0.3718
   45MOL0     C 5967   4.332   0.032   1.121  0.1637 -0.1451 -0.0835
   45MOL0     C 5968   4.404  -0.043   1.221  0.7652 -0.5362  0.1357
   45MOL0     C 5969   4.549  -0.005   1.252 -0.0635 -0.1089 -0.5120
   45MOL0     O 5970   4.628  -0.104   1.314  0.0947  0.6421 -0.4027
   45MOL0     C 5971   4.752  -0.077   1.362 -0.2666 -0.7591  0.1037
   45MOL0     C 5972   4.796  -0.155   1.475  0.5828 -0.2864  0.0853
   45MOL0     C 5973   4.922  -0.139   1.530 -0.1962 -0.0685  0.6419
   45MOL0     C 5974   5.016  -0.053   1.467 -1.5547  0.3746  0.7416
   45MOL0     O 5975   5.146  -0.054   1.518  0.1260  0.3247  0.1740
   45MOL0     C 5976   5.226   0.070   1.500 -0.2036  0.5080  0.3410
   45MOL0     C 5977   5.161   0.196   1.559 -0.6170  0.0062 -0.4488
   45MOL0     C 5978   5.161   0.202   1.716 -0.4086  0.4803 -0.0898
   45MOL0     C 5979   5.278   0.291   1.764  0.0294 -0.8397 -0.3689
   45MOL0     C 5980   5.319   0.258   1.907  1.0690 -0.0592 -0.2981
   45MOL0     C 5981   5.450   0.340   1.927 -0.5977  0.3066 -0.7414
   45MOL0     C 5982   5.502   0.359   2.076  0.6405  0.3458  0.0096
   45MOL0     C 5983   5.495   0.241   2.159 -0.4503  0.2699  0.2236
   45MOL0    Cl 5984   5.593   0.103   2.091  0.0675  0.2635 -0.2468
   45MOL0     C 5985   4.981   0.010   1.350 -0.5964 -0.0525  0.4250
   45MOL0     C 5986   4.844   0.007   1.302 -0.9533  0.0048 -0.1149
   45MOL0     O 5987   4.575   0.113   1.244  0.0203  0.6461 -0.0786
   45MOL0     C 5988   4.334  -0.149   1.283  0.2193  0.1690  0.2538
   45MOL0     C 5989   4.201  -0.175   1.265 -0.1171  0.2817  1.0539
   45MOL0     N 5990   3.532  -0.073   0.683 -0.9934 -0.2467 -0.0966
   45MOL0     N 5991   3.427  -0.051   0.616  0.4641  0.0704  0.2285
   45MOL0     C 5992   2.188   0.432   1.071 -0.7479 -0.6777  0.8872
   45MOL0     C 5993   2.077   0.498   1.012  0.0155  0.8260 -0.4198
   45MOL0     C 5994   1.835   0.720   0.722  0.7169  0.2618  0.1599
   45MOL0     C 5995   1.852   0.861   0.733 -0.0988  0.9433 -0.6395
   45MOL0     C 5996   1.749   0.956   0.731  0.5320 -0.0120 -0.6151
   45MOL0     C 5997   1.621   0.905   0.724  1.1890  0.2196  0.0865
   45MOL0     O 5998   1.521   1.003   0.722 -0.5972  0.3300  1.1900
   45MOL0     C 5999   1.383   0.959   0.730  0.4192  0.7691 -0.1499
   45MOL0     C 6000   1.337   0.934   0.590 -0.4348 -0.6215 -0.6035
   45MOL0     C 6001   1.306   1.053   0.498  0.0170  0.3420 -0.6109
   45MOL0     C 6002   1.187   1.145   0.529 -0.2183  0.3860 -0.3393
   45MOL0     C 6003   1.060   1.067   0.525 -0.7256  0.5209  0.1239
   45MOL0     C 6004   0.972   0.985   0.521  0.9083 -0.6346 -0.8782
   45MOL0     C 6005   1.594   0.768   0.713  0.0975  0.0385 -0.3397
   45MOL0     C 6006   1.699   0.675   0.722  0.0075  0.4484 -0.6660
   45MOL0     C 6007   1.660   0.531   0.744 -0.1295 -0.2821  0.1544
   45MOL0     H 6008   2.097   0.377   0.699  0.8689  3.3216  0.1503
   45MOL0     H 6009   2.293   0.249   0.800 -3.5684 -1.5907 -0.4737
   45MOL0     H 6010   2.412   0.111   0.953  0.4154  0.4884 -0.6978
   45MOL0     H 6011   2.516   0.259   0.904 -1.6725  3.0729  0.8555
   45MOL0     H 6012   2.513   0.119   1.170 -1.6265 -2.3107 -1.6067
   45MOL0     H 6013   2.625   0.243   1.135 -1.6173 -0.0657  0.8082
   45MOL0     H 6014   2.651  -0.040   1.028  1.3980 -1.6485  2.4129
   45MOL0     H 6015   2.755   0.065   1.142  0.4110 -1.8648 -0.4721
   45MOL0     H 6016   2.734   0.048   0.841 -1.7405 -1.6080  1.3596
   45MOL0     H 6017   2.775   0.196   0.919 -2.4705  0.2196 -0.9485
   45MOL0     H 6018   2.976   0.093   1.016 -1.4474 -1.0336  1.4736
   45MOL0     H 6019   2.925  -0.069   0.952 -1.7592  0.3835 -0.0697
   45MOL0     H 6020   2.928   0.062   0.713  0.7917 -0.2837 -0.6216
   45MOL0     H 6021   3.000   0.189   0.807  0.3778 -0.5161 -0.3236
   45MOL0     H 6022   3.125  -0.086   0.779  1.3242 -0.7880  0.3219
   45MOL0     H 6023   3.201   0.045   0.872 -0.8117  0.3745  0.4948
   45MOL0     H 6024   3.164   0.061   0.573  1.4193 -1.4838  0.2947
   45MOL0     H 6025   3.212   0.193   0.671  0.7821  0.6267 -0.3149
   45MOL0     H 6026   3.406   0.173   0.854  3.5769  1.4529 -1.0610
   45MOL0     H 6027   3.757   0.063   0.853  1.0042 -0.3402  1.5486
   45MOL0     H 6028   3.632   0.076   0.969 -0.3851  0.5159 -0.3199
   45MOL0     H 6029   3.594  -0.179   0.955  0.2317 -2.0974  0.9163
   45MOL0     H 6030   3.721  -0.180   0.840 -1.2764  2.4156 -2.4643
   45MOL0     H 6031   3.797  -0.246   1.064 -1.2062 -0.5877 -2.1805
   45MOL0     H 6032   3.741  -0.104   1.141 -0.1923 -2.0697  0.0241
   45MOL0     H 6033   3.928   0.033   1.039  0.9367  0.2724  0.2276
   45MOL0     H 6034   3.969  -0.101   0.942 -0.3284  1.9577 -0.2264
   45MOL0     H 6035   4.153   0.069   1.028  1.1458 -1.3482 -1.2266
   45MOL0     H 6036   4.384   0.118   1.082  2.8371  0.2172  3.6709
   45MOL0     H 6037   4.734  -0.233   1.517  1.2230 -0.4023  0.8435
   45MOL0     H 6038   4.973  -0.189   1.611  2.1396 -0.0954 -0.7511
   45MOL0     H 6039   5.322   0.046   1.548  0.1889  0.3846 -0.4864
   45MOL0     H 6040   5.241   0.078   1.392 -1.4489 -0.4834  0.0683
   45MOL0     H 6041   5.219   0.283   1.526  2.9608 -1.7342  0.6820
   45MOL0     H 6042   5.059   0.206   1.522 -0.9757  1.6410  0.8766
   45MOL0     H 6043   5.062   0.235   1.749  0.5562  1.2443  2.2382
   45MOL0     H 6044   5.177   0.100   1.750 -1.5388  0.0402 -0.8231
   45MOL0     H 6045   5.252   0.396   1.746 -0.5905 -0.5613  1.8576
   45MOL0     H 6046   5.368   0.273   1.704  0.0723 -0.1050 -0.5398
   45MOL0     H 6047   5.340   0.152   1.921  1.3741 -0.1007 -1.0127
   45MOL0     H 6048   5.243   0.291   1.979  0.4499 -1.3454 -0.3426
   45MOL0     H 6049   5.538   0.289   1.886 -1.2594 -1.4097 -0.1200
   45MOL0     H 6050   5.449   0.438   1.878  1.7377  1.1217  0.6686
   45MOL0     H 6051   5.455   0.445   2.125  1.0457  0.3046  0.4704
   45MOL0     H 6052   5.606   0.385   2.059  0.8625 -0.9604 -0.8512
   45MOL0     H 6053   5.529   0.262   2.261  1.2996  1.7158 -0.5978
   45MOL0     H 6054   5.390   0.213   2.172  0.1909 -1.9590  1.0396
   45MOL0     H 6055   5.049   0.078   1.300 -1.5927 -0.3874 -1.5136
   45MOL0     H 6056   4.820   0.062   1.212  2.2119 -0.4269 -1.3496
   45MOL0     H 6057   4.373  -0.209   1.365  0.5226  1.1714  0.8588
   45MOL0     H 6058   4.143  -0.248   1.321 -1.7397 -1.1963 -2.2680
   45MOL0     H 6059   2.225   0.463   1.169  4.0843  1.0846 -1.1629
   45MOL0     H 6060   2.013   0.568   1.066 -1.7997 -0.7140 -0.4862
   45MOL0     H 6061   1.955   0.890   0.748  0.4867  0.4040 -3.2325
   45MOL0     H 6062   1.772   1.062   0.736 -0.3704  0.2769 -2.0781
   45MOL0     H 6063   1.324   1.031   0.788  0.6655  0.4700  0.4796
   45MOL0     H 6064   1.365   0.873   0.796 -0.0960  0.1230 -1.1039
   45MOL0     H 6065   1.252   0.866   0.601  0.0283 -0.8072  3.2516
   45MOL0     H 6066   1.411   0.876   0.535  0.0977 -2.0274  1.4656
   45MOL0     H 6067   1.290   1.002   0.402 -1.0767 -1.3133  0.3943
   45MOL0     H 6068   1.400   1.107   0.489 -0.5410  1.3082 -0.8071
   45MOL0     H 6069   1.199   1.186   0.629  1.4103 -1.6943  0.3773
   45MOL0     H 6070   1.184   1.227   0.456 -3.2040 -1.3260 -2.3768
   45MOL0     H 6071   0.899   0.907   0.523 -0.5421  0.6418 -1.6957
   45MOL0     H 6072   1.495   0.723   0.713  0.4028 -0.6597  0.4922
   45MOL0     H 6073   1.555   0.514   0.718 -0.4197  1.0349  0.4169
   45MOL0     H 6074   1.732   0.477   0.681  0.6698  0.9620 -0.0419
   45MOL0     H 6075   1.661   0.505   0.850 -0.4690 -1.5912 -0.1380
   46MOL0     O 6076   8.864   4.864   9.823  0.0206 -0.0047 -0.2696
   46MOL0     C 6077   8.847   4.986   9.846  0.0896 -0.6389  0.4248
   46MOL0     O 6078   8.920   5.094   9.797 -1.5326  0.5058  0.2335
   46MOL0     C 6079   9.043   5.060   9.730 -0.2568  0.1496  0.2114
   46MOL0     C 6080   9.059   4.971   9.623 -0.4770  0.5013  0.6873
   46MOL0     C 6081   9.182   4.960   9.552  0.7524 -0.1022  0.3621
   46MOL0     C 6082   9.301   5.037   9.589  0.5986 -0.5553 -0.4181
   46MOL0     O 6083   9.413   5.027   9.515 -0.2631 -0.2850 -0.8868
   46MOL0     C 6084   9.493   5.141   9.492  0.1268  0.2698 -0.2322
   46MOL0     C 6085   9.602   5.144   9.605 -0.5099 -0.3121 -0.9423
   46MOL0     C 6086   9.726   5.068   9.553  0.5257  0.1658  0.3610
   46MOL0     C 6087   9.818   5.027   9.668  0.1494 -0.0369 -0.0416
   46MOL0     C 6088   9.956   4.971   9.609 -0.3751 -0.2385 -0.6184
   46MOL0     C 6089  10.039   5.082   9.533  0.1202  0.2414  0.1194
   46MOL0     C 6090  10.192   5.057   9.546 -0.1225  0.1815  0.3696
   46MOL0     C 6091  10.245   4.935   9.474 -0.0448  0.2076  0.7262
   46MOL0     N 6092  10.375   4.906   9.533 -1.2014 -0.5799 -0.1848
   46MOL0     C 6093  10.474   4.998   9.572 -1.3718  0.1832 -0.8425
   46MOL0     C 6094  10.596   4.927   9.586 -0.1777 -0.8648  0.5325
   46MOL0     C 6095  10.729   4.986   9.578  0.1659 -0.1542 -0.3915
   46MOL0     C 6096  10.750   5.124   9.625 -0.0495  0.3637  0.0458
   46MOL0     C 6097  10.902   5.137   9.653 -0.4208  0.3407  0.0887
   46MOL0     C 6098  10.935   5.274   9.713  0.2617 -0.3716  0.4070
   46MOL0     O 6099  11.058   5.280   9.784 -1.1016 -0.3074 -0.6791
   46MOL0     C 6100  11.167   5.291   9.697 -0.3624  0.2267  0.0483
   46MOL0     C 6101  11.207   5.416   9.648 -0.3269  0.6523 -0.6436
   46MOL0     C 6102  11.315   5.435   9.572 -0.4349 -0.2137  1.1449
   46MOL0     C 6103  11.402   5.318   9.543 -0.0554 -0.2066 -0.0610
   46MOL0     C 6104  11.532   5.340   9.469  0.1684 -0.3556  0.2767
   46MOL0     O 6105  11.565   5.472   9.434 -0.7011  0.4501 -0.1841
   46MOL0     C 6106  11.685   5.512   9.381  0.3143 -0.1551 -0.1864
   46MOL0     C 6107  11.741   5.460   9.268 -0.3211  0.5577  0.3409
   46MOL0     C 6108  11.867   5.503   9.219 -0.4044 -0.1588  0.6437
   46MOL0     C 6109  11.925   5.615   9.276  0.2347  0.7250  0.8123
   46MOL0     O 6110  12.038   5.663   9.218  0.5524 -0.3539 -0.2313
   46MOL0     C 6111  12.148   5.566   9.224  0.3872  0.2066  0.3781
   46MOL0     C 6112  12.259   5.624   9.134 -0.2100  1.6585 -0.6311
   46MOL0     C 6113  12.385   5.536   9.152 -1.0543  0.9361  0.0725
   46MOL0     C 6114  12.501   5.600   9.079 -0.5697 -0.1037  0.3452
   46MOL0     C 6115  12.620   5.502   9.088 -0.3137 -0.2212 -0.1294
   46MOL0     C 6116  12.727   5.528   8.986 -0.2421  0.0257  0.1997
   46MOL0     C 6117  12.797   5.659   9.001  0.2572 -0.1921  0.1351
   46MOL0     C 6118  12.943   5.655   9.021 -0.2499  0.3713  0.1398
   46MOL0    Cl 6119  12.989   5.592   9.189 -0.0571  0.3290 -0.1866
   46MOL0     C 6120  11.858   5.679   9.378  0.9328  0.1771 -0.5819
   46MOL0     C 6121  11.735   5.631   9.425 -0.2732 -0.1169 -0.3309
   46MOL0     O 6122  11.606   5.238   9.460  0.5651 -0.6506 -0.2202
   46MOL0     C 6123  11.357   5.191   9.579 -0.1073 -0.4047  0.4726
   46MOL0     C 6124  11.243   5.175   9.655  0.5015 -0.0468  0.1944
   46MOL0     N 6125  10.570   4.796   9.570  0.1162  0.3874  0.9242
   46MOL0     N 6126  10.443   4.789   9.529 -0.2942  0.9910  0.1698
   46MOL0     C 6127   9.277   5.130   9.698  0.2295  0.4552 -0.6707
   46MOL0     C 6128   9.156   5.133   9.769  0.5389 -1.2639  0.1840
   46MOL0     C 6129   8.719   5.022   9.909  0.0700 -0.4893  0.3406
   46MOL0     C 6130   8.610   4.931   9.891 -0.6517 -0.1738  0.5760
   46MOL0     C 6131   8.487   4.962   9.936 -0.4822  0.9868 -0.6785
   46MOL0     C 6132   8.459   5.075  10.011 -0.5984  0.4864  0.4177
   46MOL0     O 6133   8.337   5.114  10.064 -0.3135 -0.3696 -0.2848
   46MOL0     C 6134   8.228   5.011  10.055 -0.2042  1.0712 -0.2680
   46MOL0     C 6135   8.100   5.077  10.094  0.6839 -0.2647  0.7880
   46MOL0     C 6136   8.047   5.188   9.992  0.0105 -0.3700  0.8193
   46MOL0     C 6137   7.900   5.234  10.035 -0.2677  0.2429  0.0928
   46MOL0     C 6138   7.900   5.275  10.176  0.3651  0.5388 -0.3543
   46MOL0     C 6139   7.900   5.309  10.294  0.1825 -0.8094  1.0620
   46MOL0     C 6140   8.569   5.159  10.018  0.5707 -0.1885 -0.2081
   46MOL0     C 6141   8.696   5.138   9.979  0.6261  0.4077 -0.7409
   46MOL0     C 6142   8.795   5.238  10.012  0.2465 -0.6563 -0.1063
   46MOL0     H 6143   8.988   4.905   9.574  1.1391  2.8141 -5.9112
   46MOL0     H 6144   9.181   4.901   9.461 -4.2957 -0.4862  0.3751
   46MOL0     H 6145   9.542   5.138   9.394 -2.8385  0.5484 -1.8555
   46MOL0     H 6146   9.437   5.233   9.474 -1.8733 -1.1749 -1.8736
   46MOL0     H 6147   9.560   5.100   9.696  1.5042  2.3311  1.4587
   46MOL0     H 6148   9.629   5.245   9.635  1.1163 -0.8725 -0.4197
   46MOL0     H 6149   9.781   5.126   9.479 -0.2248 -0.3860 -0.6624
   46MOL0     H 6150   9.683   4.978   9.508  0.6658 -0.1955  0.9336
   46MOL0     H 6151   9.835   5.118   9.726  1.9142 -0.0726 -0.4444
   46MOL0     H 6152   9.772   4.957   9.738 -0.8944 -1.7230 -2.2608
   46MOL0     H 6153  10.016   4.949   9.698 -1.1586  0.7427  0.1877
   46MOL0     H 6154   9.933   4.879   9.555  0.2077  0.1102 -1.4750
   46MOL0     H 6155  10.006   5.073   9.429  1.1266  0.5741 -0.2369
   46MOL0     H 6156  10.026   5.181   9.578  2.2542  0.3919  0.5105
   46MOL0     H 6157  10.208   5.046   9.653  0.7753 -0.0446  0.2217
   46MOL0     H 6158  10.248   5.144   9.510  1.1859 -0.8771 -0.2660
   46MOL0     H 6159  10.183   4.847   9.490 -0.1893  0.3941  1.2149
   46MOL0     H 6160  10.246   4.958   9.367 -1.4164 -1.0714  0.4128
   46MOL0     H 6161  10.471   5.105   9.551  1.5043  0.2341 -1.3837
   46MOL0     H 6162  10.799   4.917   9.628  1.8928  1.0079 -1.1234
   46MOL0     H 6163  10.764   4.987   9.475  0.6765 -1.4084 -0.2532
   46MOL0     H 6164  10.715   5.198   9.552  1.9284 -1.1426 -2.5971
   46MOL0     H 6165  10.691   5.143   9.715 -0.5030  1.8244 -0.5234
   46MOL0     H 6166  10.956   5.137   9.558 -2.2425  0.2044 -0.9918
   46MOL0     H 6167  10.942   5.054   9.712 -0.4511  0.1801 -0.1160
   46MOL0     H 6168  10.856   5.297   9.785  0.1393  1.8576 -0.3531
   46MOL0     H 6169  10.926   5.351   9.636 -1.4393  0.9691  1.8703
   46MOL0     H 6170  11.143   5.500   9.674 -0.9764  0.2531 -0.9141
   46MOL0     H 6171  11.340   5.528   9.524  0.8524 -0.6924  0.8233
   46MOL0     H 6172  11.702   5.373   9.218 -0.4970  0.6356  0.3415
   46MOL0     H 6173  11.917   5.460   9.133  0.4723  1.1759  0.4588
   46MOL0     H 6174  12.188   5.549   9.325 -1.6412 -4.2562  0.7225
   46MOL0     H 6175  12.120   5.466   9.189  0.1209  1.2103 -2.4867
   46MOL0     H 6176  12.233   5.638   9.029  0.7099  0.1656 -1.0896
   46MOL0     H 6177  12.282   5.724   9.172  0.3343  1.1480  0.4494
   46MOL0     H 6178  12.408   5.535   9.259  1.4290 -1.9047 -0.3708
   46MOL0     H 6179  12.364   5.433   9.122 -3.8516  1.2712  0.6453
   46MOL0     H 6180  12.530   5.699   9.116  0.9044 -1.4474  3.0688
   46MOL0     H 6181  12.477   5.615   8.974 -0.6601 -1.6658  0.1209
   46MOL0     H 6182  12.571   5.407   9.062 -0.4611 -0.1545 -0.0957
   46MOL0     H 6183  12.649   5.494   9.194  3.0150  0.5536 -0.8770
   46MOL0     H 6184  12.804   5.451   8.988  1.1272  1.3036 -1.0343
   46MOL0     H 6185  12.679   5.531   8.888  1.5342 -0.4158 -0.7203
   46MOL0     H 6186  12.759   5.711   9.089  1.7639  0.7960  0.2356
   46MOL0     H 6187  12.770   5.722   8.915  1.4340  0.9512  0.5641
   46MOL0     H 6188  12.979   5.584   8.947 -2.6516 -0.3635 -0.4256
   46MOL0     H 6189  12.985   5.753   8.998  3.1533 -0.8593  0.5292
   46MOL0     H 6190  11.903   5.770   9.417  2.6592 -0.3731 -1.1731
   46MOL0     H 6191  11.686   5.674   9.512 -0.5029  2.0351 -1.4677
   46MOL0     H 6192  11.418   5.107   9.547 -2.7750 -1.6989 -1.6058
   46MOL0     H 6193  11.216   5.074   9.683  1.8540 -0.2250  0.9474
   46MOL0     H 6194   9.356   5.202   9.720 -0.1994  0.3118  1.5924
   46MOL0     H 6195   9.150   5.203   9.851 -2.5961 -0.8661 -0.2700
   46MOL0     H 6196   8.625   4.849   9.822  0.2627 -1.9021  2.7076
   46MOL0     H 6197   8.412   4.885   9.923 -2.3571  2.1433  2.2021
   46MOL0     H 6198   8.257   4.935  10.127 -0.8130 -0.1659 -1.2893
   46MOL0     H 6199   8.220   4.975   9.952  3.0209  0.3938 -0.3769
   46MOL0     H 6200   8.099   5.122  10.194  1.8825  0.8632  0.3178
   46MOL0     H 6201   8.034   4.990  10.086  0.0444  0.2118  0.7206
   46MOL0     H 6202   8.051   5.145   9.892  1.4522  1.6446 -0.0470
   46MOL0     H 6203   8.119   5.270   9.990  1.4848 -1.6037  1.0925
   46MOL0     H 6204   7.866   5.312   9.966  0.9145 -0.5233 -1.4127
   46MOL0     H 6205   7.835   5.147  10.027  2.2001 -2.1971  3.3555
   46MOL0     H 6206   7.869   5.348  10.389 -0.0858  0.5189  0.4573
   46MOL0     H 6207   8.547   5.252  10.070 -2.2468 -0.2400 -1.1495
   46MOL0     H 6208   8.894   5.191  10.014  1.9483  2.6142  0.1463
   46MOL0     H 6209   8.795   5.312   9.931 -4.3378 -0.8859 -0.5891
   46MOL0     H 6210   8.777   5.279  10.112  4.3961  0.7599  0.2587
   47MOL0     O 6211   3.010   6.235   5.276 -0.1176  0.3688 -0.8178
   47MOL0     C 6212   3.048   6.220   5.164  0.3929 -0.0555  0.1360
   47MOL0     O 6213   2.974   6.165   5.066 -0.0859 -0.3672 -0.0547
   47MOL0     C 6214   2.840   6.164   5.062  0.3410 -0.6440 -0.3431
   47MOL0     C 6215   2.786   6.056   4.987 -0.2895 -0.4924  0.6854
   47MOL0     C 6216   2.646   6.044   4.975  0.7023 -0.0944  0.5572
   47MOL0     C 6217   2.556   6.134   5.037 -1.4432 -0.0489  0.1270
   47MOL0     O 6218   2.426   6.105   5.035 -0.4863 -0.2103  0.7481
   47MOL0     C 6219   2.332   6.201   5.081 -0.6065 -0.0080  0.0530
   47MOL0     C 6220   2.186   6.140   5.058 -0.9654  0.6031  0.0084
   47MOL0     C 6221   2.081   6.239   5.130  0.6748  0.7529  0.1744
   47MOL0     C 6222   1.940   6.239   5.061 -0.7486 -0.1594  0.6139
   47MOL0     C 6223   1.842   6.301   5.160 -0.3314 -0.2929 -0.5994
   47MOL0     C 6224   1.722   6.333   5.069  0.1786 -0.2349 -0.0312
   47MOL0     C 6225   1.620   6.416   5.153 -0.0965  0.4008 -0.0926
   47MOL0     C 6226   1.614   6.559   5.106  0.2053 -0.2557  0.0365
   47MOL0     N 6227   1.735   6.630   5.079  0.2613 -0.0899  0.0805
   47MOL0     C 6228   1.812   6.632   4.963 -1.0334 -0.5394 -1.1760
   47MOL0     C 6229   1.904   6.720   4.981 -0.5463 -0.1690  0.1101
   47MOL0     C 6230   2.022   6.761   4.898  0.1691  0.2162  0.5484
   47MOL0     C 6231   2.135   6.663   4.892 -0.2965  0.7485 -0.0795
   47MOL0     C 6232   2.245   6.692   4.794 -0.0513  0.1688  0.1695
   47MOL0     C 6233   2.359   6.596   4.784 -0.0142 -0.7738  0.5825
   47MOL0     O 6234   2.491   6.650   4.747  0.3807 -0.1959 -0.8993
   47MOL0     C 6235   2.601   6.565   4.736 -0.6082  1.2595  0.6665
   47MOL0     C 6236   2.604   6.429   4.766 -0.7513  0.2547  1.1000
   47MOL0     C 6237   2.720   6.350   4.740 -0.6516 -0.4951 -0.0881
   47MOL0     C 6238   2.839   6.405   4.687  0.4095  0.7067 -0.1989
   47MOL0     C 6239   2.964   6.334   4.675  0.6602 -0.6203 -0.4206
   47MOL0     O 6240   2.955   6.200   4.665  0.6219 -0.2210  0.4008
   47MOL0     C 6241   3.062   6.122   4.644 -1.0434 -0.4458  0.2231
   47MOL0     C 6242   3.094   6.017   4.736 -0.1588  0.1074  0.0193
   47MOL0     C 6243   3.213   5.940   4.733  0.2143 -0.2488  0.2894
   47MOL0     C 6244   3.309   5.976   4.630  0.1458 -0.0473  0.3496
   47MOL0     O 6245   3.427   5.910   4.611  0.0041  0.0916  0.2048
   47MOL0     C 6246   3.463   5.815   4.712 -0.4595  0.4243  0.6050
   47MOL0     C 6247   3.601   5.753   4.685 -0.5328  0.2471  0.4438
   47MOL0     C 6248   3.623   5.696   4.544 -0.4969  0.9004  0.7241
   47MOL0     C 6249   3.747   5.603   4.553  0.3028 -0.1031 -0.5330
   47MOL0     C 6250   3.777   5.544   4.416  0.7928 -0.5500 -0.4727
   47MOL0     C 6251   3.879   5.433   4.422  0.2823  0.1384 -0.3306
   47MOL0     C 6252   3.829   5.296   4.485 -0.2914 -0.6624  0.0023
   47MOL0     C 6253   3.907   5.171   4.440  0.3033 -0.1964  0.7791
   47MOL0    Cl 6254   4.085   5.167   4.477  0.2766  0.3728  0.1451
   47MOL0     C 6255   3.285   6.080   4.546  0.4759 -0.1986 -0.7648
   47MOL0     C 6256   3.164   6.148   4.551  0.4107 -1.3019  0.6317
   47MOL0     O 6257   3.073   6.402   4.693  0.3494 -0.1958 -0.3394
   47MOL0     C 6258   2.826   6.540   4.652 -0.3142 -0.0564 -0.4079
   47MOL0     C 6259   2.710   6.615   4.666 -0.0882 -0.4979  0.2718
   47MOL0     N 6260   1.896   6.762   5.110  1.1948 -0.7459 -0.4761
   47MOL0     N 6261   1.786   6.719   5.164 -0.2768 -0.2292  0.2634
   47MOL0     C 6262   2.616   6.240   5.110  0.1187  0.4564 -0.0183
   47MOL0     C 6263   2.757   6.260   5.117 -0.2824 -0.7433 -0.4560
   47MOL0     C 6264   3.182   6.270   5.123  0.3911 -0.1401  0.3361
   47MOL0     C 6265   3.221   6.236   4.991 -0.2254 -0.5526 -0.3374
   47MOL0     C 6266   3.344   6.273   4.942 -0.1211 -0.3697 -0.4426
   47MOL0     C 6267   3.434   6.345   5.022  0.2974 -0.5883 -0.3569
   47MOL0     O 6268   3.552   6.392   4.976  1.2815 -0.6540 -0.4049
   47MOL0     C 6269   3.606   6.328   4.869  0.9690  0.3355 -0.0772
   47MOL0     C 6270   3.766   6.348   4.859 -0.3527 -0.3067  0.2291
   47MOL0     C 6271   3.815   6.497   4.887 -0.4495  0.3773 -0.6223
   47MOL0     C 6272   3.965   6.531   4.841  0.0703 -0.2513 -0.1510
   47MOL0     C 6273   4.067   6.451   4.919  1.7181 -0.5421  0.3600
   47MOL0     C 6274   4.148   6.386   4.986 -0.3288 -0.0544 -0.7797
   47MOL0     C 6275   3.399   6.378   5.152  0.4815 -0.4572 -0.2926
   47MOL0     C 6276   3.269   6.348   5.201 -0.0468 -0.8239  0.7417
   47MOL0     C 6277   3.242   6.385   5.344 -0.1744 -0.3444  0.0834
   47MOL0     H 6278   2.846   5.979   4.939 -0.8872  0.4930 -1.8496
   47MOL0     H 6279   2.606   5.960   4.919 -3.0662  2.0600 -0.3382
   47MOL0     H 6280   2.337   6.204   5.191 -0.6859  0.1361  0.0535
   47MOL0     H 6281   2.354   6.302   5.044  2.0946 -0.1842  0.9758
   47MOL0     H 6282   2.176   6.036   5.089 -1.7525 -0.5432 -3.5794
   47MOL0     H 6283   2.176   6.138   4.949 -0.4872 -0.9890 -0.0329
   47MOL0     H 6284   2.111   6.344   5.129 -0.0989  0.9916  1.0226
   47MOL0     H 6285   2.077   6.202   5.233  1.2388 -3.2117 -1.0284
   47MOL0     H 6286   1.942   6.307   4.975 -3.5742  0.0707  0.6344
   47MOL0     H 6287   1.902   6.138   5.040 -0.3353 -0.8788  3.0090
   47MOL0     H 6288   1.804   6.228   5.232  0.5093  1.2589  1.5270
   47MOL0     H 6289   1.875   6.394   5.207  0.0040 -0.5115 -0.4031
   47MOL0     H 6290   1.746   6.392   4.980  2.6264 -0.0081  0.7153
   47MOL0     H 6291   1.679   6.237   5.040  0.2782  0.2635 -2.0292
   47MOL0     H 6292   1.632   6.408   5.261  2.6906  2.3752 -0.1462
   47MOL0     H 6293   1.521   6.384   5.119  0.6255  2.0297 -4.3481
   47MOL0     H 6294   1.557   6.563   5.013  0.5248  2.4066 -0.1382
   47MOL0     H 6295   1.557   6.613   5.182 -0.7729 -2.5271  0.9859
   47MOL0     H 6296   1.801   6.580   4.868  3.8596 -0.2112 -2.2190
   47MOL0     H 6297   1.994   6.806   4.803  1.1953 -1.4145 -0.5820
   47MOL0     H 6298   2.067   6.849   4.944  0.1584  0.5386 -0.0476
   47MOL0     H 6299   2.172   6.656   4.995 -2.3282  3.9558  1.0497
   47MOL0     H 6300   2.086   6.568   4.871  1.6686 -1.3263  3.6434
   47MOL0     H 6301   2.297   6.781   4.830  0.8445  0.2736 -1.2733
   47MOL0     H 6302   2.212   6.720   4.693  2.6417  0.3882 -0.7429
   47MOL0     H 6303   2.330   6.521   4.709 -3.1018  1.7144 -0.9413
   47MOL0     H 6304   2.372   6.560   4.886 -2.9648  0.3153  1.4363
   47MOL0     H 6305   2.523   6.374   4.812 -2.4505  1.0048 -0.8412
   47MOL0     H 6306   2.728   6.245   4.767  0.2854 -0.0941  1.3091
   47MOL0     H 6307   3.022   5.986   4.811 -0.1263  1.4003  0.6196
   47MOL0     H 6308   3.228   5.856   4.801  2.2243 -0.6311 -0.5462
   47MOL0     H 6309   3.453   5.859   4.812 -0.1029  0.1580  0.7581
   47MOL0     H 6310   3.380   5.744   4.708 -0.5686  0.6157 -1.5972
   47MOL0     H 6311   3.673   5.832   4.709 -0.7739  0.8738 -0.8226
   47MOL0     H 6312   3.618   5.672   4.756  1.0959 -0.0582 -0.2615
   47MOL0     H 6313   3.540   5.636   4.506 -0.2336  0.5759  0.6583
   47MOL0     H 6314   3.654   5.771   4.471 -2.3564 -0.1613 -1.2582
   47MOL0     H 6315   3.733   5.521   4.624 -0.7319 -0.1769 -0.8117
   47MOL0     H 6316   3.828   5.669   4.586  0.7714 -0.6145 -0.6318
   47MOL0     H 6317   3.806   5.629   4.353 -0.1542  1.4584  1.6288
   47MOL0     H 6318   3.685   5.506   4.371  0.2714 -0.6744  0.6507
   47MOL0     H 6319   3.917   5.422   4.320 -0.2531  2.3521 -0.8381
   47MOL0     H 6320   3.964   5.467   4.482 -0.2366 -2.3944  2.0393
   47MOL0     H 6321   3.723   5.289   4.456 -0.4536  1.5356 -0.0879
   47MOL0     H 6322   3.842   5.308   4.593  2.5761 -0.1566 -0.3176
   47MOL0     H 6323   3.860   5.090   4.497  0.3601  0.9498  2.5299
   47MOL0     H 6324   3.891   5.152   4.334 -0.3309  0.4112  0.7616
   47MOL0     H 6325   3.372   6.116   4.492  2.4477 -0.5875  1.9007
   47MOL0     H 6326   3.160   6.231   4.481 -1.4917 -0.9322  1.1184
   47MOL0     H 6327   2.918   6.584   4.615 -1.2322  1.8796 -0.5197
   47MOL0     H 6328   2.720   6.722   4.647 -0.0546  0.0998  3.1746
   47MOL0     H 6329   2.548   6.298   5.172 -0.6479  0.9625 -1.2995
   47MOL0     H 6330   2.788   6.349   5.171  1.7908 -0.8382 -1.4106
   47MOL0     H 6331   3.172   6.154   4.940  2.3201 -1.3078 -1.7655
   47MOL0     H 6332   3.376   6.228   4.848  0.2132 -0.6405 -0.2028
   47MOL0     H 6333   3.554   6.373   4.784  0.5686  1.8712  0.9631
   47MOL0     H 6334   3.588   6.220   4.866 -2.6973  0.8456 -0.0074
   47MOL0     H 6335   3.803   6.320   4.760  0.3245  0.3044  0.2999
   47MOL0     H 6336   3.813   6.286   4.935  0.7811 -1.8183 -1.6229
   47MOL0     H 6337   3.808   6.504   4.996  0.3791  0.5350 -0.5747
   47MOL0     H 6338   3.743   6.569   4.846 -2.4127 -0.1851  1.6126
   47MOL0     H 6339   3.968   6.514   4.733 -1.6601  2.6400 -0.7382
   47MOL0     H 6340   3.988   6.637   4.841  2.0188 -0.5373 -3.7284
   47MOL0     H 6341   4.215   6.319   5.036  0.2090  0.9708 -0.0801
   47MOL0     H 6342   3.477   6.434   5.203  0.1730 -0.4069  0.1279
   47MOL0     H 6343   3.228   6.295   5.404 -0.5724 -1.0050 -0.9701
   47MOL0     H 6344   3.329   6.435   5.387 -0.3938 -1.0432  1.3945
   47MOL0     H 6345   3.151   6.445   5.356  0.7024  0.8454  1.0723
   48MOL0     O 6346   5.117   1.177   9.239  0.0515 -0.1055 -0.4384
   48MOL0     C 6347   5.031   1.157   9.326  0.1168  0.9751  0.0881
   48MOL0     O 6348   5.041   1.194   9.454  0.3366 -0.0882  0.5547
   48MOL0     C 6349   5.161   1.191   9.524  0.4742  0.1364  0.7390
   48MOL0     C 6350   5.286   1.157   9.476 -0.1666  0.1440 -0.0120
   48MOL0     C 6351   5.381   1.138   9.571 -0.4570 -0.6536 -1.0315
   48MOL0     C 6352   5.371   1.161   9.706  0.2488 -0.0199 -0.9540
   48MOL0     O 6353   5.470   1.141   9.801  0.2199 -0.8962 -0.5078
   48MOL0     C 6354   5.603   1.125   9.765 -0.0087  0.2925 -0.1194
   48MOL0     C 6355   5.634   0.978   9.723  0.1321 -0.6777  0.4931
   48MOL0     C 6356   5.786   0.949   9.713 -0.1445  0.3893  0.0754
   48MOL0     C 6357   5.827   0.800   9.694  0.2810  0.3236 -0.1644
   48MOL0     C 6358   5.980   0.785   9.694 -0.8840  0.9185 -0.4467
   48MOL0     C 6359   6.033   0.642   9.685 -1.1132 -0.8652 -0.1581
   48MOL0     C 6360   6.193   0.646   9.686  0.7663  0.3910  0.6683
   48MOL0     C 6361   6.244   0.525   9.610 -0.3498  0.6489 -0.1432
   48MOL0     N 6362   6.392   0.541   9.606  1.1077  0.1409  0.1283
   48MOL0     C 6363   6.456   0.613   9.514  0.0199  0.2402  0.0051
   48MOL0     C 6364   6.590   0.586   9.544 -0.5527  0.1077  0.7633
   48MOL0     C 6365   6.696   0.649   9.454 -0.2606  1.1070 -0.0126
   48MOL0     C 6366   6.727   0.802   9.459 -0.1818  0.0719 -0.3944
   48MOL0     C 6367   6.836   0.838   9.562  0.1156  0.8532  0.0169
   48MOL0     C 6368   6.973   0.781   9.513  0.1881  0.1417  0.1105
   48MOL0     O 6369   7.016   0.839   9.395  0.1556 -0.0771 -0.1742
   48MOL0     C 6370   7.066   0.970   9.395 -0.5745  0.2376 -0.5055
   48MOL0     C 6371   6.991   1.072   9.338  0.0899 -0.7487 -0.3757
   48MOL0     C 6372   7.034   1.208   9.330  0.2789 -0.7416  0.0457
   48MOL0     C 6373   7.152   1.240   9.384 -0.1168 -0.5231  0.1787
   48MOL0     C 6374   7.209   1.381   9.373 -0.6705  0.5979 -0.3183
   48MOL0     O 6375   7.337   1.401   9.429  0.2383  0.2075  0.8279
   48MOL0     C 6376   7.394   1.527   9.422 -0.0374  0.2861  0.1511
   48MOL0     C 6377   7.343   1.633   9.504 -0.3555 -1.2339 -0.0798
   48MOL0     C 6378   7.406   1.759   9.508 -0.3689  0.5207 -0.2889
   48MOL0     C 6379   7.531   1.765   9.454  0.3002  0.0513  1.1925
   48MOL0     O 6380   7.602   1.881   9.470 -1.2933 -0.7997 -0.2029
   48MOL0     C 6381   7.669   1.890   9.595 -0.1411 -0.5190  0.3795
   48MOL0     C 6382   7.710   2.037   9.614 -0.0258  0.1568  0.5379
   48MOL0     C 6383   7.830   2.047   9.715  0.2450 -0.3641 -0.1832
   48MOL0     C 6384   7.912   2.171   9.705 -0.9020 -0.2430 -0.2506
   48MOL0     C 6385   8.037   2.171   9.802  0.0413 -0.3758 -0.0417
   48MOL0     C 6386   8.003   2.147   9.951 -0.5735  0.7115 -0.2119
   48MOL0     C 6387   8.097   2.224  10.055 -0.1221  0.1696 -0.1794
   48MOL0     C 6388   8.025   2.237  10.188  0.4430  0.2400 -0.4681
   48MOL0    Cl 6389   8.112   2.307  10.327 -0.0830 -0.1892  0.0587
   48MOL0     C 6390   7.588   1.655   9.379 -0.3096 -0.0614 -0.2809
   48MOL0     C 6391   7.521   1.534   9.372 -0.4804  0.6232 -0.4196
   48MOL0     O 6392   7.145   1.468   9.322 -0.0783 -0.0617  0.8293
   48MOL0     C 6393   7.218   1.137   9.458  0.3073  0.0839 -0.4511
   48MOL0     C 6394   7.181   1.003   9.457 -0.9439 -0.2010  0.8655
   48MOL0     N 6395   6.604   0.491   9.642  0.3839  1.0144 -0.5952
   48MOL0     N 6396   6.477   0.460   9.676  0.2002  0.1600  0.0022
   48MOL0     C 6397   5.249   1.200   9.754  0.0047 -0.6156  0.4178
   48MOL0     C 6398   5.139   1.219   9.661 -0.5215 -0.5585 -0.7863
   48MOL0     C 6399   4.900   1.107   9.282  0.3358  0.6201 -0.2384
   48MOL0     C 6400   4.820   1.051   9.383 -0.2974  0.4704 -0.0989
   48MOL0     C 6401   4.694   0.994   9.350 -0.2508 -0.9032 -0.0858
   48MOL0     C 6402   4.641   0.993   9.226 -0.2175 -0.6039  0.6292
   48MOL0     O 6403   4.525   0.944   9.192 -0.1718 -0.6420  0.5954
   48MOL0     C 6404   4.459   0.855   9.286 -0.3851 -0.4562  0.6589
   48MOL0     C 6405   4.327   0.818   9.214 -0.3251 -0.0346 -0.4142
   48MOL0     C 6406   4.205   0.911   9.247 -1.0470 -0.1291 -0.2122
   48MOL0     C 6407   4.075   0.861   9.205  0.1691 -0.4793  0.6950
   48MOL0     C 6408   3.980   0.973   9.204  0.8342  0.2678 -0.0390
   48MOL0     C 6409   3.908   1.070   9.210  0.2905  0.0111  0.0231
   48MOL0     C 6410   4.727   1.043   9.126 -0.5220 -0.8467 -1.1662
   48MOL0     C 6411   4.856   1.095   9.146  0.3824 -0.0943 -0.8436
   48MOL0     C 6412   4.940   1.132   9.026 -0.3081  0.3843 -0.8543
   48MOL0     H 6413   5.313   1.125   9.376  3.1677  0.6537  0.6176
   48MOL0     H 6414   5.478   1.109   9.532  0.3416 -0.9537  1.0379
   48MOL0     H 6415   5.637   1.190   9.684 -1.9618  1.5807  0.0283
   48MOL0     H 6416   5.668   1.148   9.850 -1.5364  0.5128  1.0215
   48MOL0     H 6417   5.595   0.951   9.625  1.7411 -0.2804 -0.3023
   48MOL0     H 6418   5.605   0.916   9.808 -1.1109 -0.1286  0.4796
   48MOL0     H 6419   5.838   0.990   9.800  2.3990  0.2603 -1.2870
   48MOL0     H 6420   5.826   0.999   9.624  0.2257  1.2398  0.7120
   48MOL0     H 6421   5.789   0.739   9.776 -1.1401 -1.2560 -1.8853
   48MOL0     H 6422   5.788   0.756   9.601  2.2449 -0.6783 -0.5849
   48MOL0     H 6423   6.028   0.825   9.604  0.0603  1.4270  0.2668
   48MOL0     H 6424   6.006   0.833   9.789  0.5478 -1.1080  0.2447
   48MOL0     H 6425   5.994   0.576   9.763 -0.7556 -0.3875  0.4389
   48MOL0     H 6426   6.003   0.611   9.585 -0.8222 -0.3258 -0.4176
   48MOL0     H 6427   6.244   0.656   9.782  2.7853  3.7103 -0.5744
   48MOL0     H 6428   6.231   0.729   9.625  0.2466  2.5324  3.0582
   48MOL0     H 6429   6.224   0.437   9.671 -0.8284  0.7236 -0.1890
   48MOL0     H 6430   6.202   0.522   9.509 -1.2697  2.2970  0.1545
   48MOL0     H 6431   6.429   0.681   9.435  0.1123  1.7014  1.1864
   48MOL0     H 6432   6.784   0.584   9.458  0.0801  1.4570 -1.3216
   48MOL0     H 6433   6.667   0.624   9.351 -0.7705 -0.4713  0.4920
   48MOL0     H 6434   6.748   0.841   9.358 -0.1406 -0.3102 -0.5363
   48MOL0     H 6435   6.640   0.866   9.473 -0.6223 -0.2058 -1.6702
   48MOL0     H 6436   6.803   0.787   9.653 -2.4579  2.3217  0.0136
   48MOL0     H 6437   6.839   0.945   9.585 -0.3704  0.7641  0.5301
   48MOL0     H 6438   6.964   0.672   9.501 -1.9107  0.0885  1.6515
   48MOL0     H 6439   7.043   0.808   9.592  0.5545  3.1565 -1.1184
   48MOL0     H 6440   6.896   1.050   9.291 -1.1576  2.6040  0.2996
   48MOL0     H 6441   6.967   1.282   9.288 -0.6326 -0.6729  1.5169
   48MOL0     H 6442   7.252   1.608   9.558  1.0311 -1.5703  2.2379
   48MOL0     H 6443   7.370   1.847   9.561 -0.3614 -0.0740  0.7411
   48MOL0     H 6444   7.603   1.881   9.682  0.1229 -1.1803  0.5129
   48MOL0     H 6445   7.761   1.831   9.596  0.0946 -0.1996  2.7289
   48MOL0     H 6446   7.746   2.077   9.519  1.3928  0.5189  1.1989
   48MOL0     H 6447   7.626   2.101   9.645 -0.3950 -0.4928  0.8994
   48MOL0     H 6448   7.800   2.031   9.819  1.0286 -1.1924 -0.0766
   48MOL0     H 6449   7.894   1.960   9.699 -1.2876 -2.0163  2.0215
   48MOL0     H 6450   7.854   2.260   9.727  1.3698  1.2530 -0.0238
   48MOL0     H 6451   7.935   2.176   9.598  0.5965 -0.7505  0.0161
   48MOL0     H 6452   8.093   2.265   9.800 -1.6471  0.6707 -1.6335
   48MOL0     H 6453   8.108   2.093   9.775 -1.6821 -3.6626  3.8027
   48MOL0     H 6454   7.897   2.161   9.971 -0.7968  1.9281 -2.0049
   48MOL0     H 6455   8.023   2.039   9.963 -0.8453  0.1253 -3.9122
   48MOL0     H 6456   8.127   2.318  10.010 -0.2666 -0.5436 -1.8418
   48MOL0     H 6457   8.184   2.162  10.079 -1.5312 -1.4046  1.2016
   48MOL0     H 6458   7.937   2.298  10.168  1.2818  1.6854  0.0531
   48MOL0     H 6459   7.991   2.138  10.221  2.0036 -0.7697 -1.7492
   48MOL0     H 6460   7.694   1.655   9.357  0.2333  0.2400  2.0994
   48MOL0     H 6461   7.578   1.445   9.346  0.9462  0.8800  1.5461
   48MOL0     H 6462   7.309   1.151   9.516  1.8113 -0.8869 -2.4322
   48MOL0     H 6463   7.239   0.920   9.496 -0.9170 -0.0274  1.2000
   48MOL0     H 6464   5.229   1.218   9.859  1.9156  2.4592  0.3720
   48MOL0     H 6465   5.037   1.242   9.692 -1.2255 -4.2158  0.1188
   48MOL0     H 6466   4.859   1.039   9.483 -0.1592 -0.3289 -0.2434
   48MOL0     H 6467   4.646   0.950   9.436  0.0435 -0.0171  0.5563
   48MOL0     H 6468   4.434   0.899   9.383 -1.0341  1.4847 -0.3267
   48MOL0     H 6469   4.514   0.762   9.302 -0.9016 -0.6416  1.4297
   48MOL0     H 6470   4.295   0.721   9.255  0.8815 -0.9385 -1.5190
   48MOL0     H 6471   4.345   0.811   9.107  0.9921 -2.2702 -0.1196
   48MOL0     H 6472   4.241   1.006   9.207  2.1543 -1.5083 -0.8913
   48MOL0     H 6473   4.209   0.928   9.355 -2.2574 -1.3699  0.0505
   48MOL0     H 6474   4.084   0.816   9.105  0.0957 -0.6184  0.7495
   48MOL0     H 6475   4.032   0.780   9.265  2.0068 -1.3578  0.9064
   48MOL0     H 6476   3.851   1.158   9.230  0.2323 -0.2971  1.2305
   48MOL0     H 6477   4.698   1.035   9.022 -0.8896 -0.6932 -1.0782
   48MOL0     H 6478   5.035   1.079   9.016  0.0468  0.9492 -0.4895
   48MOL0     H 6479   4.879   1.127   8.935 -1.0692 -1.9733 -0.2955
   48MOL0     H 6480   4.960   1.237   9.045  0.5965 -0.0712  0.9047
   49MOL0     O 6481   8.000   0.475   6.967 -0.1852 -0.2236 -0.7784
   49MOL0     C 6482   7.942   0.367   6.975  0.4652 -0.5851 -0.1884
   49MOL0     O 6483   7.991   0.252   7.032 -0.0491 -0.3720 -0.4714
   49MOL0     C 6484   8.116   0.271   7.094  0.0355 -0.3239 -1.1908
   49MOL0     C 6485   8.218   0.174   7.084  1.1474  0.1921  0.2961
   49MOL0     C 6486   8.342   0.183   7.146  0.0081 -0.2160  0.5106
   49MOL0     C 6487   8.362   0.283   7.241  0.0361 -0.1115  1.1098
   49MOL0     O 6488   8.490   0.287   7.298  0.3746  0.0866 -0.1009
   49MOL0     C 6489   8.507   0.358   7.422  0.1241 -0.2178 -0.8466
   49MOL0     C 6490   8.621   0.314   7.506 -1.0036 -0.6955  0.7956
   49MOL0     C 6491   8.745   0.398   7.468  0.1287 -0.5902  0.1383
   49MOL0     C 6492   8.870   0.342   7.543  0.4125 -0.8400 -0.3054
   49MOL0     C 6493   8.999   0.426   7.511 -0.1137  0.3952 -0.0701
   49MOL0     C 6494   9.114   0.387   7.614 -0.0019  0.3237  0.0520
   49MOL0     C 6495   9.261   0.409   7.564  0.1976 -1.0615  0.1514
   49MOL0     C 6496   9.352   0.371   7.682  0.6843  0.7415  0.4875
   49MOL0     N 6497   9.498   0.363   7.646  0.1386 -0.1491 -0.4918
   49MOL0     C 6498   9.554   0.326   7.528 -0.0458  0.6140  0.0360
   49MOL0     C 6499   9.687   0.351   7.532 -0.2764  0.2721  1.0467
   49MOL0     C 6500   9.794   0.330   7.416  0.6979 -0.2573 -0.0307
   49MOL0     C 6501   9.903   0.430   7.418 -0.3555 -1.0149  0.1580
   49MOL0     C 6502   9.998   0.429   7.287  0.0370  0.7885  0.0300
   49MOL0     C 6503  10.098   0.539   7.299 -0.1161  0.6345  0.4770
   49MOL0     O 6504  10.141   0.590   7.168  0.0070  0.2022 -0.3358
   49MOL0     C 6505  10.259   0.551   7.101  0.3445  0.0297 -0.4036
   49MOL0     C 6506  10.358   0.651   7.074  0.8971  0.2175  1.2221
   49MOL0     C 6507  10.469   0.617   7.002  0.2176 -0.1853 -0.6318
   49MOL0     C 6508  10.495   0.482   6.970 -0.4723  0.0360 -0.2330
   49MOL0     C 6509  10.621   0.451   6.905 -0.3443 -0.4691  0.4700
   49MOL0     O 6510  10.712   0.552   6.892 -1.2619  0.6871  0.5792
   49MOL0     C 6511  10.836   0.522   6.836  0.1856 -0.0910 -0.7548
   49MOL0     C 6512  10.873   0.569   6.708  0.8544 -0.3412 -0.1823
   49MOL0     C 6513  11.012   0.561   6.672  0.5803  0.6839 -0.0267
   49MOL0     C 6514  11.103   0.507   6.751 -0.8739  0.3917  0.2704
   49MOL0     O 6515  11.230   0.513   6.714  0.4788  0.3606 -0.4256
   49MOL0     C 6516  11.271   0.435   6.602  0.3471  0.5031 -0.3154
   49MOL0     C 6517  11.425   0.430   6.599  0.5494  0.9286 -0.4193
   49MOL0     C 6518  11.483   0.344   6.704 -0.0429  0.0708 -0.5821
   49MOL0     C 6519  11.631   0.343   6.692 -0.3088  0.3354 -0.3400
   49MOL0     C 6520  11.702   0.248   6.796  0.4174 -0.6997  0.5716
   49MOL0     C 6521  11.856   0.245   6.794 -0.0141  0.4431  0.7787
   49MOL0     C 6522  11.914   0.196   6.662  0.8346  0.3117 -0.4140
   49MOL0     C 6523  11.852   0.053   6.637 -0.4531 -0.4897  0.6021
   49MOL0    Cl 6524  11.925  -0.037   6.492  0.1365 -0.3719 -0.5372
   49MOL0     C 6525  11.072   0.453   6.875  0.4416 -0.5292  0.1430
   49MOL0     C 6526  10.937   0.458   6.919 -0.2261  0.5638 -0.3349
   49MOL0     O 6527  10.638   0.333   6.882  0.4131 -0.2178  1.1434
   49MOL0     C 6528  10.398   0.379   7.000 -0.6054  0.2138  0.1159
   49MOL0     C 6529  10.275   0.418   7.065 -0.0073 -0.3431 -0.5350
   49MOL0     N 6530   9.713   0.404   7.660 -0.4963  0.1542  0.0499
   49MOL0     N 6531   9.599   0.409   7.723  0.2121  0.5824  0.4268
   49MOL0     C 6532   8.266   0.385   7.257  0.1137 -0.2826 -0.6209
   49MOL0     C 6533   8.146   0.390   7.185 -0.5285 -0.0615 -0.4099
   49MOL0     C 6534   7.809   0.352   6.899  0.0895  0.5046 -0.0496
   49MOL0     C 6535   7.771   0.212   6.882 -0.5225 -0.7275 -0.7405
   49MOL0     C 6536   7.655   0.188   6.806  0.5018  0.2794  0.2677
   49MOL0     C 6537   7.570   0.289   6.752 -0.3047 -0.0399  0.0396
   49MOL0     O 6538   7.449   0.275   6.685  0.2740  0.0126 -0.8610
   49MOL0     C 6539   7.361   0.162   6.721 -0.6065 -0.7286 -0.4441
   49MOL0     C 6540   7.335   0.161   6.877  0.4230 -0.0094  0.7277
   49MOL0     C 6541   7.266   0.280   6.933 -0.4913 -1.0383  0.3220
   49MOL0     C 6542   7.207   0.265   7.072 -0.3109 -0.4423  0.0418
   49MOL0     C 6543   7.075   0.205   7.074  0.2854  0.3544 -0.4508
   49MOL0     C 6544   6.964   0.155   7.083  0.2891  0.2515 -0.0314
   49MOL0     C 6545   7.608   0.422   6.776  0.2790  0.1024 -0.5539
   49MOL0     C 6546   7.731   0.453   6.845  0.8122  0.6489  0.7077
   49MOL0     C 6547   7.764   0.597   6.856 -0.5790  0.3494 -0.4409
   49MOL0     H 6548   8.198   0.087   7.021 -0.3428  0.9897 -0.3788
   49MOL0     H 6549   8.416   0.109   7.116 -0.8626  0.1274 -2.9596
   49MOL0     H 6550   8.511   0.466   7.407  0.2721  0.5728  3.5485
   49MOL0     H 6551   8.415   0.344   7.479  0.5886  1.9387  0.5557
   49MOL0     H 6552   8.643   0.210   7.482 -1.4354 -0.4089 -0.9666
   49MOL0     H 6553   8.592   0.331   7.610 -1.5703  0.4947  0.4621
   49MOL0     H 6554   8.732   0.500   7.505 -1.7193 -0.6256 -0.3044
   49MOL0     H 6555   8.762   0.393   7.360  1.2936 -1.2273  0.3295
   49MOL0     H 6556   8.849   0.348   7.650  3.4615 -1.0702  0.4190
   49MOL0     H 6557   8.885   0.239   7.509  3.4846 -0.1463 -1.4407
   49MOL0     H 6558   9.030   0.414   7.407 -0.8278  5.3370 -1.1346
   49MOL0     H 6559   8.970   0.529   7.535 -1.7050 -0.4298  1.6873
   49MOL0     H 6560   9.094   0.441   7.707  1.4896  1.4498 -0.2377
   49MOL0     H 6561   9.096   0.282   7.641  1.5658  0.1034  0.3445
   49MOL0     H 6562   9.277   0.513   7.533  0.3070 -1.0712  0.1754
   49MOL0     H 6563   9.291   0.346   7.480  1.0034  1.9571 -1.9871
   49MOL0     H 6564   9.350   0.441   7.766  2.8452  2.1097 -0.5154
   49MOL0     H 6565   9.314   0.277   7.723 -1.0553  2.4689  3.1701
   49MOL0     H 6566   9.504   0.277   7.445  0.7498 -3.6249  1.7887
   49MOL0     H 6567   9.824   0.225   7.423 -0.9289 -0.6882  0.8807
   49MOL0     H 6568   9.739   0.336   7.321 -1.1182  0.8497  1.0418
   49MOL0     H 6569   9.863   0.531   7.413  1.3720 -0.3115 -0.3423
   49MOL0     H 6570   9.961   0.421   7.510  1.1965 -1.6535 -0.8262
   49MOL0     H 6571   9.952   0.458   7.191  4.1781 -0.2167 -2.4978
   49MOL0     H 6572  10.051   0.335   7.271 -0.2907  0.4958  0.6153
   49MOL0     H 6573  10.183   0.500   7.356 -2.3385  0.8942  4.3041
   49MOL0     H 6574  10.058   0.619   7.361  0.9738 -0.2783  2.4435
   49MOL0     H 6575  10.338   0.755   7.098  1.6943  1.0450 -1.3644
   49MOL0     H 6576  10.542   0.697   6.991  0.3183  0.5688  3.6023
   49MOL0     H 6577  10.809   0.629   6.645  1.7835  1.7715  0.7919
   49MOL0     H 6578  11.039   0.599   6.574 -1.7354 -1.9946 -1.8309
   49MOL0     H 6579  11.242   0.330   6.612  0.7402  0.0058 -3.3315
   49MOL0     H 6580  11.223   0.477   6.514  0.1881 -2.2111 -1.6241
   49MOL0     H 6581  11.455   0.386   6.503 -0.1517 -0.6949  0.0721
   49MOL0     H 6582  11.460   0.532   6.616 -1.4534  1.8945 -1.7346
   49MOL0     H 6583  11.452   0.371   6.805 -2.1424 -0.9132 -0.9003
   49MOL0     H 6584  11.442   0.243   6.697  0.6996 -0.1480 -2.2949
   49MOL0     H 6585  11.671   0.444   6.704 -1.1371  0.6759 -0.3135
   49MOL0     H 6586  11.662   0.325   6.589  0.2842  3.9377 -0.9275
   49MOL0     H 6587  11.660   0.147   6.787  2.2014 -1.3860 -0.8408
   49MOL0     H 6588  11.668   0.293   6.890  0.0796 -2.4460  1.3171
   49MOL0     H 6589  11.898   0.336   6.836  2.0552 -0.9923  1.9660
   49MOL0     H 6590  11.892   0.178   6.872  3.0807  0.7049 -0.2807
   49MOL0     H 6591  12.022   0.179   6.668  0.6892 -0.7243 -0.4372
   49MOL0     H 6592  11.900   0.263   6.577  1.0543  0.4192 -0.3678
   49MOL0     H 6593  11.856  -0.004   6.730 -0.5949  0.0698  0.9487
   49MOL0     H 6594  11.746   0.073   6.620 -0.2476  1.4108  1.3859
   49MOL0     H 6595  11.157   0.414   6.930 -0.1459 -0.2188  1.3042
   49MOL0     H 6596  10.910   0.427   7.020  0.1818 -2.9258 -1.1846
   49MOL0     H 6597  10.419   0.275   6.978 -0.5921 -0.1776  1.8277
   49MOL0     H 6598  10.193   0.348   7.065 -1.8731  1.7145 -0.7811
   49MOL0     H 6599   8.279   0.478   7.312 -2.8368  0.4036 -0.9405
   49MOL0     H 6600   8.076   0.470   7.207 -0.5984  0.2081 -1.5647
   49MOL0     H 6601   7.822   0.130   6.931  0.9852 -0.1435 -1.2676
   49MOL0     H 6602   7.621   0.088   6.782 -0.7433  0.6049  0.5945
   49MOL0     H 6603   7.393   0.061   6.695  1.5970 -0.2511  0.1678
   49MOL0     H 6604   7.266   0.187   6.675 -0.5104 -0.9962 -0.7909
   49MOL0     H 6605   7.421   0.132   6.937  0.6581  1.3726  1.0880
   49MOL0     H 6606   7.269   0.074   6.890  1.4503 -0.6813  1.5765
   49MOL0     H 6607   7.181   0.314   6.873 -2.8745 -4.2479  1.5432
   49MOL0     H 6608   7.341   0.359   6.930 -0.9307 -0.6369 -0.7066
   49MOL0     H 6609   7.273   0.212   7.141 -1.7293 -0.2896  1.5920
   49MOL0     H 6610   7.201   0.364   7.119  1.6115 -0.9241  1.4715
   49MOL0     H 6611   6.868   0.107   7.082  0.9416 -1.1629 -1.8239
   49MOL0     H 6612   7.542   0.496   6.732 -1.4591 -0.4555  1.0273
   49MOL0     H 6613   7.861   0.600   6.806 -0.7865 -2.5258 -1.1448
   49MOL0     H 6614   7.687   0.666   6.819  0.0435  1.8620  0.9250
   49MOL0     H 6615   7.781   0.621   6.962  0.5966  0.0481 -0.5445
   50MOL0     O 6616   9.530   4.170  10.893  0.0796 -0.4958 -0.4474
   50MOL0     C 6617   9.517   4.275  10.955  0.2401  0.0185  0.3085
   50MOL0     O 6618   9.622   4.346  11.004 -0.1955 -0.6072  0.0812
   50MOL0     C 6619   9.751   4.293  10.981  0.4074 -0.8412 -0.0373
   50MOL0     C 6620   9.827   4.346  10.879  1.0542  0.4452 -0.7332
   50MOL0     C 6621   9.951   4.293  10.851 -0.1798 -0.5309 -0.3600
   50MOL0     C 6622  10.001   4.196  10.941  0.1462 -0.9325 -0.2336
   50MOL0     O 6623  10.122   4.151  10.908  0.3239  1.0783  0.2011
   50MOL0     C 6624  10.219   4.152  11.012 -0.2228 -0.0113  0.2441
   50MOL0     C 6625  10.306   4.276  10.993 -0.1574  0.5978 -0.6756
   50MOL0     C 6626  10.355   4.311  10.850 -0.4554  0.1186 -0.3024
   50MOL0     C 6627  10.425   4.454  10.872 -0.1094  0.0833  1.0935
   50MOL0     C 6628  10.470   4.512  10.741  0.4680 -0.4391  0.0510
   50MOL0     C 6629  10.519   4.664  10.767 -0.6715 -0.0542 -0.1871
   50MOL0     C 6630  10.417   4.748  10.696  0.3330 -0.0627 -0.5921
   50MOL0     C 6631  10.438   4.888  10.752 -0.7652 -0.0930  0.8225
   50MOL0     N 6632  10.333   4.988  10.725  0.3555 -0.5375 -0.3623
   50MOL0     C 6633  10.209   4.965  10.669 -0.6914  0.3382 -0.2373
   50MOL0     C 6634  10.136   5.080  10.691  0.8886  0.4593 -0.5204
   50MOL0     C 6635   9.990   5.096  10.663  0.8443  0.5110  1.1109
   50MOL0     C 6636   9.907   5.131  10.779  0.4424 -0.4723 -0.5491
   50MOL0     C 6637   9.771   5.180  10.733 -0.7193 -0.4115 -0.0559
   50MOL0     C 6638   9.695   5.237  10.850 -0.7206  0.4738 -0.2302
   50MOL0     O 6639   9.565   5.249  10.808  0.3945 -0.2914 -0.6167
   50MOL0     C 6640   9.466   5.310  10.894  0.7381 -0.0257  0.6082
   50MOL0     C 6641   9.487   5.337  11.028  0.1474  0.5973 -0.0936
   50MOL0     C 6642   9.400   5.393  11.108  0.5308 -0.7267 -0.1511
   50MOL0     C 6643   9.277   5.437  11.057 -0.4749  0.9536  1.1037
   50MOL0     C 6644   9.181   5.490  11.146 -0.6302  0.2034 -0.5813
   50MOL0     O 6645   9.206   5.476  11.283  0.2866 -0.7471 -1.0009
   50MOL0     C 6646   9.094   5.505  11.369 -0.1658 -0.5181  0.6789
   50MOL0     C 6647   9.000   5.414  11.418  0.2866  0.7852  0.4365
   50MOL0     C 6648   8.900   5.455  11.501 -0.3033 -0.6836 -0.2270
   50MOL0     C 6649   8.884   5.581  11.546  0.1630 -1.1238 -0.1432
   50MOL0     O 6650   8.783   5.622  11.634  0.0844 -0.3029 -0.2605
   50MOL0     C 6651   8.714   5.739  11.591 -0.4272 -0.3987  0.7960
   50MOL0     C 6652   8.585   5.763  11.670 -0.3120 -0.0565  0.2849
   50MOL0     C 6653   8.515   5.887  11.621 -0.1498 -0.5150  0.1236
   50MOL0     C 6654   8.386   5.920  11.695 -0.4483 -0.0653 -0.7318
   50MOL0     C 6655   8.342   6.066  11.660 -0.1149 -0.0586  0.8412
   50MOL0     C 6656   8.337   6.097  11.506  0.2231 -0.4789  0.2039
   50MOL0     C 6657   8.250   6.216  11.487  0.3133  0.0839  0.0540
   50MOL0     C 6658   8.245   6.269  11.336  0.6701 -0.1178  0.3397
   50MOL0    Cl 6659   8.386   6.374  11.320 -0.0756  0.1672  0.1034
   50MOL0     C 6660   8.971   5.680  11.504 -0.9271  0.6444 -0.7507
   50MOL0     C 6661   9.072   5.642  11.419 -0.1297 -0.0175  0.0010
   50MOL0     O 6662   9.074   5.539  11.100 -0.6425  0.1427  0.0102
   50MOL0     C 6663   9.255   5.432  10.914  0.9990 -0.2891 -1.7411
   50MOL0     C 6664   9.348   5.366  10.835  0.1036  1.2321  0.2125
   50MOL0     N 6665  10.208   5.173  10.758 -0.8410 -0.2167 -0.2070
   50MOL0     N 6666  10.328   5.123  10.764 -0.0740  0.4655  0.2185
   50MOL0     C 6667   9.920   4.145  11.039  0.5048  0.5804  0.5479
   50MOL0     C 6668   9.793   4.191  11.056 -0.5603 -0.3378  0.1896
   50MOL0     C 6669   9.377   4.306  10.979 -0.0790 -0.1700 -0.4713
   50MOL0     C 6670   9.289   4.214  11.033 -0.3943 -0.2132  0.3786
   50MOL0     C 6671   9.158   4.245  11.077  0.2247  0.1839  0.2080
   50MOL0     C 6672   9.111   4.376  11.079 -0.6265 -0.6563  0.6524
   50MOL0     O 6673   8.982   4.415  11.122 -0.3619  0.3649  0.9666
   50MOL0     C 6674   8.888   4.331  11.181  0.4616 -0.1881  0.0145
   50MOL0     C 6675   8.763   4.398  11.221  0.1949  0.4834  0.9175
   50MOL0     C 6676   8.676   4.439  11.092 -0.7018  0.4271  0.7220
   50MOL0     C 6677   8.632   4.583  11.121  1.3515  0.7836  0.4275
   50MOL0     C 6678   8.737   4.683  11.102  0.1992  0.7553 -0.3090
   50MOL0     C 6679   8.834   4.757  11.093 -0.3917  0.2870 -0.0287
   50MOL0     C 6680   9.196   4.476  11.028  0.2661 -0.9541 -1.2312
   50MOL0     C 6681   9.322   4.440  10.980 -0.0344  0.4461  0.0041
   50MOL0     C 6682   9.405   4.544  10.918 -0.3962 -0.1154 -0.3598
   50MOL0     H 6683   9.794   4.426  10.813  1.8722  0.9086 -0.5924
   50MOL0     H 6684  10.006   4.327  10.764  0.7246 -1.6927 -0.2786
   50MOL0     H 6685  10.186   4.141  11.116 -1.0980 -1.2764 -0.1486
   50MOL0     H 6686  10.282   4.065  10.992  0.6115 -0.5336  4.2353
   50MOL0     H 6687  10.392   4.259  11.058 -0.6255 -2.8710 -0.7480
   50MOL0     H 6688  10.253   4.361  11.036 -2.9121 -0.8263 -1.0351
   50MOL0     H 6689  10.273   4.320  10.778 -0.1525 -0.0886 -0.6743
   50MOL0     H 6690  10.424   4.236  10.811 -1.5120 -0.3058 -1.4035
   50MOL0     H 6691  10.355   4.524  10.920 -0.7024  1.3265 -1.4344
   50MOL0     H 6692  10.518   4.426  10.923  0.4885 -2.0226 -0.9999
   50MOL0     H 6693  10.553   4.453  10.700 -2.0273 -1.0599 -4.7907
   50MOL0     H 6694  10.384   4.514  10.674  0.1398 -1.1082  0.4386
   50MOL0     H 6695  10.516   4.675  10.876  2.0711 -0.8510  0.0261
   50MOL0     H 6696  10.622   4.681  10.734 -0.3074  0.9813  1.3769
   50MOL0     H 6697  10.315   4.725  10.727  1.1164  1.5808  3.9415
   50MOL0     H 6698  10.420   4.754  10.587  1.3215  3.2597 -0.4912
   50MOL0     H 6699  10.467   4.890  10.857  4.9669  2.4146 -0.4158
   50MOL0     H 6700  10.524   4.935  10.705 -2.0996  0.7105 -0.9538
   50MOL0     H 6701  10.179   4.874  10.619  0.3621 -0.3245  0.2967
   50MOL0     H 6702   9.971   5.165  10.580  0.1795 -1.2877 -0.2910
   50MOL0     H 6703   9.958   4.999  10.624 -0.2787  1.7088 -1.1214
   50MOL0     H 6704   9.915   5.050  10.853  0.6548  1.2758  1.4438
   50MOL0     H 6705   9.956   5.216  10.828  0.1624  0.8139 -2.4158
   50MOL0     H 6706   9.720   5.100  10.679  2.8374 -0.1824 -4.3846
   50MOL0     H 6707   9.770   5.252  10.651 -0.4174  0.3909  0.6268
   50MOL0     H 6708   9.732   5.332  10.892 -0.8105 -0.3740  1.9252
   50MOL0     H 6709   9.710   5.163  10.929  2.4251  1.4302  0.1986
   50MOL0     H 6710   9.566   5.281  11.076 -1.5930 -0.8753  1.1779
   50MOL0     H 6711   9.409   5.388  11.216 -2.2040  0.1138  0.1998
   50MOL0     H 6712   9.003   5.307  11.396 -1.3743  0.5643  1.1452
   50MOL0     H 6713   8.826   5.384  11.535 -0.8708  0.1027  0.1947
   50MOL0     H 6714   8.775   5.828  11.611  0.3113 -0.8681  0.6708
   50MOL0     H 6715   8.697   5.735  11.483 -1.3839  2.6119  0.7277
   50MOL0     H 6716   8.525   5.673  11.649  3.2412 -1.8428 -3.8024
   50MOL0     H 6717   8.606   5.766  11.777 -0.0055  0.1872  0.2180
   50MOL0     H 6718   8.581   5.973  11.637  0.5735 -1.0075 -0.1457
   50MOL0     H 6719   8.486   5.877  11.516  1.3904 -2.7440 -0.1391
   50MOL0     H 6720   8.412   5.924  11.802  0.5549  3.3152 -0.9936
   50MOL0     H 6721   8.310   5.843  11.678 -1.2157  0.2481  1.0255
   50MOL0     H 6722   8.399   6.141  11.715  0.1674 -0.0897  0.5890
   50MOL0     H 6723   8.242   6.078  11.703 -0.0718  0.0580  0.9110
   50MOL0     H 6724   8.438   6.131  11.478 -0.9580  3.1230 -0.2664
   50MOL0     H 6725   8.319   6.017  11.435 -1.2695 -0.3036  0.3540
   50MOL0     H 6726   8.285   6.288  11.561 -0.4330 -0.3628  0.8579
   50MOL0     H 6727   8.145   6.190  11.503  0.2499  0.5894  0.4756
   50MOL0     H 6728   8.241   6.192  11.258 -2.0940  0.8910 -0.6273
   50MOL0     H 6729   8.166   6.341  11.316 -0.5690 -1.9972 -2.0568
   50MOL0     H 6730   8.972   5.781  11.544  2.3580 -0.8451  3.5748
   50MOL0     H 6731   9.141   5.722  11.396  0.9508 -1.0667 -0.5486
   50MOL0     H 6732   9.174   5.496  10.878  0.2975 -0.6163 -0.7859
   50MOL0     H 6733   9.345   5.347  10.728  2.5855 -1.4409  0.4836
   50MOL0     H 6734   9.963   4.060  11.091 -1.0729 -0.9015 -0.4240
   50MOL0     H 6735   9.734   4.136  11.129 -1.7095 -0.1031 -0.5498
   50MOL0     H 6736   9.320   4.111  11.049  0.2455 -0.0701  0.1045
   50MOL0     H 6737   9.085   4.171  11.109  0.5142 -0.0907  0.2359
   50MOL0     H 6738   8.930   4.299  11.277  0.4129  2.1564  0.8814
   50MOL0     H 6739   8.876   4.242  11.119 -2.3885  1.4788 -2.0231
   50MOL0     H 6740   8.785   4.481  11.289 -0.0243 -0.1758  1.8161
   50MOL0     H 6741   8.703   4.319  11.268  0.5583 -1.5334 -1.7756
   50MOL0     H 6742   8.595   4.365  11.092 -0.4426  0.1025 -0.7014
   50MOL0     H 6743   8.734   4.433  10.999 -1.4090  0.7963  0.2460
   50MOL0     H 6744   8.564   4.603  11.037  0.3039 -4.2668 -0.2792
   50MOL0     H 6745   8.587   4.595  11.220 -0.5573 -2.8950  0.2032
   50MOL0     H 6746   8.927   4.808  11.077  0.3485 -1.4863 -1.8029
   50MOL0     H 6747   9.162   4.579  11.016 -3.0053 -1.3533  2.3808
   50MOL0     H 6748   9.363   4.643  10.936  1.8283  0.4774  2.2798
   50MOL0     H 6749   9.504   4.552  10.964 -1.0814  0.6984  1.0559
   50MOL0     H 6750   9.412   4.526  10.810 -0.5555 -4.0618  0.1325
   51MOL0     O 6751   4.045   9.624   1.662  0.1369 -0.2141  0.0894
   51MOL0     C 6752   4.035   9.522   1.593 -0.1154  0.8159  0.0797
   51MOL0     O 6753   4.129   9.417   1.602  0.2157  0.2439 -0.4039
   51MOL0     C 6754   4.227   9.421   1.693  0.4360  1.0692 -1.0879
   51MOL0     C 6755   4.194   9.425   1.830 -0.5147  0.6161 -0.0837
   51MOL0     C 6756   4.294   9.428   1.930  0.3112 -0.2190  1.0267
   51MOL0     C 6757   4.430   9.420   1.894  0.1458  0.1584  0.8745
   51MOL0     O 6758   4.521   9.390   1.988  0.3961 -0.2932 -0.2839
   51MOL0     C 6759   4.655   9.355   1.956  0.5343  0.3532  0.5492
   51MOL0     C 6760   4.666   9.207   1.929 -0.3390  0.6402 -0.4567
   51MOL0     C 6761   4.818   9.182   1.920  0.4864  0.6653 -0.6278
   51MOL0     C 6762   4.832   9.029   1.928  0.0396  0.2820 -0.2412
   51MOL0     C 6763   4.970   8.985   1.885 -0.0662  0.3772  0.3626
   51MOL0     C 6764   4.983   8.837   1.924 -0.2942 -0.0367  0.0887
   51MOL0     C 6765   5.131   8.806   1.977  0.0798 -0.5158 -0.0920
   51MOL0     C 6766   5.236   8.788   1.862  0.1944 -0.4629  0.8803
   51MOL0     N 6767   5.374   8.770   1.910 -0.2992  0.6046 -0.3460
   51MOL0     C 6768   5.431   8.649   1.926 -0.9593  0.2730 -1.1623
   51MOL0     C 6769   5.556   8.674   1.974  1.2926 -0.8718 -0.5663
   51MOL0     C 6770   5.653   8.561   2.006 -0.3230  0.8436 -0.1830
   51MOL0     C 6771   5.665   8.455   1.899  0.2760  0.9405  0.1909
   51MOL0     C 6772   5.738   8.329   1.942 -0.7805 -0.1875 -0.6196
   51MOL0     C 6773   5.864   8.347   2.024  0.7865 -0.0570 -0.2828
   51MOL0     O 6774   5.916   8.219   2.048 -0.0968 -0.3154  0.1453
   51MOL0     C 6775   6.054   8.215   2.062  0.0855  0.5331  0.8274
   51MOL0     C 6776   6.127   8.123   1.991  0.0373 -0.6518 -0.4012
   51MOL0     C 6777   6.268   8.119   2.014 -0.2984  0.1728  0.0727
   51MOL0     C 6778   6.335   8.198   2.098 -0.4325 -0.8185 -0.1880
   51MOL0     C 6779   6.483   8.193   2.106  0.5088  0.5538  0.0058
   51MOL0     O 6780   6.547   8.096   2.018 -0.2257 -1.1348  0.8097
   51MOL0     C 6781   6.685   8.091   2.013 -0.3516 -0.4451 -0.2493
   51MOL0     C 6782   6.766   8.117   1.902  0.2450 -0.7599  0.4826
   51MOL0     C 6783   6.905   8.081   1.900 -0.0149  0.6721  0.6459
   51MOL0     C 6784   6.963   8.011   2.006 -0.3839  0.3227 -0.3141
   51MOL0     O 6785   7.090   7.963   2.011 -0.2386 -0.4750 -0.9393
   51MOL0     C 6786   7.182   7.996   1.902 -0.5985 -0.2277  0.1167
   51MOL0     C 6787   7.332   7.994   1.943  1.0243  0.1043 -1.2217
   51MOL0     C 6788   7.373   7.878   2.034  0.1056  0.2249 -0.1294
   51MOL0     C 6789   7.347   7.888   2.181  1.0553 -0.6798 -0.0314
   51MOL0     C 6790   7.405   7.768   2.259 -0.6011 -0.3677  0.7602
   51MOL0     C 6791   7.419   7.790   2.403 -0.5217 -0.9259 -0.6919
   51MOL0     C 6792   7.463   7.657   2.460  0.4432 -0.3465  0.3018
   51MOL0     C 6793   7.465   7.668   2.616 -0.1982  0.3419 -0.8711
   51MOL0    Cl 6794   7.587   7.549   2.680 -0.0105  0.1198 -0.4594
   51MOL0     C 6795   6.881   7.992   2.116 -0.2070  0.1106 -0.6301
   51MOL0     C 6796   6.750   8.031   2.124  0.1291 -0.0175  0.1436
   51MOL0     O 6797   6.537   8.273   2.183  0.7678  0.1021  0.0504
   51MOL0     C 6798   6.261   8.287   2.176 -1.1462 -0.9456 -1.1709
   51MOL0     C 6799   6.119   8.293   2.160  0.8779 -0.0634  0.0561
   51MOL0     N 6800   5.572   8.810   1.990  0.3317 -0.5176  0.4636
   51MOL0     N 6801   5.458   8.864   1.962 -0.2173 -0.5938  0.1171
   51MOL0     C 6802   4.454   9.417   1.752 -0.8569  1.0022  0.1940
   51MOL0     C 6803   4.359   9.419   1.655 -0.5573  0.0919 -0.0617
   51MOL0     C 6804   3.922   9.513   1.496  0.8980  0.3883  0.8609
   51MOL0     C 6805   3.933   9.415   1.393 -0.6284 -0.3277  0.0344
   51MOL0     C 6806   3.836   9.417   1.287 -0.2076  0.6698 -0.3431
   51MOL0     C 6807   3.734   9.498   1.282  0.2656 -0.5700 -0.1815
   51MOL0     O 6808   3.641   9.486   1.180  0.4893 -0.1012  0.4076
   51MOL0     C 6809   3.528   9.396   1.206  0.3102  0.2776 -0.4489
   51MOL0     C 6810   3.467   9.331   1.078 -0.2230 -0.0935 -0.7441
   51MOL0     C 6811   3.571   9.226   1.007  0.6143 -0.2360  0.9145
   51MOL0     C 6812   3.598   9.100   1.086  0.0782 -0.3641  0.8870
   51MOL0     C 6813   3.487   9.005   1.073  0.1447 -1.2838  0.5455
   51MOL0     C 6814   3.389   8.940   1.074 -0.7281 -0.5818  0.1192
   51MOL0     C 6815   3.710   9.590   1.389  0.4961 -0.0605  0.3332
   51MOL0     C 6816   3.808   9.597   1.498  0.0429  0.6724  0.1077
   51MOL0     C 6817   3.796   9.707   1.599  0.0572 -0.5229 -0.0083
   51MOL0     H 6818   4.087   9.427   1.847 -1.3706  2.1738 -4.4664
   51MOL0     H 6819   4.264   9.425   2.034  3.1567  1.2475  1.9920
   51MOL0     H 6820   4.690   9.424   1.879  0.9053  1.7482  1.9047
   51MOL0     H 6821   4.715   9.391   2.040  0.9921  1.0868 -0.0840
   51MOL0     H 6822   4.612   9.181   1.839 -2.1035  3.2164 -0.2584
   51MOL0     H 6823   4.622   9.153   2.013  0.5749  0.9411  0.2442
   51MOL0     H 6824   4.869   9.228   2.005 -1.6758  0.2297  1.0046
   51MOL0     H 6825   4.863   9.213   1.825  3.7110 -0.4317  0.4304
   51MOL0     H 6826   4.823   9.003   2.034  2.1040 -1.6377 -0.4839
   51MOL0     H 6827   4.755   8.979   1.869  0.3844  0.8278 -1.1675
   51MOL0     H 6828   4.978   8.996   1.776  0.6892  1.8522  0.5274
   51MOL0     H 6829   5.052   9.049   1.921  0.9735 -0.7280  0.0276
   51MOL0     H 6830   4.915   8.822   2.008 -2.1897  2.9705 -0.7577
   51MOL0     H 6831   4.947   8.769   1.847 -0.3445 -0.2828  0.3265
   51MOL0     H 6832   5.127   8.717   2.041  2.5118 -1.1391 -0.6955
   51MOL0     H 6833   5.162   8.889   2.041 -0.1172 -0.5285  0.0206
   51MOL0     H 6834   5.216   8.696   1.807  3.3401 -0.8504  0.1616
   51MOL0     H 6835   5.230   8.879   1.801  0.4456 -0.2836  1.1248
   51MOL0     H 6836   5.387   8.554   1.898 -1.4632 -0.5506  2.0293
   51MOL0     H 6837   5.749   8.611   2.019 -0.3820  0.7403  0.6540
   51MOL0     H 6838   5.620   8.514   2.099  0.5389 -3.5051 -1.8188
   51MOL0     H 6839   5.564   8.424   1.871  0.4722  1.6454 -1.3704
   51MOL0     H 6840   5.713   8.495   1.810 -0.1123 -1.6464 -1.2723
   51MOL0     H 6841   5.763   8.262   1.859  0.8488  0.4026 -0.6476
   51MOL0     H 6842   5.663   8.273   1.998 -0.8811 -0.4849 -1.0426
   51MOL0     H 6843   5.846   8.399   2.118  1.4162 -0.1069 -0.1311
   51MOL0     H 6844   5.937   8.406   1.967  0.3576  0.3084 -0.4560
   51MOL0     H 6845   6.079   8.046   1.932 -0.3534 -0.4597 -0.3384
   51MOL0     H 6846   6.320   8.056   1.943 -0.5718  0.0687 -0.0392
   51MOL0     H 6847   6.714   8.160   1.817  1.0545  0.7148  0.7104
   51MOL0     H 6848   6.953   8.110   1.807 -1.9565  0.7037 -0.3914
   51MOL0     H 6849   7.175   7.920   1.824  1.5478 -0.3936  0.0179
   51MOL0     H 6850   7.171   8.095   1.858  0.3393  0.2312  0.8574
   51MOL0     H 6851   7.394   7.992   1.852  4.0337  1.3493  0.6520
   51MOL0     H 6852   7.354   8.087   1.995 -1.7400  0.6448 -0.8730
   51MOL0     H 6853   7.328   7.786   1.998  1.0623 -0.5989  0.7100
   51MOL0     H 6854   7.482   7.875   2.021  0.1654 -0.6753  0.4983
   51MOL0     H 6855   7.239   7.887   2.197  1.1051 -3.0765  0.4460
   51MOL0     H 6856   7.380   7.986   2.219 -1.9125  0.1730  0.6330
   51MOL0     H 6857   7.498   7.748   2.205 -2.6597  0.0119 -3.3270
   51MOL0     H 6858   7.342   7.682   2.233 -1.0787  0.1189  0.2337
   51MOL0     H 6859   7.498   7.863   2.424 -0.8440 -0.5751 -0.6926
   51MOL0     H 6860   7.327   7.826   2.450  0.5002 -0.1016  0.7670
   51MOL0     H 6861   7.564   7.635   2.424  1.3540 -0.4980  2.7895
   51MOL0     H 6862   7.396   7.578   2.424 -1.9914  2.6000 -2.2502
   51MOL0     H 6863   7.481   7.770   2.652  0.8425  0.2317 -0.9814
   51MOL0     H 6864   7.374   7.638   2.667  1.4202 -1.8661  0.9508
   51MOL0     H 6865   6.927   7.940   2.199 -1.2252 -1.6568 -1.1243
   51MOL0     H 6866   6.701   7.997   2.215  1.0561  2.6509  1.7655
   51MOL0     H 6867   6.303   8.356   2.248 -2.7542 -0.0256 -1.0751
   51MOL0     H 6868   6.057   8.349   2.230 -1.9058 -0.4574 -1.9236
   51MOL0     H 6869   4.559   9.407   1.723 -1.1733 -1.4431 -0.2767
   51MOL0     H 6870   4.402   9.410   1.555  1.3516 -1.7226  0.8329
   51MOL0     H 6871   4.017   9.346   1.395  0.0276  0.4757  1.6107
   51MOL0     H 6872   3.850   9.336   1.216  1.1398 -0.7572  1.4411
   51MOL0     H 6873   3.443   9.440   1.259  1.1850 -0.1232  1.3774
   51MOL0     H 6874   3.560   9.319   1.277  2.2854  2.9648  1.7600
   51MOL0     H 6875   3.436   9.410   1.009  2.5566  4.5853  2.7092
   51MOL0     H 6876   3.380   9.270   1.103 -0.6076  1.2830  1.5736
   51MOL0     H 6877   3.667   9.278   1.014  0.1033  0.9579 -0.3367
   51MOL0     H 6878   3.538   9.215   0.903  1.4186  1.0020  0.5018
   51MOL0     H 6879   3.686   9.046   1.049 -1.2607 -3.3104  1.6880
   51MOL0     H 6880   3.617   9.131   1.189 -0.0820 -0.9623  1.0989
   51MOL0     H 6881   3.294   8.892   1.085 -1.2885  0.3489 -0.5207
   51MOL0     H 6882   3.622   9.653   1.391  0.3618 -0.2786  1.5428
   51MOL0     H 6883   3.700   9.758   1.584 -0.5001 -0.7419  2.4057
   51MOL0     H 6884   3.789   9.659   1.697  1.4601 -0.2119  0.2550
   51MOL0     H 6885   3.876   9.779   1.580 -1.0934  0.2706 -2.3071
   52MOL0     O 6886   6.000   7.683   0.986 -0.0552  0.4898 -0.4180
   52MOL0     C 6887   6.098   7.749   1.018  0.2444 -0.1723 -0.5920
   52MOL0     O 6888   6.147   7.750   1.146  0.1415 -0.1214  0.8243
   52MOL0     C 6889   6.264   7.822   1.171 -0.2933 -0.4414 -0.3624
   52MOL0     C 6890   6.260   7.961   1.206  0.5458 -0.5832 -0.4017
   52MOL0     C 6891   6.382   8.025   1.246  0.7996 -0.1025  0.2509
   52MOL0     C 6892   6.501   7.950   1.251  0.1258 -0.0096 -0.3774
   52MOL0     O 6893   6.623   7.994   1.296  0.1105 -0.3037 -0.0564
   52MOL0     C 6894   6.611   8.094   1.399  0.8369  0.6365  0.1585
   52MOL0     C 6895   6.743   8.104   1.472  0.0016 -0.7917  1.0023
   52MOL0     C 6896   6.856   8.116   1.370 -0.5787  0.0964 -0.0267
   52MOL0     C 6897   6.984   8.135   1.457 -0.1882 -0.3430  0.1172
   52MOL0     C 6898   7.108   8.167   1.378  0.9173  0.0655  0.3976
   52MOL0     C 6899   7.235   8.188   1.450 -0.2617 -0.8562 -0.8895
   52MOL0     C 6900   7.217   8.297   1.559 -0.2189  0.4014 -0.9568
   52MOL0     C 6901   7.351   8.355   1.605  0.5589 -0.1695  0.5549
   52MOL0     N 6902   7.417   8.445   1.511 -0.4955 -0.9618 -0.0162
   52MOL0     C 6903   7.515   8.539   1.543  0.5210  0.3385 -0.3078
   52MOL0     C 6904   7.539   8.607   1.435 -0.1918 -0.3816 -0.0951
   52MOL0     C 6905   7.632   8.730   1.420 -1.0148 -0.1870 -0.5721
   52MOL0     C 6906   7.725   8.721   1.298 -0.1864 -0.9066 -1.0009
   52MOL0     C 6907   7.841   8.622   1.307 -0.4006 -0.9147  0.0594
   52MOL0     C 6908   7.979   8.675   1.351 -0.3435  0.1604 -0.1862
   52MOL0     O 6909   8.069   8.558   1.367  0.3592 -0.0173  0.7308
   52MOL0     C 6910   8.192   8.598   1.405  0.2095  0.6691  0.1010
   52MOL0     C 6911   8.271   8.485   1.442  0.2620  0.5396  0.2552
   52MOL0     C 6912   8.398   8.504   1.505 -0.0090 -0.2500 -0.6065
   52MOL0     C 6913   8.454   8.630   1.522  0.3930  0.2894 -0.5702
   52MOL0     C 6914   8.581   8.646   1.580 -0.3301  0.5864  0.3014
   52MOL0     O 6915   8.610   8.768   1.638 -0.3771 -0.5042 -0.0817
   52MOL0     C 6916   8.736   8.784   1.693  0.5092 -0.0385 -0.5246
   52MOL0     C 6917   8.758   8.744   1.824 -0.1111  0.4132 -0.1759
   52MOL0     C 6918   8.883   8.750   1.879 -0.1901  0.2471 -1.0374
   52MOL0     C 6919   8.990   8.809   1.813 -0.0266  0.5626 -0.2135
   52MOL0     O 6920   9.110   8.837   1.871  0.0512 -0.1077  0.1975
   52MOL0     C 6921   9.224   8.814   1.794  0.4917  0.6557 -0.0717
   52MOL0     C 6922   9.340   8.841   1.886  0.3248 -0.0147 -0.0399
   52MOL0     C 6923   9.475   8.830   1.812 -1.1307  0.6974  0.3898
   52MOL0     C 6924   9.582   8.949   1.825  0.5281 -0.0457 -0.3835
   52MOL0     C 6925   9.616   9.000   1.970 -0.1689 -0.1669  0.4386
   52MOL0     C 6926   9.727   9.108   1.978  0.2936 -0.2274  0.5432
   52MOL0     C 6927   9.749   9.144   2.127  0.8860 -0.6095 -0.1501
   52MOL0     C 6928   9.828   9.276   2.142 -0.4442  0.6430  0.5939
   52MOL0    Cl 6929   9.989   9.267   2.046  0.2436 -0.0767  0.0255
   52MOL0     C 6930   8.972   8.848   1.678  0.6564 -0.3138 -0.1146
   52MOL0     C 6931   8.846   8.841   1.621 -0.9435  0.1410 -0.5635
   52MOL0     O 6932   8.652   8.548   1.575 -0.3436 -0.0356  0.2153
   52MOL0     C 6933   8.385   8.736   1.483 -0.3512 -0.6912  1.3133
   52MOL0     C 6934   8.258   8.721   1.415  0.7277 -0.0838  0.3482
   52MOL0     N 6935   7.460   8.554   1.332  0.0527  0.1985 -0.5166
   52MOL0     N 6936   7.381   8.472   1.384 -0.0263  0.7691  0.1031
   52MOL0     C 6937   6.495   7.822   1.203 -0.6100 -0.2955  0.2788
   52MOL0     C 6938   6.383   7.761   1.163  1.1399 -0.7112  1.1622
   52MOL0     C 6939   6.149   7.834   0.908  0.4246 -0.3597 -0.3907
   52MOL0     C 6940   6.084   7.961   0.895 -0.5087  0.3274 -0.4138
   52MOL0     C 6941   6.144   8.051   0.804  0.1963 -0.2447  0.0099
   52MOL0     C 6942   6.254   8.023   0.724 -0.2004  0.2002  0.2453
   52MOL0     O 6943   6.307   8.125   0.649  0.1114 -0.0737 -0.4512
   52MOL0     C 6944   6.395   8.100   0.544 -0.8806  0.0501  0.5941
   52MOL0     C 6945   6.404   8.215   0.451 -0.0288  0.8230 -0.0359
   52MOL0     C 6946   6.272   8.229   0.370  0.2192 -0.2415  1.1319
   52MOL0     C 6947   6.277   8.332   0.257 -0.1680 -0.6815 -0.0821
   52MOL0     C 6948   6.265   8.476   0.311  0.3308  0.0776 -0.4616
   52MOL0     C 6949   6.264   8.592   0.359  0.1674  0.5387 -0.0229
   52MOL0     C 6950   6.317   7.901   0.750 -0.7564  0.4799 -0.0841
   52MOL0     C 6951   6.264   7.802   0.832  0.7751  0.1850  0.0249
   52MOL0     C 6952   6.346   7.681   0.838  0.4620  0.2573  0.8024
   52MOL0     H 6953   6.167   8.016   1.202 -0.2046 -1.8460 -3.4916
   52MOL0     H 6954   6.359   8.128   1.274  3.7573  0.4057  1.1366
   52MOL0     H 6955   6.587   8.185   1.344  1.8173 -0.0443 -1.4596
   52MOL0     H 6956   6.537   8.081   1.478 -0.6782  0.4492 -1.2441
   52MOL0     H 6957   6.761   8.013   1.529  2.2894 -1.6026 -0.8231
   52MOL0     H 6958   6.738   8.188   1.542  3.2056  0.5236 -0.1237
   52MOL0     H 6959   6.840   8.200   1.302  0.0153 -0.9212 -1.4543
   52MOL0     H 6960   6.857   8.019   1.321  0.6063  0.4409 -0.7276
   52MOL0     H 6961   6.958   8.226   1.513 -1.3520 -0.0280 -0.8882
   52MOL0     H 6962   7.000   8.051   1.524 -0.7660  1.3149  2.4692
   52MOL0     H 6963   7.134   8.092   1.303  0.7406  0.8328 -0.4437
   52MOL0     H 6964   7.084   8.262   1.330 -1.9042 -0.6885  0.1158
   52MOL0     H 6965   7.269   8.105   1.513  2.4535  1.1000  0.4193
   52MOL0     H 6966   7.316   8.220   1.383 -0.4026  0.1219 -0.6154
   52MOL0     H 6967   7.178   8.240   1.644  0.9936  0.2866 -0.4553
   52MOL0     H 6968   7.160   8.387   1.533  1.7840  1.6470 -1.2894
   52MOL0     H 6969   7.330   8.403   1.701  0.2963 -0.1772  0.5032
   52MOL0     H 6970   7.432   8.285   1.627  1.7405  1.2192  0.7556
   52MOL0     H 6971   7.563   8.554   1.639  1.0157 -1.3486 -0.2588
   52MOL0     H 6972   7.574   8.823   1.423  0.8739  1.0517 -0.4795
   52MOL0     H 6973   7.701   8.749   1.503  0.2304  1.1899 -1.8604
   52MOL0     H 6974   7.658   8.689   1.217 -2.6405 -0.4904  0.7675
   52MOL0     H 6975   7.754   8.826   1.286 -1.3934 -0.3338  0.7049
   52MOL0     H 6976   7.865   8.592   1.205 -0.7643  1.7849 -0.9024
   52MOL0     H 6977   7.821   8.540   1.376 -0.3799 -1.8636 -1.0419
   52MOL0     H 6978   7.963   8.731   1.444 -0.0118  0.7339 -0.4643
   52MOL0     H 6979   8.020   8.747   1.279  0.1485  0.6066  0.5260
   52MOL0     H 6980   8.224   8.388   1.436 -0.5332  0.9335 -0.1355
   52MOL0     H 6981   8.450   8.421   1.552 -1.0112  0.1462  1.3316
   52MOL0     H 6982   8.666   8.709   1.869 -0.2536  0.3579 -0.5084
   52MOL0     H 6983   8.900   8.725   1.983  1.3728 -2.5799 -1.8780
   52MOL0     H 6984   9.237   8.709   1.766 -0.7629  0.5011 -0.1377
   52MOL0     H 6985   9.233   8.879   1.707 -0.6033  0.8591 -0.0430
   52MOL0     H 6986   9.328   8.946   1.914 -2.0375 -0.1462 -0.3714
   52MOL0     H 6987   9.338   8.784   1.979 -0.0470  0.9285  0.5501
   52MOL0     H 6988   9.522   8.739   1.850  0.5284  2.1043  1.8631
   52MOL0     H 6989   9.459   8.813   1.705  0.5934  0.6874  0.1033
   52MOL0     H 6990   9.527   9.034   1.784  0.1570 -0.0594  0.0869
   52MOL0     H 6991   9.677   8.921   1.779 -0.4799 -2.1740 -1.3408
   52MOL0     H 6992   9.650   8.922   2.038  1.9285  1.7498  1.7632
   52MOL0     H 6993   9.529   9.041   2.022  2.4592  1.8217  3.6010
   52MOL0     H 6994   9.814   9.062   1.931  0.3941 -2.6834  2.8948
   52MOL0     H 6995   9.696   9.200   1.928 -0.4620 -0.1167  1.2083
   52MOL0     H 6996   9.807   9.068   2.180  0.4930 -0.6870  0.1656
   52MOL0     H 6997   9.648   9.148   2.168  1.3784 -1.4669  1.2154
   52MOL0     H 6998   9.768   9.362   2.108 -0.9174  0.4842  1.0170
   52MOL0     H 6999   9.852   9.305   2.244 -1.8314  4.1818  0.0733
   52MOL0     H 7000   9.050   8.882   1.612  0.3531 -1.1938 -0.9575
   52MOL0     H 7001   8.834   8.865   1.516 -1.9333  0.4238 -0.3925
   52MOL0     H 7002   8.438   8.831   1.486  1.5032 -1.6978  1.3543
   52MOL0     H 7003   8.216   8.816   1.385 -1.8299 -0.4418  2.4426
   52MOL0     H 7004   6.591   7.771   1.205 -0.9769 -0.9766  1.0051
   52MOL0     H 7005   6.389   7.657   1.132  0.4408 -0.1177 -1.1507
   52MOL0     H 7006   5.990   7.993   0.938  0.3651  3.6217 -0.6288
   52MOL0     H 7007   6.095   8.147   0.792  0.8605 -0.0050 -0.9355
   52MOL0     H 7008   6.369   8.007   0.493  4.0524 -2.0255  1.3413
   52MOL0     H 7009   6.497   8.078   0.575 -0.4454 -3.1550 -2.5211
   52MOL0     H 7010   6.480   8.193   0.375 -0.2709  0.6424 -0.2317
   52MOL0     H 7011   6.434   8.305   0.505  0.4458  0.2518  0.6692
   52MOL0     H 7012   6.191   8.254   0.439 -0.2454  1.8046 -0.0567
   52MOL0     H 7013   6.233   8.137   0.326 -0.2500  0.6860 -0.4984
   52MOL0     H 7014   6.361   8.312   0.190 -1.2392 -1.4541 -1.2461
   52MOL0     H 7015   6.186   8.318   0.197 -1.0631 -0.5613  1.2105
   52MOL0     H 7016   6.269   8.694   0.391 -1.0379  1.4867 -2.6060
   52MOL0     H 7017   6.398   7.881   0.681 -1.9654  0.4900 -1.5646
   52MOL0     H 7018   6.375   7.659   0.735  2.2432  2.8219  0.6614
   52MOL0     H 7019   6.441   7.708   0.885  1.5413  2.2468 -2.2329
   52MOL0     H 7020   6.298   7.591   0.879 -2.0131  0.9931 -0.3097
   53MOL0     O 7021   8.419   2.969   0.225  0.1310  0.7586  0.1519
   53MOL0     C 7022   8.388   2.887   0.312 -0.2543  0.0478 -0.9972
   53MOL0     O 7023   8.474   2.840   0.412 -0.9980  0.4023  0.5371
   53MOL0     C 7024   8.609   2.857   0.394 -0.4709  0.5710 -0.1986
   53MOL0     C 7025   8.688   2.901   0.503  0.4707  0.0668 -0.1773
   53MOL0     C 7026   8.826   2.927   0.486  1.0157 -0.2432  0.5124
   53MOL0     C 7027   8.897   2.889   0.364  1.2664 -0.2475 -0.5536
   53MOL0     O 7028   9.032   2.902   0.351 -0.8205 -0.0201 -0.0623
   53MOL0     C 7029   9.124   2.952   0.451 -0.0775  1.0084 -1.3725
   53MOL0     C 7030   9.264   2.959   0.408 -0.0176  1.0379  0.6371
   53MOL0     C 7031   9.359   3.030   0.503  0.0925  0.1421 -0.7361
   53MOL0     C 7032   9.413   3.157   0.442  0.7248  0.8937 -0.0025
   53MOL0     C 7033   9.547   3.213   0.504  0.1728 -0.8525 -0.2528
   53MOL0     C 7034   9.667   3.121   0.472 -0.2051 -0.0935  0.5038
   53MOL0     C 7035   9.803   3.188   0.501 -0.1364 -0.7267  0.5077
   53MOL0     C 7036   9.826   3.212   0.644 -0.1428  0.0815 -0.4639
   53MOL0     N 7037   9.935   3.307   0.662  0.2015 -0.9400 -0.3086
   53MOL0     C 7038   9.922   3.431   0.719  0.7924  0.3462  0.1902
   53MOL0     C 7039  10.048   3.472   0.744  0.2019  0.2970  0.2160
   53MOL0     C 7040  10.103   3.595   0.810 -0.0414  0.4766 -0.3857
   53MOL0     C 7041  10.235   3.648   0.760  0.1211  0.3440 -0.1134
   53MOL0     C 7042  10.354   3.581   0.829  0.0409 -0.6123  0.3112
   53MOL0     C 7043  10.475   3.677   0.821 -0.6326 -0.1411  0.0823
   53MOL0     O 7044  10.572   3.619   0.911  0.1713 -0.3118 -0.9148
   53MOL0     C 7045  10.707   3.653   0.891  1.0048 -0.2347 -0.4795
   53MOL0     C 7046  10.753   3.757   0.808  0.0156  0.3022 -0.1013
   53MOL0     C 7047  10.888   3.789   0.798  0.8389  0.0171  0.2299
   53MOL0     C 7048  10.980   3.715   0.871 -0.0703 -0.1426 -0.3595
   53MOL0     C 7049  11.123   3.740   0.868  0.3082 -0.8441  0.0055
   53MOL0     O 7050  11.159   3.824   0.770 -1.0601  0.4673  0.4136
   53MOL0     C 7051  11.291   3.835   0.737  0.7369 -0.0050 -0.5277
   53MOL0     C 7052  11.347   3.742   0.646  0.9733 -0.9043  0.3746
   53MOL0     C 7053  11.480   3.755   0.611 -0.3944 -0.6704 -0.0884
   53MOL0     C 7054  11.554   3.868   0.650 -0.1828  0.1623  0.3669
   53MOL0     O 7055  11.685   3.896   0.608 -0.2161  0.0670 -0.2190
   53MOL0     C 7056  11.768   3.786   0.567 -0.5352 -0.9127  0.7750
   53MOL0     C 7057  11.914   3.839   0.538  0.3966 -0.5969 -1.3085
   53MOL0     C 7058  11.922   3.975   0.465  0.1047  0.4112  0.2279
   53MOL0     C 7059  12.053   4.002   0.404  0.0582 -0.5295  0.1555
   53MOL0     C 7060  12.077   4.150   0.369 -0.0728  1.0154 -0.3298
   53MOL0     C 7061  12.214   4.154   0.304 -0.0676 -0.3479  0.1583
   53MOL0     C 7062  12.242   4.299   0.262  0.1782  0.1789 -0.6452
   53MOL0     C 7063  12.392   4.328   0.243  0.8280  0.2611 -0.4064
   53MOL0    Cl 7064  12.518   4.262   0.350 -0.0529  0.5987 -0.1743
   53MOL0     C 7065  11.498   3.957   0.740  0.3133 -0.5867 -0.3441
   53MOL0     C 7066  11.373   3.940   0.797 -0.1179 -0.1109  0.3745
   53MOL0     O 7067  11.197   3.684   0.952  0.1109 -1.1205 -0.3597
   53MOL0     C 7068  10.939   3.607   0.949 -0.6837 -0.3860 -0.3827
   53MOL0     C 7069  10.797   3.578   0.957 -0.6274 -0.4493  1.1190
   53MOL0     N 7070  10.138   3.375   0.701  1.0165 -0.1759  0.2968
   53MOL0     N 7071  10.067   3.276   0.657  0.1294  0.4690 -0.0115
   53MOL0     C 7072   8.816   2.820   0.268 -0.4066 -0.9525 -0.1348
   53MOL0     C 7073   8.677   2.808   0.282 -0.0166  0.0985 -0.6224
   53MOL0     C 7074   8.246   2.853   0.314 -0.4405 -0.0419 -0.1583
   53MOL0     C 7075   8.193   2.809   0.433  0.0415 -0.7089 -0.8685
   53MOL0     C 7076   8.056   2.783   0.460 -0.3991  0.1061 -0.1050
   53MOL0     C 7077   7.963   2.790   0.359  0.0224 -0.0993  0.5912
   53MOL0     O 7078   7.827   2.769   0.382  0.5190 -0.0529  0.3548
   53MOL0     C 7079   7.774   2.715   0.504 -0.6036 -0.6533  0.4159
   53MOL0     C 7080   7.633   2.682   0.484  0.3357  0.0492  0.2559
   53MOL0     C 7081   7.589   2.582   0.594 -0.7507 -0.7438  0.3710
   53MOL0     C 7082   7.453   2.522   0.563 -0.6841  0.4231 -0.3291
   53MOL0     C 7083   7.354   2.618   0.617  0.2599 -0.2027 -0.4279
   53MOL0     C 7084   7.272   2.708   0.635 -0.0451 -0.1017 -0.6108
   53MOL0     C 7085   8.013   2.820   0.228 -0.5084  0.4577  0.7146
   53MOL0     C 7086   8.152   2.862   0.202  1.2038  0.8695 -0.9052
   53MOL0     C 7087   8.181   2.901   0.063 -0.5912 -0.9120 -0.4138
   53MOL0     H 7088   8.633   2.940   0.588 -0.6539 -0.2924 -0.7178
   53MOL0     H 7089   8.882   2.968   0.569  0.5701 -0.7730  1.0837
   53MOL0     H 7090   9.110   3.058   0.472 -0.0721  0.7479  0.0415
   53MOL0     H 7091   9.126   2.900   0.547  0.9039  3.2147 -0.1311
   53MOL0     H 7092   9.263   3.001   0.307 -1.8017 -2.2327 -0.8717
   53MOL0     H 7093   9.302   2.857   0.400  2.0876  1.7899  0.4240
   53MOL0     H 7094   9.448   2.972   0.528  0.3802  0.1792 -1.6284
   53MOL0     H 7095   9.308   3.056   0.596 -1.1006  1.2684 -1.6752
   53MOL0     H 7096   9.434   3.132   0.338 -2.2455 -0.9985 -0.2780
   53MOL0     H 7097   9.337   3.236   0.437 -0.2988 -0.1500 -2.0460
   53MOL0     H 7098   9.565   3.314   0.468 -1.0687  0.4227  2.4362
   53MOL0     H 7099   9.543   3.228   0.612 -2.8384 -2.3179 -0.0485
   53MOL0     H 7100   9.667   3.025   0.524  1.4171 -1.2290 -1.4281
   53MOL0     H 7101   9.666   3.105   0.363  0.2738 -1.3133  0.6668
   53MOL0     H 7102   9.810   3.285   0.451  1.1175  0.7810  3.3848
   53MOL0     H 7103   9.874   3.120   0.453  1.6256  1.5685 -0.3325
   53MOL0     H 7104   9.736   3.258   0.685 -0.8187  0.3154 -2.1473
   53MOL0     H 7105   9.864   3.119   0.688 -1.1687  0.3215  0.9768
   53MOL0     H 7106   9.826   3.478   0.740  0.1250  0.3334 -2.4438
   53MOL0     H 7107  10.022   3.668   0.813 -0.5118 -0.0668  0.3366
   53MOL0     H 7108  10.114   3.570   0.916  2.9247 -1.1767 -0.9607
   53MOL0     H 7109  10.231   3.631   0.652  0.1207 -0.7763  0.0492
   53MOL0     H 7110  10.233   3.754   0.786 -2.2069  0.1073  0.9781
   53MOL0     H 7111  10.372   3.483   0.783 -1.5279  0.1709 -2.1646
   53MOL0     H 7112  10.318   3.567   0.931 -4.6081  1.6201 -0.7741
   53MOL0     H 7113  10.441   3.780   0.831 -0.8013  0.1027 -2.3034
   53MOL0     H 7114  10.508   3.677   0.716  0.7061  2.3771  0.4404
   53MOL0     H 7115  10.689   3.818   0.746 -1.8633  0.5916  2.0060
   53MOL0     H 7116  10.918   3.871   0.734 -1.1956  0.9207  0.3409
   53MOL0     H 7117  11.274   3.668   0.614 -1.2779  0.7629  1.3051
   53MOL0     H 7118  11.515   3.689   0.533 -0.6780  1.2913 -1.9681
   53MOL0     H 7119  11.752   3.707   0.640  0.5986  0.6448  2.8083
   53MOL0     H 7120  11.726   3.744   0.475  0.3700 -2.4995  1.0621
   53MOL0     H 7121  11.959   3.840   0.638 -1.9213  0.6563 -0.1788
   53MOL0     H 7122  11.964   3.754   0.491  0.4198  0.2247 -2.8529
   53MOL0     H 7123  11.846   3.983   0.387  2.3835 -0.5258 -2.2272
   53MOL0     H 7124  11.905   4.049   0.544 -1.6105 -0.8669  1.1524
   53MOL0     H 7125  12.083   3.933   0.325  3.0440 -0.4959  1.1487
   53MOL0     H 7126  12.133   3.978   0.475  1.3931  0.6767 -0.8837
   53MOL0     H 7127  12.072   4.215   0.457 -1.7936  1.5508 -0.7765
   53MOL0     H 7128  11.998   4.186   0.302 -3.6338 -1.1357  2.2824
   53MOL0     H 7129  12.292   4.115   0.370  0.9724  0.2856 -0.6653
   53MOL0     H 7130  12.223   4.093   0.214  0.2838  0.2945 -0.2442
   53MOL0     H 7131  12.209   4.362   0.346  0.8040  1.1686 -1.1118
   53MOL0     H 7132  12.192   4.328   0.169  0.0202 -3.7710 -1.9446
   53MOL0     H 7133  12.421   4.317   0.138  1.3242 -0.6134 -0.1911
   53MOL0     H 7134  12.401   4.436   0.253 -3.1746  0.7836 -0.7592
   53MOL0     H 7135  11.558   4.040   0.775 -0.6802  0.6847 -1.5517
   53MOL0     H 7136  11.325   4.006   0.868 -1.4009 -0.1099 -0.4448
   53MOL0     H 7137  11.011   3.547   1.004  1.5065  0.6281 -2.0093
   53MOL0     H 7138  10.761   3.507   1.031  2.2016 -2.2058  0.9877
   53MOL0     H 7139   8.866   2.782   0.179 -1.1585  0.6585 -1.2871
   53MOL0     H 7140   8.617   2.751   0.213 -0.3166 -0.6605  0.2544
   53MOL0     H 7141   8.262   2.790   0.515 -0.7566 -1.0164 -0.2596
   53MOL0     H 7142   8.030   2.741   0.557 -0.6818  1.2102  0.3166
   53MOL0     H 7143   7.790   2.787   0.585 -1.9541  1.2453 -0.9318
   53MOL0     H 7144   7.830   2.624   0.524 -2.2324 -1.6838  0.4813
   53MOL0     H 7145   7.619   2.635   0.387  2.6624 -0.6779  0.1943
   53MOL0     H 7146   7.581   2.777   0.472 -1.2110 -0.9017 -0.8559
   53MOL0     H 7147   7.601   2.615   0.697  0.2932 -0.7071  0.2433
   53MOL0     H 7148   7.660   2.500   0.582  1.0501  0.9490 -1.4511
   53MOL0     H 7149   7.452   2.505   0.455  2.8482  2.3907 -0.8319
   53MOL0     H 7150   7.445   2.426   0.615 -0.5619 -1.3073 -3.2837
   53MOL0     H 7151   7.214   2.798   0.642  0.5470  0.1802  1.4292
   53MOL0     H 7152   7.943   2.821   0.145  0.8290 -0.9446 -0.4810
   53MOL0     H 7153   8.090   2.880   0.006 -1.3772  1.0071  0.0498
   53MOL0     H 7154   8.184   3.010   0.048 -0.8013 -1.1584 -2.5105
   53MOL0     H 7155   8.265   2.853   0.013  2.5607  0.3819  3.2214
   54MOL0     O 7156   9.885   0.067  10.883 -0.4363 -0.4536  0.0653
   54MOL0     C 7157   9.800   0.043  10.794  0.2617 -0.2028 -0.1564
   54MOL0     O 7158   9.820   0.072  10.660  0.0678  0.4756  0.3168
   54MOL0     C 7159   9.910   0.176  10.646 -0.8171 -0.5466 -0.3681
   54MOL0     C 7160  10.047   0.154  10.622  0.4141  0.5398 -0.0965
   54MOL0     C 7161  10.131   0.257  10.567  0.4730  0.2142 -0.5068
   54MOL0     C 7162  10.072   0.378  10.546  0.0590  0.0006  0.1894
   54MOL0     O 7163  10.136   0.483  10.481  0.0267 -0.6355  0.3621
   54MOL0     C 7164  10.211   0.459  10.364  0.1445  0.4521  0.1594
   54MOL0     C 7165  10.231   0.591  10.282 -0.2105 -0.3340 -0.4742
   54MOL0     C 7166  10.330   0.692  10.337  0.2228  0.8192 -0.4704
   54MOL0     C 7167  10.321   0.818  10.248 -0.4790  0.3416 -0.5051
   54MOL0     C 7168  10.418   0.936  10.294  0.3799  0.5235  0.2052
   54MOL0     C 7169  10.569   0.895  10.310  0.2057  0.5644 -0.1781
   54MOL0     C 7170  10.652   1.027  10.332  0.4491 -0.0103  0.3287
   54MOL0     C 7171  10.793   0.990  10.372 -0.5984  0.2787  0.5683
   54MOL0     N 7172  10.880   1.106  10.390  0.3652  0.0478  0.0332
   54MOL0     C 7173  10.916   1.155  10.511  0.4388 -0.5509  0.0713
   54MOL0     C 7174  11.001   1.257  10.491  0.2165  0.0470 -0.2523
   54MOL0     C 7175  11.062   1.361  10.570  0.4880  0.6508  0.3863
   54MOL0     C 7176  10.975   1.486  10.590 -0.1232  0.6994  0.7658
   54MOL0     C 7177  11.041   1.590  10.675 -0.2360  0.2782 -0.2487
   54MOL0     C 7178  11.172   1.642  10.621  0.2611 -0.5591 -0.0812
   54MOL0     O 7179  11.291   1.566  10.655  0.6548  0.0328  0.1787
   54MOL0     C 7180  11.413   1.605  10.609  1.1712  0.3438  0.0997
   54MOL0     C 7181  11.425   1.715  10.519 -0.3285 -0.0753  0.3042
   54MOL0     C 7182  11.552   1.766  10.485 -0.1391  0.6641 -0.1920
   54MOL0     C 7183  11.668   1.708  10.540 -1.5226 -1.0392  0.1014
   54MOL0     C 7184  11.798   1.766  10.500 -0.5754  0.1323 -0.0925
   54MOL0     O 7185  11.818   1.823  10.375 -0.3940  0.4440 -0.0149
   54MOL0     C 7186  11.943   1.835  10.332 -0.5708 -0.0397  0.2103
   54MOL0     C 7187  12.017   1.945  10.369 -0.7046  0.2977  0.1773
   54MOL0     C 7188  12.143   1.970  10.311 -0.6618  0.5678 -0.7957
   54MOL0     C 7189  12.206   1.888  10.216  0.6551  0.5013  0.4963
   54MOL0     O 7190  12.319   1.939  10.159  0.7972 -0.4693 -0.4808
   54MOL0     C 7191  12.427   1.841  10.137 -0.2683 -0.0178 -0.0919
   54MOL0     C 7192  12.553   1.909  10.087  0.1867 -0.3971 -0.0045
   54MOL0     C 7193  12.681   1.809  10.102  0.5866  1.1222  0.9535
   54MOL0     C 7194  12.820   1.876  10.083 -0.1974 -0.3126  0.0374
   54MOL0     C 7195  12.856   1.946  10.204 -0.9893 -0.3548  0.0453
   54MOL0     C 7196  12.974   2.036  10.175  0.2566  0.1722 -0.2750
   54MOL0     C 7197  13.104   1.964  10.146 -0.6494  0.3702 -0.0634
   54MOL0     C 7198  13.155   1.902  10.274  0.1280  0.8432 -0.2921
   54MOL0    Cl 7199  13.299   1.798  10.245  0.1683  0.1042 -0.1881
   54MOL0     C 7200  12.132   1.771  10.188 -0.2465 -0.0089  0.6557
   54MOL0     C 7201  12.003   1.748  10.242 -0.1205  0.5561 -0.5582
   54MOL0     O 7202  11.888   1.739  10.582  0.4921  0.0780  0.0635
   54MOL0     C 7203  11.660   1.603  10.626 -0.1761 -0.4539 -0.1226
   54MOL0     C 7204  11.535   1.543  10.661  1.3289 -0.5530  0.2985
   54MOL0     N 7205  11.011   1.272  10.358  0.0283  0.1117 -0.7861
   54MOL0     N 7206  10.934   1.187  10.303  0.1131  0.0389 -0.4535
   54MOL0     C 7207   9.943   0.413  10.591 -0.9436 -0.1244 -0.0868
   54MOL0     C 7208   9.862   0.305  10.639  0.2473 -0.1799  0.5753
   54MOL0     C 7209   9.674  -0.025  10.845 -0.4600  0.0519 -0.3746
   54MOL0     C 7210   9.568  -0.048  10.755  0.0667 -0.6009 -0.4881
   54MOL0     C 7211   9.439  -0.100  10.791 -0.1055  0.1336 -0.2550
   54MOL0     C 7212   9.416  -0.131  10.924  0.6171  0.9965  0.5486
   54MOL0     O 7213   9.301  -0.190  10.971 -0.0437  0.3923  0.3890
   54MOL0     C 7214   9.240  -0.147  11.091 -0.3022 -0.1060  0.4008
   54MOL0     C 7215   9.187  -0.006  11.079 -0.2732  0.6404  0.2964
   54MOL0     C 7216   9.041   0.009  11.044 -0.1015 -0.4867 -0.1630
   54MOL0     C 7217   8.989  -0.029  10.912 -0.1135  0.2024  0.0338
   54MOL0     C 7218   9.001   0.077  10.812 -0.6602  0.0681  0.2286
   54MOL0     C 7219   9.041   0.155  10.727  0.2036 -0.0054 -0.1937
   54MOL0     C 7220   9.526  -0.114  11.016  0.0137  0.3068 -0.0463
   54MOL0     C 7221   9.650  -0.061  10.983 -0.3690 -0.0866  0.6013
   54MOL0     C 7222   9.754  -0.063  11.089  0.0538  0.4623 -0.0606
   54MOL0     H 7223  10.075   0.050  10.634 -0.3375  0.4831  1.4997
   54MOL0     H 7224  10.235   0.234  10.549  0.5865  0.1581  0.1789
   54MOL0     H 7225  10.308   0.416  10.390 -0.5533 -2.2098 -1.2208
   54MOL0     H 7226  10.154   0.391  10.301 -0.2687  1.1345 -0.2204
   54MOL0     H 7227  10.141   0.644  10.249 -0.2453 -0.2968 -0.3222
   54MOL0     H 7228  10.278   0.572  10.186 -1.6568  0.8879 -1.4772
   54MOL0     H 7229  10.423   0.635  10.336 -1.4638 -2.4875  2.7938
   54MOL0     H 7230  10.291   0.704  10.439 -4.4708 -1.0929 -1.7479
   54MOL0     H 7231  10.354   0.792  10.147  3.4740 -0.9639  0.9447
   54MOL0     H 7232  10.219   0.853  10.265  0.2017  2.0193  0.3575
   54MOL0     H 7233  10.409   1.018  10.222  3.2945  0.3745 -0.4257
   54MOL0     H 7234  10.378   0.978  10.387 -1.3746  0.4911 -0.5001
   54MOL0     H 7235  10.570   0.829  10.397 -0.0004 -0.4839 -0.9407
   54MOL0     H 7236  10.600   0.840  10.220  1.3167  0.7523  0.0714
   54MOL0     H 7237  10.601   1.085  10.409 -4.2793 -0.5283 -2.0896
   54MOL0     H 7238  10.644   1.092  10.244  1.6207  0.1539  0.3231
   54MOL0     H 7239  10.788   0.929  10.462 -2.2311 -1.2400 -0.4791
   54MOL0     H 7240  10.829   0.928  10.289  1.7935  1.5677  0.5525
   54MOL0     H 7241  10.900   1.125  10.614  2.0756  3.3121  1.6499
   54MOL0     H 7242  11.072   1.303  10.662 -4.6204 -2.3207 -0.5605
   54MOL0     H 7243  11.156   1.397  10.526  1.0287 -2.3902 -1.1832
   54MOL0     H 7244  10.948   1.525  10.491 -1.4468  0.6251  1.0701
   54MOL0     H 7245  10.886   1.448  10.641 -2.0608 -0.6253 -3.1118
   54MOL0     H 7246  11.038   1.554  10.778 -0.2931  2.0532  0.4075
   54MOL0     H 7247  10.984   1.682  10.688 -0.5862  0.1187 -0.6148
   54MOL0     H 7248  11.197   1.742  10.658  2.9505 -1.8655  2.0620
   54MOL0     H 7249  11.160   1.638  10.512  0.4242 -1.5195 -0.0791
   54MOL0     H 7250  11.335   1.766  10.486  0.0694  0.7487  0.4793
   54MOL0     H 7251  11.569   1.849  10.418 -2.2861  0.3560 -1.2008
   54MOL0     H 7252  11.981   2.007  10.450 -1.8174  0.1042 -0.1471
   54MOL0     H 7253  12.205   2.047  10.354  0.2774 -2.1946  3.4183
   54MOL0     H 7254  12.449   1.803  10.237  1.5050 -0.8390 -0.7476
   54MOL0     H 7255  12.391   1.771  10.061 -2.7652  3.5029 -2.4351
   54MOL0     H 7256  12.545   1.945   9.984  4.4736 -0.6980 -0.6190
   54MOL0     H 7257  12.561   1.995  10.154 -0.8647  0.7611 -1.2967
   54MOL0     H 7258  12.684   1.757  10.198  0.9873  2.6973  1.8360
   54MOL0     H 7259  12.673   1.730  10.027 -1.7028 -0.0161  2.3109
   54MOL0     H 7260  12.802   1.944   9.999 -0.2854 -1.7996 -1.1899
   54MOL0     H 7261  12.897   1.809  10.044  1.7493  1.1821  1.1205
   54MOL0     H 7262  12.882   1.876  10.283  1.3749 -0.4561 -0.7656
   54MOL0     H 7263  12.769   2.005  10.237 -1.1056 -0.3503 -0.2632
   54MOL0     H 7264  12.947   2.093  10.086  0.3751 -0.2006 -0.5489
   54MOL0     H 7265  12.982   2.098  10.265 -6.0157  0.6120  0.4526
   54MOL0     H 7266  13.179   2.037  10.115  1.1808 -2.0199 -1.6849
   54MOL0     H 7267  13.098   1.880  10.075 -2.0577  0.7231 -0.3957
   54MOL0     H 7268  13.167   1.972  10.357 -1.8055 -0.3172  1.0383
   54MOL0     H 7269  13.087   1.826  10.313 -2.2369  2.6643 -0.6837
   54MOL0     H 7270  12.161   1.700  10.111 -2.3797 -2.4613  1.9479
   54MOL0     H 7271  11.945   1.660  10.216 -0.1780  0.9223 -1.7384
   54MOL0     H 7272  11.744   1.541  10.657 -1.6447 -3.0768 -1.0501
   54MOL0     H 7273  11.520   1.458  10.726 -2.1630  0.0307  0.4041
   54MOL0     H 7274   9.910   0.515  10.578  1.7563  0.8367 -0.0324
   54MOL0     H 7275   9.755   0.312  10.660  0.5352  1.0146  1.7833
   54MOL0     H 7276   9.585  -0.037  10.648  2.0333 -0.5017 -0.1888
   54MOL0     H 7277   9.357  -0.101  10.720 -0.9347  2.4970  0.5689
   54MOL0     H 7278   9.317  -0.142  11.169  1.7350  3.4421 -1.5792
   54MOL0     H 7279   9.164  -0.223  11.111  1.3488 -2.3765 -1.3842
   54MOL0     H 7280   9.237   0.033  10.990 -1.3802  0.6479 -0.3449
   54MOL0     H 7281   9.226   0.046  11.168  2.4668 -3.4518  1.7780
   54MOL0     H 7282   9.022   0.115  11.063  0.3386  0.5981 -4.5348
   54MOL0     H 7283   8.984  -0.053  11.114  1.5886 -3.4320 -1.1766
   54MOL0     H 7284   9.028  -0.122  10.870 -1.4521 -1.0042  1.3395
   54MOL0     H 7285   8.884  -0.060  10.923 -0.0099  0.5001  2.2839
   54MOL0     H 7286   9.077   0.219  10.650  1.0779 -3.0198 -2.5143
   54MOL0     H 7287   9.515  -0.157  11.115 -1.7023  0.3643 -0.1793
   54MOL0     H 7288   9.765   0.042  11.121  4.3657 -0.3766  2.0119
   54MOL0     H 7289   9.721  -0.129  11.169  0.8696  0.0445 -0.0621
   54MOL0     H 7290   9.852  -0.097  11.056  0.1311 -1.2947  1.7874
   55MOL0     O 7291   4.791   1.157   3.914 -0.3743  0.5797 -0.7437
   55MOL0     C 7292   4.726   1.047   3.916  0.0795  0.9255 -0.7089
   55MOL0     O 7293   4.771   0.934   3.953 -0.6602  0.0451 -0.1774
   55MOL0     C 7294   4.906   0.921   3.979  0.1390  0.3890  0.2612
   55MOL0     C 7295   4.950   0.883   4.106 -0.3445 -0.3163 -0.7116
   55MOL0     C 7296   5.087   0.863   4.127  0.2084 -0.4544 -0.0535
   55MOL0     C 7297   5.182   0.885   4.032 -0.2278  0.4980  0.1926
   55MOL0     O 7298   5.312   0.857   4.055 -0.5970  0.7594 -0.7801
   55MOL0     C 7299   5.356   0.718   4.036 -0.4235  0.3514 -0.3950
   55MOL0     C 7300   5.478   0.676   4.114 -0.2797  0.1407  1.2240
   55MOL0     C 7301   5.511   0.523   4.081 -0.7324 -0.3584  0.1644
   55MOL0     C 7302   5.627   0.461   4.155 -0.8465  0.1490  0.0382
   55MOL0     C 7303   5.761   0.524   4.126 -0.4997 -0.4599 -0.3860
   55MOL0     C 7304   5.871   0.420   4.168  0.6988  0.5911  0.3403
   55MOL0     C 7305   6.008   0.484   4.147 -0.1705  0.2514  0.7395
   55MOL0     C 7306   6.037   0.594   4.253  0.6792 -0.0878 -0.4129
   55MOL0     N 7307   6.175   0.636   4.258  0.1302  0.4359 -0.0087
   55MOL0     C 7308   6.229   0.754   4.216  0.8974  0.9090  0.6150
   55MOL0     C 7309   6.354   0.748   4.263  0.5092 -0.6514 -0.4644
   55MOL0     C 7310   6.453   0.866   4.262 -0.4288 -0.1428  0.1422
   55MOL0     C 7311   6.476   0.936   4.125 -0.1055 -0.2556  0.1657
   55MOL0     C 7312   6.574   0.854   4.035 -0.9298  0.5787  0.3107
   55MOL0     C 7313   6.705   0.924   3.994  0.1087  0.8140  0.0954
   55MOL0     O 7314   6.778   0.950   4.105 -1.0093  0.4578 -0.2303
   55MOL0     C 7315   6.917   0.958   4.100  0.1213  0.6614  0.0874
   55MOL0     C 7316   6.977   0.940   4.225 -0.3719  0.4577  0.2000
   55MOL0     C 7317   7.110   0.938   4.250 -0.9480  0.4500 -0.1187
   55MOL0     C 7318   7.195   0.961   4.139 -0.9505 -0.8027 -0.2468
   55MOL0     C 7319   7.341   0.950   4.159  0.9076  0.6341  0.9205
   55MOL0     O 7320   7.385   0.969   4.282 -0.2230  0.4891 -0.1342
   55MOL0     C 7321   7.519   0.955   4.295  0.0037 -1.1425 -0.5422
   55MOL0     C 7322   7.603   1.075   4.283  0.2057 -0.2726  0.4702
   55MOL0     C 7323   7.736   1.060   4.279 -0.3316  0.6423  0.1330
   55MOL0     C 7324   7.789   0.935   4.285 -0.1359 -0.3546  0.2323
   55MOL0     O 7325   7.924   0.912   4.270 -0.5751 -0.5813  0.1690
   55MOL0     C 7326   8.009   1.009   4.331 -1.1200 -0.9640 -0.2022
   55MOL0     C 7327   8.161   0.978   4.326  0.3276  0.2218  0.0004
   55MOL0     C 7328   8.215   0.869   4.419  0.5373  0.6743 -0.5006
   55MOL0     C 7329   8.358   0.824   4.397 -0.5454 -0.2921 -0.5073
   55MOL0     C 7330   8.463   0.933   4.403 -0.5217 -0.2071 -0.3018
   55MOL0     C 7331   8.593   0.859   4.385  0.5716 -0.9407  0.9800
   55MOL0     C 7332   8.718   0.944   4.375  0.3547  0.4187 -0.0707
   55MOL0     C 7333   8.840   0.856   4.369 -0.5481  0.2507  0.6357
   55MOL0    Cl 7334   8.977   0.954   4.301  0.0840  0.2275 -0.7139
   55MOL0     C 7335   7.717   0.827   4.317  0.1817  0.8183 -0.1681
   55MOL0     C 7336   7.579   0.825   4.318 -0.3276 -0.2146  0.4900
   55MOL0     O 7337   7.404   0.938   4.051 -0.1715 -0.0224  0.3794
   55MOL0     C 7338   7.144   0.982   4.007 -0.6317  0.1270 -0.2032
   55MOL0     C 7339   7.003   0.982   3.994  0.2428 -0.4306 -0.6285
   55MOL0     N 7340   6.375   0.634   4.331  0.8048 -0.0869  0.4371
   55MOL0     N 7341   6.267   0.562   4.321 -0.5488  0.0022  0.1819
   55MOL0     C 7342   5.137   0.916   3.905 -0.8355 -0.4313 -0.2341
   55MOL0     C 7343   5.000   0.940   3.881  0.5334 -0.0323  0.1034
   55MOL0     C 7344   4.580   1.063   3.873  0.4358 -0.4782  0.2992
   55MOL0     C 7345   4.520   1.191   3.862  0.2983  1.0357 -0.5605
   55MOL0     C 7346   4.391   1.206   3.820  0.5026  0.2303  1.1552
   55MOL0     C 7347   4.307   1.100   3.802  0.1097  0.6723  0.1665
   55MOL0     O 7348   4.169   1.100   3.784 -0.5211  0.1483 -0.6204
   55MOL0     C 7349   4.100   1.222   3.781 -0.6707 -0.1882 -0.3468
   55MOL0     C 7350   3.949   1.205   3.770 -0.6117 -0.2865  0.8468
   55MOL0     C 7351   3.906   1.195   3.622  0.8214  0.2281 -0.2556
   55MOL0     C 7352   3.904   1.058   3.565  0.5627 -0.6911 -0.5847
   55MOL0     C 7353   3.849   1.077   3.427 -0.5656 -0.1021 -0.8930
   55MOL0     C 7354   3.794   1.110   3.325 -0.0551 -0.1620 -0.9109
   55MOL0     C 7355   4.371   0.972   3.809  0.0246  0.2317 -0.1260
   55MOL0     C 7356   4.506   0.956   3.829  0.3120  0.7778 -0.1607
   55MOL0     C 7357   4.564   0.816   3.834 -0.0574 -0.0106  0.4424
   55MOL0     H 7358   4.884   0.866   4.191  1.0084  0.9021  0.6546
   55MOL0     H 7359   5.126   0.842   4.225  1.6837 -0.9299 -0.7149
   55MOL0     H 7360   5.274   0.652   4.065  0.1130  0.7647  2.3510
   55MOL0     H 7361   5.388   0.700   3.932 -0.4432 -1.6168 -0.1046
   55MOL0     H 7362   5.460   0.688   4.222  1.6293  1.5139  1.4543
   55MOL0     H 7363   5.569   0.732   4.088  1.5044 -3.0390  0.0502
   55MOL0     H 7364   5.522   0.527   3.972 -0.0688  1.8563  0.2718
   55MOL0     H 7365   5.424   0.460   4.101 -0.9669 -0.4665 -1.1041
   55MOL0     H 7366   5.619   0.457   4.264  2.6738 -1.6955  0.3597
   55MOL0     H 7367   5.633   0.359   4.118  3.3519 -0.4926  1.9731
   55MOL0     H 7368   5.773   0.555   4.022 -0.4115 -1.1875 -0.5956
   55MOL0     H 7369   5.772   0.615   4.186  0.3420  0.5845 -2.0560
   55MOL0     H 7370   5.847   0.388   4.270 -1.1407 -0.5226 -0.3915
   55MOL0     H 7371   5.863   0.334   4.101  2.0291  2.4911 -2.4827
   55MOL0     H 7372   6.012   0.516   4.042 -1.2066 -0.8586  0.3283
   55MOL0     H 7373   6.081   0.406   4.170 -0.6321 -1.1659 -2.1387
   55MOL0     H 7374   5.972   0.679   4.233 -1.0544 -1.1400  0.5294
   55MOL0     H 7375   6.006   0.554   4.350 -1.6358 -4.1275 -2.5298
   55MOL0     H 7376   6.178   0.840   4.174 -0.8767  0.0815  0.9683
   55MOL0     H 7377   6.429   0.943   4.336  5.6954  0.4527  2.1018
   55MOL0     H 7378   6.553   0.829   4.289  0.7847  2.7135 -0.0433
   55MOL0     H 7379   6.380   0.937   4.072  0.2438 -0.5908 -0.4933
   55MOL0     H 7380   6.518   1.036   4.143  1.2338 -1.0349  1.6600
   55MOL0     H 7381   6.530   0.824   3.939  2.4431 -0.1329 -1.1470
   55MOL0     H 7382   6.597   0.763   4.090 -1.2014 -0.4754 -1.2375
   55MOL0     H 7383   6.690   1.020   3.944  2.0165  0.5112 -1.1454
   55MOL0     H 7384   6.754   0.859   3.921  0.2460  1.9884 -0.8957
   55MOL0     H 7385   6.903   0.936   4.304 -0.8995 -3.0478 -0.2890
   55MOL0     H 7386   7.147   0.925   4.351  0.0833  1.6729 -0.3066
   55MOL0     H 7387   7.551   1.168   4.263 -3.3157 -2.0686  0.4949
   55MOL0     H 7388   7.789   1.154   4.270  0.2130  0.6191  2.3862
   55MOL0     H 7389   7.982   1.108   4.292 -0.4442 -0.7210 -0.0648
   55MOL0     H 7390   7.977   1.028   4.434 -0.7342  2.2709 -0.5737
   55MOL0     H 7391   8.194   0.965   4.223 -1.4397  1.4823 -0.7849
   55MOL0     H 7392   8.205   1.071   4.363  0.7396 -0.8387  2.4275
   55MOL0     H 7393   8.201   0.913   4.518  0.2948  1.7949 -1.0166
   55MOL0     H 7394   8.160   0.774   4.414  2.0349 -0.1902 -1.3618
   55MOL0     H 7395   8.362   0.767   4.303  0.0098 -0.7114 -0.2367
   55MOL0     H 7396   8.384   0.749   4.472 -0.4750 -1.8322 -1.9982
   55MOL0     H 7397   8.459   0.991   4.495 -0.8813  0.6020 -0.8180
   55MOL0     H 7398   8.444   1.003   4.321 -0.4620  0.2631  0.0866
   55MOL0     H 7399   8.598   0.797   4.475  0.7291 -1.8335  0.3565
   55MOL0     H 7400   8.589   0.806   4.290  3.2133  3.1136 -1.7331
   55MOL0     H 7401   8.727   1.018   4.455  0.4887 -0.3583  0.6446
   55MOL0     H 7402   8.708   0.996   4.279 -2.8063 -0.8107 -0.5391
   55MOL0     H 7403   8.862   0.806   4.464 -0.4205  1.5121  1.2961
   55MOL0     H 7404   8.828   0.783   4.289  3.5873 -0.3143  0.3326
   55MOL0     H 7405   7.763   0.729   4.323  2.4468  1.4515 -3.9775
   55MOL0     H 7406   7.511   0.742   4.332 -0.5249  0.2199  2.4763
   55MOL0     H 7407   7.207   0.990   3.919 -0.4748  2.8432  0.0744
   55MOL0     H 7408   6.961   0.982   3.894  0.9203 -4.1996 -1.0481
   55MOL0     H 7409   5.212   0.926   3.827  0.5940  0.2110  1.1717
   55MOL0     H 7410   4.974   0.974   3.781 -1.3121 -1.5403  0.0095
   55MOL0     H 7411   4.572   1.283   3.888  0.3202  0.7434  0.4942
   55MOL0     H 7412   4.356   1.306   3.800 -0.0158 -0.5726 -2.6244
   55MOL0     H 7413   4.144   1.290   3.708  0.4144 -1.5962 -1.0745
   55MOL0     H 7414   4.105   1.270   3.879 -1.3595 -0.6844 -0.0537
   55MOL0     H 7415   3.907   1.298   3.809  1.2112  0.3531  1.3658
   55MOL0     H 7416   3.905   1.131   3.837 -3.4244  0.2911 -0.2066
   55MOL0     H 7417   3.950   1.275   3.561  1.1093 -0.3192 -0.7758
   55MOL0     H 7418   3.799   1.216   3.626  0.2261 -2.5259  0.0855
   55MOL0     H 7419   4.006   1.017   3.560 -0.2604 -3.1472  0.9947
   55MOL0     H 7420   3.843   0.984   3.617 -1.4116  1.6010  0.5219
   55MOL0     H 7421   3.740   1.144   3.239 -2.2329 -1.4020 -0.1192
   55MOL0     H 7422   4.323   0.877   3.787  1.1882 -1.1911  2.8641
   55MOL0     H 7423   4.585   0.801   3.940 -0.5115  0.7411  0.6465
   55MOL0     H 7424   4.491   0.750   3.786 -0.9062  3.6185 -3.9754
   55MOL0     H 7425   4.657   0.808   3.777 -0.8666 -1.3715 -0.7718
   56MOL0     O 7426   6.003  10.191   8.323 -0.4353  0.1469 -0.1536
   56MOL0     C 7427   5.967  10.108   8.409 -0.5296 -0.2844  0.3270
   56MOL0     O 7428   6.041  10.087   8.521  0.3506 -0.5792  0.0351
   56MOL0     C 7429   6.174  10.116   8.514  0.1640  0.2621 -0.3123
   56MOL0     C 7430   6.265  10.028   8.444  0.4598 -0.3535  0.0128
   56MOL0     C 7431   6.406  10.032   8.455 -0.6293 -0.1354  0.6776
   56MOL0     C 7432   6.462  10.139   8.529 -0.5681 -0.3159 -0.0539
   56MOL0     O 7433   6.600  10.177   8.541 -0.6202 -0.9510 -0.7949
   56MOL0     C 7434   6.706  10.075   8.520 -0.0280  0.5645 -0.6543
   56MOL0     C 7435   6.733   9.992   8.643  0.0177 -0.3837  0.3755
   56MOL0     C 7436   6.806  10.068   8.765  0.2404 -0.3096  0.5209
   56MOL0     C 7437   6.820   9.968   8.881  0.2948 -0.5462  0.3944
   56MOL0     C 7438   6.938  10.008   8.978 -0.7872  0.7373 -0.0038
   56MOL0     C 7439   6.960   9.921   9.101  0.5413  0.2987  0.3309
   56MOL0     C 7440   7.094   9.935   9.172 -0.8013 -0.0911  0.4419
   56MOL0     C 7441   7.136  10.067   9.243 -0.2756  0.2981 -0.2122
   56MOL0     N 7442   7.212  10.149   9.152 -0.2726 -0.3810 -0.8810
   56MOL0     C 7443   7.341  10.142   9.108  0.5886  0.9201 -0.1005
   56MOL0     C 7444   7.364  10.244   9.026  0.7413  0.3282 -0.5810
   56MOL0     C 7445   7.484  10.275   8.950  0.9814 -0.2575  0.5116
   56MOL0     C 7446   7.594  10.317   9.048 -0.0602  0.3627  0.1860
   56MOL0     C 7447   7.708  10.374   8.959 -0.2050 -0.9035  0.8719
   56MOL0     C 7448   7.809  10.452   9.028 -0.1812  0.1222 -0.3265
   56MOL0     O 7449   7.891  10.526   8.937 -0.6301 -0.4380 -0.2094
   56MOL0     C 7450   7.972  10.628   8.991 -0.0394  0.1410 -0.5756
   56MOL0     C 7451   8.005  10.650   9.131  0.2517 -0.3275 -0.5828
   56MOL0     C 7452   8.106  10.739   9.171  0.0484 -0.4862  0.2396
   56MOL0     C 7453   8.160  10.820   9.067 -0.0030  0.4690  0.3318
   56MOL0     C 7454   8.270  10.915   9.094 -0.1506  0.7234  0.6648
   56MOL0     O 7455   8.350  10.951   8.987  0.2481 -0.1742 -0.0071
   56MOL0     C 7456   8.475  11.010   9.016  0.6856  0.0340  0.2071
   56MOL0     C 7457   8.557  10.975   9.129  0.4402 -0.2696 -0.4539
   56MOL0     C 7458   8.683  11.033   9.156  0.6015 -0.5026  0.8273
   56MOL0     C 7459   8.734  11.120   9.053 -0.3191  0.5834 -0.5874
   56MOL0     O 7460   8.856  11.180   9.073 -0.8435  0.0413 -0.0450
   56MOL0     C 7461   8.856  11.317   9.098  0.2464  0.1902  0.6587
   56MOL0     C 7462   8.975  11.367   9.179 -0.0049  0.4470 -0.5753
   56MOL0     C 7463   9.103  11.353   9.098  0.3717 -0.2658 -0.0021
   56MOL0     C 7464   9.217  11.356   9.193  0.0722 -0.0923  0.0437
   56MOL0     C 7465   9.337  11.286   9.135  0.6339  0.3535  0.0077
   56MOL0     C 7466   9.467  11.336   9.193 -0.7325 -0.3691 -1.1157
   56MOL0     C 7467   9.585  11.242   9.162  0.5357 -0.1903 -0.2528
   56MOL0     C 7468   9.716  11.311   9.213  0.2415  0.2327  1.0368
   56MOL0    Cl 7469   9.774  11.443   9.104  0.6481 -0.4601 -0.4230
   56MOL0     C 7470   8.654  11.161   8.942  0.8170 -0.0319 -0.0794
   56MOL0     C 7471   8.527  11.096   8.925 -0.1910 -0.5912 -0.1418
   56MOL0     O 7472   8.290  10.945   9.207 -0.2929 -0.2840 -1.0334
   56MOL0     C 7473   8.123  10.804   8.930  0.4993 -0.2547 -0.0257
   56MOL0     C 7474   8.028  10.713   8.896  0.3483 -0.4805 -0.1098
   56MOL0     N 7475   7.261  10.328   9.024  0.0587 -0.4822 -0.6129
   56MOL0     N 7476   7.164  10.262   9.093  0.0827 -0.3838 -0.4029
   56MOL0     C 7477   6.372  10.231   8.590  0.0682  0.2048  0.2466
   56MOL0     C 7478   6.234  10.219   8.591 -0.1191  0.1932 -0.7823
   56MOL0     C 7479   5.856  10.022   8.368 -0.2630 -0.0409  0.0452
   56MOL0     C 7480   5.866   9.892   8.401 -0.5735 -0.2741  0.9788
   56MOL0     C 7481   5.762   9.807   8.367 -0.6171 -0.2180  0.2717
   56MOL0     C 7482   5.658   9.841   8.289  0.6437  0.3937 -0.8173
   56MOL0     O 7483   5.567   9.741   8.268  0.2629  0.2827 -0.2430
   56MOL0     C 7484   5.477   9.754   8.160  0.4758  0.2128 -0.2235
   56MOL0     C 7485   5.400   9.627   8.143 -0.3063 -0.5280 -0.2304
   56MOL0     C 7486   5.278   9.653   8.054 -0.3285  0.5687  0.2093
   56MOL0     C 7487   5.213   9.515   8.032  0.0799 -0.3592  0.5739
   56MOL0     C 7488   5.090   9.539   7.964 -0.4297  0.1741  0.5310
   56MOL0     C 7489   4.981   9.554   7.906 -0.8017  0.0960  0.0322
   56MOL0     C 7490   5.650   9.979   8.256  0.6866 -0.1915 -0.5790
   56MOL0     C 7491   5.751  10.076   8.294  0.6217 -0.1739 -0.3955
   56MOL0     C 7492   5.728  10.223   8.248  0.3590  0.2005 -0.3400
   56MOL0     H 7493   6.231   9.944   8.385  2.5138 -2.8580  2.1500
   56MOL0     H 7494   6.452   9.949   8.401 -4.3602 -2.9869  1.4678
   56MOL0     H 7495   6.672  10.007   8.441 -1.5001 -0.3615  0.7095
   56MOL0     H 7496   6.801  10.115   8.484 -0.5501  1.2350 -1.3369
   56MOL0     H 7497   6.791   9.908   8.604  1.0316  1.3649 -2.1255
   56MOL0     H 7498   6.645   9.941   8.683  1.5666 -1.4184  2.6841
   56MOL0     H 7499   6.751  10.157   8.796 -0.9296 -1.2361  1.2232
   56MOL0     H 7500   6.909  10.095   8.741  1.1375 -1.4235  2.7721
   56MOL0     H 7501   6.725   9.963   8.934 -1.3105 -0.0492 -2.2433
   56MOL0     H 7502   6.842   9.875   8.828  0.0174 -0.5686  0.3217
   56MOL0     H 7503   7.032  10.002   8.923  0.1928 -1.3322  1.7121
   56MOL0     H 7504   6.917  10.109   9.013 -1.2318  0.4125  0.7050
   56MOL0     H 7505   6.880   9.938   9.174  0.1772 -0.3505  0.0936
   56MOL0     H 7506   6.952   9.816   9.071 -2.5145  0.3332  0.7308
   56MOL0     H 7507   7.178   9.906   9.109 -2.2068  0.4311 -1.7737
   56MOL0     H 7508   7.084   9.857   9.248  1.1219  0.4656  1.3230
   56MOL0     H 7509   7.044  10.114   9.281 -0.8888 -2.3007  1.7827
   56MOL0     H 7510   7.204  10.049   9.326 -0.1620 -2.8470 -0.8713
   56MOL0     H 7511   7.408  10.063   9.139  1.7489  2.7163  2.3040
   56MOL0     H 7512   7.517  10.190   8.889  1.7602  0.0943  0.4350
   56MOL0     H 7513   7.459  10.358   8.884  0.7353  0.6668  1.7344
   56MOL0     H 7514   7.551  10.388   9.119 -0.0770 -0.6691  1.2358
   56MOL0     H 7515   7.621  10.238   9.119 -0.7838 -0.8305 -0.8202
   56MOL0     H 7516   7.668  10.433   8.876  0.0239  1.1808  2.1642
   56MOL0     H 7517   7.756  10.284   8.920 -0.6397 -0.7875  0.0569
   56MOL0     H 7518   7.874  10.383   9.083  0.7513  0.8496 -0.4998
   56MOL0     H 7519   7.764  10.511   9.108  2.9195 -0.5111  2.0946
   56MOL0     H 7520   7.951  10.599   9.210  1.1374  0.6884  0.7288
   56MOL0     H 7521   8.160  10.751   9.265  0.3053 -0.3595  0.0754
   56MOL0     H 7522   8.534  10.904   9.208  1.9986 -3.8181 -2.9033
   56MOL0     H 7523   8.744  11.017   9.245  1.5234  2.4969  0.8383
   56MOL0     H 7524   8.837  11.380   9.010  3.1247  1.5126  0.8724
   56MOL0     H 7525   8.778  11.323   9.174 -1.0511 -0.7620 -0.5536
   56MOL0     H 7526   8.958  11.468   9.218 -2.1887 -0.6883  1.7000
   56MOL0     H 7527   8.990  11.307   9.270  3.3687  1.2780 -0.4400
   56MOL0     H 7528   9.090  11.268   9.030 -2.1953 -0.0179  0.0745
   56MOL0     H 7529   9.117  11.438   9.031 -1.1073 -0.3571 -0.4699
   56MOL0     H 7530   9.195  11.310   9.290  0.4153 -1.3683 -0.4591
   56MOL0     H 7531   9.245  11.460   9.212  1.2084 -0.3523 -0.1647
   56MOL0     H 7532   9.360  11.298   9.029  1.1421 -1.0805 -0.0808
   56MOL0     H 7533   9.330  11.181   9.166  0.3837  0.5823  0.7357
   56MOL0     H 7534   9.484  11.437   9.153  0.5870 -0.7394 -1.5434
   56MOL0     H 7535   9.447  11.352   9.300 -2.9288  0.7506 -1.6337
   56MOL0     H 7536   9.578  11.230   9.053 -0.5061 -1.4109 -0.0794
   56MOL0     H 7537   9.575  11.143   9.208  2.0727 -1.3931 -2.3139
   56MOL0     H 7538   9.698  11.337   9.318  4.2973 -0.1140  1.9965
   56MOL0     H 7539   9.786  11.227   9.218 -1.1186 -0.9218  1.3676
   56MOL0     H 7540   8.683  11.231   8.865  2.4630 -1.6297 -1.0075
   56MOL0     H 7541   8.469  11.142   8.846  1.4763 -0.4194 -1.3206
   56MOL0     H 7542   8.178  10.857   8.852  1.1173 -1.1621 -0.2237
   56MOL0     H 7543   7.997  10.694   8.794  1.1448 -0.4841 -0.3573
   56MOL0     H 7544   6.419  10.303   8.657 -0.0015 -0.7485  1.3595
   56MOL0     H 7545   6.170  10.289   8.643  0.8563 -1.7980  3.5206
   56MOL0     H 7546   5.957   9.861   8.452  0.3746  1.9608  0.7511
   56MOL0     H 7547   5.770   9.708   8.411 -2.0460 -1.1960 -1.5136
   56MOL0     H 7548   5.517   9.795   8.066 -1.8380  2.4430 -0.3574
   56MOL0     H 7549   5.397   9.824   8.188  1.2224 -0.2034  3.4486
   56MOL0     H 7550   5.356   9.597   8.239 -2.5088  0.3581 -0.9063
   56MOL0     H 7551   5.473   9.553   8.108  1.1681  0.1608  1.2645
   56MOL0     H 7552   5.312   9.695   7.959  1.0629  1.9780  1.2694
   56MOL0     H 7553   5.213   9.727   8.102  0.2678  0.1450  1.7037
   56MOL0     H 7554   5.278   9.445   7.979  0.5511 -0.4500  1.2520
   56MOL0     H 7555   5.187   9.477   8.131  1.4162  0.4334  1.2573
   56MOL0     H 7556   4.887   9.550   7.855 -0.5001 -0.0293 -0.5254
   56MOL0     H 7557   5.559  10.008   8.204  0.2240  0.5685  0.6266
   56MOL0     H 7558   5.631  10.216   8.199 -0.3460 -1.4932  1.1749
   56MOL0     H 7559   5.719  10.286   8.337  0.7505 -2.0323  1.3658
   56MOL0     H 7560   5.806  10.257   8.179  0.6478  2.4685  0.9811
   57MOL0     O 7561   3.419   3.302  10.750  0.1707  0.3956 -0.0336
   57MOL0     C 7562   3.344   3.349  10.668 -0.9183  0.6620  0.4325
   57MOL0     O 7563   3.379   3.453  10.587  0.0950  0.0432 -0.4317
   57MOL0     C 7564   3.515   3.466  10.564 -0.2673 -0.9761 -0.1905
   57MOL0     C 7565   3.588   3.571  10.612  1.2779  0.5294  0.5022
   57MOL0     C 7566   3.727   3.584  10.589  0.3380  0.2048  0.0966
   57MOL0     C 7567   3.798   3.486  10.519  0.2235 -0.0256  0.0421
   57MOL0     O 7568   3.928   3.514  10.491 -0.9168 -0.5072  0.6954
   57MOL0     C 7569   3.970   3.490  10.354  0.4016  0.3391  1.1409
   57MOL0     C 7570   4.118   3.521  10.340  0.1771  0.3209  0.1172
   57MOL0     C 7571   4.148   3.669  10.391 -0.4545  0.0133  0.1273
   57MOL0     C 7572   4.290   3.688  10.445  0.9102  0.1069  0.6395
   57MOL0     C 7573   4.403   3.662  10.353  0.9863 -0.3531 -0.2854
   57MOL0     C 7574   4.539   3.701  10.412  0.5191 -0.0631  0.0917
   57MOL0     C 7575   4.639   3.665  10.306  0.1927 -0.6214  0.8968
   57MOL0     C 7576   4.776   3.720  10.357  0.1572 -0.1690 -0.7870
   57MOL0     N 7577   4.886   3.663  10.284 -0.7255 -0.1488 -0.0790
   57MOL0     C 7578   4.954   3.728  10.181 -0.8313 -0.3740  0.7827
   57MOL0     C 7579   5.066   3.660  10.155  0.8466 -0.9599 -0.2902
   57MOL0     C 7580   5.171   3.696  10.056 -0.7019 -0.3771 -0.4620
   57MOL0     C 7581   5.247   3.822  10.110 -0.1094  0.2026  0.4176
   57MOL0     C 7582   5.368   3.862  10.034  0.3028  0.1581  0.6654
   57MOL0     C 7583   5.455   3.978  10.085  0.5410  1.0419  0.4680
   57MOL0     O 7584   5.500   3.956  10.221  0.2662  0.1648 -0.0271
   57MOL0     C 7585   5.625   4.003  10.253 -1.2644  0.9688  0.7828
   57MOL0     C 7586   5.689   4.119  10.210 -0.0142 -0.0876  0.0264
   57MOL0     C 7587   5.820   4.147  10.248  0.4183 -0.0808  0.5443
   57MOL0     C 7588   5.878   4.063  10.338 -0.0910  1.0987 -0.0015
   57MOL0     C 7589   6.023   4.081  10.375  0.5981 -0.6317 -0.9814
   57MOL0     O 7590   6.104   3.979  10.407 -0.1597 -0.3070 -0.6639
   57MOL0     C 7591   6.215   4.005  10.489 -0.7590  0.2459  0.5349
   57MOL0     C 7592   6.325   4.064  10.432 -0.2519  0.1165  0.0209
   57MOL0     C 7593   6.436   4.077  10.517  0.1746 -0.0857  0.5588
   57MOL0     C 7594   6.451   4.028  10.643 -0.0271 -0.0615  0.2036
   57MOL0     O 7595   6.575   4.043  10.709 -0.0880 -0.0486 -0.4676
   57MOL0     C 7596   6.610   3.946  10.806 -0.1296  0.3691 -0.6343
   57MOL0     C 7597   6.756   3.976  10.848  0.1400 -0.4898 -0.3324
   57MOL0     C 7598   6.786   3.899  10.981  0.3258  0.4505  0.2074
   57MOL0     C 7599   6.931   3.915  11.031 -0.1351  0.1775  0.2511
   57MOL0     C 7600   6.968   4.055  11.084 -0.3996  0.0595 -0.1734
   57MOL0     C 7601   7.100   4.064  11.169 -0.6201  0.0297 -0.1209
   57MOL0     C 7602   7.102   3.975  11.296  1.0788 -0.1697  0.7627
   57MOL0     C 7603   7.228   3.992  11.386 -0.0324  0.0764  0.1846
   57MOL0    Cl 7604   7.204   3.923  11.546 -0.2811  0.2497  0.0991
   57MOL0     C 7605   6.333   3.958  10.700 -0.1490 -0.9723  0.1795
   57MOL0     C 7606   6.224   3.946  10.617 -0.6577  0.4767  0.7331
   57MOL0     O 7607   6.050   4.200  10.382  0.0391  1.1793 -0.0808
   57MOL0     C 7608   5.822   3.947  10.380 -0.6648 -0.1449 -0.2808
   57MOL0     C 7609   5.691   3.920  10.342 -0.3237  1.6282  0.9933
   57MOL0     N 7610   5.068   3.560  10.249  0.1443 -0.1399  0.5980
   57MOL0     N 7611   4.961   3.557  10.320 -0.1891  0.2290  0.1913
   57MOL0     C 7612   3.721   3.377  10.461  0.5010  0.3199  0.4613
   57MOL0     C 7613   3.584   3.368  10.489 -0.4374 -0.3295  0.4031
   57MOL0     C 7614   3.207   3.302  10.660 -0.1148  0.0349  0.2978
   57MOL0     C 7615   3.115   3.388  10.605  0.6425  0.3328  0.3571
   57MOL0     C 7616   2.980   3.352  10.592  0.2169 -0.5443  0.3890
   57MOL0     C 7617   2.942   3.226  10.632  0.3338 -0.6307 -0.5623
   57MOL0     O 7618   2.818   3.172  10.618  0.0378  0.4561 -0.6351
   57MOL0     C 7619   2.699   3.248  10.604 -1.1694 -0.2363  0.2056
   57MOL0     C 7620   2.623   3.230  10.475  0.8613 -0.3842 -0.1856
   57MOL0     C 7621   2.578   3.091  10.448  0.1716  0.0031 -0.5896
   57MOL0     C 7622   2.499   3.094  10.318  0.2301 -0.5845  0.0256
   57MOL0     C 7623   2.421   2.977  10.293  0.4214 -0.6292  0.5242
   57MOL0     C 7624   2.353   2.889  10.271 -0.2568  0.1547  1.3803
   57MOL0     C 7625   3.036   3.141  10.690 -0.1848  0.8366  0.5928
   57MOL0     C 7626   3.170   3.166  10.691 -0.2413 -0.7236 -0.4541
   57MOL0     C 7627   3.267   3.067  10.737 -0.4264  0.8089 -0.6555
   57MOL0     H 7628   3.532   3.645  10.668 -2.4552 -2.3255  0.8861
   57MOL0     H 7629   3.774   3.675  10.625  0.6151  0.6286 -1.2671
   57MOL0     H 7630   3.960   3.387  10.317  5.1057 -1.1939  3.3408
   57MOL0     H 7631   3.920   3.557  10.283 -0.0116 -1.3734 -0.2678
   57MOL0     H 7632   4.135   3.523  10.232  0.5284 -2.5572  0.0473
   57MOL0     H 7633   4.181   3.446  10.389  1.3421  1.2013  0.0121
   57MOL0     H 7634   4.084   3.680  10.479 -1.6246 -1.1969 -0.5342
   57MOL0     H 7635   4.121   3.744  10.316 -0.9583 -0.5551 -0.2740
   57MOL0     H 7636   4.284   3.793  10.476 -1.4307  0.5085 -1.0019
   57MOL0     H 7637   4.293   3.625  10.535 -1.1543  0.1837  0.8100
   57MOL0     H 7638   4.403   3.556  10.326 -1.5554 -0.0580 -1.8187
   57MOL0     H 7639   4.383   3.716  10.260 -1.9526 -1.9922 -0.7247
   57MOL0     H 7640   4.542   3.804  10.447 -2.4700  0.1023  0.0460
   57MOL0     H 7641   4.571   3.648  10.503 -0.0861  1.7785  1.4404
   57MOL0     H 7642   4.600   3.706  10.212 -0.7409 -2.6714  0.3267
   57MOL0     H 7643   4.654   3.559  10.284 -0.0307 -0.3211 -0.8487
   57MOL0     H 7644   4.776   3.829  10.364  3.2242 -0.1599  1.2012
   57MOL0     H 7645   4.793   3.684  10.459  0.9484 -0.3883 -0.9886
   57MOL0     H 7646   4.925   3.816  10.124  2.3043  0.2864  0.0054
   57MOL0     H 7647   5.236   3.609  10.040  1.7084  1.4865 -1.2985
   57MOL0     H 7648   5.130   3.711   9.956 -0.1774  2.1487 -0.3463
   57MOL0     H 7649   5.177   3.905  10.094 -1.9607 -0.8684  2.3729
   57MOL0     H 7650   5.268   3.817  10.218 -2.0066  0.7366  0.8637
   57MOL0     H 7651   5.346   3.877   9.928 -0.8423  4.8584  1.3568
   57MOL0     H 7652   5.425   3.768  10.033 -0.5265 -0.6107 -4.6922
   57MOL0     H 7653   5.393   4.068  10.087 -0.7414  0.2300 -0.7777
   57MOL0     H 7654   5.538   3.996  10.016 -2.1139 -1.1503 -3.7292
   57MOL0     H 7655   5.627   4.204  10.182 -0.2655  1.0115  3.4120
   57MOL0     H 7656   5.854   4.248  10.229 -3.1619  1.6789  2.3704
   57MOL0     H 7657   6.333   4.095  10.329  1.5205 -0.6298 -0.0981
   57MOL0     H 7658   6.529   4.105  10.468  0.8570 -0.1710  1.7711
   57MOL0     H 7659   6.548   3.955  10.896  1.8126 -1.2907  0.9856
   57MOL0     H 7660   6.590   3.845  10.771  0.8548  0.5209 -1.6947
   57MOL0     H 7661   6.821   3.931  10.772 -2.0310 -4.4358 -0.1337
   57MOL0     H 7662   6.774   4.083  10.857  0.7342 -0.4915 -1.3081
   57MOL0     H 7663   6.711   3.939  11.050  0.6453  1.1886  0.1276
   57MOL0     H 7664   6.748   3.798  10.962 -1.0644  0.7334  1.2791
   57MOL0     H 7665   7.005   3.899  10.952  1.3652  2.0635  1.1670
   57MOL0     H 7666   6.947   3.839  11.108  2.6306 -0.9726 -1.3068
   57MOL0     H 7667   6.886   4.081  11.152 -1.4446  0.1579 -1.4279
   57MOL0     H 7668   6.985   4.124  11.001  0.7874 -3.7453 -3.3938
   57MOL0     H 7669   7.179   4.023  11.104 -1.3945  1.9135 -2.3747
   57MOL0     H 7670   7.129   4.167  11.188 -1.5050  0.1429  0.6751
   57MOL0     H 7671   7.092   3.871  11.267 -0.3812  0.7826 -2.6785
   57MOL0     H 7672   7.011   4.002  11.350 -0.1848 -2.8902  0.1036
   57MOL0     H 7673   7.314   3.943  11.339 -0.1423 -0.3002  0.3698
   57MOL0     H 7674   7.238   4.098  11.407  0.9406 -0.3087  1.8584
   57MOL0     H 7675   6.324   3.905  10.794 -0.3174 -3.6996 -1.2706
   57MOL0     H 7676   6.137   3.891  10.651 -1.3627  0.7190 -0.6102
   57MOL0     H 7677   5.874   3.871  10.437 -0.2441  1.6007  1.8345
   57MOL0     H 7678   5.647   3.830  10.382 -0.3301 -0.0367 -2.4242
   57MOL0     H 7679   3.777   3.296  10.416 -1.4127  0.2024 -1.9296
   57MOL0     H 7680   3.536   3.292  10.428  0.5992 -0.6534 -0.0258
   57MOL0     H 7681   3.152   3.483  10.570  0.0462  0.7570  0.8454
   57MOL0     H 7682   2.919   3.419  10.532 -0.1053 -1.2581 -0.0980
   57MOL0     H 7683   2.724   3.355  10.610 -0.1428 -0.4551  0.0409
   57MOL0     H 7684   2.641   3.234  10.695 -1.6085 -0.1215 -0.0544
   57MOL0     H 7685   2.697   3.266  10.403  0.6758 -1.1564 -0.7718
   57MOL0     H 7686   2.534   3.294  10.469  1.7452  0.8230 -0.8889
   57MOL0     H 7687   2.522   3.046  10.530  1.0683 -1.2915 -0.6532
   57MOL0     H 7688   2.664   3.024  10.441 -1.9926 -3.3728  1.9058
   57MOL0     H 7689   2.431   3.179  10.309 -0.0714 -1.0353 -3.2443
   57MOL0     H 7690   2.574   3.095  10.238 -0.8328 -0.6355 -1.0083
   57MOL0     H 7691   2.281   2.809  10.264 -1.7372  1.4745  0.9495
   57MOL0     H 7692   2.997   3.045  10.723  0.5382  0.6363  0.8742
   57MOL0     H 7693   3.340   3.043  10.659 -0.5147 -0.2403 -0.4218
   57MOL0     H 7694   3.315   3.105  10.828 -1.7923  1.8832 -0.3367
   57MOL0     H 7695   3.212   2.979  10.773  0.6903 -0.1143 -1.1438
   58MOL0     O 7696  11.025   7.033   9.257 -0.4018  0.3169 -0.8877
   58MOL0     C 7697  11.074   7.082   9.157  0.0128  0.5319  0.3681
   58MOL0     O 7698  11.182   7.165   9.156  0.6480 -0.2761  0.1855
   58MOL0     C 7699  11.219   7.234   9.270  0.8139 -0.3613  0.5376
   58MOL0     C 7700  11.343   7.305   9.252  0.2547  0.2057  0.9199
   58MOL0     C 7701  11.410   7.370   9.357 -0.2740 -0.2931 -0.2318
   58MOL0     C 7702  11.340   7.372   9.480 -0.7576  0.0254 -0.0624
   58MOL0     O 7703  11.386   7.445   9.585 -0.2042  0.7559  0.2630
   58MOL0     C 7704  11.521   7.507   9.577 -0.4615 -0.3219 -0.5811
   58MOL0     C 7705  11.562   7.567   9.713 -1.2171  0.7781 -0.5283
   58MOL0     C 7706  11.707   7.621   9.713  0.0926 -0.6243  0.3204
   58MOL0     C 7707  11.745   7.665   9.863 -0.1027 -0.0814  0.8228
   58MOL0     C 7708  11.897   7.691   9.888 -0.0002 -0.0919 -0.5849
   58MOL0     C 7709  11.908   7.768  10.021 -0.3280 -0.6715 -0.4578
   58MOL0     C 7710  12.054   7.825  10.041 -0.6503 -0.8023  0.0329
   58MOL0     C 7711  12.165   7.724  10.074  1.3227 -1.5322 -0.6450
   58MOL0     N 7712  12.286   7.796  10.114 -0.7869 -0.2813 -0.7722
   58MOL0     C 7713  12.311   7.865  10.230 -1.0097 -0.6099  0.3570
   58MOL0     C 7714  12.446   7.909  10.220  0.6596  1.1717 -0.4963
   58MOL0     C 7715  12.526   7.994  10.322  0.2402  0.7542  0.4197
   58MOL0     C 7716  12.672   7.929  10.334 -0.0785 -0.2150 -0.5398
   58MOL0     C 7717  12.749   8.019  10.430  0.1062 -0.2255  0.1878
   58MOL0     C 7718  12.885   7.953  10.457 -0.5994 -1.2869  0.0736
   58MOL0     O 7719  12.978   8.021  10.551 -0.2467  0.3822  0.5761
   58MOL0     C 7720  13.112   7.989  10.552  0.1105 -0.3320  0.1983
   58MOL0     C 7721  13.192   8.081  10.616 -0.3918  0.1160 -0.1808
   58MOL0     C 7722  13.334   8.061  10.631 -0.2825 -0.4396  0.1938
   58MOL0     C 7723  13.385   7.936  10.586 -0.9246 -0.0195 -0.0672
   58MOL0     C 7724  13.524   7.896  10.616 -1.1917 -0.7236  0.1392
   58MOL0     O 7725  13.579   7.777  10.567 -0.6442  0.5348 -0.4805
   58MOL0     C 7726  13.711   7.752  10.608 -0.7702 -0.8838 -0.2814
   58MOL0     C 7727  13.821   7.782  10.529 -0.2110  0.8369  0.4236
   58MOL0     C 7728  13.954   7.768  10.582  0.0316 -0.6020  0.0761
   58MOL0     C 7729  13.977   7.718  10.716 -1.1460 -0.0427 -1.2355
   58MOL0     O 7730  14.113   7.700  10.750  0.6635 -0.0373 -0.0453
   58MOL0     C 7731  14.148   7.566  10.776 -0.2649 -0.5514 -0.3598
   58MOL0     C 7732  14.281   7.542  10.708 -0.3538  1.2710 -0.4597
   58MOL0     C 7733  14.273   7.539  10.554  1.2190 -0.2399 -0.4692
   58MOL0     C 7734  14.391   7.478  10.482 -0.9396 -0.3578 -0.8780
   58MOL0     C 7735  14.381   7.509  10.333  0.0623  0.5479 -0.5711
   58MOL0     C 7736  14.478   7.438  10.249  0.6370  0.6065 -0.0220
   58MOL0     C 7737  14.467   7.458  10.101  0.1755  0.3177 -0.1443
   58MOL0     C 7738  14.584   7.544  10.048  0.4350  1.0588  0.2987
   58MOL0    Cl 7739  14.576   7.563   9.873  0.1746  0.3740  0.1162
   58MOL0     C 7740  13.867   7.664  10.781  0.0816  0.0422  0.1963
   58MOL0     C 7741  13.737   7.703  10.732  0.2478  0.0381 -0.6703
   58MOL0     O 7742  13.587   7.976  10.682 -0.2645 -0.7292 -0.9290
   58MOL0     C 7743  13.305   7.849  10.513 -0.5477  0.5281 -0.2686
   58MOL0     C 7744  13.174   7.876  10.497  0.3032  0.6122  0.5384
   58MOL0     N 7745  12.494   7.846  10.100  0.2158 -0.2559 -1.1531
   58MOL0     N 7746  12.407   7.771  10.044 -0.0129  0.0604 -0.0815
   58MOL0     C 7747  11.211   7.321   9.493 -0.4728 -1.7178  0.6107
   58MOL0     C 7748  11.151   7.244   9.394 -0.0475 -0.5230 -0.2443
   58MOL0     C 7749  11.026   7.036   9.027 -1.1096  0.4975 -0.0314
   58MOL0     C 7750  11.090   7.102   8.915 -0.2020  0.0462  0.1278
   58MOL0     C 7751  11.064   7.070   8.784  0.2103 -0.1505 -0.0094
   58MOL0     C 7752  10.946   6.991   8.760  0.3909  0.3501 -0.1178
   58MOL0     O 7753  10.917   6.981   8.624 -0.0360 -0.5569 -0.3793
   58MOL0     C 7754  10.802   6.902   8.587  0.5062 -0.1225 -0.8299
   58MOL0     C 7755  10.800   6.885   8.434 -0.1393 -0.5742 -0.4701
   58MOL0     C 7756  10.819   7.024   8.363 -0.0697  0.4453  0.0689
   58MOL0     C 7757  10.914   7.008   8.235 -0.2110 -0.0283 -0.1031
   58MOL0     C 7758  10.868   6.903   8.140  0.4670 -0.3172  0.3566
   58MOL0     C 7759  10.809   6.825   8.070  0.2047  0.0169 -0.2817
   58MOL0     C 7760  10.883   6.924   8.862  0.2549  0.2454 -0.9629
   58MOL0     C 7761  10.925   6.948   8.999 -0.2677 -0.0015 -0.1996
   58MOL0     C 7762  10.846   6.887   9.099  0.4247  0.4513 -0.0589
   58MOL0     H 7763  11.397   7.296   9.159 -1.1413  0.8248  0.0105
   58MOL0     H 7764  11.506   7.418   9.340  0.2517 -0.9940  0.6791
   58MOL0     H 7765  11.595   7.438   9.536  0.5568 -0.1790  0.9339
   58MOL0     H 7766  11.515   7.588   9.504  1.6136 -1.4237 -2.0527
   58MOL0     H 7767  11.562   7.491   9.791  0.1908  2.6495  1.4073
   58MOL0     H 7768  11.497   7.644   9.756 -0.2161  0.4889  1.6626
   58MOL0     H 7769  11.715   7.708   9.647 -1.3588 -1.0769 -0.4746
   58MOL0     H 7770  11.770   7.540   9.677 -1.1040 -1.2690 -0.3682
   58MOL0     H 7771  11.686   7.756   9.880  2.3206  1.9128 -0.7831
   58MOL0     H 7772  11.724   7.582   9.930 -1.2515 -0.5652 -0.0818
   58MOL0     H 7773  11.951   7.596   9.895 -3.3324 -2.2432 -1.2583
   58MOL0     H 7774  11.942   7.750   9.808  0.0481  0.8303  0.1013
   58MOL0     H 7775  11.837   7.851  10.018  1.2031  0.6869 -0.7655
   58MOL0     H 7776  11.890   7.704  10.107  0.7074 -0.8196 -0.3367
   58MOL0     H 7777  12.040   7.901  10.118 -0.6364  0.0265 -0.7657
   58MOL0     H 7778  12.095   7.872   9.951 -3.1232  3.9077  1.0819
   58MOL0     H 7779  12.125   7.669  10.159 -0.7946  0.2165 -0.4264
   58MOL0     H 7780  12.184   7.660   9.987  0.2326 -1.0174 -1.2854
   58MOL0     H 7781  12.236   7.894  10.302 -1.1625 -0.1148  0.0082
   58MOL0     H 7782  12.530   8.092  10.273  0.4866  0.0106 -1.1427
   58MOL0     H 7783  12.475   8.001  10.418 -1.6155  1.0400 -0.5488
   58MOL0     H 7784  12.680   7.832  10.384  1.8684 -1.4304 -2.9923
   58MOL0     H 7785  12.712   7.929  10.232 -0.0347  0.2573 -0.5248
   58MOL0     H 7786  12.688   8.028  10.520  1.7083  0.2067  1.2679
   58MOL0     H 7787  12.772   8.122  10.402 -1.8937  0.5337  1.1729
   58MOL0     H 7788  12.939   7.954  10.361 -0.5608  2.8991 -0.0413
   58MOL0     H 7789  12.879   7.848  10.486  0.7230 -1.6386 -0.8272
   58MOL0     H 7790  13.142   8.167  10.659 -2.7862 -1.9632  1.5495
   58MOL0     H 7791  13.397   8.135  10.679 -2.8238 -0.2935  3.6418
   58MOL0     H 7792  13.803   7.816  10.428  0.4179  0.3046  0.1266
   58MOL0     H 7793  14.049   7.784  10.531  0.6808  1.7741  1.8873
   58MOL0     H 7794  14.157   7.548  10.884  0.3085 -2.1216 -0.6430
   58MOL0     H 7795  14.075   7.498  10.733  0.7826  1.0885 -5.3705
   58MOL0     H 7796  14.354   7.618  10.736 -0.1833  0.1025  2.7553
   58MOL0     H 7797  14.324   7.450  10.750  0.9669  2.4570  0.9208
   58MOL0     H 7798  14.184   7.482  10.525  1.3881  0.7819 -3.3656
   58MOL0     H 7799  14.243   7.639  10.520 -1.7797 -0.5685  0.8407
   58MOL0     H 7800  14.390   7.370  10.497 -1.9890 -0.2197  0.1808
   58MOL0     H 7801  14.484   7.524  10.517 -2.6440  2.9719 -0.3375
   58MOL0     H 7802  14.393   7.616  10.314  0.8250  0.7285  0.7371
   58MOL0     H 7803  14.279   7.484  10.304 -1.1933 -0.2065  3.7962
   58MOL0     H 7804  14.572   7.484  10.283 -0.6597  0.6551  4.0401
   58MOL0     H 7805  14.481   7.330  10.266  0.3661  0.8053  1.4097
   58MOL0     H 7806  14.369   7.502  10.083  0.3155  0.8316  0.3313
   58MOL0     H 7807  14.475   7.359  10.054  2.8014  0.7129 -0.6901
   58MOL0     H 7808  14.582   7.639  10.102  3.2595  0.7860  1.0569
   58MOL0     H 7809  14.681   7.497  10.065  0.3281  0.4401 -0.7021
   58MOL0     H 7810  13.879   7.611  10.875  0.8060 -0.1328  0.0111
   58MOL0     H 7811  13.644   7.667  10.774  1.3282 -2.2547 -0.0668
   58MOL0     H 7812  13.340   7.752  10.479 -1.5690  0.4353 -1.0983
   58MOL0     H 7813  13.113   7.800  10.449  0.1821  1.4978 -0.7769
   58MOL0     H 7814  11.162   7.348   9.586  0.3237  1.3547  0.2232
   58MOL0     H 7815  11.051   7.209   9.417  0.3228 -2.4781 -1.4665
   58MOL0     H 7816  11.164   7.181   8.929  2.1075 -1.7073 -1.4950
   58MOL0     H 7817  11.110   7.111   8.695 -2.6682  0.6972 -1.2036
   58MOL0     H 7818  10.707   6.941   8.626  0.5328  1.2997 -2.1024
   58MOL0     H 7819  10.823   6.802   8.624 -0.7485  0.1544  0.7604
   58MOL0     H 7820  10.710   6.835   8.398 -0.8773  1.1053 -1.0634
   58MOL0     H 7821  10.882   6.820   8.404  0.0257  0.6273 -2.8684
   58MOL0     H 7822  10.866   7.108   8.414  1.3875  1.1735 -2.3461
   58MOL0     H 7823  10.718   7.054   8.333  0.6238  3.1298  0.1546
   58MOL0     H 7824  10.921   7.104   8.183  1.2965  0.0218  0.1348
   58MOL0     H 7825  11.019   6.990   8.258 -0.5736 -2.7233 -0.2379
   58MOL0     H 7826  10.760   6.751   8.010  0.6606 -0.9512  0.5085
   58MOL0     H 7827  10.801   6.857   8.838 -0.6002  2.0232 -3.3843
   58MOL0     H 7828  10.797   6.955   9.170 -1.4608 -2.1634  1.3132
   58MOL0     H 7829  10.762   6.829   9.061  1.0427 -1.5233  1.3998
   58MOL0     H 7830  10.907   6.820   9.160 -0.7067 -1.0303 -0.4838
   59MOL0     O 7831   8.626   7.032   5.071 -0.1407  0.2472  0.4048
   59MOL0     C 7832   8.622   6.944   5.150 -0.4286 -0.4398 -0.7965
   59MOL0     O 7833   8.641   6.964   5.293 -0.2017  0.2223  0.2117
   59MOL0     C 7834   8.685   7.084   5.337 -0.3749 -0.5243  0.3387
   59MOL0     C 7835   8.785   7.096   5.431 -0.6693  0.2905  0.4113
   59MOL0     C 7836   8.830   7.217   5.467  0.4312 -0.0183  0.1529
   59MOL0     C 7837   8.791   7.335   5.411 -0.0575 -0.1842  0.2621
   59MOL0     O 7838   8.842   7.451   5.447 -0.3681 -0.1684 -0.3144
   59MOL0     C 7839   8.815   7.568   5.376 -0.0117 -0.5040  0.0242
   59MOL0     C 7840   8.936   7.669   5.389 -0.0740  0.8308  0.5194
   59MOL0     C 7841   8.951   7.718   5.538  0.0685 -0.0939 -0.0559
   59MOL0     C 7842   9.068   7.815   5.551 -0.1661 -0.3197 -0.7018
   59MOL0     C 7843   9.109   7.821   5.702 -0.0692 -0.4069 -0.4732
   59MOL0     C 7844   9.187   7.950   5.738 -0.1387  0.2584 -0.9133
   59MOL0     C 7845   9.304   7.988   5.650  0.0814 -0.2862 -0.2871
   59MOL0     C 7846   9.411   7.885   5.636 -0.2831  0.4849  0.3084
   59MOL0     N 7847   9.514   7.940   5.557 -0.1149  0.1755 -0.4279
   59MOL0     C 7848   9.634   7.980   5.611 -0.0958 -0.2235 -0.0612
   59MOL0     C 7849   9.699   8.028   5.502  1.1266 -0.5194 -1.0205
   59MOL0     C 7850   9.840   8.072   5.507  0.5265  0.7606 -0.0002
   59MOL0     C 7851   9.916   8.035   5.375 -0.4279  0.2474 -0.5774
   59MOL0     C 7852  10.061   8.072   5.391  0.1265 -0.2744  0.4987
   59MOL0     C 7853  10.144   8.044   5.274  0.7893  0.7833  0.1516
   59MOL0     O 7854  10.272   8.095   5.286  0.0799  0.4705 -0.9147
   59MOL0     C 7855  10.378   8.022   5.324 -0.3478 -0.2295  0.2621
   59MOL0     C 7856  10.494   8.100   5.316 -0.2620  0.8610 -0.0631
   59MOL0     C 7857  10.618   8.045   5.348 -0.3790  0.0264 -0.8851
   59MOL0     C 7858  10.627   7.909   5.380  0.2437  0.9745  0.2773
   59MOL0     C 7859  10.749   7.864   5.434  1.0421  0.0434  0.3211
   59MOL0     O 7860  10.861   7.934   5.409  0.2358  0.2564  0.2706
   59MOL0     C 7861  10.984   7.878   5.436 -0.0558  0.0821  0.4904
   59MOL0     C 7862  11.045   7.776   5.364  0.1859 -1.4331 -0.6617
   59MOL0     C 7863  11.168   7.726   5.395  1.6995 -0.3612 -0.3899
   59MOL0     C 7864  11.221   7.762   5.520  0.5655  0.6493  0.0386
   59MOL0     O 7865  11.338   7.700   5.546 -0.6055 -0.1077  0.0106
   59MOL0     C 7866  11.394   7.730   5.679 -0.0852 -0.6682 -0.2530
   59MOL0     C 7867  11.506   7.634   5.698 -1.0753  0.2708  0.4261
   59MOL0     C 7868  11.633   7.676   5.618 -0.3632 -0.2955 -1.0241
   59MOL0     C 7869  11.627   7.677   5.466  0.8310 -0.2686 -1.1917
   59MOL0     C 7870  11.759   7.684   5.391 -0.0530  0.2014 -0.6240
   59MOL0     C 7871  11.856   7.566   5.404 -0.5055  0.2819 -0.5224
   59MOL0     C 7872  11.967   7.599   5.301 -0.8201  0.3410  0.8059
   59MOL0     C 7873  12.118   7.580   5.340 -0.1362  0.8850  0.1685
   59MOL0    Cl 7874  12.167   7.405   5.340 -0.1097  0.0007  0.0585
   59MOL0     C 7875  11.156   7.863   5.599 -0.3795  1.0521  0.4296
   59MOL0     C 7876  11.042   7.930   5.555  0.7395 -0.5314  0.7252
   59MOL0     O 7877  10.748   7.748   5.483  0.1533  0.7845 -0.0097
   59MOL0     C 7878  10.511   7.832   5.381  0.4884 -0.1898  0.4697
   59MOL0     C 7879  10.387   7.879   5.347  0.8204 -0.4450  0.7934
   59MOL0     N 7880   9.626   8.016   5.388  0.5614  1.3203 -0.5071
   59MOL0     N 7881   9.509   7.973   5.428  0.5540  0.6224  0.0373
   59MOL0     C 7882   8.678   7.326   5.322 -0.0844  0.3275  0.4370
   59MOL0     C 7883   8.627   7.199   5.293 -0.3957 -0.3111 -0.7912
   59MOL0     C 7884   8.598   6.800   5.107 -0.1129 -0.1220 -1.0923
   59MOL0     C 7885   8.506   6.775   5.004  0.2999 -0.3057 -0.9266
   59MOL0     C 7886   8.480   6.646   4.975 -0.1827  0.3048 -0.6149
   59MOL0     C 7887   8.549   6.536   5.039  0.3429  0.1676  0.9028
   59MOL0     O 7888   8.538   6.402   4.996  0.3366  0.2979 -0.4104
   59MOL0     C 7889   8.484   6.377   4.869  0.4347  0.6811  0.3417
   59MOL0     C 7890   8.518   6.232   4.834  0.7845  0.3633  0.6453
   59MOL0     C 7891   8.680   6.212   4.842  0.2368  0.9018  0.2893
   59MOL0     C 7892   8.703   6.058   4.866 -0.0476  0.5609 -0.2232
   59MOL0     C 7893   8.644   5.984   4.755  0.8254  0.3840  0.7060
   59MOL0     C 7894   8.597   5.916   4.669 -0.3862  0.6279  0.2827
   59MOL0     C 7895   8.639   6.560   5.132 -0.3068 -0.3690  0.3249
   59MOL0     C 7896   8.670   6.695   5.174  0.1845  1.1126  0.5913
   59MOL0     C 7897   8.767   6.712   5.291 -0.6521 -0.3863  0.7616
   59MOL0     H 7898   8.834   7.012   5.479 -0.7800 -0.2285 -0.3679
   59MOL0     H 7899   8.919   7.218   5.529  0.5405  0.0303 -0.0046
   59MOL0     H 7900   8.795   7.549   5.270  0.5144  0.4840 -0.2699
   59MOL0     H 7901   8.729   7.617   5.423  0.5041 -2.1253  2.8862
   59MOL0     H 7902   8.921   7.759   5.328  1.3551  1.5829  1.2459
   59MOL0     H 7903   9.023   7.608   5.362  1.9357  2.5976  2.6388
   59MOL0     H 7904   8.981   7.630   5.596 -1.5618 -1.0775 -0.6459
   59MOL0     H 7905   8.856   7.757   5.575 -0.0364 -0.0664 -0.3521
   59MOL0     H 7906   9.152   7.781   5.490 -0.0380  0.1167 -0.7681
   59MOL0     H 7907   9.044   7.914   5.511  0.9815  0.3994  0.3708
   59MOL0     H 7908   9.021   7.819   5.767  0.5319  1.1721  0.4383
   59MOL0     H 7909   9.170   7.732   5.715 -0.3973 -0.6801 -0.7810
   59MOL0     H 7910   9.121   8.036   5.747 -4.8174 -3.1206  1.2932
   59MOL0     H 7911   9.225   7.939   5.839  1.2131  2.8314 -1.0671
   59MOL0     H 7912   9.344   8.080   5.693 -0.6920  0.1316 -0.4484
   59MOL0     H 7913   9.260   8.020   5.556 -1.4118  0.8108  0.7411
   59MOL0     H 7914   9.453   7.856   5.733  3.2438  0.7643 -0.9858
   59MOL0     H 7915   9.368   7.804   5.576 -3.6897  1.4611  1.2206
   59MOL0     H 7916   9.687   7.983   5.706 -1.0698 -0.0775  0.4837
   59MOL0     H 7917   9.842   8.180   5.522  1.1680  0.5689  1.4102
   59MOL0     H 7918   9.884   8.013   5.588  2.2242  1.0904 -0.6491
   59MOL0     H 7919   9.916   7.927   5.358  0.2235  0.6999 -4.3104
   59MOL0     H 7920   9.871   8.091   5.292 -0.6269  2.6799  1.0573
   59MOL0     H 7921  10.106   8.014   5.473  0.5392 -2.2450 -1.0330
   59MOL0     H 7922  10.069   8.180   5.407 -2.3597  0.0770 -0.2267
   59MOL0     H 7923  10.092   8.091   5.189 -1.1770 -2.2213 -0.4435
   59MOL0     H 7924  10.137   7.937   5.255  1.2600  1.0054 -1.3980
   59MOL0     H 7925  10.483   8.205   5.290  3.6106  1.3051 -0.4847
   59MOL0     H 7926  10.706   8.106   5.367 -1.5326  1.0636  1.6487
   59MOL0     H 7927  10.984   7.749   5.278 -1.9928 -2.6804  1.1546
   59MOL0     H 7928  11.208   7.653   5.326 -0.0279 -1.4631 -0.2893
   59MOL0     H 7929  11.431   7.833   5.676  1.2804 -1.1687 -1.5838
   59MOL0     H 7930  11.328   7.718   5.765  2.4235 -0.7086  1.8047
   59MOL0     H 7931  11.529   7.634   5.805  0.9780  1.2389  0.0273
   59MOL0     H 7932  11.478   7.532   5.670  3.7810 -1.5988  1.4891
   59MOL0     H 7933  11.665   7.773   5.657 -1.4772 -0.0904 -0.5798
   59MOL0     H 7934  11.713   7.607   5.646 -1.2302 -0.5588  1.0202
   59MOL0     H 7935  11.573   7.764   5.428  0.0920  1.7527  3.7471
   59MOL0     H 7936  11.575   7.584   5.446  1.2925 -1.3402  2.0016
   59MOL0     H 7937  11.799   7.780   5.425  2.4476 -0.9010 -0.2151
   59MOL0     H 7938  11.740   7.696   5.284  0.7754  0.1790 -0.7764
   59MOL0     H 7939  11.895   7.559   5.506  0.4057  0.4809 -0.8384
   59MOL0     H 7940  11.816   7.467   5.380 -1.4738  0.3715  0.6622
   59MOL0     H 7941  11.960   7.698   5.255 -0.0747 -0.6976 -1.7097
   59MOL0     H 7942  11.940   7.527   5.224 -3.8840  1.4375  0.7149
   59MOL0     H 7943  12.170   7.626   5.256 -0.7884 -1.0466 -1.3664
   59MOL0     H 7944  12.133   7.634   5.434 -1.4475 -0.1564  1.0083
   59MOL0     H 7945  11.202   7.894   5.692  3.5281  2.3863 -1.7458
   59MOL0     H 7946  10.992   8.014   5.602  1.0298  0.0411  0.0309
   59MOL0     H 7947  10.506   7.727   5.406 -3.0028  0.1987  1.9265
   59MOL0     H 7948  10.295   7.822   5.362  0.4177 -0.0607 -0.1318
   59MOL0     H 7949   8.635   7.416   5.279  1.2163  0.3758 -0.8294
   59MOL0     H 7950   8.538   7.207   5.230 -1.9541  1.8631  1.4849
   59MOL0     H 7951   8.458   6.854   4.947  1.0153  0.9183  0.1178
   59MOL0     H 7952   8.399   6.629   4.904 -1.4697  0.5752  0.7540
   59MOL0     H 7953   8.526   6.450   4.800  3.0892  1.4351  2.5784
   59MOL0     H 7954   8.376   6.395   4.866  0.1563 -0.9605 -0.6456
   59MOL0     H 7955   8.474   6.202   4.738 -0.7452 -1.9774  1.9931
   59MOL0     H 7956   8.476   6.170   4.913  1.4867  0.8028  1.3826
   59MOL0     H 7957   8.728   6.262   4.927 -0.8459 -2.0636  2.8199
   59MOL0     H 7958   8.716   6.230   4.740 -0.8068 -2.2774 -0.7656
   59MOL0     H 7959   8.808   6.027   4.871  0.5385  2.6145  1.7273
   59MOL0     H 7960   8.660   6.025   4.960 -1.4907 -1.8682 -1.6248
   59MOL0     H 7961   8.565   5.849   4.592 -2.0142  0.4422  1.0671
   59MOL0     H 7962   8.671   6.474   5.191 -0.9762 -0.6726  0.2528
   59MOL0     H 7963   8.860   6.750   5.247 -0.2728  0.0002  1.8550
   59MOL0     H 7964   8.732   6.785   5.365  0.9546  2.8591 -1.4515
   59MOL0     H 7965   8.797   6.623   5.347  2.8551  0.2030  0.0124
   60MOL0     O 7966   2.542   4.255   8.874  0.7756  0.5603 -1.5265
   60MOL0     C 7967   2.499   4.149   8.830 -0.9713 -0.1460 -0.3401
   60MOL0     O 7968   2.577   4.032   8.834 -0.0771 -1.3577 -0.8850
   60MOL0     C 7969   2.709   4.028   8.856 -0.5491  0.2405 -0.4129
   60MOL0     C 7970   2.803   4.129   8.829 -0.2466  0.7789 -0.6116
   60MOL0     C 7971   2.941   4.093   8.846 -0.2315  0.0614  0.6268
   60MOL0     C 7972   2.981   3.966   8.884  0.0662 -0.5673 -0.6096
   60MOL0     O 7973   3.114   3.917   8.891 -0.5026 -0.5410  0.2783
   60MOL0     C 7974   3.213   4.009   8.909 -1.5188 -0.1781 -0.4290
   60MOL0     C 7975   3.343   3.937   8.887  0.2271  0.1958  0.3888
   60MOL0     C 7976   3.455   4.045   8.877 -0.2744 -0.4426 -0.4750
   60MOL0     C 7977   3.598   3.969   8.864  0.3810  0.7315  0.0652
   60MOL0     C 7978   3.721   4.055   8.826  0.7120  0.0429  0.0734
   60MOL0     C 7979   3.851   3.976   8.816 -0.8593  0.0809 -0.5809
   60MOL0     C 7980   3.963   4.046   8.727 -0.3254 -0.1391  0.2322
   60MOL0     C 7981   4.101   4.008   8.763 -0.0720  0.4762  0.7801
   60MOL0     N 7982   4.148   4.100   8.871  0.6730 -0.1646 -0.5240
   60MOL0     C 7983   4.192   4.225   8.843 -1.4614 -1.1989  0.7038
   60MOL0     C 7984   4.201   4.277   8.971 -0.4302  0.0478  0.6571
   60MOL0     C 7985   4.243   4.417   9.017 -0.5786  0.4544 -0.2827
   60MOL0     C 7986   4.391   4.423   9.057  0.1628 -0.2674 -0.1874
   60MOL0     C 7987   4.493   4.359   8.957 -0.0695  0.7433  0.2805
   60MOL0     C 7988   4.493   4.435   8.829 -0.1590  0.2016  0.4820
   60MOL0     O 7989   4.522   4.576   8.842 -0.5621 -0.1959 -0.7620
   60MOL0     C 7990   4.657   4.598   8.878  0.3758 -0.6817 -0.8991
   60MOL0     C 7991   4.690   4.685   8.984 -0.3071  0.2405  0.6859
   60MOL0     C 7992   4.824   4.695   9.027 -0.3692  0.8755 -0.0066
   60MOL0     C 7993   4.925   4.619   8.960  0.0217  0.7947 -0.3329
   60MOL0     C 7994   5.067   4.639   9.005  0.3081 -0.1659 -0.5457
   60MOL0     O 7995   5.170   4.590   8.932 -0.2114 -0.2384  0.3062
   60MOL0     C 7996   5.296   4.601   8.995 -0.4812  0.1510 -0.5999
   60MOL0     C 7997   5.363   4.722   8.957 -0.1411 -0.0648 -0.3497
   60MOL0     C 7998   5.493   4.742   9.003  0.7094  1.1025 -0.3447
   60MOL0     C 7999   5.566   4.646   9.078 -0.2160 -1.1161  0.5506
   60MOL0     O 8000   5.704   4.668   9.109 -0.6426  0.3533  0.1922
   60MOL0     C 8001   5.744   4.794   9.168 -0.6592  0.4654  0.5085
   60MOL0     C 8002   5.895   4.803   9.166  0.4310  0.2764  0.3552
   60MOL0     C 8003   5.956   4.702   9.256 -0.3088  0.2802 -0.2886
   60MOL0     C 8004   6.102   4.718   9.271 -0.6555  0.6885 -0.6208
   60MOL0     C 8005   6.193   4.595   9.299  0.7524  0.3782 -0.2258
   60MOL0     C 8006   6.333   4.645   9.347 -0.1124  0.1526 -0.1583
   60MOL0     C 8007   6.411   4.524   9.400  0.3425  0.3890  0.8812
   60MOL0     C 8008   6.545   4.560   9.450 -1.2741  0.7783  0.0751
   60MOL0    Cl 8009   6.661   4.588   9.311 -0.0508 -0.3206  0.0642
   60MOL0     C 8010   5.496   4.528   9.112 -0.5879  0.7789  0.1304
   60MOL0     C 8011   5.360   4.503   9.077  0.3589  0.4335  0.6265
   60MOL0     O 8012   5.076   4.706   9.107  0.1346  0.1480 -0.0803
   60MOL0     C 8013   4.892   4.536   8.846 -0.3310  0.0818 -0.9055
   60MOL0     C 8014   4.756   4.530   8.807  0.0236  0.1830 -1.0322
   60MOL0     N 8015   4.171   4.183   9.063 -0.2577  0.3152  0.0780
   60MOL0     N 8016   4.137   4.075   9.008  0.3096  0.1659  0.2023
   60MOL0     C 8017   2.884   3.869   8.911  1.0162  0.5244 -0.3475
   60MOL0     C 8018   2.750   3.901   8.897  1.0363  0.0943 -0.0170
   60MOL0     C 8019   2.357   4.141   8.796 -0.5585 -0.0081 -0.9381
   60MOL0     C 8020   2.279   4.048   8.847 -0.5001  0.9738  0.7468
   60MOL0     C 8021   2.144   4.038   8.823  0.4215  0.0835 -0.0571
   60MOL0     C 8022   2.081   4.143   8.753 -0.5399  0.7417  0.1922
   60MOL0     O 8023   1.949   4.155   8.720 -0.7203  0.5377 -0.0272
   60MOL0     C 8024   1.876   4.036   8.755  0.5721 -0.3049  0.6542
   60MOL0     C 8025   1.726   4.035   8.690 -0.5711  0.1759 -0.3657
   60MOL0     C 8026   1.635   3.921   8.708  0.4001 -0.4305 -0.7454
   60MOL0     C 8027   1.605   3.889   8.854 -0.3842 -0.6754 -0.7848
   60MOL0     C 8028   1.550   4.001   8.928  0.1448 -0.9158 -0.0604
   60MOL0     C 8029   1.506   4.098   8.993  0.4037  1.3653 -0.1460
   60MOL0     C 8030   2.161   4.245   8.693  0.5525 -0.2672  0.5472
   60MOL0     C 8031   2.299   4.238   8.713  0.6969 -0.3759  0.2644
   60MOL0     C 8032   2.381   4.340   8.635  0.1903  0.3340  0.5005
   60MOL0     H 8033   2.766   4.230   8.818 -0.2175  0.7887 -0.6190
   60MOL0     H 8034   3.009   4.176   8.832  1.6509 -1.4509  0.3373
   60MOL0     H 8035   3.206   4.083   8.829  1.7321  0.3583 -0.3632
   60MOL0     H 8036   3.214   4.066   9.002 -2.6903  1.6572 -1.4700
   60MOL0     H 8037   3.339   3.890   8.788 -0.3332 -0.4298  0.7086
   60MOL0     H 8038   3.352   3.867   8.970 -2.6567 -1.6349 -0.7082
   60MOL0     H 8039   3.447   4.093   8.974 -2.5124 -0.5945 -0.5282
   60MOL0     H 8040   3.446   4.116   8.794  1.7610 -0.2389 -0.5703
   60MOL0     H 8041   3.633   3.913   8.951 -2.7305  0.6497  1.3934
   60MOL0     H 8042   3.599   3.898   8.780 -1.3038  1.4037 -0.5827
   60MOL0     H 8043   3.712   4.109   8.732 -1.5389 -0.1351  0.1464
   60MOL0     H 8044   3.733   4.140   8.893 -1.5979 -0.5579  1.3336
   60MOL0     H 8045   3.902   3.950   8.910  1.3365 -0.9848 -1.9640
   60MOL0     H 8046   3.820   3.880   8.773 -0.4263 -1.4624  2.2857
   60MOL0     H 8047   3.957   4.155   8.726 -2.6669 -0.2180  0.7158
   60MOL0     H 8048   3.944   4.022   8.623 -0.4254  1.2017 -0.0776
   60MOL0     H 8049   4.094   3.903   8.793 -1.1615  0.3310  0.0765
   60MOL0     H 8050   4.168   4.017   8.676 -0.1057 -0.5921  0.6236
   60MOL0     H 8051   4.220   4.264   8.746  2.4981 -0.7249  1.8796
   60MOL0     H 8052   4.224   4.494   8.941  0.1219 -0.2154 -1.1524
   60MOL0     H 8053   4.180   4.428   9.105 -0.7375 -1.9165 -0.0446
   60MOL0     H 8054   4.407   4.530   9.067 -0.1765 -0.3565  1.5287
   60MOL0     H 8055   4.396   4.383   9.158 -2.9919 -1.3016 -0.3422
   60MOL0     H 8056   4.481   4.253   8.931  3.6203  0.0744  0.8260
   60MOL0     H 8057   4.591   4.360   9.006  0.1619 -2.7347  0.1703
   60MOL0     H 8058   4.387   4.429   8.800 -0.5424 -1.4065  2.0640
   60MOL0     H 8059   4.551   4.395   8.746  0.8640  2.5593 -0.0304
   60MOL0     H 8060   4.609   4.745   9.024 -1.2743 -0.3251 -0.3694
   60MOL0     H 8061   4.858   4.769   9.099  0.0481  0.3353  0.3590
   60MOL0     H 8062   5.317   4.791   8.888 -0.2476 -0.1804 -0.3957
   60MOL0     H 8063   5.546   4.830   8.968 -2.1234  2.6794 -1.0236
   60MOL0     H 8064   5.727   4.874   9.096  2.6141  0.6191 -0.2463
   60MOL0     H 8065   5.699   4.800   9.268  0.9696 -0.6959  1.3576
   60MOL0     H 8066   5.929   4.803   9.062  1.2492  0.5846  0.6108
   60MOL0     H 8067   5.918   4.899   9.213 -0.4232  0.9401 -0.5458
   60MOL0     H 8068   5.908   4.706   9.354 -0.1199  1.2831 -0.2336
   60MOL0     H 8069   5.939   4.606   9.206  0.3076 -0.0237  0.0632
   60MOL0     H 8070   6.124   4.790   9.350  0.2945 -0.2249 -0.0281
   60MOL0     H 8071   6.139   4.756   9.176 -1.1162  0.4441 -0.9021
   60MOL0     H 8072   6.199   4.531   9.210 -1.0799  0.2595 -0.3029
   60MOL0     H 8073   6.144   4.542   9.381  1.8288  1.6979  1.3204
   60MOL0     H 8074   6.391   4.697   9.270 -0.3265 -0.7012 -0.9110
   60MOL0     H 8075   6.323   4.721   9.426 -2.0693  0.6706 -0.8518
   60MOL0     H 8076   6.411   4.443   9.326  0.2160 -0.8116  2.1474
   60MOL0     H 8077   6.367   4.467   9.483  1.2228 -1.2296  0.2812
   60MOL0     H 8078   6.541   4.646   9.518  1.0410 -0.5723  2.0822
   60MOL0     H 8079   6.592   4.482   9.510  0.5655  0.2736 -1.8974
   60MOL0     H 8080   5.547   4.458   9.177  2.4985  2.4605 -0.2926
   60MOL0     H 8081   5.309   4.409   9.097  0.0219  0.1280 -1.4376
   60MOL0     H 8082   4.953   4.481   8.775 -0.1683 -0.0753 -0.6430
   60MOL0     H 8083   4.726   4.479   8.717 -0.6303  1.0735 -1.3349
   60MOL0     H 8084   2.899   3.765   8.936 -2.3901  0.3249  1.4780
   60MOL0     H 8085   2.670   3.829   8.911  0.9874  0.4286  1.6683
   60MOL0     H 8086   2.321   3.964   8.901 -1.7233  0.0630  0.3468
   60MOL0     H 8087   2.108   3.946   8.869 -1.3954 -0.0071 -1.5432
   60MOL0     H 8088   1.856   4.034   8.863 -1.0012  1.8717  0.4667
   60MOL0     H 8089   1.924   3.943   8.724 -0.7313 -1.2958  1.4997
   60MOL0     H 8090   1.734   4.066   8.585  0.8351  2.9756  0.4770
   60MOL0     H 8091   1.677   4.116   8.745 -1.7277 -2.2069  2.3540
   60MOL0     H 8092   1.683   3.838   8.655  2.5820  0.0557  0.4057
   60MOL0     H 8093   1.537   3.934   8.660 -0.6279 -2.6002  0.5820
   60MOL0     H 8094   1.526   3.813   8.852 -2.6971  1.2163  4.0901
   60MOL0     H 8095   1.690   3.851   8.911  1.1330  2.2011 -0.9538
   60MOL0     H 8096   1.478   4.189   9.041  1.1522  2.0018 -0.8798
   60MOL0     H 8097   2.122   4.324   8.629  1.0142  0.6476  1.3668
   60MOL0     H 8098   2.448   4.394   8.702 -0.2423  1.3375  0.1450
   60MOL0     H 8099   2.432   4.292   8.552 -0.6690 -0.6399  0.5126
   60MOL0     H 8100   2.335   4.419   8.575  2.1105  0.8682 -0.3380
   61MOL0     O 8101   1.224   7.549   2.206  0.5708  0.4906 -0.0076
   61MOL0     C 8102   1.223   7.433   2.227  0.1367  0.6888 -0.5731
   61MOL0     O 8103   1.311   7.377   2.312  0.7797  0.1387  0.3912
   61MOL0     C 8104   1.419   7.454   2.370  0.2530 -0.2815 -0.3185
   61MOL0     C 8105   1.471   7.583   2.339  0.2164  0.6911 -0.1565
   61MOL0     C 8106   1.576   7.637   2.403 -0.4247  0.8120  0.0682
   61MOL0     C 8107   1.645   7.560   2.499  0.6204 -0.9168  0.0710
   61MOL0     O 8108   1.752   7.611   2.570  0.0841 -0.6108 -0.0990
   61MOL0     C 8109   1.721   7.743   2.626 -0.1021 -0.4284 -0.1737
   61MOL0     C 8110   1.824   7.786   2.729  0.1295 -0.1056 -0.1192
   61MOL0     C 8111   1.796   7.706   2.864  0.2500 -0.1756 -0.4409
   61MOL0     C 8112   1.881   7.760   2.977  0.2698 -0.1947  0.2901
   61MOL0     C 8113   2.031   7.759   2.958 -0.2104  0.4731  0.1230
   61MOL0     C 8114   2.099   7.795   3.092 -0.9842 -0.6523 -0.6207
   61MOL0     C 8115   2.249   7.789   3.055  0.5719 -0.2674 -0.5348
   61MOL0     C 8116   2.335   7.818   3.178 -1.0560  0.3428  0.0873
   61MOL0     N 8117   2.475   7.840   3.147 -0.2321 -0.0937  0.2773
   61MOL0     C 8118   2.539   7.960   3.179  0.7250  1.0002  0.3158
   61MOL0     C 8119   2.658   7.949   3.131 -1.1567 -0.2454 -0.0320
   61MOL0     C 8120   2.779   8.031   3.154 -0.1771  0.0360  0.5220
   61MOL0     C 8121   2.911   7.958   3.115  0.2703  0.0377  0.2623
   61MOL0     C 8122   3.031   8.052   3.123  0.0115 -0.7461  0.4455
   61MOL0     C 8123   3.162   7.974   3.102  0.8070  0.7641  0.1740
   61MOL0     O 8124   3.274   8.059   3.133  0.3130  0.2260 -0.0955
   61MOL0     C 8125   3.401   8.020   3.091  0.2558  0.2875  0.6477
   61MOL0     C 8126   3.433   7.945   2.969  0.1244 -1.1075  0.5300
   61MOL0     C 8127   3.565   7.912   2.930 -0.1365 -1.0641 -0.7367
   61MOL0     C 8128   3.668   7.957   3.016  0.0608  0.3461  1.3565
   61MOL0     C 8129   3.809   7.926   2.990 -0.4270 -0.2122  0.3916
   61MOL0     O 8130   3.909   7.984   3.062  0.2682 -0.0673 -0.2067
   61MOL0     C 8131   4.029   7.941   3.025 -0.8423 -0.3117 -0.3289
   61MOL0     C 8132   4.112   8.025   2.942  1.0403 -0.0580  0.2040
   61MOL0     C 8133   4.249   8.003   2.936 -0.4164 -0.9823  1.6563
   61MOL0     C 8134   4.309   7.885   2.990 -0.1767 -0.4690  0.2926
   61MOL0     O 8135   4.436   7.839   2.970 -0.2910  0.0290  0.0579
   61MOL0     C 8136   4.520   7.916   2.878 -0.0482  0.1247  0.5851
   61MOL0     C 8137   4.656   7.879   2.900  0.0538  0.0649  0.7407
   61MOL0     C 8138   4.681   7.731   2.873 -0.6514 -0.0066 -0.3137
   61MOL0     C 8139   4.827   7.697   2.888 -0.8731 -0.3912  0.2193
   61MOL0     C 8140   4.855   7.660   3.037 -0.2755 -0.2751  0.0272
   61MOL0     C 8141   5.008   7.670   3.076  0.5220  0.2835  0.6329
   61MOL0     C 8142   5.059   7.814   3.113  0.6277  0.1919  0.2661
   61MOL0     C 8143   4.971   7.898   3.203 -0.5105 -1.7910  0.8290
   61MOL0    Cl 8144   5.065   8.054   3.258  0.4877 -0.3156  0.1242
   61MOL0     C 8145   4.222   7.793   3.043  0.4076 -0.8675 -0.3918
   61MOL0     C 8146   4.093   7.824   3.072  0.2131 -0.3808  0.1496
   61MOL0     O 8147   3.828   7.856   2.891 -0.5339  0.2109  0.5634
   61MOL0     C 8148   3.638   8.040   3.125 -0.1441  0.4691 -0.3836
   61MOL0     C 8149   3.507   8.066   3.166  0.7455 -0.6061 -0.7311
   61MOL0     N 8150   2.667   7.838   3.053 -0.2125 -0.7627 -0.1569
   61MOL0     N 8151   2.557   7.773   3.070 -0.1342  1.1514 -0.6959
   61MOL0     C 8152   1.600   7.431   2.524 -1.0507  0.8101 -0.1685
   61MOL0     C 8153   1.493   7.382   2.459  0.1034  0.4357  0.5921
   61MOL0     C 8154   1.126   7.345   2.152 -0.0663 -0.5109 -0.0901
   61MOL0     C 8155   1.105   7.223   2.219 -0.1341  1.2426  0.7474
   61MOL0     C 8156   0.998   7.144   2.187  0.5991  0.1455  0.0245
   61MOL0     C 8157   0.919   7.178   2.082  0.9261 -0.2535 -0.0660
   61MOL0     O 8158   0.812   7.104   2.039  1.0354  0.1284 -0.0216
   61MOL0     C 8159   0.701   7.147   2.117 -0.6132 -0.7685 -0.1019
   61MOL0     C 8160   0.570   7.089   2.079  0.0470 -1.0581  0.1763
   61MOL0     C 8161   0.554   7.079   1.924  0.1204 -0.2221  0.2658
   61MOL0     C 8162   0.415   7.018   1.903 -0.1552 -0.3742  0.6884
   61MOL0     C 8163   0.408   6.878   1.943  0.0693  0.3120  0.1285
   61MOL0     C 8164   0.401   6.762   1.983 -0.3122 -0.0505 -0.0122
   61MOL0     C 8165   0.937   7.302   2.017 -0.1460  0.7529  0.4273
   61MOL0     C 8166   1.046   7.378   2.048 -0.0004 -0.6736  0.1017
   61MOL0     C 8167   1.078   7.508   1.972 -0.8449 -0.6947  0.3315
   61MOL0     H 8168   1.431   7.646   2.260  3.2219  0.7083 -1.8188
   61MOL0     H 8169   1.609   7.738   2.380  0.4234  0.5749  0.1893
   61MOL0     H 8170   1.719   7.822   2.550  1.2700 -1.2385 -1.0927
   61MOL0     H 8171   1.626   7.735   2.679 -0.3665 -1.3539 -0.7701
   61MOL0     H 8172   1.812   7.893   2.748 -0.2125 -0.3707  1.2701
   61MOL0     H 8173   1.923   7.758   2.692 -0.9073 -2.4478 -1.3666
   61MOL0     H 8174   1.822   7.600   2.857 -4.2898 -1.7484  2.2309
   61MOL0     H 8175   1.690   7.701   2.889  0.5859 -2.5468  0.8540
   61MOL0     H 8176   1.842   7.859   3.003  0.5333 -0.0050 -0.0303
   61MOL0     H 8177   1.855   7.698   3.063 -0.9040 -0.6049 -0.3438
   61MOL0     H 8178   2.057   7.653   2.949  0.5351  0.5717  1.0292
   61MOL0     H 8179   2.059   7.815   2.868  0.0985 -1.1497 -0.8286
   61MOL0     H 8180   2.083   7.898   3.126 -0.9828 -0.5339 -0.9703
   61MOL0     H 8181   2.073   7.727   3.174 -2.6513  0.4401 -0.1984
   61MOL0     H 8182   2.276   7.861   2.977 -0.4686  0.2883 -0.3910
   61MOL0     H 8183   2.282   7.690   3.021  0.1000 -1.4983  2.2983
   61MOL0     H 8184   2.305   7.908   3.232  0.4307  1.9089 -1.5689
   61MOL0     H 8185   2.323   7.740   3.253  1.5145  1.0745  1.3697
   61MOL0     H 8186   2.497   8.033   3.247 -4.3186 -0.0311 -1.2670
   61MOL0     H 8187   2.780   8.131   3.109  2.4268  0.3141  1.0370
   61MOL0     H 8188   2.781   8.047   3.262  0.7225  0.2277  0.4874
   61MOL0     H 8189   2.931   7.861   3.162  0.8173  0.2422  0.4689
   61MOL0     H 8190   2.892   7.939   3.009  2.4106 -1.6546  0.0962
   61MOL0     H 8191   3.033   8.099   3.222  1.2164  0.0557  0.0589
   61MOL0     H 8192   3.033   8.131   3.047  1.7502 -1.0126  0.1643
   61MOL0     H 8193   3.162   7.928   3.003  0.0642  1.8532 -0.3470
   61MOL0     H 8194   3.166   7.892   3.174 -0.0867  0.0830 -0.5277
   61MOL0     H 8195   3.358   7.927   2.893  0.9047 -2.1457 -0.0267
   61MOL0     H 8196   3.582   7.854   2.840  0.0486  0.8785 -2.0094
   61MOL0     H 8197   4.074   8.123   2.916  1.9355 -0.3327 -2.3457
   61MOL0     H 8198   4.302   8.086   2.890 -0.6829 -0.1755  2.7406
   61MOL0     H 8199   4.488   7.895   2.776  2.2826  1.6355 -0.5568
   61MOL0     H 8200   4.506   8.024   2.889 -0.8514  0.1983 -0.9077
   61MOL0     H 8201   4.720   7.937   2.833 -0.1077 -0.2038  0.3537
   61MOL0     H 8202   4.674   7.902   3.005 -3.2848  0.7105  1.2865
   61MOL0     H 8203   4.611   7.672   2.933 -2.0726 -0.4079 -2.2815
   61MOL0     H 8204   4.662   7.716   2.767 -0.9452  1.7611 -0.5502
   61MOL0     H 8205   4.890   7.779   2.852 -1.6454  0.7187  1.3174
   61MOL0     H 8206   4.853   7.616   2.819  0.3839 -0.0645  0.2867
   61MOL0     H 8207   4.822   7.557   3.056 -1.4623  0.4995  2.6343
   61MOL0     H 8208   4.801   7.719   3.111 -1.7551  0.1452 -1.3366
   61MOL0     H 8209   5.043   7.601   3.154  0.6981  1.7632  1.9266
   61MOL0     H 8210   5.070   7.639   2.992  0.3148 -0.8872  0.8946
   61MOL0     H 8211   5.071   7.873   3.021 -3.8738  1.3073  0.1636
   61MOL0     H 8212   5.157   7.802   3.160  1.0098 -0.6575 -0.7052
   61MOL0     H 8213   4.886   7.933   3.143 -0.2567  1.2572  2.0406
   61MOL0     H 8214   4.944   7.837   3.289 -0.3729 -0.2589  2.0120
   61MOL0     H 8215   4.236   7.691   3.077 -2.0124  0.0981  4.2750
   61MOL0     H 8216   4.043   7.744   3.126  1.9434 -0.7465  1.3045
   61MOL0     H 8217   3.712   8.088   3.188 -0.5589 -1.9903  2.1938
   61MOL0     H 8218   3.492   8.120   3.259 -0.2164 -1.4765 -0.3596
   61MOL0     H 8219   1.661   7.375   2.594 -1.5515  1.9552  1.2206
   61MOL0     H 8220   1.459   7.285   2.494  3.8368 -0.3695  2.5127
   61MOL0     H 8221   1.171   7.181   2.295  1.3184 -1.6678 -1.8877
   61MOL0     H 8222   0.978   7.044   2.225 -2.4323 -0.0429 -1.6886
   61MOL0     H 8223   0.687   7.254   2.095 -0.3107 -0.0597  2.7578
   61MOL0     H 8224   0.718   7.141   2.225 -0.7668  0.1458 -0.0147
   61MOL0     H 8225   0.487   7.150   2.117 -0.7799 -1.6424 -0.6352
   61MOL0     H 8226   0.560   6.993   2.131  0.9426 -1.2627 -0.0147
   61MOL0     H 8227   0.631   7.003   1.907  3.0155  1.3865  4.4297
   61MOL0     H 8228   0.578   7.170   1.868  0.9441 -1.5669 -1.6923
   61MOL0     H 8229   0.332   7.073   1.949 -1.9958  0.5610 -3.3735
   61MOL0     H 8230   0.388   7.012   1.798 -2.5496  1.6175  1.1001
   61MOL0     H 8231   0.384   6.664   2.021  2.0555 -0.1726  0.9261
   61MOL0     H 8232   0.871   7.324   1.934  3.6339  1.9716 -2.5572
   61MOL0     H 8233   1.184   7.506   1.946 -1.4054 -1.1662 -2.0949
   61MOL0     H 8234   1.022   7.518   1.879  1.5301 -3.6761 -1.5841
   61MOL0     H 8235   1.061   7.602   2.026  2.9888  0.3163  0.0428
   62MOL0     O 8236   6.752   9.136   5.549  0.1226  0.5185 -0.5012
   62MOL0     C 8237   6.652   9.209   5.546 -0.2447  0.7062  0.2620
   62MOL0     O 8238   6.636   9.331   5.591 -0.7154  0.4421 -0.3638
   62MOL0     C 8239   6.737   9.391   5.666  0.0165  0.2001  0.3726
   62MOL0     C 8240   6.746   9.361   5.804 -0.5132 -0.3602 -0.0284
   62MOL0     C 8241   6.834   9.443   5.878  0.5522  0.4216  0.3666
   62MOL0     C 8242   6.922   9.534   5.818  0.7166 -0.6514  0.1371
   62MOL0     O 8243   7.015   9.606   5.891 -0.3939  0.5077 -0.3478
   62MOL0     C 8244   6.961   9.710   5.968 -0.1498 -0.4270 -0.4404
   62MOL0     C 8245   6.972   9.858   5.909  0.2119  0.3298 -0.9357
   62MOL0     C 8246   7.116   9.890   5.867  0.2718  0.6741 -0.2186
   62MOL0     C 8247   7.191   9.976   5.977  0.7812  0.5711  0.7069
   62MOL0     C 8248   7.327  10.007   5.925 -1.2170 -0.0185  1.3209
   62MOL0     C 8249   7.417  10.077   6.028  0.4688  1.6341 -0.5021
   62MOL0     C 8250   7.560  10.110   5.988  0.0270 -0.5897  0.1673
   62MOL0     C 8251   7.632  10.147   6.117  0.0290 -0.2538  0.1682
   62MOL0     N 8252   7.761  10.207   6.107  0.4453 -0.1963 -0.0890
   62MOL0     C 8253   7.802  10.285   5.997 -0.7069 -0.7707 -0.3988
   62MOL0     C 8254   7.913  10.344   6.050 -0.5428  0.1427  0.5617
   62MOL0     C 8255   8.004  10.436   5.980  0.2271 -0.1054 -0.3257
   62MOL0     C 8256   8.137  10.364   5.969  0.1913 -0.8594 -0.0688
   62MOL0     C 8257   8.130  10.284   5.831 -0.1742 -0.3434  0.2171
   62MOL0     C 8258   8.082  10.140   5.840 -0.1737  0.0974  0.2901
   62MOL0     O 8259   8.100  10.059   5.715 -0.2080  0.2036  0.3177
   62MOL0     C 8260   8.227  10.062   5.660  0.6697 -0.1979  0.7788
   62MOL0     C 8261   8.244  10.071   5.524  0.7396  0.5264 -0.2358
   62MOL0     C 8262   8.369  10.078   5.461 -0.2669  0.5332 -0.4938
   62MOL0     C 8263   8.485  10.073   5.547 -0.7368 -0.2816  0.2621
   62MOL0     C 8264   8.616  10.068   5.492  0.6972 -0.3297 -0.3434
   62MOL0     O 8265   8.631  10.139   5.382 -0.8288  0.4107  0.3459
   62MOL0     C 8266   8.761  10.159   5.332 -0.3948  0.3614 -0.5033
   62MOL0     C 8267   8.878  10.178   5.410 -0.2079 -0.6612 -0.0250
   62MOL0     C 8268   8.998  10.210   5.351  0.0289 -0.4363 -0.6158
   62MOL0     C 8269   9.025  10.224   5.215 -0.7012  0.8012  0.7989
   62MOL0     O 8270   9.154  10.264   5.183 -0.2516  0.6998  0.8851
   62MOL0     C 8271   9.175  10.281   5.044 -0.7551 -0.2173  0.4179
   62MOL0     C 8272   9.327  10.290   5.020 -0.1054  0.1334 -0.9224
   62MOL0     C 8273   9.368  10.304   4.870  0.4022  0.1223  0.2889
   62MOL0     C 8274   9.369  10.455   4.830  0.5582  1.0442  0.4320
   62MOL0     C 8275   9.422  10.474   4.691  0.3918  0.1069 -0.4496
   62MOL0     C 8276   9.456  10.621   4.672 -0.5454  0.8408 -0.1209
   62MOL0     C 8277   9.514  10.655   4.540 -0.7491  0.4513  0.1230
   62MOL0     C 8278   9.547  10.790   4.536 -0.4076  0.3079 -0.1235
   62MOL0    Cl 8279   9.637  10.840   4.386 -0.0890  0.3006  0.0854
   62MOL0     C 8280   8.909  10.195   5.136  0.2202 -0.7602 -0.2263
   62MOL0     C 8281   8.772  10.175   5.194  0.1863  0.5876 -0.2111
   62MOL0     O 8282   8.698  10.005   5.550  0.0990 -0.1501 -0.2867
   62MOL0     C 8283   8.474  10.073   5.685  0.1587 -0.0400  0.2490
   62MOL0     C 8284   8.349  10.045   5.738  0.3831 -0.2968 -0.1585
   62MOL0     N 8285   7.928  10.311   6.183 -0.5089 -0.8102 -0.4245
   62MOL0     N 8286   7.837  10.233   6.219  0.3743 -0.0697 -0.0199
   62MOL0     C 8287   6.903   9.566   5.681  0.0853  0.6076  0.2123
   62MOL0     C 8288   6.815   9.484   5.604 -0.6299 -0.2541  1.5262
   62MOL0     C 8289   6.538   9.149   5.489  0.9721 -0.4919  0.3938
   62MOL0     C 8290   6.414   9.188   5.532  0.6761  0.3237  0.8748
   62MOL0     C 8291   6.296   9.145   5.475 -1.5146 -0.1920 -0.4057
   62MOL0     C 8292   6.297   9.040   5.387 -0.2833  0.3102  0.1332
   62MOL0     O 8293   6.172   8.989   5.346 -0.3022  0.7214  0.0517
   62MOL0     C 8294   6.167   8.911   5.223 -0.2608  0.6036  0.1923
   62MOL0     C 8295   6.014   8.880   5.200  0.4791 -0.5985  0.6014
   62MOL0     C 8296   5.928   8.859   5.324  1.1354  0.8911  0.9826
   62MOL0     C 8297   5.794   8.800   5.291  0.1413 -0.3030  0.2085
   62MOL0     C 8298   5.812   8.651   5.301  0.7353  0.3381  0.0407
   62MOL0     C 8299   5.825   8.530   5.309  0.2471 -0.2959  0.2831
   62MOL0     C 8300   6.420   8.987   5.335  0.3889  0.1595 -0.3047
   62MOL0     C 8301   6.539   9.040   5.390 -0.3230 -0.5340 -0.7808
   62MOL0     C 8302   6.663   8.967   5.340 -0.1823  0.9648  0.3982
   62MOL0     H 8303   6.687   9.286   5.856  0.1577 -0.1439  1.0692
   62MOL0     H 8304   6.846   9.430   5.985 -3.0440 -1.7440  0.6610
   62MOL0     H 8305   6.855   9.695   5.992  0.2628 -1.9105  0.6060
   62MOL0     H 8306   7.013   9.710   6.065 -0.8310 -1.9200 -0.0494
   62MOL0     H 8307   6.945   9.933   5.984 -1.2364 -0.2582 -0.8387
   62MOL0     H 8308   6.914   9.865   5.816  0.3316 -1.8917 -1.2282
   62MOL0     H 8309   7.105   9.941   5.771  1.9253  0.5229 -0.5140
   62MOL0     H 8310   7.172   9.798   5.848 -1.4056 -0.2964 -0.7202
   62MOL0     H 8311   7.140  10.066   6.012  1.4261  0.0028  3.3091
   62MOL0     H 8312   7.206   9.917   6.068 -0.2859  0.4126  0.7838
   62MOL0     H 8313   7.373   9.915   5.887  0.5956  1.2600  0.2149
   62MOL0     H 8314   7.326  10.063   5.831  2.1089 -0.7519  0.6910
   62MOL0     H 8315   7.369  10.171   6.057 -0.7841  1.3385 -1.4904
   62MOL0     H 8316   7.420  10.005   6.110 -0.9787  1.3681 -0.6530
   62MOL0     H 8317   7.549  10.201   5.927  2.5755  1.6710  2.7453
   62MOL0     H 8318   7.614  10.027   5.941 -1.7877  0.9841 -5.5313
   62MOL0     H 8319   7.573  10.222   6.169  2.7736  1.3184  1.2640
   62MOL0     H 8320   7.644  10.054   6.173 -1.0054  0.4172  1.5451
   62MOL0     H 8321   7.761  10.267   5.898 -0.3234 -0.8160 -0.5478
   62MOL0     H 8322   7.955  10.466   5.887  1.2907 -1.2730 -1.2841
   62MOL0     H 8323   8.014  10.534   6.028 -1.2769  0.8796 -1.9092
   62MOL0     H 8324   8.223  10.431   5.968 -0.5618  0.2721  2.7956
   62MOL0     H 8325   8.160  10.291   6.047 -0.3709 -3.7356 -2.3765
   62MOL0     H 8326   8.232  10.284   5.791  0.5557  0.6407  1.9445
   62MOL0     H 8327   8.076  10.329   5.747  2.0975 -1.4853 -2.0032
   62MOL0     H 8328   7.974  10.151   5.854 -0.8149  0.4905 -3.6831
   62MOL0     H 8329   8.123  10.085   5.925 -0.7272  0.4199  0.7656
   62MOL0     H 8330   8.149  10.085   5.473 -0.9965 -0.7881  2.4033
   62MOL0     H 8331   8.391  10.095   5.356 -0.1299  2.8024 -0.1324
   62MOL0     H 8332   8.874  10.182   5.518  0.1526  0.1940 -0.0373
   62MOL0     H 8333   9.091  10.225   5.405  0.0278 -1.8012 -0.2188
   62MOL0     H 8334   9.147  10.183   5.006  4.2163 -1.6590 -0.2934
   62MOL0     H 8335   9.119  10.357   4.989  1.5101  1.1338 -0.1364
   62MOL0     H 8336   9.376  10.374   5.070  1.6295 -0.3041 -1.7985
   62MOL0     H 8337   9.370  10.206   5.074  0.5594  1.2252  0.3133
   62MOL0     H 8338   9.468  10.261   4.863  0.0425 -0.4683 -1.6365
   62MOL0     H 8339   9.303  10.246   4.804  1.4107 -1.0725  0.3103
   62MOL0     H 8340   9.422  10.522   4.898  0.5006  0.4094  1.1132
   62MOL0     H 8341   9.267  10.495   4.823 -0.6384 -1.9357 -1.3089
   62MOL0     H 8342   9.342  10.450   4.621  0.7023  1.7364 -1.4317
   62MOL0     H 8343   9.513  10.419   4.666  1.0965  0.5946  0.9325
   62MOL0     H 8344   9.365  10.680   4.688 -2.3920 -2.1242  1.0769
   62MOL0     H 8345   9.531  10.648   4.746 -0.2979  0.3488 -0.1877
   62MOL0     H 8346   9.441  10.632   4.462  1.1799 -1.2571 -1.3001
   62MOL0     H 8347   9.598  10.591   4.511 -0.3974  0.7754  0.4165
   62MOL0     H 8348   9.451  10.838   4.559 -0.3834  0.4838 -0.3926
   62MOL0     H 8349   9.620  10.813   4.615 -1.4386  0.6796  0.7477
   62MOL0     H 8350   8.911  10.186   5.028 -0.8573  2.8962 -0.6946
   62MOL0     H 8351   8.691  10.154   5.126 -0.7781  1.2604  0.7067
   62MOL0     H 8352   8.563  10.082   5.748 -0.5048 -0.4818  1.2701
   62MOL0     H 8353   8.353  10.024   5.844 -3.0529 -2.4198 -0.2756
   62MOL0     H 8354   6.973   9.637   5.639 -0.1516  0.7569  0.0716
   62MOL0     H 8355   6.795   9.488   5.497  0.3190 -2.9037  1.1917
   62MOL0     H 8356   6.402   9.263   5.610 -0.7552  1.5823 -0.4858
   62MOL0     H 8357   6.202   9.184   5.515 -1.1371  0.2710  0.0361
   62MOL0     H 8358   6.220   8.816   5.234 -0.6340  0.4686  0.8834
   62MOL0     H 8359   6.214   8.961   5.138 -0.3556  0.6412  0.1618
   62MOL0     H 8360   6.006   8.797   5.129  1.5359 -2.0466  2.0836
   62MOL0     H 8361   5.967   8.963   5.147 -2.5064 -2.9075 -0.6624
   62MOL0     H 8362   5.902   8.958   5.363 -1.7707  1.3438 -1.7263
   62MOL0     H 8363   5.981   8.798   5.398  2.5756  1.1572  0.2105
   62MOL0     H 8364   5.718   8.833   5.363  0.3011 -0.6167  0.5238
   62MOL0     H 8365   5.765   8.834   5.191  0.3284  0.4201  0.3928
   62MOL0     H 8366   5.834   8.423   5.304 -1.0322 -0.3590 -1.2416
   62MOL0     H 8367   6.417   8.903   5.267 -1.4489  0.2862 -0.4466
   62MOL0     H 8368   6.719   8.926   5.425  0.4411  0.3091 -0.3164
   62MOL0     H 8369   6.635   8.880   5.281 -0.5505  0.5076  1.2313
   62MOL0     H 8370   6.717   9.033   5.272 -1.5339  1.2987 -0.3784
   63MOL0     O 8371   1.575   4.153  10.858  0.0347 -0.1472 -0.1986
   63MOL0     C 8372   1.530   4.188  10.742 -0.4252  0.3517  0.7912
   63MOL0     O 8373   1.578   4.278  10.657  0.4280 -0.7845  0.3767
   63MOL0     C 8374   1.690   4.358  10.670  0.2720  0.3122 -0.0414
   63MOL0     C 8375   1.756   4.400  10.554  0.1611 -0.2831  0.5591
   63MOL0     C 8376   1.883   4.467  10.548  1.1347  0.2126  0.0440
   63MOL0     C 8377   1.942   4.507  10.676  0.2125  0.4414 -0.6228
   63MOL0     O 8378   2.046   4.603  10.672 -0.1856  0.9758  0.0893
   63MOL0     C 8379   2.128   4.604  10.790  0.2782  0.0338 -0.3103
   63MOL0     C 8380   2.270   4.637  10.772  0.7290  0.0829  0.2811
   63MOL0     C 8381   2.345   4.540  10.672 -0.5405 -0.2912  1.2698
   63MOL0     C 8382   2.483   4.595  10.642 -1.0729 -0.5087  0.0321
   63MOL0     C 8383   2.598   4.549  10.738 -0.3352  0.0867  0.8999
   63MOL0     C 8384   2.733   4.629  10.709  1.0306 -0.1129 -0.0952
   63MOL0     C 8385   2.826   4.621  10.832 -0.4497  0.2582 -0.7066
   63MOL0     C 8386   2.970   4.624  10.785  0.1426  0.0420  0.4206
   63MOL0     N 8387   3.020   4.488  10.738  0.4634  0.3036  0.1309
   63MOL0     C 8388   3.134   4.427  10.764 -0.3713  0.4026 -0.6720
   63MOL0     C 8389   3.134   4.309  10.688  0.6058 -1.0804 -0.6067
   63MOL0     C 8390   3.233   4.193  10.683  0.0372 -0.0361 -0.2123
   63MOL0     C 8391   3.354   4.255  10.623  0.1667 -0.0815 -0.3844
   63MOL0     C 8392   3.465   4.166  10.587 -0.3617 -0.3880 -0.2411
   63MOL0     C 8393   3.592   4.238  10.547 -0.5572 -0.0920  0.5279
   63MOL0     O 8394   3.631   4.308  10.660  0.5336 -0.4197 -0.9411
   63MOL0     C 8395   3.724   4.413  10.644  0.5109  0.6667 -0.4705
   63MOL0     C 8396   3.807   4.430  10.535 -0.4503 -0.5310  0.1933
   63MOL0     C 8397   3.894   4.539  10.529 -0.1110 -0.3449  0.4299
   63MOL0     C 8398   3.907   4.628  10.631  0.1250 -0.1018  0.2834
   63MOL0     C 8399   4.002   4.741  10.614  0.6195 -0.7241  0.3004
   63MOL0     O 8400   4.039   4.813  10.725 -0.6653  0.1999 -0.0374
   63MOL0     C 8401   4.111   4.932  10.694 -0.1804 -0.9543  0.3238
   63MOL0     C 8402   4.041   5.056  10.704 -0.3429  0.0793  0.2954
   63MOL0     C 8403   4.110   5.172  10.675  0.4591 -0.5143  0.0319
   63MOL0     C 8404   4.248   5.173  10.641  0.6193 -0.7442 -0.6159
   63MOL0     O 8405   4.322   5.289  10.620 -0.4347  0.7387 -0.2261
   63MOL0     C 8406   4.251   5.414  10.588 -1.2286  0.3187 -0.6784
   63MOL0     C 8407   4.367   5.535  10.583  0.7719 -0.6561  1.2786
   63MOL0     C 8408   4.435   5.565  10.710  0.1540 -0.7433 -0.9875
   63MOL0     C 8409   4.584   5.506  10.723  0.1634 -0.0544 -0.3424
   63MOL0     C 8410   4.641   5.519  10.864 -0.0446  0.2348  1.2354
   63MOL0     C 8411   4.644   5.665  10.908  0.7410  0.7036  0.0062
   63MOL0     C 8412   4.721   5.672  11.042  0.5195 -0.1754 -0.4482
   63MOL0     C 8413   4.648   5.764  11.137 -1.0717 -0.3271 -0.0927
   63MOL0    Cl 8414   4.699   5.732  11.301  0.5044 -0.4100 -0.1255
   63MOL0     C 8415   4.320   5.054  10.646  0.2297  0.0283  0.2234
   63MOL0     C 8416   4.251   4.936  10.672  0.2912  0.3652 -0.1143
   63MOL0     O 8417   4.042   4.759  10.499 -0.3811 -0.4563 -0.2764
   63MOL0     C 8418   3.829   4.612  10.743  0.5211 -0.4269  0.5862
   63MOL0     C 8419   3.734   4.507  10.746  0.1498  0.7135 -0.3817
   63MOL0     N 8420   3.010   4.295  10.627  0.2921 -0.3954 -0.0424
   63MOL0     N 8421   2.943   4.405  10.660 -0.3826  0.5419 -0.0892
   63MOL0     C 8422   1.866   4.477  10.790 -0.2094  0.6100 -0.7910
   63MOL0     C 8423   1.749   4.399  10.786  1.1058  0.4990 -0.6469
   63MOL0     C 8424   1.401   4.142  10.695 -0.1019  0.9736 -1.1314
   63MOL0     C 8425   1.396   4.115  10.556  0.1569  0.1640 -0.5852
   63MOL0     C 8426   1.288   4.042  10.501 -0.9337 -0.1013 -0.2759
   63MOL0     C 8427   1.185   3.993  10.579  0.1529 -0.1300  0.6738
   63MOL0     O 8428   1.085   3.930  10.510 -0.2799  0.8408  0.1785
   63MOL0     C 8429   0.964   3.890  10.586 -0.0457  0.6326  0.9427
   63MOL0     C 8430   0.862   3.868  10.464 -0.5902 -0.1629  0.3897
   63MOL0     C 8431   0.826   4.003  10.399  0.5017 -0.7888  0.7421
   63MOL0     C 8432   0.707   3.985  10.303  0.2239 -0.9036  0.4138
   63MOL0     C 8433   0.737   3.888  10.199 -0.0193 -0.7017  0.7066
   63MOL0     C 8434   0.774   3.797  10.130 -0.0214  0.0376  0.0232
   63MOL0     C 8435   1.191   4.015  10.717  0.0112  0.4976  0.7729
   63MOL0     C 8436   1.295   4.096  10.775  0.1959 -0.5026  1.1194
   63MOL0     C 8437   1.289   4.117  10.925  1.0494  0.4735  0.9666
   63MOL0     H 8438   1.722   4.386  10.452 -1.1323  0.1307  0.9188
   63MOL0     H 8439   1.932   4.492  10.454 -1.8613  3.3368 -0.9117
   63MOL0     H 8440   2.086   4.685  10.851  0.0047 -1.1940  1.2026
   63MOL0     H 8441   2.128   4.510  10.847 -2.4594  0.2353  0.1269
   63MOL0     H 8442   2.331   4.623  10.862 -1.1182 -0.3404  1.5285
   63MOL0     H 8443   2.287   4.741  10.741  0.9741 -0.6598 -2.2892
   63MOL0     H 8444   2.291   4.538  10.577 -0.0687 -0.6322  1.0043
   63MOL0     H 8445   2.349   4.440  10.716  1.2842  0.2954  2.5515
   63MOL0     H 8446   2.518   4.579  10.540  0.3162 -0.4746  0.4766
   63MOL0     H 8447   2.478   4.704  10.653 -1.4273 -0.2690 -2.0477
   63MOL0     H 8448   2.563   4.567  10.840  1.4390  0.9795  1.3864
   63MOL0     H 8449   2.623   4.442  10.740 -0.3692  0.0786  0.8749
   63MOL0     H 8450   2.768   4.593  10.612 -0.7807  1.2566 -1.3500
   63MOL0     H 8451   2.715   4.736  10.695 -2.6798 -0.9722 -4.6054
   63MOL0     H 8452   2.811   4.522  10.878 -0.2459 -1.2940 -3.7391
   63MOL0     H 8453   2.801   4.694  10.910  2.2533 -0.9921  1.4904
   63MOL0     H 8454   2.982   4.712  10.721  1.3695  3.1951  4.5771
   63MOL0     H 8455   3.025   4.648  10.876 -1.0709 -1.9208  1.7560
   63MOL0     H 8456   3.214   4.468  10.825 -0.1763 -2.6169  1.3559
   63MOL0     H 8457   3.251   4.148  10.781 -0.8925 -0.5885 -0.2815
   63MOL0     H 8458   3.202   4.110  10.618  0.0395  0.1184 -0.4118
   63MOL0     H 8459   3.331   4.303  10.528 -0.1440 -0.1231 -0.3319
   63MOL0     H 8460   3.388   4.335  10.690 -3.1562 -0.3816  1.9381
   63MOL0     H 8461   3.445   4.095  10.505  1.4526  3.7063 -4.7182
   63MOL0     H 8462   3.492   4.127  10.686  1.9682  1.6893  0.0463
   63MOL0     H 8463   3.582   4.297  10.456 -1.4315 -3.5344 -1.8178
   63MOL0     H 8464   3.664   4.157  10.529 -0.9887 -0.3460 -0.0926
   63MOL0     H 8465   3.799   4.379  10.439 -0.2575  0.3632 -0.3072
   63MOL0     H 8466   3.949   4.550  10.437 -1.1290 -1.0902 -0.2840
   63MOL0     H 8467   3.933   5.051  10.711 -0.4070 -1.1812 -1.1563
   63MOL0     H 8468   4.062   5.268  10.686  0.4467 -0.5111 -0.0469
   63MOL0     H 8469   4.197   5.391  10.495 -4.1247 -3.8596  1.6885
   63MOL0     H 8470   4.179   5.432  10.668 -1.3991 -2.6513 -0.0520
   63MOL0     H 8471   4.437   5.514  10.502  0.4565  2.2899  0.1389
   63MOL0     H 8472   4.314   5.626  10.555  2.3561  0.2165  0.9715
   63MOL0     H 8473   4.437   5.674  10.722 -0.3997 -0.9850  2.4060
   63MOL0     H 8474   4.377   5.539  10.799  1.1412 -2.2356 -0.7518
   63MOL0     H 8475   4.641   5.560  10.647 -1.2469  1.0344 -0.6617
   63MOL0     H 8476   4.592   5.398  10.708 -3.1403 -0.4606  0.0708
   63MOL0     H 8477   4.742   5.480  10.873  1.8285  3.4271 -2.5568
   63MOL0     H 8478   4.585   5.457  10.935  1.3956 -1.4427  0.9701
   63MOL0     H 8479   4.679   5.730  10.827 -2.6158  0.3267 -1.9601
   63MOL0     H 8480   4.545   5.709  10.926  0.2342 -0.0188 -0.8847
   63MOL0     H 8481   4.818   5.711  11.010  0.4250  0.1805 -0.3109
   63MOL0     H 8482   4.717   5.575  11.091  0.0503  0.6504  1.2505
   63MOL0     H 8483   4.663   5.870  11.115  0.1679 -0.0199  2.0397
   63MOL0     H 8484   4.540   5.744  11.133 -2.0271  3.9079 -0.7687
   63MOL0     H 8485   4.425   5.050  10.616 -0.7085  0.7952 -3.7925
   63MOL0     H 8486   4.294   4.837  10.669  0.9611  0.6072  0.8334
   63MOL0     H 8487   3.840   4.677  10.829  5.8075 -0.9324  0.6076
   63MOL0     H 8488   3.671   4.503  10.834  1.2399  2.1166  0.5122
   63MOL0     H 8489   1.904   4.516  10.884 -0.1745 -0.6432 -0.2675
   63MOL0     H 8490   1.708   4.376  10.883  3.7526 -0.7978  0.2714
   63MOL0     H 8491   1.466   4.149  10.480  0.4880 -1.2011 -0.9173
   63MOL0     H 8492   1.279   4.035  10.393 -2.8363  1.8058 -0.3088
   63MOL0     H 8493   0.921   3.962  10.656  0.2281  0.3905  1.3698
   63MOL0     H 8494   0.978   3.791  10.630  1.3555  0.7377  0.7545
   63MOL0     H 8495   0.780   3.803  10.496 -0.8961 -0.9745 -1.9249
   63MOL0     H 8496   0.921   3.818  10.387  1.4215  0.6952  1.3063
   63MOL0     H 8497   0.907   4.050  10.343 -1.4606 -0.6964 -2.2387
   63MOL0     H 8498   0.795   4.077  10.473 -1.5310  0.1808 -0.9704
   63MOL0     H 8499   0.625   3.949  10.366 -0.9607 -0.3286 -0.7415
   63MOL0     H 8500   0.670   4.083  10.272 -2.2498 -1.2773  1.8803
   63MOL0     H 8501   0.804   3.717  10.066 -0.2958  1.9708 -2.7020
   63MOL0     H 8502   1.113   3.976  10.781  0.6790 -1.3702  0.5198
   63MOL0     H 8503   1.343   4.206  10.959  0.4966  1.0079  0.4711
   63MOL0     H 8504   1.183   4.126  10.952  0.8079  1.9194 -0.3319
   63MOL0     H 8505   1.340   4.029  10.967 -0.0514 -1.2845 -1.1901
   64MOL0     O 8506   8.800   1.481   0.418 -0.7227  0.0860 -0.3568
   64MOL0     C 8507   8.683   1.506   0.399 -0.4664 -0.5868 -0.5865
   64MOL0     O 8508   8.634   1.588   0.297 -0.1820  0.8184 -0.8068
   64MOL0     C 8509   8.726   1.674   0.253 -0.7269 -0.6119 -0.0594
   64MOL0     C 8510   8.825   1.646   0.164  0.0627  0.1527  0.1701
   64MOL0     C 8511   8.914   1.745   0.116  0.0612  0.2738  0.4235
   64MOL0     C 8512   8.901   1.884   0.156  0.0668  0.4675  0.3304
   64MOL0     O 8513   8.978   1.989   0.104 -0.1830  0.6852 -0.4631
   64MOL0     C 8514   9.051   1.973  -0.016  0.4755  0.0045 -0.8380
   64MOL0     C 8515   9.081   2.117  -0.075  1.0458  0.4672  0.6693
   64MOL0     C 8516   9.212   2.173  -0.014  0.0289  0.4590  0.7204
   64MOL0     C 8517   9.269   2.298  -0.091  0.3520  0.0407  0.0106
   64MOL0     C 8518   9.421   2.314  -0.064  0.3726 -0.8050  0.2817
   64MOL0     C 8519   9.466   2.447  -0.107 -0.4572  0.3254  0.0661
   64MOL0     C 8520   9.615   2.463  -0.127  0.3356  0.0107  0.2932
   64MOL0     C 8521   9.717   2.393  -0.047 -0.5310  0.2036  0.0191
   64MOL0     N 8522   9.859   2.444  -0.076 -0.2224  0.8668  0.1328
   64MOL0     C 8523   9.931   2.528  -0.001 -0.3870 -0.1062 -0.9832
   64MOL0     C 8524  10.042   2.562  -0.067 -0.4409  0.1016  0.4621
   64MOL0     C 8525  10.158   2.640  -0.023 -0.2755  0.1796 -1.0094
   64MOL0     C 8526  10.203   2.736  -0.132 -0.1334  0.0435 -0.3698
   64MOL0     C 8527  10.306   2.681  -0.233  0.2340  0.2054 -0.0718
   64MOL0     C 8528  10.347   2.790  -0.328  0.4656 -1.3378  0.4729
   64MOL0     O 8529  10.420   2.892  -0.255  0.8398 -0.0378  0.2692
   64MOL0     C 8530  10.555   2.877  -0.269 -0.3644 -0.4430 -0.6065
   64MOL0     C 8531  10.617   2.796  -0.179 -0.5196  0.4752 -0.4937
   64MOL0     C 8532  10.752   2.782  -0.192 -0.8009  0.3949 -0.0086
   64MOL0     C 8533  10.828   2.873  -0.271  0.7603  0.1873 -0.0114
   64MOL0     C 8534  10.973   2.877  -0.270  0.0205  0.3253 -0.1222
   64MOL0     O 8535  11.039   2.764  -0.222  0.6171  0.0244  0.4526
   64MOL0     C 8536  11.174   2.761  -0.197 -0.0640 -0.0119 -0.5954
   64MOL0     C 8537  11.277   2.805  -0.283 -0.7457 -0.2003  0.7044
   64MOL0     C 8538  11.412   2.778  -0.267 -0.7556  0.1990  0.0282
   64MOL0     C 8539  11.444   2.696  -0.157 -0.6685  0.3930  0.1653
   64MOL0     O 8540  11.580   2.662  -0.145 -0.0752  0.7085  0.3233
   64MOL0     C 8541  11.654   2.741  -0.044  1.0424 -0.0993  0.4169
   64MOL0     C 8542  11.787   2.667  -0.037 -0.2564 -0.4087  0.1977
   64MOL0     C 8543  11.884   2.733   0.053  0.3551 -0.1047 -0.1110
   64MOL0     C 8544  12.017   2.668   0.048 -0.5417 -0.5489  1.4052
   64MOL0     C 8545  12.107   2.727   0.160 -0.1106 -0.1682  0.2086
   64MOL0     C 8546  12.247   2.674   0.156  0.4731 -0.0924 -0.0368
   64MOL0     C 8547  12.328   2.729   0.037 -0.1836  0.0865  0.5083
   64MOL0     C 8548  12.466   2.661   0.024 -0.3024 -0.2422  0.2321
   64MOL0    Cl 8549  12.572   2.753  -0.094 -0.1578 -0.4612 -0.1568
   64MOL0     C 8550  11.351   2.669  -0.056  0.9336 -0.6837  0.3246
   64MOL0     C 8551  11.214   2.704  -0.070 -0.4861  0.2546  0.0372
   64MOL0     O 8552  11.027   2.981  -0.306  0.3446 -0.3903 -0.0562
   64MOL0     C 8553  10.756   2.970  -0.350  0.0561  0.0718  0.7225
   64MOL0     C 8554  10.615   2.966  -0.352 -0.6457 -0.1885 -0.5087
   64MOL0     N 8555  10.047   2.476  -0.173 -0.1086 -0.8796  0.1868
   64MOL0     N 8556   9.940   2.406  -0.180  0.0267  0.0319  0.3322
   64MOL0     C 8557   8.804   1.913   0.244  0.0855  0.3947 -0.5844
   64MOL0     C 8558   8.717   1.810   0.299  0.4343 -0.2608  0.1204
   64MOL0     C 8559   8.580   1.419   0.452  0.2848 -0.2544  0.3172
   64MOL0     C 8560   8.442   1.463   0.436 -0.3533 -0.4452  0.3725
   64MOL0     C 8561   8.338   1.387   0.489  0.0477  0.3344  0.2967
   64MOL0     C 8562   8.360   1.275   0.568  0.1328 -0.6846  0.1064
   64MOL0     O 8563   8.256   1.202   0.623 -0.2922  0.0608  0.8147
   64MOL0     C 8564   8.183   1.123   0.533  0.3490  0.1689  0.3684
   64MOL0     C 8565   8.075   1.032   0.605 -0.2812  0.1412 -0.1372
   64MOL0     C 8566   7.971   1.133   0.668 -0.4821 -0.2949  0.2825
   64MOL0     C 8567   7.833   1.124   0.609 -0.1502  0.9002 -0.3817
   64MOL0     C 8568   7.745   1.025   0.681 -0.2843 -0.0572 -0.0336
   64MOL0     C 8569   7.672   0.944   0.732 -0.2959 -0.3269 -0.0044
   64MOL0     C 8570   8.491   1.230   0.583  0.0795 -0.3936  0.4156
   64MOL0     C 8571   8.601   1.304   0.528  0.0215 -0.1694  0.3493
   64MOL0     C 8572   8.737   1.230   0.536  0.2215 -0.5747 -0.3926
   64MOL0     H 8573   8.845   1.544   0.132 -0.4177  0.9725 -3.0759
   64MOL0     H 8574   8.986   1.710   0.044 -0.0213 -1.7322  1.2547
   64MOL0     H 8575   9.131   1.901   0.005 -1.2774 -1.4680  1.2782
   64MOL0     H 8576   8.976   1.937  -0.086 -1.7426  0.5487  1.1184
   64MOL0     H 8577   8.997   2.185  -0.055  1.2455  1.2417 -0.9530
   64MOL0     H 8578   9.097   2.110  -0.183  3.5800 -0.4302  1.0477
   64MOL0     H 8579   9.281   2.089  -0.004  1.2076  1.5361  2.2327
   64MOL0     H 8580   9.181   2.197   0.088 -0.4117  0.4355  0.5942
   64MOL0     H 8581   9.240   2.295  -0.196  1.8231 -1.3015 -0.3845
   64MOL0     H 8582   9.210   2.380  -0.048 -1.3500 -0.4103 -1.3671
   64MOL0     H 8583   9.446   2.302   0.042  1.2457 -0.2813  0.1434
   64MOL0     H 8584   9.464   2.224  -0.108 -0.3982 -1.1991  0.3047
   64MOL0     H 8585   9.411   2.480  -0.195 -2.4364 -0.9541  0.7555
   64MOL0     H 8586   9.433   2.513  -0.026  0.8642  3.8204 -2.0410
   64MOL0     H 8587   9.628   2.571  -0.110  0.2393 -0.0268  0.6011
   64MOL0     H 8588   9.644   2.450  -0.232  0.0810  0.8893  0.1064
   64MOL0     H 8589   9.698   2.390   0.061 -5.2643 -2.0408 -0.5992
   64MOL0     H 8590   9.711   2.287  -0.073 -2.1833  0.0319  0.9215
   64MOL0     H 8591   9.911   2.549   0.104  3.2345 -0.6061 -0.0695
   64MOL0     H 8592  10.129   2.706   0.059  1.7109 -1.9080  1.5757
   64MOL0     H 8593  10.240   2.575   0.009 -2.1396 -1.4240  0.8264
   64MOL0     H 8594  10.118   2.789  -0.176 -0.5470 -0.2786  0.0385
   64MOL0     H 8595  10.260   2.810  -0.074 -1.8064  0.7093  0.5212
   64MOL0     H 8596  10.262   2.599  -0.292 -2.2036  1.9907 -0.9064
   64MOL0     H 8597  10.392   2.642  -0.178  0.9285 -1.6398 -2.2788
   64MOL0     H 8598  10.258   2.838  -0.369  0.7784 -1.2417 -0.1105
   64MOL0     H 8599  10.401   2.750  -0.414  0.6616  0.2491 -0.1911
   64MOL0     H 8600  10.556   2.763  -0.095  0.0753  0.8954  0.1095
   64MOL0     H 8601  10.802   2.711  -0.126 -0.5805 -0.0635 -0.6534
   64MOL0     H 8602  11.248   2.862  -0.371  0.2361 -0.8339 -0.0517
   64MOL0     H 8603  11.482   2.809  -0.344  1.1863  1.1268  2.0568
   64MOL0     H 8604  11.670   2.844  -0.077 -1.1077 -0.6374 -2.7833
   64MOL0     H 8605  11.587   2.741   0.042  1.0373  0.2859  0.4125
   64MOL0     H 8606  11.760   2.564  -0.012 -0.4543 -0.2303  0.7190
   64MOL0     H 8607  11.831   2.658  -0.137 -0.0440 -1.1248  0.3475
   64MOL0     H 8608  11.868   2.841   0.054  1.4737  0.0672  0.1879
   64MOL0     H 8609  11.850   2.709   0.154  1.4114  1.6367  0.7049
   64MOL0     H 8610  12.070   2.681  -0.047 -0.4477 -3.1885  1.0265
   64MOL0     H 8611  12.003   2.560   0.061 -1.8110 -0.6143 -0.2648
   64MOL0     H 8612  12.070   2.698   0.258 -2.2852 -2.3297 -1.1251
   64MOL0     H 8613  12.122   2.835   0.155 -1.3542  0.0353  0.6304
   64MOL0     H 8614  12.305   2.700   0.245  0.6671  0.2357 -0.2539
   64MOL0     H 8615  12.236   2.565   0.148 -2.7225  0.1285 -0.1481
   64MOL0     H 8616  12.340   2.838   0.034 -0.5619  0.1206 -0.8587
   64MOL0     H 8617  12.275   2.700  -0.055 -1.2927 -0.5796  1.3377
   64MOL0     H 8618  12.521   2.656   0.118 -0.2956 -3.2954  0.1667
   64MOL0     H 8619  12.460   2.558  -0.015  2.2567 -1.3600  2.4866
   64MOL0     H 8620  11.386   2.618   0.033  1.0977 -0.3110  0.4766
   64MOL0     H 8621  11.136   2.666  -0.006  0.9919 -2.4804  0.3597
   64MOL0     H 8622  10.813   3.042  -0.407  2.8894 -1.8961  0.8947
   64MOL0     H 8623  10.559   3.036  -0.413  1.2827 -0.5346 -2.8742
   64MOL0     H 8624   8.792   2.016   0.276 -0.0870  0.4782 -0.9080
   64MOL0     H 8625   8.638   1.826   0.371 -0.1747 -0.8470 -0.3973
   64MOL0     H 8626   8.417   1.558   0.389 -0.4893 -1.7800 -2.4501
   64MOL0     H 8627   8.239   1.423   0.463  0.4889  2.1136  0.9751
   64MOL0     H 8628   8.258   1.056   0.490 -0.2753  1.8501 -3.8266
   64MOL0     H 8629   8.131   1.178   0.453  2.2629  0.4979 -0.7201
   64MOL0     H 8630   8.129   0.962   0.669  2.7226  3.3205  1.1643
   64MOL0     H 8631   8.026   0.968   0.531  1.1596 -1.6676  0.3990
   64MOL0     H 8632   8.010   1.235   0.662 -0.3082 -0.4383 -1.5301
   64MOL0     H 8633   7.985   1.107   0.774  1.1688 -1.7119 -0.2351
   64MOL0     H 8634   7.797   1.228   0.611 -2.2634  0.3359 -2.9129
   64MOL0     H 8635   7.830   1.109   0.501 -0.9017  1.8197 -0.5055
   64MOL0     H 8636   7.615   0.872   0.787  1.3484 -0.2523  1.9161
   64MOL0     H 8637   8.512   1.135   0.632  1.7834 -1.0948 -1.5298
   64MOL0     H 8638   8.745   1.176   0.441 -1.4489  0.2085 -1.0199
   64MOL0     H 8639   8.826   1.290   0.556  0.2917 -0.4602 -1.0388
   64MOL0     H 8640   8.729   1.147   0.606  2.4870  0.7668  1.6200
   65MOL0     O 8641   9.489   3.845   6.754  0.8707  0.2497 -0.0528
   65MOL0     C 8642   9.507   3.918   6.856 -0.2455 -0.5090  0.6880
   65MOL0     O 8643   9.626   3.943   6.910  0.0936  0.0904 -0.2911
   65MOL0     C 8644   9.738   3.927   6.829  0.0208  0.2409  0.0716
   65MOL0     C 8645   9.773   3.803   6.776  0.3563 -0.3342  0.3500
   65MOL0     C 8646   9.869   3.784   6.675 -0.1110 -0.3199  0.0916
   65MOL0     C 8647   9.946   3.894   6.635 -0.0635  0.0703 -0.5875
   65MOL0     O 8648  10.031   3.858   6.543 -0.4030 -0.3719  0.4984
   65MOL0     C 8649  10.109   3.963   6.488 -0.3247 -0.7358  1.1945
   65MOL0     C 8650  10.149   3.909   6.355 -0.0303  0.6910 -0.2189
   65MOL0     C 8651  10.267   3.976   6.291  0.2607  0.1884  0.4894
   65MOL0     C 8652  10.238   4.117   6.243  0.2372  0.4505  0.1394
   65MOL0     C 8653  10.366   4.206   6.235  0.3014 -0.3286 -0.5557
   65MOL0     C 8654  10.454   4.185   6.115  0.4866 -0.2704  0.5051
   65MOL0     C 8655  10.566   4.284   6.095  0.4925 -0.7244  0.0743
   65MOL0     C 8656  10.631   4.265   5.952  0.1853  0.2408  1.1399
   65MOL0     N 8657  10.720   4.384   5.933 -0.2794  0.5669 -0.9652
   65MOL0     C 8658  10.838   4.415   5.993  0.7463  0.4522 -0.5980
   65MOL0     C 8659  10.882   4.533   5.937 -1.0120  0.5662  0.2013
   65MOL0     C 8660  11.008   4.609   5.975 -0.0067 -0.6939 -0.0642
   65MOL0     C 8661  11.114   4.515   6.036  0.1233  0.0963 -0.2833
   65MOL0     C 8662  11.226   4.618   6.076 -0.2375  0.6753  0.0015
   65MOL0     C 8663  11.359   4.546   6.133  0.8321 -0.6927  0.2709
   65MOL0     O 8664  11.439   4.495   6.021  0.3123  0.4693 -0.5986
   65MOL0     C 8665  11.569   4.459   6.049 -0.1157  0.5726 -0.7111
   65MOL0     C 8666  11.648   4.443   5.939 -0.2449 -0.6285 -0.5085
   65MOL0     C 8667  11.783   4.414   5.961 -0.1198  0.5687  0.1345
   65MOL0     C 8668  11.837   4.392   6.084  0.1433  0.3423  0.7413
   65MOL0     C 8669  11.979   4.366   6.103 -0.5723 -0.2521  0.6675
   65MOL0     O 8670  12.055   4.381   5.994  0.3549 -0.6527  0.2082
   65MOL0     C 8671  12.184   4.323   5.986 -0.1904 -0.5179 -1.0431
   65MOL0     C 8672  12.275   4.316   6.095  0.5449  0.9358 -0.6812
   65MOL0     C 8673  12.390   4.250   6.074 -0.3510 -0.8767  0.6570
   65MOL0     C 8674  12.432   4.204   5.943  0.2052 -0.9977 -0.4809
   65MOL0     O 8675  12.547   4.152   5.905 -0.5176 -0.4898 -0.1988
   65MOL0     C 8676  12.635   4.131   6.014 -0.4537  0.4623 -0.4738
   65MOL0     C 8677  12.771   4.097   5.966 -1.7010  0.1336  0.5993
   65MOL0     C 8678  12.874   4.058   6.076 -0.1953 -0.3571  0.1527
   65MOL0     C 8679  13.009   3.995   6.039  0.0782 -0.1457  0.3181
   65MOL0     C 8680  13.110   4.109   6.021 -0.3502  0.1383 -0.2883
   65MOL0     C 8681  13.247   4.048   6.013 -0.3108 -0.6597 -0.0735
   65MOL0     C 8682  13.352   4.160   6.005  0.5274  0.8871 -0.8778
   65MOL0     C 8683  13.486   4.108   5.951 -0.2143  0.0955  0.2802
   65MOL0    Cl 8684  13.628   4.226   5.974  0.1447  0.1992 -0.1439
   65MOL0     C 8685  12.334   4.214   5.837 -0.3420 -0.0579  0.2180
   65MOL0     C 8686  12.214   4.274   5.862  0.6735  0.7442  0.3658
   65MOL0     O 8687  12.012   4.324   6.210 -0.4464  0.0363 -0.5226
   65MOL0     C 8688  11.754   4.408   6.196  0.0275 -0.9660 -0.0185
   65MOL0     C 8689  11.617   4.424   6.181 -0.1762 -0.9506 -0.5310
   65MOL0     N 8690  10.801   4.563   5.831  0.1047  0.4821 -0.9574
   65MOL0     N 8691  10.699   4.477   5.832 -0.3919 -0.1357  0.1223
   65MOL0     C 8692   9.917   4.018   6.688  0.4935  0.1743 -0.4027
   65MOL0     C 8693   9.804   4.039   6.775 -0.0082  0.3552 -0.6423
   65MOL0     C 8694   9.396   3.973   6.936  0.1067  0.5812 -0.4533
   65MOL0     C 8695   9.423   4.054   7.049  0.2604  1.0113  0.2753
   65MOL0     C 8696   9.310   4.100   7.126  0.2952 -0.5773  0.0381
   65MOL0     C 8697   9.182   4.077   7.099  0.1103  0.5901  0.5586
   65MOL0     O 8698   9.080   4.127   7.173 -0.4105  1.0734  0.1957
   65MOL0     C 8699   9.039   4.256   7.136 -0.2893 -0.0536 -0.9449
   65MOL0     C 8700   9.032   4.345   7.267  0.2559  0.1578 -0.0733
   65MOL0     C 8701   8.912   4.299   7.349 -1.1841 -0.2919  0.3095
   65MOL0     C 8702   8.856   4.416   7.433  0.0711  0.3893  0.3594
   65MOL0     C 8703   8.718   4.399   7.469  1.3121  0.3393 -0.0293
   65MOL0     C 8704   8.603   4.390   7.497 -0.4373 -0.9311 -0.5480
   65MOL0     C 8705   9.159   3.984   6.991 -0.0785 -0.9261 -0.0037
   65MOL0     C 8706   9.259   3.934   6.909  0.2393  0.4759  1.4801
   65MOL0     C 8707   9.213   3.849   6.783 -0.9085  0.3933 -0.6422
   65MOL0     H 8708   9.718   3.718   6.815 -0.6656  0.2360  0.1868
   65MOL0     H 8709   9.893   3.684   6.642  4.4607  0.7549 -0.5670
   65MOL0     H 8710  10.053   4.056   6.473 -0.2742 -1.0405 -1.3589
   65MOL0     H 8711  10.193   3.998   6.548  0.9686  0.2717 -1.0678
   65MOL0     H 8712  10.056   3.920   6.299 -1.3462 -1.8134  1.2695
   65MOL0     H 8713  10.173   3.803   6.369 -0.7586  0.6197  0.5756
   65MOL0     H 8714  10.301   3.912   6.210  2.6800  0.3033  1.3545
   65MOL0     H 8715  10.344   3.982   6.369  0.8689 -0.5720 -0.0469
   65MOL0     H 8716  10.184   4.116   6.148  1.8132  0.8796 -0.7959
   65MOL0     H 8717  10.162   4.165   6.306 -2.0380 -1.4704 -0.9581
   65MOL0     H 8718  10.339   4.312   6.241 -2.3216 -0.9099 -0.6452
   65MOL0     H 8719  10.429   4.176   6.319  0.0020 -1.9666 -0.8867
   65MOL0     H 8720  10.498   4.086   6.129  0.7346 -0.5107 -1.7117
   65MOL0     H 8721  10.396   4.183   6.023  2.0691 -0.6433 -0.5210
   65MOL0     H 8722  10.644   4.270   6.171 -0.2852  2.0517  1.5369
   65MOL0     H 8723  10.529   4.387   6.103  0.1312 -0.7658 -0.9270
   65MOL0     H 8724  10.694   4.176   5.953  1.5746  1.1146 -1.2141
   65MOL0     H 8725  10.552   4.258   5.876 -0.5474  0.4458  1.8644
   65MOL0     H 8726  10.870   4.360   6.082 -0.8326 -3.1000 -2.0245
   65MOL0     H 8727  11.051   4.659   5.888 -4.4249  1.7755 -1.1337
   65MOL0     H 8728  10.974   4.678   6.053  1.5691  0.9367 -0.7344
   65MOL0     H 8729  11.079   4.459   6.122 -1.6260  1.0734 -0.3224
   65MOL0     H 8730  11.149   4.439   5.966 -0.6187 -2.4095  1.9413
   65MOL0     H 8731  11.184   4.686   6.151 -1.0717  0.1042  0.0694
   65MOL0     H 8732  11.257   4.675   5.988 -2.4737  0.3764 -1.0235
   65MOL0     H 8733  11.332   4.466   6.202  0.4082 -1.5245 -0.8344
   65MOL0     H 8734  11.423   4.627   6.169 -1.1934  2.3316 -2.3723
   65MOL0     H 8735  11.609   4.461   5.840 -0.6693  1.1312 -0.0482
   65MOL0     H 8736  11.843   4.399   5.872  0.0240  2.0867 -0.0455
   65MOL0     H 8737  12.256   4.353   6.195  1.9555 -2.8851  1.2069
   65MOL0     H 8738  12.459   4.238   6.157  1.4529 -0.2149 -0.6826
   65MOL0     H 8739  12.652   4.223   6.069 -1.6328 -0.3333  1.3043
   65MOL0     H 8740  12.594   4.053   6.079  0.1305  1.1102  0.7123
   65MOL0     H 8741  12.760   4.016   5.893  0.5594  0.4177 -0.1418
   65MOL0     H 8742  12.818   4.181   5.914  0.6334 -0.0863  2.2206
   65MOL0     H 8743  12.893   4.140   6.146  2.0251  1.0643 -1.9618
   65MOL0     H 8744  12.820   3.975   6.122 -1.2102  0.3894  0.3366
   65MOL0     H 8745  13.006   3.937   5.946  0.8028 -1.6281  1.1762
   65MOL0     H 8746  13.040   3.930   6.121 -3.7037  1.7128  3.5420
   65MOL0     H 8747  13.099   4.182   6.102 -1.4661  2.0927 -2.1057
   65MOL0     H 8748  13.091   4.168   5.930 -0.2786  0.2995 -0.1988
   65MOL0     H 8749  13.266   3.994   6.105  2.7712  2.4461  1.3545
   65MOL0     H 8750  13.260   3.980   5.928 -0.0551  1.5332 -1.8932
   65MOL0     H 8751  13.355   4.212   6.101  1.2582 -0.4804 -0.1181
   65MOL0     H 8752  13.307   4.227   5.932 -1.5066 -1.6409 -2.1433
   65MOL0     H 8753  13.510   4.024   6.017  0.7294  0.6034  0.6030
   65MOL0     H 8754  13.495   4.073   5.847  0.2231  2.4676 -0.5445
   65MOL0     H 8755  12.366   4.179   5.739  3.2652  0.5189  1.0171
   65MOL0     H 8756  12.141   4.297   5.784  2.1108 -1.3344 -1.7393
   65MOL0     H 8757  11.797   4.415   6.295  1.3792  0.2889 -0.6629
   65MOL0     H 8758  11.559   4.429   6.273 -0.2027  0.8730 -0.6059
   65MOL0     H 8759   9.989   4.097   6.670  0.9687 -0.1438  0.0850
   65MOL0     H 8760   9.783   4.141   6.806 -2.8669 -0.3524 -0.0126
   65MOL0     H 8761   9.525   4.084   7.071  1.3689 -2.1364 -0.0520
   65MOL0     H 8762   9.336   4.152   7.218 -0.0625 -1.1370  0.4686
   65MOL0     H 8763   8.948   4.255   7.075  1.0800  0.6218 -3.0940
   65MOL0     H 8764   9.114   4.292   7.066 -2.1724 -1.4814 -3.9202
   65MOL0     H 8765   9.030   4.451   7.237  0.4924  0.5065  1.0924
   65MOL0     H 8766   9.125   4.331   7.322 -0.0737 -0.9418  0.2201
   65MOL0     H 8767   8.947   4.212   7.406 -1.9387 -2.7368 -2.6494
   65MOL0     H 8768   8.831   4.272   7.280  1.8487 -0.3524 -3.6057
   65MOL0     H 8769   8.917   4.436   7.522 -2.2572 -0.0718  2.1925
   65MOL0     H 8770   8.866   4.503   7.368  0.6587 -0.3216 -0.5223
   65MOL0     H 8771   8.506   4.374   7.539  0.6299 -2.4969  1.4737
   65MOL0     H 8772   9.060   3.955   6.957  0.8518 -0.9692 -2.9609
   65MOL0     H 8773   9.268   3.882   6.695  1.7069 -0.4552  0.5664
   65MOL0     H 8774   9.254   3.750   6.806 -1.0099  0.3642 -0.5852
   65MOL0     H 8775   9.105   3.849   6.767 -0.9389  1.5992 -0.5060
   66MOL0     O 8776   1.855   2.591   0.918  0.2770 -0.0284  0.6981
   66MOL0     C 8777   1.830   2.590   1.035 -0.3114  1.3770 -0.7023
   66MOL0     O 8778   1.921   2.593   1.134 -1.2533  0.4341  0.2663
   66MOL0     C 8779   2.050   2.616   1.086  0.7091  0.0738 -0.6513
   66MOL0     C 8780   2.093   2.735   1.016  0.6948  0.4283  0.6949
   66MOL0     C 8781   2.231   2.731   0.987 -0.2244  0.7848 -0.1614
   66MOL0     C 8782   2.324   2.635   1.035 -0.9274  0.3143 -1.1444
   66MOL0     O 8783   2.458   2.643   1.002 -0.2304  0.6922 -0.2000
   66MOL0     C 8784   2.557   2.598   1.091  0.1234  0.7285  0.0975
   66MOL0     C 8785   2.533   2.663   1.230 -0.0788  1.0210 -0.0196
   66MOL0     C 8786   2.666   2.637   1.313  0.0313  0.1816  0.0638
   66MOL0     C 8787   2.707   2.491   1.345  0.1634  0.3864  0.0367
   66MOL0     C 8788   2.850   2.481   1.398  0.3996  0.2747  0.2376
   66MOL0     C 8789   2.906   2.344   1.431  0.6923  0.1566  0.2840
   66MOL0     C 8790   3.052   2.355   1.475  0.0512 -0.3083 -0.7718
   66MOL0     C 8791   3.102   2.211   1.495 -0.3989 -0.4778  0.2265
   66MOL0     N 8792   3.248   2.226   1.518 -0.1361  0.7588  0.7949
   66MOL0     C 8793   3.313   2.139   1.610  0.3538 -0.4788 -0.8554
   66MOL0     C 8794   3.438   2.190   1.619  0.0721 -1.2556  1.1469
   66MOL0     C 8795   3.538   2.147   1.719 -0.0729  0.0727  0.6316
   66MOL0     C 8796   3.619   2.023   1.672  0.8079 -0.0498  0.0483
   66MOL0     C 8797   3.553   1.907   1.747 -0.6534  0.3449  0.7746
   66MOL0     C 8798   3.599   1.906   1.901 -0.4008  0.0956 -0.5846
   66MOL0     O 8799   3.682   1.792   1.916 -0.2874 -0.2114 -0.1648
   66MOL0     C 8800   3.813   1.806   1.957 -0.5456 -0.2121  0.1276
   66MOL0     C 8801   3.844   1.885   2.062  0.2514 -0.4787 -0.9235
   66MOL0     C 8802   3.979   1.887   2.100 -0.2012 -0.8820  0.6771
   66MOL0     C 8803   4.079   1.807   2.043  0.0192 -0.6649  0.7226
   66MOL0     C 8804   4.221   1.818   2.094  0.4501 -1.3674 -0.0666
   66MOL0     O 8805   4.242   1.885   2.201 -0.3112  0.2611 -0.0310
   66MOL0     C 8806   4.356   1.856   2.267  0.2235  0.1900 -0.0441
   66MOL0     C 8807   4.398   1.728   2.301 -0.1285 -0.2032  0.5976
   66MOL0     C 8808   4.502   1.710   2.400 -0.2257  0.1206 -0.4627
   66MOL0     C 8809   4.559   1.821   2.462 -0.2157  0.6456 -0.0673
   66MOL0     O 8810   4.659   1.791   2.549 -0.6330 -0.5387  0.0514
   66MOL0     C 8811   4.761   1.886   2.579 -0.1251 -0.0354  0.1189
   66MOL0     C 8812   4.853   1.815   2.683  0.1386 -0.2585  0.5819
   66MOL0     C 8813   4.989   1.874   2.691 -0.6358 -0.1543 -0.0451
   66MOL0     C 8814   5.085   1.817   2.793 -1.0244  0.4606 -0.2511
   66MOL0     C 8815   5.234   1.871   2.787  0.3555  0.4688  0.3778
   66MOL0     C 8816   5.311   1.846   2.915 -0.4833  0.0454 -0.8072
   66MOL0     C 8817   5.466   1.865   2.881  0.4153  0.1999 -0.5302
   66MOL0     C 8818   5.556   1.865   3.003  0.7176  0.2221 -0.9744
   66MOL0    Cl 8819   5.731   1.853   2.979  0.0273  0.2574 -0.0938
   66MOL0     C 8820   4.518   1.947   2.419 -1.0861 -0.5385 -0.3309
   66MOL0     C 8821   4.416   1.958   2.322 -0.0432  0.3142  0.7373
   66MOL0     O 8822   4.309   1.773   2.026 -0.3565  0.1006  0.1347
   66MOL0     C 8823   4.040   1.731   1.935 -0.1674 -0.4622 -0.7961
   66MOL0     C 8824   3.907   1.728   1.895 -0.0591  0.2095 -0.0720
   66MOL0     N 8825   3.445   2.304   1.540  0.5318  0.1727  0.0123
   66MOL0     N 8826   3.337   2.320   1.477 -0.1309 -0.4991  0.1106
   66MOL0     C 8827   2.275   2.519   1.101  0.4443  0.0288 -0.2858
   66MOL0     C 8828   2.145   2.518   1.131 -0.2426 -0.7530  0.6835
   66MOL0     C 8829   1.687   2.573   1.074  0.1177 -0.2606  0.8694
   66MOL0     C 8830   1.655   2.489   1.184  0.2522  0.3119 -0.3696
   66MOL0     C 8831   1.527   2.454   1.219 -0.7072 -0.4388 -1.2538
   66MOL0     C 8832   1.423   2.509   1.147  1.0631  0.9732 -0.3346
   66MOL0     O 8833   1.295   2.470   1.173 -0.3725 -0.7264 -0.1231
   66MOL0     C 8834   1.266   2.494   1.310  0.6751  0.0784 -0.4780
   66MOL0     C 8835   1.116   2.505   1.311  0.3407 -0.3637  0.5755
   66MOL0     C 8836   1.052   2.609   1.216  0.0164 -0.2317 -0.9239
   66MOL0     C 8837   0.900   2.578   1.182 -0.2351 -0.5873  0.7152
   66MOL0     C 8838   0.819   2.564   1.299  0.3166  0.0640  0.5552
   66MOL0     C 8839   0.750   2.567   1.395 -0.1313 -0.4431  0.5184
   66MOL0     C 8840   1.444   2.590   1.040 -0.2615 -0.7173  0.9600
   66MOL0     C 8841   1.574   2.623   1.000  0.4472 -1.1617 -0.1042
   66MOL0     C 8842   1.591   2.701   0.869 -0.6133  0.3571  0.3038
   66MOL0     H 8843   2.027   2.814   0.981  3.4751  2.8313  0.4631
   66MOL0     H 8844   2.267   2.801   0.912 -0.3961  1.2618  0.1991
   66MOL0     H 8845   2.572   2.490   1.083  0.0278  0.7455 -0.3191
   66MOL0     H 8846   2.651   2.640   1.054  0.3750 -0.1658 -0.3223
   66MOL0     H 8847   2.456   2.616   1.292 -0.2969  1.8040  0.3155
   66MOL0     H 8848   2.515   2.769   1.210 -0.9846  0.7831 -0.5409
   66MOL0     H 8849   2.654   2.676   1.415 -0.7901 -0.2256  0.1314
   66MOL0     H 8850   2.747   2.692   1.265 -0.2496  1.1162  0.6278
   66MOL0     H 8851   2.635   2.444   1.413  1.1114  1.3380  1.7745
   66MOL0     H 8852   2.710   2.428   1.255  0.4263 -1.0825  1.0333
   66MOL0     H 8853   2.912   2.526   1.321  2.3175 -1.2795  0.7903
   66MOL0     H 8854   2.844   2.540   1.490 -0.7040 -0.9116  0.9676
   66MOL0     H 8855   2.840   2.303   1.508 -0.8239  0.4034 -0.8614
   66MOL0     H 8856   2.906   2.280   1.343  1.3875 -2.2807  1.9708
   66MOL0     H 8857   3.058   2.401   1.574 -0.2215 -1.3163 -0.2828
   66MOL0     H 8858   3.103   2.416   1.399 -4.0635 -0.9969 -4.4870
   66MOL0     H 8859   3.043   2.158   1.570  0.0340 -3.1062 -1.1415
   66MOL0     H 8860   3.080   2.152   1.405 -3.7213  1.4487 -0.3901
   66MOL0     H 8861   3.266   2.071   1.681  4.4459 -0.6184  2.0654
   66MOL0     H 8862   3.596   2.237   1.737 -0.5770  0.7146 -0.7553
   66MOL0     H 8863   3.479   2.120   1.807 -1.3871  0.9984  0.0662
   66MOL0     H 8864   3.596   2.008   1.566 -1.2665  2.2814  0.0782
   66MOL0     H 8865   3.728   2.024   1.685  0.9530  1.5055 -0.9948
   66MOL0     H 8866   3.580   1.812   1.701 -2.7616 -0.2843  0.6969
   66MOL0     H 8867   3.445   1.917   1.729 -0.8175 -2.7037 -0.4694
   66MOL0     H 8868   3.519   1.886   1.972  1.0262  0.7333  1.2737
   66MOL0     H 8869   3.655   1.998   1.918 -1.5603  0.6102  0.6193
   66MOL0     H 8870   3.770   1.947   2.112  2.2215  0.9401  0.3741
   66MOL0     H 8871   3.997   1.945   2.190  0.4050  1.8533 -1.0820
   66MOL0     H 8872   4.340   1.646   2.260 -2.0417  1.0714  0.6008
   66MOL0     H 8873   4.527   1.607   2.426 -1.1004 -0.0369 -0.2091
   66MOL0     H 8874   4.809   1.921   2.487 -0.6402  0.1413 -0.0897
   66MOL0     H 8875   4.721   1.980   2.619  0.1118  0.3237 -0.4611
   66MOL0     H 8876   4.807   1.830   2.782 -3.0400  0.8385 -0.9057
   66MOL0     H 8877   4.855   1.710   2.655 -0.5636 -0.1524  0.0956
   66MOL0     H 8878   5.039   1.863   2.594 -0.0885  0.0145  0.2117
   66MOL0     H 8879   4.986   1.980   2.720 -1.0968 -0.3240  0.5451
   66MOL0     H 8880   5.102   1.713   2.765  0.9195  0.9216 -0.9923
   66MOL0     H 8881   5.044   1.811   2.894 -0.1105  2.2656  0.2734
   66MOL0     H 8882   5.232   1.979   2.772  0.0959  0.3449 -0.5430
   66MOL0     H 8883   5.283   1.832   2.697 -1.7785  0.4558 -0.8266
   66MOL0     H 8884   5.268   1.908   2.995 -2.1792  1.6521 -2.8225
   66MOL0     H 8885   5.294   1.744   2.950  0.4687  0.1811  0.1150
   66MOL0     H 8886   5.482   1.955   2.820 -0.9451  1.4417  0.8489
   66MOL0     H 8887   5.489   1.782   2.814  1.0929 -0.1897  0.1705
   66MOL0     H 8888   5.535   1.962   3.050 -3.8594  0.2424 -2.5025
   66MOL0     H 8889   5.529   1.779   3.065  0.9402 -0.2224 -1.4981
   66MOL0     H 8890   4.541   2.040   2.472 -1.3893 -0.2849 -0.6416
   66MOL0     H 8891   4.368   2.051   2.294  2.1171  1.5951  1.1000
   66MOL0     H 8892   4.110   1.671   1.878 -0.5357 -2.1961  0.4892
   66MOL0     H 8893   3.871   1.656   1.822  2.6208  0.4084 -1.6976
   66MOL0     H 8894   2.350   2.443   1.125  0.4812 -0.6354 -2.3068
   66MOL0     H 8895   2.107   2.437   1.192 -1.0787 -1.1607 -0.3379
   66MOL0     H 8896   1.736   2.453   1.246 -0.1585 -0.6491 -0.3829
   66MOL0     H 8897   1.513   2.391   1.306 -0.3687  2.4508  1.0522
   66MOL0     H 8898   1.312   2.587   1.345  3.1267 -0.2536 -2.5104
   66MOL0     H 8899   1.293   2.414   1.380 -1.6077  1.2882  1.9851
   66MOL0     H 8900   1.086   2.539   1.411 -1.4059  0.0702 -0.0709
   66MOL0     H 8901   1.059   2.412   1.305  0.2217 -0.1775 -1.9381
   66MOL0     H 8902   1.113   2.610   1.125  1.5811 -0.2586  0.0852
   66MOL0     H 8903   1.059   2.705   1.267 -0.4840 -1.0807  0.8265
   66MOL0     H 8904   0.869   2.668   1.129  2.3610  0.9738  1.6826
   66MOL0     H 8905   0.895   2.489   1.118 -2.6337 -0.2535  0.3209
   66MOL0     H 8906   0.704   2.551   1.490 -0.1567 -0.0275  0.5749
   66MOL0     H 8907   1.365   2.629   0.976  1.7142  0.6548 -0.7958
   66MOL0     H 8908   1.657   2.786   0.885 -0.5271  0.7625 -1.8113
   66MOL0     H 8909   1.631   2.628   0.797  0.0816  0.7502  0.2844
   66MOL0     H 8910   1.495   2.746   0.840  0.2219  0.8521 -1.8670
   67MOL0     O 8911   2.901   8.354   2.341 -0.2222 -1.1859 -0.5431
   67MOL0     C 8912   2.812   8.443   2.313 -0.1501 -0.5343  0.9189
   67MOL0     O 8913   2.834   8.579   2.299 -0.8051  0.0353 -0.4721
   67MOL0     C 8914   2.945   8.636   2.355 -0.3050 -0.9605  0.2927
   67MOL0     C 8915   3.013   8.732   2.274 -0.0419 -0.2188 -0.0475
   67MOL0     C 8916   3.133   8.791   2.308 -0.4130 -1.1144  0.2716
   67MOL0     C 8917   3.191   8.763   2.432  0.4557  0.1215  0.4321
   67MOL0     O 8918   3.319   8.810   2.456  0.2658 -0.0934  0.9398
   67MOL0     C 8919   3.374   8.808   2.591  0.4571  0.3524  0.7692
   67MOL0     C 8920   3.528   8.853   2.570 -0.0462  0.4168  0.0398
   67MOL0     C 8921   3.587   8.895   2.700  0.5899 -0.3036  0.9904
   67MOL0     C 8922   3.729   8.940   2.685 -0.0318 -1.0575  0.5516
   67MOL0     C 8923   3.810   8.945   2.811  0.0695  0.1111 -0.5562
   67MOL0     C 8924   3.955   8.980   2.781 -0.5860  0.5770 -0.2714
   67MOL0     C 8925   4.037   9.007   2.919  0.1316  0.2405  0.3250
   67MOL0     C 8926   4.180   9.049   2.885 -0.0581 -0.5647  0.2731
   67MOL0     N 8927   4.285   9.038   2.992 -0.6882  0.7586 -0.0516
   67MOL0     C 8928   4.305   9.123   3.103 -0.5152  0.5153  0.7227
   67MOL0     C 8929   4.410   9.062   3.173  0.7836  0.4693 -0.7043
   67MOL0     C 8930   4.457   9.105   3.314  0.6566 -0.8657  0.7502
   67MOL0     C 8931   4.365   9.041   3.421 -0.5847  0.2417  0.0049
   67MOL0     C 8932   4.382   9.134   3.537 -0.0909  0.3690 -0.5523
   67MOL0     C 8933   4.521   9.121   3.606  0.8334 -0.8265  0.2024
   67MOL0     O 8934   4.609   9.214   3.539 -0.2849 -0.0799  0.0292
   67MOL0     C 8935   4.743   9.228   3.584  0.0027 -0.2590 -0.2741
   67MOL0     C 8936   4.784   9.206   3.721 -0.6062  0.1029  0.5675
   67MOL0     C 8937   4.913   9.244   3.761 -0.1123 -0.0279  0.0435
   67MOL0     C 8938   5.010   9.288   3.668 -0.4912  1.2600 -0.3923
   67MOL0     C 8939   5.155   9.329   3.703 -0.3801 -1.1536 -0.7622
   67MOL0     O 8940   5.197   9.316   3.832 -0.8182  0.0923 -0.4145
   67MOL0     C 8941   5.323   9.364   3.855  1.0045  0.1891  0.1538
   67MOL0     C 8942   5.347   9.501   3.890  0.1799 -0.4791  0.8519
   67MOL0     C 8943   5.482   9.544   3.894 -0.4113  1.2787 -0.8216
   67MOL0     C 8944   5.596   9.455   3.870  1.2957  0.2573  0.7369
   67MOL0     O 8945   5.720   9.500   3.883 -0.4210  0.4338 -0.1142
   67MOL0     C 8946   5.825   9.414   3.931  0.0551 -0.2983  0.1635
   67MOL0     C 8947   5.922   9.494   4.015 -1.1713  0.7059 -0.3024
   67MOL0     C 8948   6.049   9.416   4.069  0.2871  0.6479 -0.4220
   67MOL0     C 8949   6.113   9.494   4.187  0.4981  0.1659 -0.5221
   67MOL0     C 8950   6.151   9.637   4.156 -0.3964 -0.8204 -0.1502
   67MOL0     C 8951   6.281   9.649   4.073  0.6934  0.3325  0.1471
   67MOL0     C 8952   6.404   9.641   4.165 -0.6001 -0.1404 -0.4805
   67MOL0     C 8953   6.528   9.662   4.082 -0.5715  0.7707 -0.4054
   67MOL0    Cl 8954   6.658   9.676   4.211  0.3935 -0.3644 -0.1443
   67MOL0     C 8955   5.565   9.315   3.846 -0.6563 -0.3698 -0.0089
   67MOL0     C 8956   5.429   9.271   3.839 -0.0583 -0.9665  0.6973
   67MOL0     O 8957   5.229   9.376   3.616  0.0556 -0.5226  0.0031
   67MOL0     C 8958   4.974   9.313   3.535  0.3220 -0.5205 -0.3888
   67MOL0     C 8959   4.842   9.287   3.493  0.3901  0.1801 -0.4394
   67MOL0     N 8960   4.452   8.954   3.109 -0.1399  0.4187  0.3030
   67MOL0     N 8961   4.391   8.941   2.999 -0.2596 -0.5811  0.4554
   67MOL0     C 8962   3.120   8.676   2.518 -0.0717  0.3186 -0.1972
   67MOL0     C 8963   3.004   8.609   2.477 -0.2746  1.0414  0.1299
   67MOL0     C 8964   2.672   8.394   2.289  0.2651 -0.3941 -0.7109
   67MOL0     C 8965   2.638   8.273   2.338 -0.0287 -0.8358 -0.6360
   67MOL0     C 8966   2.511   8.224   2.316 -0.0412  0.3229  0.7284
   67MOL0     C 8967   2.415   8.295   2.240  0.1774 -0.6264 -0.1245
   67MOL0     O 8968   2.288   8.245   2.224  0.2477 -0.0310 -0.2499
   67MOL0     C 8969   2.235   8.222   2.099 -0.8785 -0.0279  0.8020
   67MOL0     C 8970   2.090   8.265   2.102  0.1374 -0.7340  0.2659
   67MOL0     C 8971   2.083   8.419   2.117 -0.0616 -0.9647 -0.0806
   67MOL0     C 8972   1.944   8.472   2.118  0.0797 -0.1807 -0.7532
   67MOL0     C 8973   1.857   8.402   2.212 -0.5258 -0.5595 -0.5209
   67MOL0     C 8974   1.786   8.331   2.278  0.0975 -0.4387  0.5222
   67MOL0     C 8975   2.445   8.421   2.187 -0.1291 -0.2293  0.0138
   67MOL0     C 8976   2.573   8.468   2.210 -1.0055 -0.5417  0.4487
   67MOL0     C 8977   2.597   8.608   2.152 -0.5772  0.2617 -1.0532
   67MOL0     H 8978   2.987   8.767   2.175  1.5589  2.1973  0.2930
   67MOL0     H 8979   3.193   8.849   2.238  1.9583 -1.4311  1.9079
   67MOL0     H 8980   3.321   8.888   2.643 -0.2049 -1.7122  3.5050
   67MOL0     H 8981   3.366   8.718   2.652 -2.2938  0.4546  0.6903
   67MOL0     H 8982   3.547   8.928   2.493  1.0710 -0.7701 -0.8984
   67MOL0     H 8983   3.577   8.761   2.536 -1.6223 -1.1562  1.7236
   67MOL0     H 8984   3.602   8.805   2.762 -1.0639 -1.3822 -0.1005
   67MOL0     H 8985   3.532   8.974   2.751  2.7848  1.4686  0.7932
   67MOL0     H 8986   3.772   8.863   2.621 -1.0760 -1.8054  0.7239
   67MOL0     H 8987   3.725   9.033   2.628 -1.7543 -0.4702  1.5480
   67MOL0     H 8988   3.771   9.009   2.890  1.8969  1.2439 -0.4936
   67MOL0     H 8989   3.813   8.849   2.863  0.2343  0.4136  0.0130
   67MOL0     H 8990   4.004   8.903   2.721  0.1092  2.7765 -2.7104
   67MOL0     H 8991   3.954   9.074   2.725  3.3022  1.0705  0.1953
   67MOL0     H 8992   4.048   8.918   2.983  2.0172  1.4717  1.8064
   67MOL0     H 8993   3.984   9.081   2.979 -0.8587 -2.0691  2.5129
   67MOL0     H 8994   4.217   8.974   2.814 -2.8530  0.3486 -2.3611
   67MOL0     H 8995   4.182   9.144   2.830  1.0843 -0.8350 -0.1782
   67MOL0     H 8996   4.243   9.207   3.132 -2.7799 -0.6170 -0.5789
   67MOL0     H 8997   4.559   9.069   3.331  2.0124  2.0125 -0.4948
   67MOL0     H 8998   4.462   9.214   3.320 -0.0774 -0.7767 -0.1419
   67MOL0     H 8999   4.260   9.053   3.392 -1.5557 -1.2155  2.6438
   67MOL0     H 9000   4.399   8.939   3.437  3.2050  1.2549 -0.6019
   67MOL0     H 9001   4.309   9.093   3.608 -2.0195  1.9686 -1.5036
   67MOL0     H 9002   4.363   9.240   3.517  3.8193  0.9340 -2.1096
   67MOL0     H 9003   4.554   9.017   3.603  1.0591 -0.7516  0.1006
   67MOL0     H 9004   4.507   9.148   3.712  0.7844 -0.6163  0.1437
   67MOL0     H 9005   4.714   9.165   3.793  0.8831 -0.1284  1.9278
   67MOL0     H 9006   4.939   9.227   3.864 -1.4168 -1.6059  0.1673
   67MOL0     H 9007   5.268   9.575   3.894  2.7775  2.5672  0.0598
   67MOL0     H 9008   5.505   9.649   3.911 -1.9233  1.4145  0.6120
   67MOL0     H 9009   5.783   9.339   3.999 -1.5178  2.1091  2.0157
   67MOL0     H 9010   5.887   9.381   3.847  2.7934  2.2333  1.0025
   67MOL0     H 9011   5.962   9.578   3.958  0.7029 -0.7620 -1.2376
   67MOL0     H 9012   5.863   9.531   4.099 -0.0685  2.3254 -0.1972
   67MOL0     H 9013   6.018   9.317   4.103  1.3251  0.9076  1.4262
   67MOL0     H 9014   6.122   9.397   3.990  0.7163 -1.2260  0.3809
   67MOL0     H 9015   6.205   9.445   4.223 -0.9775 -2.2952  0.1831
   67MOL0     H 9016   6.039   9.492   4.267 -0.6332 -1.3475 -1.5466
   67MOL0     H 9017   6.175   9.685   4.251  0.2549  1.6163 -1.4570
   67MOL0     H 9018   6.063   9.689   4.116 -0.0235  0.3866  0.5612
   67MOL0     H 9019   6.287   9.578   3.990 -0.5379  1.5725 -1.0429
   67MOL0     H 9020   6.277   9.747   4.024  1.3946 -1.3780 -3.6856
   67MOL0     H 9021   6.410   9.552   4.229 -1.2526  0.2122  0.0862
   67MOL0     H 9022   6.399   9.716   4.245 -1.2715 -1.8024  1.1206
   67MOL0     H 9023   6.538   9.573   4.018  2.6208  1.2205 -0.6961
   67MOL0     H 9024   6.517   9.743   4.009 -2.2402  2.8798  2.0252
   67MOL0     H 9025   5.647   9.253   3.810  0.1254 -0.3108  1.5909
   67MOL0     H 9026   5.395   9.170   3.820  0.7123 -1.3446  1.2785
   67MOL0     H 9027   5.037   9.333   3.448 -1.7640 -2.0138 -2.3636
   67MOL0     H 9028   4.820   9.317   3.391  2.5766  0.7833 -0.7968
   67MOL0     H 9029   3.157   8.661   2.619 -0.2977  0.6879 -0.0563
   67MOL0     H 9030   2.964   8.526   2.535 -3.1319  0.9393 -1.7630
   67MOL0     H 9031   2.702   8.218   2.406 -3.5713 -2.0974  2.0305
   67MOL0     H 9032   2.481   8.124   2.346  0.8554 -0.2156 -0.1149
   67MOL0     H 9033   2.231   8.114   2.083  0.2076 -0.0950  0.9000
   67MOL0     H 9034   2.291   8.271   2.019 -0.8599  0.9831  1.4145
   67MOL0     H 9035   2.039   8.221   2.189 -2.8328  1.3804 -0.2414
   67MOL0     H 9036   2.033   8.243   2.011  1.4142 -0.5819 -0.5943
   67MOL0     H 9037   2.131   8.457   2.026 -5.0534 -0.8061 -2.9780
   67MOL0     H 9038   2.133   8.449   2.210 -0.6553 -0.2399  0.0184
   67MOL0     H 9039   1.949   8.575   2.155 -3.6019 -0.4186  0.7987
   67MOL0     H 9040   1.895   8.459   2.021 -0.6834 -2.0260 -0.1650
   67MOL0     H 9041   1.725   8.267   2.337 -1.7301 -0.6157 -1.4142
   67MOL0     H 9042   2.373   8.477   2.129  1.3649  0.7196 -0.9849
   67MOL0     H 9043   2.682   8.595   2.085 -0.9170  0.1921 -1.4713
   67MOL0     H 9044   2.518   8.644   2.086  1.1669  0.0624 -3.3491
   67MOL0     H 9045   2.615   8.674   2.238  1.5416 -1.6448  0.0839
   68MOL0     O 9046   1.697   1.348   3.516 -1.2957  0.6658 -0.3469
   68MOL0     C 9047   1.661   1.349   3.632 -0.9190  0.0202 -0.4755
   68MOL0     O 9048   1.729   1.409   3.737 -0.1866 -0.2753 -0.4991
   68MOL0     C 9049   1.846   1.479   3.700 -0.0506  0.1474  0.2900
   68MOL0     C 9050   1.841   1.613   3.720 -0.7950  0.0372  0.2165
   68MOL0     C 9051   1.946   1.697   3.673  0.0394 -0.4647 -0.1590
   68MOL0     C 9052   2.062   1.640   3.611  0.2763 -0.5093 -0.0075
   68MOL0     O 9053   2.167   1.722   3.575 -0.6906 -0.0174  1.1510
   68MOL0     C 9054   2.290   1.663   3.546  0.2177  0.2213  0.0622
   68MOL0     C 9055   2.382   1.776   3.508  0.4625 -0.4692 -0.0389
   68MOL0     C 9056   2.530   1.747   3.525  0.0941  0.7567  0.2742
   68MOL0     C 9057   2.608   1.881   3.502 -0.9681  0.0219 -0.1026
   68MOL0     C 9058   2.762   1.868   3.513  0.2858 -0.6269 -0.1681
   68MOL0     C 9059   2.814   1.793   3.394  0.7007 -0.2461 -0.7784
   68MOL0     C 9060   2.974   1.801   3.389 -0.9699  0.3116  0.0621
   68MOL0     C 9061   3.030   1.945   3.354  0.5429  0.2511  0.0417
   68MOL0     N 9062   3.172   1.930   3.313  1.4116 -1.1153 -0.0170
   68MOL0     C 9063   3.218   1.948   3.183  0.0906  0.4049  0.0693
   68MOL0     C 9064   3.339   1.900   3.187 -0.2529  0.4741  0.7977
   68MOL0     C 9065   3.414   1.895   3.058 -0.4428 -0.1348  0.4772
   68MOL0     C 9066   3.557   1.911   3.095 -0.0915  1.1098 -0.3050
   68MOL0     C 9067   3.646   1.891   2.964 -0.3400  1.2038  0.3797
   68MOL0     C 9068   3.794   1.924   2.993 -0.7629 -0.1675 -1.0134
   68MOL0     O 9069   3.800   2.057   3.043 -0.2906  0.0384 -0.1048
   68MOL0     C 9070   3.921   2.114   3.075 -0.1522  0.4322 -0.2128
   68MOL0     C 9071   3.962   2.124   3.207  0.5514  0.4875 -0.9756
   68MOL0     C 9072   4.070   2.199   3.251 -0.4661  0.5116 -0.8295
   68MOL0     C 9073   4.149   2.269   3.151 -0.1411 -0.5827 -0.5257
   68MOL0     C 9074   4.264   2.351   3.191  0.3120  0.1687 -0.2361
   68MOL0     O 9075   4.335   2.406   3.085 -0.2257 -0.3706  0.0071
   68MOL0     C 9076   4.451   2.466   3.109  0.6562  0.7024  0.8636
   68MOL0     C 9077   4.559   2.448   3.025 -0.6500  0.9132  0.0875
   68MOL0     C 9078   4.676   2.512   3.048  1.0580  0.4862  0.0749
   68MOL0     C 9079   4.687   2.620   3.139  1.0903  0.5592  0.1324
   68MOL0     O 9080   4.804   2.688   3.144  0.0768 -0.1259 -0.4655
   68MOL0     C 9081   4.807   2.807   3.211 -0.4538  0.3319  0.2967
   68MOL0     C 9082   4.959   2.826   3.200 -0.6825 -0.7830 -0.1380
   68MOL0     C 9083   5.001   2.959   3.286 -0.2498 -0.2471 -0.0785
   68MOL0     C 9084   5.159   2.975   3.284 -0.5060 -0.5016  0.0753
   68MOL0     C 9085   5.223   2.854   3.368 -0.4134  0.7632 -0.0660
   68MOL0     C 9086   5.349   2.891   3.449  0.1617  0.4830  0.2692
   68MOL0     C 9087   5.430   2.768   3.483 -0.0887 -0.1547 -0.6064
   68MOL0     C 9088   5.549   2.821   3.561 -0.9747  1.0057  0.1147
   68MOL0    Cl 9089   5.645   2.941   3.468  0.4172  0.7044 -0.0884
   68MOL0     C 9090   4.579   2.643   3.219  0.7826  0.3716  0.4495
   68MOL0     C 9091   4.462   2.567   3.203 -0.0883 -0.1538 -0.5543
   68MOL0     O 9092   4.302   2.349   3.303 -0.6013  0.6595 -0.2259
   68MOL0     C 9093   4.105   2.260   3.018  0.8869 -0.6207 -0.7575
   68MOL0     C 9094   3.992   2.184   2.978 -0.7938 -0.2239 -0.5747
   68MOL0     N 9095   3.368   1.858   3.318 -0.0943  0.0104 -0.4099
   68MOL0     N 9096   3.269   1.887   3.396  0.0833  0.2919 -0.0640
   68MOL0     C 9097   2.059   1.495   3.596 -0.0612 -0.0989 -1.3791
   68MOL0     C 9098   1.949   1.418   3.638 -0.0219 -0.2802 -0.4638
   68MOL0     C 9099   1.523   1.308   3.672 -0.0178 -0.7190 -0.6361
   68MOL0     C 9100   1.453   1.369   3.780 -0.3073  0.8724 -0.2715
   68MOL0     C 9101   1.325   1.332   3.810  0.5749 -0.2974  0.1529
   68MOL0     C 9102   1.249   1.249   3.733  0.2816 -0.0777  0.1370
   68MOL0     O 9103   1.116   1.215   3.762 -0.0632  0.6517 -0.2737
   68MOL0     C 9104   1.056   1.252   3.888  0.2198  0.0628 -0.4492
   68MOL0     C 9105   1.009   1.400   3.880  0.3299 -0.4904 -1.1003
   68MOL0     C 9106   0.860   1.417   3.922  0.2013 -0.5898 -1.1716
   68MOL0     C 9107   0.839   1.398   4.079 -0.9147  0.7373  0.4722
   68MOL0     C 9108   0.700   1.368   4.118 -0.4691 -0.4868  0.2705
   68MOL0     C 9109   0.583   1.336   4.147  0.0141  0.0092  0.0683
   68MOL0     C 9110   1.321   1.185   3.627  0.4835 -0.3745  0.3838
   68MOL0     C 9111   1.451   1.216   3.590 -0.7778 -0.7880 -0.5995
   68MOL0     C 9112   1.505   1.142   3.470  0.8270 -0.8577  0.2134
   68MOL0     H 9113   1.758   1.657   3.774 -0.8566 -0.8140  0.8135
   68MOL0     H 9114   1.928   1.802   3.689 -0.0536 -0.0982 -2.3717
   68MOL0     H 9115   2.333   1.601   3.626  0.9796  1.8239  0.9445
   68MOL0     H 9116   2.278   1.592   3.463 -0.0191 -1.6826  1.6483
   68MOL0     H 9117   2.357   1.859   3.575  0.5984 -0.1089 -0.4326
   68MOL0     H 9118   2.361   1.802   3.404  0.0304 -1.0352 -0.1027
   68MOL0     H 9119   2.557   1.674   3.448 -1.2747  0.4902  0.0256
   68MOL0     H 9120   2.555   1.719   3.627  2.0603  2.1995  0.2555
   68MOL0     H 9121   2.576   1.926   3.408  1.4669 -0.9696 -1.4706
   68MOL0     H 9122   2.570   1.936   3.589  1.0090 -0.0910  0.8859
   68MOL0     H 9123   2.803   1.969   3.504  0.4502 -0.7061 -0.3238
   68MOL0     H 9124   2.794   1.829   3.610 -2.1289  0.3924  1.1359
   68MOL0     H 9125   2.795   1.686   3.409 -0.6073 -0.0431 -0.9322
   68MOL0     H 9126   2.771   1.850   3.312  1.9161  4.9407  1.7918
   68MOL0     H 9127   3.014   1.742   3.306 -1.1376  1.2830 -0.7409
   68MOL0     H 9128   3.035   1.768   3.473 -0.0653  3.1889  0.6634
   68MOL0     H 9129   2.964   1.980   3.274  1.8261  0.1477 -1.1051
   68MOL0     H 9130   3.017   2.003   3.445 -0.6596  1.7496 -1.0380
   68MOL0     H 9131   3.168   1.988   3.096  0.6735  1.2467  0.1120
   68MOL0     H 9132   3.408   1.798   3.008 -0.9579  1.5844 -3.1218
   68MOL0     H 9133   3.372   1.965   2.985  0.0463  0.7478  1.0227
   68MOL0     H 9134   3.563   2.013   3.136 -3.7123  0.4966  2.2664
   68MOL0     H 9135   3.587   1.841   3.174 -0.4906 -1.5273 -2.3704
   68MOL0     H 9136   3.609   1.952   2.880 -1.7940 -1.4943 -1.0893
   68MOL0     H 9137   3.647   1.788   2.930  1.3385  1.4445 -0.4141
   68MOL0     H 9138   3.858   1.927   2.905 -1.2906 -1.2036 -1.4536
   68MOL0     H 9139   3.841   1.852   3.061  0.0321 -0.5562 -1.9570
   68MOL0     H 9140   3.911   2.064   3.281  0.3068  3.1662  1.1928
   68MOL0     H 9141   4.105   2.197   3.354 -0.6795 -0.2190 -0.7662
   68MOL0     H 9142   4.548   2.376   2.945 -1.1070  2.0642 -0.9018
   68MOL0     H 9143   4.762   2.487   2.985  0.2229 -4.2532  0.4100
   68MOL0     H 9144   4.743   2.876   3.156 -0.6733  0.1464  0.3164
   68MOL0     H 9145   4.774   2.813   3.315 -2.0006  1.0923 -0.2130
   68MOL0     H 9146   5.017   2.741   3.236  1.1705  0.3255 -0.4142
   68MOL0     H 9147   4.986   2.842   3.095 -0.1482 -3.0583 -0.3866
   68MOL0     H 9148   4.957   3.046   3.236  0.8326 -0.0896 -0.7885
   68MOL0     H 9149   4.956   2.964   3.385 -1.1690  0.5915 -0.5113
   68MOL0     H 9150   5.190   3.068   3.333 -1.4592  0.6828 -1.4823
   68MOL0     H 9151   5.214   2.972   3.189  1.5843 -2.2944  1.2337
   68MOL0     H 9152   5.240   2.774   3.295 -2.3981 -1.7953  2.0779
   68MOL0     H 9153   5.152   2.813   3.441  1.4232  0.1175  1.4384
   68MOL0     H 9154   5.412   2.950   3.381  1.5961  0.4899  1.5629
   68MOL0     H 9155   5.334   2.959   3.533  0.9618  1.2695 -0.2120
   68MOL0     H 9156   5.456   2.716   3.391 -0.4403  1.8727 -1.8998
   68MOL0     H 9157   5.370   2.705   3.550  0.6152  0.1424  0.3369
   68MOL0     H 9158   5.506   2.863   3.653 -2.5465  1.5415 -0.8161
   68MOL0     H 9159   5.615   2.737   3.588 -1.8862  1.1460  3.1830
   68MOL0     H 9160   4.584   2.730   3.285  2.6902  2.7315 -2.5007
   68MOL0     H 9161   4.371   2.584   3.260 -0.9773 -0.3396 -1.8570
   68MOL0     H 9162   4.159   2.308   2.938  1.3130 -1.0127 -0.7101
   68MOL0     H 9163   3.967   2.169   2.873  1.1744 -2.2506 -0.8277
   68MOL0     H 9164   2.147   1.442   3.563  0.1325 -0.0777 -0.9002
   68MOL0     H 9165   1.949   1.312   3.619 -1.3648 -0.4117  0.1498
   68MOL0     H 9166   1.494   1.444   3.847 -1.9518  1.3163  0.2968
   68MOL0     H 9167   1.277   1.378   3.895 -1.2294 -0.3830 -0.7655
   68MOL0     H 9168   1.134   1.246   3.964  1.5374 -1.0021 -1.8428
   68MOL0     H 9169   0.981   1.176   3.914  2.8950 -2.7707 -0.4636
   68MOL0     H 9170   1.031   1.443   3.782  2.5704  1.9954  0.3753
   68MOL0     H 9171   1.064   1.449   3.960 -2.4940  3.8669 -1.4826
   68MOL0     H 9172   0.790   1.343   3.885 -1.0532 -0.7134  1.2159
   68MOL0     H 9173   0.823   1.518   3.904 -1.5792 -0.8897  0.4712
   68MOL0     H 9174   0.900   1.312   4.111 -1.8863 -0.7429 -1.4202
   68MOL0     H 9175   0.871   1.487   4.134  0.7902  0.5532 -0.1601
   68MOL0     H 9176   0.481   1.308   4.163  0.8319 -4.3780 -0.9434
   68MOL0     H 9177   1.271   1.115   3.561 -0.8921  3.6514 -3.3313
   68MOL0     H 9178   1.593   1.081   3.494  1.7390 -0.1564 -1.2558
   68MOL0     H 9179   1.421   1.085   3.430 -0.8418  1.1792  0.6704
   68MOL0     H 9180   1.525   1.213   3.390  1.1873  0.0109  1.0588
   69MOL0     O 9181  11.229   9.007   4.840  0.2172  0.7470 -0.4893
   69MOL0     C 9182  11.194   9.094   4.758  0.1478 -0.1653  0.3267
   69MOL0     O 9183  11.278   9.172   4.683  0.4950  0.0041  0.2782
   69MOL0     C 9184  11.417   9.141   4.681  0.0893 -0.3157 -0.6566
   69MOL0     C 9185  11.470   9.012   4.693  0.2218 -0.1152 -0.0605
   69MOL0     C 9186  11.611   9.003   4.714  1.2493 -0.0978 -0.7829
   69MOL0     C 9187  11.698   9.109   4.685 -1.5369  0.6947 -0.0773
   69MOL0     O 9188  11.836   9.082   4.685  0.4091 -0.2473  0.1536
   69MOL0     C 9189  11.874   8.955   4.630  1.2106  0.2252  0.0066
   69MOL0     C 9190  12.013   8.964   4.584 -1.1791  0.0744  0.0973
   69MOL0     C 9191  12.037   9.064   4.466 -0.4005  0.4099 -0.0177
   69MOL0     C 9192  12.185   9.082   4.428 -0.4808 -0.4614  0.5873
   69MOL0     C 9193  12.200   9.188   4.319  0.8868  1.0049 -0.0926
   69MOL0     C 9194  12.166   9.334   4.366 -0.0151  0.5957 -0.4278
   69MOL0     C 9195  12.236   9.433   4.269  0.6252 -0.4987 -0.6411
   69MOL0     C 9196  12.166   9.460   4.132 -0.0014 -0.5147  0.4754
   69MOL0     N 9197  12.257   9.437   4.018  0.4283 -0.4044 -0.4144
   69MOL0     C 9198  12.256   9.507   3.895 -0.1216  0.3508  0.4199
   69MOL0     C 9199  12.298   9.417   3.802 -0.4326 -0.3165  0.0204
   69MOL0     C 9200  12.306   9.418   3.648 -0.3961 -0.3400  0.7371
   69MOL0     C 9201  12.434   9.487   3.609 -0.0045  0.1737  0.1248
   69MOL0     C 9202  12.456   9.478   3.456 -0.2051 -0.1084 -0.5288
   69MOL0     C 9203  12.608   9.492   3.440  0.0867  0.7560  0.0624
   69MOL0     O 9204  12.638   9.526   3.305  0.4268 -0.4843  0.1318
   69MOL0     C 9205  12.765   9.522   3.260 -0.1582  0.2847  0.3657
   69MOL0     C 9206  12.882   9.502   3.337 -0.7139  0.6379 -0.1771
   69MOL0     C 9207  13.012   9.496   3.282  0.9195 -0.1055  0.1860
   69MOL0     C 9208  13.032   9.557   3.155  0.3771  0.1672  0.5222
   69MOL0     C 9209  13.162   9.588   3.106 -0.5380  0.3826 -0.1477
   69MOL0     O 9210  13.264   9.547   3.191 -0.2811 -0.3598  0.5476
   69MOL0     C 9211  13.390   9.566   3.141 -0.0016 -0.3932 -0.4870
   69MOL0     C 9212  13.464   9.458   3.089 -0.1886  0.3235  0.2465
   69MOL0     C 9213  13.599   9.472   3.052  0.5826 -0.0178  0.9384
   69MOL0     C 9214  13.662   9.600   3.077  0.0640 -0.2167  0.5065
   69MOL0     O 9215  13.796   9.611   3.052  0.7153  0.6929  0.3447
   69MOL0     C 9216  13.860   9.734   3.032  0.3239  0.6991 -0.4344
   69MOL0     C 9217  14.001   9.721   2.978  0.1931 -0.6085 -0.0886
   69MOL0     C 9218  14.055   9.862   2.937 -0.3793  0.0202  0.0953
   69MOL0     C 9219  14.206   9.870   2.952 -0.2384  0.2078 -0.3041
   69MOL0     C 9220  14.288   9.984   2.888  0.6105  0.0704 -0.6542
   69MOL0     C 9221  14.267  10.113   2.973 -0.0689  0.5357  0.1559
   69MOL0     C 9222  14.352  10.232   2.920  0.1973  0.1058  0.3114
   69MOL0     C 9223  14.311  10.366   2.984 -0.7091 -0.1019  0.4345
   69MOL0    Cl 9224  14.455  10.458   2.953 -0.0476  0.0333 -0.0795
   69MOL0     C 9225  13.584   9.707   3.132  0.3262 -1.0920  0.1202
   69MOL0     C 9226  13.448   9.694   3.160 -1.2455 -0.6818  1.0201
   69MOL0     O 9227  13.181   9.654   3.012 -0.0990 -0.3102  0.2337
   69MOL0     C 9228  12.920   9.561   3.069 -0.8049  0.5166 -0.3270
   69MOL0     C 9229  12.790   9.536   3.116 -0.6330  0.3735 -0.3987
   69MOL0     N 9230  12.348   9.310   3.876  0.8725  0.4775  0.4303
   69MOL0     N 9231  12.320   9.321   4.004  0.3753 -0.1874  0.5744
   69MOL0     C 9232  11.642   9.233   4.669 -1.1122  0.5351 -0.3463
   69MOL0     C 9233  11.509   9.248   4.656 -0.2326  0.1633 -0.2586
   69MOL0     C 9234  11.047   9.104   4.726  0.6933 -0.5648  0.6957
   69MOL0     C 9235  11.003   9.140   4.598 -0.5029 -0.0605 -0.4358
   69MOL0     C 9236  10.868   9.125   4.566  0.6293 -0.3663  0.0355
   69MOL0     C 9237  10.768   9.089   4.660 -0.1947 -0.4608 -0.2550
   69MOL0     O 9238  10.632   9.076   4.633  0.3281 -0.2841 -1.1945
   69MOL0     C 9239  10.588   9.148   4.514 -0.6572  0.5043  0.0826
   69MOL0     C 9240  10.440   9.183   4.518  0.5139  0.4111 -0.9839
   69MOL0     C 9241  10.347   9.068   4.475  0.8393  0.3922 -0.6731
   69MOL0     C 9242  10.196   9.111   4.480 -0.3031 -0.3266 -0.0284
   69MOL0     C 9243  10.101   9.068   4.373 -1.0978  0.4892  0.6749
   69MOL0     C 9244  10.043   9.037   4.272 -0.0956  0.2543 -0.0071
   69MOL0     C 9245  10.808   9.069   4.792 -0.1297  0.0624  0.7461
   69MOL0     C 9246  10.946   9.075   4.829  0.6471  0.6447 -1.3071
   69MOL0     C 9247  10.981   9.053   4.976 -0.8783 -0.0155  0.5218
   69MOL0     H 9248  11.408   8.924   4.709  2.4579 -1.9292 -0.6417
   69MOL0     H 9249  11.653   8.905   4.735  1.1852 -0.2788 -1.4676
   69MOL0     H 9250  11.872   8.877   4.707 -0.5588  1.3106  1.1471
   69MOL0     H 9251  11.811   8.922   4.547  0.1264 -1.6453  1.4707
   69MOL0     H 9252  12.060   8.867   4.567 -1.2681 -0.5960  3.0948
   69MOL0     H 9253  12.074   9.010   4.661  0.2583 -0.6677 -0.5647
   69MOL0     H 9254  11.984   9.157   4.487 -2.0552 -0.7043  1.0770
   69MOL0     H 9255  11.988   9.012   4.383 -0.6244 -0.3632  0.5752
   69MOL0     H 9256  12.235   9.111   4.521  1.0069 -0.7005 -0.1044
   69MOL0     H 9257  12.229   8.990   4.388  0.2601  0.4269 -0.7097
   69MOL0     H 9258  12.308   9.184   4.302  1.0537  1.3771  0.8042
   69MOL0     H 9259  12.137   9.156   4.236  0.6126  0.4412  0.3264
   69MOL0     H 9260  12.057   9.340   4.382 -0.1654 -3.2485  1.1536
   69MOL0     H 9261  12.216   9.343   4.463 -0.6656 -1.9570  0.2110
   69MOL0     H 9262  12.338   9.399   4.248  1.2255  1.1692 -0.5631
   69MOL0     H 9263  12.258   9.523   4.326  0.4879 -0.1844 -1.0848
   69MOL0     H 9264  12.080   9.393   4.123 -1.1716  0.9835  0.1071
   69MOL0     H 9265  12.129   9.562   4.123 -3.3738 -1.7509 -1.6049
   69MOL0     H 9266  12.226   9.610   3.880  2.2334  1.3389  1.8672
   69MOL0     H 9267  12.322   9.314   3.618  1.0612  0.2469 -0.6748
   69MOL0     H 9268  12.216   9.463   3.606  0.7310 -0.6550 -2.2892
   69MOL0     H 9269  12.424   9.592   3.639  1.0125  0.8357 -1.7026
   69MOL0     H 9270  12.519   9.442   3.661  1.1646  1.0982 -0.9330
   69MOL0     H 9271  12.396   9.562   3.418 -0.5083 -1.1336 -2.4717
   69MOL0     H 9272  12.428   9.383   3.409  0.0436 -0.9341  0.9465
   69MOL0     H 9273  12.661   9.403   3.475  0.1321 -0.3034 -2.4632
   69MOL0     H 9274  12.650   9.569   3.504  0.6213  1.3662 -1.0028
   69MOL0     H 9275  12.869   9.480   3.443  2.0723 -0.9479 -0.0648
   69MOL0     H 9276  13.091   9.479   3.354  0.8310  1.6488  0.7349
   69MOL0     H 9277  13.406   9.367   3.085 -2.1149  1.4637  0.4877
   69MOL0     H 9278  13.651   9.385   3.014 -1.6469 -1.5134  1.0931
   69MOL0     H 9279  13.796   9.791   2.964  0.2510 -1.2950 -2.1441
   69MOL0     H 9280  13.858   9.787   3.127 -2.0057 -2.5911  1.5533
   69MOL0     H 9281  14.062   9.683   3.060 -1.7478 -3.8101  0.0517
   69MOL0     H 9282  14.004   9.649   2.897 -2.2146 -0.7741 -0.1176
   69MOL0     H 9283  14.024   9.885   2.835  3.2247  1.2952 -0.8606
   69MOL0     H 9284  14.010   9.946   2.991  0.6189  0.1014  0.8127
   69MOL0     H 9285  14.239   9.781   2.897 -1.7186 -0.0656 -0.7967
   69MOL0     H 9286  14.243   9.855   3.054  2.1356 -1.6493 -1.3353
   69MOL0     H 9287  14.246   9.997   2.788 -2.4038 -5.6778 -0.5617
   69MOL0     H 9288  14.397   9.975   2.894  0.6454  0.0715 -1.2329
   69MOL0     H 9289  14.161  10.137   2.965 -0.8127 -2.6845 -1.3551
   69MOL0     H 9290  14.292  10.096   3.078  4.0361  0.7718 -0.6266
   69MOL0     H 9291  14.354  10.244   2.811 -0.3873 -1.9053  0.0402
   69MOL0     H 9292  14.450  10.209   2.963 -0.8042  0.5427  2.9863
   69MOL0     H 9293  14.225  10.408   2.930 -0.0963  1.1090  0.3786
   69MOL0     H 9294  14.299  10.359   3.093 -1.7792 -0.2278  0.3162
   69MOL0     H 9295  13.634   9.801   3.152 -3.2396  0.8319  0.8015
   69MOL0     H 9296  13.391   9.783   3.185  0.6790  1.5812 -1.9530
   69MOL0     H 9297  12.936   9.589   2.965 -0.2662  2.0409  0.1504
   69MOL0     H 9298  12.709   9.554   3.046 -1.7052  1.1222  0.9980
   69MOL0     H 9299  11.713   9.315   4.663 -2.2288  1.6619  1.1504
   69MOL0     H 9300  11.483   9.349   4.625  1.7572  1.3190  1.5387
   69MOL0     H 9301  11.072   9.157   4.515  2.0056 -2.1488  1.0510
   69MOL0     H 9302  10.838   9.148   4.464 -1.9945 -0.7128  0.6578
   69MOL0     H 9303  10.605   9.079   4.431 -1.1141 -0.4998  0.8025
   69MOL0     H 9304  10.653   9.233   4.493  0.1422 -0.6791 -2.5649
   69MOL0     H 9305  10.410   9.262   4.449 -2.5698  0.7185  0.5242
   69MOL0     H 9306  10.417   9.219   4.619  1.5074  0.2353 -0.6860
   69MOL0     H 9307  10.354   8.974   4.531  1.9837  0.1524 -1.1855
   69MOL0     H 9308  10.355   9.039   4.370 -1.0980  3.0962 -1.6755
   69MOL0     H 9309  10.143   9.091   4.574  1.0721  0.3793  0.9203
   69MOL0     H 9310  10.204   9.219   4.464  4.1396 -0.4581 -0.0246
   69MOL0     H 9311   9.998   9.001   4.182  0.6478 -0.3430 -0.1448
   69MOL0     H 9312  10.725   9.052   4.859 -1.8051  1.4539 -0.8754
   69MOL0     H 9313  11.071   9.111   4.998 -0.7093  0.4901 -1.3374
   69MOL0     H 9314  10.901   9.083   5.043 -0.6032  2.4810 -0.1654
   69MOL0     H 9315  11.002   8.948   4.995 -0.9227  0.2885  2.3761
   70MOL0     O 9316  10.017  11.003   5.410 -0.2974  0.5315 -0.2748
   70MOL0     C 9317   9.999  11.116   5.383  1.1028 -0.3624  0.0453
   70MOL0     O 9318  10.094  11.217   5.398 -0.4387 -0.0244 -0.2446
   70MOL0     C 9319  10.224  11.174   5.380  0.9402 -0.6018 -0.2258
   70MOL0     C 9320  10.326  11.201   5.479  0.6468 -0.3126 -0.2744
   70MOL0     C 9321  10.463  11.164   5.454  0.4643 -0.0383  0.3207
   70MOL0     C 9322  10.494  11.097   5.336  0.2060 -0.4721  0.5268
   70MOL0     O 9323  10.624  11.049   5.317 -0.4805 -0.0573  0.3190
   70MOL0     C 9324  10.667  11.019   5.184  0.6430 -0.1124  0.1040
   70MOL0     C 9325  10.818  11.035   5.173 -0.4509 -0.1014 -1.0004
   70MOL0     C 9326  10.867  11.030   5.032 -0.5834  0.4405 -0.9181
   70MOL0     C 9327  11.017  11.023   5.025  1.5081  0.1438  0.0421
   70MOL0     C 9328  11.061  10.999   4.882  0.4900 -0.2608 -0.6869
   70MOL0     C 9329  11.202  10.943   4.874  0.0955 -0.3060 -0.0835
   70MOL0     C 9330  11.225  10.870   4.736  0.0072 -0.2685 -0.1563
   70MOL0     C 9331  11.262  10.957   4.613 -0.0331  0.5307 -0.1594
   70MOL0     N 9332  11.309  10.880   4.504  0.3860  0.0536  0.0884
   70MOL0     C 9333  11.430  10.825   4.471 -0.0064  0.1554  0.2569
   70MOL0     C 9334  11.408  10.758   4.352  1.1374  0.4562  0.5429
   70MOL0     C 9335  11.525  10.712   4.268  0.7297 -0.1894 -0.2735
   70MOL0     C 9336  11.582  10.589   4.333  0.3577  0.0111  0.8699
   70MOL0     C 9337  11.686  10.519   4.247  0.0885 -0.2783 -0.2234
   70MOL0     C 9338  11.820  10.591   4.265  0.0927 -0.3969 -0.3280
   70MOL0     O 9339  11.843  10.681   4.155  0.4743  0.7358 -0.7801
   70MOL0     C 9340  11.960  10.727   4.118 -0.0620  0.0952  0.1494
   70MOL0     C 9341  12.076  10.701   4.191  0.7633  0.1068 -0.0495
   70MOL0     C 9342  12.199  10.741   4.141  0.5795  0.8035  0.0214
   70MOL0     C 9343  12.215  10.820   4.019  1.1022  0.0687  0.6996
   70MOL0     C 9344  12.350  10.851   3.960 -0.4865  0.0236  0.2750
   70MOL0     O 9345  12.467  10.839   4.032 -0.4244  0.2570  0.1591
   70MOL0     C 9346  12.599  10.861   3.997 -0.0343 -0.5226  0.0397
   70MOL0     C 9347  12.703  10.824   4.088 -0.7378 -0.3506  0.9640
   70MOL0     C 9348  12.835  10.845   4.053 -0.1290  0.1106 -0.3294
   70MOL0     C 9349  12.871  10.911   3.937  0.2592 -0.6140  0.4484
   70MOL0     O 9350  13.006  10.931   3.922 -0.0092  0.2114 -0.4932
   70MOL0     C 9351  13.059  10.961   3.790  0.1176  0.5680 -0.1021
   70MOL0     C 9352  13.196  11.027   3.793  0.7133  0.3092  0.3633
   70MOL0     C 9353  13.295  10.917   3.823 -0.4821  0.1954 -0.2862
   70MOL0     C 9354  13.430  10.975   3.827 -0.6347  0.0599 -0.1226
   70MOL0     C 9355  13.544  10.871   3.827 -0.2815  0.0712  0.1840
   70MOL0     C 9356  13.675  10.946   3.835  0.0559 -0.2165 -0.2323
   70MOL0     C 9357  13.800  10.861   3.809 -0.0076 -0.0956  0.2119
   70MOL0     C 9358  13.932  10.939   3.826 -0.3175 -0.3594 -0.1730
   70MOL0    Cl 9359  13.939  11.075   3.708 -0.0554  0.4537  0.1050
   70MOL0     C 9360  12.770  10.948   3.841 -0.3342  0.4704  0.4679
   70MOL0     C 9361  12.638  10.931   3.884  1.0703 -0.4701 -0.4101
   70MOL0     O 9362  12.340  10.898   3.843 -0.5094  0.2754 -0.9101
   70MOL0     C 9363  12.086  10.852   3.960  0.1045 -0.1134 -0.3663
   70MOL0     C 9364  11.967  10.797   4.001  0.4945 -0.1127  0.6702
   70MOL0     N 9365  11.280  10.768   4.317 -0.2134  0.2105  0.9586
   70MOL0     N 9366  11.220  10.828   4.414 -0.7057 -0.5324 -0.0977
   70MOL0     C 9367  10.399  11.073   5.242 -0.1704 -0.9290  0.6795
   70MOL0     C 9368  10.270  11.118   5.262  0.5018 -0.6376 -0.5667
   70MOL0     C 9369   9.858  11.141   5.361  0.1619 -0.2048  1.0662
   70MOL0     C 9370   9.784  11.040   5.288 -0.8242 -0.2737  0.2055
   70MOL0     C 9371   9.645  11.052   5.257 -0.5606  0.2810 -0.2561
   70MOL0     C 9372   9.579  11.163   5.313 -0.1320  0.8997 -0.1723
   70MOL0     O 9373   9.448  11.180   5.298 -0.0521 -0.8203 -0.2262
   70MOL0     C 9374   9.380  11.079   5.381 -0.5098 -1.4417 -0.9751
   70MOL0     C 9375   9.259  11.151   5.450  0.1700 -0.4600 -0.3808
   70MOL0     C 9376   9.162  11.043   5.496 -0.3769  0.2959  0.0753
   70MOL0     C 9377   9.056  11.102   5.584  0.8244  0.2903 -0.1285
   70MOL0     C 9378   8.977  11.006   5.667 -0.6493 -0.1885  0.3150
   70MOL0     C 9379   8.926  10.932   5.744 -0.3779 -1.0947 -0.1173
   70MOL0     C 9380   9.654  11.258   5.376 -0.1009  0.5242 -0.6007
   70MOL0     C 9381   9.793  11.254   5.412  0.5040  0.9065  0.2274
   70MOL0     C 9382   9.851  11.341   5.519 -0.8367 -0.0459  0.5524
   70MOL0     H 9383  10.303  11.261   5.567 -1.6723  1.5605 -2.0300
   70MOL0     H 9384  10.538  11.186   5.528  2.6249  3.5988 -2.5539
   70MOL0     H 9385  10.642  10.914   5.168 -2.9320  0.5815  0.1859
   70MOL0     H 9386  10.628  11.082   5.104 -0.1459  1.1388  1.4113
   70MOL0     H 9387  10.875  10.975   5.245  1.1820  0.3421 -1.8552
   70MOL0     H 9388  10.832  11.134   5.218 -0.1792 -0.8396  0.6466
   70MOL0     H 9389  10.834  11.119   4.977 -1.6743 -0.2285 -1.3979
   70MOL0     H 9390  10.812  10.945   4.988 -0.4244 -1.2203  1.8746
   70MOL0     H 9391  11.058  11.118   5.058  1.1673  0.1600  0.4265
   70MOL0     H 9392  11.060  10.949   5.094  2.5319  0.8193  0.1499
   70MOL0     H 9393  10.984  10.930   4.847  2.1475 -1.4970 -2.1076
   70MOL0     H 9394  11.049  11.089   4.820 -0.5800 -0.4710 -0.8000
   70MOL0     H 9395  11.272  11.024   4.895 -3.4906  2.0565  4.9474
   70MOL0     H 9396  11.210  10.868   4.954 -0.3693  1.1061  1.3456
   70MOL0     H 9397  11.148  10.791   4.728  1.1526 -1.4411  0.1002
   70MOL0     H 9398  11.317  10.811   4.743 -0.4434 -1.1228 -1.0348
   70MOL0     H 9399  11.166  11.004   4.591 -2.0267 -2.6884  1.0458
   70MOL0     H 9400  11.336  11.036   4.629 -0.7033  1.0472  0.4696
   70MOL0     H 9401  11.524  10.835   4.526 -1.0556  2.4297  1.8173
   70MOL0     H 9402  11.510  10.697   4.161  0.3107  1.0705 -0.4046
   70MOL0     H 9403  11.595  10.795   4.280 -0.0490  0.3073  1.1645
   70MOL0     H 9404  11.618  10.618   4.432 -0.9036 -0.4146  1.4750
   70MOL0     H 9405  11.502  10.517   4.354  0.4736 -0.4060 -0.0574
   70MOL0     H 9406  11.644  10.515   4.146 -1.7760  1.8030  0.3837
   70MOL0     H 9407  11.699  10.416   4.279 -3.3531 -0.7496  0.0041
   70MOL0     H 9408  11.901  10.520   4.283 -0.2717 -0.3111  2.0562
   70MOL0     H 9409  11.824  10.652   4.356  1.2820  0.5435 -0.9868
   70MOL0     H 9410  12.073  10.648   4.286 -0.1194 -0.9826 -0.6593
   70MOL0     H 9411  12.290  10.702   4.185  1.4954 -0.7997 -2.9936
   70MOL0     H 9412  12.674  10.777   4.182 -1.5552 -0.5948  0.5951
   70MOL0     H 9413  12.919  10.810   4.111 -1.0713 -3.8880 -1.0664
   70MOL0     H 9414  13.080  10.867   3.739 -0.1307 -0.6620  1.9652
   70MOL0     H 9415  12.999  11.023   3.723  2.8825  2.1190 -1.3467
   70MOL0     H 9416  13.208  11.070   3.693 -3.2966 -0.6315 -0.7093
   70MOL0     H 9417  13.201  11.102   3.872  2.5710 -1.5273  2.1031
   70MOL0     H 9418  13.276  10.849   3.907  1.3642  1.5348  1.3121
   70MOL0     H 9419  13.290  10.849   3.738 -2.3077  0.2449 -0.2693
   70MOL0     H 9420  13.440  11.030   3.921  1.0005  0.3468 -0.4406
   70MOL0     H 9421  13.451  11.032   3.735  0.5314 -0.4623 -0.1968
   70MOL0     H 9422  13.542  10.811   3.736  1.8640 -1.9841  1.3688
   70MOL0     H 9423  13.547  10.794   3.905 -0.5081 -2.4986 -2.2085
   70MOL0     H 9424  13.660  11.020   3.755 -1.6933 -0.7684 -0.4665
   70MOL0     H 9425  13.678  11.008   3.925  1.9227  0.8806 -0.9878
   70MOL0     H 9426  13.798  10.829   3.704 -0.4151  6.6500 -2.3420
   70MOL0     H 9427  13.812  10.775   3.876  2.3283 -0.3140 -0.3999
   70MOL0     H 9428  13.923  10.977   3.929  0.8994 -4.7738  1.7824
   70MOL0     H 9429  14.016  10.872   3.806  0.5793  0.7556 -0.2265
   70MOL0     H 9430  12.795  10.995   3.747  2.3358  2.4178  1.9712
   70MOL0     H 9431  12.565  10.976   3.817  1.8694  1.5664  0.0014
   70MOL0     H 9432  12.089  10.907   3.866  0.0913  3.5672  1.6012
   70MOL0     H 9433  11.876  10.814   3.944  1.4815  0.3736 -0.8247
   70MOL0     H 9434  10.421  11.030   5.144  0.3348  1.5256 -0.3561
   70MOL0     H 9435  10.192  11.127   5.187 -0.3450  0.2030  0.3961
   70MOL0     H 9436   9.841  10.957   5.249  0.1928  0.4505  0.1106
   70MOL0     H 9437   9.598  10.981   5.189 -0.9510 -0.7415  1.0480
   70MOL0     H 9438   9.437  11.032   5.462 -0.7225  1.0786  0.7171
   70MOL0     H 9439   9.349  10.999   5.312  1.0601 -2.5519 -0.4548
   70MOL0     H 9440   9.195  11.202   5.379 -1.1297 -1.9940 -0.3646
   70MOL0     H 9441   9.291  11.212   5.536 -0.3085 -0.6439 -0.0678
   70MOL0     H 9442   9.213  10.975   5.565  0.8667  1.9201  0.8228
   70MOL0     H 9443   9.125  10.979   5.415 -4.2978 -1.2895  2.7725
   70MOL0     H 9444   9.119  11.171   5.640  3.8225 -1.3823 -1.1915
   70MOL0     H 9445   8.985  11.159   5.524  1.0523 -1.5271 -2.2670
   70MOL0     H 9446   8.875  10.864   5.809  0.5292 -3.1099 -1.3828
   70MOL0     H 9447   9.605  11.341   5.426 -0.5876 -1.6906  2.9080
   70MOL0     H 9448   9.916  11.286   5.587  0.6841 -0.3210 -1.0500
   70MOL0     H 9449   9.899  11.429   5.477 -0.1948 -0.7021 -0.1067
   70MOL0     H 9450   9.771  11.388   5.578  0.8600  2.5324  0.9435
   71MOL0     O 9451   3.303   8.302   4.217 -0.2258  0.1671 -0.2867
   71MOL0     C 9452   3.218   8.360   4.147  0.1295 -0.5443  0.0426
   71MOL0     O 9453   3.206   8.343   4.007  0.7309  0.3141  0.2916
   71MOL0     C 9454   3.297   8.265   3.942  0.5712  0.0916  0.2815
   71MOL0     C 9455   3.436   8.298   3.951  0.5041  0.1402  0.7660
   71MOL0     C 9456   3.541   8.248   3.869 -0.3914  0.2034 -0.9259
   71MOL0     C 9457   3.503   8.155   3.766 -0.2613 -0.3480 -0.2464
   71MOL0     O 9458   3.591   8.101   3.668 -0.4171  0.2941  0.2705
   71MOL0     C 9459   3.722   8.143   3.664 -0.7215  0.1411 -1.0399
   71MOL0     C 9460   3.783   8.088   3.537  0.1291 -0.4050 -0.1477
   71MOL0     C 9461   3.931   8.151   3.517 -0.0030  0.0914  0.0801
   71MOL0     C 9462   3.975   8.140   3.370  0.2402  0.1131  0.0169
   71MOL0     C 9463   4.121   8.143   3.348  0.3985 -0.3452 -0.2626
   71MOL0     C 9464   4.190   8.020   3.405  0.1307  0.3654 -0.4334
   71MOL0     C 9465   4.339   8.057   3.406 -0.9311 -0.0978  0.2068
   71MOL0     C 9466   4.433   7.935   3.412 -0.3906  0.8274 -0.4665
   71MOL0     N 9467   4.578   7.974   3.439  0.3929 -1.1665  0.3127
   71MOL0     C 9468   4.619   8.016   3.562 -0.2466  0.2288  0.4414
   71MOL0     C 9469   4.747   8.061   3.532  1.4018 -0.4128  0.2297
   71MOL0     C 9470   4.853   8.128   3.617  0.9865  0.9916  0.4571
   71MOL0     C 9471   4.930   8.245   3.561 -0.6686 -1.5390  0.6163
   71MOL0     C 9472   5.031   8.301   3.662 -0.2907  0.3105  0.5138
   71MOL0     C 9473   5.154   8.385   3.605  0.0501 -0.4069  0.1165
   71MOL0     O 9474   5.240   8.439   3.712  0.6174 -0.3295  0.7602
   71MOL0     C 9475   5.372   8.438   3.696 -0.2556  0.4103  0.4718
   71MOL0     C 9476   5.436   8.315   3.683  0.0350  0.9145 -0.9873
   71MOL0     C 9477   5.569   8.307   3.662 -0.5795 -0.7145 -0.7396
   71MOL0     C 9478   5.653   8.423   3.655 -0.0194 -0.0620  0.2085
   71MOL0     C 9479   5.796   8.418   3.642  0.1518  0.4658 -0.3229
   71MOL0     O 9480   5.869   8.548   3.643 -0.2756  0.5431  0.0888
   71MOL0     C 9481   6.004   8.557   3.621  0.2674  0.4561 -0.4633
   71MOL0     C 9482   6.105   8.460   3.628 -0.4634  0.1148  0.2458
   71MOL0     C 9483   6.241   8.486   3.590  0.3564 -0.2886  0.7750
   71MOL0     C 9484   6.276   8.621   3.556  0.7438 -0.5687 -0.3511
   71MOL0     O 9485   6.415   8.648   3.539  0.1203 -0.2231  0.6896
   71MOL0     C 9486   6.456   8.739   3.442 -0.5791  0.3078  0.2480
   71MOL0     C 9487   6.601   8.757   3.424 -0.0931  0.7811 -0.7081
   71MOL0     C 9488   6.680   8.626   3.390  0.0811 -1.2811  1.1009
   71MOL0     C 9489   6.822   8.656   3.348  0.5429 -0.0362  0.2734
   71MOL0     C 9490   6.887   8.519   3.317  1.1625 -0.2983  0.0172
   71MOL0     C 9491   7.033   8.529   3.258  0.8724  0.1346 -0.1710
   71MOL0     C 9492   7.125   8.582   3.370 -0.8267 -0.7246  0.7879
   71MOL0     C 9493   7.269   8.586   3.335  0.0594  0.4313  0.3795
   71MOL0    Cl 9494   7.365   8.622   3.485  0.0233  0.0652  0.2587
   71MOL0     C 9495   6.179   8.721   3.556  0.0158 -0.1271  0.0676
   71MOL0     C 9496   6.041   8.688   3.584 -0.3611  0.2409  0.6309
   71MOL0     O 9497   5.840   8.306   3.614 -0.0919 -0.3156 -0.0831
   71MOL0     C 9498   5.586   8.549   3.659 -0.0238  0.6348  0.5271
   71MOL0     C 9499   5.446   8.556   3.680  0.3842  0.0648 -0.1039
   71MOL0     N 9500   4.771   8.041   3.398 -0.1477 -0.0685 -0.4651
   71MOL0     N 9501   4.679   7.975   3.341  0.4812 -0.2165  0.4137
   71MOL0     C 9502   3.366   8.126   3.757 -0.2197  0.3842 -0.9109
   71MOL0     C 9503   3.258   8.177   3.833 -0.1444 -1.2822 -0.4525
   71MOL0     C 9504   3.112   8.445   4.214 -0.4301  0.0566  0.0676
   71MOL0     C 9505   2.992   8.448   4.143  0.8861  0.5333 -0.2280
   71MOL0     C 9506   2.892   8.541   4.179  0.0429  0.0706 -0.2659
   71MOL0     C 9507   2.905   8.618   4.297  0.1019 -0.0319  0.7897
   71MOL0     O 9508   2.799   8.698   4.339 -0.2499  1.1274  0.5984
   71MOL0     C 9509   2.798   8.746   4.475 -0.4442  0.4668 -0.3710
   71MOL0     C 9510   2.657   8.815   4.495 -0.7174 -0.0383  0.4457
   71MOL0     C 9511   2.666   8.901   4.620  0.2130 -0.6054 -0.2994
   71MOL0     C 9512   2.540   8.983   4.643  0.4473 -0.7814  0.9061
   71MOL0     C 9513   2.442   8.905   4.714 -0.1559  0.4318 -0.2403
   71MOL0     C 9514   2.331   8.865   4.751 -0.3871  0.0780 -0.3987
   71MOL0     C 9515   3.025   8.602   4.369 -0.4302  0.0536 -0.5134
   71MOL0     C 9516   3.124   8.524   4.327 -0.1790  0.6368 -0.6392
   71MOL0     C 9517   3.249   8.518   4.410 -0.1478 -0.0754  0.6457
   71MOL0     H 9518   3.460   8.370   4.029 -2.0361  0.2003  1.5579
   71MOL0     H 9519   3.644   8.282   3.884 -0.5549  0.1758  0.3709
   71MOL0     H 9520   3.731   8.252   3.670  1.8752 -0.0873  1.6911
   71MOL0     H 9521   3.780   8.105   3.748 -3.1443 -1.0066  0.1824
   71MOL0     H 9522   3.716   8.130   3.461 -0.0812  1.6163  1.0616
   71MOL0     H 9523   3.785   7.979   3.543 -0.2748 -0.3785  0.6104
   71MOL0     H 9524   3.997   8.102   3.588 -1.4266 -1.7888  0.1757
   71MOL0     H 9525   3.940   8.259   3.531 -1.0992  0.3352 -0.9273
   71MOL0     H 9526   3.937   8.052   3.318  1.0919 -1.3710  1.8119
   71MOL0     H 9527   3.932   8.228   3.321 -0.2922  1.5288  2.7899
   71MOL0     H 9528   4.127   8.140   3.239  1.0955 -3.2249 -0.2299
   71MOL0     H 9529   4.160   8.239   3.384 -0.9403  0.1203  0.0118
   71MOL0     H 9530   4.162   7.992   3.507 -0.4054  0.2103 -0.6195
   71MOL0     H 9531   4.174   7.924   3.356  1.2007 -1.9515  3.2886
   71MOL0     H 9532   4.357   8.120   3.493 -0.1608 -1.0927  0.7960
   71MOL0     H 9533   4.365   8.118   3.319  1.7123 -0.7286  0.4780
   71MOL0     H 9534   4.399   7.871   3.495 -3.3480 -0.0566 -2.1972
   71MOL0     H 9535   4.416   7.880   3.319 -1.0730 -0.0530  0.1630
   71MOL0     H 9536   4.575   8.003   3.660  0.4853 -2.0155  0.5319
   71MOL0     H 9537   4.816   8.161   3.714 -0.3560  2.7759 -0.6091
   71MOL0     H 9538   4.917   8.041   3.635  0.1770  1.1299  5.1324
   71MOL0     H 9539   4.981   8.212   3.470 -0.3009  0.4336  0.0583
   71MOL0     H 9540   4.870   8.330   3.526  2.6156  0.0226 -1.7592
   71MOL0     H 9541   5.062   8.217   3.725  1.2457 -0.9720 -1.7899
   71MOL0     H 9542   4.978   8.363   3.735 -1.4359  2.1514 -1.7214
   71MOL0     H 9543   5.106   8.467   3.552 -0.7138 -1.1278 -0.3372
   71MOL0     H 9544   5.204   8.321   3.531 -2.9628 -3.8094  0.7273
   71MOL0     H 9545   5.379   8.223   3.686  2.5757 -0.7429  0.3978
   71MOL0     H 9546   5.618   8.211   3.650  3.1871  0.6898  1.5673
   71MOL0     H 9547   6.077   8.358   3.652  1.5489 -0.2699  1.1134
   71MOL0     H 9548   6.306   8.401   3.611  1.3920 -0.7869 -3.5795
   71MOL0     H 9549   6.416   8.701   3.348 -2.5656  2.4244  0.1392
   71MOL0     H 9550   6.403   8.832   3.464  2.5920  2.0350  1.2442
   71MOL0     H 9551   6.609   8.831   3.344  2.0684  1.4463  0.0258
   71MOL0     H 9552   6.645   8.800   3.515  3.9703  0.3677 -2.2685
   71MOL0     H 9553   6.670   8.548   3.466  0.2978  0.0535  2.5421
   71MOL0     H 9554   6.639   8.579   3.300 -2.8649  1.6398  0.7182
   71MOL0     H 9555   6.876   8.720   3.418 -0.7541  3.3649 -1.5905
   71MOL0     H 9556   6.823   8.729   3.266  0.8977  0.3683  0.6304
   71MOL0     H 9557   6.823   8.473   3.241  0.2087  1.9713 -0.6277
   71MOL0     H 9558   6.877   8.453   3.404 -1.3762 -0.6329 -0.4581
   71MOL0     H 9559   7.051   8.424   3.231 -2.1298 -0.1825 -1.3473
   71MOL0     H 9560   7.041   8.589   3.167 -1.5326  1.1640  0.2097
   71MOL0     H 9561   7.112   8.516   3.456  0.3736 -0.2823  1.3419
   71MOL0     H 9562   7.098   8.686   3.391 -1.5532 -1.1102  1.8355
   71MOL0     H 9563   7.309   8.493   3.291 -0.0385  1.7348 -2.7402
   71MOL0     H 9564   7.281   8.671   3.268 -1.3511  0.8194  0.5901
   71MOL0     H 9565   6.210   8.825   3.544  1.1182  0.0691  3.5890
   71MOL0     H 9566   5.971   8.770   3.578 -0.6775 -0.0662  0.0834
   71MOL0     H 9567   5.635   8.645   3.649 -2.1250  1.5772 -1.4965
   71MOL0     H 9568   5.398   8.653   3.690  0.9050  0.3338 -0.1679
   71MOL0     H 9569   3.343   8.060   3.673  4.9879 -0.1626 -2.2316
   71MOL0     H 9570   3.152   8.154   3.823 -0.3517  0.1731 -2.1009
   71MOL0     H 9571   2.969   8.385   4.058  2.5082  1.6384 -1.5736
   71MOL0     H 9572   2.803   8.554   4.118  1.3359  0.1443 -2.2343
   71MOL0     H 9573   2.876   8.822   4.485 -1.0768  1.1274 -0.3706
   71MOL0     H 9574   2.814   8.666   4.548  0.2896  2.5581  1.8915
   71MOL0     H 9575   2.584   8.734   4.503  0.8495 -1.6459 -0.6941
   71MOL0     H 9576   2.639   8.884   4.412 -1.0946 -1.4151 -0.6522
   71MOL0     H 9577   2.749   8.972   4.617  1.4975 -2.0824 -1.3302
   71MOL0     H 9578   2.679   8.845   4.713  0.7822 -1.5114 -0.9082
   71MOL0     H 9579   2.560   9.072   4.704 -1.5571  0.0028  0.4800
   71MOL0     H 9580   2.495   9.029   4.554 -0.2293 -1.9449  0.6292
   71MOL0     H 9581   2.234   8.833   4.781 -1.0237  1.2051 -1.1981
   71MOL0     H 9582   3.042   8.663   4.458 -0.5599  3.8680 -2.9040
   71MOL0     H 9583   3.243   8.425   4.466 -2.0192  0.6888  1.8115
   71MOL0     H 9584   3.335   8.525   4.343  1.2205  1.3330  2.4434
   71MOL0     H 9585   3.263   8.602   4.479  3.1309 -0.1806  0.2449
   72MOL0     O 9586   6.195   2.494   0.903 -0.1858 -0.1431  0.7185
   72MOL0     C 9587   6.193   2.597   0.840 -0.0383 -0.2270  0.6315
   72MOL0     O 9588   6.301   2.685   0.831 -0.0180  0.6406 -0.2562
   72MOL0     C 9589   6.429   2.666   0.889 -0.1816  0.3466 -0.5706
   72MOL0     C 9590   6.472   2.565   0.976  0.1470 -0.0777  0.9846
   72MOL0     C 9591   6.595   2.569   1.038 -0.1616 -0.5974  0.2872
   72MOL0     C 9592   6.685   2.676   1.024 -0.6942  0.7465 -0.1542
   72MOL0     O 9593   6.803   2.670   1.089  0.1554 -0.0815 -0.5089
   72MOL0     C 9594   6.915   2.726   1.018  0.2639  0.4663 -0.1692
   72MOL0     C 9595   7.035   2.629   1.025  0.4524  1.1346  0.1818
   72MOL0     C 9596   7.164   2.674   0.957  0.2584  0.9424  0.4085
   72MOL0     C 9597   7.234   2.803   1.015 -0.4225 -0.1934  0.5938
   72MOL0     C 9598   7.370   2.827   0.940  0.7532 -0.2596 -0.1105
   72MOL0     C 9599   7.453   2.914   1.032  0.6884  0.1602 -0.2269
   72MOL0     C 9600   7.596   2.887   1.014 -0.3585  0.0034 -0.0805
   72MOL0     C 9601   7.652   2.896   0.873 -0.3950 -0.6144 -0.2807
   72MOL0     N 9602   7.799   2.907   0.861  0.3888 -0.0707 -0.2984
   72MOL0     C 9603   7.869   3.026   0.842 -0.5253 -0.4197  0.0221
   72MOL0     C 9604   7.996   2.983   0.821 -0.8794 -0.5291 -0.2014
   72MOL0     C 9605   8.117   3.083   0.790  0.4832  0.0461 -0.0009
   72MOL0     C 9606   8.248   3.010   0.805 -0.8435  0.1182  0.8950
   72MOL0     C 9607   8.356   3.087   0.736  0.2039 -0.2576  0.8156
   72MOL0     C 9608   8.493   3.067   0.788 -0.0093 -0.1899  1.2508
   72MOL0     O 9609   8.575   3.158   0.716  1.0035 -0.4231 -0.1538
   72MOL0     C 9610   8.711   3.162   0.731  0.3759  0.6648  0.4592
   72MOL0     C 9611   8.784   3.078   0.818  0.6300  0.4168 -0.4185
   72MOL0     C 9612   8.920   3.089   0.836  0.5362 -0.3676  0.3920
   72MOL0     C 9613   8.989   3.190   0.769 -1.5032  0.0714 -0.3088
   72MOL0     C 9614   9.136   3.199   0.775 -0.0491 -0.6044  0.1622
   72MOL0     O 9615   9.188   3.304   0.704  0.2896 -0.5722  0.3152
   72MOL0     C 9616   9.292   3.376   0.760  0.8838  0.7852  0.2171
   72MOL0     C 9617   9.375   3.457   0.672  0.6367 -0.0247 -0.6757
   72MOL0     C 9618   9.494   3.512   0.725  0.3222  0.2241 -0.8426
   72MOL0     C 9619   9.535   3.493   0.856  0.5355  0.4262  0.8382
   72MOL0     O 9620   9.653   3.543   0.901  0.2605  0.1530 -0.1460
   72MOL0     C 9621   9.703   3.502   1.027 -0.3528  0.4141 -0.5957
   72MOL0     C 9622   9.854   3.549   1.045 -0.8535  0.3110 -0.8080
   72MOL0     C 9623   9.878   3.570   1.193  0.5207  0.3728  0.0191
   72MOL0     C 9624  10.029   3.570   1.214  0.4899  0.3402 -0.1609
   72MOL0     C 9625  10.063   3.588   1.363  0.1615 -0.1562 -0.1064
   72MOL0     C 9626  10.218   3.599   1.377 -0.0263 -0.1315 -0.7199
   72MOL0     C 9627  10.257   3.668   1.505  0.1776 -0.2295 -0.1614
   72MOL0     C 9628  10.411   3.700   1.503  0.7335  0.4073 -0.0387
   72MOL0    Cl 9629  10.501   3.553   1.511 -0.2453  0.0013 -0.2597
   72MOL0     C 9630   9.453   3.410   0.937 -0.3660  0.0530 -0.2041
   72MOL0     C 9631   9.330   3.358   0.891 -0.2543 -0.8986  0.1770
   72MOL0     O 9632   9.202   3.108   0.822 -0.0254 -0.0422  0.3507
   72MOL0     C 9633   8.916   3.270   0.677  0.1110  0.0143  0.1759
   72MOL0     C 9634   8.780   3.248   0.652  0.4237 -0.3496  0.8669
   72MOL0     N 9635   8.002   2.846   0.828 -0.2767 -0.1893  0.2987
   72MOL0     N 9636   7.886   2.798   0.862 -0.2886  0.1729  0.2871
   72MOL0     C 9637   6.644   2.778   0.940 -0.6400  0.3685  0.6517
   72MOL0     C 9638   6.520   2.773   0.871  0.3324  0.8715 -0.2889
   72MOL0     C 9639   6.066   2.641   0.775  0.4998 -0.1591  0.3215
   72MOL0     C 9640   6.077   2.730   0.667 -0.3631  0.1519  0.6109
   72MOL0     C 9641   5.961   2.777   0.606  1.0790 -0.1059  0.2727
   72MOL0     C 9642   5.831   2.736   0.647  0.6391 -1.1021 -0.7370
   72MOL0     O 9643   5.725   2.784   0.569  0.2868  0.4418 -0.2848
   72MOL0     C 9644   5.588   2.764   0.614 -0.2148  0.1742  0.5271
   72MOL0     C 9645   5.494   2.866   0.539  0.1887 -0.0495  0.6695
   72MOL0     C 9646   5.483   2.989   0.633  0.2565  1.2037  0.1104
   72MOL0     C 9647   5.399   3.098   0.575 -0.5542 -0.4407 -0.8662
   72MOL0     C 9648   5.270   3.088   0.638  0.3366 -0.0658  0.9571
   72MOL0     C 9649   5.156   3.085   0.680 -0.4505  0.3475  0.2351
   72MOL0     C 9650   5.820   2.643   0.755 -0.1929 -0.7247  0.8280
   72MOL0     C 9651   5.937   2.604   0.816 -0.1876 -0.3123  0.1270
   72MOL0     C 9652   5.920   2.496   0.924 -0.8289 -0.6784  0.7067
   72MOL0     H 9653   6.397   2.493   1.007 -0.0412 -0.8281 -1.0272
   72MOL0     H 9654   6.615   2.480   1.096  1.7500  0.1429  0.8336
   72MOL0     H 9655   6.879   2.753   0.919 -4.8127  1.1337  1.5489
   72MOL0     H 9656   6.951   2.817   1.066 -0.4639  1.3988 -1.3305
   72MOL0     H 9657   7.014   2.534   0.975  0.3732  1.2862 -0.0792
   72MOL0     H 9658   7.060   2.606   1.129 -1.9674 -2.4237  0.1469
   72MOL0     H 9659   7.121   2.685   0.857  0.0037  0.0346  0.4037
   72MOL0     H 9660   7.227   2.585   0.953  1.3746  1.6718  1.1676
   72MOL0     H 9661   7.186   2.898   0.990  2.8932  2.0792  2.0945
   72MOL0     H 9662   7.245   2.797   1.124  3.9172  1.2004  0.4195
   72MOL0     H 9663   7.405   2.724   0.937 -2.0668 -1.3127 -0.2269
   72MOL0     H 9664   7.370   2.876   0.842  1.5398  2.6220  1.2098
   72MOL0     H 9665   7.425   3.019   1.021 -2.4595 -0.6182 -0.6860
   72MOL0     H 9666   7.422   2.892   1.135 -0.9460 -1.4016 -0.9928
   72MOL0     H 9667   7.618   2.792   1.063  3.8665  1.3094  1.0107
   72MOL0     H 9668   7.648   2.968   1.066 -0.2862  0.7176 -1.2219
   72MOL0     H 9669   7.603   2.824   0.807 -2.7187  0.4739  0.1449
   72MOL0     H 9670   7.614   2.984   0.821 -0.3963 -1.3550 -1.5913
   72MOL0     H 9671   7.833   3.126   0.861  0.8940 -0.2361  2.1180
   72MOL0     H 9672   8.108   3.115   0.686  3.9290 -1.4393 -0.9163
   72MOL0     H 9673   8.118   3.163   0.864 -1.5851  1.7204 -1.6635
   72MOL0     H 9674   8.286   2.998   0.907  1.1800  0.8232  0.2635
   72MOL0     H 9675   8.240   2.909   0.763 -1.9168  0.0782  1.1481
   72MOL0     H 9676   8.336   3.194   0.727  0.0683 -0.4368 -1.9896
   72MOL0     H 9677   8.360   3.048   0.634  0.3789  1.7176  0.0133
   72MOL0     H 9678   8.516   2.963   0.764 -0.6744  0.0185 -0.3827
   72MOL0     H 9679   8.507   3.083   0.896  1.9788 -1.9371  1.3097
   72MOL0     H 9680   8.731   3.007   0.880  0.8476  0.7604  0.1719
   72MOL0     H 9681   8.958   3.022   0.912 -2.5908 -0.9206  1.6334
   72MOL0     H 9682   9.350   3.483   0.570  0.0396 -0.8646 -0.7540
   72MOL0     H 9683   9.563   3.559   0.655 -1.7794  1.1646 -2.3941
   72MOL0     H 9684   9.648   3.564   1.099  1.7397  4.0325 -1.8082
   72MOL0     H 9685   9.690   3.394   1.023 -1.3444  0.4324  1.1012
   72MOL0     H 9686   9.921   3.472   1.006  1.4174  0.3661  2.5968
   72MOL0     H 9687   9.871   3.645   0.994  0.4389  0.0342 -0.9229
   72MOL0     H 9688   9.840   3.669   1.222 -2.2505 -1.0865  1.8032
   72MOL0     H 9689   9.830   3.491   1.251  0.9299  1.6468  2.1902
   72MOL0     H 9690  10.072   3.653   1.157  0.7090  2.1936  2.5502
   72MOL0     H 9691  10.070   3.478   1.173 -3.3505 -0.2913 -3.1338
   72MOL0     H 9692  10.021   3.498   1.409 -2.0981  0.2438 -1.2341
   72MOL0     H 9693  10.015   3.680   1.398 -1.7935 -1.3676  0.5271
   72MOL0     H 9694  10.267   3.501   1.379  3.6443  1.5485  0.3075
   72MOL0     H 9695  10.252   3.674   1.305 -4.0770  3.5765  0.7782
   72MOL0     H 9696  10.239   3.604   1.592 -0.5281  0.9576  0.5965
   72MOL0     H 9697  10.197   3.758   1.519  1.7333  0.8764 -0.2598
   72MOL0     H 9698  10.435   3.754   1.411  0.5980 -0.4310 -0.5727
   72MOL0     H 9699  10.442   3.761   1.588  0.3944 -0.9383  1.0896
   72MOL0     H 9700   9.473   3.387   1.042  2.1832 -2.3928 -1.1113
   72MOL0     H 9701   9.278   3.310   0.974  0.9110 -3.2278 -0.3697
   72MOL0     H 9702   8.972   3.345   0.622 -0.3443 -0.5730 -1.1082
   72MOL0     H 9703   8.721   3.307   0.582  1.0399  0.2539  0.8413
   72MOL0     H 9704   6.702   2.868   0.919 -1.5918  0.2611 -3.2084
   72MOL0     H 9705   6.469   2.850   0.814 -3.0026  1.3955  3.0567
   72MOL0     H 9706   6.178   2.751   0.632 -0.9479  1.4337 -0.4109
   72MOL0     H 9707   5.973   2.854   0.530 -0.8738  0.3800  0.4182
   72MOL0     H 9708   5.569   2.775   0.721 -0.2907  0.1305  0.5180
   72MOL0     H 9709   5.571   2.660   0.587 -1.5770  0.9759 -2.0652
   72MOL0     H 9710   5.397   2.821   0.518 -0.5638 -0.1558  3.7809
   72MOL0     H 9711   5.540   2.909   0.449 -0.0602  1.7451  1.3488
   72MOL0     H 9712   5.581   3.032   0.657 -0.8373  2.0965  3.4803
   72MOL0     H 9713   5.443   2.962   0.731  0.7895  1.0451  0.2879
   72MOL0     H 9714   5.442   3.197   0.591 -1.1180  0.0826 -2.4495
   72MOL0     H 9715   5.391   3.086   0.467  0.2253  1.9798 -1.2337
   72MOL0     H 9716   5.060   3.092   0.726  0.5022  0.8347  2.2874
   72MOL0     H 9717   5.728   2.607   0.800 -0.1906 -1.3211  0.3692
   72MOL0     H 9718   5.815   2.472   0.944 -0.7155 -0.7070  1.2984
   72MOL0     H 9719   5.963   2.402   0.888 -1.2065 -1.0900  1.3213
   72MOL0     H 9720   5.965   2.531   1.017 -0.0691 -0.7567  0.3734
   73MOL0     O 9721   0.530   0.341   1.874  0.8015  0.1759  0.1298
   73MOL0     C 9722   0.427   0.303   1.930 -0.8169  0.6318  0.2014
   73MOL0     O 9723   0.377   0.173   1.934 -0.7819 -0.3389 -0.0854
   73MOL0     C 9724   0.446   0.064   1.893 -0.9638  0.8499 -0.1432
   73MOL0     C 9725   0.577   0.040   1.938  0.0164  0.1656 -0.2123
   73MOL0     C 9726   0.654  -0.065   1.885  0.1755 -0.6859  0.1007
   73MOL0     C 9727   0.612  -0.153   1.783  0.3317  0.4862 -0.7791
   73MOL0     O 9728   0.685  -0.269   1.745  0.9444  0.2386 -0.7720
   73MOL0     C 9729   0.669  -0.330   1.619 -0.2497 -0.0878 -0.0232
   73MOL0     C 9730   0.776  -0.432   1.591 -0.2765 -0.4183 -0.1352
   73MOL0     C 9731   0.752  -0.498   1.454 -0.0998  0.1047  0.8272
   73MOL0     C 9732   0.796  -0.646   1.456 -0.2617  0.1946 -0.2332
   73MOL0     C 9733   0.943  -0.652   1.502  0.9338  0.5025  0.1948
   73MOL0     C 9734   1.008  -0.779   1.440  0.7269  0.0945 -1.0702
   73MOL0     C 9735   1.157  -0.766   1.412  0.1103 -0.2564 -0.4673
   73MOL0     C 9736   1.237  -0.734   1.543  0.0066 -0.4338 -0.1799
   73MOL0     N 9737   1.379  -0.757   1.515 -0.0662 -0.7611 -0.7325
   73MOL0     C 9738   1.436  -0.884   1.483 -0.1833 -0.1338 -0.2934
   73MOL0     C 9739   1.562  -0.849   1.449 -0.6024 -0.2778 -0.9862
   73MOL0     C 9740   1.672  -0.939   1.403  0.3747 -0.1169  0.6475
   73MOL0     C 9741   1.617  -1.053   1.317  0.2897  0.4342 -0.2462
   73MOL0     C 9742   1.717  -1.160   1.277 -0.8140  1.1214  0.1544
   73MOL0     C 9743   1.820  -1.099   1.188 -0.6075  0.4791  0.2404
   73MOL0     O 9744   1.928  -1.048   1.264  0.7503 -0.6462 -0.6104
   73MOL0     C 9745   2.057  -1.049   1.209 -0.1759 -0.2974  0.1685
   73MOL0     C 9746   2.161  -1.046   1.298 -0.5893  0.2964  1.0240
   73MOL0     C 9747   2.300  -1.051   1.258 -0.2544 -0.3548  1.3017
   73MOL0     C 9748   2.332  -1.055   1.118 -0.0956 -0.4140  0.9817
   73MOL0     C 9749   2.475  -1.056   1.073  0.5759 -0.1614  0.2676
   73MOL0     O 9750   2.496  -1.060   0.932 -0.5099  0.0879 -0.3121
   73MOL0     C 9751   2.620  -1.045   0.876 -0.1793  0.4351 -0.1855
   73MOL0     C 9752   2.662  -1.149   0.791 -0.0367 -0.2238 -0.0080
   73MOL0     C 9753   2.787  -1.142   0.731  0.0175 -0.6169 -0.5311
   73MOL0     C 9754   2.871  -1.033   0.765  0.0103 -0.1446 -0.1501
   73MOL0     O 9755   2.998  -1.009   0.711  0.7735  0.0759  0.4909
   73MOL0     C 9756   3.094  -1.122   0.705 -0.0637 -0.3042 -0.0947
   73MOL0     C 9757   3.101  -1.172   0.566  0.3322 -0.6807  0.1541
   73MOL0     C 9758   3.213  -1.285   0.571 -0.2808 -0.2721  0.1421
   73MOL0     C 9759   3.225  -1.365   0.442 -0.1966 -0.0495  0.0908
   73MOL0     C 9760   3.295  -1.503   0.458  0.5637  0.8970  0.0598
   73MOL0     C 9761   3.427  -1.484   0.532 -0.3481  0.0791  0.0667
   73MOL0     C 9762   3.500  -1.616   0.533  0.3005  0.4634 -0.9044
   73MOL0     C 9763   3.608  -1.637   0.425 -0.6946  0.2337  0.2198
   73MOL0    Cl 9764   3.682  -1.798   0.436  0.3717 -0.0597 -0.0361
   73MOL0     C 9765   2.828  -0.922   0.847 -0.8787  1.0680 -0.1727
   73MOL0     C 9766   2.702  -0.941   0.911 -0.4873  0.3230 -1.2661
   73MOL0     O 9767   2.570  -1.050   1.150  0.9002  0.2280 -0.2395
   73MOL0     C 9768   2.221  -1.059   1.028 -0.5021  0.1701 -0.3919
   73MOL0     C 9769   2.086  -1.061   1.079  0.4171  0.7059  0.1858
   73MOL0     N 9770   1.577  -0.708   1.469  0.2210  0.1905 -0.0722
   73MOL0     N 9771   1.470  -0.656   1.511  0.2681 -0.5486 -0.5177
   73MOL0     C 9772   0.480  -0.137   1.739 -0.3929 -0.5344  0.0560
   73MOL0     C 9773   0.407  -0.022   1.785  0.1746  0.2684  1.8494
   73MOL0     C 9774   0.344   0.414   1.998 -0.3024 -1.1737  1.1655
   73MOL0     C 9775   0.217   0.389   2.047  0.6826 -0.2585 -0.1718
   73MOL0     C 9776   0.122   0.483   2.085 -0.6292  0.8952 -0.6513
   73MOL0     C 9777   0.152   0.614   2.077 -0.1113  0.2480  0.5101
   73MOL0     O 9778   0.060   0.703   2.112 -0.3700 -0.4474  0.7772
   73MOL0     C 9779   0.100   0.831   2.165 -0.0082 -0.9441  0.2342
   73MOL0     C 9780  -0.030   0.902   2.212 -0.3111  0.1326 -0.5925
   73MOL0     C 9781  -0.121   0.812   2.301  0.3017  0.1406  0.2213
   73MOL0     C 9782  -0.055   0.794   2.439 -0.2582 -0.6514 -0.7515
   73MOL0     C 9783  -0.037   0.922   2.513  0.4317  0.1711  0.2663
   73MOL0     C 9784  -0.023   1.027   2.568  0.2501 -0.5132  0.2054
   73MOL0     C 9785   0.277   0.654   2.027 -0.3334  0.4313  0.3701
   73MOL0     C 9786   0.379   0.558   1.995 -0.2258  0.2395  0.6103
   73MOL0     C 9787   0.525   0.614   1.971  0.3900 -0.5439 -0.3506
   73MOL0     H 9788   0.614   0.114   2.009  0.1321 -0.7032  0.6524
   73MOL0     H 9789   0.754  -0.076   1.926  0.0495  2.9761  1.7287
   73MOL0     H 9790   0.573  -0.381   1.607  0.0552 -0.3938 -1.2460
   73MOL0     H 9791   0.658  -0.262   1.534  1.5752 -0.8675 -0.9527
   73MOL0     H 9792   0.765  -0.512   1.665 -2.6033 -1.1236 -1.1611
   73MOL0     H 9793   0.878  -0.395   1.600 -0.6172  1.4866 -3.0519
   73MOL0     H 9794   0.805  -0.451   1.371 -1.6102 -2.9675 -2.1624
   73MOL0     H 9795   0.646  -0.505   1.425  0.4942 -0.1137 -1.4770
   73MOL0     H 9796   0.736  -0.702   1.528 -1.3638  0.6218 -0.8103
   73MOL0     H 9797   0.782  -0.686   1.356 -1.9251 -0.1582  0.1243
   73MOL0     H 9798   0.989  -0.570   1.446 -0.7125 -0.1335 -2.2448
   73MOL0     H 9799   0.951  -0.638   1.610  4.3444  0.1214  0.0890
   73MOL0     H 9800   1.001  -0.860   1.514  2.7971 -0.2571 -1.1938
   73MOL0     H 9801   0.965  -0.805   1.343  2.8231  0.1671 -2.0773
   73MOL0     H 9802   1.186  -0.696   1.333  1.6949 -0.6829 -0.2981
   73MOL0     H 9803   1.194  -0.858   1.367  3.1940  0.3977  0.4885
   73MOL0     H 9804   1.219  -0.629   1.569  0.1597 -0.1113 -1.3151
   73MOL0     H 9805   1.211  -0.793   1.632 -0.4922  0.9291  0.6063
   73MOL0     H 9806   1.394  -0.983   1.470 -2.5990  0.7297  0.3096
   73MOL0     H 9807   1.734  -0.871   1.344 -2.1144  1.1380 -0.6440
   73MOL0     H 9808   1.728  -0.971   1.492  0.6675  4.2262  2.2512
   73MOL0     H 9809   1.549  -1.103   1.386  1.6433 -2.1069 -0.6535
   73MOL0     H 9810   1.563  -1.020   1.227  1.8963  0.4060 -1.2793
   73MOL0     H 9811   1.659  -1.245   1.239 -1.7529  1.9568 -0.3514
   73MOL0     H 9812   1.779  -1.188   1.363  0.1902 -1.5116 -1.3040
   73MOL0     H 9813   1.785  -1.015   1.127 -0.2486  1.4238  1.2972
   73MOL0     H 9814   1.865  -1.178   1.127 -2.0555 -0.7820  0.7480
   73MOL0     H 9815   2.137  -1.057   1.403  0.3916  2.8840  1.5957
   73MOL0     H 9816   2.382  -1.037   1.328  0.4423 -0.5946  0.5418
   73MOL0     H 9817   2.599  -1.235   0.771 -1.1740  1.0851 -2.5592
   73MOL0     H 9818   2.829  -1.227   0.678  1.9566 -0.1967  0.2577
   73MOL0     H 9819   3.196  -1.105   0.741  0.4844  2.1941 -2.4609
   73MOL0     H 9820   3.062  -1.207   0.766  3.0237 -1.9529 -0.5740
   73MOL0     H 9821   3.002  -1.211   0.542  0.5179  0.3632 -2.6172
   73MOL0     H 9822   3.128  -1.093   0.496 -3.2707 -0.8670 -1.6530
   73MOL0     H 9823   3.306  -1.241   0.608 -0.0815 -1.6132  1.3299
   73MOL0     H 9824   3.185  -1.353   0.652  3.3498 -1.2202  0.8068
   73MOL0     H 9825   3.282  -1.299   0.376 -2.2716 -0.3889 -2.2212
   73MOL0     H 9826   3.126  -1.373   0.395 -0.4304  1.9667  0.1205
   73MOL0     H 9827   3.324  -1.553   0.365  1.6872  0.4594  0.6198
   73MOL0     H 9828   3.224  -1.575   0.500 -1.5443  0.9282 -3.0874
   73MOL0     H 9829   3.490  -1.408   0.486 -2.0566  1.3671 -0.2267
   73MOL0     H 9830   3.416  -1.451   0.635  0.3588 -1.0792  0.5327
   73MOL0     H 9831   3.436  -1.705   0.534 -0.5750  0.9158  3.5332
   73MOL0     H 9832   3.562  -1.627   0.623  2.1597  2.5018 -1.8424
   73MOL0     H 9833   3.555  -1.637   0.329 -0.4641  0.7717  0.0892
   73MOL0     H 9834   3.688  -1.563   0.433  3.3023 -3.3663 -2.0831
   73MOL0     H 9835   2.877  -0.832   0.882 -1.0109 -0.0682  3.2482
   73MOL0     H 9836   2.670  -0.871   0.988  1.8744  0.0648  0.0773
   73MOL0     H 9837   2.227  -1.059   0.920 -0.9024 -0.6937 -0.4214
   73MOL0     H 9838   2.003  -1.059   1.009  0.0752 -0.3612  0.5442
   73MOL0     H 9839   0.435  -0.196   1.660  2.7157 -2.1877 -0.6278
   73MOL0     H 9840   0.310  -0.004   1.739  0.7097 -1.8398 -0.2945
   73MOL0     H 9841   0.191   0.285   2.060 -4.8495  1.0416  2.0660
   73MOL0     H 9842   0.021   0.461   2.117 -0.1754  1.0977  1.0404
   73MOL0     H 9843   0.137   0.897   2.086  2.4290 -2.0975  0.3284
   73MOL0     H 9844   0.173   0.829   2.246  1.7353 -0.9422 -1.2689
   73MOL0     H 9845  -0.086   0.938   2.125 -1.7496  0.8274  0.5711
   73MOL0     H 9846   0.004   0.986   2.271  0.3235  1.6896 -3.0372
   73MOL0     H 9847  -0.128   0.713   2.254  0.8114 -0.1209  0.6943
   73MOL0     H 9848  -0.220   0.855   2.318 -0.5551 -1.3682 -0.6743
   73MOL0     H 9849  -0.122   0.725   2.491  0.4952 -0.4559  0.4940
   73MOL0     H 9850   0.044   0.748   2.429  0.3484  0.4215  0.1360
   73MOL0     H 9851  -0.016   1.119   2.622  1.8106 -1.5789  1.9541
   73MOL0     H 9852   0.287   0.762   2.020 -0.6136  0.4921  0.8686
   73MOL0     H 9853   0.557   0.626   1.867 -0.6628  0.3792 -0.5791
   73MOL0     H 9854   0.545   0.708   2.024  2.6959 -1.0637 -0.1788
   73MOL0     H 9855   0.600   0.546   2.013  1.3277 -1.0115 -2.6411
   74MOL0     O 9856   4.808   0.474   4.115  0.5147  0.3769  0.3220
   74MOL0     C 9857   4.765   0.510   4.227  1.0412 -0.2632  0.5835
   74MOL0     O 9858   4.841   0.512   4.341 -0.0889  0.9827 -0.2910
   74MOL0     C 9859   4.958   0.439   4.341 -0.1388 -0.5785 -1.2990
   74MOL0     C 9860   5.072   0.509   4.319 -0.2517 -0.3003  0.0981
   74MOL0     C 9861   5.193   0.444   4.331 -1.0835  0.2526  0.4354
   74MOL0     C 9862   5.204   0.309   4.370 -0.5705 -0.1072 -0.4714
   74MOL0     O 9863   5.328   0.247   4.383  0.1670 -0.2044  0.7051
   74MOL0     C 9864   5.354   0.143   4.295  0.5867 -0.3405  0.5205
   74MOL0     C 9865   5.504   0.104   4.299  0.1849  0.1652  0.3947
   74MOL0     C 9866   5.558   0.066   4.439 -0.3216  0.5131  0.2910
   74MOL0     C 9867   5.708   0.037   4.414  0.0625  0.7740 -0.2968
   74MOL0     C 9868   5.759  -0.047   4.540  0.0143  0.4045  0.4654
   74MOL0     C 9869   5.883  -0.114   4.494 -0.1957 -0.6582  0.2174
   74MOL0     C 9870   5.957  -0.181   4.612 -1.0073  0.5747  0.0131
   74MOL0     C 9871   6.051  -0.288   4.571  0.4844 -0.6123 -0.6005
   74MOL0     N 9872   6.109  -0.362   4.683 -0.1078  1.6533  0.6547
   74MOL0     C 9873   6.117  -0.324   4.815  0.0858  0.3037  0.4290
   74MOL0     C 9874   6.177  -0.429   4.868 -0.7044 -0.2116  0.8365
   74MOL0     C 9875   6.241  -0.448   5.002 -0.1604 -0.2138 -0.4301
   74MOL0     C 9876   6.398  -0.456   5.010  0.3404  0.4222  0.4825
   74MOL0     C 9877   6.441  -0.509   5.145  0.1017  0.4786 -0.4335
   74MOL0     C 9878   6.585  -0.461   5.183 -0.5156 -0.0323 -0.0491
   74MOL0     O 9879   6.678  -0.486   5.077 -0.2020  0.6164  0.6010
   74MOL0     C 9880   6.813  -0.472   5.089 -0.0454  0.0682 -1.3700
   74MOL0     C 9881   6.900  -0.516   4.991  1.0180 -0.6790 -0.1434
   74MOL0     C 9882   7.041  -0.517   5.016  0.7363  0.1442 -0.4574
   74MOL0     C 9883   7.094  -0.464   5.133 -0.2236 -0.6893  0.0391
   74MOL0     C 9884   7.241  -0.449   5.139 -0.4084 -0.5214  0.6234
   74MOL0     O 9885   7.326  -0.464   5.028 -0.2889 -0.2232 -0.1865
   74MOL0     C 9886   7.463  -0.437   5.033  0.1240  1.3654  0.0520
   74MOL0     C 9887   7.544  -0.484   5.139 -0.4317  0.0996  0.5378
   74MOL0     C 9888   7.677  -0.457   5.135 -0.0401 -0.9247  0.0742
   74MOL0     C 9889   7.740  -0.406   5.019 -0.2051 -0.2635 -0.6457
   74MOL0     O 9890   7.868  -0.402   5.015 -0.6651 -0.1654  0.6708
   74MOL0     C 9891   7.942  -0.336   4.905 -0.2858 -0.0094 -0.1208
   74MOL0     C 9892   8.083  -0.302   4.960  0.3047  0.0529  0.1168
   74MOL0     C 9893   8.159  -0.205   4.868 -0.7166  0.9572 -0.2570
   74MOL0     C 9894   8.308  -0.220   4.906  0.1920 -0.2939 -0.5112
   74MOL0     C 9895   8.403  -0.146   4.818 -0.5950 -0.2699 -0.9216
   74MOL0     C 9896   8.391   0.006   4.830  0.1045  0.1036  0.0388
   74MOL0     C 9897   8.501   0.091   4.754 -0.3079 -0.5879 -0.1964
   74MOL0     C 9898   8.647   0.078   4.803  0.8574  0.4077  0.8843
   74MOL0    Cl 9899   8.741   0.185   4.680  0.2146  0.6394 -0.1783
   74MOL0     C 9900   7.661  -0.366   4.905 -0.5227 -0.3177 -0.9249
   74MOL0     C 9901   7.524  -0.386   4.921  0.5886  0.5977 -0.2975
   74MOL0     O 9902   7.286  -0.405   5.246  0.4287  0.1639  0.2674
   74MOL0     C 9903   7.007  -0.418   5.232 -0.3479 -0.1798 -0.3598
   74MOL0     C 9904   6.875  -0.427   5.206 -0.4781  0.0284 -0.2607
   74MOL0     N 9905   6.210  -0.519   4.776 -0.1467  0.3320  0.6412
   74MOL0     N 9906   6.167  -0.485   4.663 -0.3550  0.8913  0.6149
   74MOL0     C 9907   5.082   0.244   4.394  0.0312 -0.3038 -0.1904
   74MOL0     C 9908   4.962   0.309   4.387  0.3073 -0.0715 -0.0477
   74MOL0     C 9909   4.637   0.596   4.233 -0.1831 -0.4217  0.3802
   74MOL0     C 9910   4.641   0.707   4.329 -0.1345 -0.2767 -0.1843
   74MOL0     C 9911   4.539   0.804   4.331  0.8457  0.1270 -0.3203
   74MOL0     C 9912   4.430   0.794   4.250  0.6895 -0.8177 -0.4183
   74MOL0     O 9913   4.352   0.908   4.256 -0.4251 -1.0219  0.3465
   74MOL0     C 9914   4.257   0.938   4.149 -0.2623 -0.0167  0.5864
   74MOL0     C 9915   4.210   1.090   4.137 -0.2195  0.0909  0.2114
   74MOL0     C 9916   4.153   1.153   4.256  0.1681 -0.2901  0.3326
   74MOL0     C 9917   4.100   1.293   4.214 -0.6298  0.4544  0.0356
   74MOL0     C 9918   4.183   1.374   4.125 -0.0715  0.4933 -0.5084
   74MOL0     C 9919   4.244   1.437   4.048 -0.4680 -0.2891  0.2326
   74MOL0     C 9920   4.404   0.690   4.172 -0.0719  1.3671 -0.0714
   74MOL0     C 9921   4.514   0.594   4.154 -0.8044 -0.4388 -0.2735
   74MOL0     C 9922   4.502   0.499   4.044 -0.3735  0.9688  0.0362
   74MOL0     H 9923   5.080   0.614   4.293  1.7835 -0.3532  0.3962
   74MOL0     H 9924   5.285   0.501   4.322 -0.9053 -0.1115 -0.2018
   74MOL0     H 9925   5.302   0.056   4.336 -1.3559  0.6331  0.2533
   74MOL0     H 9926   5.312   0.163   4.196 -0.8721 -2.9367  0.5245
   74MOL0     H 9927   5.564   0.189   4.264  1.2905 -1.3235 -1.4874
   74MOL0     H 9928   5.504   0.011   4.242  3.3172 -1.6195  2.9927
   74MOL0     H 9929   5.502  -0.018   4.481  0.5333  0.6602  1.7945
   74MOL0     H 9930   5.550   0.147   4.512 -2.5834 -0.1993  0.8940
   74MOL0     H 9931   5.729   0.005   4.311 -0.2141  2.3397 -0.8731
   74MOL0     H 9932   5.771   0.127   4.415  2.0848 -0.5533  1.7285
   74MOL0     H 9933   5.777   0.027   4.619 -0.6496 -1.3220  2.3235
   74MOL0     H 9934   5.681  -0.112   4.581 -0.7610  1.2308  0.3328
   74MOL0     H 9935   5.853  -0.194   4.426  1.1479 -1.0092  0.0027
   74MOL0     H 9936   5.954  -0.044   4.448  0.3726 -1.5673 -0.3315
   74MOL0     H 9937   5.880  -0.228   4.675  0.4386 -1.1232  0.6205
   74MOL0     H 9938   6.002  -0.103   4.674  1.0775 -2.1917  2.3006
   74MOL0     H 9939   6.002  -0.350   4.496 -0.9355  0.5570 -0.6812
   74MOL0     H 9940   6.133  -0.250   4.510  0.1894 -0.1558 -0.7172
   74MOL0     H 9941   6.081  -0.232   4.860  2.1290  1.4234 -0.1260
   74MOL0     H 9942   6.217  -0.355   5.055 -3.5640 -0.7675 -0.7301
   74MOL0     H 9943   6.196  -0.536   5.048 -2.4807  0.7347 -0.7281
   74MOL0     H 9944   6.440  -0.525   4.936  0.7270  1.7416 -0.5677
   74MOL0     H 9945   6.441  -0.357   4.990  0.0478  0.0219 -2.5778
   74MOL0     H 9946   6.443  -0.618   5.133  0.0351  0.5760 -1.3422
   74MOL0     H 9947   6.376  -0.483   5.229  1.0305 -1.5316  0.9983
   74MOL0     H 9948   6.611  -0.509   5.278  3.1496 -0.5173 -1.1560
   74MOL0     H 9949   6.583  -0.354   5.208  1.3607 -0.1692  0.8272
   74MOL0     H 9950   6.859  -0.552   4.897  1.1353 -2.3436  0.4012
   74MOL0     H 9951   7.106  -0.549   4.935 -0.7079 -0.5159 -1.4072
   74MOL0     H 9952   7.492  -0.537   5.219  0.7622  0.0548  1.2998
   74MOL0     H 9953   7.737  -0.474   5.224  0.8790  1.6050  0.0344
   74MOL0     H 9954   7.961  -0.382   4.808 -2.2054 -0.0214 -0.5443
   74MOL0     H 9955   7.892  -0.241   4.880 -0.4191 -0.7937 -3.2538
   74MOL0     H 9956   8.077  -0.260   5.062 -1.4447 -1.4702  0.6972
   74MOL0     H 9957   8.140  -0.395   4.968  0.4741  0.0290 -1.2549
   74MOL0     H 9958   8.153  -0.241   4.765 -3.5100 -0.5987  0.3735
   74MOL0     H 9959   8.116  -0.105   4.875 -1.5903  0.7228 -1.8690
   74MOL0     H 9960   8.344  -0.323   4.894  0.4497 -0.2175 -0.4025
   74MOL0     H 9961   8.323  -0.188   5.009  0.5881  0.2240 -0.7282
   74MOL0     H 9962   8.386  -0.184   4.717 -0.2146 -0.5224 -0.8950
   74MOL0     H 9963   8.509  -0.163   4.843  0.6495  3.5694 -2.7528
   74MOL0     H 9964   8.294   0.035   4.791 -0.0013 -0.5857 -0.2182
   74MOL0     H 9965   8.403   0.030   4.936 -3.5711  1.0649  0.3596
   74MOL0     H 9966   8.461   0.193   4.751  1.5500  0.1634 -1.1650
   74MOL0     H 9967   8.499   0.054   4.650  1.6489 -0.1248 -0.4341
   74MOL0     H 9968   8.657   0.114   4.906 -0.4532 -0.6083  1.3937
   74MOL0     H 9969   8.693  -0.021   4.795  0.5655  0.2671  0.9462
   74MOL0     H 9970   7.702  -0.307   4.824  0.6494 -1.5716 -1.2754
   74MOL0     H 9971   7.464  -0.346   4.840 -3.4075  0.5747  2.3907
   74MOL0     H 9972   7.041  -0.371   5.324 -2.2105 -0.3367  0.4531
   74MOL0     H 9973   6.805  -0.391   5.280 -1.4471 -0.1775 -1.0546
   74MOL0     H 9974   5.079   0.139   4.421  2.5996 -0.8424 -1.6158
   74MOL0     H 9975   4.871   0.254   4.410 -0.6270  0.3974 -2.3519
   74MOL0     H 9976   4.728   0.720   4.392  1.1729 -0.4822 -1.8654
   74MOL0     H 9977   4.542   0.882   4.406  0.9311 -0.6300  0.4856
   74MOL0     H 9978   4.171   0.873   4.167 -1.0625  0.7720 -0.2572
   74MOL0     H 9979   4.304   0.910   4.055  0.2866 -1.5212  1.2729
   74MOL0     H 9980   4.135   1.073   4.059  2.4983 -1.8677 -2.1863
   74MOL0     H 9981   4.298   1.140   4.096 -0.5984 -0.0892 -0.8589
   74MOL0     H 9982   4.234   1.180   4.325  1.4029 -2.3862 -0.2032
   74MOL0     H 9983   4.074   1.086   4.291 -1.8586  1.2275 -1.1399
   74MOL0     H 9984   4.008   1.261   4.163  0.2698 -1.4219 -0.5174
   74MOL0     H 9985   4.082   1.349   4.306  0.4281 -1.4021  1.4345
   74MOL0     H 9986   4.299   1.489   3.972 -3.4195 -0.1171 -1.9555
   74MOL0     H 9987   4.312   0.683   4.115 -0.6319  0.8584  0.8610
   74MOL0     H 9988   4.397   0.493   4.014 -0.2109 -0.1886 -0.3563
   74MOL0     H 9989   4.560   0.524   3.954 -1.5291  3.3594 -0.1172
   74MOL0     H 9990   4.539   0.401   4.074  2.3655  1.8228 -0.2709
   75MOL0     O 9991   1.250   6.360   7.677  0.2928  0.5271 -0.0781
   75MOL0     C 9992   1.311   6.390   7.781 -0.2353  1.0070  0.0066
   75MOL0     O 9993   1.255   6.442   7.893  0.4243 -0.2663 -0.4474
   75MOL0     C 9994   1.127   6.413   7.925  0.5806  0.2998  0.7583
   75MOL0     C 9995   1.071   6.511   8.009 -0.2228 -0.4027  0.3898
   75MOL0     C 9996   0.941   6.499   8.063  0.3411 -0.2744 -0.0917
   75MOL0     C 9997   0.862   6.391   8.017 -0.2632  0.2220 -0.3154
   75MOL0     O 9998   0.724   6.385   8.033  1.0916 -0.2956 -0.7492
   75MOL0     C 9999   0.649   6.497   8.091 -0.4606  0.2068  0.5145
   75MOL0     C10000   0.640   6.481   8.245 -0.6284 -1.0312  0.1927
   75MOL0     C10001   0.601   6.612   8.319 -0.4371  1.1477  0.1813
   75MOL0     C10002   0.454   6.615   8.332  0.0275  0.1771 -0.9263
   75MOL0     C10003   0.419   6.756   8.378  0.2072  0.2851  0.6395
   75MOL0     C10004   0.266   6.757   8.416  0.5660  0.3038 -0.6627
   75MOL0     C10005   0.225   6.891   8.493  0.3337 -0.0882  0.0615
   75MOL0     C10006   0.215   7.022   8.409 -0.3603 -0.2790  0.2809
   75MOL0     N10007   0.168   7.141   8.483  0.5691 -0.0183  0.1314
   75MOL0     C10008   0.241   7.222   8.568  0.1344 -1.0713 -0.2003
   75MOL0     C10009   0.152   7.300   8.634  0.0067 -0.1701 -0.0772
   75MOL0     C10010   0.166   7.402   8.743  0.3802  1.2465 -0.6523
   75MOL0     C10011   0.274   7.346   8.847 -0.0654 -0.4018  0.7306
   75MOL0     C10012   0.293   7.438   8.960  0.9587  0.1144 -0.5698
   75MOL0     C10013   0.426   7.466   9.020 -0.2099 -0.5760  0.8994
   75MOL0     O10014   0.470   7.596   8.989 -0.2711 -0.1574  0.8655
   75MOL0     C10015   0.602   7.613   9.014  0.5399  0.4355  0.6888
   75MOL0     C10016   0.664   7.725   8.947  0.8042  0.0739  0.0732
   75MOL0     C10017   0.804   7.754   8.954  0.2677 -0.0514 -0.4002
   75MOL0     C10018   0.885   7.677   9.040 -0.6992  0.0914  0.2972
   75MOL0     C10019   1.032   7.721   9.048  0.1855 -0.0348  0.0674
   75MOL0     O10020   1.098   7.730   9.168  0.5966  0.6797 -0.3247
   75MOL0     C10021   1.237   7.743   9.188  0.2916  0.1848 -0.3152
   75MOL0     C10022   1.304   7.842   9.121 -0.9651  0.1136  0.7390
   75MOL0     C10023   1.441   7.870   9.152 -0.5558 -0.7383 -0.7631
   75MOL0     C10024   1.512   7.780   9.249 -0.6174 -0.7567  0.3076
   75MOL0     O10025   1.643   7.782   9.280 -0.9667 -0.3305  0.4517
   75MOL0     C10026   1.723   7.800   9.163 -0.0897  0.1760  0.6041
   75MOL0     C10027   1.863   7.762   9.204 -0.1451  0.1525  0.6621
   75MOL0     C10028   1.934   7.870   9.279 -0.3622  0.7389  0.3305
   75MOL0     C10029   2.069   7.814   9.328 -0.0370  0.3495  0.5670
   75MOL0     C10030   2.168   7.920   9.393  0.0798  0.5643 -0.3582
   75MOL0     C10031   2.293   7.866   9.465 -0.2000 -0.3394  0.4065
   75MOL0     C10032   2.278   7.731   9.546  0.8956  0.4649 -0.0366
   75MOL0     C10033   2.413   7.681   9.579  0.9107  1.0916  0.0203
   75MOL0    Cl10034   2.506   7.785   9.701  0.4804 -0.3299 -0.3544
   75MOL0     C10035   1.436   7.686   9.309 -0.3802  0.1138 -0.6913
   75MOL0     C10036   1.301   7.662   9.281  0.2122 -0.3980  0.3992
   75MOL0     O10037   1.082   7.729   8.936 -0.0267 -0.3477 -0.4018
   75MOL0     C10038   0.825   7.567   9.101 -0.4665  0.9900  0.8823
   75MOL0     C10039   0.690   7.536   9.089 -0.9931  0.1566 -0.2071
   75MOL0     N10040   0.028   7.279   8.580 -0.1420  0.2317  0.1911
   75MOL0     N10041   0.037   7.181   8.488  1.2545  0.6441  0.5441
   75MOL0     C10042   0.915   6.294   7.941  0.0784 -0.3472 -0.2211
   75MOL0     C10043   1.047   6.299   7.891 -0.2942 -0.4486 -0.4036
   75MOL0     C10044   1.458   6.362   7.786 -0.0947 -0.6618  0.8490
   75MOL0     C10045   1.512   6.257   7.708  0.2991  0.2319  1.0226
   75MOL0     C10046   1.651   6.225   7.703  0.5467  0.0618  0.7000
   75MOL0     C10047   1.741   6.304   7.778 -0.4368 -0.3795 -0.8312
   75MOL0     O10048   1.876   6.286   7.757 -0.4992  0.7006  0.7346
   75MOL0     C10049   1.967   6.288   7.870  0.6992  0.3111 -0.6481
   75MOL0     C10050   1.950   6.154   7.941  0.3228 -0.4097 -0.4667
   75MOL0     C10051   2.035   6.035   7.874  0.8910 -0.2829 -0.6364
   75MOL0     C10052   2.187   6.059   7.885 -0.3938 -0.1820 -0.5121
   75MOL0     C10053   2.260   5.938   7.840  1.0211 -0.4657  1.2940
   75MOL0     C10054   2.313   5.836   7.803 -0.9222 -0.6413 -0.0719
   75MOL0     C10055   1.691   6.401   7.859 -0.5626  0.0496 -0.7030
   75MOL0     C10056   1.553   6.436   7.865  0.0866 -0.0021  0.5319
   75MOL0     C10057   1.505   6.543   7.964  0.0634 -0.3985 -0.1236
   75MOL0     H10058   1.122   6.604   8.033 -0.4081 -0.3605  0.6286
   75MOL0     H10059   0.903   6.561   8.143 -0.1078  0.1716 -0.6373
   75MOL0     H10060   0.707   6.587   8.068 -1.3167  0.6337 -0.0428
   75MOL0     H10061   0.551   6.500   8.041 -1.2555  2.8978  2.0348
   75MOL0     H10062   0.737   6.441   8.276  0.1248  0.2679 -0.4148
   75MOL0     H10063   0.570   6.399   8.266 -0.7189 -1.1045 -0.3775
   75MOL0     H10064   0.649   6.695   8.266  0.5830  0.1746 -0.4701
   75MOL0     H10065   0.642   6.610   8.420  1.2501 -0.8209 -0.4776
   75MOL0     H10066   0.398   6.593   8.241 -0.9912  3.7963 -1.3577
   75MOL0     H10067   0.422   6.556   8.418 -1.0019  1.1595 -0.6067
   75MOL0     H10068   0.486   6.803   8.450 -0.0211  0.8416  0.4980
   75MOL0     H10069   0.436   6.822   8.292  1.7512 -1.4774 -0.4752
   75MOL0     H10070   0.204   6.767   8.326 -1.1032  3.5791  0.6823
   75MOL0     H10071   0.233   6.665   8.466 -0.6342 -1.8294 -4.8895
   75MOL0     H10072   0.299   6.912   8.571  1.0684  1.6635 -1.0500
   75MOL0     H10073   0.129   6.875   8.543 -0.1052 -0.8685 -0.9892
   75MOL0     H10074   0.307   7.045   8.355 -1.1462 -0.1619 -1.0770
   75MOL0     H10075   0.134   6.996   8.340 -1.3291 -0.9007  1.6240
   75MOL0     H10076   0.345   7.218   8.601  0.8546  0.5964 -2.0873
   75MOL0     H10077   0.200   7.499   8.705 -2.2838  2.0945 -1.1202
   75MOL0     H10078   0.070   7.425   8.791 -0.4856  0.4273 -1.9361
   75MOL0     H10079   0.246   7.246   8.883 -4.4524  0.2958 -0.2085
   75MOL0     H10080   0.367   7.332   8.791 -0.4703 -0.2458  0.0067
   75MOL0     H10081   0.225   7.393   9.033  1.7713 -0.9399 -0.4485
   75MOL0     H10082   0.244   7.535   8.947  1.2074  0.2120 -0.7921
   75MOL0     H10083   0.502   7.397   8.983  0.9837 -0.0366  2.2469
   75MOL0     H10084   0.420   7.445   9.127 -2.7785 -1.6359  0.6244
   75MOL0     H10085   0.608   7.793   8.884 -0.5822 -1.8253 -0.8270
   75MOL0     H10086   0.858   7.843   8.922 -0.6066  1.3643  1.8520
   75MOL0     H10087   1.252   7.904   9.049 -0.8341  1.0658  1.4462
   75MOL0     H10088   1.477   7.963   9.108  1.3917 -1.0373  0.0755
   75MOL0     H10089   1.683   7.743   9.078 -0.6194  2.4528 -0.7559
   75MOL0     H10090   1.719   7.905   9.135 -2.0682  0.2933  1.1845
   75MOL0     H10091   1.863   7.674   9.269  0.0224 -1.4252 -1.3769
   75MOL0     H10092   1.923   7.721   9.122  0.2704  3.6364 -0.9415
   75MOL0     H10093   1.949   7.962   9.220 -1.4286  0.1639 -0.8818
   75MOL0     H10094   1.873   7.892   9.367 -3.0337 -0.9849 -0.9551
   75MOL0     H10095   2.110   7.764   9.239 -3.8270  3.0128 -3.1073
   75MOL0     H10096   2.043   7.748   9.411  0.7977  0.0602  0.6084
   75MOL0     H10097   2.110   7.974   9.468 -0.3430  0.1744 -0.3972
   75MOL0     H10098   2.195   7.991   9.315  1.2834  2.5600  1.7894
   75MOL0     H10099   2.375   7.860   9.393 -3.0426  1.0090 -3.2807
   75MOL0     H10100   2.316   7.944   9.538 -0.1317  0.8847 -0.8839
   75MOL0     H10101   2.225   7.660   9.482  1.9988 -0.2344 -0.2200
   75MOL0     H10102   2.221   7.748   9.638 -0.7567 -1.1392 -0.7076
   75MOL0     H10103   2.395   7.582   9.624 -2.1274  1.1877 -0.7713
   75MOL0     H10104   2.474   7.662   9.490  2.9405  1.9141  1.1753
   75MOL0     H10105   1.487   7.608   9.366  0.3528  1.9063  1.2290
   75MOL0     H10106   1.254   7.576   9.328  0.1466 -0.9046 -0.5694
   75MOL0     H10107   0.888   7.494   9.151  1.3654  0.1458 -2.3732
   75MOL0     H10108   0.651   7.440   9.124  0.4035 -0.8712 -1.3535
   75MOL0     H10109   0.848   6.213   7.914 -0.1954 -0.2527  0.1671
   75MOL0     H10110   1.077   6.221   7.823 -1.5876  0.1705 -1.7240
   75MOL0     H10111   1.449   6.205   7.637  0.8478 -0.2616  0.8878
   75MOL0     H10112   1.686   6.151   7.633 -0.2573  1.0834 -0.8406
   75MOL0     H10113   1.937   6.358   7.948 -0.8276 -1.4695  0.4424
   75MOL0     H10114   2.067   6.307   7.830  0.7222 -0.0099 -0.7485
   75MOL0     H10115   1.846   6.119   7.939 -0.1809  0.8207  1.4822
   75MOL0     H10116   1.985   6.163   8.044  3.2591 -0.5147 -1.3818
   75MOL0     H10117   2.011   6.024   7.768  0.3703 -0.1104 -0.5375
   75MOL0     H10118   2.002   5.943   7.925  0.4765 -0.0102 -0.4078
   75MOL0     H10119   2.218   6.139   7.817 -0.7005 -0.9505 -1.5884
   75MOL0     H10120   2.215   6.075   7.989 -0.3244 -0.2064 -0.5263
   75MOL0     H10121   2.344   5.735   7.781 -1.9382 -0.9483 -0.1286
   75MOL0     H10122   1.751   6.456   7.930 -2.4204  1.7723 -0.3614
   75MOL0     H10123   1.459   6.493   8.049  0.3940 -1.8230 -0.7574
   75MOL0     H10124   1.591   6.599   8.001  0.7246 -1.6568  0.2813
   75MOL0     H10125   1.441   6.620   7.917 -0.5006 -1.0672 -0.4759
   76MOL0     O10126   8.432  10.401   3.626  1.0894  0.1005  0.3195
   76MOL0     C10127   8.395  10.465   3.719  0.0177  0.5260 -0.2968
   76MOL0     O10128   8.428  10.601   3.739 -0.1460 -0.1767  0.0178
   76MOL0     C10129   8.547  10.642   3.676 -0.2771  0.4069  0.4857
   76MOL0     C10130   8.547  10.759   3.594 -0.6270 -0.2312 -0.5236
   76MOL0     C10131   8.674  10.804   3.541  0.3381 -1.1711  0.3524
   76MOL0     C10132   8.792  10.729   3.568 -0.5057 -0.2030 -0.6567
   76MOL0     O10133   8.907  10.782   3.516  0.1330 -0.2778  0.0729
   76MOL0     C10134   9.035  10.744   3.572 -0.8742 -0.6123  0.5121
   76MOL0     C10135   9.142  10.807   3.484  0.0704 -0.4086  0.1660
   76MOL0     C10136   9.135  10.748   3.353 -0.2864  0.3599  1.3628
   76MOL0     C10137   9.264  10.781   3.277  0.2356  0.5243 -0.0902
   76MOL0     C10138   9.283  10.696   3.149  0.1170  0.2594 -0.4585
   76MOL0     C10139   9.422  10.718   3.085 -0.1899  0.3941 -0.8574
   76MOL0     C10140   9.517  10.614   3.140 -0.1942 -0.2826 -0.0233
   76MOL0     C10141   9.661  10.636   3.094 -0.6839 -0.5298 -0.0416
   76MOL0     N10142   9.758  10.544   3.163 -0.7099  0.1337  0.6498
   76MOL0     C10143   9.759  10.411   3.158 -0.1053  0.2786 -0.7937
   76MOL0     C10144   9.848  10.368   3.254  1.4980  0.0051 -0.5531
   76MOL0     C10145   9.892  10.230   3.266 -0.2433 -1.3679  0.1519
   76MOL0     C10146   9.873  10.174   3.408  0.5011  0.2844 -0.3034
   76MOL0     C10147   9.986  10.204   3.504  0.0530  0.0213 -0.6975
   76MOL0     C10148  10.102  10.116   3.467 -0.2714  0.3724 -0.0489
   76MOL0     O10149  10.200  10.122   3.566 -0.4793 -0.2944 -0.5666
   76MOL0     C10150  10.333  10.092   3.542  0.3283 -0.8834 -0.0299
   76MOL0     C10151  10.383  10.032   3.432  0.1304 -0.1671 -0.0504
   76MOL0     C10152  10.516   9.986   3.419  0.7482 -1.1357 -0.0103
   76MOL0     C10153  10.610  10.026   3.514  0.0664  0.1780 -0.0690
   76MOL0     C10154  10.757   9.987   3.504  0.1116  0.6388  0.1550
   76MOL0     O10155  10.793   9.879   3.428  0.1519 -0.2038  0.7365
   76MOL0     C10156  10.921   9.829   3.452 -0.3566  0.5469 -0.2448
   76MOL0     C10157  10.939   9.693   3.477  0.2726  0.4511  0.3971
   76MOL0     C10158  11.062   9.629   3.474  0.6512  0.8854 -0.1432
   76MOL0     C10159  11.177   9.700   3.442 -0.0176  0.0465 -0.5763
   76MOL0     O10160  11.303   9.650   3.427 -0.4194 -0.8720  0.4344
   76MOL0     C10161  11.327   9.558   3.316  0.0323 -0.2183  0.4130
   76MOL0     C10162  11.463   9.493   3.309  0.2456 -0.3774 -0.0979
   76MOL0     C10163  11.499   9.403   3.190  0.1828  0.6732  0.7041
   76MOL0     C10164  11.408   9.284   3.167 -0.6880 -0.2622 -0.2157
   76MOL0     C10165  11.480   9.197   3.062 -0.0330 -0.7321 -1.0892
   76MOL0     C10166  11.404   9.072   3.025  0.1492  0.1091 -0.4666
   76MOL0     C10167  11.498   8.968   2.971  0.5503  0.4119  0.2993
   76MOL0     C10168  11.567   9.011   2.834 -0.5774  0.8583  0.4424
   76MOL0    Cl10169  11.676   8.882   2.788  0.2518  0.2356  0.1399
   76MOL0     C10170  11.161   9.837   3.407 -0.1201 -0.0735 -0.2196
   76MOL0     C10171  11.036   9.897   3.425  1.0725 -0.6833 -0.7061
   76MOL0     O10172  10.835  10.048   3.568 -0.2789  1.1322  0.8183
   76MOL0     C10173  10.563  10.092   3.626  1.1496 -0.0352 -0.7180
   76MOL0     C10174  10.423  10.115   3.646  0.1196  0.4049 -0.1553
   76MOL0     N10175   9.898  10.483   3.314 -0.3340 -0.8004  0.0712
   76MOL0     N10176   9.831  10.587   3.270  0.2094 -0.1081 -0.0124
   76MOL0     C10177   8.780  10.615   3.647 -0.2644  0.3410 -0.0788
   76MOL0     C10178   8.666  10.570   3.702 -0.0176  1.3643  0.2479
   76MOL0     C10179   8.296  10.395   3.811 -0.7812 -0.6679 -1.0091
   76MOL0     C10180   8.286  10.448   3.942  0.0350 -0.4102 -0.3024
   76MOL0     C10181   8.190  10.395   4.034  0.1706 -0.6585  0.3597
   76MOL0     C10182   8.109  10.281   3.999  0.0555 -0.4119 -0.1899
   76MOL0     O10183   8.022  10.242   4.103 -0.2371 -0.0976 -1.2582
   76MOL0     C10184   7.926  10.139   4.079  0.6304  0.1862  0.5678
   76MOL0     C10185   7.813  10.144   4.176  0.2487  0.8284 -0.2688
   76MOL0     C10186   7.861  10.105   4.322  0.5816  0.2939 -0.2437
   76MOL0     C10187   7.734  10.104   4.417 -0.0156 -1.1217 -0.0174
   76MOL0     C10188   7.787  10.118   4.551  0.1791  0.9754 -0.0962
   76MOL0     C10189   7.828  10.119   4.666  0.6470 -0.0232  0.6178
   76MOL0     C10190   8.127  10.219   3.874  0.0993  0.4111 -0.0065
   76MOL0     C10191   8.216  10.276   3.775  0.6135  0.5086  0.4102
   76MOL0     C10192   8.232  10.208   3.646 -0.9060  0.1908 -0.8202
   76MOL0     H10193   8.459  10.819   3.569 -1.0334 -1.9231 -3.7243
   76MOL0     H10194   8.668  10.891   3.477 -1.1498  0.6620  2.8423
   76MOL0     H10195   9.058  10.788   3.670  0.1948  0.9820 -0.4053
   76MOL0     H10196   9.045  10.635   3.577  0.5232 -0.4347  2.6257
   76MOL0     H10197   9.242  10.798   3.527  0.7342 -0.1532 -1.2807
   76MOL0     H10198   9.124  10.914   3.465  1.7023 -0.1562 -0.1057
   76MOL0     H10199   9.054  10.794   3.295 -0.3282  0.5737  1.5929
   76MOL0     H10200   9.120  10.640   3.345  2.0637  0.1133 -1.6694
   76MOL0     H10201   9.268  10.887   3.253  0.9155  0.8936  1.5496
   76MOL0     H10202   9.349  10.759   3.342 -1.3213 -0.5461  1.6891
   76MOL0     H10203   9.269  10.589   3.168 -1.4032  0.5008 -0.0869
   76MOL0     H10204   9.200  10.719   3.082 -1.4010 -1.8523  0.5628
   76MOL0     H10205   9.412  10.707   2.977 -0.9538  0.5244 -0.8074
   76MOL0     H10206   9.468  10.816   3.098 -1.6166  0.9789  0.0612
   76MOL0     H10207   9.482  10.517   3.104  3.3252 -1.0958 -1.7815
   76MOL0     H10208   9.516  10.615   3.249  1.7531  1.8293  0.0758
   76MOL0     H10209   9.677  10.618   2.988  0.6775  0.9531 -0.1258
   76MOL0     H10210   9.699  10.738   3.097  3.4417 -1.8271 -1.3822
   76MOL0     H10211   9.708  10.348   3.086  2.4832 -2.7993 -0.1486
   76MOL0     H10212   9.848  10.170   3.185 -2.5005 -2.3911  2.0354
   76MOL0     H10213  10.000  10.221   3.251 -0.5215 -3.2496 -1.0396
   76MOL0     H10214   9.780  10.214   3.450 -0.4480 -2.2147  0.1533
   76MOL0     H10215   9.875  10.066   3.388  2.2935  0.6278 -2.3904
   76MOL0     H10216   9.957  10.170   3.603  1.5469 -2.8659 -1.1343
   76MOL0     H10217  10.017  10.309   3.506  1.8394 -0.4677 -0.7993
   76MOL0     H10218  10.138  10.154   3.371  1.3933 -1.9426 -0.4267
   76MOL0     H10219  10.072  10.011   3.463  1.3226 -0.0508 -2.0478
   76MOL0     H10220  10.314  10.008   3.352 -3.0703  0.2814  2.3327
   76MOL0     H10221  10.563   9.935   3.335  2.0145 -1.5285  0.9041
   76MOL0     H10222  10.857   9.622   3.482 -0.4748  1.3431  1.4369
   76MOL0     H10223  11.080   9.524   3.495  1.1206  1.3180  1.8212
   76MOL0     H10224  11.255   9.479   3.335  0.0379 -0.1697  0.6365
   76MOL0     H10225  11.295   9.597   3.218 -1.2892  0.0900  0.9418
   76MOL0     H10226  11.530   9.579   3.316 -1.3033  0.7738  2.3450
   76MOL0     H10227  11.473   9.433   3.400  3.1874  1.6494  1.0439
   76MOL0     H10228  11.487   9.468   3.103 -0.5029 -0.0304  0.2655
   76MOL0     H10229  11.604   9.380   3.207  0.6924  1.3878 -1.2569
   76MOL0     H10230  11.306   9.317   3.144 -0.7599 -0.5404 -0.2989
   76MOL0     H10231  11.398   9.227   3.259  3.4939 -1.0836 -0.0961
   76MOL0     H10232  11.578   9.161   3.094  0.0514 -0.6460 -1.2502
   76MOL0     H10233  11.491   9.264   2.976  2.0033  1.2780  0.6170
   76MOL0     H10234  11.354   9.024   3.110 -2.3729 -0.0624 -1.9366
   76MOL0     H10235  11.319   9.102   2.963  1.2828  0.5564 -1.8502
   76MOL0     H10236  11.451   8.872   2.948  0.3832  0.6337 -0.3252
   76MOL0     H10237  11.569   8.942   3.050  0.7453  0.8711  0.2788
   76MOL0     H10238  11.494   9.027   2.755 -2.2458 -0.4512  1.6415
   76MOL0     H10239  11.634   9.097   2.837 -0.6690  0.9894 -1.0026
   76MOL0     H10240  11.240   9.910   3.389  0.9471 -0.6319  1.8844
   76MOL0     H10241  11.019  10.001   3.402  1.8789 -0.1259  1.0671
   76MOL0     H10242  10.627  10.112   3.711  0.4980 -1.4543  0.1461
   76MOL0     H10243  10.382  10.161   3.735 -1.7763  1.2933 -1.4203
   76MOL0     H10244   8.869  10.554   3.659 -0.2400  0.5654  0.9739
   76MOL0     H10245   8.675  10.477   3.758 -2.1857 -0.4608 -2.1810
   76MOL0     H10246   8.357  10.523   3.974  1.0977 -1.8655  0.8392
   76MOL0     H10247   8.178  10.449   4.128  1.9181 -2.3268  1.6255
   76MOL0     H10248   7.979  10.044   4.074  1.0790  0.4625 -0.0516
   76MOL0     H10249   7.875  10.164   3.985  0.7624 -1.6266 -0.0064
   76MOL0     H10250   7.742  10.072   4.135  1.3629  1.5242 -3.7988
   76MOL0     H10251   7.772  10.245   4.174  2.0528  1.6648  1.6362
   76MOL0     H10252   7.948  10.162   4.356  0.9382 -0.0798 -0.5320
   76MOL0     H10253   7.890  10.000   4.325 -5.1118 -1.6871 -1.0935
   76MOL0     H10254   7.668  10.187   4.391  1.1004 -0.8778 -2.3427
   76MOL0     H10255   7.678  10.012   4.397 -2.5468 -0.2068  2.2124
   76MOL0     H10256   7.868  10.113   4.765  3.3338 -1.5824 -0.4589
   76MOL0     H10257   8.074  10.127   3.855 -0.4960  1.0166 -1.4352
   76MOL0     H10258   8.154  10.133   3.628  0.5313 -2.1104  1.8636
   76MOL0     H10259   8.231  10.285   3.568  0.5326  1.5864  0.4784
   76MOL0     H10260   8.328  10.157   3.642  1.5952  4.0372  2.5302
   77MOL0     O10261   2.201  10.598   0.753 -0.1744  0.3467 -0.6195
   77MOL0     C10262   2.128  10.594   0.854 -0.1082 -0.1073  0.4320
   77MOL0     O10263   2.158  10.647   0.978 -0.6571  0.4502 -0.9309
   77MOL0     C10264   2.295  10.675   1.023  0.8529  0.7536 -0.6537
   77MOL0     C10265   2.326  10.620   1.147 -0.0366  0.7198  0.1558
   77MOL0     C10266   2.454  10.614   1.193  0.5168 -0.3538 -0.4073
   77MOL0     C10267   2.561  10.672   1.118  0.7913  0.5133 -0.1904
   77MOL0     O10268   2.694  10.671   1.157  0.0483  0.1463  0.6389
   77MOL0     C10269   2.720  10.604   1.281  0.4091  0.3383  1.0599
   77MOL0     C10270   2.870  10.614   1.320 -0.4607  0.1488  0.4388
   77MOL0     C10271   2.959  10.541   1.218  0.4266 -0.7569 -0.0871
   77MOL0     C10272   3.032  10.422   1.274  0.8035  0.4457 -0.0514
   77MOL0     C10273   3.147  10.383   1.179  0.3588  0.7927 -0.1100
   77MOL0     C10274   3.228  10.265   1.235  0.1649 -0.2013  0.2493
   77MOL0     C10275   3.365  10.249   1.163  0.0728  0.8339 -0.0839
   77MOL0     C10276   3.338  10.192   1.019  0.8206 -1.0272  0.2194
   77MOL0     N10277   3.446  10.109   0.966 -0.6026  0.4501  0.9434
   77MOL0     C10278   3.494  10.000   1.028  0.1753  1.1132 -0.1890
   77MOL0     C10279   3.580   9.944   0.939  0.2000  0.0588  0.3852
   77MOL0     C10280   3.668   9.823   0.952 -0.4353  0.2887  0.2994
   77MOL0     C10281   3.802   9.854   1.020  0.4382 -0.1977  0.0390
   77MOL0     C10282   3.777   9.888   1.171 -0.3409 -0.1832 -0.3217
   77MOL0     C10283   3.898   9.927   1.249 -0.3471  0.4197  0.2897
   77MOL0     O10284   3.974   9.812   1.269  0.0821 -0.9082 -0.0049
   77MOL0     C10285   4.075   9.811   1.360 -0.1044  0.0951 -0.3213
   77MOL0     C10286   4.167   9.704   1.355  0.1596 -0.1064 -0.2664
   77MOL0     C10287   4.270   9.687   1.444 -0.1654 -0.2722 -0.6096
   77MOL0     C10288   4.292   9.791   1.544  0.6552 -0.1902  0.5055
   77MOL0     C10289   4.417   9.788   1.620  0.4153  0.5435 -0.3374
   77MOL0     O10290   4.410   9.879   1.721 -0.7583 -0.6246 -0.1265
   77MOL0     C10291   4.520   9.898   1.804  0.3074 -1.2399 -0.1984
   77MOL0     C10292   4.560  10.025   1.839  0.1469 -0.3554  0.4475
   77MOL0     C10293   4.675  10.055   1.903 -0.2945  0.1876  0.0094
   77MOL0     C10294   4.745   9.945   1.960 -0.6070 -0.0014 -0.1919
   77MOL0     O10295   4.865   9.973   2.012  0.4090  0.2067  0.0451
   77MOL0     C10296   4.871   9.946   2.156  0.4315  0.6295  0.3553
   77MOL0     C10297   4.984  10.039   2.204  0.2491  0.2796 -0.6494
   77MOL0     C10298   4.934  10.180   2.194  0.3258 -0.1416  0.5395
   77MOL0     C10299   5.038  10.284   2.216  0.2858 -0.4263  0.0899
   77MOL0     C10300   5.108  10.288   2.351  0.5522 -1.2093 -0.3110
   77MOL0     C10301   5.236  10.377   2.335  0.2856  0.8915  0.3895
   77MOL0     C10302   5.304  10.403   2.465 -0.1181  0.5367 -0.1204
   77MOL0     C10303   5.424  10.486   2.455  0.7072  0.5197 -1.0806
   77MOL0    Cl10304   5.553  10.391   2.379  0.2266 -0.0284 -0.3802
   77MOL0     C10305   4.703   9.814   1.943  0.7590 -0.1540  0.9268
   77MOL0     C10306   4.593   9.792   1.863  0.1435  0.3934  0.4373
   77MOL0     O10307   4.513   9.719   1.586 -0.0551  0.4367  0.6346
   77MOL0     C10308   4.206   9.899   1.554 -0.2699 -0.1708 -0.1842
   77MOL0     C10309   4.096   9.913   1.461 -0.6270 -0.9156 -0.5003
   77MOL0     N10310   3.576  10.009   0.819 -1.3513 -0.7221 -0.9648
   77MOL0     N10311   3.504  10.114   0.848  0.6912  0.3527  0.1246
   77MOL0     C10312   2.529  10.736   0.997 -1.3290  1.0767  0.3315
   77MOL0     C10313   2.398  10.732   0.947 -0.0106  0.0554 -0.6560
   77MOL0     C10314   1.985  10.547   0.829  1.1495 -0.6621  0.2234
   77MOL0     C10315   1.892  10.559   0.935  0.2520  0.2056 -0.2248
   77MOL0     C10316   1.760  10.519   0.922 -0.2887  0.3504 -0.4729
   77MOL0     C10317   1.714  10.465   0.802  0.2547 -0.1414 -1.0765
   77MOL0     O10318   1.588  10.415   0.792 -0.0675 -0.6571  0.1496
   77MOL0     C10319   1.491  10.469   0.881 -0.1078 -0.5392  0.9564
   77MOL0     C10320   1.355  10.446   0.803  0.2786 -0.8079  0.5658
   77MOL0     C10321   1.237  10.375   0.884 -0.0878 -0.4403 -0.9141
   77MOL0     C10322   1.269  10.233   0.911 -0.4712 -0.6662 -0.0931
   77MOL0     C10323   1.301  10.213   1.049  0.4955 -0.1403 -0.8003
   77MOL0     C10324   1.320  10.190   1.169  1.2437  0.1651 -0.4202
   77MOL0     C10325   1.793  10.456   0.695 -0.4182 -0.8456 -0.1389
   77MOL0     C10326   1.930  10.501   0.702 -0.3058  0.2783 -0.5953
   77MOL0     C10327   2.007  10.482   0.575  0.0526  0.2811 -0.6595
   77MOL0     H10328   2.250  10.571   1.206 -1.1459  3.3157  1.0465
   77MOL0     H10329   2.474  10.566   1.288 -1.1483  0.3326  0.3331
   77MOL0     H10330   2.666  10.658   1.359 -1.2736 -1.7854  1.4749
   77MOL0     H10331   2.691  10.499   1.288  2.7312 -0.7580 -2.6501
   77MOL0     H10332   2.891  10.581   1.422 -1.1856 -3.1759 -0.3669
   77MOL0     H10333   2.887  10.722   1.323 -1.9202  0.3834  1.0769
   77MOL0     H10334   3.034  10.619   1.204  0.5136 -0.1479  3.1129
   77MOL0     H10335   2.907  10.523   1.123 -1.2457 -1.6808  0.9478
   77MOL0     H10336   3.070  10.444   1.375  0.5397  2.3582 -0.3208
   77MOL0     H10337   2.954  10.347   1.285  1.2950  0.0920  1.3102
   77MOL0     H10338   3.101  10.371   1.080 -1.3558  1.3653  0.5752
   77MOL0     H10339   3.205  10.475   1.171 -0.2104  1.3244  1.5437
   77MOL0     H10340   3.254  10.289   1.338  0.3087 -1.3117  0.4804
   77MOL0     H10341   3.162  10.178   1.232  1.5285 -1.2750  0.3654
   77MOL0     H10342   3.435  10.183   1.215  1.7548  2.7104  0.1148
   77MOL0     H10343   3.411  10.348   1.166  0.1877  0.7890 -0.3628
   77MOL0     H10344   3.246  10.134   1.031 -0.5828  1.4409  2.4428
   77MOL0     H10345   3.312  10.282   0.962 -0.6456 -1.3596  0.3313
   77MOL0     H10346   3.479   9.961   1.128  0.4887 -0.4231 -0.7062
   77MOL0     H10347   3.612   9.736   0.987  0.1446 -0.3898 -0.4374
   77MOL0     H10348   3.704   9.787   0.855 -2.7143 -1.8909  0.1727
   77MOL0     H10349   3.858   9.761   1.004 -1.2088 -0.7339 -3.6389
   77MOL0     H10350   3.866   9.931   0.977 -1.4521 -0.0107 -2.6305
   77MOL0     H10351   3.725   9.805   1.218 -3.4701  0.5246 -2.2568
   77MOL0     H10352   3.707   9.972   1.179 -0.7025 -0.5769  0.6646
   77MOL0     H10353   3.870   9.981   1.340  1.8837  0.6516  0.8948
   77MOL0     H10354   3.966   9.999   1.202 -0.5624  1.1803  1.1214
   77MOL0     H10355   4.155   9.623   1.283 -2.8508 -0.7643  0.8425
   77MOL0     H10356   4.340   9.605   1.434  0.3755  0.2330 -1.0822
   77MOL0     H10357   4.500  10.108   1.802  2.1181  1.6615  1.5698
   77MOL0     H10358   4.706  10.159   1.907 -1.9711  0.6857  2.1260
   77MOL0     H10359   4.779   9.972   2.210  0.7661 -0.2654  1.4100
   77MOL0     H10360   4.890   9.839   2.173 -3.5940  0.0524  2.6551
   77MOL0     H10361   5.007  10.019   2.308  1.7566 -1.8117 -1.3235
   77MOL0     H10362   5.069  10.018   2.139  1.5985  0.5585  0.9676
   77MOL0     H10363   4.895  10.198   2.093  0.0089 -3.4834 -0.0582
   77MOL0     H10364   4.858  10.197   2.270 -1.1175  4.5245 -1.6200
   77MOL0     H10365   4.993  10.383   2.203  1.7516  0.2242 -0.1403
   77MOL0     H10366   5.113  10.276   2.138 -0.9366  3.2390 -1.6629
   77MOL0     H10367   5.142  10.188   2.381 -0.9500 -1.3851  0.9283
   77MOL0     H10368   5.039  10.324   2.427  1.3099 -1.8961  0.7282
   77MOL0     H10369   5.297  10.306   2.279  0.6000  0.2866  1.4661
   77MOL0     H10370   5.222  10.470   2.278  1.4795  1.6600  1.2909
   77MOL0     H10371   5.333  10.321   2.531  1.6198  0.7326 -0.5864
   77MOL0     H10372   5.232  10.468   2.516  1.0487  0.0106  2.3870
   77MOL0     H10373   5.409  10.580   2.402 -0.7501  1.7520  1.3994
   77MOL0     H10374   5.454  10.504   2.558  0.2288  0.9992 -1.0254
   77MOL0     H10375   4.745   9.729   1.998  1.3331  0.6070  1.7060
   77MOL0     H10376   4.569   9.688   1.843 -3.4545  1.0692  0.6147
   77MOL0     H10377   4.237   9.979   1.620  0.6128 -3.6053  4.1068
   77MOL0     H10378   4.037  10.004   1.469 -1.1018 -1.1196 -1.5504
   77MOL0     H10379   2.605  10.782   0.935  0.0236  2.4045  2.7910
   77MOL0     H10380   2.383  10.778   0.850  1.1044  0.3513 -0.6932
   77MOL0     H10381   1.931  10.595   1.030  0.2901 -1.1978  0.3020
   77MOL0     H10382   1.702  10.541   1.011  1.0407 -0.1078  0.5386
   77MOL0     H10383   1.504  10.575   0.904 -1.1258 -0.2117  0.1010
   77MOL0     H10384   1.483  10.417   0.977 -3.5755 -1.2683  0.4115
   77MOL0     H10385   1.372  10.388   0.712 -0.7347  0.4421 -0.4623
   77MOL0     H10386   1.320  10.540   0.760  2.9188 -0.1040 -0.2038
   77MOL0     H10387   1.151  10.391   0.818 -0.5550  4.7016  0.5298
   77MOL0     H10388   1.209  10.432   0.973 -1.1958 -1.8066 -0.3426
   77MOL0     H10389   1.171  10.188   0.892 -3.0288  4.0161  0.4597
   77MOL0     H10390   1.346  10.191   0.846  1.2321 -1.7768  2.4721
   77MOL0     H10391   1.314  10.146   1.266 -3.5033 -1.8701 -1.3651
   77MOL0     H10392   1.765  10.423   0.595  0.4126  1.8800 -1.3698
   77MOL0     H10393   1.949  10.420   0.506 -0.6836  0.2064  0.0029
   77MOL0     H10394   2.019  10.584   0.536  1.5364 -0.2877 -1.7547
   77MOL0     H10395   2.104  10.441   0.603  0.5892  2.1158  0.3912
   78MOL0     O10396   1.930   4.032   9.127 -0.1693 -0.5015  0.0538
   78MOL0     C10397   1.911   3.956   9.219 -0.0833 -0.0684  0.2213
   78MOL0     O10398   2.013   3.923   9.310  0.0650  0.0701 -0.0032
   78MOL0     C10399   2.135   3.987   9.303  0.3967 -0.7645  0.1518
   78MOL0     C10400   2.190   4.051   9.419  0.3302 -0.2571  0.2541
   78MOL0     C10401   2.326   4.078   9.427 -0.3852 -0.7827  0.7746
   78MOL0     C10402   2.411   4.068   9.315 -0.3703  0.2582 -0.5602
   78MOL0     O10403   2.547   4.099   9.326  0.1669 -0.6485 -0.0943
   78MOL0     C10404   2.624   4.107   9.203  0.1453 -0.2882 -0.7024
   78MOL0     C10405   2.738   4.205   9.233  0.2308 -0.0959  0.6118
   78MOL0     C10406   2.699   4.354   9.236  0.3500  0.9312 -0.3352
   78MOL0     C10407   2.815   4.433   9.293 -0.9712 -0.2351 -0.4199
   78MOL0     C10408   2.798   4.584   9.291  0.1287 -0.5761  0.5709
   78MOL0     C10409   2.888   4.651   9.381 -0.8668 -0.2052 -0.3147
   78MOL0     C10410   2.901   4.801   9.349  0.4496  0.1390 -0.2313
   78MOL0     C10411   2.992   4.880   9.444  0.1857  0.2936 -0.2279
   78MOL0     N10412   3.019   5.016   9.397  0.0255  0.3564 -0.0130
   78MOL0     C10413   2.933   5.123   9.406 -1.4678 -0.2585  0.5992
   78MOL0     C10414   2.992   5.230   9.337  0.3212  0.1263  0.1237
   78MOL0     C10415   2.923   5.369   9.312 -0.0131 -0.0403  0.1522
   78MOL0     C10416   2.773   5.349   9.305  1.0994 -0.1369 -0.0149
   78MOL0     C10417   2.691   5.470   9.275  0.7564 -0.3105 -0.0934
   78MOL0     C10418   2.745   5.602   9.346  0.1864 -0.0378 -0.6745
   78MOL0     O10419   2.854   5.648   9.263  0.2005  0.3990 -0.4723
   78MOL0     C10420   2.851   5.779   9.231 -0.8234 -0.8574 -1.4470
   78MOL0     C10421   2.757   5.873   9.276  0.2055 -0.0532 -0.1149
   78MOL0     C10422   2.764   6.008   9.211  0.2767  0.0654 -0.8688
   78MOL0     C10423   2.876   6.047   9.130 -0.4154  0.3975 -1.0591
   78MOL0     C10424   2.878   6.177   9.064  0.7768 -0.5607  0.1122
   78MOL0     O10425   2.791   6.266   9.120 -0.0856  0.0707  0.5241
   78MOL0     C10426   2.802   6.397   9.088 -0.1735  0.6991 -0.2962
   78MOL0     C10427   2.922   6.467   9.112 -0.2450 -0.2087  0.0275
   78MOL0     C10428   2.923   6.610   9.087  0.1488  0.1156 -0.1477
   78MOL0     C10429   2.811   6.675   9.032  0.3304  0.3094  0.7914
   78MOL0     O10430   2.807   6.808   8.990  0.2128 -0.3730  0.7151
   78MOL0     C10431   2.923   6.845   8.916  0.2964 -0.5355 -0.3351
   78MOL0     C10432   2.904   6.995   8.878 -0.1253 -0.5350 -0.4733
   78MOL0     C10433   3.030   7.049   8.807 -0.1317  0.2001 -0.0036
   78MOL0     C10434   3.025   7.027   8.658  0.2000  0.3943  0.0016
   78MOL0     C10435   3.167   7.024   8.600  0.2166  0.2394 -0.0427
   78MOL0     C10436   3.248   7.144   8.629 -0.7309 -0.1407  0.1671
   78MOL0     C10437   3.196   7.264   8.545 -0.1191  0.5631  0.7121
   78MOL0     C10438   3.301   7.374   8.527 -0.1095  0.5155  0.9080
   78MOL0    Cl10439   3.436   7.302   8.437  0.3597 -0.0965  0.2938
   78MOL0     C10440   2.695   6.597   9.011 -0.0695 -0.3383  0.0715
   78MOL0     C10441   2.684   6.458   9.036 -0.3401 -0.1918 -0.3446
   78MOL0     O10442   2.956   6.198   8.979 -0.7517 -0.2018  0.0688
   78MOL0     C10443   2.969   5.947   9.095  0.0708  0.4926  0.7589
   78MOL0     C10444   2.960   5.820   9.149  0.6832  0.5305  0.5314
   78MOL0     N10445   3.114   5.176   9.290 -0.2649 -0.1509 -0.2894
   78MOL0     N10446   3.134   5.057   9.338  0.5929  0.3395 -0.0487
   78MOL0     C10447   2.358   4.014   9.197 -0.3542  0.3658  0.1499
   78MOL0     C10448   2.220   3.972   9.188  0.2661  0.4082 -0.1537
   78MOL0     C10449   1.774   3.915   9.253  0.2786  0.0054 -0.0962
   78MOL0     C10450   1.677   4.013   9.251  0.0720 -0.1389 -0.6549
   78MOL0     C10451   1.542   3.979   9.273  0.1058  0.1784  0.4886
   78MOL0     C10452   1.498   3.852   9.288  0.2595 -0.6695  0.0934
   78MOL0     O10453   1.365   3.831   9.315 -0.8249 -0.0860  0.1073
   78MOL0     C10454   1.300   3.713   9.264 -0.5371 -0.2160  0.3104
   78MOL0     C10455   1.304   3.714   9.107  0.2486  0.3046 -0.4305
   78MOL0     C10456   1.207   3.624   9.035  0.1035  0.3068 -0.5119
   78MOL0     C10457   1.204   3.473   9.086 -0.0528  0.9545  0.4546
   78MOL0     C10458   1.080   3.408   9.037  0.4190  0.4569 -0.8402
   78MOL0     C10459   0.983   3.354   8.986 -0.2295 -0.4718  0.4020
   78MOL0     C10460   1.597   3.751   9.275 -1.0298 -0.8653 -0.4666
   78MOL0     C10461   1.738   3.780   9.264 -0.8578  0.3286  0.3482
   78MOL0     C10462   1.843   3.672   9.259 -0.0132  0.4062  0.4421
   78MOL0     H10463   2.132   4.056   9.511  2.9633  0.7742  1.9864
   78MOL0     H10464   2.385   4.109   9.512  1.0824 -1.9145  0.2019
   78MOL0     H10465   2.656   4.003   9.188  1.2718  0.1310 -1.3106
   78MOL0     H10466   2.576   4.151   9.115  2.8362  0.6797 -1.7797
   78MOL0     H10467   2.816   4.190   9.158  0.4733 -0.4543  0.9332
   78MOL0     H10468   2.782   4.177   9.329  1.8290  0.1186 -0.0351
   78MOL0     H10469   2.622   4.370   9.312 -1.6115  0.7276 -2.1672
   78MOL0     H10470   2.674   4.387   9.135  3.7991 -0.3649 -1.7518
   78MOL0     H10471   2.845   4.403   9.394  3.9464  4.1388 -0.1240
   78MOL0     H10472   2.905   4.410   9.236 -0.4348  1.8798 -0.5277
   78MOL0     H10473   2.811   4.614   9.186  2.8363 -2.4701  0.2678
   78MOL0     H10474   2.698   4.618   9.320 -0.5034 -1.1404 -0.8116
   78MOL0     H10475   2.845   4.633   9.480 -3.6687  0.1819 -1.3619
   78MOL0     H10476   2.987   4.605   9.380 -1.2872 -1.2201 -3.1765
   78MOL0     H10477   2.799   4.838   9.359 -0.1934 -1.9720  2.0179
   78MOL0     H10478   2.944   4.807   9.248 -3.0207  0.8078 -1.8090
   78MOL0     H10479   2.942   4.894   9.540 -0.3985  0.8451 -0.6034
   78MOL0     H10480   3.086   4.825   9.453  1.1163  1.8950  0.1088
   78MOL0     H10481   2.836   5.123   9.455 -1.4528  1.1251  0.6482
   78MOL0     H10482   2.952   5.435   9.394 -0.3790  2.6283 -1.7121
   78MOL0     H10483   2.952   5.405   9.212 -1.0795  1.7842  0.4603
   78MOL0     H10484   2.742   5.271   9.235  0.1245 -1.4403  1.8025
   78MOL0     H10485   2.755   5.311   9.406  2.2967  1.2705  0.7777
   78MOL0     H10486   2.586   5.456   9.302  0.4322  0.1654 -1.0669
   78MOL0     H10487   2.679   5.486   9.167 -3.2690  2.5965  0.5329
   78MOL0     H10488   2.774   5.590   9.451 -1.2076  0.6423 -0.1852
   78MOL0     H10489   2.662   5.672   9.339  1.3324  1.9533  2.7758
   78MOL0     H10490   2.677   5.853   9.347 -0.9074 -2.7325 -1.9628
   78MOL0     H10491   2.691   6.077   9.253 -0.4873 -0.7441 -0.8386
   78MOL0     H10492   3.005   6.408   9.150 -1.3361 -0.7257  1.6946
   78MOL0     H10493   3.023   6.652   9.079 -0.3133  1.0661 -1.2596
   78MOL0     H10494   3.015   6.843   8.975  1.2406  1.1726 -1.6498
   78MOL0     H10495   2.946   6.788   8.825  0.2049  3.2543 -2.9795
   78MOL0     H10496   2.817   7.018   8.817 -1.3768 -3.2404  0.1631
   78MOL0     H10497   2.882   7.048   8.971  0.3328 -2.1849  0.6229
   78MOL0     H10498   3.035   7.156   8.830  2.6173 -0.1338  1.4710
   78MOL0     H10499   3.117   6.995   8.845  1.6556  0.6802 -3.1374
   78MOL0     H10500   2.957   7.098   8.610  0.5852  1.6964  1.2913
   78MOL0     H10501   2.991   6.923   8.654 -0.5742  0.6682 -1.0390
   78MOL0     H10502   3.162   6.993   8.496  0.0649  0.2411 -0.0357
   78MOL0     H10503   3.228   6.945   8.645 -0.8899  0.4587  1.9551
   78MOL0     H10504   3.241   7.168   8.736  0.8329 -0.1047  0.2798
   78MOL0     H10505   3.356   7.137   8.616 -0.7221  0.5117 -0.1404
   78MOL0     H10506   3.113   7.310   8.599  1.4033  2.3539  1.6678
   78MOL0     H10507   3.154   7.226   8.452  2.0044 -0.6733  0.1893
   78MOL0     H10508   3.265   7.461   8.470 -0.4655 -0.3031 -0.1373
   78MOL0     H10509   3.335   7.419   8.621  1.8247  0.9589  0.0413
   78MOL0     H10510   2.602   6.648   8.991  0.1274  0.5625  1.3304
   78MOL0     H10511   2.590   6.406   9.021  0.9527 -2.4980 -0.8932
   78MOL0     H10512   3.048   5.971   9.025  0.5329  0.1228  1.1539
   78MOL0     H10513   3.026   5.748   9.101 -0.9389  1.7659 -4.1904
   78MOL0     H10514   2.427   4.006   9.113 -1.4593  3.4685 -1.2087
   78MOL0     H10515   2.198   3.914   9.099  0.6620  1.7865 -1.1855
   78MOL0     H10516   1.702   4.116   9.228 -1.2906  0.4557  0.3794
   78MOL0     H10517   1.473   4.062   9.284 -0.6228  0.0906 -2.6394
   78MOL0     H10518   1.197   3.713   9.299 -0.4013  0.7274  0.7252
   78MOL0     H10519   1.342   3.621   9.307 -0.2631  0.2187  0.9860
   78MOL0     H10520   1.407   3.698   9.075 -0.1378  1.1376 -2.2503
   78MOL0     H10521   1.269   3.817   9.090 -0.2585  0.1102 -0.6011
   78MOL0     H10522   1.229   3.629   8.928 -0.0119 -1.0689 -0.6169
   78MOL0     H10523   1.107   3.667   9.047 -0.7006 -1.7150  0.5069
   78MOL0     H10524   1.292   3.416   9.054 -1.4603 -0.4094 -1.1658
   78MOL0     H10525   1.208   3.467   9.195  0.9254 -1.1354  0.3508
   78MOL0     H10526   0.896   3.302   8.951  0.7704 -2.4414  0.6951
   78MOL0     H10527   1.563   3.648   9.285  3.7063 -2.8947 -2.3009
   78MOL0     H10528   1.931   3.687   9.323 -0.8276  2.1876  1.2060
   78MOL0     H10529   1.793   3.578   9.281  0.8616 -0.4972 -1.2249
   78MOL0     H10530   1.887   3.671   9.158 -0.3392 -1.9794  0.2781
   79MOL0     O10531   1.982   6.016   8.366 -0.6077 -1.1065  1.3804
   79MOL0     C10532   1.953   5.953   8.262 -0.5023  0.9016  0.1556
   79MOL0     O10533   2.033   5.846   8.209 -0.0691 -0.0577  0.2483
   79MOL0     C10534   2.171   5.839   8.229 -0.5642  0.3890 -0.4142
   79MOL0     C10535   2.246   5.888   8.337  0.4498  0.5703 -0.9145
   79MOL0     C10536   2.382   5.869   8.351 -0.3546  0.2552  0.3043
   79MOL0     C10537   2.459   5.796   8.258  0.1340  0.0430  0.4982
   79MOL0     O10538   2.602   5.792   8.247  0.3367 -0.6377  0.0881
   79MOL0     C10539   2.666   5.671   8.203  0.5007 -0.2581  0.1006
   79MOL0     C10540   2.641   5.546   8.292 -0.3924  0.0887 -0.5806
   79MOL0     C10541   2.715   5.567   8.428 -0.3805  0.4892 -0.6921
   79MOL0     C10542   2.729   5.439   8.513 -0.4281 -1.0688  0.1146
   79MOL0     C10543   2.851   5.361   8.477 -0.9147  0.7979 -0.2709
   79MOL0     C10544   2.865   5.250   8.581  0.4213 -0.1594 -0.4226
   79MOL0     C10545   3.005   5.188   8.561 -0.2968 -0.5371  0.6073
   79MOL0     C10546   3.019   5.074   8.656  0.0061  0.9259 -0.5307
   79MOL0     N10547   2.982   4.946   8.594  0.0991 -0.8730 -0.4362
   79MOL0     C10548   2.868   4.870   8.617  0.2575  0.1071  0.5752
   79MOL0     C10549   2.885   4.769   8.533 -0.4558 -0.1014  1.0243
   79MOL0     C10550   2.800   4.646   8.511  0.7808 -0.2957 -0.3151
   79MOL0     C10551   2.651   4.645   8.565 -0.2765  0.0227  0.5144
   79MOL0     C10552   2.559   4.722   8.470  0.6080 -0.2304  0.0747
   79MOL0     C10553   2.526   4.645   8.339  0.7308  0.5103 -0.8034
   79MOL0     O10554   2.409   4.559   8.348  0.6462  0.5545 -0.7807
   79MOL0     C10555   2.283   4.604   8.321  0.5112 -0.2955 -0.0340
   79MOL0     C10556   2.178   4.515   8.332  0.4868  0.6720 -0.3961
   79MOL0     C10557   2.048   4.553   8.284 -0.0472 -0.3029  0.9136
   79MOL0     C10558   2.018   4.687   8.236 -0.6217 -0.1921  0.5422
   79MOL0     C10559   1.881   4.720   8.189  0.0015  0.0336  0.4357
   79MOL0     O10560   1.855   4.851   8.159  0.4429 -0.4805 -0.9494
   79MOL0     C10561   1.724   4.884   8.132 -0.6458  0.5254  0.0332
   79MOL0     C10562   1.637   4.892   8.234  0.2838  0.2778 -0.3758
   79MOL0     C10563   1.502   4.936   8.221 -0.7515 -0.7298 -0.2112
   79MOL0     C10564   1.455   4.969   8.090 -0.2723 -0.7945 -0.2558
   79MOL0     O10565   1.331   5.020   8.078  0.2140  0.5286 -0.5310
   79MOL0     C10566   1.284   5.095   7.963  0.4827  0.3398 -0.1442
   79MOL0     C10567   1.135   5.069   7.968 -0.3227  0.1414  0.1098
   79MOL0     C10568   1.063   5.155   8.079 -0.0736 -0.6734 -0.1183
   79MOL0     C10569   1.047   5.301   8.050 -0.3693  0.8441 -0.8285
   79MOL0     C10570   1.000   5.384   8.175 -0.3748 -0.4442  0.2723
   79MOL0     C10571   0.990   5.537   8.138 -0.0290  0.0091 -0.2005
   79MOL0     C10572   0.908   5.610   8.242 -0.4075 -0.2449  0.4872
   79MOL0     C10573   0.957   5.590   8.396  0.3195 -0.0868  0.3462
   79MOL0    Cl10574   0.882   5.725   8.491  0.0666 -0.2837  0.2156
   79MOL0     C10575   1.547   4.957   7.980 -0.2588  0.3026  0.3068
   79MOL0     C10576   1.678   4.917   8.009 -0.0325  0.0156  0.2147
   79MOL0     O10577   1.804   4.631   8.174 -0.2219 -0.0055  0.3821
   79MOL0     C10578   2.125   4.781   8.239 -0.2078  0.2553  0.0898
   79MOL0     C10579   2.249   4.738   8.276  0.1063  0.1894  0.5932
   79MOL0     N10580   3.004   4.777   8.470 -0.1489 -0.3277 -0.0066
   79MOL0     N10581   3.056   4.889   8.499 -0.2417  0.3770 -0.4547
   79MOL0     C10582   2.385   5.741   8.159  1.2096 -0.5643 -0.7025
   79MOL0     C10583   2.245   5.759   8.142 -0.0076 -0.1953  0.7190
   79MOL0     C10584   1.824   5.979   8.196 -0.1267  0.0700 -0.4017
   79MOL0     C10585   1.757   6.103   8.232  0.0247  0.0416 -0.2523
   79MOL0     C10586   1.629   6.138   8.176  0.0516 -0.3153 -0.9306
   79MOL0     C10587   1.565   6.048   8.094 -0.1189  0.6547  0.2195
   79MOL0     O10588   1.444   6.065   8.029  0.6419  0.0349  0.2091
   79MOL0     C10589   1.357   6.169   8.072 -0.0439 -0.1417  0.3304
   79MOL0     C10590   1.316   6.153   8.217 -0.4907 -0.3573 -0.0896
   79MOL0     C10591   1.215   6.261   8.255  0.2118 -0.5307  0.2955
   79MOL0     C10592   1.072   6.222   8.237 -1.3000  0.4701 -0.8620
   79MOL0     C10593   1.025   6.126   8.329 -0.6013  0.3637 -0.0993
   79MOL0     C10594   0.984   6.044   8.406  0.8034 -0.4388  0.5980
   79MOL0     C10595   1.622   5.922   8.072  0.0086  0.4994  0.4264
   79MOL0     C10596   1.751   5.887   8.111  0.6510 -0.0238  0.3330
   79MOL0     C10597   1.797   5.745   8.088 -1.0058  0.6228 -0.0466
   79MOL0     H10598   2.201   5.931   8.426  0.1862  1.6141 -1.5406
   79MOL0     H10599   2.439   5.921   8.427  0.8549  1.8995 -1.6165
   79MOL0     H10600   2.645   5.660   8.096  2.2928 -0.8547 -0.2214
   79MOL0     H10601   2.773   5.691   8.214 -0.0865  1.8615  2.9748
   79MOL0     H10602   2.691   5.462   8.242  2.3723  1.7218 -0.7725
   79MOL0     H10603   2.537   5.515   8.305 -0.0623 -1.0048 -0.3861
   79MOL0     H10604   2.659   5.639   8.488 -0.6077  1.4534 -2.0252
   79MOL0     H10605   2.817   5.604   8.414 -0.0075 -0.4182 -0.4188
   79MOL0     H10606   2.729   5.467   8.618  0.7190  0.2301 -0.2113
   79MOL0     H10607   2.640   5.380   8.485 -2.5705  1.8626  0.2858
   79MOL0     H10608   2.853   5.315   8.378  2.6366 -0.6670  0.3347
   79MOL0     H10609   2.936   5.430   8.479 -1.1139  1.0441  1.2194
   79MOL0     H10610   2.858   5.288   8.684 -2.2972  0.2910 -0.6973
   79MOL0     H10611   2.789   5.175   8.560 -0.8689  1.0680 -0.2710
   79MOL0     H10612   3.080   5.265   8.579  0.4786 -1.9654  4.3027
   79MOL0     H10613   3.019   5.149   8.459 -0.2355  1.1967 -0.0847
   79MOL0     H10614   3.126   5.065   8.680 -0.4366 -2.1814  0.6765
   79MOL0     H10615   2.968   5.079   8.753 -1.4296  1.0657 -1.2779
   79MOL0     H10616   2.793   4.905   8.687  1.1893  1.7462  0.8190
   79MOL0     H10617   2.794   4.614   8.406 -1.1295 -0.0356 -0.3170
   79MOL0     H10618   2.848   4.561   8.561 -3.3691 -3.3999 -1.0345
   79MOL0     H10619   2.611   4.544   8.574 -2.1498  0.1977 -3.6846
   79MOL0     H10620   2.645   4.696   8.662 -2.0993  0.8760 -0.0057
   79MOL0     H10621   2.618   4.812   8.451  1.2045 -0.4621  0.7848
   79MOL0     H10622   2.473   4.745   8.534  2.7018  0.9989  2.6416
   79MOL0     H10623   2.606   4.579   8.305 -0.1803 -0.8529 -0.3988
   79MOL0     H10624   2.502   4.720   8.264 -0.4826  1.0603  0.1102
   79MOL0     H10625   2.201   4.409   8.341  1.9690  1.0621  0.7076
   79MOL0     H10626   1.959   4.490   8.286 -0.9118  0.7389 -1.2222
   79MOL0     H10627   1.675   4.867   8.332  0.8100  1.5526 -0.2338
   79MOL0     H10628   1.447   4.941   8.314  1.3788  0.1835  1.0492
   79MOL0     H10629   1.317   5.199   7.959  4.2408 -0.7720 -1.6845
   79MOL0     H10630   1.322   5.058   7.867  0.8430  2.8910 -1.0455
   79MOL0     H10631   1.090   5.084   7.869  0.2066  3.0173  0.2161
   79MOL0     H10632   1.119   4.964   7.996 -1.8904  0.0814 -0.8381
   79MOL0     H10633   0.963   5.111   8.077  0.3657 -1.7267 -1.5025
   79MOL0     H10634   1.118   5.159   8.173  0.9293 -0.7695 -0.6789
   79MOL0     H10635   0.972   5.303   7.971 -0.8432 -2.8730 -0.6093
   79MOL0     H10636   1.145   5.339   8.019  0.3009  0.7823  1.0425
   79MOL0     H10637   1.057   5.354   8.263  2.2520 -0.7306 -1.4077
   79MOL0     H10638   0.900   5.348   8.199  0.3566 -2.4322  0.5650
   79MOL0     H10639   1.092   5.575   8.142 -0.0729  0.0740  2.0047
   79MOL0     H10640   0.939   5.552   8.043  0.7294 -0.9968 -0.7747
   79MOL0     H10641   0.806   5.581   8.216 -1.0830  2.2019  0.1674
   79MOL0     H10642   0.916   5.716   8.214 -1.7698 -0.9409 -2.9022
   79MOL0     H10643   0.932   5.486   8.420 -2.2302  0.2065 -0.6760
   79MOL0     H10644   1.065   5.600   8.406  0.0826  2.8822  0.8587
   79MOL0     H10645   1.515   4.989   7.881 -1.0595 -0.3705  0.3342
   79MOL0     H10646   1.751   4.919   7.928  0.0386  0.8905  0.2882
   79MOL0     H10647   2.105   4.886   8.221 -0.0846  0.1487 -0.7122
   79MOL0     H10648   2.325   4.815   8.266  0.1520 -0.0449 -1.3509
   79MOL0     H10649   2.439   5.679   8.088  2.1640 -2.6057  1.6736
   79MOL0     H10650   2.187   5.718   8.060  0.2077 -0.2794  0.6091
   79MOL0     H10651   1.797   6.183   8.294  1.9699  1.2084 -2.8074
   79MOL0     H10652   1.583   6.236   8.189 -0.6869 -0.8022  0.2827
   79MOL0     H10653   1.270   6.166   8.006 -0.5123  0.4345  0.9103
   79MOL0     H10654   1.407   6.265   8.055 -0.4643  0.0197 -0.0196
   79MOL0     H10655   1.397   6.155   8.290  0.8170  0.7807 -1.4880
   79MOL0     H10656   1.271   6.053   8.224 -1.9111  0.2462 -0.2075
   79MOL0     H10657   1.230   6.343   8.185  1.6834 -1.8176 -0.9870
   79MOL0     H10658   1.224   6.304   8.355 -2.7856  0.4564  0.2276
   79MOL0     H10659   0.997   6.302   8.244 -2.4029 -0.1513 -4.1141
   79MOL0     H10660   1.061   6.185   8.135  0.4456 -0.7285 -0.6501
   79MOL0     H10661   0.944   5.975   8.478  0.4996  1.2614  2.1552
   79MOL0     H10662   1.558   5.854   8.016 -1.0095  4.1523 -3.3781
   79MOL0     H10663   1.818   5.703   8.186 -0.9226  0.8244  0.0206
   79MOL0     H10664   1.725   5.695   8.021 -0.5212  0.7751 -0.6907
   79MOL0     H10665   1.897   5.740   8.043 -0.5565  0.1958  0.9813
   80MOL0     O10666   7.676   0.731   7.986  0.5056  0.6530 -0.1000
   80MOL0     C10667   7.669   0.608   7.974  1.0863 -0.4984  0.3805
   80MOL0     O10668   7.772   0.523   7.948 -0.1056 -0.0564  0.0478
   80MOL0     C10669   7.881   0.571   7.884  0.6562  0.5046 -0.1050
   80MOL0     C10670   8.002   0.498   7.901  0.2603 -0.4114  0.0105
   80MOL0     C10671   8.119   0.538   7.835  0.5676  0.3206  0.3470
   80MOL0     C10672   8.119   0.642   7.737  0.2382  0.3078  0.3698
   80MOL0     O10673   8.232   0.688   7.672 -0.5812  0.9607  0.1610
   80MOL0     C10674   8.287   0.804   7.724 -2.0001 -0.7139  0.1809
   80MOL0     C10675   8.430   0.828   7.667 -0.9751  0.2966 -0.2009
   80MOL0     C10676   8.531   0.734   7.727 -0.4067 -0.7677 -0.0748
   80MOL0     C10677   8.676   0.770   7.683  0.1129 -0.5716 -0.7750
   80MOL0     C10678   8.775   0.711   7.794  0.1947  0.7861 -0.3091
   80MOL0     C10679   8.916   0.747   7.746  0.1514  0.1898 -0.6985
   80MOL0     C10680   9.011   0.717   7.854 -0.5281  0.1168 -1.3369
   80MOL0     C10681   9.156   0.757   7.802  0.2578  0.4622  0.8742
   80MOL0     N10682   9.260   0.704   7.882 -0.6884  0.0381  0.1835
   80MOL0     C10683   9.388   0.739   7.880 -0.1090  0.0655 -0.3667
   80MOL0     C10684   9.454   0.643   7.951 -0.4856 -0.0147 -0.0827
   80MOL0     C10685   9.600   0.615   7.962  0.2883  0.3741  0.4023
   80MOL0     C10686   9.660   0.664   8.085 -0.1745 -0.1514 -0.3455
   80MOL0     C10687   9.800   0.675   8.097 -0.3056 -0.5554 -0.1457
   80MOL0     C10688   9.869   0.794   8.031  0.0712 -0.6023  0.0989
   80MOL0     O10689  10.017   0.772   8.053  0.1208 -0.1238  0.7120
   80MOL0     C10690  10.090   0.767   7.934 -0.2731  0.1361 -0.0359
   80MOL0     C10691  10.208   0.840   7.933 -0.0482  0.2142  0.8034
   80MOL0     C10692  10.284   0.841   7.817 -0.2492 -0.3531  0.5468
   80MOL0     C10693  10.253   0.754   7.710  0.5566 -0.0215 -0.0128
   80MOL0     C10694  10.338   0.746   7.587  0.2330  0.3262  0.2298
   80MOL0     O10695  10.436   0.827   7.579  0.5286 -0.0809  0.6105
   80MOL0     C10696  10.521   0.836   7.471  0.7352  0.1743  0.7430
   80MOL0     C10697  10.561   0.722   7.398 -0.0656  0.4510  0.7419
   80MOL0     C10698  10.635   0.723   7.282 -0.8118  0.5028 -0.8379
   80MOL0     C10699  10.676   0.842   7.224  1.0839 -0.0144 -0.4850
   80MOL0     O10700  10.730   0.847   7.103 -0.5290 -0.2043  0.0848
   80MOL0     C10701  10.780   0.971   7.053  0.0222 -0.8433 -0.0266
   80MOL0     C10702  10.882   0.951   6.936 -0.3854  0.6845  0.3390
   80MOL0     C10703  10.932   1.088   6.892  0.7688 -0.2667  0.3640
   80MOL0     C10704  11.059   1.069   6.819 -0.5895  0.0791  0.5238
   80MOL0     C10705  11.114   1.200   6.769  0.1313 -0.4916 -0.5183
   80MOL0     C10706  11.230   1.163   6.683  0.6733 -1.0610 -0.5431
   80MOL0     C10707  11.285   1.295   6.633  0.1071  0.0417 -0.0019
   80MOL0     C10708  11.421   1.269   6.566  0.7371  0.0521  0.4787
   80MOL0    Cl10709  11.518   1.427   6.551  0.3642  0.5452  0.2293
   80MOL0     C10710  10.638   0.959   7.293 -0.5810  0.5228  0.7856
   80MOL0     C10711  10.560   0.964   7.413 -0.2062 -0.2373 -0.8036
   80MOL0     O10712  10.298   0.675   7.495  0.0958  0.4780  0.3705
   80MOL0     C10713  10.139   0.675   7.716 -0.1055 -0.5152 -0.5898
   80MOL0     C10714  10.057   0.682   7.835  0.6777  0.7500  0.5332
   80MOL0     N10715   9.360   0.553   8.000  0.4847  0.8877  0.3303
   80MOL0     N10716   9.250   0.590   7.945 -0.0567 -0.2116  0.6186
   80MOL0     C10717   7.995   0.697   7.707  0.0737  0.3970 -0.3905
   80MOL0     C10718   7.884   0.672   7.782  0.3597 -0.0838 -0.0691
   80MOL0     C10719   7.542   0.549   8.023 -0.3846  0.0842  0.2981
   80MOL0     C10720   7.508   0.548   8.159  0.2528  0.1510  0.3318
   80MOL0     C10721   7.405   0.460   8.203  0.0827  1.0152 -0.3905
   80MOL0     C10722   7.327   0.389   8.116  0.8179  0.9350 -0.1142
   80MOL0     O10723   7.213   0.335   8.165  0.6451 -0.1433  0.0938
   80MOL0     C10724   7.141   0.238   8.087  0.5447  0.1451  0.3591
   80MOL0     C10725   7.007   0.218   8.142  0.4970  0.3304  0.3594
   80MOL0     C10726   7.005   0.156   8.279  0.5262  0.4574 -0.7437
   80MOL0     C10727   6.858   0.148   8.337 -0.6056 -0.0983  0.2298
   80MOL0     C10728   6.776   0.037   8.284 -0.8324 -0.2579 -0.1031
   80MOL0     C10729   6.697  -0.044   8.245  0.1578  0.9303  0.9340
   80MOL0     C10730   7.351   0.400   7.976  0.2884 -0.1997  1.0574
   80MOL0     C10731   7.459   0.479   7.931 -0.2478 -0.6009  0.0906
   80MOL0     C10732   7.485   0.485   7.780 -0.2243  0.4024  0.4718
   80MOL0     H10733   8.006   0.420   7.977  1.7993 -0.6164 -0.2362
   80MOL0     H10734   8.212   0.493   7.869 -0.6871 -3.1638 -0.3220
   80MOL0     H10735   8.230   0.893   7.695  0.3366  0.5730 -0.7467
   80MOL0     H10736   8.290   0.806   7.833 -1.8765  0.8638  0.1712
   80MOL0     H10737   8.459   0.932   7.688  1.6296  0.1550 -2.5593
   80MOL0     H10738   8.422   0.803   7.561 -1.2458 -0.1039 -0.0874
   80MOL0     H10739   8.503   0.633   7.699  1.8760 -2.3856  2.9046
   80MOL0     H10740   8.530   0.735   7.836 -1.2757 -0.7684 -0.0743
   80MOL0     H10741   8.707   0.717   7.592  3.5727 -0.9179  0.4362
   80MOL0     H10742   8.692   0.877   7.668  0.5179 -0.4817  0.1923
   80MOL0     H10743   8.766   0.765   7.889 -1.0883  0.3152 -0.1448
   80MOL0     H10744   8.748   0.606   7.811  0.1502  0.6164 -1.3354
   80MOL0     H10745   8.937   0.683   7.660  2.1143 -0.2265  0.0338
   80MOL0     H10746   8.926   0.855   7.731  0.0544  0.7641  2.6540
   80MOL0     H10747   8.998   0.611   7.878  1.3167 -0.0344 -0.8567
   80MOL0     H10748   8.990   0.775   7.944  2.4783 -0.2776 -0.2437
   80MOL0     H10749   9.176   0.712   7.704 -2.7520 -4.4527  2.1425
   80MOL0     H10750   9.175   0.864   7.794  1.1885  0.5920  3.6892
   80MOL0     H10751   9.430   0.833   7.845 -0.5815  0.3155 -0.2835
   80MOL0     H10752   9.612   0.508   7.980  1.3283  0.3074 -0.6164
   80MOL0     H10753   9.654   0.642   7.871 -0.4941 -0.5878 -0.3667
   80MOL0     H10754   9.611   0.758   8.111  1.4493  0.6557 -0.1018
   80MOL0     H10755   9.629   0.601   8.169  1.0654  2.6853  2.4302
   80MOL0     H10756   9.844   0.585   8.054 -2.2624 -0.9355 -1.5048
   80MOL0     H10757   9.821   0.690   8.203 -0.7429  3.7195 -0.4597
   80MOL0     H10758   9.835   0.891   8.070 -1.2927 -0.6263 -0.9542
   80MOL0     H10759   9.837   0.796   7.927  0.2940  1.9014  0.0143
   80MOL0     H10760  10.220   0.914   8.012  0.4453 -0.5058  1.4239
   80MOL0     H10761  10.365   0.911   7.798  3.9921 -4.6571  0.7384
   80MOL0     H10762  10.539   0.626   7.443 -1.5441  0.9823  1.2013
   80MOL0     H10763  10.667   0.627   7.242  0.4168  0.1097  0.9814
   80MOL0     H10764  10.691   1.020   7.012  2.6526  2.7320 -1.9758
   80MOL0     H10765  10.823   1.036   7.130 -0.0741 -2.2469  1.2654
   80MOL0     H10766  10.964   0.894   6.980 -2.2217  0.2375  3.5191
   80MOL0     H10767  10.836   0.889   6.859  2.5493 -0.0248 -0.9809
   80MOL0     H10768  10.855   1.139   6.834  0.8870 -0.2627  0.2092
   80MOL0     H10769  10.953   1.139   6.987 -0.7604  1.4746 -0.1791
   80MOL0     H10770  11.052   1.000   6.734 -1.9447  1.2914 -0.4054
   80MOL0     H10771  11.139   1.037   6.886  1.7002  4.1804  0.0952
   80MOL0     H10772  11.134   1.261   6.858  0.2350 -1.2848  0.0099
   80MOL0     H10773  11.031   1.246   6.714  0.8084  0.2165 -0.9561
   80MOL0     H10774  11.299   1.104   6.746  0.6307 -2.1209 -1.4507
   80MOL0     H10775  11.206   1.095   6.600 -1.9645  1.1130 -1.7069
   80MOL0     H10776  11.297   1.359   6.721 -4.2235 -0.1084  0.9139
   80MOL0     H10777  11.217   1.345   6.563 -3.1815 -3.8149  0.0498
   80MOL0     H10778  11.477   1.208   6.638  1.2951 -0.0887 -0.0629
   80MOL0     H10779  11.402   1.227   6.467 -0.3672 -0.1655  0.7764
   80MOL0     H10780  10.654   1.056   7.246 -2.3744  0.2772 -0.4601
   80MOL0     H10781  10.526   1.049   7.471  1.8717  0.8940 -1.1467
   80MOL0     H10782  10.112   0.612   7.631 -1.8764  0.1438 -0.5528
   80MOL0     H10783   9.969   0.620   7.849 -0.1604  1.5199 -1.0461
   80MOL0     H10784   7.990   0.763   7.622 -1.0002 -0.1007 -0.7334
   80MOL0     H10785   7.804   0.743   7.764 -0.6863 -0.8648  1.3066
   80MOL0     H10786   7.580   0.598   8.223  2.6539 -0.8361 -1.4355
   80MOL0     H10787   7.380   0.446   8.307  2.6518  2.7802  0.5756
   80MOL0     H10788   7.194   0.144   8.067  0.3551  0.4991 -2.1205
   80MOL0     H10789   7.104   0.288   7.997 -5.0651  2.2393  3.3680
   80MOL0     H10790   6.944   0.161   8.073  0.1547  2.3930 -1.1133
   80MOL0     H10791   6.957   0.315   8.143  0.0589  0.2039 -2.3905
   80MOL0     H10792   7.052   0.226   8.348 -1.4214  0.8608  0.2442
   80MOL0     H10793   7.061   0.063   8.293  0.6762  0.8316  1.4988
   80MOL0     H10794   6.858   0.132   8.445 -0.8409 -1.2983  0.0673
   80MOL0     H10795   6.808   0.244   8.321 -3.5113 -0.8495  3.5293
   80MOL0     H10796   6.626  -0.118   8.215  2.7533 -1.0431 -0.8295
   80MOL0     H10797   7.302   0.349   7.894  2.7113 -0.0638 -0.5703
   80MOL0     H10798   7.524   0.388   7.749 -2.6433 -0.3313 -0.5084
   80MOL0     H10799   7.393   0.496   7.722 -1.1807 -0.4950  1.7596
   80MOL0     H10800   7.547   0.573   7.761 -0.6172  0.4722 -0.4901
   81MOL0     O10801   9.183   9.874   0.068 -0.5451  0.0201 -0.0967
   81MOL0     C10802   9.162   9.773   0.131  0.0415  0.0223 -0.5685
   81MOL0     O10803   9.234   9.666   0.140  0.0343  0.0512 -0.4565
   81MOL0     C10804   9.339   9.644   0.048 -0.0050 -0.4584 -0.5097
   81MOL0     C10805   9.314   9.642  -0.089 -0.2887 -0.3457 -0.6138
   81MOL0     C10806   9.416   9.630  -0.177 -0.0514 -0.2506 -0.5706
   81MOL0     C10807   9.548   9.623  -0.138  0.5021 -0.0674 -0.1483
   81MOL0     O10808   9.656   9.596  -0.213  0.3115  0.1307 -0.3550
   81MOL0     C10809   9.705   9.697  -0.311  0.0705 -0.6066  0.1419
   81MOL0     C10810   9.856   9.693  -0.301  0.4539 -0.0595 -0.4091
   81MOL0     C10811   9.925   9.766  -0.424 -0.4617 -0.3540 -0.2927
   81MOL0     C10812  10.084   9.775  -0.427 -0.0753 -0.4802 -0.6269
   81MOL0     C10813  10.145   9.856  -0.544  0.2368  0.0357 -0.0320
   81MOL0     C10814  10.298   9.833  -0.556 -0.2648  0.5225 -0.6465
   81MOL0     C10815  10.349   9.915  -0.673 -0.9144 -1.3877  0.0671
   81MOL0     C10816  10.503   9.893  -0.713  0.0679  0.7351 -0.1486
   81MOL0     N10817  10.553   9.959  -0.834 -0.0547 -0.2167  0.3408
   81MOL0     C10818  10.522   9.935  -0.968 -0.0121 -0.4366  0.0991
   81MOL0     C10819  10.562  10.044  -1.036  0.8794  0.0670 -0.0158
   81MOL0     C10820  10.537  10.054  -1.184 -0.0958  0.0146 -0.6461
   81MOL0     C10821  10.454  10.181  -1.216 -0.1330  0.2279 -0.1424
   81MOL0     C10822  10.428  10.215  -1.358 -0.5319 -0.3845 -0.0006
   81MOL0     C10823  10.543  10.181  -1.445  0.0048 -0.3641  0.2327
   81MOL0     O10824  10.661  10.252  -1.398 -0.3493 -0.3817  0.2223
   81MOL0     C10825  10.762  10.254  -1.487 -0.5841 -0.0095 -0.4444
   81MOL0     C10826  10.768  10.347  -1.589 -0.0252  0.3230  0.6574
   81MOL0     C10827  10.871  10.336  -1.683 -0.2999  1.4249 -0.0349
   81MOL0     C10828  10.975  10.241  -1.670 -0.7357  0.4282 -0.3806
   81MOL0     C10829  11.096  10.240  -1.771  0.8001  0.9447 -0.3373
   81MOL0     O10830  11.104  10.349  -1.855 -0.6088  0.3430  1.0877
   81MOL0     C10831  11.226  10.359  -1.920  0.4298  0.4449  0.0525
   81MOL0     C10832  11.349  10.341  -1.846 -0.5795  0.0129  0.0264
   81MOL0     C10833  11.470  10.339  -1.911  0.3855 -0.4093 -0.8310
   81MOL0     C10834  11.480  10.356  -2.044  1.1473 -0.1134 -0.1320
   81MOL0     O10835  11.609  10.336  -2.094  0.4429 -0.5611  0.0619
   81MOL0     C10836  11.643  10.407  -2.220  0.7555  0.1348  0.5423
   81MOL0     C10837  11.799  10.420  -2.207 -0.1354 -0.4247 -0.0525
   81MOL0     C10838  11.860  10.495  -2.331  0.1955 -0.3159  0.3108
   81MOL0     C10839  12.017  10.483  -2.333  1.0658 -0.3188  0.0811
   81MOL0     C10840  12.076  10.538  -2.463  0.1630 -0.6288  0.2897
   81MOL0     C10841  12.228  10.513  -2.474  0.2215 -0.5306  0.3646
   81MOL0     C10842  12.286  10.574  -2.607  0.3316 -0.6610 -0.0814
   81MOL0     C10843  12.413  10.494  -2.644 -0.0787  0.1984  0.0637
   81MOL0    Cl10844  12.526  10.558  -2.763 -0.0289  0.1509 -0.4558
   81MOL0     C10845  11.359  10.395  -2.117  1.0524  0.1768  0.0643
   81MOL0     C10846  11.237  10.382  -2.052 -0.1797 -0.6935 -0.3006
   81MOL0     O10847  11.156  10.130  -1.772 -0.1407  0.1013  0.2778
   81MOL0     C10848  10.967  10.153  -1.561  0.0310  0.4679  0.1928
   81MOL0     C10849  10.866  10.157  -1.477 -0.1754  0.2396 -0.7549
   81MOL0     N10850  10.622  10.121  -0.946 -0.8736 -0.0046 -0.4111
   81MOL0     N10851  10.625  10.075  -0.824 -0.0505 -0.7998 -0.2761
   81MOL0     C10852   9.569   9.612   0.002 -0.8342 -0.2661  0.2091
   81MOL0     C10853   9.463   9.626   0.091 -0.6718 -0.4774  0.3776
   81MOL0     C10854   9.026   9.774   0.187 -0.6005 -0.5859 -0.0319
   81MOL0     C10855   8.971   9.655   0.232  0.1684  0.1374  0.0395
   81MOL0     C10856   8.838   9.639   0.260 -0.9050 -0.5451 -0.8166
   81MOL0     C10857   8.749   9.750   0.257 -0.4586  1.2947  0.5089
   81MOL0     O10858   8.619   9.729   0.297  0.7001 -0.7634 -0.3313
   81MOL0     C10859   8.548   9.835   0.371 -0.0839 -0.0732  0.6491
   81MOL0     C10860   8.463   9.777   0.480 -0.1912 -0.8983  0.7022
   81MOL0     C10861   8.353   9.680   0.432 -0.2605  0.2783  0.2978
   81MOL0     C10862   8.257   9.634   0.543 -0.8524  0.4947 -0.5780
   81MOL0     C10863   8.152   9.727   0.550  0.9543 -0.0265  0.7562
   81MOL0     C10864   8.044   9.790   0.562 -0.4563  0.2255  0.2755
   81MOL0     C10865   8.804   9.872   0.230  0.7530  0.2104 -1.1614
   81MOL0     C10866   8.940   9.887   0.197  0.4957 -0.1488 -1.1139
   81MOL0     C10867   8.974  10.033   0.168  0.0310 -0.7055 -0.5018
   81MOL0     H10868   9.216   9.662  -0.130  0.7197 -0.1239 -3.0496
   81MOL0     H10869   9.411   9.630  -0.286  0.7991  0.3738 -0.6195
   81MOL0     H10870   9.660   9.681  -0.410 -0.2743  3.1794 -0.4452
   81MOL0     H10871   9.681   9.799  -0.279  2.4349 -0.3413  1.2581
   81MOL0     H10872   9.889   9.589  -0.293 -2.4307 -1.1876 -1.7356
   81MOL0     H10873   9.893   9.750  -0.215  1.5393  1.6128 -1.8963
   81MOL0     H10874   9.887   9.868  -0.428 -0.7651 -0.5071 -2.2874
   81MOL0     H10875   9.895   9.715  -0.515  0.0943  0.7291 -1.1059
   81MOL0     H10876  10.124   9.821  -0.336 -2.4593  1.1338 -0.2946
   81MOL0     H10877  10.130   9.676  -0.418 -0.8768 -0.7420  1.0930
   81MOL0     H10878  10.104   9.819  -0.639  1.3227 -0.6286 -0.2555
   81MOL0     H10879  10.130   9.964  -0.538 -0.3156 -0.0914  1.0787
   81MOL0     H10880  10.343   9.876  -0.467  2.2653 -0.0702 -1.5657
   81MOL0     H10881  10.320   9.726  -0.572  0.3823  0.2142  1.9393
   81MOL0     H10882  10.329  10.021  -0.656  0.2683 -0.8380 -1.7647
   81MOL0     H10883  10.291   9.884  -0.760  2.2119 -0.6420 -2.4488
   81MOL0     H10884  10.569   9.923  -0.630 -1.4644  1.1705  0.9690
   81MOL0     H10885  10.518   9.786  -0.723 -1.6695  0.3937  0.4831
   81MOL0     H10886  10.482   9.844  -1.011 -1.8450 -1.2278  3.1548
   81MOL0     H10887  10.639  10.053  -1.222 -0.0061 -0.8796 -0.3995
   81MOL0     H10888  10.482   9.967  -1.222 -1.8165  0.0893  1.4855
   81MOL0     H10889  10.361  10.183  -1.159  1.2942 -3.4973  2.7352
   81MOL0     H10890  10.509  10.265  -1.174  1.4338 -0.2912 -1.0668
   81MOL0     H10891  10.416  10.323  -1.370  4.7591  0.4640  0.0664
   81MOL0     H10892  10.334  10.171  -1.394 -1.2447  2.4082 -1.9165
   81MOL0     H10893  10.512  10.216  -1.544 -2.0818  2.1139  1.6251
   81MOL0     H10894  10.558  10.073  -1.445  1.9214 -0.1297  0.3470
   81MOL0     H10895  10.692  10.426  -1.590 -2.5906 -1.9073 -2.9212
   81MOL0     H10896  10.872  10.407  -1.765  2.4798 -0.8456 -2.1435
   81MOL0     H10897  11.348  10.330  -1.738  2.2754 -2.8265 -0.0560
   81MOL0     H10898  11.565  10.338  -1.857  1.0599  1.6382 -1.8586
   81MOL0     H10899  11.603  10.342  -2.299 -2.7700  2.8426 -0.1437
   81MOL0     H10900  11.592  10.504  -2.217 -0.5535 -0.4704 -0.8053
   81MOL0     H10901  11.822  10.461  -2.108 -0.5212  1.5717 -0.7445
   81MOL0     H10902  11.845  10.320  -2.209  1.7444  0.3802  0.3989
   81MOL0     H10903  11.802  10.459  -2.416  2.0922 -2.4078 -0.1960
   81MOL0     H10904  11.836  10.602  -2.336 -0.2476 -0.2177  2.9604
   81MOL0     H10905  12.032  10.375  -2.322  2.0511 -0.1683  0.2595
   81MOL0     H10906  12.057  10.534  -2.245 -0.2803 -0.5971  0.8897
   81MOL0     H10907  12.069  10.647  -2.463  5.1033 -0.0967  0.7108
   81MOL0     H10908  12.029  10.486  -2.547  0.4471 -4.8856  2.5133
   81MOL0     H10909  12.279  10.551  -2.386  1.3681  2.2919 -1.4000
   81MOL0     H10910  12.243  10.404  -2.475 -0.8482 -0.6929  0.0087
   81MOL0     H10911  12.302  10.682  -2.594  0.4717 -0.7079  0.1502
   81MOL0     H10912  12.221  10.557  -2.693 -0.8738  1.9369  0.2328
   81MOL0     H10913  12.475  10.476  -2.555  2.0511  2.3482 -0.8625
   81MOL0     H10914  12.385  10.393  -2.674  0.2917 -0.9500  3.1804
   81MOL0     H10915  11.363  10.416  -2.223 -1.6290  0.9754  0.0615
   81MOL0     H10916  11.144  10.414  -2.098 -0.7398  0.3334  1.4488
   81MOL0     H10917  11.043  10.076  -1.551 -0.9759 -0.2781  2.8556
   81MOL0     H10918  10.864  10.080  -1.402  1.2960  0.5886 -0.3310
   81MOL0     H10919   9.669   9.617   0.044 -0.3683  1.1778 -0.9622
   81MOL0     H10920   9.476   9.627   0.199 -0.6559 -1.3588  0.3931
   81MOL0     H10921   9.029   9.563   0.240 -0.0394  0.0895  1.2482
   81MOL0     H10922   8.813   9.545   0.308  2.0175  0.9154  4.2499
   81MOL0     H10923   8.483   9.883   0.298  0.7538 -2.7328 -2.0181
   81MOL0     H10924   8.614   9.910   0.416 -2.5239  2.4343  0.3247
   81MOL0     H10925   8.406   9.858   0.528  0.7780 -0.3207  0.9274
   81MOL0     H10926   8.539   9.737   0.548  1.9082 -0.0482 -1.0243
   81MOL0     H10927   8.401   9.598   0.379 -0.4676  0.8797 -0.8548
   81MOL0     H10928   8.292   9.720   0.351 -0.0346  0.8635  0.4090
   81MOL0     H10929   8.210   9.540   0.515 -1.7013 -0.1128  2.5521
   81MOL0     H10930   8.300   9.628   0.644  0.2326 -0.2156 -1.0608
   81MOL0     H10931   7.948   9.835   0.574 -1.6276 -0.7098 -3.9364
   81MOL0     H10932   8.755   9.969   0.231  2.5359  1.1652  1.2052
   81MOL0     H10933   9.073  10.068   0.198  0.8325  2.3247 -5.4546
   81MOL0     H10934   8.962  10.047   0.060 -0.7910 -1.1723 -0.4788
   81MOL0     H10935   8.906  10.098   0.223  0.2476 -0.8519 -0.0495
   82MOL0     O10936   7.968   2.858  10.070  0.2856 -0.6260  0.0162
   82MOL0     C10937   8.056   2.887   9.985 -0.1119  0.3877 -0.0849
   82MOL0     O10938   8.070   3.006   9.923 -0.4287 -0.6128 -0.0238
   82MOL0     C10939   7.975   3.100   9.928  0.8592  0.4260  0.2435
   82MOL0     C10940   7.839   3.079   9.901 -0.3638 -0.3304  0.3599
   82MOL0     C10941   7.765   3.192   9.868  0.8150 -0.3067 -1.2297
   82MOL0     C10942   7.801   3.324   9.895 -0.3507 -0.5261  0.4407
   82MOL0     O10943   7.700   3.421   9.873 -0.0341  0.3821  0.7323
   82MOL0     C10944   7.717   3.554   9.927  0.4888  0.1113 -0.0837
   82MOL0     C10945   7.583   3.631   9.906 -0.1696 -0.5872  0.6023
   82MOL0     C10946   7.599   3.778   9.946  0.3374 -0.1317 -0.3333
   82MOL0     C10947   7.488   3.865   9.891 -0.4522  0.4999 -0.3278
   82MOL0     C10948   7.488   4.012   9.950  0.0137 -0.0094 -0.2237
   82MOL0     C10949   7.384   4.102   9.888 -0.5653  0.7091 -0.1125
   82MOL0     C10950   7.383   4.240   9.942 -0.4572 -0.5686  0.0393
   82MOL0     C10951   7.301   4.255  10.073  0.1055 -0.0661  0.1525
   82MOL0     N10952   7.160   4.247  10.055  0.3461  0.0473  0.2693
   82MOL0     C10953   7.080   4.143  10.089  0.3198  0.3871 -0.0458
   82MOL0     C10954   6.953   4.190  10.066  0.6269  0.1979 -0.7784
   82MOL0     C10955   6.829   4.125  10.109 -0.1499 -0.4826 -0.4157
   82MOL0     C10956   6.780   4.141  10.249 -0.3285 -0.8882 -0.0524
   82MOL0     C10957   6.884   4.080  10.344  0.2992  0.6206 -0.4279
   82MOL0     C10958   6.829   4.080  10.488  0.3296  1.0042  0.6498
   82MOL0     O10959   6.916   4.008  10.572  0.5483  0.4504 -0.8045
   82MOL0     C10960   7.015   4.076  10.649 -0.6360 -0.1637 -0.1517
   82MOL0     C10961   7.110   3.989  10.707 -0.4504  0.6126 -0.5734
   82MOL0     C10962   7.214   4.040  10.791 -0.0017  0.2243  0.1659
   82MOL0     C10963   7.213   4.173  10.835  0.1809  0.0433 -0.4023
   82MOL0     C10964   7.318   4.224  10.933 -0.3146 -0.6290  0.2543
   82MOL0     O10965   7.316   4.357  10.954  0.0199 -0.2980 -1.1341
   82MOL0     C10966   7.419   4.401  11.031 -0.0281 -0.1184  0.0080
   82MOL0     C10967   7.403   4.418  11.172  0.0990  0.3764  0.3135
   82MOL0     C10968   7.512   4.452  11.251  0.7028  0.0823  0.5673
   82MOL0     C10969   7.630   4.468  11.194 -0.6844 -0.3186 -0.0662
   82MOL0     O10970   7.729   4.494  11.278  0.3685 -0.3018 -0.2070
   82MOL0     C10971   7.863   4.525  11.241 -0.2089 -0.7420  0.4402
   82MOL0     C10972   7.972   4.548  11.345 -0.2762 -0.8734  0.5481
   82MOL0     C10973   8.089   4.622  11.279  0.1987 -0.1754  0.7172
   82MOL0     C10974   8.213   4.625  11.355 -0.9251 -0.9018 -0.1196
   82MOL0     C10975   8.325   4.713  11.273  0.1856  0.4056  0.9016
   82MOL0     C10976   8.300   4.872  11.261  0.5083  0.0979  0.3666
   82MOL0     C10977   8.425   4.943  11.209  0.3045  0.7196 -0.5498
   82MOL0     C10978   8.378   5.090  11.193 -0.1550 -0.2207 -0.4287
   82MOL0    Cl10979   8.512   5.192  11.128  0.7029 -0.0197  0.1970
   82MOL0     C10980   7.644   4.462  11.059 -0.1907  0.0682  0.3813
   82MOL0     C10981   7.539   4.433  10.976 -0.7773 -1.0530  0.2888
   82MOL0     O10982   7.407   4.139  10.961 -0.6023  0.0706 -1.3018
   82MOL0     C10983   7.112   4.257  10.776 -0.5564 -0.1207 -0.2836
   82MOL0     C10984   7.022   4.212  10.685  0.6540 -0.4693  0.0896
   82MOL0     N10985   6.958   4.321  10.022  0.2110 -0.7636 -0.5984
   82MOL0     N10986   7.085   4.354  10.023  0.6580 -0.1996  0.1182
   82MOL0     C10987   7.933   3.341   9.928 -0.0714 -0.4146  0.6094
   82MOL0     C10988   8.013   3.230   9.940 -0.7814  0.7621  0.1627
   82MOL0     C10989   8.162   2.779   9.988  0.4484 -0.8310 -1.0783
   82MOL0     C10990   8.174   2.689  10.096  0.7534  0.7025 -0.2595
   82MOL0     C10991   8.286   2.596  10.095  0.5704  0.0749  0.6631
   82MOL0     C10992   8.374   2.599   9.990  0.4718  0.6077  0.2527
   82MOL0     O10993   8.469   2.503   9.963 -0.2329 -0.6244  1.0286
   82MOL0     C10994   8.532   2.446  10.075 -0.6933 -0.1740  0.0420
   82MOL0     C10995   8.459   2.324  10.122  0.5793  0.5856  0.0695
   82MOL0     C10996   8.547   2.243  10.217 -0.0466 -0.4388  1.4156
   82MOL0     C10997   8.458   2.184  10.325 -0.4358 -0.3839 -0.2097
   82MOL0     C10998   8.520   2.075  10.407  0.0160  0.1644  0.4406
   82MOL0     C10999   8.570   1.986  10.471 -0.0546 -0.2304 -0.3422
   82MOL0     C11000   8.352   2.685   9.880  0.0633 -0.0531 -0.2033
   82MOL0     C11001   8.244   2.777   9.877  0.0362 -0.0673 -0.6470
   82MOL0     C11002   8.222   2.855   9.745 -0.0592 -0.4794 -0.0237
   82MOL0     H11003   7.811   2.975   9.899  1.1625 -0.7642 -1.7839
   82MOL0     H11004   7.670   3.168   9.821  0.4369  0.7433 -1.0404
   82MOL0     H11005   7.734   3.553  10.035  0.4439  2.1475 -0.0269
   82MOL0     H11006   7.802   3.602   9.878 -0.8635  2.1805 -0.5180
   82MOL0     H11007   7.498   3.588   9.959 -1.3919 -1.1740 -1.6996
   82MOL0     H11008   7.568   3.622   9.798  1.4697 -1.9197  0.4361
   82MOL0     H11009   7.689   3.828   9.908  0.4911 -1.4924 -1.8686
   82MOL0     H11010   7.604   3.790  10.054 -1.4037 -3.2927  0.2238
   82MOL0     H11011   7.489   3.862   9.781 -3.8571 -0.3018 -0.4509
   82MOL0     H11012   7.391   3.820   9.914 -0.9510  2.5319  1.9846
   82MOL0     H11013   7.453   3.991  10.051  1.5650  2.7085  0.9963
   82MOL0     H11014   7.588   4.056   9.944  0.5307 -1.2262 -0.8029
   82MOL0     H11015   7.410   4.088   9.782  0.1006 -0.3210  0.1703
   82MOL0     H11016   7.287   4.052   9.889  1.0668 -2.7377  0.0455
   82MOL0     H11017   7.344   4.307   9.865 -1.3964 -2.2531 -1.0349
   82MOL0     H11018   7.483   4.280   9.961 -1.1781  2.4594 -1.8017
   82MOL0     H11019   7.338   4.187  10.151  0.5223 -1.2994 -1.0783
   82MOL0     H11020   7.309   4.359  10.105  1.1234 -0.0753 -0.0269
   82MOL0     H11021   7.109   4.045  10.125 -2.8522 -0.2940  1.0020
   82MOL0     H11022   6.752   4.181  10.055 -0.4048 -0.9900 -0.5833
   82MOL0     H11023   6.830   4.022  10.072  0.7077 -1.3079  1.7464
   82MOL0     H11024   6.775   4.245  10.284  0.9991 -1.6149  2.5660
   82MOL0     H11025   6.676   4.107  10.255 -1.7765  2.9486 -0.5300
   82MOL0     H11026   6.971   4.145  10.356  0.0667  0.8530  0.0050
   82MOL0     H11027   6.894   3.974  10.319 -1.9102  0.6522 -1.7279
   82MOL0     H11028   6.736   4.023  10.477  1.6531 -1.2506  0.4089
   82MOL0     H11029   6.796   4.175  10.530 -2.3004  0.0300  0.9613
   82MOL0     H11030   7.097   3.886  10.676  1.6025  0.7804 -2.1459
   82MOL0     H11031   7.284   3.966  10.828  1.8448  1.2118 -1.2508
   82MOL0     H11032   7.303   4.397  11.209  0.5170 -1.5434  0.4920
   82MOL0     H11033   7.496   4.458  11.359 -1.0563 -0.9383  0.4133
   82MOL0     H11034   7.895   4.449  11.168  1.8678 -0.5617  1.1067
   82MOL0     H11035   7.861   4.617  11.181  1.4333 -1.8898 -1.5387
   82MOL0     H11036   7.923   4.602  11.426  0.4696 -1.2680  1.2746
   82MOL0     H11037   8.005   4.449  11.377 -0.2935 -1.0625 -0.0022
   82MOL0     H11038   8.100   4.586  11.176 -1.0792 -1.2270  0.9248
   82MOL0     H11039   8.053   4.722  11.256  3.4026  0.9807  0.1557
   82MOL0     H11040   8.260   4.527  11.366  2.1665  0.4025 -0.6010
   82MOL0     H11041   8.190   4.659  11.456  1.2562 -3.8060  1.5073
   82MOL0     H11042   8.333   4.678  11.170 -0.9997  2.2961  0.1101
   82MOL0     H11043   8.423   4.693  11.316  0.3340  1.5378  1.1323
   82MOL0     H11044   8.221   4.899  11.190 -0.2829  0.3831  1.3369
   82MOL0     H11045   8.272   4.907  11.361  1.1566  1.7193  0.0143
   82MOL0     H11046   8.452   4.904  11.110 -0.5955 -2.0189  0.1962
   82MOL0     H11047   8.514   4.934  11.272  0.2228  2.4147 -0.1512
   82MOL0     H11048   8.288   5.088  11.131 -1.2172 -1.5836  1.0839
   82MOL0     H11049   8.349   5.140  11.286 -0.2015  0.6803 -0.9168
   82MOL0     H11050   7.738   4.477  11.007 -0.2764 -0.2727  0.1243
   82MOL0     H11051   7.569   4.446  10.873 -0.1785  1.8814  0.7322
   82MOL0     H11052   7.115   4.362  10.804  1.3333  0.4239 -2.2843
   82MOL0     H11053   6.961   4.286  10.634  2.2362  1.4097  0.8228
   82MOL0     H11054   7.973   3.439   9.954  0.8571 -0.3652 -0.8892
   82MOL0     H11055   8.118   3.253   9.954 -0.7399  2.1124 -1.9529
   82MOL0     H11056   8.105   2.691  10.180  2.7128  2.7909  1.4257
   82MOL0     H11057   8.308   2.540  10.185  1.6789  0.1393  0.4407
   82MOL0     H11058   8.546   2.515  10.158  0.7400 -0.3290 -0.0452
   82MOL0     H11059   8.636   2.425  10.047 -1.4889 -0.6887 -2.8858
   82MOL0     H11060   8.453   2.260  10.033  0.4169 -1.8196  1.7022
   82MOL0     H11061   8.357   2.350  10.152  0.0786  1.6358 -2.2448
   82MOL0     H11062   8.618   2.303  10.274  1.4393 -2.1121  1.3745
   82MOL0     H11063   8.591   2.156  10.167 -0.2422  0.1560  0.1614
   82MOL0     H11064   8.417   2.268  10.381  0.3964 -0.2507  0.2159
   82MOL0     H11065   8.367   2.143  10.278 -1.1089  1.9213 -1.0443
   82MOL0     H11066   8.590   1.917  10.551 -2.5471  0.4115  0.9253
   82MOL0     H11067   8.415   2.686   9.792 -0.9303  2.2970 -0.9603
   82MOL0     H11068   8.119   2.884   9.723  0.0768 -2.0085 -3.2844
   82MOL0     H11069   8.288   2.943   9.746 -2.0546  1.0763  0.5925
   82MOL0     H11070   8.259   2.792   9.664  0.3582 -0.9044  0.4855
   83MOL0     O11071   4.637   5.989   3.745  0.2995 -0.1876  0.2987
   83MOL0     C11072   4.659   6.080   3.659 -0.8695  0.8775 -0.0448
   83MOL0     O11073   4.763   6.158   3.655 -0.0944 -0.1520 -0.4179
   83MOL0     C11074   4.861   6.137   3.746 -0.8028 -0.6537 -0.6119
   83MOL0     C11075   4.971   6.062   3.712  0.0052  0.6569 -0.2105
   83MOL0     C11076   5.077   6.044   3.805  0.3972 -0.0672  0.8222
   83MOL0     C11077   5.069   6.109   3.930  0.1678  0.2142 -0.0306
   83MOL0     O11078   5.172   6.135   4.010  0.1922 -0.4571 -0.0269
   83MOL0     C11079   5.305   6.093   3.987  0.3909 -0.2471  1.0100
   83MOL0     C11080   5.369   6.186   3.884 -0.1953  0.3938  1.5321
   83MOL0     C11081   5.369   6.335   3.920 -0.0593 -0.0335  0.5750
   83MOL0     C11082   5.372   6.358   4.076 -0.3496 -0.4603  0.2738
   83MOL0     C11083   5.346   6.505   4.112 -0.7231 -0.2636  0.1859
   83MOL0     C11084   5.335   6.524   4.261  0.0397  0.3654  0.3158
   83MOL0     C11085   5.327   6.683   4.281  0.4159  0.4486  0.7701
   83MOL0     C11086   5.316   6.731   4.428 -0.1117 -0.0531 -0.1157
   83MOL0     N11087   5.364   6.872   4.437  0.4295  1.0808  0.1959
   83MOL0     C11088   5.498   6.916   4.417  0.0130 -0.4970  1.0063
   83MOL0     C11089   5.506   7.041   4.465 -0.1202 -0.6158  1.0847
   83MOL0     C11090   5.633   7.127   4.465  0.4928  0.4152 -0.3976
   83MOL0     C11091   5.751   7.058   4.384 -0.2770 -0.1084 -1.0032
   83MOL0     C11092   5.827   6.940   4.464  0.0146 -0.7403  1.6700
   83MOL0     C11093   5.923   6.856   4.375 -0.1453  0.1874 -0.3623
   83MOL0     O11094   5.837   6.763   4.307  0.1577  0.0775  0.2821
   83MOL0     C11095   5.886   6.683   4.204  0.7037  0.0710  0.0522
   83MOL0     C11096   6.019   6.673   4.177 -0.1439  0.5260  0.3450
   83MOL0     C11097   6.063   6.578   4.087  0.9754  0.2338  0.1604
   83MOL0     C11098   5.976   6.502   4.010 -1.5645  0.3638 -0.1933
   83MOL0     C11099   6.022   6.400   3.923  0.3190  1.2983  0.1380
   83MOL0     O11100   6.154   6.371   3.915  0.6968 -0.3349 -0.8855
   83MOL0     C11101   6.192   6.293   3.816  0.0492  0.0122 -0.4294
   83MOL0     C11102   6.163   6.158   3.809  0.2399  0.4388 -0.0592
   83MOL0     C11103   6.216   6.074   3.708 -0.0259 -0.7353  1.2728
   83MOL0     C11104   6.303   6.144   3.623 -0.8428 -0.2986  0.3187
   83MOL0     O11105   6.388   6.075   3.536  0.5530  0.2644  0.1134
   83MOL0     C11106   6.446   5.956   3.580  0.9189  0.1519 -0.9031
   83MOL0     C11107   6.553   5.915   3.487  0.7103  0.9844  0.7198
   83MOL0     C11108   6.669   6.014   3.455  1.3219  0.7852 -0.0338
   83MOL0     C11109   6.769   5.952   3.357 -0.3812  0.3072 -0.6799
   83MOL0     C11110   6.894   6.039   3.326 -0.2473  0.5237  0.6794
   83MOL0     C11111   7.012   5.957   3.285 -0.7866  0.2080  0.0034
   83MOL0     C11112   7.057   5.840   3.378  0.0606  0.4502  0.0274
   83MOL0     C11113   7.066   5.860   3.527 -0.3540 -0.1492 -0.4741
   83MOL0    Cl11114   7.058   5.699   3.608  0.5507  0.1652 -0.0063
   83MOL0     C11115   6.331   6.275   3.633  1.0550 -0.3066 -0.2680
   83MOL0     C11116   6.275   6.353   3.729 -0.2261  0.5303  1.0808
   83MOL0     O11117   5.935   6.346   3.853  0.3586 -0.4715  0.4781
   83MOL0     C11118   5.834   6.512   4.032  1.2343 -0.1042 -0.4034
   83MOL0     C11119   5.794   6.605   4.137  1.0808  0.1961  0.6867
   83MOL0     N11120   5.380   7.074   4.522 -0.0568 -0.2980  0.0180
   83MOL0     N11121   5.304   6.976   4.504  0.5539 -0.4709  0.0114
   83MOL0     C11122   4.961   6.183   3.959 -0.0219 -0.0121  0.6011
   83MOL0     C11123   4.852   6.205   3.873 -0.5956 -0.2283  0.7108
   83MOL0     C11124   4.546   6.091   3.560  0.3213  0.4798 -0.6844
   83MOL0     C11125   4.420   6.028   3.587 -0.1708 -1.4402  0.4443
   83MOL0     C11126   4.314   6.038   3.499  0.0603  0.5351  0.1373
   83MOL0     C11127   4.320   6.120   3.389  0.2056 -0.6483  0.4044
   83MOL0     O11128   4.216   6.144   3.299 -0.6937  0.2724 -0.3129
   83MOL0     C11129   4.097   6.059   3.313 -0.2977 -0.8733 -0.3646
   83MOL0     C11130   4.002   6.109   3.205 -1.7412  0.7093  0.0966
   83MOL0     C11131   3.859   6.060   3.226 -0.4623  0.3228  0.3781
   83MOL0     C11132   3.768   6.135   3.130 -0.5349 -0.4723  0.4023
   83MOL0     C11133   3.628   6.087   3.134 -0.6226 -0.0102  0.0759
   83MOL0     C11134   3.522   6.036   3.156  0.0356 -0.1017  0.2386
   83MOL0     C11135   4.438   6.183   3.364 -0.8492  0.9215 -1.3905
   83MOL0     C11136   4.549   6.172   3.446 -0.5642 -0.6854 -0.3310
   83MOL0     C11137   4.672   6.244   3.390 -0.1818 -0.6567 -1.0110
   83MOL0     H11138   4.969   6.008   3.618  2.4020  0.2454 -0.0874
   83MOL0     H11139   5.148   5.967   3.778 -1.3858 -0.5591 -3.2460
   83MOL0     H11140   5.364   6.087   4.078  2.0569  1.7907  0.1430
   83MOL0     H11141   5.302   5.993   3.941 -1.3476  0.7860 -1.3565
   83MOL0     H11142   5.325   6.177   3.784  0.2056 -0.5745  1.4223
   83MOL0     H11143   5.471   6.146   3.875 -1.4967 -3.9052  3.0150
   83MOL0     H11144   5.274   6.375   3.884 -0.5767  1.0043  2.9125
   83MOL0     H11145   5.451   6.386   3.869  1.3145 -1.2900  1.4206
   83MOL0     H11146   5.294   6.304   4.130 -0.5907 -0.9198 -0.5166
   83MOL0     H11147   5.467   6.312   4.107 -0.9641 -2.7184 -0.9274
   83MOL0     H11148   5.433   6.565   4.084 -0.4814  0.5708  2.5268
   83MOL0     H11149   5.256   6.537   4.058 -0.2376  1.2447  0.2344
   83MOL0     H11150   5.239   6.479   4.291 -0.4892 -0.1884 -2.0676
   83MOL0     H11151   5.418   6.487   4.322 -0.7205  0.2100  1.2942
   83MOL0     H11152   5.236   6.720   4.232 -1.6409 -2.0868  2.3843
   83MOL0     H11153   5.417   6.724   4.235  0.0925  1.5838  1.1112
   83MOL0     H11154   5.214   6.721   4.466 -1.6597 -1.3337 -4.0883
   83MOL0     H11155   5.382   6.670   4.491  0.1302 -0.4795 -0.7664
   83MOL0     H11156   5.566   6.851   4.362 -1.4776 -0.6904 -0.6912
   83MOL0     H11157   5.599   7.214   4.408 -1.4145  0.6762  1.0431
   83MOL0     H11158   5.655   7.158   4.568 -1.2617  0.3578  0.0180
   83MOL0     H11159   5.714   7.017   4.289  1.1477  0.6296 -1.9068
   83MOL0     H11160   5.821   7.138   4.360  0.5672  0.1200  1.8526
   83MOL0     H11161   5.756   6.873   4.514 -1.2947 -0.2137  0.6070
   83MOL0     H11162   5.892   6.988   4.538 -1.7020 -0.1028  2.8514
   83MOL0     H11163   5.995   6.799   4.435  1.8871  1.0349 -1.8625
   83MOL0     H11164   5.985   6.919   4.311  1.2925  1.2023  1.8898
   83MOL0     H11165   6.093   6.739   4.222  0.9223  1.1529 -2.1106
   83MOL0     H11166   6.171   6.567   4.086  0.8621 -1.5114  1.7440
   83MOL0     H11167   6.102   6.123   3.891 -0.1806  1.8167  0.2406
   83MOL0     H11168   6.203   5.967   3.694 -0.0491 -0.5872  0.0492
   83MOL0     H11169   6.476   5.963   3.685  0.0872 -2.4385 -0.4203
   83MOL0     H11170   6.360   5.889   3.581 -2.2864  3.2073  7.1252
   83MOL0     H11171   6.593   5.821   3.526  0.0043 -0.5839 -2.0795
   83MOL0     H11172   6.511   5.897   3.387  1.8042  0.1186  0.4049
   83MOL0     H11173   6.617   6.101   3.413 -1.5154  0.0951  1.7406
   83MOL0     H11174   6.721   6.050   3.545 -0.1865  0.6075  0.9639
   83MOL0     H11175   6.722   5.888   3.282  1.0578 -2.2299  0.4409
   83MOL0     H11176   6.802   5.872   3.423 -0.3137  1.3907  0.6224
   83MOL0     H11177   6.933   6.084   3.417  2.3782 -2.9275  1.4653
   83MOL0     H11178   6.876   6.110   3.244  2.8405  0.6475 -0.0342
   83MOL0     H11179   6.993   5.916   3.185  0.2797  0.6756 -0.3988
   83MOL0     H11180   7.098   6.021   3.267  0.4392 -1.6451 -1.0930
   83MOL0     H11181   7.150   5.813   3.327 -0.4672  1.1018 -1.3025
   83MOL0     H11182   6.990   5.756   3.358  0.5494 -0.1864  0.9793
   83MOL0     H11183   7.152   5.923   3.552 -3.6813  4.7975  0.0727
   83MOL0     H11184   6.987   5.925   3.566 -1.3365 -1.7371  0.2599
   83MOL0     H11185   6.393   6.318   3.555  0.5344 -0.6732 -0.8926
   83MOL0     H11186   6.308   6.456   3.737 -1.6580  1.1871 -0.7465
   83MOL0     H11187   5.754   6.449   3.993  0.3336  1.1476 -0.6073
   83MOL0     H11188   5.689   6.611   4.165  0.8766  0.5702 -0.1147
   83MOL0     H11189   4.965   6.232   4.056  0.2312  0.1906  0.4885
   83MOL0     H11190   4.765   6.264   3.898  0.7028  3.0118 -1.7504
   83MOL0     H11191   4.398   5.986   3.684  1.4141 -3.0800  0.1543
   83MOL0     H11192   4.226   5.983   3.529 -0.6803  1.9873  0.7067
   83MOL0     H11193   4.054   6.072   3.412 -2.1554  0.3970 -1.2872
   83MOL0     H11194   4.109   5.950   3.308 -1.5001 -0.9935 -0.7622
   83MOL0     H11195   4.044   6.092   3.105  1.1100 -1.8283  1.5287
   83MOL0     H11196   3.993   6.216   3.223  3.0843  1.2743  0.5749
   83MOL0     H11197   3.823   6.081   3.328 -2.2688  1.8001 -0.5035
   83MOL0     H11198   3.846   5.954   3.202 -0.3544  0.0708  1.3953
   83MOL0     H11199   3.764   6.239   3.162  1.7707 -0.4451  0.7837
   83MOL0     H11200   3.809   6.132   3.028 -4.0146  1.6729 -1.2492
   83MOL0     H11201   3.435   5.973   3.157  0.4554 -0.7043 -0.1690
   83MOL0     H11202   4.453   6.257   3.286  2.5992  1.2066 -0.6019
   83MOL0     H11203   4.671   6.347   3.427 -0.7875 -0.7209 -0.8233
   83MOL0     H11204   4.762   6.192   3.423  0.2885  1.6543  1.6741
   83MOL0     H11205   4.665   6.257   3.282  1.8767  0.9153 -1.0162
   84MOL0     O11206   9.716   9.457   1.065  0.3569 -0.3281 -0.4333
   84MOL0     C11207   9.654   9.470   1.174 -0.6729 -0.8630  0.0823
   84MOL0     O11208   9.722   9.498   1.294 -0.0446 -0.1013  0.3912
   84MOL0     C11209   9.854   9.534   1.293 -0.0180 -0.6292  0.5579
   84MOL0     C11210   9.887   9.673   1.308 -0.1128  0.4819 -0.3845
   84MOL0     C11211  10.022   9.710   1.304  0.4891  1.0264  0.4967
   84MOL0     C11212  10.124   9.615   1.275 -0.1741 -0.1139  1.0461
   84MOL0     O11213  10.254   9.643   1.252  0.0698  0.4839 -0.8858
   84MOL0     C11214  10.303   9.766   1.306 -0.1518  1.5607 -0.7019
   84MOL0     C11215  10.448   9.778   1.295 -1.2786 -0.3334  0.7076
   84MOL0     C11216  10.486   9.789   1.144  0.5777 -0.3662 -0.5898
   84MOL0     C11217  10.616   9.866   1.119  0.1282  0.3094  0.1976
   84MOL0     C11218  10.734   9.794   1.182 -0.6834 -0.1508 -0.0195
   84MOL0     C11219  10.860   9.849   1.109  0.9570 -0.4326 -0.9536
   84MOL0     C11220  10.986   9.782   1.153  0.6203 -0.0607  0.8091
   84MOL0     C11221  11.083   9.789   1.033 -0.6644 -0.4318  0.1697
   84MOL0     N11222  11.131   9.929   1.019 -0.0577 -0.7544  0.2502
   84MOL0     C11223  11.149   9.993   0.895  0.0828 -0.2004 -0.1507
   84MOL0     C11224  11.237  10.089   0.930 -0.8672 -0.4240 -0.2244
   84MOL0     C11225  11.314  10.174   0.833 -0.2161 -1.0732  0.4594
   84MOL0     C11226  11.245  10.305   0.809  0.2720 -0.0318  0.6475
   84MOL0     C11227  11.293  10.375   0.679  0.1640 -0.1480 -0.8902
   84MOL0     C11228  11.436  10.437   0.674  0.5076 -0.2981 -1.0000
   84MOL0     O11229  11.436  10.579   0.708  0.8707 -1.0879  0.0136
   84MOL0     C11230  11.557  10.645   0.690 -0.1759  1.2172 -0.2313
   84MOL0     C11231  11.671  10.591   0.631  0.2802  0.5628 -0.3208
   84MOL0     C11232  11.772  10.675   0.593  0.7530 -0.6117 -0.9566
   84MOL0     C11233  11.777  10.807   0.632  0.6442  0.9640 -0.1125
   84MOL0     C11234  11.894  10.888   0.590 -0.0908 -0.0554 -1.2542
   84MOL0     O11235  11.995  10.824   0.537  0.2214  0.2355  0.0394
   84MOL0     C11236  12.100  10.900   0.503  0.2915 -0.9894 -0.0943
   84MOL0     C11237  12.182  10.951   0.604  0.1857  0.2283 -0.0990
   84MOL0     C11238  12.292  11.028   0.565 -0.7114 -0.1513 -0.0983
   84MOL0     C11239  12.331  11.039   0.436 -0.1253 -0.3241 -0.6922
   84MOL0     O11240  12.455  11.094   0.405  0.2115 -0.1830 -0.7209
   84MOL0     C11241  12.556  10.988   0.405 -0.8826 -0.1361 -1.1275
   84MOL0     C11242  12.613  10.969   0.544  0.1296  0.3659 -0.0074
   84MOL0     C11243  12.734  10.871   0.544  0.7746  0.3990  0.4789
   84MOL0     C11244  12.798  10.855   0.684  0.7195 -0.1280 -0.1422
   84MOL0     C11245  12.938  10.802   0.697  0.0104 -0.4385 -0.2745
   84MOL0     C11246  13.049  10.901   0.662  0.7216 -0.3827  0.8551
   84MOL0     C11247  13.192  10.838   0.685  0.4286 -0.1103  0.8825
   84MOL0     C11248  13.305  10.935   0.703  0.2336 -0.6618 -0.7064
   84MOL0    Cl11249  13.292  11.010   0.867  0.4509 -0.2011  0.2468
   84MOL0     C11250  12.256  10.982   0.337  0.2479  0.1227 -0.3239
   84MOL0     C11251  12.144  10.909   0.375  0.5191  0.3633 -0.3792
   84MOL0     O11252  11.875  11.010   0.585 -0.3008 -0.8132 -0.0717
   84MOL0     C11253  11.661  10.861   0.692  0.1724  0.7135 -0.9309
   84MOL0     C11254  11.551  10.776   0.726  0.2582  0.2491  0.5193
   84MOL0     N11255  11.259  10.091   1.060  0.6477 -0.4203 -0.0368
   84MOL0     N11256  11.201   9.994   1.115 -0.3297 -0.1838 -0.0608
   84MOL0     C11257  10.087   9.482   1.249 -0.1863 -0.5756 -0.0982
   84MOL0     C11258   9.954   9.444   1.264 -0.7408  0.6127 -0.8519
   84MOL0     C11259   9.505   9.455   1.167 -0.0593  0.6951  0.5035
   84MOL0     C11260   9.454   9.385   1.054  0.1567  0.6317 -0.3788
   84MOL0     C11261   9.322   9.349   1.035 -0.0130 -0.1250 -0.3719
   84MOL0     C11262   9.229   9.406   1.127 -0.7201 -0.7271 -0.2954
   84MOL0     O11263   9.095   9.381   1.096  0.3510  0.3705  0.4533
   84MOL0     C11264   8.992   9.468   1.146  0.8993 -0.4339  0.0520
   84MOL0     C11265   8.864   9.423   1.082 -0.3478 -0.2300  0.1246
   84MOL0     C11266   8.748   9.516   1.115  0.6834 -0.0404 -0.1816
   84MOL0     C11267   8.646   9.536   1.002  0.2624  0.3158 -0.3701
   84MOL0     C11268   8.579   9.412   0.962 -0.2846 -0.0110 -0.7080
   84MOL0     C11269   8.514   9.309   0.944 -0.9125  0.0381  0.6020
   84MOL0     C11270   9.278   9.486   1.230 -0.0347 -0.0840 -0.0407
   84MOL0     C11271   9.413   9.517   1.247 -0.2582 -0.3666  0.1459
   84MOL0     C11272   9.457   9.612   1.343 -0.3705  0.3777  0.1529
   84MOL0     H11273   9.816   9.753   1.326  1.5383  1.8936  0.1529
   84MOL0     H11274  10.040   9.816   1.290 -1.4947  1.1240 -2.2398
   84MOL0     H11275  10.244   9.851   1.269 -2.0133  0.1836 -1.0483
   84MOL0     H11276  10.282   9.758   1.413 -2.6160 -0.2150 -1.2390
   84MOL0     H11277  10.503   9.691   1.333  2.0092  0.9385 -0.6876
   84MOL0     H11278  10.474   9.867   1.352  1.5647  0.3588 -1.4165
   84MOL0     H11279  10.404   9.841   1.094 -1.2855  0.4073  2.9420
   84MOL0     H11280  10.488   9.687   1.103  1.5732  0.0910 -1.7347
   84MOL0     H11281  10.632   9.870   1.011  1.7615  1.8581  0.4480
   84MOL0     H11282  10.617   9.965   1.165 -4.1063  0.3580  0.5074
   84MOL0     H11283  10.752   9.823   1.286 -1.2236  2.4892 -0.5825
   84MOL0     H11284  10.720   9.687   1.162 -1.8724 -0.0713  0.3291
   84MOL0     H11285  10.836   9.839   1.002  1.6418 -0.5496 -1.1013
   84MOL0     H11286  10.871   9.957   1.124 -0.9571 -0.2332 -0.7210
   84MOL0     H11287  10.955   9.678   1.165 -1.2121  0.0851 -1.7748
   84MOL0     H11288  11.024   9.819   1.249 -1.1456 -1.4992  2.1345
   84MOL0     H11289  11.161   9.714   1.045  0.0531 -0.3104 -3.0566
   84MOL0     H11290  11.034   9.757   0.941 -2.2968  0.3423  0.7198
   84MOL0     H11291  11.119   9.962   0.796 -1.2711  1.2011 -0.2108
   84MOL0     H11292  11.413  10.178   0.878 -1.4818  0.9185  3.4263
   84MOL0     H11293  11.311  10.130   0.733 -0.2616 -2.4733  1.0495
   84MOL0     H11294  11.140  10.276   0.796  0.6577 -1.1385 -0.2085
   84MOL0     H11295  11.255  10.367   0.899  2.1287 -1.5399  1.5447
   84MOL0     H11296  11.222  10.454   0.654  0.6265 -0.0037 -1.8398
   84MOL0     H11297  11.288  10.307   0.594  1.2858 -1.2052 -0.1401
   84MOL0     H11298  11.471  10.415   0.572 -0.5271  0.7136 -1.5952
   84MOL0     H11299  11.505  10.380   0.736 -0.8475 -0.1731  0.6841
   84MOL0     H11300  11.675  10.484   0.615 -3.3552  0.1107  0.7887
   84MOL0     H11301  11.852  10.629   0.536  0.3989 -1.0011 -1.1451
   84MOL0     H11302  12.171  10.922   0.708 -1.2561  1.2528  0.0536
   84MOL0     H11303  12.351  11.073   0.644 -2.1498  1.7544 -0.0517
   84MOL0     H11304  12.521  10.890   0.369  0.5566 -0.3720 -1.9649
   84MOL0     H11305  12.628  11.018   0.328  0.1168  2.2244  0.6118
   84MOL0     H11306  12.647  11.062   0.590  1.3304 -1.2593  2.6336
   84MOL0     H11307  12.533  10.925   0.604 -0.9668  1.3185 -0.7322
   84MOL0     H11308  12.697  10.779   0.498  0.5184  1.1916 -0.9809
   84MOL0     H11309  12.807  10.915   0.475  0.2564 -0.9813 -1.0161
   84MOL0     H11310  12.724  10.796   0.740 -0.7031  1.0188 -0.7400
   84MOL0     H11311  12.796  10.955   0.729  1.3904 -0.7502  1.3595
   84MOL0     H11312  12.948  10.713   0.635 -1.4220 -0.9096  0.1245
   84MOL0     H11313  12.960  10.777   0.801  1.9612 -1.7692 -0.9477
   84MOL0     H11314  13.041  10.934   0.557 -3.1950 -2.4885  0.3121
   84MOL0     H11315  13.039  10.987   0.728  0.4776  0.3436 -0.0960
   84MOL0     H11316  13.232  10.782   0.599  0.0991  0.4771  0.3343
   84MOL0     H11317  13.179  10.775   0.773 -0.4831  0.1806  0.9745
   84MOL0     H11318  13.394  10.873   0.705 -0.6013 -1.9847  2.6257
   84MOL0     H11319  13.317  11.006   0.621  2.7650  1.2059  1.1290
   84MOL0     H11320  12.284  11.000   0.233  2.0056  1.2507  0.2931
   84MOL0     H11321  12.070  10.870   0.305  0.2894  4.1921 -2.4931
   84MOL0     H11322  11.661  10.965   0.723 -0.1451 -0.0413  1.8132
   84MOL0     H11323  11.461  10.818   0.768 -1.3772 -0.4338 -2.0379
   84MOL0     H11324  10.162   9.410   1.220 -0.9442 -0.7593 -1.7334
   84MOL0     H11325   9.918   9.343   1.245 -2.1719  0.5858  1.6211
   84MOL0     H11326   9.522   9.350   0.976 -0.5089  0.8853 -1.0849
   84MOL0     H11327   9.286   9.281   0.958 -1.5132 -0.7651  0.8426
   84MOL0     H11328   9.002   9.575   1.124 -1.2923  0.1044  1.3237
   84MOL0     H11329   9.001   9.460   1.255 -0.0900 -1.7115  0.0536
   84MOL0     H11330   8.840   9.323   1.119  0.5703 -1.6392 -2.7569
   84MOL0     H11331   8.880   9.416   0.974  1.0758  3.9247 -0.0861
   84MOL0     H11332   8.782   9.615   1.146 -0.4705 -0.9229  4.7620
   84MOL0     H11333   8.692   9.478   1.202 -0.0962  0.0335 -0.6441
   84MOL0     H11334   8.565   9.603   1.029  0.3346 -0.2907  1.5131
   84MOL0     H11335   8.694   9.584   0.916 -0.4765  0.8993 -0.4619
   84MOL0     H11336   8.447   9.226   0.933  1.4113 -1.7036 -1.8001
   84MOL0     H11337   9.202   9.529   1.294 -1.6397 -1.6449 -0.8144
   84MOL0     H11338   9.490   9.560   1.434  0.1570  1.6233  0.7028
   84MOL0     H11339   9.531   9.679   1.298 -1.7788  1.0091 -1.3437
   84MOL0     H11340   9.377   9.678   1.378  0.4237  1.2347  0.4023
   85MOL0     O11341   1.349   2.852   9.291  0.1174 -0.0820 -0.4078
   85MOL0     C11342   1.286   2.884   9.193 -0.5907  0.0507  0.1407
   85MOL0     O11343   1.322   2.983   9.110  0.2773  0.5068 -0.5376
   85MOL0     C11344   1.448   3.037   9.138  0.9564  0.0811 -0.4735
   85MOL0     C11345   1.451   3.170   9.188 -0.2439  0.3136  0.8050
   85MOL0     C11346   1.574   3.237   9.211  0.3890 -0.7310  0.5243
   85MOL0     C11347   1.695   3.174   9.179 -0.0922  0.7121  0.5033
   85MOL0     O11348   1.814   3.242   9.215  0.8093  0.3345 -0.5097
   85MOL0     C11349   1.934   3.201   9.145  0.3813 -0.0731  0.1698
   85MOL0     C11350   2.048   3.285   9.180  0.4318  0.0336  0.3337
   85MOL0     C11351   2.172   3.249   9.085  0.9607 -0.1349 -0.3841
   85MOL0     C11352   2.307   3.277   9.165 -0.1152 -0.2568  0.3294
   85MOL0     C11353   2.432   3.229   9.087  0.9541  0.0615  0.0098
   85MOL0     C11354   2.560   3.239   9.168 -0.2492  0.4105 -0.2542
   85MOL0     C11355   2.681   3.197   9.077  0.6525  0.9890  0.1457
   85MOL0     C11356   2.816   3.203   9.148 -0.4447 -0.0925  0.4650
   85MOL0     N11357   2.928   3.155   9.066  0.0069 -0.1434  0.1123
   85MOL0     C11358   2.944   3.169   8.928 -0.9111 -0.0826  1.3594
   85MOL0     C11359   3.061   3.116   8.892 -0.0175 -0.0878 -0.0022
   85MOL0     C11360   3.108   3.087   8.757 -0.2428 -0.4869  0.1318
   85MOL0     C11361   3.221   3.177   8.716  0.1756 -0.4718 -0.3125
   85MOL0     C11362   3.272   3.139   8.579 -0.3376  0.4887 -0.4284
   85MOL0     C11363   3.427   3.176   8.565 -0.6833 -0.2471 -0.0447
   85MOL0     O11364   3.465   3.132   8.435 -0.2051 -0.1006 -0.1926
   85MOL0     C11365   3.580   3.183   8.384  0.2059 -0.3055 -0.8883
   85MOL0     C11366   3.683   3.099   8.340 -0.2999 -0.8476 -0.0474
   85MOL0     C11367   3.799   3.149   8.277 -0.0404  0.5367  0.3447
   85MOL0     C11368   3.810   3.293   8.247 -0.0018 -0.1975  0.6290
   85MOL0     C11369   3.939   3.353   8.199  0.5517 -0.5097 -0.3704
   85MOL0     O11370   4.046   3.275   8.170 -0.7976 -0.8739  0.5047
   85MOL0     C11371   4.171   3.319   8.120  0.2026 -0.4684 -0.2429
   85MOL0     C11372   4.210   3.450   8.103 -0.2963 -0.4657  0.1048
   85MOL0     C11373   4.345   3.482   8.067  1.0661  0.1093  0.2526
   85MOL0     C11374   4.438   3.386   8.042 -0.0597 -0.2852 -0.2633
   85MOL0     O11375   4.554   3.427   7.996 -0.4507  0.4805 -0.1706
   85MOL0     C11376   4.641   3.337   7.930 -0.6192  0.0429 -0.1373
   85MOL0     C11377   4.786   3.394   7.917  0.3103 -0.3813  0.0891
   85MOL0     C11378   4.851   3.429   8.054  0.4410  0.2357  0.5033
   85MOL0     C11379   4.996   3.478   8.030  0.1491  0.3756  0.1668
   85MOL0     C11380   5.078   3.475   8.157 -0.5673 -0.6921  0.7161
   85MOL0     C11381   5.222   3.521   8.116  0.1525 -0.0503 -1.3308
   85MOL0     C11382   5.286   3.432   8.012  0.3432  0.9396  0.3445
   85MOL0     C11383   5.442   3.440   8.039  0.1719 -0.3626 -0.3972
   85MOL0    Cl11384   5.490   3.616   8.014 -0.5544  0.0365  0.0302
   85MOL0     C11385   4.395   3.253   8.067 -0.6945 -0.0785  0.7699
   85MOL0     C11386   4.266   3.221   8.097 -0.3376  0.7658  0.2354
   85MOL0     O11387   3.930   3.479   8.194 -0.5693 -0.1619 -0.3305
   85MOL0     C11388   3.702   3.375   8.294  0.2793  0.1414 -0.1446
   85MOL0     C11389   3.604   3.320   8.377  0.4939  0.0473  0.1488
   85MOL0     N11390   3.117   3.062   9.003  0.9405  0.1942 -0.1692
   85MOL0     N11391   3.046   3.096   9.104 -0.1271 -0.0227 -0.6483
   85MOL0     C11392   1.693   3.049   9.123  0.5294  0.0067  0.0741
   85MOL0     C11393   1.571   2.982   9.093  0.2973  0.7209  1.0120
   85MOL0     C11394   1.162   2.800   9.166  0.7380 -0.1786  0.1427
   85MOL0     C11395   1.143   2.679   9.230  0.3202  0.0160  0.0219
   85MOL0     C11396   1.037   2.592   9.193 -0.9101 -0.0052 -0.2275
   85MOL0     C11397   0.959   2.617   9.078 -0.1692 -0.4992  0.0178
   85MOL0     O11398   0.851   2.550   9.034  0.8046  0.2290 -0.0833
   85MOL0     C11399   0.826   2.414   9.077  0.3042 -0.4925 -0.1771
   85MOL0     C11400   0.843   2.309   8.958 -0.1960 -0.5670 -1.2241
   85MOL0     C11401   0.737   2.316   8.847  0.4074  0.5721  0.4183
   85MOL0     C11402   0.645   2.198   8.831 -0.6520 -0.3931 -0.0359
   85MOL0     C11403   0.731   2.082   8.806 -0.8902  0.0261  0.3555
   85MOL0     C11404   0.793   1.987   8.760  0.0905 -0.3246 -0.8046
   85MOL0     C11405   0.967   2.739   9.016 -0.2158  0.1893  0.1856
   85MOL0     C11406   1.066   2.833   9.062  0.6271  0.9877 -0.4084
   85MOL0     C11407   1.060   2.968   8.998  0.9065 -0.0364  0.1860
   85MOL0     H11408   1.353   3.217   9.197 -2.2007 -3.2257 -0.3658
   85MOL0     H11409   1.558   3.341   9.235 -0.4893 -1.0188  1.2512
   85MOL0     H11410   1.957   3.096   9.168 -2.0646 -0.5886  0.5955
   85MOL0     H11411   1.911   3.223   9.040  1.1531 -1.9514 -0.4407
   85MOL0     H11412   2.070   3.274   9.287  1.0224 -1.0879  0.1148
   85MOL0     H11413   2.016   3.389   9.171  0.5728  0.0443 -0.0595
   85MOL0     H11414   2.173   3.318   9.001  0.9878  3.8980  2.5929
   85MOL0     H11415   2.181   3.147   9.049  0.4080 -0.3595  0.0984
   85MOL0     H11416   2.317   3.385   9.172 -0.9553 -0.0145 -1.4564
   85MOL0     H11417   2.298   3.237   9.266  2.9609  2.6300  1.9009
   85MOL0     H11418   2.420   3.130   9.042  0.0136 -0.1860  0.7726
   85MOL0     H11419   2.444   3.301   9.005  0.3700  1.8219  1.3917
   85MOL0     H11420   2.564   3.341   9.208  2.4464  0.6269 -0.8423
   85MOL0     H11421   2.559   3.177   9.257 -1.6866 -2.1223 -1.8981
   85MOL0     H11422   2.701   3.270   8.998  1.2621  2.0725  1.2567
   85MOL0     H11423   2.655   3.096   9.044  1.0841  0.8486  0.2349
   85MOL0     H11424   2.838   3.305   9.179  0.6744  0.4038 -1.7634
   85MOL0     H11425   2.810   3.136   9.234 -1.9281  1.0078  1.2612
   85MOL0     H11426   2.871   3.207   8.857 -2.1085 -1.3728  1.8511
   85MOL0     H11427   3.122   2.980   8.740  0.1211  0.0194 -3.4639
   85MOL0     H11428   3.033   3.103   8.679  0.7843  0.4742 -0.6716
   85MOL0     H11429   3.196   3.283   8.721  1.8144 -0.0874  0.5621
   85MOL0     H11430   3.300   3.144   8.785 -1.0382 -2.1709  0.3292
   85MOL0     H11431   3.214   3.205   8.513  2.4300  1.6796 -1.8592
   85MOL0     H11432   3.263   3.032   8.561  0.2191  0.6106 -1.5030
   85MOL0     H11433   3.486   3.132   8.646 -0.0393 -0.4490 -0.6210
   85MOL0     H11434   3.428   3.285   8.569 -3.6557 -0.1665  1.2911
   85MOL0     H11435   3.679   2.991   8.353 -0.0525 -0.9005 -0.3820
   85MOL0     H11436   3.876   3.082   8.240 -1.0183 -0.8883  0.7702
   85MOL0     H11437   4.144   3.534   8.121 -1.7091 -1.4802 -0.1218
   85MOL0     H11438   4.372   3.586   8.054  2.9390 -0.5515 -1.6250
   85MOL0     H11439   4.648   3.247   7.991 -1.4364  1.0426  1.5088
   85MOL0     H11440   4.599   3.303   7.835 -0.6253 -3.4013  0.9620
   85MOL0     H11441   4.840   3.324   7.852  2.0681  0.9136  0.0937
   85MOL0     H11442   4.779   3.489   7.863  0.9846 -0.1528  0.3953
   85MOL0     H11443   4.789   3.505   8.103 -0.3293  0.1973 -0.3830
   85MOL0     H11444   4.845   3.337   8.114 -0.2798  0.2473  0.4602
   85MOL0     H11445   5.003   3.581   7.995  1.1873  0.1762 -0.2475
   85MOL0     H11446   5.043   3.409   7.959  1.7733  1.8601 -0.2699
   85MOL0     H11447   5.076   3.373   8.198 -0.2824 -0.9306  0.1579
   85MOL0     H11448   5.040   3.554   8.221  2.0340  3.2212 -2.1323
   85MOL0     H11449   5.219   3.623   8.077 -2.6093  0.3205 -0.3713
   85MOL0     H11450   5.269   3.526   8.214 -0.9261  1.2918 -0.8405
   85MOL0     H11451   5.259   3.458   7.910 -1.6365  0.4483  0.6958
   85MOL0     H11452   5.251   3.329   8.023  0.5109  1.0156  1.9264
   85MOL0     H11453   5.457   3.401   8.140 -1.0721  0.0898 -0.0161
   85MOL0     H11454   5.497   3.372   7.975 -2.0686 -2.4237 -0.2832
   85MOL0     H11455   4.467   3.171   8.065  0.7704  1.1636 -0.9764
   85MOL0     H11456   4.217   3.124   8.092 -0.0898  0.6777 -0.6336
   85MOL0     H11457   3.697   3.481   8.273 -0.8536  0.0431 -0.4456
   85MOL0     H11458   3.537   3.397   8.413 -0.2274 -0.2296 -0.5560
   85MOL0     H11459   1.788   3.007   9.093  1.2301  1.0048  0.8305
   85MOL0     H11460   1.578   2.882   9.051 -2.1661  0.9423 -0.1056
   85MOL0     H11461   1.208   2.652   9.313 -0.5790 -2.1149  0.1078
   85MOL0     H11462   1.023   2.509   9.262  0.4412 -0.0220  0.0494
   85MOL0     H11463   0.729   2.404   9.127  0.4340 -1.2680 -0.0734
   85MOL0     H11464   0.898   2.381   9.151  2.0118 -1.4549 -2.1754
   85MOL0     H11465   0.847   2.210   9.005 -2.2149  0.2234  0.8335
   85MOL0     H11466   0.940   2.331   8.914  0.3397  1.3241  0.7067
   85MOL0     H11467   0.776   2.332   8.746  0.3392 -4.4426 -0.6651
   85MOL0     H11468   0.668   2.400   8.858 -1.0191 -0.1338 -2.3867
   85MOL0     H11469   0.592   2.169   8.922 -0.1759 -0.5758  0.1852
   85MOL0     H11470   0.576   2.214   8.748 -3.1179 -2.0702  1.5663
   85MOL0     H11471   0.824   1.899   8.706 -0.0022  0.0934 -1.5533
   85MOL0     H11472   0.893   2.752   8.938 -1.5090  1.4118  1.5507
   85MOL0     H11473   1.096   3.038   9.074  0.7628  1.6272 -1.2117
   85MOL0     H11474   1.125   2.971   8.910 -1.8206  0.5203 -1.9358
   85MOL0     H11475   0.959   2.994   8.967 -0.4917 -1.4159  3.2236
   86MOL0     O11476   5.340   4.177   9.820  0.6294  0.2044 -0.6384
   86MOL0     C11477   5.287   4.276   9.769 -0.2386  0.3222 -0.1260
   86MOL0     O11478   5.342   4.402   9.783  0.0601  0.8811 -0.3346
   86MOL0     C11479   5.470   4.431   9.822 -0.7551 -0.3035 -0.2998
   86MOL0     C11480   5.495   4.553   9.876 -0.1407 -0.3600  0.1458
   86MOL0     C11481   5.617   4.595   9.930 -0.3523 -0.2329  0.6936
   86MOL0     C11482   5.714   4.498   9.943 -0.0750 -0.3471 -0.1485
   86MOL0     O11483   5.832   4.525  10.003 -1.2610  0.0878 -0.0488
   86MOL0     C11484   5.882   4.656   9.999 -0.1042 -0.1523  0.1921
   86MOL0     C11485   6.039   4.667   9.995  0.2479  1.1434  0.4241
   86MOL0     C11486   6.111   4.586  10.107 -0.3869 -0.1217 -0.8513
   86MOL0     C11487   6.098   4.652  10.247 -0.7550  0.0295 -0.3291
   86MOL0     C11488   6.168   4.567  10.352 -0.5602  0.2930  0.6607
   86MOL0     C11489   6.133   4.623  10.500  1.2091  0.2990  0.7316
   86MOL0     C11490   6.111   4.499  10.593  0.6619 -0.6370  0.7206
   86MOL0     C11491   6.074   4.544  10.735 -0.0367 -1.2565  0.1688
   86MOL0     N11492   5.953   4.627  10.749 -0.0398  0.1133 -0.4064
   86MOL0     C11493   5.832   4.608  10.684 -1.4802 -0.0380  0.1362
   86MOL0     C11494   5.747   4.692  10.751  0.5599  0.2957 -1.4713
   86MOL0     C11495   5.603   4.712  10.720 -0.1345 -0.0828  0.0188
   86MOL0     C11496   5.515   4.606  10.781  0.4518 -0.5284 -0.0833
   86MOL0     C11497   5.367   4.595  10.713  0.5005 -0.0701  0.7713
   86MOL0     C11498   5.281   4.506  10.798  0.2465  0.5154  0.6313
   86MOL0     O11499   5.173   4.463  10.708  0.5432 -0.3836  0.6895
   86MOL0     C11500   5.082   4.395  10.772  0.1648  0.0562 -0.0539
   86MOL0     C11501   4.972   4.466  10.815  0.1716  0.3884 -0.0923
   86MOL0     C11502   4.867   4.399  10.884  0.0219 -0.6031 -0.4601
   86MOL0     C11503   4.878   4.258  10.903  0.3893  0.0869  0.5912
   86MOL0     C11504   4.769   4.193  10.969 -1.0876  0.4211 -0.2081
   86MOL0     O11505   4.654   4.256  11.004  0.5016 -0.4121 -0.4223
   86MOL0     C11506   4.555   4.184  11.067 -0.2979 -0.3442  0.7208
   86MOL0     C11507   4.567   4.149  11.201  0.5213 -0.5883 -0.6618
   86MOL0     C11508   4.450   4.091  11.254  0.3455  0.0827 -0.6264
   86MOL0     C11509   4.341   4.052  11.182  0.0767 -0.6642  0.1220
   86MOL0     O11510   4.240   3.977  11.239 -0.3223  0.0030  0.2278
   86MOL0     C11511   4.109   3.979  11.186  0.2102 -0.5078  0.1375
   86MOL0     C11512   4.039   3.902  11.303  0.7627 -0.5422  0.3112
   86MOL0     C11513   3.896   3.900  11.272  0.7816  0.0762 -0.1419
   86MOL0     C11514   3.802   3.835  11.371 -0.3305  1.0753 -0.2757
   86MOL0     C11515   3.657   3.803  11.329 -0.1828  0.0038 -0.6321
   86MOL0     C11516   3.580   3.734  11.443 -0.2905  0.1717  0.9355
   86MOL0     C11517   3.442   3.710  11.398  0.1624  0.2670  0.3231
   86MOL0     C11518   3.390   3.565  11.431  0.9240  0.0917  0.2452
   86MOL0    Cl11519   3.214   3.561  11.440 -0.1424 -0.4063  0.3255
   86MOL0     C11520   4.333   4.084  11.046 -0.1377 -0.4618 -0.4025
   86MOL0     C11521   4.436   4.155  10.991 -0.7646 -0.4733 -0.2229
   86MOL0     O11522   4.784   4.078  10.978  0.2867 -0.8300 -0.1558
   86MOL0     C11523   4.996   4.189  10.854  0.1662 -0.4393 -1.2148
   86MOL0     C11524   5.100   4.261  10.790  0.4758  0.8556  0.3920
   86MOL0     N11525   5.813   4.753  10.852  0.3082 -0.1417  0.1113
   86MOL0     N11526   5.937   4.721  10.852  0.3236  0.0979 -0.1726
   86MOL0     C11527   5.695   4.365   9.897  0.2114 -0.8128  0.3395
   86MOL0     C11528   5.576   4.332   9.825 -0.4266  0.9263 -0.9896
   86MOL0     C11529   5.152   4.281   9.707 -0.3413  0.5475 -1.1166
   86MOL0     C11530   5.105   4.412   9.673  0.1761  0.3875  0.8863
   86MOL0     C11531   4.989   4.420   9.598  0.0996 -0.1376 -0.4230
   86MOL0     C11532   4.915   4.301   9.556 -0.0561 -0.2848 -0.0394
   86MOL0     O11533   4.802   4.301   9.485  0.7084  0.1784 -0.2261
   86MOL0     C11534   4.748   4.418   9.423 -0.0956  0.0872  0.3688
   86MOL0     C11535   4.830   4.441   9.296 -0.8749  0.8615 -0.1679
   86MOL0     C11536   4.783   4.342   9.190 -0.8406 -1.1091 -1.1782
   86MOL0     C11537   4.891   4.228   9.147  0.6321 -0.0807  0.0271
   86MOL0     C11538   4.862   4.192   9.008  0.2409 -0.1814  0.3809
   86MOL0     C11539   4.842   4.152   8.896  0.1062  0.1930 -0.2969
   86MOL0     C11540   4.952   4.174   9.599  0.2992  0.2442 -0.1506
   86MOL0     C11541   5.067   4.163   9.677 -0.4728  0.1762  0.0430
   86MOL0     C11542   5.103   4.022   9.741 -0.1017 -0.0325  0.2891
   86MOL0     H11543   5.411   4.621   9.880 -0.0995  0.0854 -3.4094
   86MOL0     H11544   5.624   4.694   9.974 -1.0502  2.2831 -4.2281
   86MOL0     H11545   5.844   4.710   9.912  1.0290 -2.7120 -2.0610
   86MOL0     H11546   5.847   4.706  10.089 -1.3523 -3.8191  1.9673
   86MOL0     H11547   6.061   4.773  10.014 -1.8362  1.6405  0.3602
   86MOL0     H11548   6.078   4.645   9.896  2.7402 -0.0328  1.5923
   86MOL0     H11549   6.216   4.572  10.083 -0.0736  1.3057 -0.3839
   86MOL0     H11550   6.068   4.485  10.105  1.6016 -1.0323 -0.3781
   86MOL0     H11551   6.129   4.756  10.240  0.0865 -0.0210  1.7235
   86MOL0     H11552   5.990   4.647  10.269 -0.8164  2.0109 -0.0419
   86MOL0     H11553   6.135   4.463  10.339 -0.1180  0.3252 -0.9116
   86MOL0     H11554   6.276   4.564  10.334 -0.7753 -2.5618 -0.7154
   86MOL0     H11555   6.210   4.692  10.536 -0.6897  1.8776  1.9483
   86MOL0     H11556   6.046   4.689  10.500  1.3564  0.5049  0.1549
   86MOL0     H11557   6.214   4.463  10.594  0.9866 -0.2057 -3.2043
   86MOL0     H11558   6.039   4.424  10.558  1.4045 -1.0904  0.1390
   86MOL0     H11559   6.059   4.457  10.799 -2.1478 -1.0499  0.0209
   86MOL0     H11560   6.157   4.603  10.776  1.2198 -1.0755 -2.4489
   86MOL0     H11561   5.816   4.545  10.596 -0.8063  0.4835 -0.3739
   86MOL0     H11562   5.580   4.817  10.742 -1.2119 -0.1860 -0.5410
   86MOL0     H11563   5.588   4.706  10.612 -0.6140  0.8751  0.0143
   86MOL0     H11564   5.564   4.511  10.755  2.4702  0.5702 -0.4987
   86MOL0     H11565   5.500   4.620  10.888  1.5514 -0.3400  0.0586
   86MOL0     H11566   5.387   4.551  10.615 -0.5819  2.0989 -0.4814
   86MOL0     H11567   5.325   4.693  10.690  0.2759  0.5482  3.4138
   86MOL0     H11568   5.261   4.549  10.896  2.6422 -1.5421  2.1308
   86MOL0     H11569   5.336   4.417  10.830  1.5774  1.2442  0.4536
   86MOL0     H11570   4.967   4.572  10.791  0.9148  0.5228  0.3335
   86MOL0     H11571   4.782   4.463  10.907  1.4731  0.9920  0.7100
   86MOL0     H11572   4.657   4.170  11.259  2.4782 -2.4614 -2.8207
   86MOL0     H11573   4.450   4.065  11.360  1.1161 -0.8789 -0.8552
   86MOL0     H11574   4.083   4.083  11.162  0.4352 -0.4182  0.2789
   86MOL0     H11575   4.103   3.927  11.090  0.4368 -0.2601 -0.0148
   86MOL0     H11576   4.064   3.796  11.309 -3.9814 -1.7600  2.2213
   86MOL0     H11577   4.057   3.955  11.397  2.7681  1.2536 -0.9634
   86MOL0     H11578   3.851   3.999  11.261 -0.2246 -0.4098 -0.5871
   86MOL0     H11579   3.877   3.846  11.179 -1.7055  0.0194  0.3056
   86MOL0     H11580   3.793   3.896  11.461  1.6976 -3.1363  3.1395
   86MOL0     H11581   3.853   3.751  11.419  1.1116  2.0748  0.0235
   86MOL0     H11582   3.646   3.733  11.245 -1.4264  1.8144 -2.0553
   86MOL0     H11583   3.611   3.897  11.296 -1.9711 -1.0002 -1.1675
   86MOL0     H11584   3.622   3.635  11.467 -2.2301  0.2042  5.2624
   86MOL0     H11585   3.580   3.779  11.542 -1.3167  0.5243  0.7814
   86MOL0     H11586   3.435   3.716  11.289 -3.4001 -1.3400  0.3470
   86MOL0     H11587   3.376   3.788  11.439  1.0276  1.4282 -0.4309
   86MOL0     H11588   3.426   3.493  11.357  0.2861  1.3331 -1.3368
   86MOL0     H11589   3.431   3.535  11.528 -0.4590  0.4421  0.9617
   86MOL0     H11590   4.243   4.056  10.991 -0.8898  2.2172 -0.6787
   86MOL0     H11591   4.427   4.191  10.889  1.7967  1.2671  0.0725
   86MOL0     H11592   5.010   4.082  10.858 -0.4229 -0.4888 -0.1171
   86MOL0     H11593   5.182   4.200  10.753 -0.4078  0.6954 -1.4008
   86MOL0     H11594   5.773   4.289   9.903  2.6262  1.4104 -0.7517
   86MOL0     H11595   5.568   4.231   9.785 -2.0176  1.3101 -1.7345
   86MOL0     H11596   5.150   4.509   9.693  1.6950 -0.4261  1.6278
   86MOL0     H11597   4.956   4.518   9.568  0.9034 -0.0886 -1.1812
   86MOL0     H11598   4.758   4.505   9.488  1.9030 -0.5303  0.9359
   86MOL0     H11599   4.645   4.394   9.392 -0.3107 -0.7369  1.6661
   86MOL0     H11600   4.938   4.428   9.314 -0.7093 -2.8130 -2.8610
   86MOL0     H11601   4.807   4.538   9.250  0.7988  1.3886  0.0134
   86MOL0     H11602   4.773   4.405   9.101  3.2141  3.1879  0.9944
   86MOL0     H11603   4.693   4.287   9.221  0.2099 -1.9216  0.5992
   86MOL0     H11604   4.993   4.267   9.153  0.4383  0.2594  1.9163
   86MOL0     H11605   4.888   4.142   9.214  0.2379  1.3845  1.9961
   86MOL0     H11606   4.836   4.115   8.796 -0.0303  1.0248 -0.6080
   86MOL0     H11607   4.883   4.092   9.582 -0.4775  0.7630  0.3855
   86MOL0     H11608   5.210   4.000   9.747  0.5132  2.8916  5.1488
   86MOL0     H11609   5.067   4.022   9.844 -0.0896 -0.8245  0.3001
   86MOL0     H11610   5.044   3.948   9.686 -0.2721  1.3708 -1.5023
   87MOL0     O11611   1.590  10.116   6.838  0.3529 -0.1885  0.3234
   87MOL0     C11612   1.535  10.039   6.918  0.3279  0.1727  1.0011
   87MOL0     O11613   1.596   9.949   6.999 -0.1474 -0.3108 -0.2536
   87MOL0     C11614   1.731   9.967   7.024  0.8236  0.1872 -1.0872
   87MOL0     C11615   1.830   9.966   6.929 -0.4415 -0.2610  0.3889
   87MOL0     C11616   1.963   9.975   6.967  0.1632 -0.3405 -1.2041
   87MOL0     C11617   1.999   9.993   7.105 -0.5068 -0.2804  0.2052
   87MOL0     O11618   2.133  10.007   7.135 -0.5731  0.3350 -0.0094
   87MOL0     C11619   2.188   9.965   7.261 -0.0119  0.2787  0.2653
   87MOL0     C11620   2.334   9.987   7.268  1.0499  0.4929  0.2473
   87MOL0     C11621   2.406   9.922   7.387 -0.2574  0.5966 -0.4596
   87MOL0     C11622   2.551   9.963   7.389  0.1444  0.3006 -0.5836
   87MOL0     C11623   2.615   9.933   7.524 -0.0900  0.1848  0.0251
   87MOL0     C11624   2.761   9.968   7.527  0.1837  0.4464  0.7496
   87MOL0     C11625   2.832   9.925   7.658  0.4155 -0.5175 -0.4059
   87MOL0     C11626   2.872   9.784   7.657  0.4031  0.8328 -0.0589
   87MOL0     N11627   2.963   9.726   7.549 -0.9878  0.4492 -0.7777
   87MOL0     C11628   3.081   9.780   7.502  0.5962 -0.0212  1.2923
   87MOL0     C11629   3.126   9.688   7.418  0.4497 -0.6596 -0.9495
   87MOL0     C11630   3.267   9.678   7.362  0.0075  0.5511  0.2773
   87MOL0     C11631   3.357   9.792   7.422 -0.7913  0.4452 -0.0487
   87MOL0     C11632   3.492   9.817   7.356  0.7948 -0.3316  0.5456
   87MOL0     C11633   3.590   9.706   7.390  0.1931 -0.0041  0.2508
   87MOL0     O11634   3.584   9.677   7.527  0.1686 -0.2301 -0.5135
   87MOL0     C11635   3.657   9.759   7.607 -0.1469  0.2250 -0.2226
   87MOL0     C11636   3.593   9.786   7.734  0.9758  0.5289 -0.5699
   87MOL0     C11637   3.652   9.875   7.819  0.0335  0.0820 -0.2209
   87MOL0     C11638   3.785   9.922   7.796 -0.4357 -0.2761 -0.0695
   87MOL0     C11639   3.863  10.013   7.890 -0.1454  0.0296 -0.5424
   87MOL0     O11640   3.998  10.005   7.881  0.4098 -0.6563  0.3721
   87MOL0     C11641   4.076  10.043   7.989 -0.2488  1.1219  0.4694
   87MOL0     C11642   4.087  10.177   8.029 -0.3518 -0.3013 -0.8777
   87MOL0     C11643   4.165  10.210   8.134 -0.2785  0.2529  0.0979
   87MOL0     C11644   4.256  10.114   8.192 -0.6367  0.7574 -0.2162
   87MOL0     O11645   4.337  10.141   8.298  0.6499 -0.4704 -0.5470
   87MOL0     C11646   4.393  10.274   8.309 -0.3474 -0.4186 -0.2507
   87MOL0     C11647   4.522  10.285   8.395 -0.3858  0.0662 -0.7613
   87MOL0     C11648   4.640  10.229   8.313 -0.2458 -0.0488  0.3196
   87MOL0     C11649   4.752  10.181   8.405 -0.2819 -0.4078  0.5072
   87MOL0     C11650   4.816  10.289   8.493 -0.4820 -0.6137  0.0200
   87MOL0     C11651   4.931  10.239   8.584  0.1044  0.5135  0.7764
   87MOL0     C11652   5.040  10.352   8.601  0.0782  0.1515  0.7270
   87MOL0     C11653   5.159  10.299   8.674  0.4486  0.3424  0.1420
   87MOL0    Cl11654   5.114  10.256   8.834  0.0527  0.3310 -0.2423
   87MOL0     C11655   4.258   9.988   8.142 -0.3569  0.4925  0.2943
   87MOL0     C11656   4.162   9.955   8.044  0.1299  0.4585  0.0762
   87MOL0     O11657   3.796  10.086   7.968 -0.3720  0.1441 -0.3133
   87MOL0     C11658   3.849   9.879   7.678 -0.3386 -0.1772 -0.1818
   87MOL0     C11659   3.790   9.801   7.582  0.2164 -0.5898  0.8260
   87MOL0     N11660   3.034   9.581   7.409 -0.3042  0.4067 -0.0815
   87MOL0     N11661   2.934   9.606   7.492 -0.5952  0.4652 -0.5613
   87MOL0     C11662   1.896   9.983   7.203 -0.2681 -0.0910 -0.0962
   87MOL0     C11663   1.765   9.973   7.159 -0.6619  0.4264  0.4109
   87MOL0     C11664   1.384  10.023   6.896  0.1311  0.3527 -0.3629
   87MOL0     C11665   1.327  10.033   6.763  0.2329  0.2556  0.2052
   87MOL0     C11666   1.199  10.005   6.732  0.9760 -0.2735 -0.6380
   87MOL0     C11667   1.107   9.980   6.845  0.1066  0.2293  0.7573
   87MOL0     O11668   0.978   9.964   6.804  1.0326  0.2716  0.1209
   87MOL0     C11669   0.874   9.901   6.880  0.3652 -0.5130 -0.3398
   87MOL0     C11670   0.766  10.000   6.920 -0.5029 -0.2855 -0.3134
   87MOL0     C11671   0.674   9.955   7.036 -0.8299  0.4653  0.2924
   87MOL0     C11672   0.749   9.931   7.167 -0.1442 -0.2291 -0.4647
   87MOL0     C11673   0.664   9.900   7.275  0.1204  0.0335 -0.2316
   87MOL0     C11674   0.584   9.884   7.361 -0.4833  0.4873 -0.8961
   87MOL0     C11675   1.160   9.974   6.974 -0.1770  0.8134 -0.0536
   87MOL0     C11676   1.297   9.988   7.000  1.0610  0.0536  0.5650
   87MOL0     C11677   1.351   9.969   7.144  0.1035 -0.6584 -0.8122
   87MOL0     H11678   1.806   9.961   6.823  1.7554 -3.5304 -0.1078
   87MOL0     H11679   2.035   9.983   6.886 -0.1043 -1.0995 -1.5214
   87MOL0     H11680   2.134  10.011   7.344 -0.6983  0.1432 -0.0896
   87MOL0     H11681   2.175   9.857   7.277  1.0852 -0.1491 -1.3918
   87MOL0     H11682   2.352  10.095   7.259 -0.9412  0.9524  1.2605
   87MOL0     H11683   2.384   9.944   7.181 -1.2561 -1.9441  0.0169
   87MOL0     H11684   2.398   9.813   7.379  1.1089  0.0721  3.1952
   87MOL0     H11685   2.359   9.949   7.482 -0.1645 -1.6024  0.2782
   87MOL0     H11686   2.608   9.914   7.308  1.7321  1.7698 -0.4141
   87MOL0     H11687   2.552  10.071   7.369 -0.4111  0.3980 -0.0970
   87MOL0     H11688   2.562   9.984   7.605 -0.1221  0.8760 -0.4251
   87MOL0     H11689   2.592   9.828   7.545  1.1799  0.2352  1.9275
   87MOL0     H11690   2.805   9.930   7.435 -2.3402 -3.0713  0.8129
   87MOL0     H11691   2.754  10.077   7.535  0.5024  0.4260  1.3302
   87MOL0     H11692   2.771   9.941   7.747 -0.2345  3.0471 -1.3251
   87MOL0     H11693   2.918   9.992   7.660 -0.1247  0.2485 -1.4262
   87MOL0     H11694   2.916   9.760   7.754 -1.7759  0.1994  0.8288
   87MOL0     H11695   2.778   9.727   7.656  0.6069  0.4977 -0.0589
   87MOL0     H11696   3.124   9.876   7.528  0.6232  1.2579 -2.7534
   87MOL0     H11697   3.301   9.576   7.380 -4.6291 -1.0060  1.5142
   87MOL0     H11698   3.264   9.698   7.255 -2.0251  0.3820  0.2609
   87MOL0     H11699   3.301   9.885   7.430  0.1715  0.9643  0.8654
   87MOL0     H11700   3.375   9.769   7.528  2.1296  0.1786 -0.5220
   87MOL0     H11701   3.531   9.916   7.381  1.0111 -0.4364  0.6237
   87MOL0     H11702   3.482   9.817   7.247 -1.5778 -1.2048  0.6969
   87MOL0     H11703   3.685   9.725   7.340 -0.2722  0.9640 -0.2989
   87MOL0     H11704   3.553   9.614   7.343 -2.1788  1.8230 -1.7957
   87MOL0     H11705   3.498   9.745   7.769  1.2041  1.1299  0.8233
   87MOL0     H11706   3.600   9.901   7.911  1.8103  0.7461  0.6332
   87MOL0     H11707   4.021  10.251   7.985 -0.7113 -0.2225 -0.2282
   87MOL0     H11708   4.163  10.309   8.177  1.4240  1.1277 -1.6577
   87MOL0     H11709   4.413  10.313   8.209  0.7751  1.4892  0.6729
   87MOL0     H11710   4.312  10.331   8.356 -0.3504  0.7010 -1.5774
   87MOL0     H11711   4.528  10.391   8.420 -0.7776 -0.1153  0.1355
   87MOL0     H11712   4.502  10.235   8.490 -0.1198  2.5208  0.6583
   87MOL0     H11713   4.620  10.142   8.249 -0.4050 -0.3960  0.8353
   87MOL0     H11714   4.678  10.302   8.242  0.3857  0.8031  1.5025
   87MOL0     H11715   4.837  10.143   8.347 -0.5712  2.8549 -2.4067
   87MOL0     H11716   4.705  10.104   8.467 -0.6751 -1.1681 -0.6854
   87MOL0     H11717   4.750  10.328   8.571 -0.6214 -0.1236 -0.3318
   87MOL0     H11718   4.861  10.373   8.438  2.1642 -0.7896  1.7371
   87MOL0     H11719   4.898  10.206   8.683  0.6459 -1.2975  0.4063
   87MOL0     H11720   4.989  10.158   8.537 -1.7187 -0.0653 -0.5929
   87MOL0     H11721   5.000  10.441   8.650  1.2987  1.4639 -0.5806
   87MOL0     H11722   5.074  10.377   8.501 -0.2344 -1.8866  0.0584
   87MOL0     H11723   5.214  10.217   8.625  1.2574  0.3559  0.9887
   87MOL0     H11724   5.221  10.388   8.688  2.8197 -0.8402 -1.8796
   87MOL0     H11725   4.310   9.903   8.185  0.3949  0.8638  0.1496
   87MOL0     H11726   4.162   9.851   8.013  0.3569 -1.4445  5.4503
   87MOL0     H11727   3.951   9.915   7.663 -0.2595 -0.0727  0.5544
   87MOL0     H11728   3.846   9.790   7.490  3.3703  0.4099  2.4646
   87MOL0     H11729   1.923   9.991   7.308 -1.0104 -1.9661  0.2908
   87MOL0     H11730   1.693   9.968   7.239 -1.5106  0.3374 -0.3450
   87MOL0     H11731   1.401  10.040   6.684 -0.5125  1.5719 -0.3882
   87MOL0     H11732   1.158   9.994   6.632 -0.4578 -0.7061 -0.0360
   87MOL0     H11733   0.935   9.872   6.966  1.9982  3.2698 -0.0134
   87MOL0     H11734   0.837   9.810   6.831  1.5955 -1.4343  0.3855
   87MOL0     H11735   0.698  10.032   6.840 -1.6239  2.2616  1.5385
   87MOL0     H11736   0.814  10.092   6.954 -2.9328  1.1570 -0.5574
   87MOL0     H11737   0.637   9.860   6.996  1.4876  0.6956 -2.7908
   87MOL0     H11738   0.594  10.028   7.049 -3.4088 -1.1871 -4.1921
   87MOL0     H11739   0.814   9.847   7.140 -0.1636 -0.5881  0.5432
   87MOL0     H11740   0.806  10.020   7.196 -0.3234 -0.0689 -0.6041
   87MOL0     H11741   0.514   9.870   7.441 -0.6968 -1.2379 -1.3346
   87MOL0     H11742   1.100   9.970   7.064 -0.3233  1.3334 -0.1276
   87MOL0     H11743   1.402   9.874   7.157  1.5215  0.1035 -0.6337
   87MOL0     H11744   1.420  10.048   7.175 -1.6142  0.3599  0.5910
   87MOL0     H11745   1.270   9.969   7.218  1.9672 -2.3027  1.3966
   88MOL0     O11746   7.205   1.293   8.255  0.0209  0.7788  0.2570
   88MOL0     C11747   7.146   1.286   8.148  0.0785 -0.3512  0.1752
   88MOL0     O11748   7.209   1.270   8.024  0.1015 -0.4189 -0.3822
   88MOL0     C11749   7.349   1.294   8.038 -0.0341 -0.0881 -0.5602
   88MOL0     C11750   7.440   1.215   8.118 -0.3096 -0.1967  1.0690
   88MOL0     C11751   7.580   1.239   8.110  0.0902  0.5831  0.7715
   88MOL0     C11752   7.641   1.344   8.040 -0.1373  0.4122 -0.5932
   88MOL0     O11753   7.780   1.362   8.052 -0.5556  0.3583 -0.2789
   88MOL0     C11754   7.828   1.447   7.954  0.8013  0.0337 -0.5949
   88MOL0     C11755   7.972   1.417   7.930  0.6424 -0.6231 -0.7190
   88MOL0     C11756   8.047   1.434   8.068  0.0259  0.8047  0.7742
   88MOL0     C11757   8.204   1.440   8.046 -1.2405  0.2291 -0.1024
   88MOL0     C11758   8.268   1.483   8.178 -0.3943  0.5231 -0.5292
   88MOL0     C11759   8.404   1.547   8.175  0.5145 -0.5412  0.4120
   88MOL0     C11760   8.448   1.593   8.313  0.1849  0.1837 -0.6035
   88MOL0     C11761   8.542   1.710   8.309 -0.6489  0.2400 -1.0879
   88MOL0     N11762   8.649   1.689   8.411  0.1285 -0.4064  0.6030
   88MOL0     C11763   8.778   1.642   8.386 -0.9979 -0.1728  0.1786
   88MOL0     C11764   8.853   1.672   8.495 -0.7766 -0.7386  1.3833
   88MOL0     C11765   8.995   1.653   8.523 -0.2529 -0.4014  0.7287
   88MOL0     C11766   9.086   1.779   8.489  0.0555  1.7141  0.1543
   88MOL0     C11767   9.110   1.859   8.619  0.0826 -0.0250 -0.3378
   88MOL0     C11768   9.178   1.996   8.601  0.8782  0.7115  0.1727
   88MOL0     O11769   9.270   2.001   8.497 -0.4224  0.8445  0.1971
   88MOL0     C11770   9.397   1.953   8.513  0.4115 -0.3164  0.0859
   88MOL0     C11771   9.446   1.894   8.630 -0.3735  0.3896 -0.0665
   88MOL0     C11772   9.580   1.865   8.634 -0.6811  0.5633  0.9236
   88MOL0     C11773   9.674   1.892   8.528 -0.3793 -0.0147  0.1878
   88MOL0     C11774   9.816   1.880   8.545  1.2619 -1.2782 -0.4857
   88MOL0     O11775   9.887   1.953   8.460 -0.4978  0.1413 -0.3572
   88MOL0     C11776  10.017   1.991   8.482 -1.0272  1.8708 -0.1593
   88MOL0     C11777  10.116   1.910   8.530 -0.3751  0.2714 -0.1557
   88MOL0     C11778  10.255   1.948   8.531  0.4099 -1.3005 -0.3793
   88MOL0     C11779  10.287   2.073   8.489  0.1021  0.1050  0.1646
   88MOL0     O11780  10.414   2.112   8.476  0.0607  0.0860  0.0052
   88MOL0     C11781  10.487   2.087   8.591 -0.4224  0.3782 -0.2544
   88MOL0     C11782  10.593   2.202   8.598 -0.5007  0.8100  0.3838
   88MOL0     C11783  10.517   2.340   8.618 -0.2177 -0.0967  0.7237
   88MOL0     C11784  10.570   2.441   8.513  1.3596  0.0391  0.1227
   88MOL0     C11785  10.537   2.579   8.555 -0.4761 -0.7669  0.0401
   88MOL0     C11786  10.501   2.666   8.434 -0.0737  0.3319  0.4955
   88MOL0     C11787  10.473   2.811   8.461  0.1550  0.1468  0.1239
   88MOL0     C11788  10.586   2.880   8.541 -0.4853 -0.7906  0.3690
   88MOL0    Cl11789  10.535   3.039   8.609 -0.4973  0.0284 -0.0823
   88MOL0     C11790  10.185   2.164   8.449  0.2759  0.4671  0.1929
   88MOL0     C11791  10.054   2.118   8.448  0.3225  0.2584 -0.9554
   88MOL0     O11792   9.857   1.823   8.642  0.1560 -0.4052 -0.3859
   88MOL0     C11793   9.617   1.941   8.406 -0.1497  0.2357 -0.3336
   88MOL0     C11794   9.483   1.974   8.401 -0.5325 -0.8047 -0.6065
   88MOL0     N11795   8.770   1.735   8.582  0.3754  1.0404 -0.6001
   88MOL0     N11796   8.653   1.743   8.535  0.7690  0.0896  0.6440
   88MOL0     C11797   7.542   1.423   7.973  0.0738 -0.2938  0.0423
   88MOL0     C11798   7.405   1.397   7.960 -0.0101  0.6317  0.6030
   88MOL0     C11799   6.998   1.289   8.160  0.0981  0.5465 -0.8388
   88MOL0     C11800   6.933   1.384   8.239  0.6179 -0.1849  0.7083
   88MOL0     C11801   6.800   1.382   8.259  0.4647  0.6464  0.5321
   88MOL0     C11802   6.709   1.300   8.184 -0.6248  0.3927  1.0795
   88MOL0     O11803   6.576   1.301   8.189 -1.3283 -0.1530 -0.3882
   88MOL0     C11804   6.515   1.414   8.261  0.0959  0.1130 -0.4368
   88MOL0     C11805   6.359   1.405   8.235 -0.2672 -0.2699 -0.1200
   88MOL0     C11806   6.291   1.277   8.290  1.3293  0.1054  0.2950
   88MOL0     C11807   6.273   1.266   8.445  0.4209 -0.6162 -0.0232
   88MOL0     C11808   6.170   1.360   8.494 -0.6166  0.7672  0.8989
   88MOL0     C11809   6.095   1.449   8.517 -0.0156 -0.8425 -0.0831
   88MOL0     C11810   6.777   1.207   8.098  0.4676 -0.0010 -0.2727
   88MOL0     C11811   6.920   1.196   8.089  0.2762  0.0677  0.6353
   88MOL0     C11812   6.977   1.095   7.996  0.4727  0.1433 -0.0064
   88MOL0     H11813   7.398   1.138   8.182 -3.5745 -1.2982 -2.0355
   88MOL0     H11814   7.642   1.189   8.184  0.3440  0.8316  0.7293
   88MOL0     H11815   7.769   1.445   7.861 -0.2409  0.0231  0.0526
   88MOL0     H11816   7.819   1.549   7.992  0.5470  0.0151 -0.6050
   88MOL0     H11817   8.017   1.498   7.870  2.1424 -0.2576  0.8243
   88MOL0     H11818   7.974   1.324   7.873 -0.7482  0.2085 -2.1984
   88MOL0     H11819   8.016   1.362   8.143 -1.7378  1.7810  1.0413
   88MOL0     H11820   8.021   1.535   8.101  0.1807  0.1600  2.9862
   88MOL0     H11821   8.242   1.340   8.022  2.0976  1.6364 -1.2634
   88MOL0     H11822   8.237   1.508   7.967 -1.6196  1.9359  1.1409
   88MOL0     H11823   8.202   1.547   8.237 -2.1193 -1.3093 -0.3675
   88MOL0     H11824   8.266   1.390   8.235  1.9504 -1.3161 -3.2055
   88MOL0     H11825   8.480   1.479   8.135  2.4405  0.6988  1.7965
   88MOL0     H11826   8.400   1.634   8.110 -1.3492  1.2189  2.7095
   88MOL0     H11827   8.504   1.511   8.358 -0.2590 -1.1506 -2.3953
   88MOL0     H11828   8.358   1.618   8.370  2.1683 -0.7915  3.2854
   88MOL0     H11829   8.585   1.717   8.209  0.6555  0.5899 -0.5239
   88MOL0     H11830   8.488   1.803   8.327 -0.4962  0.3274 -1.0828
   88MOL0     H11831   8.816   1.604   8.292 -0.3352 -0.6375  0.6267
   88MOL0     H11832   9.016   1.623   8.626  1.9680  2.6077  1.3153
   88MOL0     H11833   9.021   1.561   8.471 -0.8074 -0.7891  1.1307
   88MOL0     H11834   9.182   1.742   8.453 -1.2899 -0.6489 -1.2456
   88MOL0     H11835   9.032   1.836   8.412  0.2413 -1.1915 -2.3140
   88MOL0     H11836   9.176   1.804   8.687 -0.0635  0.9410  0.6292
   88MOL0     H11837   9.015   1.874   8.670  0.8863  1.6168  0.7765
   88MOL0     H11838   9.215   2.031   8.698 -0.6889 -1.9904  1.8873
   88MOL0     H11839   9.098   2.066   8.578  2.2654  1.3774 -3.0607
   88MOL0     H11840   9.391   1.861   8.718  1.4714  0.8048  1.3152
   88MOL0     H11841   9.616   1.813   8.722  1.3740 -0.3871 -0.4108
   88MOL0     H11842  10.085   1.808   8.553 -2.2452  0.4118 -1.7989
   88MOL0     H11843  10.323   1.870   8.561  2.2095 -0.1412 -1.2514
   88MOL0     H11844  10.427   2.084   8.683  2.3193 -0.8158  1.6474
   88MOL0     H11845  10.537   1.990   8.590 -0.5620  0.3085 -0.5377
   88MOL0     H11846  10.678   2.191   8.666 -0.7757 -1.0227  0.4716
   88MOL0     H11847  10.641   2.204   8.499 -1.7572  0.8472 -0.2453
   88MOL0     H11848  10.411   2.313   8.610 -0.1069 -0.3757  0.1866
   88MOL0     H11849  10.550   2.365   8.720  3.3509 -2.8003  0.4471
   88MOL0     H11850  10.519   2.409   8.421 -0.4032  0.1856  1.0058
   88MOL0     H11851  10.678   2.427   8.500  1.1834  0.3173 -1.9512
   88MOL0     H11852  10.627   2.613   8.607 -1.8977  0.8635  1.5759
   88MOL0     H11853  10.451   2.582   8.622  0.8482 -0.3780  1.7939
   88MOL0     H11854  10.582   2.665   8.360  0.1091 -1.2903  0.6788
   88MOL0     H11855  10.419   2.615   8.383  0.1469 -0.2836  0.7531
   88MOL0     H11856  10.381   2.831   8.517  0.9741 -0.0485  1.5811
   88MOL0     H11857  10.468   2.871   8.370  0.2454 -0.9985 -0.6545
   88MOL0     H11858  10.599   2.813   8.626 -3.3643 -0.6978  0.9923
   88MOL0     H11859  10.672   2.881   8.474  0.1018 -1.8952  1.0796
   88MOL0     H11860  10.219   2.258   8.407  4.0211 -0.4619  0.7878
   88MOL0     H11861   9.983   2.192   8.412 -0.5859 -1.2382 -2.3819
   88MOL0     H11862   9.690   1.969   8.331  1.4688  0.0673  1.0821
   88MOL0     H11863   9.450   2.034   8.317  1.1636  0.8340 -0.1721
   88MOL0     H11864   7.586   1.506   7.920  1.8435  0.8181  2.9891
   88MOL0     H11865   7.346   1.438   7.878  0.7215  0.7646  0.1298
   88MOL0     H11866   6.990   1.461   8.289 -0.6176  0.3688  1.2972
   88MOL0     H11867   6.764   1.464   8.320 -1.5119  0.5437 -0.4076
   88MOL0     H11868   6.559   1.511   8.235 -0.3340  0.5604  0.4919
   88MOL0     H11869   6.531   1.401   8.368  4.3340  0.4847 -0.8525
   88MOL0     H11870   6.346   1.403   8.126  3.8396 -0.8168 -0.7587
   88MOL0     H11871   6.323   1.494   8.287  2.3314  1.9014 -1.7472
   88MOL0     H11872   6.343   1.185   8.262 -0.4619 -0.5020 -1.2320
   88MOL0     H11873   6.190   1.266   8.250  0.2682  3.0082  1.9038
   88MOL0     H11874   6.248   1.168   8.487  0.7783 -0.0735  1.5076
   88MOL0     H11875   6.372   1.292   8.486 -0.3903  1.4176  0.7713
   88MOL0     H11876   6.025   1.528   8.536  0.2991  0.2477 -2.9889
   88MOL0     H11877   6.708   1.152   8.034 -1.5785  2.8023 -0.6660
   88MOL0     H11878   7.016   1.138   7.904  3.1465 -1.5759  0.2308
   88MOL0     H11879   7.070   1.050   8.032  0.8804 -0.1589 -1.4079
   88MOL0     H11880   6.910   1.009   7.987 -1.1051  0.9803  2.4709
   89MOL0     O11881   1.075   4.972   1.293  0.8786 -0.1076  0.1299
   89MOL0     C11882   1.014   4.871   1.327  0.0032  0.5287  0.2333
   89MOL0     O11883   1.076   4.740   1.318 -0.5770 -0.0745 -0.2028
   89MOL0     C11884   1.199   4.737   1.265 -0.1590 -1.0920 -0.3050
   89MOL0     C11885   1.231   4.669   1.148 -0.6906  0.2833  0.5058
   89MOL0     C11886   1.355   4.660   1.083 -0.8226 -0.4622 -0.4026
   89MOL0     C11887   1.457   4.732   1.152 -0.1620 -0.3576  0.5192
   89MOL0     O11888   1.580   4.756   1.088  0.2234  0.5601 -0.0930
   89MOL0     C11889   1.587   4.770   0.946  0.1030 -0.4830  0.7078
   89MOL0     C11890   1.735   4.789   0.904  0.0309  0.7708 -0.2723
   89MOL0     C11891   1.816   4.668   0.963  0.5424  0.3781  0.2580
   89MOL0     C11892   1.959   4.671   0.903  0.3823 -1.1687 -0.5087
   89MOL0     C11893   2.040   4.573   0.981 -0.1713  0.0293  0.3001
   89MOL0     C11894   1.992   4.433   0.960 -0.4225 -0.4447  0.1543
   89MOL0     C11895   2.104   4.319   0.952  1.5372 -0.7348  0.9227
   89MOL0     C11896   2.188   4.313   1.079  0.0816  0.1033  0.0773
   89MOL0     N11897   2.324   4.260   1.058 -0.3590  0.1587  0.7137
   89MOL0     C11898   2.434   4.347   1.048  0.3881  0.6729 -0.7649
   89MOL0     C11899   2.540   4.260   1.046 -0.7689 -0.0525  0.0298
   89MOL0     C11900   2.688   4.294   1.066 -0.0628 -0.8004  0.2817
   89MOL0     C11901   2.749   4.260   1.196 -0.4173 -0.7598  0.2887
   89MOL0     C11902   2.908   4.264   1.196 -0.3810  0.5267 -0.8403
   89MOL0     C11903   2.958   4.222   1.335  0.4585 -0.8695  0.1079
   89MOL0     O11904   3.089   4.161   1.318  0.5624 -0.4396  0.2963
   89MOL0     C11905   3.190   4.244   1.287  0.1785 -0.1038  0.3711
   89MOL0     C11906   3.186   4.382   1.271 -1.0599 -0.4089  0.3771
   89MOL0     C11907   3.307   4.445   1.236 -1.3701 -0.7913 -0.5647
   89MOL0     C11908   3.420   4.376   1.200 -0.0794  0.2121 -0.5975
   89MOL0     C11909   3.538   4.440   1.140 -0.1121 -1.1832  0.8089
   89MOL0     O11910   3.653   4.372   1.157 -0.3132 -0.4854  0.0849
   89MOL0     C11911   3.765   4.419   1.095  0.0093  0.2784  0.1470
   89MOL0     C11912   3.770   4.436   0.958  0.7001 -0.2923 -0.0124
   89MOL0     C11913   3.883   4.478   0.887  0.4342  0.5283  0.2964
   89MOL0     C11914   3.997   4.511   0.958 -0.4153 -0.3243 -0.2813
   89MOL0     O11915   4.111   4.553   0.887  0.3014 -0.0022  0.0956
   89MOL0     C11916   4.092   4.666   0.794 -0.5264  0.0763  0.5571
   89MOL0     C11917   4.046   4.798   0.859  0.9843  0.5006 -0.6758
   89MOL0     C11918   4.030   4.922   0.767  0.8770  0.1197 -0.6023
   89MOL0     C11919   3.986   5.044   0.847 -0.3016 -0.3243 -0.8853
   89MOL0     C11920   3.985   5.176   0.767 -0.1864 -0.3411 -0.1591
   89MOL0     C11921   3.878   5.274   0.815  1.5358 -0.0132  0.0780
   89MOL0     C11922   3.891   5.306   0.960 -0.0762  0.4520 -0.1638
   89MOL0     C11923   3.855   5.448   1.004  0.1320 -0.6829 -0.3907
   89MOL0    Cl11924   3.686   5.483   0.966 -0.0879 -0.7793  0.3669
   89MOL0     C11925   4.003   4.483   1.099 -0.0702  0.9786 -0.4343
   89MOL0     C11926   3.879   4.442   1.166 -0.6694  0.1380 -0.2219
   89MOL0     O11927   3.536   4.563   1.113 -0.7077  0.6304 -0.9316
   89MOL0     C11928   3.420   4.234   1.212 -0.6991  0.4686  0.5316
   89MOL0     C11929   3.311   4.169   1.263  0.3494 -0.3133  0.5428
   89MOL0     N11930   2.488   4.131   1.049 -0.1406  0.4324 -0.1750
   89MOL0     N11931   2.363   4.132   1.067  0.3695 -0.1324 -0.0471
   89MOL0     C11932   1.440   4.812   1.262  0.3716 -0.8411 -0.1687
   89MOL0     C11933   1.310   4.813   1.318  0.4207  0.2939  0.7209
   89MOL0     C11934   0.874   4.886   1.371  0.4374  0.6779 -0.5438
   89MOL0     C11935   0.798   4.769   1.388 -0.2815 -0.2392 -0.3180
   89MOL0     C11936   0.666   4.772   1.421 -0.2610 -0.1015  0.0329
   89MOL0     C11937   0.593   4.888   1.437  0.3484 -1.7009 -0.4720
   89MOL0     O11938   0.462   4.877   1.467 -0.1064  0.0512  0.1695
   89MOL0     C11939   0.387   4.992   1.488 -1.2436  0.2066  0.1503
   89MOL0     C11940   0.250   4.959   1.555  0.3320  0.5168  0.2123
   89MOL0     C11941   0.249   4.867   1.675  0.0254  0.5158  0.5099
   89MOL0     C11942   0.109   4.855   1.732  0.3265  0.8826  0.3161
   89MOL0     C11943   0.096   4.746   1.828  0.0585  0.3582 -0.2677
   89MOL0     C11944   0.107   4.648   1.904  1.0285 -0.5394  0.3735
   89MOL0     C11945   0.663   5.010   1.421  0.1533  0.6772 -0.1426
   89MOL0     C11946   0.799   5.009   1.387  0.2607 -0.1997  0.6209
   89MOL0     C11947   0.855   5.146   1.346  0.1052 -0.2355 -0.0192
   89MOL0     H11948   1.148   4.609   1.111  1.2387 -0.4395 -3.1006
   89MOL0     H11949   1.373   4.609   0.989  4.0765  0.2948 -0.1282
   89MOL0     H11950   1.546   4.679   0.901 -0.7672  0.6857 -0.9954
   89MOL0     H11951   1.521   4.854   0.918 -0.0520 -0.5652  0.8252
   89MOL0     H11952   1.768   4.887   0.938 -1.0070  1.9924 -2.5408
   89MOL0     H11953   1.731   4.790   0.794 -1.4755 -1.1656 -0.2886
   89MOL0     H11954   1.763   4.578   0.930  2.3236 -0.6509  0.1150
   89MOL0     H11955   1.820   4.654   1.071  1.1846 -0.4602  0.1395
   89MOL0     H11956   1.974   4.640   0.800  3.8760 -2.3458  0.2197
   89MOL0     H11957   2.004   4.770   0.917 -0.5660 -0.5005 -1.9828
   89MOL0     H11958   2.145   4.581   0.952  0.4392  1.8941  2.6565
   89MOL0     H11959   2.047   4.606   1.085  0.4521 -1.5554  0.7894
   89MOL0     H11960   1.925   4.406   1.041  0.8720 -1.2844  0.9847
   89MOL0     H11961   1.937   4.443   0.866 -0.0274  1.3949  0.0835
   89MOL0     H11962   2.177   4.336   0.873 -1.3485 -2.2199 -2.2836
   89MOL0     H11963   2.047   4.227   0.934 -0.9152  0.4775  1.9902
   89MOL0     H11964   2.183   4.415   1.117 -1.5924  0.6141 -1.3789
   89MOL0     H11965   2.145   4.251   1.158  1.5120 -2.0861 -0.7563
   89MOL0     H11966   2.435   4.455   1.048 -0.5032  0.7527  1.8854
   89MOL0     H11967   2.737   4.241   0.984  0.8162  0.1576  0.1701
   89MOL0     H11968   2.701   4.401   1.046 -2.5973 -0.5746 -0.4424
   89MOL0     H11969   2.719   4.324   1.280  1.4164 -2.0249  2.0031
   89MOL0     H11970   2.720   4.157   1.216  0.0886 -1.1215 -0.7288
   89MOL0     H11971   2.934   4.369   1.179 -1.3586  1.1622  1.2184
   89MOL0     H11972   2.950   4.209   1.112 -0.3795  1.0014 -1.1525
   89MOL0     H11973   2.901   4.135   1.371 -0.8403 -1.6676 -3.4751
   89MOL0     H11974   2.973   4.311   1.397  3.0079  0.5196 -2.3035
   89MOL0     H11975   3.101   4.442   1.305 -0.1883  0.1474  1.6556
   89MOL0     H11976   3.300   4.553   1.233 -0.4266 -0.7267 -0.8184
   89MOL0     H11977   3.678   4.409   0.907  1.2670 -2.9971  0.2520
   89MOL0     H11978   3.873   4.490   0.779 -0.3707 -1.5901  0.0817
   89MOL0     H11979   4.188   4.671   0.742 -1.1767  0.5013 -0.6458
   89MOL0     H11980   4.021   4.639   0.715 -0.4584 -0.4985  0.6825
   89MOL0     H11981   3.947   4.776   0.899  1.8361  1.2639  2.0361
   89MOL0     H11982   4.112   4.820   0.943 -0.4644  2.5097 -0.0024
   89MOL0     H11983   4.122   4.942   0.712  1.5266 -4.9450 -1.8676
   89MOL0     H11984   3.957   4.891   0.691  0.6835 -1.0854  0.0453
   89MOL0     H11985   4.045   5.050   0.939 -0.7137  0.3064 -0.6528
   89MOL0     H11986   3.881   5.023   0.871 -0.0596 -1.4261 -0.7316
   89MOL0     H11987   3.954   5.151   0.665 -2.6254  1.3658  0.0885
   89MOL0     H11988   4.083   5.225   0.771 -0.4891  0.2021  2.1141
   89MOL0     H11989   3.886   5.367   0.759 -3.6821  1.5140  1.3436
   89MOL0     H11990   3.779   5.230   0.801  1.5577  0.1899 -0.7437
   89MOL0     H11991   3.992   5.281   0.993  1.0917  2.4369 -1.9551
   89MOL0     H11992   3.826   5.228   1.002 -0.4063  0.5279 -0.5248
   89MOL0     H11993   3.865   5.455   1.113  2.3366  1.7897 -0.6612
   89MOL0     H11994   3.931   5.510   0.956 -0.4522  0.7892  0.5316
   89MOL0     H11995   4.093   4.506   1.154  1.3976  0.4423 -2.4742
   89MOL0     H11996   3.876   4.438   1.274 -2.1206  1.6819 -0.1629
   89MOL0     H11997   3.515   4.186   1.190 -1.2660 -2.2369  3.2795
   89MOL0     H11998   3.307   4.064   1.292 -2.5357 -0.1689  1.0207
   89MOL0     H11999   1.524   4.873   1.294  1.0000 -1.6275 -0.2871
   89MOL0     H12000   1.303   4.873   1.408 -1.0275 -0.5125  1.1767
   89MOL0     H12001   0.842   4.670   1.382 -1.4232 -0.7521 -0.4309
   89MOL0     H12002   0.610   4.680   1.435  1.4354 -1.5873 -2.4067
   89MOL0     H12003   0.381   5.040   1.390  1.2961  0.3089 -0.0162
   89MOL0     H12004   0.435   5.059   1.561 -0.9502 -0.2488  0.3837
   89MOL0     H12005   0.177   4.907   1.491  0.9570 -0.7282  0.4740
   89MOL0     H12006   0.205   5.051   1.593 -0.4720 -0.9549  3.0659
   89MOL0     H12007   0.306   4.918   1.754  0.6120  1.8012 -0.7102
   89MOL0     H12008   0.287   4.767   1.650 -1.0016 -0.5423  2.8376
   89MOL0     H12009   0.075   4.950   1.774  1.0301  0.5879  1.6052
   89MOL0     H12010   0.041   4.828   1.650 -1.2649 -2.2095  2.4432
   89MOL0     H12011   0.145   4.562   1.956 -0.6419 -2.5134 -1.4313
   89MOL0     H12012   0.621   5.109   1.442  2.7173  1.8028  0.0557
   89MOL0     H12013   0.923   5.183   1.424 -0.8541  0.3065  0.5814
   89MOL0     H12014   0.902   5.143   1.247 -0.3968 -0.5268 -0.2511
   89MOL0     H12015   0.777   5.223   1.347  0.9768  0.6772  0.9790
   90MOL0     O12016   4.285   6.059   6.127 -0.1281  0.3972 -1.1748
   90MOL0     C12017   4.247   6.114   6.025  0.7034  0.3383  0.0789
   90MOL0     O12018   4.318   6.178   5.932 -0.8890  0.1703 -0.4776
   90MOL0     C12019   4.421   6.262   5.976  0.6320  0.8344  0.8195
   90MOL0     C12020   4.550   6.238   5.919  0.0810 -0.3208 -0.3529
   90MOL0     C12021   4.651   6.334   5.962 -0.0593 -0.8918  0.3897
   90MOL0     C12022   4.627   6.440   6.059 -0.7839  0.1986  0.0709
   90MOL0     O12023   4.729   6.506   6.115 -0.3293  0.2052 -0.3932
   90MOL0     C12024   4.866   6.466   6.108  0.1877  0.3504  1.1077
   90MOL0     C12025   4.957   6.560   6.188 -0.3165  0.4794  0.0161
   90MOL0     C12026   5.105   6.520   6.173 -0.1694 -0.1647 -0.6470
   90MOL0     C12027   5.195   6.620   6.238  0.1503  0.6802  0.3619
   90MOL0     C12028   5.339   6.583   6.238 -0.3723  0.8269  0.5258
   90MOL0     C12029   5.407   6.676   6.336  0.3293 -0.9468  0.1012
   90MOL0     C12030   5.558   6.673   6.308 -0.8051  0.8426  0.2492
   90MOL0     C12031   5.616   6.532   6.333  0.3786  0.6591 -0.2852
   90MOL0     N12032   5.760   6.520   6.331 -0.4549 -0.3968  0.1409
   90MOL0     C12033   5.833   6.511   6.440 -1.0905  0.4273 -0.7880
   90MOL0     C12034   5.959   6.510   6.387 -0.8821  0.6826 -0.5940
   90MOL0     C12035   6.090   6.487   6.455 -0.1993 -0.3956  0.4358
   90MOL0     C12036   6.185   6.609   6.434 -0.2897 -0.2607  0.4141
   90MOL0     C12037   6.268   6.607   6.297 -0.4737  0.1738 -0.3867
   90MOL0     C12038   6.323   6.471   6.263  0.0731 -0.1887 -0.0140
   90MOL0     O12039   6.405   6.417   6.364  0.1162 -0.4566 -0.7790
   90MOL0     C12040   6.536   6.458   6.369 -0.2710 -0.1530 -0.0185
   90MOL0     C12041   6.611   6.533   6.268  0.9999 -0.0735 -0.1026
   90MOL0     C12042   6.746   6.551   6.281 -0.2553  0.1550  0.0221
   90MOL0     C12043   6.817   6.523   6.399  0.5077 -0.5260 -0.2241
   90MOL0     C12044   6.956   6.554   6.430 -0.3402 -0.2801 -0.0347
   90MOL0     O12045   6.992   6.554   6.568  0.2281  0.0795 -0.1355
   90MOL0     C12046   7.121   6.593   6.603 -0.0222  0.2893  0.7867
   90MOL0     C12047   7.128   6.646   6.734  0.2808  0.8241 -0.1027
   90MOL0     C12048   7.245   6.702   6.777 -0.6245  0.5799 -0.5351
   90MOL0     C12049   7.357   6.706   6.703  0.1381  0.4527 -0.2177
   90MOL0     O12050   7.463   6.784   6.747 -0.0527  0.3353 -0.4131
   90MOL0     C12051   7.589   6.791   6.675  0.9900  0.5900 -0.8425
   90MOL0     C12052   7.678   6.873   6.768  0.1216  0.8618  0.6078
   90MOL0     C12053   7.815   6.869   6.712 -0.4183 -0.6078  0.1883
   90MOL0     C12054   7.903   6.745   6.743  0.0340 -0.1478 -1.1219
   90MOL0     C12055   8.033   6.735   6.666  0.6119 -0.0914  0.5038
   90MOL0     C12056   8.116   6.616   6.705  0.0089  0.5593 -0.0317
   90MOL0     C12057   8.254   6.633   6.659 -0.0728 -0.4300  0.8693
   90MOL0     C12058   8.315   6.511   6.592 -0.0328  0.2701 -0.2083
   90MOL0    Cl12059   8.287   6.513   6.415  0.1005  0.0322  0.4630
   90MOL0     C12060   7.361   6.627   6.591  0.6664 -0.0957 -0.4170
   90MOL0     C12061   7.242   6.573   6.542 -0.3858 -0.8427 -0.0384
   90MOL0     O12062   7.034   6.568   6.340 -0.3386  0.3191  0.0726
   90MOL0     C12063   6.745   6.461   6.505  0.7718 -0.5106  0.0152
   90MOL0     C12064   6.608   6.423   6.486 -0.0459 -0.4365  0.4069
   90MOL0     N12065   5.960   6.526   6.246  0.1933 -0.2715 -0.1175
   90MOL0     N12066   5.833   6.544   6.218  1.3385 -0.0838  0.4955
   90MOL0     C12067   4.498   6.451   6.116  0.8571 -0.3345  0.0477
   90MOL0     C12068   4.399   6.361   6.074  0.0072 -0.2080  0.3942
   90MOL0     C12069   4.106   6.090   5.980  0.7575  0.3944 -0.2290
   90MOL0     C12070   4.052   5.963   5.981 -0.3437 -0.2206  0.0100
   90MOL0     C12071   3.923   5.929   5.954 -0.1033 -0.7452  0.5954
   90MOL0     C12072   3.837   6.034   5.923 -0.3114 -0.1692 -0.5692
   90MOL0     O12073   3.708   6.019   5.888  0.4164  0.1862 -0.5057
   90MOL0     C12074   3.666   5.883   5.860  0.0565  0.5096  0.7156
   90MOL0     C12075   3.535   5.878   5.780 -0.6280 -0.2241  0.0041
   90MOL0     C12076   3.422   5.935   5.844 -0.9842 -0.0268  0.1643
   90MOL0     C12077   3.293   5.921   5.770 -0.5915 -0.3059 -0.0844
   90MOL0     C12078   3.239   5.785   5.766  0.5133 -0.1339 -0.9307
   90MOL0     C12079   3.180   5.680   5.777 -1.1596  0.2073 -0.2993
   90MOL0     C12080   3.877   6.165   5.925 -0.1536 -0.2930 -1.1272
   90MOL0     C12081   4.010   6.197   5.946 -0.0620 -0.6355 -0.0849
   90MOL0     C12082   4.042   6.344   5.931  0.0054 -0.0073  0.2483
   90MOL0     H12083   4.562   6.160   5.845 -0.5495  3.3708 -4.8144
   90MOL0     H12084   4.751   6.329   5.921  0.2002  0.5036  0.7895
   90MOL0     H12085   4.874   6.364   6.147 -0.7897 -0.0443  0.3264
   90MOL0     H12086   4.886   6.458   6.000  0.0835 -0.0794  1.1175
   90MOL0     H12087   4.944   6.564   6.296  1.5049  2.1379  0.2377
   90MOL0     H12088   4.950   6.665   6.158  3.4823  1.2025  1.0385
   90MOL0     H12089   5.135   6.518   6.068  1.9579 -0.6949 -0.0764
   90MOL0     H12090   5.125   6.421   6.214 -0.2684 -1.4521 -3.4510
   90MOL0     H12091   5.184   6.714   6.184 -4.9830  0.2384  0.2241
   90MOL0     H12092   5.157   6.632   6.339  2.2252 -0.5073  1.3704
   90MOL0     H12093   5.363   6.485   6.282  1.1330  0.6308 -0.6458
   90MOL0     H12094   5.373   6.580   6.134 -0.1301  0.0609  0.6199
   90MOL0     H12095   5.364   6.776   6.331  0.9468 -0.7146 -3.2372
   90MOL0     H12096   5.380   6.641   6.436  0.5923  3.2942  1.8436
   90MOL0     H12097   5.612   6.737   6.379 -1.0854  1.0748  0.2574
   90MOL0     H12098   5.585   6.718   6.212  0.8608  3.6481  1.8805
   90MOL0     H12099   5.581   6.508   6.434 -2.2714 -0.4045 -1.3708
   90MOL0     H12100   5.571   6.456   6.269 -2.5141  1.2594  0.9102
   90MOL0     H12101   5.807   6.498   6.545  0.9226 -0.4922 -0.3558
   90MOL0     H12102   6.085   6.460   6.561  0.9783 -0.4539  0.4969
   90MOL0     H12103   6.134   6.396   6.414  1.2955  1.0606 -1.3753
   90MOL0     H12104   6.125   6.701   6.439  1.2950  0.7713  1.3216
   90MOL0     H12105   6.261   6.606   6.512 -2.1169 -0.5088  2.2679
   90MOL0     H12106   6.348   6.681   6.310 -1.4651  1.1097  0.5437
   90MOL0     H12107   6.203   6.634   6.214 -1.2392  2.5741  0.9067
   90MOL0     H12108   6.382   6.477   6.171  0.6305 -0.0633  0.3454
   90MOL0     H12109   6.246   6.398   6.237  2.1054 -1.8939 -1.5488
   90MOL0     H12110   6.557   6.561   6.178 -1.9034 -2.2208  0.8281
   90MOL0     H12111   6.811   6.595   6.206  1.6078 -0.3229  1.2875
   90MOL0     H12112   7.044   6.633   6.802  0.3520  0.8150 -0.0159
   90MOL0     H12113   7.240   6.739   6.879  1.4920 -0.2939 -0.0626
   90MOL0     H12114   7.633   6.691   6.666 -1.0986 -0.9989  3.5166
   90MOL0     H12115   7.582   6.844   6.580  1.2339 -0.6599 -1.5808
   90MOL0     H12116   7.646   6.976   6.781  0.5039  0.8262  1.9522
   90MOL0     H12117   7.673   6.838   6.871  1.6055  0.9479  0.7297
   90MOL0     H12118   7.815   6.888   6.604  0.8416  6.0226  0.9332
   90MOL0     H12119   7.868   6.959   6.745 -0.0145 -1.4775  2.0418
   90MOL0     H12120   7.848   6.656   6.712  0.5685 -0.5585 -0.8969
   90MOL0     H12121   7.914   6.747   6.852 -0.0429  0.6615 -1.1165
   90MOL0     H12122   8.090   6.827   6.687  0.8140 -0.4172  1.4191
   90MOL0     H12123   8.021   6.747   6.558  2.9123  2.7332  0.4269
   90MOL0     H12124   8.109   6.611   6.814  2.5957  2.1198  0.2850
   90MOL0     H12125   8.062   6.529   6.666 -1.5451  0.8897  1.2864
   90MOL0     H12126   8.306   6.666   6.749 -0.3808  1.9625  0.2417
   90MOL0     H12127   8.256   6.723   6.596 -2.9286  0.6883  2.2393
   90MOL0     H12128   8.424   6.500   6.603 -0.1099  0.0817  0.3709
   90MOL0     H12129   8.264   6.420   6.624 -1.8710 -0.1783 -3.8362
   90MOL0     H12130   7.451   6.600   6.539  0.7387 -0.0890 -0.2959
   90MOL0     H12131   7.239   6.512   6.452  1.8958  0.7492 -1.2830
   90MOL0     H12132   6.799   6.436   6.596  1.4098 -0.9899 -0.4884
   90MOL0     H12133   6.572   6.345   6.552 -1.4777 -0.9683 -0.9155
   90MOL0     H12134   4.464   6.521   6.191  1.8614  1.8404 -1.4098
   90MOL0     H12135   4.305   6.366   6.130 -0.5599 -0.9172 -0.4761
   90MOL0     H12136   4.118   5.885   6.019  0.6196 -0.3518 -1.8259
   90MOL0     H12137   3.893   5.825   5.951 -1.4773 -0.4073 -3.6347
   90MOL0     H12138   3.656   5.835   5.958  3.9949  0.0542  1.0598
   90MOL0     H12139   3.742   5.832   5.800  0.3089 -0.7065  2.0239
   90MOL0     H12140   3.518   5.771   5.762  0.4445 -0.1766 -1.5081
   90MOL0     H12141   3.550   5.916   5.678  2.3975 -0.9376  0.0874
   90MOL0     H12142   3.445   6.041   5.857 -0.6405 -0.2507  1.5111
   90MOL0     H12143   3.405   5.905   5.948  0.5196  1.9637  1.0553
   90MOL0     H12144   3.219   5.992   5.807 -0.0206 -0.0174  0.5133
   90MOL0     H12145   3.319   5.958   5.670  3.2279 -3.1997 -0.3940
   90MOL0     H12146   3.130   5.587   5.796  0.3435 -0.3058  1.3928
   90MOL0     H12147   3.798   6.232   5.894 -0.5240  0.1163  0.5854
   90MOL0     H12148   4.133   6.355   5.872 -0.5796  1.4163 -0.4353
   90MOL0     H12149   3.968   6.388   5.863 -0.0805  2.0011  1.5731
   90MOL0     H12150   4.040   6.399   6.025 -1.5806  1.0138 -0.3336
   91MOL0     O12151  10.773   0.716  11.153 -0.1169  0.1068  0.3528
   91MOL0     C12152  10.791   0.691  11.040 -0.1563 -0.4911  0.4142
   91MOL0     O12153  10.907   0.623  10.981 -0.3787 -0.5412  0.3187
   91MOL0     C12154  11.014   0.639  11.070 -0.4281 -0.3887  0.0886
   91MOL0     C12155  11.055   0.532  11.152 -1.1548  0.0106  0.3536
   91MOL0     C12156  11.182   0.535  11.215 -0.1936 -0.3069 -0.5439
   91MOL0     C12157  11.274   0.642  11.201  0.5383 -0.4093 -0.4517
   91MOL0     O12158  11.395   0.657  11.270 -0.0862  0.1218  0.1508
   91MOL0     C12159  11.415   0.567  11.384  0.1272  0.3734  0.6700
   91MOL0     C12160  11.488   0.639  11.497  0.8329  0.0186 -0.2685
   91MOL0     C12161  11.613   0.703  11.447 -0.6066 -0.1638  0.5264
   91MOL0     C12162  11.706   0.728  11.564  0.9142  0.2553 -0.0930
   91MOL0     C12163  11.796   0.858  11.555  0.4783  0.4860 -0.1501
   91MOL0     C12164  11.890   0.870  11.438  0.1051  0.7831 -0.5046
   91MOL0     C12165  12.032   0.931  11.478 -0.0522 -0.3895  0.0475
   91MOL0     C12166  12.033   1.078  11.438 -0.6311 -0.0922 -0.0719
   91MOL0     N12167  12.157   1.138  11.474 -0.2247 -0.3518 -0.7642
   91MOL0     C12168  12.287   1.102  11.437  1.5951  0.7074 -0.2728
   91MOL0     C12169  12.373   1.197  11.481 -0.7826 -0.8749 -0.4058
   91MOL0     C12170  12.524   1.198  11.469 -0.2291 -0.0308 -0.0577
   91MOL0     C12171  12.576   1.337  11.426 -0.7906 -0.6764 -0.1473
   91MOL0     C12172  12.579   1.346  11.267 -0.1358  0.1258  0.0380
   91MOL0     C12173  12.612   1.487  11.224  0.3645 -0.1610  0.2328
   91MOL0     O12174  12.762   1.503  11.207 -0.0797 -0.3199  0.1959
   91MOL0     C12175  12.848   1.525  11.306 -0.7302 -0.5869 -0.0215
   91MOL0     C12176  12.984   1.514  11.278 -0.8938  0.1396  0.7770
   91MOL0     C12177  13.080   1.543  11.376 -0.1982  0.8888  0.2832
   91MOL0     C12178  13.044   1.571  11.509 -0.6369  0.3143  0.2606
   91MOL0     C12179  13.151   1.581  11.612  0.1002  0.0281 -0.9259
   91MOL0     O12180  13.277   1.563  11.571  0.0162 -0.4772 -0.0850
   91MOL0     C12181  13.369   1.580  11.667 -0.0813 -0.0269 -0.0714
   91MOL0     C12182  13.451   1.695  11.660  0.6834  0.6251  0.9048
   91MOL0     C12183  13.556   1.701  11.738 -0.3637  0.4799 -0.5583
   91MOL0     C12184  13.583   1.612  11.847  0.4620 -0.1786  0.1158
   91MOL0     O12185  13.688   1.645  11.925  0.5372  0.9222 -0.3265
   91MOL0     C12186  13.666   1.607  12.064  0.4969 -0.2183  0.3150
   91MOL0     C12187  13.765   1.691  12.148 -0.6275 -0.8227 -0.0554
   91MOL0     C12188  13.907   1.647  12.116  0.2154 -0.3280 -0.3000
   91MOL0     C12189  14.000   1.721  12.217  0.5994 -0.1379  0.3405
   91MOL0     C12190  14.146   1.664  12.200 -0.3287  0.5602 -0.6567
   91MOL0     C12191  14.238   1.725  12.300 -0.4977  0.7926 -0.1918
   91MOL0     C12192  14.382   1.650  12.294  0.2463  0.7685 -0.6367
   91MOL0     C12193  14.488   1.698  12.387 -0.2086 -0.7512  0.3441
   91MOL0    Cl12194  14.644   1.639  12.319 -0.0225  0.2346 -0.2048
   91MOL0     C12195  13.490   1.504  11.861  0.7598 -0.4432 -0.3268
   91MOL0     C12196  13.386   1.479  11.772  0.4177 -0.2306  0.2850
   91MOL0     O12197  13.122   1.597  11.729 -0.1170  1.1161  0.2822
   91MOL0     C12198  12.908   1.592  11.538 -0.1530 -0.5152  0.3776
   91MOL0     C12199  12.812   1.570  11.435  1.0194  0.1800 -0.7949
   91MOL0     N12200  12.291   1.289  11.548  0.7547 -0.0482 -0.2594
   91MOL0     N12201  12.165   1.260  11.535  0.0075  0.2000  0.5854
   91MOL0     C12202  11.235   0.751  11.119  0.7849 -0.7531 -0.0216
   91MOL0     C12203  11.102   0.742  11.052 -0.6872 -0.3837  0.5296
   91MOL0     C12204  10.691   0.741  10.948  0.5263 -0.4131 -0.4890
   91MOL0     C12205  10.559   0.716  10.988 -0.0530 -0.4333 -0.2619
   91MOL0     C12206  10.444   0.760  10.922 -0.3436 -1.1723  0.7782
   91MOL0     C12207  10.460   0.832  10.793  0.6745 -0.7043 -0.5105
   91MOL0     O12208  10.357   0.872  10.712 -0.1460 -0.3151  1.1726
   91MOL0     C12209  10.232   0.798  10.721  0.3377  0.4389  0.6935
   91MOL0     C12210  10.128   0.877  10.632 -0.1133 -0.8126  0.2428
   91MOL0     C12211  10.006   0.786  10.598  0.0629  0.1696 -0.4690
   91MOL0     C12212   9.892   0.872  10.549 -0.7257 -0.1632 -0.0509
   91MOL0     C12213   9.927   0.926  10.419  0.3255  0.1031  0.0406
   91MOL0     C12214   9.968   0.975  10.315  0.1540 -0.7027  0.2366
   91MOL0     C12215  10.588   0.871  10.760  0.6996 -0.4438  0.0202
   91MOL0     C12216  10.705   0.817  10.823  0.7394 -0.5101 -0.9987
   91MOL0     C12217  10.842   0.841  10.759 -1.4394  0.2544 -0.1822
   91MOL0     H12218  10.992   0.445  11.168  2.0956 -2.5627  0.3220
   91MOL0     H12219  11.216   0.441  11.256  0.6621 -0.6945 -2.0813
   91MOL0     H12220  11.316   0.533  11.417  0.5492 -4.2488 -1.8959
   91MOL0     H12221  11.465   0.474  11.355  3.3490  1.8581  1.0881
   91MOL0     H12222  11.510   0.563  11.572 -1.0458 -0.3830 -0.0823
   91MOL0     H12223  11.419   0.716  11.532  1.3062  1.2563 -1.9006
   91MOL0     H12224  11.580   0.797  11.401 -3.0926  0.3613  3.1112
   91MOL0     H12225  11.670   0.640  11.378 -1.6863 -1.5427  0.8484
   91MOL0     H12226  11.634   0.744  11.645  1.7316  1.1313  0.4809
   91MOL0     H12227  11.768   0.644  11.598  0.2615  0.0979  0.7320
   91MOL0     H12228  11.730   0.943  11.537 -0.9935 -0.8948 -1.6739
   91MOL0     H12229  11.853   0.886  11.643  0.3660 -1.1803  0.4823
   91MOL0     H12230  11.897   0.764  11.411  1.3391  0.9232 -0.7984
   91MOL0     H12231  11.836   0.916  11.355 -3.1109 -1.5812  0.0764
   91MOL0     H12232  12.114   0.889  11.419 -2.2459  0.7177 -4.2430
   91MOL0     H12233  12.042   0.918  11.586 -1.6369 -0.2684  0.2405
   91MOL0     H12234  12.014   1.094  11.332 -1.8924  0.5850  0.2345
   91MOL0     H12235  11.960   1.129  11.502  1.8503  0.1855  2.7375
   91MOL0     H12236  12.304   1.008  11.384  0.8597 -1.0679  2.3958
   91MOL0     H12237  12.572   1.168  11.563  1.4677 -1.5661 -1.3242
   91MOL0     H12238  12.566   1.121  11.403  4.6384  1.4870  0.8766
   91MOL0     H12239  12.505   1.409  11.467 -1.9687 -0.1754 -2.8464
   91MOL0     H12240  12.679   1.340  11.462 -0.1766 -2.3054 -1.6034
   91MOL0     H12241  12.479   1.324  11.228  0.1086 -1.9642  0.4877
   91MOL0     H12242  12.643   1.271  11.220  0.2484 -0.1210  0.9504
   91MOL0     H12243  12.573   1.561  11.295  0.3593  3.1916 -3.0182
   91MOL0     H12244  12.563   1.493  11.127  0.2837  0.7529  0.3201
   91MOL0     H12245  13.008   1.483  11.177 -0.6984  2.1747  0.1619
   91MOL0     H12246  13.182   1.515  11.352 -1.1232  0.1693 -3.4798
   91MOL0     H12247  13.424   1.767  11.583 -0.6698  0.1529  0.9196
   91MOL0     H12248  13.617   1.790  11.726 -1.3100  1.5005  1.6553
   91MOL0     H12249  13.565   1.633  12.099 -0.8193 -1.4618 -2.2603
   91MOL0     H12250  13.684   1.500  12.076 -0.7622 -0.4510  0.2926
   91MOL0     H12251  13.761   1.798  12.128  0.3118 -0.6489  0.6163
   91MOL0     H12252  13.751   1.681  12.256 -1.2470 -0.3566 -0.0876
   91MOL0     H12253  13.908   1.539  12.130  3.3860 -0.0288  3.9965
   91MOL0     H12254  13.939   1.668  12.013  0.7923 -1.7715 -0.4342
   91MOL0     H12255  13.945   1.713  12.311 -0.9874 -1.5964 -0.6534
   91MOL0     H12256  13.994   1.825  12.184  0.2595 -0.3974 -0.4375
   91MOL0     H12257  14.188   1.676  12.100 -1.2114 -0.2980 -1.1335
   91MOL0     H12258  14.152   1.555  12.207 -2.1232  0.5019  0.5803
   91MOL0     H12259  14.272   1.825  12.272  1.4173 -0.4673 -2.8289
   91MOL0     H12260  14.196   1.727  12.401 -0.0844 -2.3187  0.1567
   91MOL0     H12261  14.423   1.677  12.197  1.1183  1.9283  0.0170
   91MOL0     H12262  14.368   1.544  12.317 -1.7029  1.4285  1.6541
   91MOL0     H12263  14.482   1.806  12.401 -0.6006 -0.2703 -2.7994
   91MOL0     H12264  14.480   1.661  12.490 -0.3041  3.7106  2.1409
   91MOL0     H12265  13.501   1.426  11.936 -3.4029 -1.3503 -0.4534
   91MOL0     H12266  13.317   1.396  11.783  1.9865 -1.2972  2.9187
   91MOL0     H12267  12.882   1.620  11.640 -1.9085 -2.2290  0.4573
   91MOL0     H12268  12.707   1.593  11.447  0.4832 -1.2383 -2.3380
   91MOL0     H12269  11.301   0.836  11.100  2.5420 -2.1244 -0.3117
   91MOL0     H12270  11.074   0.822  10.985  0.0818 -0.1918  0.4228
   91MOL0     H12271  10.541   0.658  11.078  3.0327  1.9033  2.0757
   91MOL0     H12272  10.362   0.715  10.976  0.7045 -1.4025  2.2445
   91MOL0     H12273  10.195   0.808  10.824 -1.0341  0.5442  0.2005
   91MOL0     H12274  10.226   0.697  10.678 -4.0774  1.2250 -1.0457
   91MOL0     H12275  10.179   0.906  10.540 -0.9615  0.3272  0.1133
   91MOL0     H12276  10.108   0.971  10.684 -0.1037 -0.0201 -1.1530
   91MOL0     H12277   9.974   0.731  10.687 -2.7702  1.4878 -0.5475
   91MOL0     H12278  10.024   0.712  10.519 -1.4145  0.6537 -1.3197
   91MOL0     H12279   9.804   0.807  10.544 -1.0495  0.1069  1.5250
   91MOL0     H12280   9.870   0.952  10.620  0.3889 -1.8040  2.2628
   91MOL0     H12281   9.989   1.027  10.224 -1.3964 -2.1569 -1.0426
   91MOL0     H12282  10.597   0.927  10.668 -0.6018 -0.3100 -0.0329
   91MOL0     H12283  10.913   0.870  10.837 -1.3203 -0.2223 -0.1061
   91MOL0     H12284  10.875   0.741  10.729 -1.1446 -0.4057  2.1484
   91MOL0     H12285  10.846   0.914  10.678  1.7294  0.8112  0.3433
   92MOL0     O12286   7.942   3.714   5.915 -0.4775  0.8579 -0.1390
   92MOL0     C12287   7.837   3.662   5.954  0.7112  0.1343  0.0075
   92MOL0     O12288   7.819   3.587   6.067 -0.6856  0.4501  0.3533
   92MOL0     C12289   7.920   3.575   6.161  0.2694  0.0426  0.8502
   92MOL0     C12290   8.020   3.670   6.183 -0.3325 -0.1454  0.1540
   92MOL0     C12291   8.117   3.666   6.282 -0.8126 -0.0991  0.5796
   92MOL0     C12292   8.115   3.555   6.368 -0.4157 -0.9886 -0.6270
   92MOL0     O12293   8.198   3.563   6.481  0.3745  0.5574  0.1798
   92MOL0     C12294   8.150   3.513   6.608  0.1330 -0.4103  0.1692
   92MOL0     C12295   8.229   3.580   6.714 -0.2566 -0.0454  0.2451
   92MOL0     C12296   8.206   3.551   6.863  0.2528 -0.2587 -0.9007
   92MOL0     C12297   8.292   3.630   6.961  0.0115 -0.3203 -0.3416
   92MOL0     C12298   8.436   3.568   6.970 -0.4075 -0.4583  0.3340
   92MOL0     C12299   8.457   3.431   7.028  0.6236  0.3725 -0.3486
   92MOL0     C12300   8.428   3.425   7.174  0.0573 -0.4758  0.5381
   92MOL0     C12301   8.415   3.294   7.243 -1.2373 -0.4571 -0.0352
   92MOL0     N12302   8.457   3.179   7.156  1.0372  0.3104  0.0825
   92MOL0     C12303   8.577   3.154   7.104  0.2130  0.3530  0.3245
   92MOL0     C12304   8.558   3.037   7.042  0.2720 -0.8576  0.1279
   92MOL0     C12305   8.674   2.970   6.960  0.8478  0.8203 -0.1831
   92MOL0     C12306   8.818   3.014   7.003  0.0072  0.3629 -0.4208
   92MOL0     C12307   8.931   2.946   6.931 -0.5265  0.0587 -0.3644
   92MOL0     C12308   9.070   2.987   6.983  0.1871 -0.3485  0.0481
   92MOL0     O12309   9.167   2.930   6.902  0.5408 -0.1734 -0.3794
   92MOL0     C12310   9.292   2.991   6.899 -0.9763  0.2169  0.3711
   92MOL0     C12311   9.344   3.058   7.009 -0.3816  0.6321 -0.1174
   92MOL0     C12312   9.473   3.109   7.000 -0.7328 -0.8153 -0.1924
   92MOL0     C12313   9.545   3.095   6.881  0.3942 -0.2442  0.4336
   92MOL0     C12314   9.677   3.150   6.850  0.6400 -0.2801 -0.4207
   92MOL0     O12315   9.718   3.163   6.728  0.2807 -0.6727  0.0334
   92MOL0     C12316   9.848   3.220   6.716  0.0040  0.5577 -0.7778
   92MOL0     C12317   9.946   3.128   6.695  0.0967  0.3650 -0.7094
   92MOL0     C12318  10.080   3.175   6.661  0.3478 -0.1166 -1.4131
   92MOL0     C12319  10.111   3.312   6.669 -0.2222  0.1145 -0.1697
   92MOL0     O12320  10.238   3.362   6.636  0.0010  0.0812 -0.7987
   92MOL0     C12321  10.253   3.458   6.537 -1.2217  0.6703  0.2550
   92MOL0     C12322  10.406   3.481   6.534  0.2596 -0.2442  1.0975
   92MOL0     C12323  10.448   3.565   6.415  0.2843 -0.1134  0.1349
   92MOL0     C12324  10.598   3.558   6.381  0.1316  0.3571 -0.8162
   92MOL0     C12325  10.620   3.645   6.259 -0.1473  1.0806  0.1837
   92MOL0     C12326  10.754   3.638   6.211 -0.7353 -0.5325 -0.6602
   92MOL0     C12327  10.864   3.701   6.292 -0.3878  0.2541 -0.2520
   92MOL0     C12328  10.875   3.852   6.302  0.8501  0.8959 -0.5960
   92MOL0    Cl12329  10.735   3.916   6.398  0.1098 -0.2882  0.0003
   92MOL0     C12330  10.003   3.396   6.700  0.2330  0.0485  0.0119
   92MOL0     C12331   9.874   3.356   6.737 -0.6196 -0.2693 -0.5158
   92MOL0     O12332   9.732   3.195   6.952 -0.6382  0.2299 -0.1273
   92MOL0     C12333   9.492   3.020   6.771 -0.5020 -0.2369 -0.2721
   92MOL0     C12334   9.371   2.966   6.785 -0.0285  0.4740  0.5578
   92MOL0     N12335   8.430   2.984   7.061  0.4069  0.9949 -0.2343
   92MOL0     N12336   8.365   3.080   7.119  0.4157 -0.4745  0.1783
   92MOL0     C12337   8.016   3.458   6.355 -0.5231 -0.0960 -0.8688
   92MOL0     C12338   7.920   3.466   6.246 -0.0701  0.6935  0.6596
   92MOL0     C12339   7.718   3.695   5.875 -0.6083 -0.4815  0.1157
   92MOL0     C12340   7.729   3.808   5.796  0.0876  0.7360 -0.2906
   92MOL0     C12341   7.626   3.843   5.711 -0.0172 -0.1420  0.2448
   92MOL0     C12342   7.503   3.769   5.718  0.0343 -0.7619  0.4532
   92MOL0     O12343   7.388   3.800   5.646  0.4291  0.1477  0.5689
   92MOL0     C12344   7.393   3.923   5.570  0.3762  0.1519  0.7857
   92MOL0     C12345   7.259   3.944   5.489 -0.6624 -0.0946 -0.6826
   92MOL0     C12346   7.260   4.063   5.389  0.6536 -0.8838 -0.9022
   92MOL0     C12347   7.275   4.199   5.467 -0.4566  0.5935 -0.1992
   92MOL0     C12348   7.265   4.317   5.375 -0.7045  0.2347  0.5453
   92MOL0     C12349   7.262   4.412   5.302  0.2289 -0.2249  0.2799
   92MOL0     C12350   7.497   3.655   5.796 -0.5363 -0.2437 -1.1106
   92MOL0     C12351   7.608   3.602   5.868  0.1313 -0.5397  0.7663
   92MOL0     C12352   7.599   3.466   5.938  0.1302  0.5883 -0.2772
   92MOL0     H12353   8.015   3.760   6.123 -0.6743  0.3272  0.8703
   92MOL0     H12354   8.184   3.751   6.291  0.9995 -1.4549  0.4520
   92MOL0     H12355   8.048   3.542   6.638 -0.0518  0.2118 -1.0241
   92MOL0     H12356   8.162   3.405   6.618 -1.6182 -0.5572  1.2226
   92MOL0     H12357   8.204   3.687   6.716 -0.1455 -0.0148  0.0342
   92MOL0     H12358   8.335   3.578   6.687 -0.6708 -0.5089 -1.4414
   92MOL0     H12359   8.196   3.444   6.881 -0.4227 -0.0731 -0.1034
   92MOL0     H12360   8.104   3.578   6.890 -0.4375 -1.1705 -2.4851
   92MOL0     H12361   8.301   3.733   6.926 -2.1880  0.8781  2.2389
   92MOL0     H12362   8.248   3.636   7.061  3.9097  2.7878  1.4525
   92MOL0     H12363   8.494   3.573   6.877  1.3896 -0.5741  1.4038
   92MOL0     H12364   8.492   3.636   7.033 -2.2418  0.6737  0.8226
   92MOL0     H12365   8.399   3.356   6.972  0.4332 -0.0407  0.3899
   92MOL0     H12366   8.563   3.406   7.016  1.3223  1.8129  2.1782
   92MOL0     H12367   8.345   3.491   7.202 -0.5821 -1.0244 -0.0110
   92MOL0     H12368   8.516   3.471   7.219 -0.1395  2.3879 -1.7062
   92MOL0     H12369   8.485   3.288   7.327 -0.4597 -1.8222 -0.7582
   92MOL0     H12370   8.309   3.288   7.272 -1.4043  0.5614 -0.3894
   92MOL0     H12371   8.662   3.222   7.096  1.5506 -1.0548  1.8613
   92MOL0     H12372   8.659   2.863   6.977 -0.6999  0.9691 -0.4213
   92MOL0     H12373   8.674   2.987   6.852  0.6151  1.5394 -0.0777
   92MOL0     H12374   8.829   3.122   6.988  0.2744  0.4597  0.3840
   92MOL0     H12375   8.829   2.986   7.109 -3.6756  0.6772  0.1743
   92MOL0     H12376   8.932   2.979   6.827 -1.4137  2.1675  0.2520
   92MOL0     H12377   8.909   2.840   6.950  0.0063  0.4353  3.0164
   92MOL0     H12378   9.090   2.966   7.088  2.8102  1.3755 -0.0140
   92MOL0     H12379   9.066   3.096   6.970 -1.7123 -0.4337 -0.4525
   92MOL0     H12380   9.284   3.079   7.098  0.4420  1.6173  0.2280
   92MOL0     H12381   9.528   3.152   7.084 -1.2727  1.5282 -0.9515
   92MOL0     H12382   9.921   3.022   6.691 -0.2618  0.3948  0.3811
   92MOL0     H12383  10.158   3.103   6.635  1.3277 -0.5358  2.2075
   92MOL0     H12384  10.222   3.421   6.439  0.9603  2.3104 -1.1488
   92MOL0     H12385  10.203   3.553   6.554 -1.0801  0.3894  2.5057
   92MOL0     H12386  10.443   3.527   6.626  0.6462 -0.4718  1.0592
   92MOL0     H12387  10.457   3.385   6.527 -0.5911 -0.8639  2.9595
   92MOL0     H12388  10.396   3.517   6.331  0.8326 -0.3792 -0.0602
   92MOL0     H12389  10.414   3.666   6.435 -0.4799 -0.2812 -0.2753
   92MOL0     H12390  10.638   3.457   6.374 -0.0959  0.1376  0.7041
   92MOL0     H12391  10.667   3.607   6.452 -2.3250  0.4344  1.6744
   92MOL0     H12392  10.593   3.746   6.291 -1.3377 -0.1084  3.4030
   92MOL0     H12393  10.559   3.609   6.176  1.5490  2.7981 -1.9082
   92MOL0     H12394  10.786   3.534   6.203  2.7374  0.1800  1.6348
   92MOL0     H12395  10.754   3.686   6.112  0.5414 -4.4129 -2.7592
   92MOL0     H12396  10.956   3.648   6.265  0.3031  1.4591 -0.3062
   92MOL0     H12397  10.863   3.681   6.400 -0.0361  1.8272  0.0657
   92MOL0     H12398  10.964   3.869   6.363 -1.1731  0.6186  2.6634
   92MOL0     H12399  10.892   3.897   6.204  1.0542 -0.7344 -1.3428
   92MOL0     H12400  10.035   3.500   6.692  4.0871 -1.1351 -3.0710
   92MOL0     H12401   9.805   3.421   6.791  0.5908 -2.6806  4.5119
   92MOL0     H12402   9.555   2.991   6.687  1.9748  1.7186  0.7933
   92MOL0     H12403   9.344   2.890   6.712 -1.8759  0.1348  1.5289
   92MOL0     H12404   8.017   3.370   6.418  2.4147  0.7651  0.5068
   92MOL0     H12405   7.855   3.380   6.236  0.7236  0.0700  0.7459
   92MOL0     H12406   7.818   3.867   5.780  0.1086  1.4852  2.2267
   92MOL0     H12407   7.638   3.933   5.653 -1.8251  0.4071  0.6437
   92MOL0     H12408   7.479   3.919   5.502  0.9989  1.0767  1.4942
   92MOL0     H12409   7.409   4.007   5.638  0.2534  0.7112  0.1283
   92MOL0     H12410   7.176   3.968   5.555  1.3757  0.7171  1.7482
   92MOL0     H12411   7.227   3.855   5.433 -0.7295  0.9795 -2.4328
   92MOL0     H12412   7.163   4.069   5.339 -1.6312  2.3117  3.3290
   92MOL0     H12413   7.328   4.053   5.304 -0.1755  4.8812 -2.6890
   92MOL0     H12414   7.206   4.222   5.548  0.7682  1.1200  0.7372
   92MOL0     H12415   7.377   4.212   5.506  0.2632 -0.8635 -1.4617
   92MOL0     H12416   7.261   4.494   5.233  0.9126 -1.3891 -1.1800
   92MOL0     H12417   7.407   3.596   5.788 -1.2075  0.7826 -1.3467
   92MOL0     H12418   7.542   3.395   5.876  0.1715  0.9953 -0.7922
   92MOL0     H12419   7.697   3.417   5.937 -0.1971 -0.0747 -0.5177
   92MOL0     H12420   7.548   3.476   6.034  3.1229  2.0743  1.2861
   93MOL0     O12421   2.272   5.834   3.725  0.7485 -0.2304  0.1601
   93MOL0     C12422   2.204   5.743   3.765  0.0504  0.2035  0.5982
   93MOL0     O12423   2.246   5.609   3.782 -0.7241 -0.0329 -0.1821
   93MOL0     C12424   2.385   5.587   3.755  0.0066  0.4568  0.6929
   93MOL0     C12425   2.493   5.651   3.816 -0.3712 -0.0441 -0.0432
   93MOL0     C12426   2.624   5.598   3.813  0.9876  0.5240 -0.5660
   93MOL0     C12427   2.665   5.483   3.741 -0.2797  0.5438  0.0386
   93MOL0     O12428   2.788   5.445   3.730 -0.1690  0.2478 -0.3758
   93MOL0     C12429   2.819   5.311   3.729  0.6148  0.0964  0.2000
   93MOL0     C12430   2.964   5.279   3.755  0.4064 -0.0772  0.7110
   93MOL0     C12431   3.041   5.295   3.617 -0.7948 -0.5898 -0.3220
   93MOL0     C12432   3.173   5.234   3.642  0.4238 -0.0477  0.5372
   93MOL0     C12433   3.294   5.294   3.559  0.1388 -0.3961 -0.2680
   93MOL0     C12434   3.343   5.431   3.617  1.0583  0.2802 -0.5806
   93MOL0     C12435   3.468   5.499   3.544 -0.0231  0.4512 -1.1424
   93MOL0     C12436   3.442   5.519   3.395  0.1100  0.3194 -0.5385
   93MOL0     N12437   3.540   5.592   3.314 -0.3224 -0.4983  0.4301
   93MOL0     C12438   3.658   5.526   3.278 -0.2951 -0.3259 -0.4207
   93MOL0     C12439   3.718   5.610   3.193 -0.3688  0.3160 -1.3447
   93MOL0     C12440   3.857   5.567   3.148 -0.9747  0.2101  1.0755
   93MOL0     C12441   3.956   5.575   3.262 -0.3295  0.2134  0.5144
   93MOL0     C12442   4.089   5.626   3.220  0.3630  0.6680 -0.7420
   93MOL0     C12443   4.190   5.594   3.334  0.0563  0.1327  0.2332
   93MOL0     O12444   4.162   5.666   3.463 -0.1723  0.3497 -0.3346
   93MOL0     C12445   4.257   5.658   3.557  0.0126  0.1143  0.4401
   93MOL0     C12446   4.217   5.686   3.689  0.4255  0.2629  0.2707
   93MOL0     C12447   4.306   5.703   3.794 -0.3720  0.2338  0.7910
   93MOL0     C12448   4.435   5.670   3.777 -0.1126 -0.3383 -0.1442
   93MOL0     C12449   4.529   5.692   3.889  0.1731 -0.3592  0.8257
   93MOL0     O12450   4.669   5.664   3.870  0.6416 -0.0677  0.3239
   93MOL0     C12451   4.751   5.695   3.978 -0.7417  0.6377 -0.9018
   93MOL0     C12452   4.784   5.599   4.084  0.2038 -0.1203 -0.2668
   93MOL0     C12453   4.867   5.640   4.185 -0.4180 -0.3958  0.5879
   93MOL0     C12454   4.928   5.765   4.198 -0.4507  0.1191 -0.0480
   93MOL0     O12455   5.006   5.801   4.303 -0.4546  0.0815  0.2624
   93MOL0     C12456   5.059   5.716   4.409  0.7306  0.7344  0.5928
   93MOL0     C12457   5.177   5.790   4.478 -0.4082  0.0079 -0.0271
   93MOL0     C12458   5.288   5.823   4.381  0.2144  0.6468  0.5386
   93MOL0     C12459   5.431   5.828   4.438  0.0967  0.4243  0.6917
   93MOL0     C12460   5.513   5.926   4.355 -0.6557 -0.0096  0.0035
   93MOL0     C12461   5.612   5.994   4.449  0.4792 -0.9031 -0.1614
   93MOL0     C12462   5.542   6.099   4.544  0.4503  0.5399  0.1482
   93MOL0     C12463   5.507   6.234   4.484  0.8254  0.0768 -0.0625
   93MOL0    Cl12464   5.634   6.319   4.401 -0.2309 -0.4973 -0.1368
   93MOL0     C12465   4.899   5.855   4.094  0.0011  0.0456  0.2760
   93MOL0     C12466   4.814   5.823   3.983 -0.0509  0.5930  0.2129
   93MOL0     O12467   4.483   5.731   3.997 -0.5041 -0.3289 -0.3739
   93MOL0     C12468   4.484   5.623   3.660  0.3259  1.1991 -0.3609
   93MOL0     C12469   4.392   5.619   3.543 -0.7449  0.1866 -0.6227
   93MOL0     N12470   3.634   5.715   3.174  0.2614 -0.0418  0.7879
   93MOL0     N12471   3.533   5.710   3.246  0.2876 -0.3145  0.8299
   93MOL0     C12472   2.558   5.430   3.661  1.1104 -0.4003  0.1840
   93MOL0     C12473   2.422   5.476   3.668  0.0341 -0.4643  0.1185
   93MOL0     C12474   2.062   5.774   3.803 -0.4365  0.6881 -0.1975
   93MOL0     C12475   1.982   5.669   3.852  0.7533 -0.5152  0.3725
   93MOL0     C12476   1.849   5.686   3.879  0.4589  0.5503  0.4398
   93MOL0     C12477   1.785   5.812   3.841  1.6190  0.0492  0.4344
   93MOL0     O12478   1.649   5.824   3.854  0.3703  0.7553  0.0084
   93MOL0     C12479   1.583   5.765   3.968  0.1617 -0.6377 -0.6548
   93MOL0     C12480   1.472   5.865   4.009  0.2552 -0.7225 -0.0284
   93MOL0     C12481   1.391   5.905   3.891  0.2299 -0.2630  0.1294
   93MOL0     C12482   1.242   5.920   3.930 -0.8510 -0.0976 -1.0508
   93MOL0     C12483   1.158   5.976   3.824  0.2283 -0.0418  0.2317
   93MOL0     C12484   1.101   6.027   3.734 -0.4156 -0.7814 -0.1931
   93MOL0     C12485   1.862   5.923   3.807 -0.4866 -0.1643  0.0316
   93MOL0     C12486   2.005   5.904   3.792  0.1348  0.4317  0.7503
   93MOL0     C12487   2.077   6.044   3.783 -0.8843  0.1087 -0.2594
   93MOL0     H12488   2.500   5.742   3.874  2.8505 -0.1079 -0.1432
   93MOL0     H12489   2.697   5.645   3.877 -1.9648  1.0781  2.6896
   93MOL0     H12490   2.764   5.275   3.817 -0.7809  0.8142 -0.3434
   93MOL0     H12491   2.790   5.266   3.634 -1.4298 -0.0513  0.8410
   93MOL0     H12492   2.974   5.175   3.788  0.3394 -0.7410 -1.2024
   93MOL0     H12493   2.995   5.346   3.836  1.8220  2.1712 -1.5288
   93MOL0     H12494   3.042   5.401   3.590 -0.3654 -0.6687 -0.6237
   93MOL0     H12495   3.000   5.245   3.529 -1.4445  2.4699 -1.9129
   93MOL0     H12496   3.201   5.260   3.744  0.0615  0.4545  0.5115
   93MOL0     H12497   3.170   5.125   3.634 -0.5609 -0.1819  2.3320
   93MOL0     H12498   3.381   5.227   3.558  2.6916  2.6638 -0.6315
   93MOL0     H12499   3.260   5.318   3.458 -0.9677  3.4214  0.8448
   93MOL0     H12500   3.252   5.490   3.605  0.3165 -0.8080 -0.5137
   93MOL0     H12501   3.365   5.427   3.724 -1.8397 -1.5040  0.0540
   93MOL0     H12502   3.564   5.450   3.565 -0.6671 -0.4428 -0.1527
   93MOL0     H12503   3.487   5.597   3.588  2.1354 -0.8898  1.2018
   93MOL0     H12504   3.438   5.424   3.341  1.8859  1.5744 -3.0936
   93MOL0     H12505   3.345   5.569   3.388 -0.0359 -0.2098 -3.3655
   93MOL0     H12506   3.691   5.430   3.315  0.9168  0.7286  1.3902
   93MOL0     H12507   3.870   5.470   3.101 -0.5668  1.1212 -0.7674
   93MOL0     H12508   3.868   5.646   3.073 -3.9517  0.2946  0.5755
   93MOL0     H12509   3.919   5.649   3.333  0.4191  2.8290 -1.6534
   93MOL0     H12510   3.958   5.476   3.309 -0.3688  1.3617  3.1095
   93MOL0     H12511   4.085   5.734   3.203 -1.3691  1.0197  1.4672
   93MOL0     H12512   4.118   5.587   3.122 -0.6533 -0.0446 -0.7730
   93MOL0     H12513   4.289   5.628   3.302  0.9198 -0.2578  2.3501
   93MOL0     H12514   4.197   5.486   3.352 -1.0220  0.2215  1.3594
   93MOL0     H12515   4.115   5.715   3.710 -0.6718 -2.4503 -0.8875
   93MOL0     H12516   4.269   5.744   3.887  0.3518 -0.7958  1.5638
   93MOL0     H12517   4.731   5.504   4.080  0.2473 -0.1530 -0.0561
   93MOL0     H12518   4.874   5.563   4.261 -1.0334  0.7697  1.8735
   93MOL0     H12519   4.984   5.680   4.480 -0.3757  0.7700 -0.5279
   93MOL0     H12520   5.105   5.628   4.361  3.4435  2.5416 -0.3748
   93MOL0     H12521   5.144   5.880   4.530 -3.2676 -0.4768 -0.8592
   93MOL0     H12522   5.222   5.729   4.558  1.9472  2.1785  0.4188
   93MOL0     H12523   5.280   5.759   4.293  0.7438  2.4424 -0.8819
   93MOL0     H12524   5.257   5.916   4.332 -1.1037 -1.3652 -2.8249
   93MOL0     H12525   5.480   5.732   4.420 -1.5999 -0.3886  0.2279
   93MOL0     H12526   5.426   5.856   4.544 -2.6676  2.0039  0.2379
   93MOL0     H12527   5.451   6.005   4.313 -0.8987  0.4689  1.2055
   93MOL0     H12528   5.566   5.883   4.270 -0.9508 -0.3745  0.0028
   93MOL0     H12529   5.661   5.926   4.519  3.1933  0.8804 -0.1436
   93MOL0     H12530   5.697   6.042   4.398  1.7921 -2.0873  0.8338
   93MOL0     H12531   5.604   6.117   4.632  0.2178 -1.4672  0.7569
   93MOL0     H12532   5.448   6.060   4.582 -0.1976  0.4697 -1.4286
   93MOL0     H12533   5.425   6.209   4.416 -0.1535 -0.3109  1.2417
   93MOL0     H12534   5.464   6.308   4.551 -3.6102  1.3942 -3.7958
   93MOL0     H12535   4.950   5.950   4.099 -1.5435  0.9765 -0.8150
   93MOL0     H12536   4.784   5.902   3.915  0.5754  0.9976  0.3934
   93MOL0     H12537   4.581   5.578   3.646  1.1834  2.3017  1.5936
   93MOL0     H12538   4.431   5.575   3.452  1.1662  1.0914 -0.2855
   93MOL0     H12539   2.594   5.358   3.587 -1.8542 -1.9116  0.0734
   93MOL0     H12540   2.355   5.428   3.597  1.2815 -1.1737 -0.6444
   93MOL0     H12541   2.029   5.576   3.880  1.3461 -0.5248 -0.6068
   93MOL0     H12542   1.795   5.603   3.922 -0.1969  1.3545  1.2061
   93MOL0     H12543   1.640   5.754   4.061 -0.5031  1.7246  0.1006
   93MOL0     H12544   1.543   5.666   3.941  1.6069 -0.8952 -1.9485
   93MOL0     H12545   1.518   5.957   4.047 -0.4813 -0.5742  0.5228
   93MOL0     H12546   1.413   5.826   4.092 -1.5337  1.7531 -0.0089
   93MOL0     H12547   1.400   5.838   3.806 -0.2640  0.0818 -0.1993
   93MOL0     H12548   1.419   6.003   3.851  0.2387 -0.4256 -0.2652
   93MOL0     H12549   1.188   5.836   3.977 -1.1127  1.7949  2.3299
   93MOL0     H12550   1.242   6.002   4.003 -1.5649  0.2631 -1.4437
   93MOL0     H12551   1.067   6.077   3.646  0.0344 -1.0708 -0.5366
   93MOL0     H12552   1.817   6.020   3.792  0.5258  0.1893 -0.8373
   93MOL0     H12553   2.176   6.030   3.827 -2.3610 -0.5448  3.2295
   93MOL0     H12554   2.085   6.082   3.681 -1.2891 -1.3440 -0.8680
   93MOL0     H12555   2.030   6.121   3.845 -0.0162 -0.3015  0.9581
   94MOL0     O12556  10.993   2.539   3.994 -0.2180  0.4905  0.0081
   94MOL0     C12557  10.910   2.564   3.908  1.0558 -0.2480  0.5186
   94MOL0     O12558  10.929   2.553   3.772 -0.4270 -0.1936 -1.0870
   94MOL0     C12559  11.051   2.515   3.716  0.7926 -0.2868  0.1607
   94MOL0     C12560  11.073   2.563   3.582  0.0214  0.0777 -0.0889
   94MOL0     C12561  11.174   2.510   3.505  0.3883 -0.2815 -0.2345
   94MOL0     C12562  11.252   2.407   3.549  0.3024 -0.0552 -0.3591
   94MOL0     O12563  11.351   2.365   3.465  0.4213  0.0981 -0.4331
   94MOL0     C12564  11.417   2.234   3.477 -0.1851 -1.0966  0.3468
   94MOL0     C12565  11.519   2.222   3.367 -1.2722 -0.0388  0.0931
   94MOL0     C12566  11.627   2.339   3.356  0.8071 -0.0008 -0.2236
   94MOL0     C12567  11.754   2.305   3.279 -0.3661  0.0568  0.1220
   94MOL0     C12568  11.858   2.430   3.275 -1.7099 -0.0717  0.5373
   94MOL0     C12569  11.966   2.406   3.166 -0.3411 -0.0149 -0.0366
   94MOL0     C12570  12.084   2.502   3.150  0.4695 -0.1334 -0.5744
   94MOL0     C12571  12.167   2.493   3.280 -0.4245 -0.9801  0.4618
   94MOL0     N12572  12.260   2.378   3.283  0.1950  0.3616 -0.2484
   94MOL0     C12573  12.385   2.375   3.229 -0.9588  0.8446 -0.5461
   94MOL0     C12574  12.448   2.267   3.276 -0.2675 -0.1894 -0.1553
   94MOL0     C12575  12.598   2.256   3.298 -0.4951  0.4171 -0.2306
   94MOL0     C12576  12.680   2.219   3.174  0.1257 -1.0245 -0.0634
   94MOL0     C12577  12.705   2.339   3.086  0.6980 -0.4512  0.0954
   94MOL0     C12578  12.815   2.321   2.980 -0.5549  0.2028 -0.2692
   94MOL0     O12579  12.947   2.310   3.044  0.7310  0.4850 -0.1497
   94MOL0     C12580  13.046   2.405   3.041 -0.3214  0.3485  0.1269
   94MOL0     C12581  13.184   2.374   3.080  0.6393  0.2651  0.1306
   94MOL0     C12582  13.282   2.479   3.086 -0.0312  0.0092 -0.1224
   94MOL0     C12583  13.254   2.617   3.052  0.6596  0.0087 -0.7137
   94MOL0     C12584  13.347   2.731   3.068 -0.2128  1.0833 -0.5501
   94MOL0     O12585  13.298   2.858   3.065  0.1017  0.3187 -0.2610
   94MOL0     C12586  13.378   2.960   3.089 -0.6245 -0.6269 -0.4437
   94MOL0     C12587  13.338   3.067   3.162 -0.4609 -0.4503 -0.7527
   94MOL0     C12588  13.412   3.186   3.180 -0.2549  1.1215 -0.0696
   94MOL0     C12589  13.534   3.197   3.120 -0.0998 -0.4557  0.3997
   94MOL0     O12590  13.598   3.319   3.118 -0.3296 -0.2357 -0.4641
   94MOL0     C12591  13.740   3.313   3.131 -0.0993 -0.2514  0.9648
   94MOL0     C12592  13.796   3.452   3.117  0.1005  1.5820 -0.4266
   94MOL0     C12593  13.787   3.517   2.981  0.2231 -0.2877  0.1086
   94MOL0     C12594  13.864   3.433   2.871  0.4660 -0.3433  0.3851
   94MOL0     C12595  13.894   3.514   2.744  0.3511  0.7554  0.0790
   94MOL0     C12596  13.954   3.423   2.642  0.1268 -0.1463 -0.3087
   94MOL0     C12597  14.067   3.487   2.560 -0.0714  0.7354  0.3322
   94MOL0     C12598  14.025   3.600   2.462  0.0213 -0.0474  0.1262
   94MOL0    Cl12599  13.940   3.529   2.321  0.2584  0.1630  0.4167
   94MOL0     C12600  13.581   3.088   3.044  0.3359 -0.1314  0.0585
   94MOL0     C12601  13.505   2.974   3.021 -0.2338 -0.1460  0.9505
   94MOL0     O12602  13.469   2.701   3.093 -0.2395  0.8375  0.3025
   94MOL0     C12603  13.127   2.639   2.999  0.4439  0.1944  0.3842
   94MOL0     C12604  13.017   2.540   3.004 -0.1658  0.1489  0.1869
   94MOL0     N12605  12.350   2.192   3.339  0.3811 -0.1500 -0.6277
   94MOL0     N12606  12.238   2.259   3.341  0.4344  0.2752  1.0606
   94MOL0     C12607  11.244   2.369   3.679  0.0348  0.2787  0.4737
   94MOL0     C12608  11.144   2.419   3.763  0.4886 -0.1071 -0.0229
   94MOL0     C12609  10.776   2.624   3.959 -0.6076  1.0716  0.6859
   94MOL0     C12610  10.776   2.682   4.090 -0.5936 -0.2061  0.5690
   94MOL0     C12611  10.661   2.748   4.131 -0.6110 -0.5679  0.9590
   94MOL0     C12612  10.548   2.762   4.047 -0.3568 -0.0272 -0.6290
   94MOL0     O12613  10.429   2.809   4.084 -0.4193 -0.0029  0.6054
   94MOL0     C12614  10.401   2.834   4.225  0.2576 -0.2664  0.2401
   94MOL0     C12615  10.447   2.976   4.271  0.2282  0.5140 -0.8964
   94MOL0     C12616  10.380   3.099   4.197  0.0402  0.2471 -0.0814
   94MOL0     C12617  10.416   3.226   4.268  0.3524 -0.0259 -0.3355
   94MOL0     C12618  10.406   3.346   4.171  1.2968  0.3003 -0.8471
   94MOL0     C12619  10.417   3.441   4.096  0.2150  0.5977  0.4192
   94MOL0     C12620  10.546   2.710   3.930 -0.6895 -0.0004  0.4908
   94MOL0     C12621  10.657   2.637   3.876  0.4798  0.8192 -0.8383
   94MOL0     C12622  10.639   2.576   3.742  0.1891 -0.0627  0.2855
   94MOL0     H12623  11.014   2.642   3.536 -0.5847 -0.1639  0.2628
   94MOL0     H12624  11.208   2.563   3.416 -0.6868  0.7850 -0.0357
   94MOL0     H12625  11.456   2.216   3.578 -5.2019  2.6748  3.4943
   94MOL0     H12626  11.342   2.156   3.461 -0.6488 -0.5828 -0.0704
   94MOL0     H12627  11.471   2.232   3.270  0.1408  0.3645 -0.5886
   94MOL0     H12628  11.561   2.122   3.375  0.4573  0.4256 -2.2956
   94MOL0     H12629  11.652   2.386   3.452  0.6407 -0.6723  0.1534
   94MOL0     H12630  11.585   2.423   3.300  4.5710  0.5412 -2.5138
   94MOL0     H12631  11.816   2.225   3.320 -0.5046 -0.0632  0.0955
   94MOL0     H12632  11.725   2.278   3.177  0.3163  1.4292 -0.4759
   94MOL0     H12633  11.816   2.526   3.244  0.9705  2.1830  3.2649
   94MOL0     H12634  11.897   2.439   3.377  1.1834  2.4195 -0.6413
   94MOL0     H12635  12.006   2.304   3.174  0.7474  0.4830  1.2134
   94MOL0     H12636  11.916   2.431   3.072 -2.1715  1.9174  1.3600
   94MOL0     H12637  12.050   2.606   3.142  2.3264  0.4309 -1.9648
   94MOL0     H12638  12.142   2.477   3.061 -2.4380  0.4856 -2.7939
   94MOL0     H12639  12.219   2.589   3.277 -1.7577 -0.2301  0.2020
   94MOL0     H12640  12.101   2.505   3.366  0.9415  2.7492  1.1738
   94MOL0     H12641  12.441   2.463   3.200  0.3915  1.1488  2.6442
   94MOL0     H12642  12.634   2.349   3.341  1.5576 -0.3891 -0.0680
   94MOL0     H12643  12.602   2.171   3.368 -1.8450  0.9820  0.5795
   94MOL0     H12644  12.779   2.179   3.197  0.9767  1.7306  1.5254
   94MOL0     H12645  12.624   2.141   3.122  2.7713 -2.5026 -0.8673
   94MOL0     H12646  12.729   2.427   3.145 -1.0712 -0.8509  1.5323
   94MOL0     H12647  12.616   2.354   3.024  0.1869 -2.1618  0.3399
   94MOL0     H12648  12.821   2.400   2.905  0.8145 -1.4830 -2.0480
   94MOL0     H12649  12.791   2.228   2.928  1.8340  0.2867 -1.6834
   94MOL0     H12650  13.216   2.276   3.114  2.2828  0.7239  0.0185
   94MOL0     H12651  13.381   2.442   3.110  1.2987  1.1748 -3.2883
   94MOL0     H12652  13.238   3.071   3.204  0.5948  1.5898  1.7919
   94MOL0     H12653  13.376   3.270   3.238 -1.7424  0.2901  0.2875
   94MOL0     H12654  13.759   3.262   3.226 -1.8254 -0.3514  1.2950
   94MOL0     H12655  13.787   3.258   3.049  2.2214  1.3045  1.1420
   94MOL0     H12656  13.745   3.515   3.190  0.1688 -0.5472  1.6060
   94MOL0     H12657  13.897   3.465   3.157  0.1816  0.3779 -0.1940
   94MOL0     H12658  13.683   3.521   2.947  0.3920  0.5838 -0.3274
   94MOL0     H12659  13.842   3.610   2.995 -0.4816  0.1308  0.1189
   94MOL0     H12660  13.795   3.357   2.834 -3.7619  4.0738 -1.9928
   94MOL0     H12661  13.949   3.382   2.918  0.0552 -1.7064 -0.3045
   94MOL0     H12662  13.956   3.599   2.773  0.3823  0.9583 -0.5644
   94MOL0     H12663  13.796   3.551   2.711  1.5182  2.5449 -1.5182
   94MOL0     H12664  14.003   3.343   2.697 -0.6658 -0.6869 -0.3665
   94MOL0     H12665  13.882   3.374   2.576 -0.3643 -1.0524  0.8566
   94MOL0     H12666  14.126   3.419   2.498 -1.1248  0.1355 -0.0354
   94MOL0     H12667  14.147   3.531   2.620  0.1392  0.8426 -0.0286
   94MOL0     H12668  13.961   3.672   2.515  0.6387 -0.1491  1.0424
   94MOL0     H12669  14.110   3.660   2.429  0.2152  1.0778  2.4129
   94MOL0     H12670  13.673   3.097   2.988  0.3511  0.1744  0.1330
   94MOL0     H12671  13.545   2.905   2.947  0.9459  0.1328  1.3049
   94MOL0     H12672  13.094   2.738   2.969  0.4456  0.6225  1.7248
   94MOL0     H12673  12.914   2.573   2.996 -0.0574  0.9939  1.6998
   94MOL0     H12674  11.313   2.298   3.724 -0.4339  0.2263  1.1301
   94MOL0     H12675  11.132   2.366   3.856  0.1744 -1.0011 -0.5627
   94MOL0     H12676  10.868   2.686   4.148 -0.0391  0.6550 -0.3554
   94MOL0     H12677  10.670   2.805   4.223  2.0408 -0.7678  0.9196
   94MOL0     H12678  10.439   2.754   4.289  0.8941  1.3360  1.9590
   94MOL0     H12679  10.291   2.835   4.226  0.1481 -3.3242  0.7093
   94MOL0     H12680  10.555   2.980   4.253  0.2972 -0.4385 -0.7534
   94MOL0     H12681  10.426   2.976   4.378  0.5406 -0.3863 -0.8217
   94MOL0     H12682  10.271   3.086   4.190  0.4414 -3.6926 -1.1586
   94MOL0     H12683  10.418   3.108   4.095  0.2466  1.2184  0.0679
   94MOL0     H12684  10.331   3.245   4.334 -2.0031  0.8269 -3.3980
   94MOL0     H12685  10.514   3.218   4.315 -1.1857 -2.1369  2.8795
   94MOL0     H12686  10.431   3.527   4.032 -2.1783 -0.3709 -1.5985
   94MOL0     H12687  10.459   2.727   3.867 -1.0491  0.6495  1.1488
   94MOL0     H12688  10.694   2.631   3.665 -1.7200 -0.2442 -1.2795
   94MOL0     H12689  10.677   2.473   3.745  1.0713  0.1645 -1.5820
   94MOL0     H12690  10.537   2.591   3.707  0.7023 -1.2659 -1.9839
   95MOL0     O12691   2.150  11.085   8.373 -0.2781 -0.1990  0.3514
   95MOL0     C12692   2.236  11.165   8.404  1.2125  0.0910 -0.6031
   95MOL0     O12693   2.203  11.276   8.472 -0.0330 -0.4910 -0.0636
   95MOL0     C12694   2.077  11.322   8.499  1.2948 -0.6538 -0.0498
   95MOL0     C12695   1.957  11.308   8.416  1.0491  0.0656 -0.1268
   95MOL0     C12696   1.834  11.363   8.460 -0.8880  0.3320  1.1796
   95MOL0     C12697   1.825  11.441   8.579 -0.1140  0.1945 -0.4059
   95MOL0     O12698   1.694  11.474   8.608 -0.2889 -0.1115  0.1073
   95MOL0     C12699   1.671  11.527   8.741 -0.3246  0.6329  0.0373
   95MOL0     C12700   1.523  11.529   8.784  0.3418 -0.4757 -1.0518
   95MOL0     C12701   1.433  11.407   8.750 -0.6078  0.8271 -0.0605
   95MOL0     C12702   1.493  11.269   8.812 -0.0632  0.0559  1.1448
   95MOL0     C12703   1.374  11.164   8.809  0.0761  0.3527  0.0478
   95MOL0     C12704   1.409  11.033   8.890 -1.3568  0.4279 -0.6184
   95MOL0     C12705   1.514  10.927   8.821  0.0296 -0.1780  0.4771
   95MOL0     C12706   1.552  10.800   8.906 -0.2059  0.4842  0.3871
   95MOL0     N12707   1.689  10.765   8.867 -0.0769  0.3353  0.1628
   95MOL0     C12708   1.732  10.757   8.738 -0.9262  0.0895 -0.2771
   95MOL0     C12709   1.868  10.739   8.743  0.0916  0.0902 -0.2073
   95MOL0     C12710   1.951  10.733   8.622 -0.7384  0.3786 -0.0724
   95MOL0     C12711   2.105  10.737   8.667  0.3706  0.2482  0.3513
   95MOL0     C12712   2.200  10.768   8.554  0.0573 -0.3659 -0.2178
   95MOL0     C12713   2.348  10.728   8.586  0.4817 -0.5602 -0.5984
   95MOL0     O12714   2.388  10.816   8.695  0.0650  0.1387 -0.2061
   95MOL0     C12715   2.523  10.814   8.723 -0.2153  0.0309  0.5823
   95MOL0     C12716   2.575  10.733   8.822 -0.1125 -0.4649 -0.0549
   95MOL0     C12717   2.711  10.741   8.853 -0.8584 -0.1516  0.7714
   95MOL0     C12718   2.804  10.809   8.776  0.1915  0.3030  0.0211
   95MOL0     C12719   2.946  10.818   8.821 -0.5035  0.7138  0.0608
   95MOL0     O12720   2.978  10.795   8.952  0.3958 -0.1312  0.1137
   95MOL0     C12721   3.105  10.839   9.002 -0.0097 -0.3297 -0.9042
   95MOL0     C12722   3.187  10.940   8.942  0.3038 -0.1725 -0.5078
   95MOL0     C12723   3.315  10.979   8.999  0.5804 -0.4989  0.2925
   95MOL0     C12724   3.366  10.909   9.111 -0.1179  0.7392  0.2400
   95MOL0     O12725   3.488  10.928   9.165  1.0787  0.8481  0.5632
   95MOL0     C12726   3.571  11.033   9.132 -0.0418 -0.2587  0.1488
   95MOL0     C12727   3.704  11.028   9.215 -0.7225 -0.0160  0.8305
   95MOL0     C12728   3.786  11.140   9.151  0.4773 -0.5138  0.0513
   95MOL0     C12729   3.933  11.140   9.206 -0.0564  0.3759 -0.2959
   95MOL0     C12730   4.027  11.100   9.098 -0.1516  0.0370  0.7315
   95MOL0     C12731   4.173  11.072   9.142 -0.5712 -0.1610  1.0018
   95MOL0     C12732   4.175  10.933   9.218  0.0558  0.5879  0.4637
   95MOL0     C12733   4.309  10.852   9.220  1.0873  0.0280  0.3975
   95MOL0    Cl12734   4.428  10.946   9.286 -0.0651  0.1831  0.0983
   95MOL0     C12735   3.285  10.811   9.165 -0.2726 -0.9221 -0.7947
   95MOL0     C12736   3.160  10.777   9.113  0.6626 -0.2192 -0.9047
   95MOL0     O12737   3.024  10.811   8.728 -0.1178 -0.8657  1.2196
   95MOL0     C12738   2.755  10.864   8.659 -0.0118 -0.2888 -0.2937
   95MOL0     C12739   2.621  10.866   8.634  0.5015 -0.4264 -0.3110
   95MOL0     N12740   1.902  10.728   8.880  0.5811  0.2980 -0.3245
   95MOL0     N12741   1.791  10.750   8.958 -0.5650  0.5731  0.2146
   95MOL0     C12742   1.939  11.470   8.648 -0.9044 -0.4664 -1.2319
   95MOL0     C12743   2.059  11.411   8.607  0.8825 -1.1928 -0.0678
   95MOL0     C12744   2.381  11.127   8.377  0.0837  0.3033 -0.4027
   95MOL0     C12745   2.482  11.181   8.452 -0.4066 -0.5819  0.5734
   95MOL0     C12746   2.610  11.146   8.432 -0.8686  0.3725  0.8747
   95MOL0     C12747   2.645  11.048   8.333  0.9220  0.2403 -0.2011
   95MOL0     O12748   2.776  11.020   8.304 -0.5864 -0.1904  0.0694
   95MOL0     C12749   2.847  11.109   8.224  0.6954 -0.4533 -0.4023
   95MOL0     C12750   2.971  11.039   8.153  0.5550  0.3572 -0.3819
   95MOL0     C12751   2.945  10.907   8.073  0.9304 -0.0416 -0.5742
   95MOL0     C12752   2.991  10.776   8.133 -0.8850  1.6451  0.8462
   95MOL0     C12753   2.924  10.752   8.253  0.7056  0.1823  0.1494
   95MOL0     C12754   2.870  10.726   8.358  0.1240  0.2165 -1.2593
   95MOL0     C12755   2.541  10.989   8.260  0.0867 -0.1623  0.1382
   95MOL0     C12756   2.403  11.032   8.277  0.9048 -0.2793 -1.0657
   95MOL0     C12757   2.311  10.969   8.166 -0.1302  0.5512  0.4004
   95MOL0     H12758   1.959  11.259   8.319  4.5406  1.2573 -0.8225
   95MOL0     H12759   1.749  11.356   8.393 -2.5848 -0.7608  3.3347
   95MOL0     H12760   1.732  11.467   8.809 -2.1635 -1.4696 -0.0808
   95MOL0     H12761   1.714  11.628   8.738  2.6141 -0.4215  1.8599
   95MOL0     H12762   1.469  11.610   8.734 -2.4799 -2.0396 -0.7758
   95MOL0     H12763   1.516  11.549   8.891  0.6344 -0.5812 -1.0133
   95MOL0     H12764   1.404  11.404   8.644 -2.1887  1.7865  0.3182
   95MOL0     H12765   1.338  11.422   8.803 -0.0050  0.1645  1.2390
   95MOL0     H12766   1.577  11.242   8.747 -2.1891  0.3433 -1.9435
   95MOL0     H12767   1.535  11.283   8.912  0.4615  2.5150  0.6511
   95MOL0     H12768   1.291  11.212   8.862  0.6616  0.2974  1.0441
   95MOL0     H12769   1.344  11.141   8.707  0.5012  0.7997 -0.1805
   95MOL0     H12770   1.448  11.063   8.987  0.5110 -1.1612 -0.8200
   95MOL0     H12771   1.319  10.973   8.904 -1.5043  0.7111 -0.3411
   95MOL0     H12772   1.611  10.977   8.810 -0.5059  0.8042  0.0746
   95MOL0     H12773   1.481  10.893   8.723  0.3048 -0.0879  0.3516
   95MOL0     H12774   1.554  10.828   9.012  1.7250  2.0046  0.0346
   95MOL0     H12775   1.484  10.721   8.874  0.6687  0.7096 -2.3091
   95MOL0     H12776   1.659  10.761   8.658 -1.5432 -2.6413  0.0467
   95MOL0     H12777   1.931  10.637   8.575  0.1825  0.2836 -0.2885
   95MOL0     H12778   1.925  10.811   8.549 -2.1412 -1.5868 -1.8149
   95MOL0     H12779   2.113  10.817   8.740 -2.5812 -0.6187  1.7577
   95MOL0     H12780   2.124  10.638   8.709 -0.5633 -1.1861 -2.3290
   95MOL0     H12781   2.200  10.877   8.546  0.2694 -0.3511  0.0036
   95MOL0     H12782   2.179  10.731   8.453  3.3519  2.4334 -2.1233
   95MOL0     H12783   2.413  10.751   8.501  3.5588 -0.5301  1.6008
   95MOL0     H12784   2.349  10.620   8.603 -1.6052 -0.8229 -1.7200
   95MOL0     H12785   2.501  10.672   8.874 -0.5584 -1.1151 -1.3974
   95MOL0     H12786   2.754  10.693   8.940 -0.8577 -0.7377  0.4505
   95MOL0     H12787   3.147  10.999   8.860 -1.4400 -0.7104 -0.0899
   95MOL0     H12788   3.373  11.048   8.940 -2.6794  1.9778 -0.2822
   95MOL0     H12789   3.605  11.027   9.028  0.3499 -0.9505  0.3108
   95MOL0     H12790   3.525  11.132   9.138 -1.9900 -1.0552 -0.8499
   95MOL0     H12791   3.669  11.042   9.318  0.8769  0.7271  1.3057
   95MOL0     H12792   3.754  10.933   9.201 -1.4615 -0.4165  0.8444
   95MOL0     H12793   3.795  11.131   9.042  4.1816 -0.3314  0.1853
   95MOL0     H12794   3.748  11.240   9.174 -1.1676 -0.8752 -0.9787
   95MOL0     H12795   3.936  11.069   9.288 -0.2842 -0.7389 -1.2284
   95MOL0     H12796   3.962  11.231   9.260  0.6015 -1.0474  1.8690
   95MOL0     H12797   4.026  11.185   9.029 -3.8052 -3.1773 -3.8170
   95MOL0     H12798   3.989  11.010   9.047 -1.2065 -0.7689  2.8172
   95MOL0     H12799   4.235  11.074   9.051  0.2744 -1.8458  1.5084
   95MOL0     H12800   4.212  11.150   9.207 -2.7640  0.2238  1.9543
   95MOL0     H12801   4.097  10.863   9.186 -0.0496 -0.8278  3.4217
   95MOL0     H12802   4.142  10.968   9.316 -2.5440  1.6561 -0.6972
   95MOL0     H12803   4.296  10.758   9.274  0.6623  0.2908  0.7545
   95MOL0     H12804   4.351  10.835   9.120 -1.3306 -1.4934 -0.4334
   95MOL0     H12805   3.325  10.770   9.257 -0.4049 -3.4993 -1.8152
   95MOL0     H12806   3.090  10.711   9.163  0.4080 -0.1471 -1.1644
   95MOL0     H12807   2.819  10.927   8.598 -3.4486  2.0269 -1.8547
   95MOL0     H12808   2.597  10.908   8.537 -1.0310  2.3039  1.1343
   95MOL0     H12809   1.939  11.537   8.734  2.7512 -0.7330 -0.8967
   95MOL0     H12810   2.142  11.441   8.671  0.1083 -1.2298  0.9733
   95MOL0     H12811   2.451  11.261   8.519  2.6056 -1.1543  2.9043
   95MOL0     H12812   2.697  11.190   8.481 -0.8810  0.0828  1.1619
   95MOL0     H12813   2.882  11.193   8.285  0.5138 -0.8877  0.3079
   95MOL0     H12814   2.769  11.141   8.154  1.3384  0.0590 -0.8991
   95MOL0     H12815   3.063  11.035   8.213 -1.1574 -0.1367  2.3780
   95MOL0     H12816   3.011  11.118   8.089  1.9974  0.5399  0.6848
   95MOL0     H12817   2.989  10.908   7.973  1.4006 -0.5755 -0.3796
   95MOL0     H12818   2.836  10.907   8.067  0.7900 -1.0657  1.2571
   95MOL0     H12819   2.949  10.699   8.067 -2.9126  3.0610  0.4108
   95MOL0     H12820   3.100  10.764   8.127 -1.1993 -1.3671 -1.3127
   95MOL0     H12821   2.835  10.700   8.456  2.9835 -0.5707 -0.3371
   95MOL0     H12822   2.569  10.912   8.188 -2.3006  1.8317 -3.2076
   95MOL0     H12823   2.363  10.970   8.070  0.7455  1.7160  0.8629
   95MOL0     H12824   2.289  10.870   8.205  3.2852 -1.3262 -1.9320
   95MOL0     H12825   2.223  11.031   8.149 -0.2151  0.4298  0.3977
   96MOL0     O12826   0.870   4.898   1.908 -0.1687 -0.4552 -0.4562
   96MOL0     C12827   0.838   4.786   1.940  0.0808  0.9732 -0.5025
   96MOL0     O12828   0.918   4.678   1.941 -0.7213 -0.2189  0.0093
   96MOL0     C12829   1.040   4.657   1.870  0.1742 -0.1171  0.4507
   96MOL0     C12830   1.081   4.521   1.863 -0.0749 -0.5523 -0.1669
   96MOL0     C12831   1.206   4.492   1.802 -0.3752  0.4874  0.0673
   96MOL0     C12832   1.273   4.590   1.733 -0.5447  0.3325  0.4043
   96MOL0     O12833   1.374   4.545   1.653  0.0519 -0.8126  0.4209
   96MOL0     C12834   1.467   4.632   1.584  0.2101 -0.4147 -0.2058
   96MOL0     C12835   1.606   4.576   1.573 -0.2101  0.5162  0.1952
   96MOL0     C12836   1.693   4.587   1.691 -0.1658 -0.0001  0.5873
   96MOL0     C12837   1.828   4.527   1.671 -0.7072  1.0070 -0.4373
   96MOL0     C12838   1.906   4.515   1.806 -0.8316 -0.4097 -0.2097
   96MOL0     C12839   2.044   4.444   1.780  0.8777  0.2613 -0.1115
   96MOL0     C12840   2.130   4.450   1.904  0.1157  0.3771 -0.6514
   96MOL0     C12841   2.210   4.578   1.908  1.0076  1.2723  0.2798
   96MOL0     N12842   2.332   4.570   1.827 -0.4072 -0.4847  0.2057
   96MOL0     C12843   2.355   4.571   1.692 -0.4089 -1.2648 -0.3949
   96MOL0     C12844   2.496   4.564   1.678 -0.6437  0.2046 -0.6216
   96MOL0     C12845   2.578   4.551   1.557  0.2435  0.2797  0.3902
   96MOL0     C12846   2.687   4.663   1.555  0.2311 -0.2956  0.7630
   96MOL0     C12847   2.822   4.621   1.509 -0.4465  0.8682  1.3668
   96MOL0     C12848   2.938   4.718   1.523 -0.5134  0.4864 -0.6256
   96MOL0     O12849   3.063   4.653   1.482 -0.6519 -0.5176  0.1293
   96MOL0     C12850   3.179   4.724   1.522  0.4575 -0.2535  0.4475
   96MOL0     C12851   3.170   4.863   1.537 -1.0421  0.0634 -1.1980
   96MOL0     C12852   3.283   4.937   1.567  0.4163 -0.7715 -0.1624
   96MOL0     C12853   3.403   4.866   1.596  0.2058  0.5536  0.6471
   96MOL0     C12854   3.522   4.939   1.633  0.0032 -0.4773 -0.2062
   96MOL0     O12855   3.617   4.876   1.702 -0.3966 -0.3531 -0.4941
   96MOL0     C12856   3.738   4.942   1.703 -0.2267  0.3052  0.3450
   96MOL0     C12857   3.825   4.923   1.595 -0.4430 -0.4320  0.1676
   96MOL0     C12858   3.941   4.998   1.592  0.5801 -0.2327  0.5115
   96MOL0     C12859   3.984   5.087   1.690  0.5086 -0.1237  0.1617
   96MOL0     O12860   4.116   5.119   1.686  0.4887  0.0365 -0.8831
   96MOL0     C12861   4.169   5.226   1.768 -0.7001 -0.0146  0.3119
   96MOL0     C12862   4.303   5.258   1.704 -0.1699 -1.0538 -0.7478
   96MOL0     C12863   4.373   5.380   1.760  0.9062  0.4750 -0.1091
   96MOL0     C12864   4.527   5.380   1.720  0.1125  0.2820  0.5571
   96MOL0     C12865   4.562   5.529   1.695  0.2472 -0.7272  0.0804
   96MOL0     C12866   4.706   5.546   1.647 -0.5202 -0.4965 -0.2291
   96MOL0     C12867   4.744   5.698   1.661  0.3253 -0.4448  0.2723
   96MOL0     C12868   4.881   5.725   1.605 -0.4817  0.4382  0.5597
   96MOL0    Cl12869   4.874   5.704   1.421 -0.2161 -0.5816  0.2440
   96MOL0     C12870   3.892   5.112   1.794  0.3175  0.9290  0.3708
   96MOL0     C12871   3.770   5.035   1.800 -0.7742 -0.3610  0.5554
   96MOL0     O12872   3.531   5.051   1.589  0.6666  0.5235 -0.6762
   96MOL0     C12873   3.405   4.727   1.586 -0.9030  0.1629  0.1404
   96MOL0     C12874   3.299   4.656   1.540 -0.7184 -0.2486  0.0936
   96MOL0     N12875   2.548   4.550   1.803  0.0065  0.5390  0.1637
   96MOL0     N12876   2.456   4.556   1.893  0.1916  0.3218  0.0418
   96MOL0     C12877   1.232   4.723   1.736 -0.1460  0.1653 -0.6048
   96MOL0     C12878   1.115   4.760   1.808 -0.4392  0.2715 -0.1326
   96MOL0     C12879   0.703   4.768   2.006  0.1900  0.6649 -0.8105
   96MOL0     C12880   0.686   4.797   2.147 -0.5088 -0.1163  1.4738
   96MOL0     C12881   0.565   4.791   2.209  0.2885  0.3508  1.2139
   96MOL0     C12882   0.456   4.732   2.135  0.0683 -0.4932  0.0732
   96MOL0     O12883   0.337   4.716   2.195 -0.0860  0.1820  0.0859
   96MOL0     C12884   0.262   4.843   2.182  0.1234  0.3062 -0.5290
   96MOL0     C12885   0.157   4.842   2.299 -0.0575  0.1187  0.6677
   96MOL0     C12886   0.046   4.744   2.286 -0.1014  1.2700 -0.2424
   96MOL0     C12887  -0.049   4.751   2.411  0.5573  0.0832 -0.8658
   96MOL0     C12888  -0.072   4.884   2.469 -0.2612  0.2077  0.0368
   96MOL0     C12889  -0.108   4.993   2.515 -0.3723  0.2859  0.3140
   96MOL0     C12890   0.472   4.700   2.004  0.2567  0.2355 -0.2606
   96MOL0     C12891   0.590   4.726   1.934  0.6277 -0.2682  0.4110
   96MOL0     C12892   0.600   4.714   1.786 -0.5647 -0.4166 -0.3088
   96MOL0     H12893   1.024   4.444   1.913  1.0343 -1.3518 -0.0944
   96MOL0     H12894   1.246   4.391   1.799  0.5316  0.8637 -1.0050
   96MOL0     H12895   1.421   4.639   1.485 -1.6573  0.1146  0.6426
   96MOL0     H12896   1.471   4.731   1.631 -1.5558 -0.6006  0.4433
   96MOL0     H12897   1.648   4.636   1.492  1.1297 -0.7384 -0.0782
   96MOL0     H12898   1.606   4.474   1.533  0.5188  0.5392  0.1267
   96MOL0     H12899   1.647   4.536   1.776  1.1257 -4.1942 -0.9613
   96MOL0     H12900   1.699   4.691   1.725  1.4701 -0.4795  1.9008
   96MOL0     H12901   1.835   4.432   1.617  2.1464  1.4385 -1.0196
   96MOL0     H12902   1.874   4.593   1.597 -2.5850 -0.0539 -2.6805
   96MOL0     H12903   1.919   4.615   1.847 -2.4948  0.4766 -1.6934
   96MOL0     H12904   1.848   4.455   1.877  1.4366 -3.2634 -0.5967
   96MOL0     H12905   2.010   4.344   1.750 -3.9304  1.2857  1.0953
   96MOL0     H12906   2.104   4.491   1.702  1.2213  2.0334  1.1706
   96MOL0     H12907   2.199   4.367   1.887  1.5849  1.5968 -0.8188
   96MOL0     H12908   2.066   4.428   1.990  0.2706 -0.9682 -0.8624
   96MOL0     H12909   2.151   4.655   1.858  2.0935  0.4427 -2.4602
   96MOL0     H12910   2.231   4.624   2.005 -2.8530  0.8116  1.5092
   96MOL0     H12911   2.285   4.576   1.609 -1.9389  0.8202  0.9130
   96MOL0     H12912   2.625   4.453   1.561 -2.6486 -1.2355 -0.1732
   96MOL0     H12913   2.523   4.563   1.463 -1.2317 -1.7310  0.9341
   96MOL0     H12914   2.653   4.740   1.485 -0.9191 -0.2559  1.3424
   96MOL0     H12915   2.697   4.712   1.653  0.2155  2.9205 -0.7165
   96MOL0     H12916   2.825   4.612   1.400 -1.5461 -2.3735  1.4819
   96MOL0     H12917   2.845   4.520   1.546  0.0165  1.1161  1.7602
   96MOL0     H12918   2.952   4.749   1.627 -3.2686 -1.1731  0.3668
   96MOL0     H12919   2.916   4.802   1.457 -2.0478 -1.3222 -2.5530
   96MOL0     H12920   3.079   4.916   1.514 -2.2396 -2.4058 -2.5488
   96MOL0     H12921   3.262   5.044   1.570 -2.5374 -1.2479 -0.2183
   96MOL0     H12922   3.828   4.842   1.523 -3.8338 -1.2948  0.8391
   96MOL0     H12923   4.011   4.974   1.513  1.0473  1.5179  0.3682
   96MOL0     H12924   4.100   5.310   1.758  0.7715  0.9696 -2.7837
   96MOL0     H12925   4.175   5.196   1.873 -1.0666  0.5300  0.4913
   96MOL0     H12926   4.360   5.166   1.719 -1.9035 -2.1041 -0.2679
   96MOL0     H12927   4.303   5.293   1.600  1.0050  2.9758  0.4427
   96MOL0     H12928   4.329   5.459   1.697  2.5112  0.3422 -1.4589
   96MOL0     H12929   4.358   5.405   1.865  0.4684  2.9800 -0.7073
   96MOL0     H12930   4.537   5.330   1.623 -3.3745  0.2117  0.1064
   96MOL0     H12931   4.604   5.337   1.784  1.1545 -0.5593 -1.1861
   96MOL0     H12932   4.544   5.578   1.791  2.2561  0.7125 -0.2153
   96MOL0     H12933   4.502   5.592   1.628 -2.2707  2.4168  4.7361
   96MOL0     H12934   4.768   5.485   1.713 -2.1110 -1.3003  0.5796
   96MOL0     H12935   4.720   5.507   1.545  0.1288  1.4321 -0.9314
   96MOL0     H12936   4.744   5.731   1.765  1.1406 -1.7487  0.7275
   96MOL0     H12937   4.668   5.752   1.604  0.9622 -0.2592 -0.4213
   96MOL0     H12938   4.916   5.827   1.625  0.0524  0.4957 -0.6023
   96MOL0     H12939   4.960   5.662   1.645  1.6231  2.1310 -0.6997
   96MOL0     H12940   3.908   5.190   1.868 -0.6630  0.9853  0.5309
   96MOL0     H12941   3.703   5.074   1.877 -1.5596  0.1976 -0.3966
   96MOL0     H12942   3.502   4.680   1.596 -0.0965  1.2178 -2.0651
   96MOL0     H12943   3.318   4.553   1.513  0.6369 -0.2299  0.9048
   96MOL0     H12944   1.282   4.793   1.669  1.7473 -2.6526 -2.3557
   96MOL0     H12945   1.078   4.862   1.807 -2.9819 -0.6043 -1.0936
   96MOL0     H12946   0.775   4.831   2.200 -0.1838  1.6249 -0.0667
   96MOL0     H12947   0.542   4.822   2.310 -2.1340  3.9368 -0.2472
   96MOL0     H12948   0.213   4.840   2.084  0.1302 -3.0368 -0.5535
   96MOL0     H12949   0.324   4.932   2.195 -0.1941  0.2956  1.3252
   96MOL0     H12950   0.119   4.944   2.304 -0.4234  0.3475 -3.3740
   96MOL0     H12951   0.215   4.819   2.388 -1.2683 -1.5026  1.0841
   96MOL0     H12952   0.082   4.641   2.284 -0.6908  1.0042  1.1305
   96MOL0     H12953  -0.011   4.757   2.194 -1.1186  0.2368  0.2193
   96MOL0     H12954  -0.153   4.720   2.395  0.7760 -0.3189 -1.5701
   96MOL0     H12955  -0.007   4.676   2.479  1.6722  0.1268 -1.4834
   96MOL0     H12956  -0.141   5.089   2.551 -0.6950  0.6351 -0.8650
   96MOL0     H12957   0.383   4.665   1.953  0.0434  0.1449  0.1774
   96MOL0     H12958   0.523   4.772   1.734 -0.5212  0.0611  0.1481
   96MOL0     H12959   0.689   4.758   1.742 -1.2715 -1.4338 -2.9766
   96MOL0     H12960   0.604   4.610   1.752 -0.0274  0.3752 -2.9033
   97MOL0     O12961  11.297   7.418   6.656 -0.5452  0.0470  0.5446
   97MOL0     C12962  11.219   7.452   6.747  0.1850  0.2902 -0.0329
   97MOL0     O12963  11.253   7.441   6.875  0.2860  0.1274 -0.1125
   97MOL0     C12964  11.382   7.408   6.927  0.5380 -0.1245  0.1982
   97MOL0     C12965  11.503   7.433   6.856  0.0034 -0.5246  0.4070
   97MOL0     C12966  11.623   7.429   6.920 -0.8637  0.4039  0.0402
   97MOL0     C12967  11.626   7.377   7.047  0.0401  0.3838 -0.0598
   97MOL0     O12968  11.740   7.365   7.116  0.1711  0.2241  0.1037
   97MOL0     C12969  11.767   7.248   7.196  0.0882  0.4382  0.5360
   97MOL0     C12970  11.887   7.279   7.293 -0.0081 -0.0872 -0.3107
   97MOL0     C12971  12.016   7.278   7.225  0.1036  0.0927  0.2200
   97MOL0     C12972  12.126   7.320   7.317 -0.2931  0.8771  0.2285
   97MOL0     C12973  12.263   7.309   7.258 -0.6516 -0.3759 -0.1000
   97MOL0     C12974  12.375   7.339   7.357 -0.1996  0.5959 -0.2527
   97MOL0     C12975  12.514   7.369   7.292  0.3805  0.4328 -0.8586
   97MOL0     C12976  12.589   7.415   7.409  0.2653 -0.7068  0.2886
   97MOL0     N12977  12.719   7.479   7.366  0.4529  1.1675 -0.2169
   97MOL0     C12978  12.840   7.420   7.402 -0.0224  0.2343  0.1863
   97MOL0     C12979  12.931   7.493   7.340 -0.0909 -0.4321  0.1146
   97MOL0     C12980  13.077   7.488   7.363 -0.5022  0.2993  0.0426
   97MOL0     C12981  13.153   7.617   7.417 -0.2319 -0.1685 -0.1514
   97MOL0     C12982  13.303   7.582   7.448  0.1967 -1.0684  0.7529
   97MOL0     C12983  13.389   7.568   7.327 -0.1682 -1.1239  0.0524
   97MOL0     O12984  13.509   7.503   7.370  0.1476 -0.3799  0.2362
   97MOL0     C12985  13.598   7.573   7.444  0.2185  0.2952  0.4829
   97MOL0     C12986  13.658   7.695   7.416  0.4069 -0.1731  0.5408
   97MOL0     C12987  13.765   7.739   7.496  0.6063  0.4699  0.3253
   97MOL0     C12988  13.819   7.653   7.598  0.3455 -0.2057 -0.3045
   97MOL0     C12989  13.937   7.689   7.672 -0.5567 -0.2418 -0.0521
   97MOL0     O12990  13.985   7.818   7.666  0.4321 -0.6674  0.0770
   97MOL0     C12991  14.083   7.853   7.760  0.1915  1.2010 -1.0310
   97MOL0     C12992  14.209   7.880   7.721  0.0804 -0.9018  0.2943
   97MOL0     C12993  14.306   7.910   7.810  0.1046  0.9361  0.2419
   97MOL0     C12994  14.284   7.902   7.951  0.8269  0.5242 -0.1466
   97MOL0     O12995  14.368   7.934   8.052  0.3562  0.2476  0.5462
   97MOL0     C12996  14.473   8.016   8.021 -0.0984 -0.1487  0.0224
   97MOL0     C12997  14.599   7.935   8.045 -0.0427 -0.0522  0.2347
   97MOL0     C12998  14.721   8.030   8.061 -0.6916  0.2972  0.4402
   97MOL0     C12999  14.763   8.108   7.934 -0.1787 -1.1913  0.3792
   97MOL0     C13000  14.900   8.173   7.955 -0.0964 -0.0200 -0.2199
   97MOL0     C13001  14.934   8.270   7.843 -0.4120  0.3235 -0.2065
   97MOL0     C13002  15.091   8.286   7.850  0.1902 -0.5739  0.3818
   97MOL0     C13003  15.146   8.332   7.717 -0.0435 -0.4486 -0.0022
   97MOL0    Cl13004  15.319   8.386   7.744 -0.0568  0.4340  0.3775
   97MOL0     C13005  14.157   7.865   7.996  0.5590 -0.2792  0.0706
   97MOL0     C13006  14.055   7.848   7.899  0.5855  0.6217  0.1330
   97MOL0     O13007  13.988   7.597   7.737  0.7013 -0.0716  0.3233
   97MOL0     C13008  13.761   7.531   7.617  0.4549  0.9621  0.2610
   97MOL0     C13009  13.648   7.492   7.547  0.0287  0.3404 -0.3237
   97MOL0     N13010  12.865   7.585   7.268 -0.5315 -0.0675 -0.3320
   97MOL0     N13011  12.739   7.569   7.274  0.2370 -0.1762 -0.7859
   97MOL0     C13012  11.505   7.341   7.110 -0.0775  0.0591  0.9556
   97MOL0     C13013  11.384   7.354   7.052 -0.1368  1.3075  0.3156
   97MOL0     C13014  11.073   7.476   6.719 -0.2849 -0.0508  0.3894
   97MOL0     C13015  10.986   7.447   6.821  0.5085  0.3984 -0.2871
   97MOL0     C13016  10.846   7.464   6.829  0.7190  0.7819  0.3956
   97MOL0     C13017  10.787   7.512   6.710  0.1168 -0.5654  0.5743
   97MOL0     O13018  10.663   7.544   6.687  0.4248  0.1021 -0.7521
   97MOL0     C13019  10.580   7.598   6.799  0.0787 -0.1805  0.6512
   97MOL0     C13020  10.449   7.531   6.822 -0.3999  0.2230  0.8344
   97MOL0     C13021  10.360   7.537   6.698  0.3860 -0.3092 -0.0170
   97MOL0     C13022  10.248   7.435   6.700  0.5734 -0.1792  0.0619
   97MOL0     C13023  10.162   7.457   6.807 -0.3994  0.4786 -0.3675
   97MOL0     C13024  10.082   7.489   6.896 -0.0533 -0.7506 -0.0007
   97MOL0     C13025  10.869   7.543   6.595 -0.6290 -0.6921  0.1639
   97MOL0     C13026  11.011   7.519   6.594  0.7581 -0.8232  0.4159
   97MOL0     C13027  11.084   7.554   6.463 -0.7480 -0.2318 -0.5505
   97MOL0     H13028  11.506   7.472   6.755  2.1019 -0.4018  0.4652
   97MOL0     H13029  11.715   7.460   6.871  0.9753 -3.3337  0.8079
   97MOL0     H13030  11.683   7.220   7.260 -0.6602  2.3793  0.4749
   97MOL0     H13031  11.782   7.161   7.131 -1.9158  1.5113 -1.5249
   97MOL0     H13032  11.875   7.207   7.374  1.7303  1.5897  1.5277
   97MOL0     H13033  11.871   7.377   7.340 -0.5458  0.5583 -1.7435
   97MOL0     H13034  12.019   7.348   7.141  1.8214  0.6152  0.6743
   97MOL0     H13035  12.027   7.177   7.185 -3.7468  0.3848 -2.0691
   97MOL0     H13036  12.115   7.427   7.334  0.0804  1.5955 -3.3255
   97MOL0     H13037  12.124   7.262   7.410 -0.7905  1.4863  0.6073
   97MOL0     H13038  12.283   7.208   7.221 -0.2118  0.1159 -1.2851
   97MOL0     H13039  12.261   7.384   7.178  0.0005  0.1357  0.3504
   97MOL0     H13040  12.340   7.427   7.413 -2.7848 -1.6224  1.9578
   97MOL0     H13041  12.385   7.251   7.421 -4.1752 -0.7381 -1.1705
   97MOL0     H13042  12.502   7.448   7.217  0.6627  0.8412 -0.4823
   97MOL0     H13043  12.562   7.286   7.240 -0.8490 -1.9282  1.5723
   97MOL0     H13044  12.535   7.489   7.468  0.9851  1.3449 -1.5139
   97MOL0     H13045  12.609   7.330   7.476  1.2832  0.7800  1.9672
   97MOL0     H13046  12.861   7.337   7.468 -0.8429 -1.4559 -1.5836
   97MOL0     H13047  13.092   7.410   7.438  0.4884  0.0614 -0.3819
   97MOL0     H13048  13.117   7.453   7.268 -0.5790 -1.9296  0.7849
   97MOL0     H13049  13.138   7.704   7.353 -0.5629 -0.2589 -0.2017
   97MOL0     H13050  13.115   7.638   7.518 -0.7623 -0.8420 -0.1963
   97MOL0     H13051  13.299   7.488   7.503 -3.4167 -0.8578  1.0559
   97MOL0     H13052  13.348   7.651   7.520  3.5026 -3.0596  0.8353
   97MOL0     H13053  13.407   7.666   7.282  1.5732 -0.7938  1.3625
   97MOL0     H13054  13.332   7.502   7.262 -1.4972 -0.7182  0.7729
   97MOL0     H13055  13.640   7.760   7.332  2.6135 -1.2512 -0.8415
   97MOL0     H13056  13.820   7.829   7.468 -0.2136  0.3493 -1.8909
   97MOL0     H13057  14.228   7.876   7.614  1.6038  0.8314  0.4555
   97MOL0     H13058  14.397   7.944   7.761 -0.4770  2.1662 -0.0180
   97MOL0     H13059  14.475   8.062   7.921 -1.5919  0.8994  0.4348
   97MOL0     H13060  14.469   8.106   8.083  2.7009  0.7163 -0.8789
   97MOL0     H13061  14.574   7.878   8.135  1.6601  1.6636  1.8751
   97MOL0     H13062  14.605   7.868   7.958 -0.6141  3.2001 -2.5149
   97MOL0     H13063  14.700   8.099   8.143  1.3440  0.4327  0.8994
   97MOL0     H13064  14.797   7.960   8.099  1.5490  1.5846 -1.3957
   97MOL0     H13065  14.691   8.186   7.907  2.2062  0.8803 -0.5112
   97MOL0     H13066  14.771   8.046   7.845  1.2845 -0.0000 -0.3774
   97MOL0     H13067  14.971   8.093   7.978 -1.0060 -0.8083 -0.0586
   97MOL0     H13068  14.895   8.231   8.047  0.9820  1.2206 -0.9094
   97MOL0     H13069  14.900   8.235   7.745  4.1347  3.1780 -3.1583
   97MOL0     H13070  14.884   8.367   7.856 -0.2885  0.3012  0.4927
   97MOL0     H13071  15.141   8.190   7.866 -0.1528 -0.8420 -0.1158
   97MOL0     H13072  15.124   8.353   7.929  0.5097  3.3241 -2.7362
   97MOL0     H13073  15.134   8.248   7.649 -0.5266 -1.1107  0.8812
   97MOL0     H13074  15.108   8.428   7.679 -0.4333 -0.7464 -0.3731
   97MOL0     H13075  14.128   7.853   8.100 -0.2284  2.2744  0.2207
   97MOL0     H13076  13.955   7.816   7.924  0.5433  0.1859 -0.5657
   97MOL0     H13077  13.803   7.453   7.680 -3.0422 -1.8595 -0.6121
   97MOL0     H13078  13.593   7.399   7.560  1.0825 -0.3265 -0.4776
   97MOL0     H13079  11.506   7.295   7.208 -3.4703  1.9864  2.0538
   97MOL0     H13080  11.286   7.328   7.091  0.5632 -0.4122  1.0078
   97MOL0     H13081  11.033   7.405   6.909  0.6055 -1.5062 -1.1770
   97MOL0     H13082  10.782   7.440   6.913  0.2396 -1.1886 -0.4645
   97MOL0     H13083  10.565   7.704   6.776 -2.5896 -0.2747  1.5757
   97MOL0     H13084  10.628   7.591   6.897 -4.1923  0.2611  3.0439
   97MOL0     H13085  10.395   7.590   6.896  0.5181  2.2640 -0.0489
   97MOL0     H13086  10.464   7.428   6.855  0.1675 -0.7165 -2.0918
   97MOL0     H13087  10.413   7.506   6.607  0.7499  1.1653 -0.3369
   97MOL0     H13088  10.315   7.634   6.674  1.0658 -0.7151 -3.4988
   97MOL0     H13089  10.176   7.439   6.618 -0.0074 -0.6456  0.5368
   97MOL0     H13090  10.289   7.334   6.691 -1.5579 -0.9852 -1.2755
   97MOL0     H13091  10.002   7.514   6.962 -0.6657  1.6748 -1.5540
   97MOL0     H13092  10.830   7.586   6.503  1.2878 -2.5384 -1.6522
   97MOL0     H13093  11.175   7.607   6.494  0.1077 -0.5410 -2.3642
   97MOL0     H13094  11.109   7.470   6.397 -3.9781  0.5490 -3.0578
   97MOL0     H13095  11.022   7.619   6.401 -1.4484 -1.2641 -0.9562
   98MOL0     O13096  10.039   3.243   4.189 -0.2070 -0.1935  0.4216
   98MOL0     C13097   9.946   3.268   4.118  0.8014 -0.5673 -0.5520
   98MOL0     O13098   9.947   3.262   3.981 -0.3149  0.5199  0.2626
   98MOL0     C13099  10.053   3.205   3.913 -0.1511  0.9534 -0.0136
   98MOL0     C13100  10.084   3.257   3.786 -0.4729  0.2008  0.6961
   98MOL0     C13101  10.187   3.198   3.704  1.1272  0.5008  0.1973
   98MOL0     C13102  10.259   3.089   3.748  0.1459  0.3933  0.2184
   98MOL0     O13103  10.354   3.047   3.669  0.1039  0.1370 -0.7214
   98MOL0     C13104  10.368   2.908   3.623 -0.5862 -0.0689 -0.1299
   98MOL0     C13105  10.505   2.885   3.557  0.4930  0.1649  0.2967
   98MOL0     C13106  10.630   2.944   3.623  0.3278  0.2017 -0.3761
   98MOL0     C13107  10.750   2.934   3.516  0.1508 -0.0098  0.0166
   98MOL0     C13108  10.878   2.970   3.582 -0.3432  0.1400  0.3519
   98MOL0     C13109  10.998   2.978   3.495 -0.3254  0.0480 -0.3691
   98MOL0     C13110  11.119   3.020   3.574  0.3414  0.1826  0.1408
   98MOL0     C13111  11.231   3.064   3.483 -0.8479 -0.2602  0.7363
   98MOL0     N13112  11.304   2.958   3.417 -0.0577  0.3623 -0.3848
   98MOL0     C13113  11.381   2.873   3.492  0.7332 -0.9906  0.2289
   98MOL0     C13114  11.442   2.796   3.403 -0.0420 -0.6197 -1.5138
   98MOL0     C13115  11.523   2.682   3.435 -0.2138 -0.8538 -1.0575
   98MOL0     C13116  11.671   2.691   3.415  0.6311 -0.2381 -0.8034
   98MOL0     C13117  11.728   2.816   3.481 -0.0403  0.5449  0.1233
   98MOL0     C13118  11.880   2.804   3.485  0.1754 -0.0458 -0.1255
   98MOL0     O13119  11.940   2.814   3.355  0.8820  0.1438  0.0074
   98MOL0     C13120  12.071   2.858   3.347  0.0977  0.0089  0.3306
   98MOL0     C13121  12.107   2.923   3.218  0.3052 -0.2706  0.1122
   98MOL0     C13122  12.248   2.947   3.198  0.2718 -0.2516 -0.0641
   98MOL0     C13123  12.340   2.918   3.294 -0.1332 -0.6329  0.3226
   98MOL0     C13124  12.486   2.958   3.272 -0.8823 -0.6551 -0.9919
   98MOL0     O13125  12.526   2.999   3.149  0.6620 -0.7084 -0.5199
   98MOL0     C13126  12.653   3.057   3.130  0.5291 -0.3136  0.1452
   98MOL0     C13127  12.720   3.026   3.007 -0.2313  0.4911 -0.1624
   98MOL0     C13128  12.831   3.097   2.966  0.3695  0.2486 -0.3370
   98MOL0     C13129  12.885   3.189   3.055 -0.1065  0.1736 -0.0198
   98MOL0     O13130  13.010   3.249   3.035  0.5748  0.8779  0.2759
   98MOL0     C13131  13.026   3.327   2.911  0.0029  0.8225 -0.0340
   98MOL0     C13132  13.165   3.399   2.917 -0.4247  0.0405 -0.9612
   98MOL0     C13133  13.172   3.500   3.025 -0.0269 -0.6787 -0.0676
   98MOL0     C13134  13.281   3.602   3.009  0.0214 -0.3067  0.1497
   98MOL0     C13135  13.306   3.696   3.133  0.1154 -0.5615 -0.0355
   98MOL0     C13136  13.445   3.763   3.148 -0.0180 -0.4915 -0.3767
   98MOL0     C13137  13.468   3.887   3.072  0.6959  0.8145  0.5968
   98MOL0     C13138  13.623   3.932   3.076 -0.3894  0.1268  0.5683
   98MOL0    Cl13139  13.677   3.989   3.235  0.2304 -0.0049 -0.4070
   98MOL0     C13140  12.805   3.230   3.166  0.2915 -0.6452  0.1887
   98MOL0     C13141  12.689   3.167   3.205 -0.9135 -0.2752 -0.3120
   98MOL0     O13142  12.562   2.942   3.366  0.0292  0.3053  0.5428
   98MOL0     C13143  12.305   2.853   3.412  0.0208 -0.0822  0.4748
   98MOL0     C13144  12.172   2.825   3.433 -0.2364 -1.1517 -0.1094
   98MOL0     N13145  11.416   2.838   3.277 -0.6710  0.2589  0.0418
   98MOL0     N13146  11.326   2.929   3.288 -0.4979  0.0188 -0.0768
   98MOL0     C13147  10.231   3.031   3.872  0.2170 -0.1535  0.7128
   98MOL0     C13148  10.128   3.086   3.953  0.4522 -0.0713  0.8022
   98MOL0     C13149   9.813   3.294   4.184 -0.8466 -0.3405 -0.4487
   98MOL0     C13150   9.689   3.253   4.127  0.5156  0.2764 -0.7555
   98MOL0     C13151   9.572   3.254   4.205 -0.3816 -1.1941 -0.4348
   98MOL0     C13152   9.565   3.306   4.328  0.3231 -0.2677 -0.2732
   98MOL0     O13153   9.449   3.286   4.398 -0.3264  0.4635  0.0955
   98MOL0     C13154   9.428   3.385   4.502  0.4557 -0.3404 -1.2075
   98MOL0     C13155   9.473   3.345   4.643 -0.4591  0.0172  0.5962
   98MOL0     C13156   9.444   3.457   4.743 -0.7544  0.2437 -0.9852
   98MOL0     C13157   9.565   3.456   4.840 -0.6415  0.5983  0.0912
   98MOL0     C13158   9.684   3.519   4.791  0.7440 -0.0479  0.2342
   98MOL0     C13159   9.776   3.592   4.758 -0.4064 -0.0180  0.0442
   98MOL0     C13160   9.682   3.361   4.378  0.3534 -1.1891 -0.0859
   98MOL0     C13161   9.808   3.364   4.309 -0.6097 -0.7263  0.5849
   98MOL0     C13162   9.915   3.431   4.383 -0.3110  0.8131  0.7246
   98MOL0     H13163  10.038   3.350   3.752  1.7639  0.7716 -0.9607
   98MOL0     H13164  10.213   3.248   3.612 -0.8075 -0.3107 -0.8410
   98MOL0     H13165  10.359   2.840   3.708  1.2141 -2.1943 -1.5342
   98MOL0     H13166  10.284   2.901   3.553 -2.0090  3.7227  0.9502
   98MOL0     H13167  10.485   2.943   3.466 -0.2542 -1.4175 -0.5790
   98MOL0     H13168  10.533   2.785   3.525  1.1340  0.6899 -0.8335
   98MOL0     H13169  10.663   2.897   3.716 -1.1674  1.0971  0.6513
   98MOL0     H13170  10.620   3.050   3.649 -0.9138  0.3867 -1.5020
   98MOL0     H13171  10.761   2.829   3.488  1.0943  0.9005 -3.4302
   98MOL0     H13172  10.721   2.998   3.432  0.1163  0.8308  0.6458
   98MOL0     H13173  10.852   3.065   3.631 -1.6966  0.5180 -1.0157
   98MOL0     H13174  10.900   2.891   3.654  1.2479  1.5352  1.4986
   98MOL0     H13175  10.999   2.878   3.449 -0.4745 -0.9532  1.7073
   98MOL0     H13176  10.978   3.052   3.417  2.7504  1.8729  0.4381
   98MOL0     H13177  11.152   2.953   3.653  1.6768  1.2245  0.4981
   98MOL0     H13178  11.091   3.114   3.623 -1.4169  0.7504 -1.7863
   98MOL0     H13179  11.196   3.139   3.411  0.1613  1.3138  1.8170
   98MOL0     H13180  11.299   3.113   3.553 -0.5644  0.5386 -0.0705
   98MOL0     H13181  11.390   2.869   3.600  3.0112 -2.8885  0.0396
   98MOL0     H13182  11.505   2.664   3.541 -3.1551  2.5692 -0.7597
   98MOL0     H13183  11.485   2.595   3.380 -2.7020 -0.6878  0.2278
   98MOL0     H13184  11.714   2.599   3.455  2.7783  1.2140  0.4180
   98MOL0     H13185  11.682   2.704   3.307 -1.3657 -0.1032 -1.0306
   98MOL0     H13186  11.681   2.825   3.579 -5.9000 -2.7747 -1.8293
   98MOL0     H13187  11.705   2.904   3.420  1.4243  1.7958  1.3260
   98MOL0     H13188  11.911   2.710   3.531 -1.2096 -0.2119  0.5326
   98MOL0     H13189  11.913   2.884   3.552 -2.7669  0.0452  1.4091
   98MOL0     H13190  12.037   2.930   3.135  1.8525 -0.8995 -1.3135
   98MOL0     H13191  12.274   2.999   3.106  0.1812  0.4473  0.2953
   98MOL0     H13192  12.684   2.948   2.942  2.1501  1.7934 -3.3463
   98MOL0     H13193  12.883   3.067   2.875  0.6414 -1.1074  0.2392
   98MOL0     H13194  13.020   3.261   2.824 -0.0183 -0.1616  0.6839
   98MOL0     H13195  12.943   3.397   2.909 -2.1771 -1.5733  0.7418
   98MOL0     H13196  13.245   3.326   2.936 -0.2223  0.6812  0.8186
   98MOL0     H13197  13.184   3.453   2.824 -0.6381 -0.6888 -1.4367
   98MOL0     H13198  13.074   3.549   3.036  0.1084 -0.8021  2.2146
   98MOL0     H13199  13.190   3.455   3.123 -3.3622  1.7136  1.8252
   98MOL0     H13200  13.271   3.667   2.921  4.9627 -1.1460 -1.3193
   98MOL0     H13201  13.371   3.542   2.993  1.0011  0.7070  1.6062
   98MOL0     H13202  13.317   3.626   3.216  3.1551  0.9243  0.9732
   98MOL0     H13203  13.225   3.768   3.147  1.6010  1.2350 -0.2556
   98MOL0     H13204  13.461   3.785   3.254  2.4751 -2.5618 -0.2209
   98MOL0     H13205  13.518   3.686   3.120 -0.6241 -1.9236  1.7420
   98MOL0     H13206  13.398   3.960   3.114 -0.5016  0.3968 -0.5913
   98MOL0     H13207  13.436   3.878   2.968  0.3412 -1.3615  0.8530
   98MOL0     H13208  13.691   3.858   3.032  0.6082  0.9793  0.6416
   98MOL0     H13209  13.627   4.019   3.011  2.1408 -0.1299  0.2682
   98MOL0     H13210  12.840   3.317   3.220  0.8855  0.5027 -1.9452
   98MOL0     H13211  12.636   3.206   3.292  1.6871  4.0224 -0.3759
   98MOL0     H13212  12.370   2.817   3.492  1.9221 -1.2404 -1.4907
   98MOL0     H13213  12.151   2.774   3.527  0.8821  2.8751  2.5786
   98MOL0     H13214  10.284   2.944   3.907 -1.5910 -1.2172  0.9464
   98MOL0     H13215  10.106   3.031   4.044 -1.8622  2.0670  1.6274
   98MOL0     H13216   9.683   3.212   4.027 -2.3109  0.1900 -0.6404
   98MOL0     H13217   9.482   3.220   4.156 -0.3656 -2.0186  0.0847
   98MOL0     H13218   9.320   3.397   4.495  0.6531  1.7020 -1.3856
   98MOL0     H13219   9.469   3.481   4.472  1.8947 -0.3993  0.3915
   98MOL0     H13220   9.579   3.321   4.648  0.7736  4.6966  1.7901
   98MOL0     H13221   9.396   3.271   4.668  0.0205 -0.7696 -0.1937
   98MOL0     H13222   9.351   3.445   4.799  1.1781 -0.0936  2.3887
   98MOL0     H13223   9.443   3.553   4.689  1.3211  2.7436  2.8732
   98MOL0     H13224   9.533   3.505   4.933  0.3442 -0.5957  1.0969
   98MOL0     H13225   9.597   3.354   4.866  0.7785  0.8072 -0.7378
   98MOL0     H13226   9.861   3.649   4.725  0.6988 -1.7086 -0.1375
   98MOL0     H13227   9.676   3.397   4.480 -2.5209 -0.9610 -0.2632
   98MOL0     H13228   9.952   3.517   4.326  1.9271 -0.2957  0.3908
   98MOL0     H13229   9.880   3.451   4.484 -2.1993 -1.4116  0.5992
   98MOL0     H13230   9.995   3.357   4.398 -1.1831 -0.5397 -0.9264
   99MOL0     O13231   6.670   2.168   0.340  0.0984 -0.4528  0.4499
   99MOL0     C13232   6.617   2.157   0.226  0.0240  0.8186 -0.1037
   99MOL0     O13233   6.684   2.133   0.110  0.0206 -0.9498  0.1137
   99MOL0     C13234   6.825   2.150   0.101 -0.1491 -0.7708 -0.7723
   99MOL0     C13235   6.861   2.193  -0.024 -0.3602  0.4722 -0.5093
   99MOL0     C13236   6.995   2.210  -0.046 -0.3631  0.4295  0.3133
   99MOL0     C13237   7.094   2.185   0.045  0.3102 -0.2408 -0.0847
   99MOL0     O13238   7.219   2.207  -0.000  0.0127  0.6257 -0.3768
   99MOL0     C13239   7.307   2.277   0.099 -0.3013 -0.1549  0.7583
   99MOL0     C13240   7.408   2.358   0.015  0.2510  0.1939 -0.9297
   99MOL0     C13241   7.526   2.403   0.103  0.0529 -0.1525  0.1501
   99MOL0     C13242   7.614   2.510   0.045 -0.0884  0.4490  0.5046
   99MOL0     C13243   7.675   2.477  -0.089 -0.3397  0.7850 -0.2272
   99MOL0     C13244   7.734   2.590  -0.167  0.4328  0.7584 -0.5216
   99MOL0     C13245   7.775   2.555  -0.313  0.0779 -0.2301  0.5667
   99MOL0     C13246   7.832   2.672  -0.384 -0.4547 -1.2792 -0.3935
   99MOL0     N13247   7.945   2.745  -0.318 -0.0085  0.0285 -0.3533
   99MOL0     C13248   8.069   2.692  -0.334  0.8268 -0.2724  0.1957
   99MOL0     C13249   8.148   2.790  -0.299  0.1162  0.3500 -0.5321
   99MOL0     C13250   8.293   2.787  -0.331  0.2148  0.7126 -0.0162
   99MOL0     C13251   8.307   2.826  -0.480 -0.1267  0.5324 -0.0114
   99MOL0     C13252   8.454   2.834  -0.523 -0.0905  0.6675 -0.0392
   99MOL0     C13253   8.471   2.885  -0.669  0.4245  0.2293 -0.8825
   99MOL0     O13254   8.607   2.875  -0.713 -0.2188  0.3348 -0.1198
   99MOL0     C13255   8.701   2.949  -0.646  0.0578  0.3781  0.1004
   99MOL0     C13256   8.822   2.892  -0.614 -0.0229  0.1451 -0.5399
   99MOL0     C13257   8.929   2.967  -0.562 -0.2182 -0.2464 -0.6612
   99MOL0     C13258   8.912   3.108  -0.533  0.1288 -0.4930  0.0696
   99MOL0     C13259   9.017   3.195  -0.501 -0.3981 -0.1853 -0.0971
   99MOL0     O13260   8.994   3.322  -0.457 -0.3304 -0.5454 -0.0798
   99MOL0     C13261   9.097   3.404  -0.426 -0.7049 -0.9376 -0.1706
   99MOL0     C13262   9.151   3.395  -0.295 -0.1237  0.3746  0.6868
   99MOL0     C13263   9.258   3.480  -0.256 -0.2043 -0.1346  0.1406
   99MOL0     C13264   9.309   3.574  -0.345  0.0373 -0.5346  0.4098
   99MOL0     O13265   9.399   3.665  -0.316 -0.2696  0.0133 -0.9276
   99MOL0     C13266   9.528   3.658  -0.380 -1.1718  0.3844  0.3884
   99MOL0     C13267   9.604   3.789  -0.342 -0.1039  0.2596 -0.5958
   99MOL0     C13268   9.746   3.774  -0.398 -0.7120  0.8093  0.0586
   99MOL0     C13269   9.838   3.695  -0.297  0.0802 -0.4785 -0.1286
   99MOL0     C13270   9.963   3.647  -0.368 -0.1251  0.8213 -0.8425
   99MOL0     C13271  10.076   3.753  -0.400 -0.5745 -0.0723  0.4320
   99MOL0     C13272  10.210   3.679  -0.424 -0.4598  0.0198 -0.0709
   99MOL0     C13273  10.337   3.774  -0.417 -0.1009 -0.2782  0.2411
   99MOL0    Cl13274  10.357   3.861  -0.572 -0.1641 -0.1737  0.3955
   99MOL0     C13275   9.241   3.589  -0.472 -0.0414  0.4319  0.2585
   99MOL0     C13276   9.140   3.499  -0.512 -0.4752  0.3918  1.0181
   99MOL0     O13277   9.124   3.131  -0.490 -0.1669 -0.4532  0.8020
   99MOL0     C13278   8.780   3.165  -0.559 -0.2303  1.4741  0.8576
   99MOL0     C13279   8.680   3.080  -0.617  0.6099  0.1806  0.5075
   99MOL0     N13280   8.080   2.895  -0.241  0.0058 -0.4947 -0.2850
   99MOL0     N13281   7.953   2.867  -0.258  0.2205 -0.0429  0.2019
   99MOL0     C13282   7.056   2.147   0.177  0.2536 -0.5441  0.8546
   99MOL0     C13283   6.925   2.129   0.199 -0.5939 -0.2880 -0.2404
   99MOL0     C13284   6.475   2.181   0.209  0.2904 -1.1370  0.5426
   99MOL0     C13285   6.415   2.233   0.330  0.2028  0.1920  0.6390
   99MOL0     C13286   6.293   2.293   0.320 -0.5015  0.1203 -0.3365
   99MOL0     C13287   6.208   2.287   0.212 -0.4950  0.7594  0.9816
   99MOL0     O13288   6.087   2.351   0.222 -0.4648 -0.6802  0.4296
   99MOL0     C13289   5.986   2.289   0.139  0.1021 -0.6930  0.2267
   99MOL0     C13290   5.853   2.350   0.179 -0.3647  0.1517 -0.0431
   99MOL0     C13291   5.819   2.376   0.325 -0.2807  0.4693  0.2765
   99MOL0     C13292   5.836   2.250   0.412  0.1963 -0.4823  0.5363
   99MOL0     C13293   5.752   2.270   0.530  0.4653 -0.6475 -0.4627
   99MOL0     C13294   5.678   2.285   0.628  0.2795  0.0154 -0.3758
   99MOL0     C13295   6.252   2.213   0.101 -0.6173  0.8618  0.7543
   99MOL0     C13296   6.391   2.162   0.092  0.4517  0.3390 -0.3972
   99MOL0     C13297   6.427   2.103  -0.033 -0.4163  0.2475  0.3764
   99MOL0     H13298   6.779   2.216  -0.092 -1.0014  0.6748  0.3059
   99MOL0     H13299   7.028   2.234  -0.146 -0.5302 -1.4014 -0.2084
   99MOL0     H13300   7.253   2.346   0.165  2.5097  2.6627  0.4232
   99MOL0     H13301   7.370   2.219   0.168  3.9500  1.4200 -1.4047
   99MOL0     H13302   7.349   2.438  -0.030 -1.5290 -0.4652  0.1135
   99MOL0     H13303   7.448   2.290  -0.061  1.0914  0.9572 -1.1765
   99MOL0     H13304   7.595   2.321   0.128  0.5469 -0.7009 -2.6883
   99MOL0     H13305   7.487   2.433   0.201 -0.9405  0.6707 -0.4906
   99MOL0     H13306   7.555   2.599   0.021 -0.0857  0.3370  0.0603
   99MOL0     H13307   7.693   2.541   0.114 -0.3879  4.3252 -0.6277
   99MOL0     H13308   7.761   2.411  -0.074 -0.3693 -0.8506 -5.2934
   99MOL0     H13309   7.598   2.424  -0.146  1.3930 -0.1424 -1.7914
   99MOL0     H13310   7.659   2.670  -0.170  1.6958  1.9709 -2.2982
   99MOL0     H13311   7.821   2.623  -0.109  0.0654 -0.9246  1.0675
   99MOL0     H13312   7.688   2.521  -0.371  2.3364 -2.5626 -1.6812
   99MOL0     H13313   7.846   2.473  -0.305 -0.5913 -0.7915  0.8553
   99MOL0     H13314   7.864   2.649  -0.486  1.4600 -1.5848  0.2285
   99MOL0     H13315   7.746   2.736  -0.401 -1.6865 -3.4676 -3.1470
   99MOL0     H13316   8.088   2.595  -0.379 -1.0836 -1.2321  1.3128
   99MOL0     H13317   8.340   2.870  -0.277 -1.5514  2.0132 -0.3800
   99MOL0     H13318   8.338   2.691  -0.306  0.6517  0.8363 -0.3281
   99MOL0     H13319   8.271   2.749  -0.548 -0.0848 -0.1163  0.6860
   99MOL0     H13320   8.259   2.922  -0.501  2.1592  1.3744 -1.7918
   99MOL0     H13321   8.490   2.730  -0.524 -0.4447  0.5415 -0.8062
   99MOL0     H13322   8.517   2.888  -0.452  1.1291  0.6605 -1.0802
   99MOL0     H13323   8.429   2.985  -0.664 -1.5682 -0.5212 -1.7373
   99MOL0     H13324   8.406   2.817  -0.725  0.2863  0.1092 -0.5804
   99MOL0     H13325   8.833   2.785  -0.629  2.3761  0.0558  1.3318
   99MOL0     H13326   9.023   2.920  -0.534  0.5401  0.7606 -1.4311
   99MOL0     H13327   9.116   3.324  -0.222  1.7489  0.9350  2.2170
   99MOL0     H13328   9.294   3.476  -0.154 -0.6895  2.1078  0.4498
   99MOL0     H13329   9.577   3.566  -0.347 -0.8768 -0.4869 -2.2505
   99MOL0     H13330   9.521   3.653  -0.489  0.5535  0.0809  0.2597
   99MOL0     H13331   9.553   3.871  -0.394 -0.2258 -0.6946 -2.0482
   99MOL0     H13332   9.606   3.810  -0.235  2.4022  1.1498 -0.7487
   99MOL0     H13333   9.734   3.723  -0.494  2.4807 -1.0295  0.4914
   99MOL0     H13334   9.796   3.869  -0.419 -1.9158  1.0124 -2.1075
   99MOL0     H13335   9.790   3.612  -0.243  1.6068 -0.9568  0.5471
   99MOL0     H13336   9.867   3.751  -0.207  0.8838 -1.0459 -0.0267
   99MOL0     H13337   9.941   3.587  -0.456  0.5314  0.2761 -0.6439
   99MOL0     H13338  10.005   3.578  -0.294 -1.1634  0.9471 -0.1062
   99MOL0     H13339  10.050   3.802  -0.495 -2.0082 -1.1910  0.2189
   99MOL0     H13340  10.097   3.822  -0.318 -0.3533  0.5978 -0.1754
   99MOL0     H13341  10.208   3.624  -0.519  0.0943 -3.5886  1.8087
   99MOL0     H13342  10.222   3.600  -0.350  2.1465  2.1699  1.9727
   99MOL0     H13343  10.327   3.860  -0.350 -0.6794  0.7030 -1.0865
   99MOL0     H13344  10.427   3.718  -0.390  1.2826  1.3080 -0.9122
   99MOL0     H13345   9.271   3.656  -0.552  0.9378  1.0082  1.0905
   99MOL0     H13346   9.098   3.509  -0.611  0.4387 -2.5312  0.2524
   99MOL0     H13347   8.753   3.265  -0.526 -1.2069  0.6684  2.6296
   99MOL0     H13348   8.585   3.121  -0.650  1.0931  0.6968 -0.2815
   99MOL0     H13349   7.137   2.142   0.249  0.1053 -3.5933  0.9483
   99MOL0     H13350   6.890   2.094   0.296  0.3099 -1.2488 -0.2369
   99MOL0     H13351   6.471   2.252   0.421  0.5558 -0.1454  0.4923
   99MOL0     H13352   6.263   2.333   0.417  2.3834  0.5999  0.4268
   99MOL0     H13353   5.981   2.180   0.153 -1.1360 -0.5288  1.2686
   99MOL0     H13354   5.999   2.322   0.036 -2.3868  2.9265  0.9072
   99MOL0     H13355   5.779   2.279   0.140  0.3699 -0.8770  0.4025
   99MOL0     H13356   5.838   2.440   0.119  1.4098  0.4736 -0.0699
   99MOL0     H13357   5.718   2.417   0.339 -0.5679  0.4486 -1.5075
   99MOL0     H13358   5.886   2.455   0.363 -0.6399  0.4508  0.9584
   99MOL0     H13359   5.811   2.163   0.351  1.7224  1.3097 -2.8822
   99MOL0     H13360   5.939   2.241   0.448 -0.1412  1.0231  2.0356
   99MOL0     H13361   5.599   2.297   0.700 -1.1471 -2.2888 -1.4218
   99MOL0     H13362   6.188   2.206   0.014 -1.0634 -2.5701  1.2029
   99MOL0     H13363   6.468   2.180  -0.098  1.3440 -1.8606 -1.1866
   99MOL0     H13364   6.498   2.021  -0.016 -0.9670 -0.5796 -1.1384
   99MOL0     H13365   6.335   2.057  -0.072  0.8980 -1.9798 -0.3137
  100MOL0     O13366  10.291   8.390   8.229 -0.1951  0.2384 -0.3751
  100MOL0     C13367  10.313   8.275   8.271 -0.8854  0.6722  0.4830
  100MOL0     O13368  10.407   8.192   8.232  0.5794 -0.2310 -0.4038
  100MOL0     C13369  10.501   8.238   8.143  0.5443  0.6354  0.6153
  100MOL0     C13370  10.629   8.189   8.158  0.3435  0.9271 -0.3596
  100MOL0     C13371  10.735   8.230   8.072 -0.2729 -0.3371  0.1855
  100MOL0     C13372  10.709   8.317   7.967  0.3918  0.1431  0.0328
  100MOL0     O13373  10.811   8.343   7.879  0.0740  0.2061 -0.0300
  100MOL0     C13374  10.802   8.285   7.744  0.4139  0.2056 -0.4228
  100MOL0     C13375  10.870   8.357   7.635  0.5478 -0.9758  0.4239
  100MOL0     C13376  11.019   8.394   7.664 -0.6953  0.2715 -1.1976
  100MOL0     C13377  11.077   8.445   7.527 -0.0169 -0.1756 -0.1578
  100MOL0     C13378  11.226   8.468   7.533 -0.0061  0.4595 -0.0371
  100MOL0     C13379  11.281   8.497   7.389 -0.2974  0.0103  0.3915
  100MOL0     C13380  11.430   8.528   7.398 -0.0179  0.0108 -0.0948
  100MOL0     C13381  11.474   8.635   7.494 -0.5170 -0.6689 -0.5423
  100MOL0     N13382  11.605   8.700   7.448  0.7195  0.2112 -0.3044
  100MOL0     C13383  11.727   8.646   7.471  0.1282 -0.1869  0.5168
  100MOL0     C13384  11.808   8.749   7.457  0.4913 -0.3738 -0.4700
  100MOL0     C13385  11.960   8.755   7.482  0.2068 -0.4919  0.1508
  100MOL0     C13386  12.034   8.651   7.400 -0.0887  0.3093 -0.6362
  100MOL0     C13387  12.180   8.709   7.382 -0.5596  0.1409  0.7109
  100MOL0     C13388  12.267   8.602   7.316 -0.2752  0.6395 -0.0787
  100MOL0     O13389  12.403   8.636   7.314 -0.0979 -0.5056  0.1024
  100MOL0     C13390  12.459   8.702   7.203 -0.4802 -0.4085 -0.5351
  100MOL0     C13391  12.391   8.752   7.093 -0.0898  0.6723 -0.3953
  100MOL0     C13392  12.460   8.800   6.986 -0.8100  0.1029  0.3306
  100MOL0     C13393  12.603   8.804   6.980 -0.2468  0.2820 -0.9656
  100MOL0     C13394  12.675   8.876   6.863 -0.0441 -0.1927 -1.6765
  100MOL0     O13395  12.808   8.855   6.857  0.5621  0.1703  0.6225
  100MOL0     C13396  12.883   8.911   6.753 -0.0853  0.9213 -0.5623
  100MOL0     C13397  13.017   8.929   6.792  0.0260  0.1297  0.2478
  100MOL0     C13398  13.106   8.971   6.697 -0.1418 -0.9144 -0.5371
  100MOL0     C13399  13.077   8.991   6.562 -0.8126  0.0774 -0.0955
  100MOL0     O13400  13.178   9.040   6.475 -0.3699 -0.0730 -0.1526
  100MOL0     C13401  13.138   9.060   6.334 -0.2529 -0.1310 -0.1103
  100MOL0     C13402  13.261   9.102   6.239  0.7465 -0.2821  0.1885
  100MOL0     C13403  13.362   8.985   6.220 -0.1415 -0.8334 -0.4121
  100MOL0     C13404  13.494   9.035   6.165 -0.3895  0.1943 -0.1077
  100MOL0     C13405  13.620   8.973   6.227  0.8722  0.0715 -0.1321
  100MOL0     C13406  13.751   9.006   6.137 -0.1754 -0.8108  0.0679
  100MOL0     C13407  13.881   8.950   6.202  0.9129  0.4786 -0.2391
  100MOL0     C13408  13.992   8.962   6.099 -0.5847  0.0049 -0.0509
  100MOL0    Cl13409  13.956   8.859   5.963  0.4056 -0.4867  0.0332
  100MOL0     C13410  12.940   8.974   6.534  0.5878 -1.0909  1.0231
  100MOL0     C13411  12.841   8.937   6.621 -0.1268 -0.3470 -0.0706
  100MOL0     O13412  12.607   8.946   6.792  0.2095 -0.0237  0.3586
  100MOL0     C13413  12.666   8.744   7.083 -0.2106  0.2596 -0.2897
  100MOL0     C13414  12.595   8.691   7.188 -0.6934 -0.2548 -0.3673
  100MOL0     N13415  11.734   8.856   7.412  0.2173 -0.0493 -0.2668
  100MOL0     N13416  11.616   8.828   7.417  0.8892 -0.0872  0.6436
  100MOL0     C13417  10.574   8.362   7.949 -0.1063  0.0486  0.6484
  100MOL0     C13418  10.471   8.320   8.033 -0.9168 -0.2375  0.0908
  100MOL0     C13419  10.229   8.219   8.373  0.1673 -0.2149  0.6682
  100MOL0     C13420  10.093   8.251   8.377  0.0192 -0.7035 -0.7840
  100MOL0     C13421  10.004   8.187   8.470 -1.0074 -0.5444 -0.4628
  100MOL0     C13422  10.048   8.095   8.565 -0.3629  0.0631 -0.2851
  100MOL0     O13423   9.964   8.027   8.651 -0.0853  0.0797  0.2336
  100MOL0     C13424   9.842   7.959   8.607 -0.2042  0.7775 -0.3697
  100MOL0     C13425   9.877   7.872   8.486 -0.0794 -0.0735 -0.0386
  100MOL0     C13426   9.739   7.834   8.426  0.4033  0.6413  0.3209
  100MOL0     C13427   9.759   7.707   8.326  0.4829  0.0502  0.7382
  100MOL0     C13428   9.815   7.747   8.194  0.1503 -0.9178 -0.0648
  100MOL0     C13429   9.867   7.774   8.088 -0.0224 -0.5196 -0.1552
  100MOL0     C13430  10.187   8.081   8.573 -0.3032 -0.0528 -0.1181
  100MOL0     C13431  10.275   8.143   8.481 -0.2855 -0.3858 -0.5268
  100MOL0     C13432  10.426   8.138   8.525  0.3571  0.5478  0.5067
  100MOL0     H13433  10.650   8.131   8.247  0.1846  1.1270 -0.1909
  100MOL0     H13434  10.837   8.196   8.085 -0.8544 -2.1856  0.0824
  100MOL0     H13435  10.850   8.188   7.752 -2.8424 -1.4762  0.6988
  100MOL0     H13436  10.696   8.279   7.714 -0.6518 -0.3150  3.0743
  100MOL0     H13437  10.822   8.455   7.623  1.8784 -0.2680  0.6954
  100MOL0     H13438  10.865   8.306   7.539  2.7406 -1.2503  0.3963
  100MOL0     H13439  11.071   8.308   7.705  1.3996 -0.3504 -4.7451
  100MOL0     H13440  11.021   8.467   7.746 -0.1289  0.2816 -1.2229
  100MOL0     H13441  11.068   8.384   7.437 -0.8479  1.1922 -1.0334
  100MOL0     H13442  11.024   8.540   7.522  3.3331  1.9177  1.3328
  100MOL0     H13443  11.257   8.537   7.612 -1.6326  0.6785  0.4553
  100MOL0     H13444  11.281   8.377   7.557  1.1187  0.4915 -2.2988
  100MOL0     H13445  11.256   8.410   7.328  0.9583  0.1334 -0.3472
  100MOL0     H13446  11.224   8.582   7.351 -0.7195 -0.6466 -0.4796
  100MOL0     H13447  11.457   8.569   7.300  0.2341 -1.1054 -0.5020
  100MOL0     H13448  11.484   8.435   7.417  1.6521  0.2749 -3.0042
  100MOL0     H13449  11.398   8.713   7.486 -0.7684 -0.5081  2.4233
  100MOL0     H13450  11.469   8.601   7.597 -4.9727  0.2000 -0.2803
  100MOL0     H13451  11.749   8.542   7.496 -0.3732 -0.3325  0.3668
  100MOL0     H13452  11.994   8.856   7.458  1.8709 -1.3699 -1.4933
  100MOL0     H13453  11.979   8.721   7.584  0.9446  1.4254  0.6891
  100MOL0     H13454  12.045   8.557   7.455 -2.4251 -0.4411 -1.3139
  100MOL0     H13455  11.972   8.635   7.311  1.5082 -2.2862 -1.3967
  100MOL0     H13456  12.215   8.743   7.479 -1.7066  4.8602 -0.2875
  100MOL0     H13457  12.187   8.793   7.312  0.1390 -0.6482 -0.2057
  100MOL0     H13458  12.233   8.568   7.218 -1.1705  2.2838 -0.3849
  100MOL0     H13459  12.258   8.509   7.374  0.8919  0.0851 -0.7523
  100MOL0     H13460  12.282   8.754   7.091 -0.1083  1.9288  0.7728
  100MOL0     H13461  12.408   8.839   6.898  1.3744  0.3474 -0.9090
  100MOL0     H13462  13.059   8.890   6.885  1.0689  2.1824  0.6982
  100MOL0     H13463  13.205   9.005   6.728 -0.1696 -0.5162 -0.8716
  100MOL0     H13464  13.095   8.971   6.288  0.5236 -0.4599 -0.2118
  100MOL0     H13465  13.055   9.131   6.323  0.1579  0.2220 -1.0091
  100MOL0     H13466  13.219   9.112   6.139 -0.4491 -0.0104  0.7058
  100MOL0     H13467  13.317   9.192   6.265 -0.6906  0.6696  0.0447
  100MOL0     H13468  13.375   8.929   6.314  0.1268  0.2196  0.1889
  100MOL0     H13469  13.331   8.920   6.137  0.8819  1.0657 -2.3791
  100MOL0     H13470  13.510   9.142   6.181 -1.0603  0.2787  0.0519
  100MOL0     H13471  13.496   9.010   6.059  0.2735  2.6345 -0.7256
  100MOL0     H13472  13.618   8.864   6.224  3.5582 -0.1172  2.0298
  100MOL0     H13473  13.623   8.998   6.333  1.4256  2.7665 -0.6886
  100MOL0     H13474  13.745   8.979   6.031 -0.5680  3.8590 -1.2971
  100MOL0     H13475  13.768   9.114   6.143 -0.9064 -0.7392  1.0600
  100MOL0     H13476  13.881   8.841   6.218  2.7392  0.6382  1.1283
  100MOL0     H13477  13.899   9.003   6.296 -2.6250 -0.2569  1.0170
  100MOL0     H13478  13.994   9.069   6.076 -2.4773  0.1898  0.4662
  100MOL0     H13479  14.082   8.923   6.147 -1.0788 -0.2335  0.7017
  100MOL0     H13480  12.921   9.015   6.435  0.6126 -0.3463  1.3262
  100MOL0     H13481  12.741   8.926   6.582  0.3562 -2.1383 -0.9206
  100MOL0     H13482  12.774   8.737   7.092 -0.1697  2.2582  1.6171
  100MOL0     H13483  12.653   8.648   7.270  0.6820  0.1319 -1.0969
  100MOL0     H13484  10.554   8.428   7.865  0.6234  0.8972  1.1218
  100MOL0     H13485  10.370   8.355   8.012 -0.6702  0.0308 -0.6864
  100MOL0     H13486  10.047   8.320   8.307 -1.9094  1.0124  1.9987
  100MOL0     H13487   9.899   8.211   8.465 -0.5137  1.6992 -1.0457
  100MOL0     H13488   9.769   8.035   8.578 -3.3904 -1.5714  0.8738
  100MOL0     H13489   9.795   7.901   8.686  2.0091 -0.9318 -0.2216
  100MOL0     H13490   9.941   7.788   8.512 -1.2765 -1.7942 -2.3111
  100MOL0     H13491   9.938   7.924   8.411  2.1231 -1.4747  0.6852
  100MOL0     H13492   9.702   7.921   8.371 -0.3715  0.7927  1.0718
  100MOL0     H13493   9.658   7.807   8.494  0.4600  0.4092  0.2966
  100MOL0     H13494   9.813   7.629   8.381 -2.9339 -3.0586  0.1060
  100MOL0     H13495   9.661   7.665   8.301  0.3996  1.4794 -1.6470
  100MOL0     H13496   9.917   7.796   7.996 -0.0505  1.1438  0.2062
  100MOL0     H13497  10.211   8.022   8.661 -1.0876 -0.9598 -0.5001
  100MOL0     H13498  10.487   8.071   8.464  0.2954  1.0195 -0.0819
  100MOL0     H13499  10.465   8.238   8.504 -0.4810  0.3254 -2.6088
  100MOL0     H13500  10.419   8.125   8.634 -4.6779  2.3696  0.6646
  101MOL0     O13501   7.559   5.174   9.570  0.0301  0.6590 -0.8241
  101MOL0     C13502   7.555   5.157   9.691  0.5980  0.1920 -0.1587
  101MOL0     O13503   7.659   5.155   9.776 -0.4289 -0.6516  0.3604
  101MOL0     C13504   7.783   5.184   9.716 -0.1979  0.6377  0.6557
  101MOL0     C13505   7.871   5.076   9.672  0.7307 -0.7798 -0.5049
  101MOL0     C13506   8.000   5.092   9.632  0.4109 -0.0124 -0.3842
  101MOL0     C13507   8.047   5.227   9.629 -0.1897 -0.0943  0.1030
  101MOL0     O13508   8.177   5.244   9.596 -0.2579  0.3905  0.4565
  101MOL0     C13509   8.282   5.153   9.648  0.0011  0.4161 -0.0359
  101MOL0     C13510   8.422   5.228   9.629  0.3713  0.4756 -0.3956
  101MOL0     C13511   8.449   5.339   9.738  0.4281 -0.0518 -0.2543
  101MOL0     C13512   8.595   5.386   9.741 -0.4188 -0.4498 -0.2849
  101MOL0     C13513   8.628   5.493   9.635 -1.2310 -0.6966 -0.1997
  101MOL0     C13514   8.776   5.525   9.636  0.6678  0.2769 -0.1119
  101MOL0     C13515   8.808   5.613   9.518  0.4159 -0.2330 -0.5485
  101MOL0     C13516   8.924   5.703   9.535 -0.3358 -0.2518 -0.1910
  101MOL0     N13517   9.054   5.634   9.536 -0.1688 -0.1168 -0.9740
  101MOL0     C13518   9.159   5.663   9.631  0.6496  0.6901  0.1753
  101MOL0     C13519   9.255   5.582   9.577  0.4401  0.9382 -1.0606
  101MOL0     C13520   9.391   5.548   9.635  0.4291  0.4582  0.4390
  101MOL0     C13521   9.500   5.653   9.611  0.0958 -0.1726  0.4687
  101MOL0     C13522   9.542   5.678   9.460  0.6816  1.0732  0.1485
  101MOL0     C13523   9.648   5.787   9.442  0.0888  0.5619  0.0803
  101MOL0     O13524   9.685   5.785   9.303 -0.1294 -0.5323  0.0139
  101MOL0     C13525   9.824   5.791   9.283  0.0900  0.5436 -0.4295
  101MOL0     C13526   9.878   5.712   9.176 -0.4667  0.8367 -1.1625
  101MOL0     C13527  10.012   5.712   9.157  0.2452 -0.3442  0.1696
  101MOL0     C13528  10.095   5.799   9.236  0.2453 -0.1157 -0.1225
  101MOL0     C13529  10.242   5.808   9.207  0.6254 -0.4935 -1.2705
  101MOL0     O13530  10.290   5.713   9.130  0.2542  0.5984 -0.0324
  101MOL0     C13531  10.424   5.726   9.095 -0.2557  0.3223 -0.3679
  101MOL0     C13532  10.462   5.712   8.967 -0.8541 -0.8477  0.9969
  101MOL0     C13533  10.597   5.707   8.934  0.5851 -0.2689 -0.3350
  101MOL0     C13534  10.697   5.741   9.024 -0.0714  0.4085 -0.5770
  101MOL0     O13535  10.831   5.721   8.996  0.3427 -0.3034  0.0340
  101MOL0     C13536  10.899   5.827   8.925  0.4562  0.3177  0.5047
  101MOL0     C13537  10.897   5.967   8.998  0.3522 -0.2344  0.0776
  101MOL0     C13538  11.022   6.044   8.960  1.0998 -0.4011  0.3615
  101MOL0     C13539  11.036   6.101   8.820  0.0868 -0.3794  0.6843
  101MOL0     C13540  11.181   6.128   8.784  0.1193  0.5338 -0.2457
  101MOL0     C13541  11.185   6.180   8.642 -0.2565 -0.0018  0.5728
  101MOL0     C13542  11.323   6.239   8.595 -0.0937 -0.3729 -0.5374
  101MOL0     C13543  11.328   6.310   8.458  0.8870  0.8494  0.3021
  101MOL0    Cl13544  11.489   6.380   8.424  0.2928  0.1154 -0.2465
  101MOL0     C13545  10.663   5.743   9.158  0.0309  0.7731  0.3027
  101MOL0     C13546  10.526   5.742   9.195 -0.0477  0.1401  0.2307
  101MOL0     O13547  10.311   5.905   9.249 -0.2347 -0.2743  0.0933
  101MOL0     C13548  10.042   5.883   9.332  0.2302  0.2810  0.1333
  101MOL0     C13549   9.903   5.874   9.358 -0.5714 -0.4423 -0.7868
  101MOL0     N13550   9.202   5.503   9.473  0.0092 -0.0474  0.4882
  101MOL0     N13551   9.083   5.535   9.451  0.0732  0.3197 -0.2144
  101MOL0     C13552   7.959   5.334   9.657 -0.0699 -0.0713 -0.3783
  101MOL0     C13553   7.830   5.310   9.708 -0.4625  0.0646 -0.1335
  101MOL0     C13554   7.409   5.140   9.748  0.2232 -0.3951  0.8251
  101MOL0     C13555   7.329   5.057   9.676 -0.0081 -0.4640 -0.2857
  101MOL0     C13556   7.192   5.041   9.722 -0.8510  0.3389  0.0606
  101MOL0     C13557   7.141   5.105   9.830 -0.2917  0.4444 -0.0940
  101MOL0     O13558   7.004   5.096   9.849  0.0191 -0.3256 -0.6430
  101MOL0     C13559   6.949   5.107   9.982  1.0404 -0.4667  0.2185
  101MOL0     C13560   6.794   5.132   9.988  0.9739 -0.2547  0.6157
  101MOL0     C13561   6.756   5.256   9.902 -0.3735  1.0013 -0.9619
  101MOL0     C13562   6.600   5.274   9.914 -0.6897  0.5602  0.0695
  101MOL0     C13563   6.557   5.389   9.837 -0.1978 -0.0820  0.1499
  101MOL0     C13564   6.530   5.481   9.771 -0.3199  0.3153  0.3983
  101MOL0     C13565   7.231   5.191   9.906 -0.4964  0.1951  0.3535
  101MOL0     C13566   7.367   5.199   9.869 -1.0297 -0.3597 -0.6622
  101MOL0     C13567   7.461   5.284   9.945  0.2748  0.4487  0.4877
  101MOL0     H13568   7.837   4.973   9.668  3.1265 -1.6126 -3.1332
  101MOL0     H13569   8.058   5.003   9.613 -1.2936 -0.8228 -2.2658
  101MOL0     H13570   8.264   5.125   9.752 -2.4257 -0.7973 -0.6916
  101MOL0     H13571   8.281   5.060   9.591 -3.1541  0.6763 -0.6160
  101MOL0     H13572   8.422   5.278   9.531 -0.6131  0.2270 -0.5376
  101MOL0     H13573   8.512   5.166   9.631  0.2677  0.3373 -0.0897
  101MOL0     H13574   8.421   5.295   9.834 -0.1444 -1.3609 -1.0073
  101MOL0     H13575   8.384   5.422   9.710 -0.8798 -0.3268  1.7745
  101MOL0     H13576   8.631   5.429   9.835  4.7577 -2.4012 -1.0619
  101MOL0     H13577   8.662   5.304   9.715 -1.4419 -0.9855 -1.3543
  101MOL0     H13578   8.593   5.464   9.535 -1.2961 -0.9779 -0.0971
  101MOL0     H13579   8.571   5.583   9.658 -0.9840 -0.8061  0.8996
  101MOL0     H13580   8.811   5.564   9.732 -0.7462 -0.0758  0.5669
  101MOL0     H13581   8.834   5.432   9.635 -0.6175 -0.5581 -1.5873
  101MOL0     H13582   8.723   5.679   9.499 -0.7812 -1.7256 -0.6536
  101MOL0     H13583   8.824   5.538   9.439 -1.0394 -0.6690 -0.4650
  101MOL0     H13584   8.921   5.768   9.447 -0.4390 -1.3512 -1.0163
  101MOL0     H13585   8.906   5.771   9.619  0.1520 -0.6148  0.2068
  101MOL0     H13586   9.150   5.716   9.725 -0.3189 -1.4632  1.3823
  101MOL0     H13587   9.388   5.510   9.737 -0.8309  0.8667  0.5710
  101MOL0     H13588   9.421   5.463   9.573 -1.4121  0.4699 -0.5485
  101MOL0     H13589   9.470   5.746   9.660  0.3588 -0.4307  1.1190
  101MOL0     H13590   9.590   5.619   9.662  0.3332  1.2528  1.0502
  101MOL0     H13591   9.454   5.708   9.402  0.5501  2.4333  0.9971
  101MOL0     H13592   9.583   5.590   9.412 -1.1158  1.7122 -2.7815
  101MOL0     H13593   9.728   5.750   9.507 -2.3885 -5.1803  0.5285
  101MOL0     H13594   9.611   5.885   9.473 -0.5840 -0.1333  1.6379
  101MOL0     H13595   9.814   5.639   9.127  0.2592 -1.3284  0.9493
  101MOL0     H13596  10.060   5.661   9.074  2.7266  0.0450  1.2927
  101MOL0     H13597  10.389   5.697   8.889  0.8539  0.8737 -1.0540
  101MOL0     H13598  10.626   5.704   8.829  1.2030  1.0700 -0.2306
  101MOL0     H13599  11.003   5.793   8.919 -0.2622 -1.9781  0.0994
  101MOL0     H13600  10.859   5.846   8.825 -1.1024  0.4105  1.1173
  101MOL0     H13601  10.812   6.025   8.960  1.2642 -0.5535 -2.6440
  101MOL0     H13602  10.892   5.939   9.103 -0.7418 -0.7355 -0.0888
  101MOL0     H13603  11.031   6.126   9.030  2.6450 -0.9717  0.8604
  101MOL0     H13604  11.113   5.988   8.982 -0.1797 -2.9747 -0.4233
  101MOL0     H13605  10.977   6.192   8.802  1.7662  0.2516 -2.2165
  101MOL0     H13606  10.992   6.023   8.759  0.7057  0.6529 -1.1644
  101MOL0     H13607  11.237   6.035   8.802 -1.9201 -0.5317  0.9409
  101MOL0     H13608  11.223   6.209   8.844  0.6062 -0.4241  0.7396
  101MOL0     H13609  11.144   6.103   8.576  1.2158 -0.6928  0.4187
  101MOL0     H13610  11.118   6.267   8.648 -0.6560 -0.2806  0.2354
  101MOL0     H13611  11.400   6.161   8.607 -1.2303 -1.5883 -0.8958
  101MOL0     H13612  11.347   6.322   8.662 -0.3206 -1.3404  0.7823
  101MOL0     H13613  11.300   6.229   8.391 -1.3976  1.6600  0.1653
  101MOL0     H13614  11.250   6.387   8.457 -0.2565 -0.2165 -2.2067
  101MOL0     H13615  10.735   5.755   9.238  3.2330  1.0629 -2.4345
  101MOL0     H13616  10.506   5.733   9.301  3.1179 -0.2949  0.9180
  101MOL0     H13617  10.107   5.949   9.388 -1.9906  0.9242  2.1180
  101MOL0     H13618   9.866   5.946   9.430 -0.5445 -1.2944  0.1005
  101MOL0     H13619   7.980   5.438   9.682 -2.4673  0.4739 -0.3296
  101MOL0     H13620   7.785   5.399   9.751  3.3964  1.0672  2.3409
  101MOL0     H13621   7.368   5.007   9.587 -0.6910  0.0915 -0.9116
  101MOL0     H13622   7.117   4.989   9.664 -1.0816 -1.2723  1.7004
  101MOL0     H13623   6.993   5.194  10.032 -1.1658  0.4775  0.6301
  101MOL0     H13624   6.976   5.020  10.044 -0.0542  0.4649  2.0979
  101MOL0     H13625   6.763   5.146  10.092 -0.5566 -0.7192  0.2367
  101MOL0     H13626   6.736   5.048   9.950  0.2251  0.9433 -1.0273
  101MOL0     H13627   6.795   5.252   9.800 -0.6629  1.3819 -1.0888
  101MOL0     H13628   6.802   5.347   9.944  2.7841 -0.7830 -0.1818
  101MOL0     H13629   6.546   5.193   9.865  0.6649  0.2999 -1.0812
  101MOL0     H13630   6.570   5.285  10.019  2.6175 -0.7021  1.2950
  101MOL0     H13631   6.505   5.567   9.712  0.6313  0.6461  0.4470
  101MOL0     H13632   7.203   5.236  10.000  1.1342 -0.5196  1.2247
  101MOL0     H13633   7.502   5.353   9.871  2.6791 -0.0193  1.2790
  101MOL0     H13634   7.412   5.346  10.020 -2.1131 -0.4780 -0.2122
  101MOL0     H13635   7.543   5.224   9.985  0.2656  0.5553  0.6639
  102MOL0     O13636  10.237   7.568   9.168  0.9650  0.1306 -0.9278
  102MOL0     C13637  10.149   7.630   9.231  0.2421  0.4017  0.8924
  102MOL0     O13638  10.163   7.761   9.273  0.5737 -0.1341 -0.0259
  102MOL0     C13639  10.273   7.842   9.258 -0.8934  0.1443  0.1053
  102MOL0     C13640  10.269   7.966   9.328 -0.1118  0.8333  0.8411
  102MOL0     C13641  10.383   8.041   9.336 -0.8078 -0.2792 -0.4946
  102MOL0     C13642  10.500   8.017   9.261 -0.5343  0.0904  0.0600
  102MOL0     O13643  10.601   8.114   9.275  0.0065  0.2096 -0.6603
  102MOL0     C13644  10.729   8.069   9.257  0.4512 -0.3191 -0.0498
  102MOL0     C13645  10.832   8.176   9.290 -0.1090 -0.2323 -0.0221
  102MOL0     C13646  10.967   8.116   9.268  0.2272  0.8469  0.4355
  102MOL0     C13647  11.062   8.229   9.308 -0.6227  0.2602  0.8223
  102MOL0     C13648  11.206   8.193   9.281 -0.4429 -0.3872 -0.2910
  102MOL0     C13649  11.307   8.308   9.308  0.9107  0.0311 -0.6016
  102MOL0     C13650  11.453   8.289   9.293  0.1296  0.6841 -0.2539
  102MOL0     C13651  11.532   8.409   9.350 -0.0928  0.3469 -0.3652
  102MOL0     N13652  11.671   8.393   9.345  0.2925  0.0853 -1.0107
  102MOL0     C13653  11.737   8.298   9.425  0.4429 -0.1021 -1.2362
  102MOL0     C13654  11.863   8.294   9.372  0.5441  0.5942 -0.4415
  102MOL0     C13655  11.985   8.233   9.433 -0.3803  0.9531 -0.6360
  102MOL0     C13656  12.090   8.331   9.478 -0.1209  0.5655 -0.9895
  102MOL0     C13657  12.194   8.374   9.364  0.2053 -0.2851  1.0410
  102MOL0     C13658  12.280   8.475   9.422 -0.0649  0.4682  0.2044
  102MOL0     O13659  12.367   8.435   9.521 -0.0167  0.3155 -0.7451
  102MOL0     C13660  12.504   8.414   9.508 -0.1442 -0.2472 -0.1348
  102MOL0     C13661  12.580   8.402   9.385 -0.0917  0.1418 -0.7785
  102MOL0     C13662  12.716   8.375   9.384  0.3808  0.0029 -1.1643
  102MOL0     C13663  12.773   8.336   9.504 -0.6417  0.0154  0.1862
  102MOL0     C13664  12.908   8.277   9.512 -0.5185 -1.0940  0.4539
  102MOL0     O13665  12.963   8.241   9.636  0.2030 -0.3068 -0.2095
  102MOL0     C13666  13.098   8.246   9.651 -0.7419  0.0620  0.2612
  102MOL0     C13667  13.193   8.315   9.568  0.3889 -0.5338 -0.3536
  102MOL0     C13668  13.333   8.306   9.584 -0.2449 -0.3937  0.7998
  102MOL0     C13669  13.388   8.240   9.685 -0.0035 -0.3218  1.2541
  102MOL0     O13670  13.528   8.239   9.686 -0.3407 -0.6574 -0.3025
  102MOL0     C13671  13.600   8.144   9.767  1.1418  0.3379  0.7954
  102MOL0     C13672  13.749   8.167   9.760  0.0842 -0.8334  0.6380
  102MOL0     C13673  13.836   8.106   9.878  0.1791  0.1506 -0.2067
  102MOL0     C13674  13.986   8.150   9.872 -0.5060  0.4513 -0.1089
  102MOL0     C13675  14.008   8.307   9.900  0.2212  0.1517  0.0561
  102MOL0     C13676  14.156   8.341   9.903  0.1637  0.3230 -0.1383
  102MOL0     C13677  14.190   8.490   9.898  0.0885 -0.5755 -0.0799
  102MOL0     C13678  14.345   8.521   9.896 -0.1140 -0.1388  0.0729
  102MOL0    Cl13679  14.423   8.437   9.756 -0.3075  0.0454  0.4174
  102MOL0     C13680  13.305   8.169   9.770  0.5534 -0.0209 -0.1630
  102MOL0     C13681  13.159   8.171   9.759 -0.1384  0.0458  0.8889
  102MOL0     O13682  12.961   8.252   9.407  0.0246 -0.3682  0.0160
  102MOL0     C13683  12.699   8.323   9.619  0.3213  0.8757  0.6444
  102MOL0     C13684  12.568   8.370   9.627 -0.6735 -0.1742  0.1612
  102MOL0     N13685  11.872   8.385   9.270 -0.0574 -0.2615  0.0627
  102MOL0     N13686  11.758   8.440   9.253  0.5733 -1.5959 -0.1954
  102MOL0     C13687  10.497   7.914   9.173 -0.7394 -0.0307  0.2203
  102MOL0     C13688  10.388   7.825   9.169  0.2468 -0.7250 -0.1762
  102MOL0     C13689  10.021   7.559   9.258 -0.4549  0.6244  0.5532
  102MOL0     C13690  10.012   7.425   9.224  0.0475  0.7506  0.5834
  102MOL0     C13691   9.897   7.348   9.248  0.5846  0.4353 -0.2536
  102MOL0     C13692   9.787   7.413   9.295  0.5294  0.2181 -0.6201
  102MOL0     O13693   9.683   7.327   9.329  0.0477 -0.2924  0.2958
  102MOL0     C13694   9.583   7.375   9.412 -0.3834 -0.5586 -0.3058
  102MOL0     C13695   9.502   7.256   9.464  0.8617 -0.0872 -0.3364
  102MOL0     C13696   9.382   7.298   9.547 -0.3455  0.4104 -0.2727
  102MOL0     C13697   9.437   7.387   9.658  0.0341  0.0810  0.2145
  102MOL0     C13698   9.344   7.374   9.771 -0.6971 -1.2803  0.0538
  102MOL0     C13699   9.267   7.354   9.861 -0.0975 -0.8423 -0.2459
  102MOL0     C13700   9.789   7.550   9.318 -0.3069 -0.2177 -0.6903
  102MOL0     C13701   9.906   7.622   9.304 -0.0696  0.1870 -0.2201
  102MOL0     C13702   9.895   7.771   9.339  0.3318  0.4639 -0.3222
  102MOL0     H13703  10.177   7.996   9.377 -0.0647  1.6607  0.4463
  102MOL0     H13704  10.388   8.133   9.393 -0.0323  0.2021 -1.2926
  102MOL0     H13705  10.749   7.983   9.320 -0.8132  1.2848  2.7273
  102MOL0     H13706  10.741   8.046   9.151 -1.7815  0.7043 -0.5955
  102MOL0     H13707  10.814   8.202   9.395  0.8351  2.5047 -0.4728
  102MOL0     H13708  10.817   8.267   9.231 -0.9984 -0.1966  0.2402
  102MOL0     H13709  10.994   8.077   9.169  2.8885 -0.7833  1.7031
  102MOL0     H13710  10.982   8.042   9.348 -1.0704  3.2139  3.0186
  102MOL0     H13711  11.036   8.318   9.249 -1.8544 -0.2684  0.5387
  102MOL0     H13712  11.051   8.245   9.415  2.1990 -4.1562  2.0099
  102MOL0     H13713  11.232   8.112   9.349 -0.0812 -1.2045 -1.3918
  102MOL0     H13714  11.228   8.162   9.179 -0.3420  2.3606 -1.1883
  102MOL0     H13715  11.282   8.390   9.239  0.6259  0.7402  0.3318
  102MOL0     H13716  11.315   8.352   9.408  0.0895 -1.2288  0.0417
  102MOL0     H13717  11.488   8.267   9.192  2.8390 -0.3052  0.8192
  102MOL0     H13718  11.475   8.197   9.348  0.3243  0.5394 -0.5678
  102MOL0     H13719  11.495   8.487   9.282 -3.1708 -1.7071 -1.2767
  102MOL0     H13720  11.506   8.420   9.456  1.3131 -1.4280  0.1930
  102MOL0     H13721  11.695   8.253   9.515  0.0621  0.0542 -1.3323
  102MOL0     H13722  11.957   8.177   9.523  0.1053 -2.1195 -2.2682
  102MOL0     H13723  12.024   8.153   9.370  1.3017 -0.1684  1.6879
  102MOL0     H13724  12.039   8.422   9.512  0.4105  1.5934 -2.8104
  102MOL0     H13725  12.135   8.279   9.562  1.4473 -2.5437 -3.5372
  102MOL0     H13726  12.160   8.427   9.275  0.8882  0.1505  1.0256
  102MOL0     H13727  12.239   8.280   9.330 -3.9873 -0.6990 -4.7242
  102MOL0     H13728  12.216   8.558   9.453 -3.3024 -0.6921 -2.7883
  102MOL0     H13729  12.334   8.526   9.341 -0.8166  4.6067  2.0156
  102MOL0     H13730  12.535   8.418   9.288 -0.3676 -0.9475 -0.8503
  102MOL0     H13731  12.792   8.391   9.307  1.3204  0.3976 -0.1781
  102MOL0     H13732  13.164   8.379   9.486 -0.4288  1.7892  1.6360
  102MOL0     H13733  13.404   8.359   9.521 -0.4906 -0.7842  0.1885
  102MOL0     H13734  13.581   8.151   9.875 -1.2916  0.2650  0.4375
  102MOL0     H13735  13.585   8.043   9.729  2.5164  0.7427 -0.9784
  102MOL0     H13736  13.783   8.119   9.668  0.2011  1.7252 -0.7509
  102MOL0     H13737  13.770   8.274   9.751 -0.1876 -0.9225 -1.5164
  102MOL0     H13738  13.793   8.145   9.971 -0.6618 -0.7759 -0.1827
  102MOL0     H13739  13.815   7.998   9.874  2.5463 -0.3634 -0.0562
  102MOL0     H13740  14.035   8.119   9.779 -1.6470 -0.8472 -0.3106
  102MOL0     H13741  14.026   8.089   9.953  1.1510  1.8694  0.2087
  102MOL0     H13742  13.968   8.320  10.001 -2.2810 -3.5444 -0.2772
  102MOL0     H13743  13.964   8.368   9.821 -0.2524 -1.2754 -0.8191
  102MOL0     H13744  14.205   8.300   9.991  1.5767 -0.1233 -1.1058
  102MOL0     H13745  14.201   8.301   9.811 -2.2667  0.5066 -1.4997
  102MOL0     H13746  14.149   8.534   9.989  0.8951 -0.9043  0.4584
  102MOL0     H13747  14.134   8.533   9.815  0.6194 -0.5488 -0.4325
  102MOL0     H13748  14.364   8.628   9.894  0.7473 -0.2843  0.2076
  102MOL0     H13749  14.394   8.472   9.981  0.3688 -0.5206 -0.4148
  102MOL0     H13750  13.336   8.109   9.855 -1.1635  0.2170  0.6697
  102MOL0     H13751  13.096   8.115   9.828  0.6102 -2.4170 -0.3229
  102MOL0     H13752  12.748   8.295   9.712  0.7706  3.5963  1.3271
  102MOL0     H13753  12.509   8.385   9.717  1.3713  0.8100  1.4142
  102MOL0     H13754  10.579   7.885   9.108  0.2522 -2.0700  2.2765
  102MOL0     H13755  10.397   7.727   9.122  2.7855  0.3972 -2.2989
  102MOL0     H13756  10.094   7.370   9.179 -1.9433 -1.4130 -0.6097
  102MOL0     H13757   9.888   7.244   9.218  0.7758  0.3328  0.0488
  102MOL0     H13758   9.519   7.450   9.364  1.2302  1.8131  1.0617
  102MOL0     H13759   9.643   7.421   9.491 -0.9474 -1.2781  0.5436
  102MOL0     H13760   9.565   7.175   9.503  2.4998  0.9293 -0.7687
  102MOL0     H13761   9.456   7.222   9.371  1.5383 -1.1914 -0.2803
  102MOL0     H13762   9.333   7.203   9.568  0.4720 -0.7320 -3.0881
  102MOL0     H13763   9.305   7.357   9.495 -2.3437  1.9536  3.9790
  102MOL0     H13764   9.532   7.351   9.698  0.1421 -0.4357 -0.4851
  102MOL0     H13765   9.452   7.488   9.620  0.0050 -1.1432 -3.4872
  102MOL0     H13766   9.212   7.309   9.942  1.6216 -3.0921 -0.2277
  102MOL0     H13767   9.699   7.600   9.352 -0.2819 -1.3875  1.2421
  102MOL0     H13768   9.789   7.797   9.341 -0.3211 -1.9165 -1.1724
  102MOL0     H13769   9.950   7.796   9.430  1.7963 -1.2917 -0.6540
  102MOL0     H13770   9.938   7.834   9.260  0.9869 -1.2328 -1.3679
  103MOL0     O13771   7.576   3.623   0.707 -0.2059  0.2045  0.3408
  103MOL0     C13772   7.522   3.658   0.605  0.2188  0.1406  0.5698
  103MOL0     O13773   7.590   3.716   0.495  0.3571 -0.3735  0.0975
  103MOL0     C13774   7.726   3.727   0.484  1.0026  0.9812 -0.3084
  103MOL0     C13775   7.818   3.621   0.518  0.5537 -0.2050 -0.8571
  103MOL0     C13776   7.954   3.636   0.492 -0.3540 -0.1441 -0.8127
  103MOL0     C13777   8.006   3.753   0.441 -0.0106  0.8626 -1.1161
  103MOL0     O13778   8.141   3.754   0.436 -0.1400  0.1489  0.6484
  103MOL0     C13779   8.206   3.883   0.438 -0.7215  0.1683  0.6459
  103MOL0     C13780   8.345   3.876   0.496  0.2291 -0.3436  0.2351
  103MOL0     C13781   8.415   4.011   0.526 -0.3674 -0.1668 -0.1904
  103MOL0     C13782   8.337   4.103   0.622 -0.1624  0.2529 -0.0269
  103MOL0     C13783   8.422   4.230   0.651  1.8386 -0.1510  0.9159
  103MOL0     C13784   8.351   4.327   0.749 -0.4779  0.9427 -0.7529
  103MOL0     C13785   8.457   4.421   0.824  0.3752  0.4551 -0.3432
  103MOL0     C13786   8.528   4.342   0.938  0.3634 -0.3499  0.0001
  103MOL0     N13787   8.596   4.436   1.031  0.6174  0.9817  0.2064
  103MOL0     C13788   8.540   4.528   1.113 -0.4009  0.8104 -0.4693
  103MOL0     C13789   8.637   4.603   1.165  0.3689 -0.2132 -0.3449
  103MOL0     C13790   8.614   4.724   1.256  0.3975  0.4096 -0.1872
  103MOL0     C13791   8.518   4.826   1.195  0.2606  1.2548  0.0657
  103MOL0     C13792   8.576   4.969   1.168 -0.2462 -0.5822  0.7404
  103MOL0     C13793   8.467   5.069   1.200  0.2706 -0.8675  0.7523
  103MOL0     O13794   8.422   5.077   1.339 -0.3699  0.6048 -0.6540
  103MOL0     C13795   8.288   5.097   1.368 -0.3898 -0.1456 -0.2789
  103MOL0     C13796   8.235   5.077   1.494 -0.0670  0.0727  1.1517
  103MOL0     C13797   8.102   5.106   1.522  0.3338 -0.7290 -0.1215
  103MOL0     C13798   8.015   5.177   1.434 -0.6154  0.2279 -0.3093
  103MOL0     C13799   7.872   5.203   1.472  0.1107  0.0024 -0.0119
  103MOL0     O13800   7.832   5.131   1.585  0.2833  0.1927  0.4527
  103MOL0     C13801   7.702   5.099   1.592 -0.3253 -1.2395  0.2421
  103MOL0     C13802   7.638   4.986   1.555  0.1510  0.1243 -0.2488
  103MOL0     C13803   7.498   4.971   1.562 -0.1964  0.2786 -0.0906
  103MOL0     C13804   7.424   5.078   1.612  0.3848  0.7896 -0.7738
  103MOL0     O13805   7.287   5.076   1.645 -0.9990 -0.6243  0.0952
  103MOL0     C13806   7.219   4.952   1.640 -1.5536  0.0503 -0.1917
  103MOL0     C13807   7.094   4.954   1.726  0.0521 -0.8254 -1.0200
  103MOL0     C13808   6.991   5.050   1.658 -0.8385 -0.3037 -0.3422
  103MOL0     C13809   6.882   5.081   1.760  0.4487  0.4533 -0.2832
  103MOL0     C13810   6.806   4.946   1.804  0.2090  0.0209 -0.4419
  103MOL0     C13811   6.705   4.966   1.928 -0.1219 -0.1150 -0.0929
  103MOL0     C13812   6.595   5.059   1.875 -0.3217  0.1575 -0.8099
  103MOL0     C13813   6.472   5.037   1.965 -0.2915 -0.4036 -0.4515
  103MOL0    Cl13814   6.396   4.873   1.937 -0.0354  0.4806  0.3430
  103MOL0     C13815   7.489   5.199   1.646  0.0591  0.6416 -0.1713
  103MOL0     C13816   7.625   5.205   1.641 -0.0050 -0.0848  0.7464
  103MOL0     O13817   7.799   5.262   1.395 -0.2165  0.4022  0.2861
  103MOL0     C13818   8.069   5.207   1.307 -0.5590 -0.3906  0.1934
  103MOL0     C13819   8.203   5.169   1.279  0.6547 -0.1075 -0.5822
  103MOL0     N13820   8.758   4.551   1.111  1.1926  0.0293  0.3688
  103MOL0     N13821   8.727   4.460   1.023  0.4981 -0.6613 -1.0971
  103MOL0     C13822   7.914   3.853   0.393 -1.3193 -1.0197  0.2649
  103MOL0     C13823   7.778   3.843   0.422 -0.7233 -0.1581  0.8604
  103MOL0     C13824   7.374   3.638   0.587 -0.1275  0.0628 -0.1049
  103MOL0     C13825   7.315   3.687   0.474  0.0707  0.4351  0.6223
  103MOL0     C13826   7.181   3.674   0.449  0.4275  0.3612  0.0081
  103MOL0     C13827   7.095   3.604   0.529  0.8023 -0.3428 -0.2048
  103MOL0     O13828   6.961   3.586   0.489 -0.2278 -0.3748 -0.2614
  103MOL0     C13829   6.872   3.498   0.567 -0.8251 -0.2920 -0.1942
  103MOL0     C13830   6.844   3.561   0.703  0.5256 -0.1480 -0.0155
  103MOL0     C13831   6.774   3.459   0.792 -0.5082 -0.1029 -0.4247
  103MOL0     C13832   6.733   3.522   0.925  0.6492 -0.8621  0.3080
  103MOL0     C13833   6.844   3.554   1.016  0.0254 -1.1041 -0.1112
  103MOL0     C13834   6.935   3.584   1.087  0.8627 -0.3128  0.0017
  103MOL0     C13835   7.150   3.547   0.644 -0.5712 -0.2069  0.2604
  103MOL0     C13836   7.291   3.570   0.678  0.1127 -0.0917 -1.1318
  103MOL0     C13837   7.342   3.509   0.803  0.1555  0.6921 -0.2939
  103MOL0     H13838   7.777   3.529   0.560  1.2951 -1.0948 -1.9936
  103MOL0     H13839   8.025   3.556   0.511 -1.0427 -0.5073  0.2859
  103MOL0     H13840   8.204   3.926   0.338 -0.8586 -1.1091  0.0816
  103MOL0     H13841   8.147   3.947   0.504 -0.6581  2.5981 -1.5108
  103MOL0     H13842   8.408   3.827   0.421  1.0969 -0.6630  1.1641
  103MOL0     H13843   8.352   3.811   0.583 -0.1726  0.2191  0.6914
  103MOL0     H13844   8.439   4.058   0.430  1.7041 -0.1023  0.3006
  103MOL0     H13845   8.510   3.978   0.569 -1.0062 -2.0027 -0.0934
  103MOL0     H13846   8.240   4.133   0.581 -0.2643  0.4131  0.3302
  103MOL0     H13847   8.310   4.062   0.719  1.8417  0.1448  0.5279
  103MOL0     H13848   8.505   4.184   0.705 -0.6231 -2.6200  2.8602
  103MOL0     H13849   8.453   4.279   0.558  0.0695 -0.2690  0.2283
  103MOL0     H13850   8.271   4.380   0.696  1.3074  1.1408 -3.4259
  103MOL0     H13851   8.297   4.270   0.826 -1.5181  0.9902 -1.4329
  103MOL0     H13852   8.401   4.501   0.875 -0.9777 -2.0262  2.4021
  103MOL0     H13853   8.519   4.460   0.743 -0.8938  0.2743 -1.4359
  103MOL0     H13854   8.457   4.281   0.995  0.6714 -1.1856 -0.4965
  103MOL0     H13855   8.600   4.277   0.886  0.7208 -0.5977  0.7844
  103MOL0     H13856   8.435   4.545   1.135 -0.1059 -0.1723  2.0281
  103MOL0     H13857   8.578   4.685   1.351 -0.2224 -0.8680 -0.9200
  103MOL0     H13858   8.713   4.766   1.273 -0.3067  1.8327  0.5788
  103MOL0     H13859   8.487   4.776   1.103 -2.5640  0.4172  1.3860
  103MOL0     H13860   8.424   4.832   1.250 -0.2712 -0.3330 -0.6196
  103MOL0     H13861   8.617   4.979   1.067  1.7314 -1.5808  1.4007
  103MOL0     H13862   8.661   4.984   1.234  1.5013 -2.8465 -0.8304
  103MOL0     H13863   8.388   5.058   1.126 -0.5316  0.5943  1.3430
  103MOL0     H13864   8.502   5.172   1.191 -1.6575 -0.0795  1.7329
  103MOL0     H13865   8.292   5.042   1.580 -1.8265  0.8393  2.7144
  103MOL0     H13866   8.062   5.081   1.620  2.5712 -0.1625  1.0098
  103MOL0     H13867   7.693   4.902   1.514 -0.6947 -0.0670 -1.0069
  103MOL0     H13868   7.451   4.878   1.534  1.9537 -0.7519 -0.5328
  103MOL0     H13869   7.208   4.910   1.539 -0.2890  0.4991 -0.5403
  103MOL0     H13870   7.267   4.868   1.690 -1.7083 -0.3719 -0.7469
  103MOL0     H13871   7.054   4.853   1.733  0.6388 -0.9138  3.0079
  103MOL0     H13872   7.118   4.990   1.826  1.7843 -0.5085 -1.4995
  103MOL0     H13873   7.040   5.142   1.624 -0.6158  0.3405  1.5903
  103MOL0     H13874   6.947   5.004   1.569  0.0541  0.8973 -1.4472
  103MOL0     H13875   6.817   5.163   1.725  1.2233  2.2310  2.1738
  103MOL0     H13876   6.938   5.125   1.843  1.3345  0.4388 -0.8602
  103MOL0     H13877   6.881   4.871   1.830  0.7437  1.2729  1.9345
  103MOL0     H13878   6.756   4.909   1.714 -1.9922  1.1715  0.2332
  103MOL0     H13879   6.667   4.871   1.966  0.1887  0.6141  2.1367
  103MOL0     H13880   6.754   5.001   2.019 -0.6170  2.6727 -0.8033
  103MOL0     H13881   6.561   5.029   1.776  1.0555 -2.2966 -0.6171
  103MOL0     H13882   6.633   5.162   1.878 -0.0885  0.0563  0.4704
  103MOL0     H13883   6.493   5.051   2.071  0.4145  0.8592 -0.7374
  103MOL0     H13884   6.401   5.116   1.937  1.0216  2.0213  2.4800
  103MOL0     H13885   7.438   5.287   1.685 -0.2348 -0.2553  1.5849
  103MOL0     H13886   7.678   5.300   1.650 -1.7937  0.8726  1.7291
  103MOL0     H13887   8.019   5.237   1.216  0.0450 -1.0960 -0.3868
  103MOL0     H13888   8.240   5.181   1.177  0.7981 -2.8733 -0.9430
  103MOL0     H13889   7.956   3.939   0.342  1.7402 -0.7840  2.8529
  103MOL0     H13890   7.704   3.912   0.382 -0.4599 -0.6861 -0.6090
  103MOL0     H13891   7.370   3.731   0.392 -0.8615 -2.2011 -1.5577
  103MOL0     H13892   7.138   3.715   0.358 -4.3086  0.2805  1.9152
  103MOL0     H13893   6.925   3.404   0.583  2.1323  1.3083  0.2042
  103MOL0     H13894   6.781   3.488   0.506 -0.5572  0.8230 -0.8192
  103MOL0     H13895   6.781   3.649   0.689  1.4207  0.5845  0.5129
  103MOL0     H13896   6.939   3.599   0.741  0.7556  2.7376 -3.0469
  103MOL0     H13897   6.849   3.382   0.814  1.9893  2.0982 -0.7822
  103MOL0     H13898   6.687   3.404   0.756 -1.7601  1.3855  0.2426
  103MOL0     H13899   6.684   3.616   0.898 -0.1980 -2.0471 -2.6860
  103MOL0     H13900   6.666   3.455   0.980  0.3640 -1.8306 -1.1498
  103MOL0     H13901   7.010   3.610   1.159 -0.6104  0.6446  1.2517
  103MOL0     H13902   7.101   3.486   0.720 -0.2337  0.1800  0.7981
  103MOL0     H13903   7.351   3.583   0.883  2.7280  0.1978 -0.0361
  103MOL0     H13904   7.283   3.423   0.836 -0.4897  2.4042  3.4266
  103MOL0     H13905   7.437   3.455   0.788 -0.9403 -1.0421 -1.3437
  104MOL0     O13906   0.700   4.578   6.948 -0.4393  0.0503  0.0397
  104MOL0     C13907   0.651   4.470   6.953 -0.8579 -0.4612 -0.3137
  104MOL0     O13908   0.725   4.359   6.988  0.0024 -0.0763  0.1870
  104MOL0     C13909   0.849   4.362   7.040 -0.0527  0.2858  0.1797
  104MOL0     C13910   0.958   4.429   6.990 -0.2356  0.3446  0.7487
  104MOL0     C13911   1.088   4.412   7.038  0.3344 -0.8232 -0.5431
  104MOL0     C13912   1.114   4.332   7.153 -0.6216 -0.9030 -0.3273
  104MOL0     O13913   1.239   4.330   7.221 -0.2475  0.2996 -0.0331
  104MOL0     C13914   1.349   4.386   7.149  0.3794  0.2492  0.4161
  104MOL0     C13915   1.483   4.361   7.226 -0.3911 -0.4361 -0.5534
  104MOL0     C13916   1.600   4.429   7.158  0.4884  0.2033 -0.0216
  104MOL0     C13917   1.597   4.587   7.172 -0.1599  0.0359  0.4346
  104MOL0     C13918   1.718   4.668   7.122  0.8725 -0.0701 -0.8623
  104MOL0     C13919   1.848   4.646   7.201  0.2588 -0.1128 -0.4862
  104MOL0     C13920   1.859   4.750   7.315 -0.4153  0.0199  0.0180
  104MOL0     C13921   1.905   4.682   7.439  0.0494 -0.2804  0.1665
  104MOL0     N13922   2.002   4.573   7.421 -0.0714  1.4857  0.0402
  104MOL0     C13923   2.009   4.452   7.486 -0.7908 -0.3571 -0.3917
  104MOL0     C13924   2.121   4.388   7.434  0.2966 -0.5979  0.1409
  104MOL0     C13925   2.172   4.263   7.497  0.6687 -0.2963  0.8791
  104MOL0     C13926   2.321   4.278   7.533 -0.3046  0.0133  0.0941
  104MOL0     C13927   2.349   4.176   7.643  0.1454  0.2594  0.2295
  104MOL0     C13928   2.493   4.171   7.693 -0.2956  0.0055 -0.0960
  104MOL0     O13929   2.539   4.047   7.750 -0.2406  0.6903 -0.2432
  104MOL0     C13930   2.674   4.040   7.765  0.3774  0.5915 -1.4823
  104MOL0     C13931   2.719   4.051   7.906 -0.9170  0.4317  0.6973
  104MOL0     C13932   2.849   4.057   7.937  0.4063 -0.3617  0.1260
  104MOL0     C13933   2.951   4.050   7.836 -0.2601 -0.5567  0.4053
  104MOL0     C13934   3.099   4.077   7.860 -0.0120 -0.0315  0.5000
  104MOL0     O13935   3.149   4.105   7.976  0.0041  0.7368  0.2767
  104MOL0     C13936   3.277   4.141   7.984  0.2197 -0.4985 -0.0088
  104MOL0     C13937   3.327   4.256   7.916  0.4927  0.1166 -0.7002
  104MOL0     C13938   3.453   4.309   7.925 -1.0975 -0.5826 -0.5720
  104MOL0     C13939   3.539   4.246   8.021 -1.2660 -1.1126 -0.2039
  104MOL0     O13940   3.670   4.287   8.029 -0.1528  0.0485 -0.8687
  104MOL0     C13941   3.717   4.387   7.940  0.0414 -0.1676  0.2313
  104MOL0     C13942   3.869   4.375   7.947 -0.3390  0.1065 -0.7837
  104MOL0     C13943   3.950   4.412   7.827 -0.5467 -0.5051 -0.1359
  104MOL0     C13944   4.087   4.459   7.871  0.0217 -0.5884 -0.1880
  104MOL0     C13945   4.171   4.357   7.943 -0.1163  0.4159  0.8247
  104MOL0     C13946   4.313   4.390   7.953 -0.7510  1.4079  0.5090
  104MOL0     C13947   4.407   4.287   8.027  0.4756 -0.0061  0.4320
  104MOL0     C13948   4.554   4.338   8.040 -0.6139  0.1304 -0.2152
  104MOL0    Cl13949   4.661   4.237   8.136  0.1924 -0.5072 -0.4471
  104MOL0     C13950   3.496   4.135   8.096  0.1203 -0.0222  0.4051
  104MOL0     C13951   3.364   4.081   8.076  0.2977 -0.1787 -0.3233
  104MOL0     O13952   3.164   4.077   7.755 -0.2179  0.3277  1.4807
  104MOL0     C13953   2.906   4.023   7.707 -0.1759 -1.0915 -0.4716
  104MOL0     C13954   2.772   4.020   7.671 -0.2563 -0.2770  1.3042
  104MOL0     N13955   2.180   4.469   7.345  0.6772 -0.0113  0.4571
  104MOL0     N13956   2.104   4.577   7.334 -0.3732  0.2693 -0.2350
  104MOL0     C13957   1.000   4.277   7.212 -0.8301  0.5272  0.1839
  104MOL0     C13958   0.876   4.289   7.151 -0.4849  0.0075 -0.0835
  104MOL0     C13959   0.509   4.441   6.928  0.2855 -0.6251 -0.2126
  104MOL0     C13960   0.451   4.330   6.979 -0.1417  0.7525 -0.3755
  104MOL0     C13961   0.312   4.317   6.986  0.7061 -0.2889  0.4423
  104MOL0     C13962   0.221   4.404   6.933 -0.7438 -1.5027  0.0389
  104MOL0     O13963   0.086   4.379   6.943  0.5636 -0.4986 -0.3518
  104MOL0     C13964  -0.004   4.449   6.869 -0.2864 -0.3929 -0.2657
  104MOL0     C13965  -0.135   4.398   6.906  0.4935  0.3422 -0.0639
  104MOL0     C13966  -0.160   4.247   6.875 -0.0491  0.1804  0.3058
  104MOL0     C13967  -0.265   4.178   6.955  0.8673 -0.0980  0.5694
  104MOL0     C13968  -0.387   4.259   6.941  0.7976 -0.6643  0.2976
  104MOL0     C13969  -0.486   4.328   6.929 -0.1154 -0.1480 -0.9226
  104MOL0     C13970   0.280   4.511   6.865 -0.3868 -0.2366  0.3141
  104MOL0     C13971   0.420   4.532   6.859 -0.6286 -0.2537 -0.6754
  104MOL0     C13972   0.472   4.656   6.789  0.2068 -0.8580  0.7738
  104MOL0     H13973   0.934   4.499   6.911  2.0259 -0.0240 -0.3433
  104MOL0     H13974   1.161   4.482   6.998 -1.9869  1.4694 -1.0944
  104MOL0     H13975   1.364   4.336   7.053  2.0970  1.2104  0.1236
  104MOL0     H13976   1.332   4.490   7.118 -1.9259 -0.5789 -1.3774
  104MOL0     H13977   1.503   4.254   7.237 -0.2052 -0.2559  1.1252
  104MOL0     H13978   1.470   4.400   7.327  1.1891  0.1618 -0.5571
  104MOL0     H13979   1.614   4.402   7.053  1.4590 -1.0899  0.4102
  104MOL0     H13980   1.690   4.395   7.210  1.0659 -1.1307 -1.7855
  104MOL0     H13981   1.509   4.617   7.114 -0.0654  1.9967  1.2131
  104MOL0     H13982   1.576   4.621   7.274  2.5147 -0.2654  1.1515
  104MOL0     H13983   1.737   4.627   7.023 -0.7826 -1.1751 -0.7689
  104MOL0     H13984   1.692   4.774   7.110 -1.3520 -0.0459  2.6206
  104MOL0     H13985   1.854   4.541   7.232 -0.8097  0.0206  0.2235
  104MOL0     H13986   1.936   4.661   7.137  0.4974 -1.0060 -0.3851
  104MOL0     H13987   1.763   4.796   7.339 -0.1086  0.7253 -0.0770
  104MOL0     H13988   1.928   4.831   7.291  0.3598 -0.2539  1.2120
  104MOL0     H13989   1.963   4.758   7.493  1.9113 -0.5012 -1.4083
  104MOL0     H13990   1.819   4.659   7.503 -2.3244  2.2976 -1.8201
  104MOL0     H13991   1.925   4.417   7.546 -0.2151  0.1306  0.7273
  104MOL0     H13992   2.109   4.233   7.581 -1.7364  1.6592 -0.1086
  104MOL0     H13993   2.167   4.183   7.422 -0.1729  0.0402  0.5534
  104MOL0     H13994   2.376   4.275   7.439  0.5057 -1.2183  0.5991
  104MOL0     H13995   2.339   4.376   7.580 -0.0939  0.2182 -0.4056
  104MOL0     H13996   2.329   4.074   7.606  2.4303  0.4841 -1.9022
  104MOL0     H13997   2.285   4.213   7.723  2.0725  2.4187  0.8903
  104MOL0     H13998   2.513   4.244   7.772 -2.0050  0.3449  0.0590
  104MOL0     H13999   2.566   4.192   7.613  0.1974 -0.6607  0.1743
  104MOL0     H14000   2.648   4.071   7.986 -2.8988 -0.2036 -0.8184
  104MOL0     H14001   2.879   4.085   8.038  1.3908  1.1259 -0.5367
  104MOL0     H14002   3.263   4.313   7.850  0.7217  2.1318  0.7431
  104MOL0     H14003   3.490   4.392   7.865  0.4929 -0.1142  0.9612
  104MOL0     H14004   3.682   4.383   7.836 -0.8628  1.0832  0.4551
  104MOL0     H14005   3.693   4.488   7.974 -0.2690  0.2350 -1.0895
  104MOL0     H14006   3.898   4.430   8.037  0.0098 -0.2367 -0.6831
  104MOL0     H14007   3.898   4.271   7.965  3.3676  0.8354 -1.6729
  104MOL0     H14008   3.965   4.327   7.760  0.6608 -0.5868  0.2217
  104MOL0     H14009   3.906   4.493   7.768  1.1646  0.6338  0.0840
  104MOL0     H14010   4.068   4.535   7.948 -0.3488 -0.7120 -0.1534
  104MOL0     H14011   4.123   4.518   7.787 -0.4796  0.2885  0.1903
  104MOL0     H14012   4.146   4.258   7.903  0.3497  0.8126 -0.5376
  104MOL0     H14013   4.135   4.357   8.046  0.9127 -0.7776  1.2065
  104MOL0     H14014   4.354   4.403   7.852 -0.5591  2.5154  0.7184
  104MOL0     H14015   4.325   4.487   8.000  2.6899  1.2799  0.1242
  104MOL0     H14016   4.417   4.195   7.968 -0.7784 -0.9524  1.5948
  104MOL0     H14017   4.369   4.271   8.128  2.4163  2.2978  1.6323
  104MOL0     H14018   4.593   4.326   7.938  0.6277  1.7502  0.0343
  104MOL0     H14019   4.560   4.444   8.067  2.9826  1.6389 -5.3771
  104MOL0     H14020   3.561   4.093   8.173  2.5737  2.3738 -0.2027
  104MOL0     H14021   3.347   3.994   8.139  1.6329  0.1287  0.5145
  104MOL0     H14022   2.972   4.020   7.620  0.1453 -1.0426 -0.2293
  104MOL0     H14023   2.757   4.019   7.564  2.4185  0.3906  0.8571
  104MOL0     H14024   0.999   4.238   7.313 -0.1637  0.7676  0.2855
  104MOL0     H14025   0.790   4.245   7.199  0.0962  0.3815  1.3678
  104MOL0     H14026   0.503   4.255   7.037 -0.0254  1.4649  0.4720
  104MOL0     H14027   0.274   4.228   7.036  0.9103  0.6283  2.3004
  104MOL0     H14028   0.015   4.431   6.763 -0.1500  3.8013 -1.1352
  104MOL0     H14029   0.003   4.558   6.879 -0.6247 -0.5553  2.6790
  104MOL0     H14030  -0.215   4.451   6.851 -0.8513 -1.7458 -0.2353
  104MOL0     H14031  -0.154   4.419   7.012 -2.5519 -1.0290 -0.2195
  104MOL0     H14032  -0.063   4.199   6.891  1.5508  2.4894 -1.6913
  104MOL0     H14033  -0.193   4.243   6.770 -2.2083  0.4098  0.9145
  104MOL0     H14034  -0.291   4.081   6.914 -1.9236  1.5615 -1.9646
  104MOL0     H14035  -0.239   4.163   7.060 -1.6497  0.0058  1.2588
  104MOL0     H14036  -0.582   4.375   6.924 -1.5565 -2.7676 -0.0372
  104MOL0     H14037   0.214   4.587   6.824  0.3949  0.7895  0.9304
  104MOL0     H14038   0.397   4.700   6.723  0.3468  0.3319  1.3900
  104MOL0     H14039   0.498   4.738   6.856 -0.9981 -0.6100  0.9636
  104MOL0     H14040   0.556   4.634   6.723  1.4376 -1.5462  2.4697
  105MOL0     O14041   4.047   3.609   2.915 -0.1847 -0.4949 -0.1505
  105MOL0     C14042   3.966   3.622   3.009 -0.2696 -0.5112 -0.2665
  105MOL0     O14043   3.992   3.707   3.115 -0.4123 -0.2299 -0.2642
  105MOL0     C14044   4.105   3.790   3.117  0.4412  0.2994  0.1633
  105MOL0     C14045   4.087   3.923   3.077 -0.5239 -0.6911  0.3416
  105MOL0     C14046   4.193   4.010   3.079  0.4622 -0.1538 -0.2836
  105MOL0     C14047   4.320   3.969   3.124  0.3727  0.6678 -0.0557
  105MOL0     O14048   4.420   4.066   3.132 -0.1945 -0.9267  0.9521
  105MOL0     C14049   4.556   4.023   3.156  1.0429 -1.0279 -0.3200
  105MOL0     C14050   4.668   4.129   3.185 -0.3189  1.0074  1.0109
  105MOL0     C14051   4.800   4.065   3.227 -0.5623 -0.6246  0.6375
  105MOL0     C14052   4.794   4.013   3.369 -0.0058  0.3230  0.1710
  105MOL0     C14053   4.926   3.950   3.414  0.3199 -0.8487 -0.4853
  105MOL0     C14054   5.019   4.056   3.455 -0.1098  0.4023 -0.7230
  105MOL0     C14055   5.162   3.996   3.495 -0.2297  1.0195 -0.4739
  105MOL0     C14056   5.250   3.990   3.371 -0.1020 -0.4985 -0.7218
  105MOL0     N14057   5.368   3.906   3.381 -0.2406 -0.3674 -0.2104
  105MOL0     C14058   5.480   3.947   3.447 -0.5981  0.6270  1.1061
  105MOL0     C14059   5.579   3.860   3.399 -0.2420 -0.1671 -0.4154
  105MOL0     C14060   5.722   3.853   3.446  0.3159  0.1463  0.2634
  105MOL0     C14061   5.767   3.707   3.466 -0.7401 -0.0576  0.6719
  105MOL0     C14062   5.905   3.688   3.531  0.2637 -0.9648  0.3833
  105MOL0     C14063   6.016   3.768   3.455 -0.2196 -0.5954  0.0092
  105MOL0     O14064   6.133   3.746   3.522 -0.4302  0.2079  0.1375
  105MOL0     C14065   6.254   3.774   3.451 -0.2239  0.8718  0.2450
  105MOL0     C14066   6.262   3.817   3.321 -0.6808 -0.1777 -0.3244
  105MOL0     C14067   6.386   3.843   3.263 -0.5267  0.5191  0.8368
  105MOL0     C14068   6.504   3.800   3.325  0.4259 -0.5979  0.0182
  105MOL0     C14069   6.638   3.809   3.265 -0.1287  0.2615 -0.0926
  105MOL0     O14070   6.632   3.853   3.138 -0.1861 -0.0405  0.4559
  105MOL0     C14071   6.743   3.875   3.058  0.4782 -0.8454  0.7642
  105MOL0     C14072   6.752   4.004   2.992 -0.1911  0.8543  0.2697
  105MOL0     C14073   6.867   4.023   2.921  0.3917 -0.7760 -0.4022
  105MOL0     C14074   6.969   3.926   2.915 -0.7038 -0.2081 -0.6196
  105MOL0     O14075   7.083   3.973   2.855 -0.1509  0.1580  0.3015
  105MOL0     C14076   7.197   3.885   2.855 -0.2313 -0.0635 -0.2470
  105MOL0     C14077   7.310   3.943   2.769  0.1095  0.3534  0.4236
  105MOL0     C14078   7.355   4.081   2.812 -0.7045 -0.9657  0.7056
  105MOL0     C14079   7.457   4.123   2.699 -0.0531 -0.2354  0.3787
  105MOL0     C14080   7.517   4.267   2.700  0.4294 -0.1449 -0.1702
  105MOL0     C14081   7.416   4.380   2.671 -0.5111  0.3954  0.2622
  105MOL0     C14082   7.470   4.514   2.715 -0.3113  0.7982 -0.2625
  105MOL0     C14083   7.390   4.632   2.662  0.1536  0.1969 -0.0526
  105MOL0    Cl14084   7.231   4.620   2.737  0.2072  0.1274 -0.1901
  105MOL0     C14085   6.963   3.805   2.981 -0.7266 -0.6061 -1.1317
  105MOL0     C14086   6.847   3.784   3.052  0.8730  0.4069 -0.2795
  105MOL0     O14087   6.737   3.794   3.333 -0.4873  0.0929 -0.7343
  105MOL0     C14088   6.492   3.750   3.453  0.4959 -0.2252 -0.0452
  105MOL0     C14089   6.369   3.738   3.510  0.0100 -0.2664  0.9657
  105MOL0     N14090   5.512   3.770   3.316  0.3463 -0.6389  0.0365
  105MOL0     N14091   5.389   3.793   3.320  0.5521  0.3030  0.3125
  105MOL0     C14092   4.335   3.830   3.157  0.6706 -1.2094 -0.5002
  105MOL0     C14093   4.225   3.745   3.155 -1.1673 -0.8239 -0.3894
  105MOL0     C14094   3.827   3.566   3.010 -0.2601  0.7860  0.0700
  105MOL0     C14095   3.742   3.598   3.114 -0.0620  0.2709 -0.2457
  105MOL0     C14096   3.610   3.539   3.116  0.0032  0.4520 -0.1725
  105MOL0     C14097   3.567   3.461   3.015  1.1010 -0.6539  1.2096
  105MOL0     O14098   3.437   3.417   3.038 -0.5842  0.1837  0.1992
  105MOL0     C14099   3.371   3.338   2.936 -0.3037  0.9699  0.0289
  105MOL0     C14100   3.258   3.245   3.009 -0.0585 -0.5244  0.2304
  105MOL0     C14101   3.160   3.186   2.899  0.6518  0.2831 -0.3508
  105MOL0     C14102   3.044   3.282   2.859 -0.3329 -0.1347  0.4135
  105MOL0     C14103   2.959   3.316   2.972  0.2991 -0.4273  0.5047
  105MOL0     C14104   2.883   3.331   3.061  1.0388 -0.4241 -1.5153
  105MOL0     C14105   3.649   3.429   2.905 -0.6298  0.3354 -0.6794
  105MOL0     C14106   3.780   3.476   2.907  0.6977  0.2391  0.4417
  105MOL0     C14107   3.872   3.412   2.800  0.5442 -0.5267  0.3260
  105MOL0     H14108   3.992   3.967   3.047 -0.1683 -1.5705 -2.3840
  105MOL0     H14109   4.170   4.109   3.040 -0.8545  0.3500  1.6588
  105MOL0     H14110   4.562   3.956   3.242 -1.3168  2.9317  3.3070
  105MOL0     H14111   4.589   3.964   3.069  2.9948 -1.5302  0.7091
  105MOL0     H14112   4.642   4.204   3.261  1.2302  2.5462  0.0808
  105MOL0     H14113   4.677   4.181   3.089  2.6309  1.2144  1.3063
  105MOL0     H14114   4.890   4.124   3.210 -1.3953  0.1225 -1.5227
  105MOL0     H14115   4.811   3.975   3.165 -0.6224 -0.2462  0.0762
  105MOL0     H14116   4.760   4.094   3.434 -1.1777 -0.0349  0.0297
  105MOL0     H14117   4.712   3.940   3.378 -0.0285  0.1177 -1.4361
  105MOL0     H14118   4.906   3.879   3.495 -2.3407 -0.4601 -0.7263
  105MOL0     H14119   4.970   3.880   3.342 -1.0224 -2.0502 -0.1883
  105MOL0     H14120   5.029   4.135   3.380 -0.7781 -1.4505 -2.8514
  105MOL0     H14121   4.980   4.105   3.545  1.3569  0.2153  0.0361
  105MOL0     H14122   5.149   3.893   3.528 -2.1757  0.6875 -2.0801
  105MOL0     H14123   5.213   4.054   3.572  1.5552 -0.9426 -0.0923
  105MOL0     H14124   5.195   3.939   3.291  1.7499 -1.8226 -1.2097
  105MOL0     H14125   5.268   4.095   3.345 -2.6139  1.2047  3.4682
  105MOL0     H14126   5.491   4.027   3.519  3.2744  0.2585  1.1587
  105MOL0     H14127   5.782   3.910   3.375  3.3694 -1.1290  1.6391
  105MOL0     H14128   5.726   3.898   3.546  1.2731 -3.1697  1.8650
  105MOL0     H14129   5.689   3.649   3.518 -1.2374  0.1848  0.2000
  105MOL0     H14130   5.774   3.660   3.368 -1.7314  2.0940 -0.4841
  105MOL0     H14131   5.931   3.582   3.535 -2.4358 -1.6639  0.9672
  105MOL0     H14132   5.904   3.725   3.634  0.7724 -2.2618  0.8755
  105MOL0     H14133   6.003   3.877   3.453  2.1045 -0.2499  0.2703
  105MOL0     H14134   6.021   3.730   3.352  1.8293 -1.6641  0.4383
  105MOL0     H14135   6.176   3.852   3.265 -0.0590 -1.2303 -2.0087
  105MOL0     H14136   6.391   3.902   3.172 -2.3828  1.4901  1.3270
  105MOL0     H14137   6.679   4.084   2.993  0.1252  1.3847 -3.6426
  105MOL0     H14138   6.878   4.116   2.866 -1.4530 -0.1390  0.2106
  105MOL0     H14139   7.243   3.863   2.952 -0.7685 -1.0819 -0.2087
  105MOL0     H14140   7.168   3.789   2.811  1.3399 -0.7363  0.1410
  105MOL0     H14141   7.389   3.867   2.773 -2.2651 -2.2597  0.5697
  105MOL0     H14142   7.278   3.941   2.664 -2.5493  0.8949  1.1501
  105MOL0     H14143   7.269   4.149   2.802 -0.0800  0.1115  2.2137
  105MOL0     H14144   7.402   4.094   2.910  1.4953 -0.7664 -0.3133
  105MOL0     H14145   7.421   4.111   2.597  0.7511  1.1141 -0.0867
  105MOL0     H14146   7.541   4.054   2.711 -0.3921 -0.3640  2.3433
  105MOL0     H14147   7.602   4.277   2.632  0.3154 -3.3369 -0.9140
  105MOL0     H14148   7.559   4.271   2.801 -0.0520 -0.0409  0.0305
  105MOL0     H14149   7.394   4.380   2.564  1.9250  0.4654 -0.3092
  105MOL0     H14150   7.324   4.362   2.727  0.1513  1.3611  1.7347
  105MOL0     H14151   7.570   4.525   2.674  0.1135  0.2358  0.5807
  105MOL0     H14152   7.475   4.520   2.825 -1.0878  2.3929 -0.2827
  105MOL0     H14153   7.427   4.731   2.687 -1.2716  0.8744 -0.5067
  105MOL0     H14154   7.381   4.618   2.554 -0.6546 -0.8808  0.1293
  105MOL0     H14155   7.052   3.744   2.991 -1.5040 -1.5025  1.1233
  105MOL0     H14156   6.846   3.686   3.098  1.1108  0.0989 -0.9240
  105MOL0     H14157   6.577   3.727   3.516 -1.0581  0.2763  2.3394
  105MOL0     H14158   6.356   3.692   3.608  2.0568  1.3169  2.0755
  105MOL0     H14159   4.428   3.784   3.188  0.0516 -1.3579  1.2018
  105MOL0     H14160   4.229   3.641   3.187 -1.8434 -1.0411 -0.9802
  105MOL0     H14161   3.769   3.650   3.205  1.7799  1.8211 -1.5830
  105MOL0     H14162   3.532   3.567   3.185  1.2439 -1.1255  2.0000
  105MOL0     H14163   3.438   3.259   2.901 -2.3050 -1.6143  1.6323
  105MOL0     H14164   3.330   3.393   2.851 -2.5295 -1.6297 -0.7062
  105MOL0     H14165   3.197   3.293   3.086  0.2421  0.6429 -0.2461
  105MOL0     H14166   3.308   3.165   3.064 -0.7022  0.1547  1.8741
  105MOL0     H14167   3.120   3.097   2.948  2.4154 -0.5620 -0.3721
  105MOL0     H14168   3.200   3.135   2.811 -0.4938 -2.3895  0.5692
  105MOL0     H14169   3.087   3.373   2.816 -1.3236 -0.5031 -1.4309
  105MOL0     H14170   2.985   3.229   2.784 -1.4247 -0.4337  1.4472
  105MOL0     H14171   2.815   3.346   3.142  2.5039 -2.8648  0.3062
  105MOL0     H14172   3.624   3.372   2.816  0.7083 -1.7871  0.2329
  105MOL0     H14173   3.950   3.354   2.850 -0.1222  0.4318  2.5943
  105MOL0     H14174   3.809   3.348   2.738  2.0939 -2.1206  0.3496
  105MOL0     H14175   3.923   3.488   2.740 -0.6852  1.4905  1.7076
  106MOL0     O14176  10.311   0.182   9.105  0.0123  0.5431  0.1696
  106MOL0     C14177  10.323   0.072   9.158 -0.9731  0.3374 -0.5743
  106MOL0     O14178  10.436  -0.011   9.167 -0.4984  0.4970 -0.3222
  106MOL0     C14179  10.557   0.031   9.125  0.0247  1.1239 -0.1739
  106MOL0     C14180  10.574   0.042   8.985  0.0714  0.0202 -0.0077
  106MOL0     C14181  10.706   0.064   8.941  0.0807  0.3636 -0.8032
  106MOL0     C14182  10.810   0.098   9.028  0.4667 -0.2001 -0.5087
  106MOL0     O14183  10.938   0.132   8.990  0.1213  0.1064  0.3031
  106MOL0     C14184  10.991   0.124   8.854 -0.2257 -0.4125 -0.8600
  106MOL0     C14185  11.146   0.155   8.845 -0.5518 -0.3339  0.4038
  106MOL0     C14186  11.224   0.080   8.952  0.2108  0.3801  0.4838
  106MOL0     C14187  11.373   0.104   8.927  0.0971 -0.2780  0.9554
  106MOL0     C14188  11.457   0.019   9.018 -0.2655  1.8051 -0.1670
  106MOL0     C14189  11.428   0.036   9.177  0.1562  0.2155 -0.2153
  106MOL0     C14190  11.564   0.007   9.253 -0.0339  1.1359 -0.2995
  106MOL0     C14191  11.550   0.063   9.398  0.1282 -0.4902  0.6460
  106MOL0     N14192  11.677   0.038   9.479 -0.3199  0.3664 -1.5262
  106MOL0     C14193  11.783   0.118   9.502  0.9088  0.6167  1.0504
  106MOL0     C14194  11.876   0.037   9.556  0.5361 -0.0539  0.2521
  106MOL0     C14195  12.021   0.069   9.576  0.0971  0.6234 -0.4599
  106MOL0     C14196  12.112   0.001   9.467 -0.2163  0.6525 -0.8141
  106MOL0     C14197  12.156  -0.138   9.510  0.2924  0.5021 -0.1242
  106MOL0     C14198  12.262  -0.159   9.627 -0.4274  0.4810 -0.0499
  106MOL0     O14199  12.380  -0.085   9.594 -0.2930 -0.4080  0.0341
  106MOL0     C14200  12.493  -0.115   9.667 -0.2850  0.8023 -0.4429
  106MOL0     C14201  12.606  -0.028   9.668 -0.1716  0.4196  0.7871
  106MOL0     C14202  12.725  -0.050   9.739  0.6106 -0.0867 -1.0052
  106MOL0     C14203  12.729  -0.154   9.835 -0.2634  0.0537 -1.3134
  106MOL0     C14204  12.847  -0.173   9.924 -0.7621 -0.5098  0.0007
  106MOL0     O14205  12.953  -0.087   9.901 -0.4694 -0.2033  0.0422
  106MOL0     C14206  13.072  -0.136   9.933  0.5174  1.3964 -0.1452
  106MOL0     C14207  13.142  -0.113  10.052 -1.1299  0.1353  0.4959
  106MOL0     C14208  13.272  -0.183  10.062  1.0664 -0.2421 -0.1947
  106MOL0     C14209  13.324  -0.257   9.961 -0.2441 -0.2958  0.2055
  106MOL0     O14210  13.453  -0.314   9.956  0.1529 -0.1297  0.6957
  106MOL0     C14211  13.527  -0.308  10.078  0.5224 -0.1722 -0.1750
  106MOL0     C14212  13.651  -0.386  10.078 -1.1164  0.3710 -0.1494
  106MOL0     C14213  13.722  -0.359  10.210 -0.5490  0.2624 -0.0448
  106MOL0     C14214  13.873  -0.379  10.220 -0.0982 -0.1799  0.6482
  106MOL0     C14215  13.927  -0.324  10.360 -0.0974  0.2093  0.6516
  106MOL0     C14216  14.078  -0.311  10.335  0.3363  0.0481 -0.5715
  106MOL0     C14217  14.169  -0.280  10.465  0.0518 -0.3697 -0.4876
  106MOL0     C14218  14.314  -0.331  10.440  0.0304 -0.0047 -0.0627
  106MOL0    Cl14219  14.412  -0.279  10.588  0.1020 -0.0590  0.1283
  106MOL0     C14220  13.245  -0.274   9.848  0.1498  0.3618 -0.0839
  106MOL0     C14221  13.127  -0.215   9.832  0.1786 -0.4627  0.2368
  106MOL0     O14222  12.841  -0.264  10.006  0.4418  0.5787 -0.3186
  106MOL0     C14223  12.612  -0.234   9.844  0.6189  0.2941 -0.1663
  106MOL0     C14224  12.503  -0.217   9.760 -0.0341 -0.1195  0.7225
  106MOL0     N14225  11.811  -0.086   9.584 -0.2318  0.0323 -0.3158
  106MOL0     N14226  11.689  -0.083   9.539 -1.2075  0.1400  0.0119
  106MOL0     C14227  10.785   0.088   9.167  0.1069  0.3113 -0.4860
  106MOL0     C14228  10.658   0.060   9.214 -0.3945  0.0589 -0.6151
  106MOL0     C14229  10.205   0.021   9.234 -0.6511 -1.5136 -0.0066
  106MOL0     C14230  10.206  -0.117   9.262  0.5870  0.7541  0.9323
  106MOL0     C14231  10.115  -0.165   9.348 -0.6521  0.1947 -0.5128
  106MOL0     C14232  10.008  -0.097   9.403 -0.4988 -0.7196 -0.3517
  106MOL0     O14233   9.907  -0.137   9.485  0.3332 -0.1045 -0.1657
  106MOL0     C14234   9.902  -0.275   9.529 -0.3640  0.3937 -0.1586
  106MOL0     C14235   9.786  -0.311   9.623  0.3436 -0.3992  0.5874
  106MOL0     C14236   9.667  -0.304   9.526  1.1327 -0.2407 -0.1554
  106MOL0     C14237   9.538  -0.293   9.608 -0.5443  0.2761 -0.3423
  106MOL0     C14238   9.417  -0.276   9.534  0.3336 -0.0632 -0.0677
  106MOL0     C14239   9.321  -0.261   9.462 -0.2845  0.0660  0.3101
  106MOL0     C14240   9.999   0.045   9.367  0.9491  0.0550 -0.4428
  106MOL0     C14241  10.094   0.104   9.277  0.9068  0.2886 -0.6505
  106MOL0     C14242  10.076   0.252   9.254  0.0410 -0.5409 -0.9652
  106MOL0     H14243  10.490   0.012   8.923 -1.5778  1.0875  1.5832
  106MOL0     H14244  10.714   0.069   8.833 -0.4635 -2.1645 -1.0311
  106MOL0     H14245  10.967   0.024   8.818 -0.4763 -0.2588 -1.1248
  106MOL0     H14246  10.944   0.198   8.788  2.2539 -0.5486 -2.9873
  106MOL0     H14247  11.158   0.261   8.867  0.2876 -0.2890 -0.1970
  106MOL0     H14248  11.182   0.136   8.743  1.9234 -1.2402  1.3913
  106MOL0     H14249  11.196  -0.026   8.956  0.0830  0.4218  0.6755
  106MOL0     H14250  11.200   0.128   9.047 -2.0472  4.8349 -2.0300
  106MOL0     H14251  11.400   0.082   8.823 -0.0363  0.1158  0.8331
  106MOL0     H14252  11.386   0.211   8.948  1.6388 -0.3589  0.4926
  106MOL0     H14253  11.440  -0.086   8.993 -0.2199  1.1891  2.1674
  106MOL0     H14254  11.565   0.037   9.007  0.4855 -2.0822 -0.7649
  106MOL0     H14255  11.398   0.137   9.208 -1.1143  0.6783 -2.6885
  106MOL0     H14256  11.343  -0.030   9.198 -3.3898  2.9412 -4.2810
  106MOL0     H14257  11.657   0.035   9.203  0.1129 -1.3512 -1.5648
  106MOL0     H14258  11.568  -0.100   9.273 -1.0375  0.9934 -0.7905
  106MOL0     H14259  11.540   0.171   9.386 -0.8932 -0.3300  2.5967
  106MOL0     H14260  11.457   0.022   9.438 -1.3698  1.1632 -0.9987
  106MOL0     H14261  11.808   0.214   9.458  1.9223  0.4532  1.2341
  106MOL0     H14262  12.032   0.178   9.569 -0.6760  0.6412 -1.8157
  106MOL0     H14263  12.064   0.034   9.670 -1.5762  0.4431  0.2735
  106MOL0     H14264  12.066   0.000   9.368  1.7396 -0.2289 -1.7654
  106MOL0     H14265  12.203   0.058   9.451  0.6172 -0.4016  0.0259
  106MOL0     H14266  12.183  -0.194   9.420 -0.1862 -2.1736  1.2881
  106MOL0     H14267  12.066  -0.189   9.547  1.0409 -1.0404 -0.3950
  106MOL0     H14268  12.283  -0.267   9.629  1.8553  0.4551 -5.8171
  106MOL0     H14269  12.224  -0.127   9.724 -2.4775  1.4471 -1.1011
  106MOL0     H14270  12.597   0.052   9.595  1.5709 -0.2217 -0.2031
  106MOL0     H14271  12.805   0.023   9.738 -1.2418  2.0659 -0.6963
  106MOL0     H14272  13.118  -0.054  10.139 -0.3994  0.9737  0.1499
  106MOL0     H14273  13.325  -0.174  10.156 -0.8092 -1.7041  1.0788
  106MOL0     H14274  13.550  -0.203  10.100 -0.4795 -0.3908  2.2709
  106MOL0     H14275  13.473  -0.336  10.169  0.6444  3.1046  1.0489
  106MOL0     H14276  13.626  -0.492  10.072  0.5292  0.0271 -2.0391
  106MOL0     H14277  13.709  -0.356   9.990  0.8566  3.2516  1.9370
  106MOL0     H14278  13.698  -0.256  10.237 -0.4086  0.4832 -0.7332
  106MOL0     H14279  13.671  -0.416  10.287 -1.2797 -2.6086 -2.4490
  106MOL0     H14280  13.915  -0.313  10.143 -0.1240 -2.6924 -1.6759
  106MOL0     H14281  13.897  -0.485  10.211  1.0849 -0.2752  3.7398
  106MOL0     H14282  13.909  -0.389  10.446 -4.5059 -3.7852 -2.7748
  106MOL0     H14283  13.883  -0.225  10.371 -2.0903  0.1066 -4.1530
  106MOL0     H14284  14.116  -0.403  10.291  0.0957 -0.5116  0.3764
  106MOL0     H14285  14.080  -0.237  10.254  0.1255 -0.7038 -1.2757
  106MOL0     H14286  14.126  -0.344  10.543 -2.0460  0.0938 -1.2017
  106MOL0     H14287  14.185  -0.174  10.487 -2.4602  0.2755 -1.4444
  106MOL0     H14288  14.326  -0.438  10.419 -1.1273  0.0496 -1.0863
  106MOL0     H14289  14.370  -0.293  10.354 -0.2017  0.2195 -0.1156
  106MOL0     H14290  13.284  -0.328   9.762 -0.7427  3.3833 -2.5555
  106MOL0     H14291  13.074  -0.231   9.739  1.1798 -2.3090 -0.0654
  106MOL0     H14292  12.596  -0.296   9.931  0.5842  0.6435  0.0798
  106MOL0     H14293  12.420  -0.288   9.769  1.4108 -1.7873  1.5689
  106MOL0     H14294  10.860   0.088   9.246 -2.2425  0.7908  1.8553
  106MOL0     H14295  10.626   0.073   9.317 -0.2465  0.6914 -0.6404
  106MOL0     H14296  10.276  -0.186   9.216 -0.3568 -0.9266  1.9213
  106MOL0     H14297  10.113  -0.273   9.362  0.8341  0.2138  0.0681
  106MOL0     H14298   9.995  -0.292   9.583 -1.3837 -0.4859  1.3923
  106MOL0     H14299   9.896  -0.336   9.438  3.6037  0.6642 -0.7710
  106MOL0     H14300   9.769  -0.241   9.705 -0.4939  0.9244 -0.6437
  106MOL0     H14301   9.812  -0.408   9.667  2.2540  0.5125  1.5809
  106MOL0     H14302   9.659  -0.389   9.457 -3.1751 -0.3952  0.2751
  106MOL0     H14303   9.680  -0.211   9.469  0.6719  0.4882  0.8983
  106MOL0     H14304   9.527  -0.372   9.682 -2.3268  1.4380  0.6954
  106MOL0     H14305   9.565  -0.199   9.658  0.8216  0.0404 -0.5911
  106MOL0     H14306   9.234  -0.234   9.406 -0.8059  2.4144  2.0946
  106MOL0     H14307   9.920   0.098   9.420 -0.6623 -0.4941 -2.1817
  106MOL0     H14308   9.983   0.286   9.299 -0.4072 -0.8907 -1.6175
  106MOL0     H14309  10.156   0.303   9.308 -1.7946  1.3038  0.1497
  106MOL0     H14310  10.079   0.281   9.149  3.1035 -3.0540 -1.7292
  107MOL0     O14311   6.931  11.198   2.631  0.2174 -0.1055 -0.0105
  107MOL0     C14312   6.891  11.169   2.741  0.6073  0.4622  0.0746
  107MOL0     O14313   6.959  11.144   2.855 -0.4724 -0.8299 -0.0553
  107MOL0     C14314   7.096  11.149   2.848  0.4097 -0.0663 -0.4103
  107MOL0     C14315   7.162  11.038   2.800  0.2212  0.0967  0.2715
  107MOL0     C14316   7.295  11.027   2.783 -0.0381  0.0857  0.1889
  107MOL0     C14317   7.379  11.135   2.830 -0.1737  0.0765  0.2134
  107MOL0     O14318   7.514  11.140   2.835 -0.1489  0.0005 -0.0250
  107MOL0     C14319   7.603  11.043   2.781  0.6277 -0.8741  0.3572
  107MOL0     C14320   7.662  10.948   2.892 -0.9552 -0.2623  0.5311
  107MOL0     C14321   7.784  11.016   2.964  0.6031  0.8679  0.0544
  107MOL0     C14322   7.841  10.914   3.062 -0.3015  0.1290 -0.4363
  107MOL0     C14323   7.920  10.989   3.168  0.2703  0.8091 -1.1108
  107MOL0     C14324   7.998  10.891   3.249 -0.0137  1.1226 -0.8550
  107MOL0     C14325   8.076  10.961   3.365 -0.8883  0.5717  0.1062
  107MOL0     C14326   8.160  11.078   3.310 -0.0770 -0.1996  0.1355
  107MOL0     N14327   8.269  11.048   3.216  0.3630 -0.0027 -0.2776
  107MOL0     C14328   8.266  11.066   3.078  0.4994 -0.8269 -0.3944
  107MOL0     C14329   8.374  11.010   3.026 -0.2588 -0.0740  0.3194
  107MOL0     C14330   8.420  11.034   2.882  0.6441  0.0928 -0.4563
  107MOL0     C14331   8.386  10.914   2.792  0.3002  0.0119 -1.0150
  107MOL0     C14332   8.232  10.875   2.790  0.4079 -0.0011 -0.1127
  107MOL0     C14333   8.146  10.965   2.707 -0.1598 -0.5832  0.1257
  107MOL0     O14334   8.042  10.867   2.693 -0.2297 -0.1613  0.1309
  107MOL0     C14335   7.938  10.895   2.604 -0.4214  0.3581 -0.6026
  107MOL0     C14336   7.926  11.005   2.521  0.0062  0.5603  1.0268
  107MOL0     C14337   7.808  11.035   2.446  0.6482  0.3986  0.3121
  107MOL0     C14338   7.701  10.944   2.446 -0.6450  0.4856  0.0513
  107MOL0     C14339   7.577  10.971   2.371 -0.3944  0.0982  0.3003
  107MOL0     O14340   7.457  10.929   2.425 -0.1210  0.1845  0.0404
  107MOL0     C14341   7.337  10.978   2.367 -0.5179 -0.7454  0.4585
  107MOL0     C14342   7.230  11.046   2.434 -0.8202  0.1382  0.3346
  107MOL0     C14343   7.117  11.073   2.365  0.4198 -0.4254  1.0291
  107MOL0     C14344   7.089  11.037   2.234  0.6877  0.5512 -0.0631
  107MOL0     O14345   6.967  11.077   2.177  0.0976  0.7574  0.0546
  107MOL0     C14346   6.989  11.171   2.075  1.2099 -0.0479  0.2037
  107MOL0     C14347   6.891  11.146   1.962  0.1762 -0.3488  0.4353
  107MOL0     C14348   6.748  11.181   2.011 -0.2135  0.2510  0.2350
  107MOL0     C14349   6.650  11.193   1.897  0.1970  1.5939 -0.1716
  107MOL0     C14350   6.507  11.176   1.927 -0.6098 -0.3432  0.3843
  107MOL0     C14351   6.482  11.027   1.945 -0.9262 -0.0541 -1.1323
  107MOL0     C14352   6.347  10.994   1.982  0.7379 -0.7112  0.0803
  107MOL0     C14353   6.312  11.030   2.127 -0.2247  0.1670  0.3666
  107MOL0    Cl14354   6.136  10.998   2.156  0.7181  0.1585 -0.1508
  107MOL0     C14355   7.191  10.965   2.165  0.1607 -1.6298  0.6352
  107MOL0     C14356   7.317  10.950   2.234  0.8574 -0.2651 -0.3035
  107MOL0     O14357   7.588  11.033   2.268 -0.5681  0.0308 -0.4576
  107MOL0     C14358   7.717  10.829   2.523  0.7781 -0.1297  0.8840
  107MOL0     C14359   7.827  10.805   2.604 -0.4550 -0.1782  0.1789
  107MOL0     N14360   8.451  10.953   3.134  0.3193 -0.3702  0.0201
  107MOL0     N14361   8.389  10.987   3.241 -0.5826 -0.0610 -0.0352
  107MOL0     C14362   7.315  11.250   2.891  0.2492  0.0254  0.7582
  107MOL0     C14363   7.174  11.257   2.893 -0.2878 -0.0717 -0.3474
  107MOL0     C14364   6.739  11.182   2.746 -0.7817  0.3167  0.4709
  107MOL0     C14365   6.684  11.176   2.871  0.6109 -1.0856 -0.8190
  107MOL0     C14366   6.550  11.168   2.888 -0.5190  1.2485 -0.3014
  107MOL0     C14367   6.467  11.162   2.780  0.4593  0.6047  0.8418
  107MOL0     O14368   6.327  11.152   2.797 -0.3506 -0.0538 -0.5903
  107MOL0     C14369   6.232  11.148   2.692 -0.1814 -0.5244 -0.6157
  107MOL0     C14370   6.184  11.274   2.613  0.2672 -0.1324 -0.3337
  107MOL0     C14371   6.187  11.404   2.705 -0.3298 -0.1973 -0.1210
  107MOL0     C14372   6.144  11.538   2.639 -0.1191  0.3752 -0.0133
  107MOL0     C14373   6.223  11.566   2.519 -0.8879 -0.1941 -0.4937
  107MOL0     C14374   6.291  11.603   2.425 -0.0637  0.1906  0.3796
  107MOL0     C14375   6.521  11.168   2.648 -1.1406 -0.0882  0.3408
  107MOL0     C14376   6.658  11.179   2.632  0.4283  0.3297  0.5052
  107MOL0     C14377   6.707  11.175   2.489 -0.5171  0.2444  0.5730
  107MOL0     H14378   7.103  10.952   2.769 -0.2315 -0.8810  3.5262
  107MOL0     H14379   7.333  10.934   2.743  1.0655  0.5376  0.1722
  107MOL0     H14380   7.550  10.990   2.702 -2.1556 -0.8519  2.0825
  107MOL0     H14381   7.693  11.083   2.733  0.5242 -1.4102 -0.3095
  107MOL0     H14382   7.685  10.856   2.838 -0.3445  0.9531 -1.3687
  107MOL0     H14383   7.578  10.923   2.958 -1.8520  2.3059  0.4765
  107MOL0     H14384   7.740  11.102   3.015 -0.9558  0.2707 -0.2497
  107MOL0     H14385   7.859  11.042   2.887  1.1713 -3.8367 -1.2842
  107MOL0     H14386   7.759  10.852   3.100 -0.0762 -0.1025 -0.3248
  107MOL0     H14387   7.907  10.842   3.013 -0.4727  0.2658 -0.8698
  107MOL0     H14388   7.996  11.053   3.123  1.1047  0.3679 -0.3705
  107MOL0     H14389   7.852  11.038   3.238  0.4501 -0.0941 -0.2711
  107MOL0     H14390   7.936  10.812   3.292 -0.4135  1.5720 -0.5945
  107MOL0     H14391   8.068  10.836   3.184  0.2040  0.0777  0.2395
  107MOL0     H14392   8.125  10.885   3.428 -3.6227 -0.8155  0.7004
  107MOL0     H14393   8.001  11.003   3.433 -0.1393 -0.2412  1.5002
  107MOL0     H14394   8.089  11.145   3.262 -1.0861 -1.7414 -0.6020
  107MOL0     H14395   8.209  11.135   3.390 -0.5157 -0.3617  0.5270
  107MOL0     H14396   8.201  11.133   3.023 -3.3190 -0.1290  4.2501
  107MOL0     H14397   8.372  11.127   2.851 -0.8093  0.7248  3.2737
  107MOL0     H14398   8.528  11.053   2.879  0.7784 -0.7367 -1.9323
  107MOL0     H14399   8.415  10.935   2.689  0.6816 -1.7760 -1.3039
  107MOL0     H14400   8.446  10.827   2.819  1.8971  0.7529 -2.0069
  107MOL0     H14401   8.187  10.863   2.889 -2.1417  1.8168 -0.9453
  107MOL0     H14402   8.236  10.772   2.754 -1.3430 -0.8998  2.0266
  107MOL0     H14403   8.207  10.987   2.619 -2.3372  1.1418 -1.0518
  107MOL0     H14404   8.097  11.052   2.751  1.5773  0.1624  0.6442
  107MOL0     H14405   8.003  11.080   2.505 -1.0027  1.4055  0.0208
  107MOL0     H14406   7.806  11.127   2.388  3.2907  0.9616  0.9992
  107MOL0     H14407   7.233  11.071   2.539  2.9268 -1.2675  0.7189
  107MOL0     H14408   7.036  11.129   2.410 -0.1439  1.4996 -2.1133
  107MOL0     H14409   7.002  11.274   2.111  4.0563  0.6709 -2.4169
  107MOL0     H14410   7.088  11.156   2.030  0.6825  1.3129 -1.5139
  107MOL0     H14411   6.928  11.210   1.881  2.2164 -2.3578 -0.3251
  107MOL0     H14412   6.888  11.044   1.924 -3.5414 -1.3945  2.9625
  107MOL0     H14413   6.715  11.112   2.088  0.3817 -0.5820 -0.2404
  107MOL0     H14414   6.765  11.274   2.067  0.0745  0.2506  0.1526
  107MOL0     H14415   6.677  11.119   1.821 -0.2851 -1.5548  2.5060
  107MOL0     H14416   6.657  11.295   1.859 -2.9888  1.9931  0.0574
  107MOL0     H14417   6.448  11.215   1.843 -0.6161  2.0644  1.4198
  107MOL0     H14418   6.471  11.238   2.010 -0.3021  3.1090 -1.8253
  107MOL0     H14419   6.496  10.976   1.849 -2.7148 -0.8334 -1.0029
  107MOL0     H14420   6.553  10.976   2.011 -1.9973 -0.1650 -0.0309
  107MOL0     H14421   6.345  10.885   1.967  2.0390 -0.4623 -2.6465
  107MOL0     H14422   6.278  11.027   1.903  2.7961 -2.1975 -2.5020
  107MOL0     H14423   6.372  10.970   2.196 -1.9119 -1.5132  0.4527
  107MOL0     H14424   6.330  11.135   2.150 -1.7177  0.1456  1.8261
  107MOL0     H14425   7.185  10.936   2.061  1.9266 -2.1070  0.6335
  107MOL0     H14426   7.391  10.889   2.181  1.4489  0.0163  0.1810
  107MOL0     H14427   7.631  10.763   2.513 -1.5005  2.5558  1.6178
  107MOL0     H14428   7.835  10.706   2.647 -0.7737  0.5034  1.9142
  107MOL0     H14429   7.379  11.328   2.932  1.8752 -0.6684 -0.3571
  107MOL0     H14430   7.125  11.340   2.942  1.1837  0.5067  0.1846
  107MOL0     H14431   6.741  11.157   2.962 -2.0261 -1.2357  0.9100
  107MOL0     H14432   6.518  11.152   2.990 -1.4452 -1.8960 -0.9734
  107MOL0     H14433   6.139  11.115   2.738  0.7743 -0.8527  1.1632
  107MOL0     H14434   6.261  11.073   2.617  2.1768 -0.9571  0.6363
  107MOL0     H14435   6.079  11.259   2.588  0.0238  0.1975  0.4567
  107MOL0     H14436   6.240  11.292   2.521 -1.5069 -0.4185 -1.5184
  107MOL0     H14437   6.288  11.410   2.747 -0.7535  0.0271  0.9014
  107MOL0     H14438   6.116  11.384   2.786  0.7897 -2.6152  0.3498
  107MOL0     H14439   6.040  11.539   2.606  0.5901  1.1516 -2.4080
  107MOL0     H14440   6.161  11.626   2.702 -0.3449  0.9718 -0.7714
  107MOL0     H14441   6.348  11.634   2.340 -0.7326 -0.0784 -0.1766
  107MOL0     H14442   6.455  11.178   2.562  0.0449  0.0654 -0.5768
  107MOL0     H14443   6.627  11.171   2.414 -0.2995 -0.3800  0.3740
  107MOL0     H14444   6.761  11.269   2.472 -3.3356  2.1104  1.1993
  107MOL0     H14445   6.764  11.082   2.490  0.3832  0.7652 -0.3571
  108MOL0     O14446   0.397   7.998   0.919 -0.0428 -0.0830 -0.6005
  108MOL0     C14447   0.441   7.884   0.891 -0.5405 -0.0610  0.4835
  108MOL0     O14448   0.460   7.832   0.766  0.2566  0.2671 -0.5556
  108MOL0     C14449   0.468   7.923   0.666  0.6371  0.3444 -0.8904
  108MOL0     C14450   0.575   8.005   0.646 -0.1585 -0.6783 -0.0284
  108MOL0     C14451   0.587   8.098   0.544  0.1095  0.4043  1.1305
  108MOL0     C14452   0.485   8.110   0.457  0.2881 -0.6374  0.2540
  108MOL0     O14453   0.502   8.194   0.348 -0.3662 -0.3616  0.2357
  108MOL0     C14454   0.533   8.133   0.225 -0.3527 -0.8569 -0.0477
  108MOL0     C14455   0.684   8.112   0.200  0.0946 -1.2076  0.1138
  108MOL0     C14456   0.713   8.070   0.056  0.3497 -0.0846  0.2033
  108MOL0     C14457   0.863   8.059   0.038  0.5345  0.1259  0.6230
  108MOL0     C14458   0.927   7.944   0.104  0.1920 -0.5126 -0.2573
  108MOL0     C14459   1.076   7.934   0.072 -0.5084 -0.3949 -0.0417
  108MOL0     C14460   1.133   7.809   0.138  0.4983  0.1750 -0.9982
  108MOL0     C14461   1.251   7.748   0.073 -0.2428  0.3186  0.1965
  108MOL0     N14462   1.360   7.845   0.048  0.0358  0.0758  0.3459
  108MOL0     C14463   1.472   7.860   0.124 -0.3535  0.2069 -0.3243
  108MOL0     C14464   1.524   7.979   0.083  0.8747 -0.0683  0.5657
  108MOL0     C14465   1.648   8.047   0.125 -0.7157 -0.2135 -0.4989
  108MOL0     C14466   1.638   8.142   0.240 -0.9941 -0.7733 -0.8325
  108MOL0     C14467   1.754   8.241   0.263 -0.1239  0.0645 -0.4543
  108MOL0     C14468   1.716   8.350   0.368  0.3676  0.1875 -0.0979
  108MOL0     O14469   1.697   8.296   0.499  0.3016 -0.3414  0.2586
  108MOL0     C14470   1.615   8.364   0.588  0.5097 -0.0847  0.1068
  108MOL0     C14471   1.529   8.297   0.669  0.5933  0.1883  0.6806
  108MOL0     C14472   1.449   8.365   0.765  1.1337  0.4438  0.5036
  108MOL0     C14473   1.454   8.501   0.780 -0.5526 -0.1344 -0.4125
  108MOL0     C14474   1.386   8.561   0.898 -0.3182  0.1823  0.0762
  108MOL0     O14475   1.261   8.606   0.882  0.8355 -0.1684  0.6443
  108MOL0     C14476   1.179   8.604   0.991  0.5428 -0.7010  0.1465
  108MOL0     C14477   1.115   8.726   1.026 -0.8477  0.3660  0.4971
  108MOL0     C14478   1.022   8.729   1.136 -0.6094  0.2331 -0.7272
  108MOL0     C14479   0.994   8.607   1.205 -0.1595 -0.0136 -0.3796
  108MOL0     O14480   0.878   8.616   1.283  0.1493 -0.3472  1.1135
  108MOL0     C14481   0.891   8.528   1.393  0.2726  0.2917 -1.1329
  108MOL0     C14482   0.774   8.569   1.475 -0.8877 -0.0538 -0.0283
  108MOL0     C14483   0.732   8.456   1.568  0.2280 -0.1399  0.0007
  108MOL0     C14484   0.643   8.514   1.676 -0.0944 -0.5761 -0.8149
  108MOL0     C14485   0.599   8.396   1.765 -0.8394 -0.6345  0.0987
  108MOL0     C14486   0.510   8.442   1.880  0.1514  0.2642  0.1045
  108MOL0     C14487   0.436   8.318   1.925  1.2488 -0.0105  0.2996
  108MOL0     C14488   0.359   8.349   2.055  0.3561  1.0750 -0.5973
  108MOL0    Cl14489   0.270   8.216   2.121  0.1472 -0.3416  0.5503
  108MOL0     C14490   1.068   8.494   1.169  0.6881  0.3201  0.2377
  108MOL0     C14491   1.157   8.493   1.066  0.2029 -1.0652  0.3659
  108MOL0     O14492   1.465   8.561   0.996  0.5004 -0.4633 -0.3181
  108MOL0     C14493   1.542   8.572   0.685  0.2766  0.1674 -0.3822
  108MOL0     C14494   1.628   8.504   0.594  0.6211 -0.2889  0.1763
  108MOL0     N14495   1.445   8.021  -0.021  0.2173  0.0531 -1.2620
  108MOL0     N14496   1.348   7.945  -0.044  0.7361 -0.3469 -0.3356
  108MOL0     C14497   0.370   8.039   0.480  0.1979 -0.1925  0.6488
  108MOL0     C14498   0.354   7.944   0.582 -0.4787 -0.4982 -0.3211
  108MOL0     C14499   0.479   7.785   0.992  0.7198  0.2985  0.0582
  108MOL0     C14500   0.569   7.677   0.969 -0.1897 -0.5102 -1.0721
  108MOL0     C14501   0.593   7.587   1.065 -0.7483 -0.3829 -0.0587
  108MOL0     C14502   0.548   7.588   1.190  0.8239 -0.7030 -0.1187
  108MOL0     O14503   0.590   7.487   1.281  0.0415 -0.0513  0.1671
  108MOL0     C14504   0.516   7.472   1.401 -0.6891  0.3960  0.1743
  108MOL0     C14505   0.577   7.541   1.520  0.4648 -0.5930 -0.6046
  108MOL0     C14506   0.694   7.460   1.584  0.2602  0.2442  0.3340
  108MOL0     C14507   0.758   7.534   1.701 -0.2652 -0.7549 -0.1879
  108MOL0     C14508   0.677   7.526   1.826 -0.5770 -0.2797  0.6310
  108MOL0     C14509   0.613   7.518   1.925  0.5529 -0.0831 -0.0524
  108MOL0     C14510   0.463   7.698   1.226  0.1895  0.4248 -0.2653
  108MOL0     C14511   0.438   7.805   1.133 -0.2073  0.0688  0.2555
  108MOL0     C14512   0.357   7.921   1.188 -0.6157 -0.0128  0.6903
  108MOL0     H14513   0.657   8.007   0.717 -0.7715  6.1353  1.1876
  108MOL0     H14514   0.673   8.164   0.536 -0.3048  0.9751  1.3275
  108MOL0     H14515   0.480   8.038   0.206  1.4755 -1.7333 -1.0493
  108MOL0     H14516   0.484   8.205   0.159 -0.9186  0.6911  1.9850
  108MOL0     H14517   0.719   8.042   0.275 -0.9868 -1.4036  0.4452
  108MOL0     H14518   0.739   8.206   0.213 -1.2441  0.0818 -2.6454
  108MOL0     H14519   0.671   8.136  -0.021 -1.5822 -0.2247  1.0738
  108MOL0     H14520   0.663   7.974   0.045  1.3851 -0.8372  1.7634
  108MOL0     H14521   0.869   8.038  -0.070 -0.0302  0.1086  0.5923
  108MOL0     H14522   0.919   8.149   0.066  0.4324  0.4370 -0.1289
  108MOL0     H14523   0.915   7.951   0.212 -1.0847 -1.7557 -0.2941
  108MOL0     H14524   0.873   7.851   0.082  0.5553 -1.2587  1.7744
  108MOL0     H14525   1.094   7.931  -0.035 -3.2169  1.2748 -0.6427
  108MOL0     H14526   1.119   8.026   0.113 -0.8707 -0.2448  0.0019
  108MOL0     H14527   1.059   7.730   0.125  1.6089 -0.6942 -2.4289
  108MOL0     H14528   1.142   7.826   0.245  0.7492 -0.9542 -0.8311
  108MOL0     H14529   1.297   7.667   0.130 -1.5779 -0.9724 -0.4972
  108MOL0     H14530   1.216   7.699  -0.018 -0.4287  0.4544  0.1935
  108MOL0     H14531   1.515   7.794   0.199  3.1766  1.0795 -1.3538
  108MOL0     H14532   1.720   7.971   0.156  1.2252  2.1556  1.2229
  108MOL0     H14533   1.692   8.100   0.040  1.1616  0.4611  0.8256
  108MOL0     H14534   1.551   8.206   0.222 -1.3862 -0.9585  0.2979
  108MOL0     H14535   1.615   8.086   0.331 -1.1543 -0.6466 -0.7944
  108MOL0     H14536   1.771   8.299   0.172 -2.1977  0.6398 -0.5210
  108MOL0     H14537   1.849   8.192   0.289 -0.5017 -0.3862  0.1034
  108MOL0     H14538   1.630   8.411   0.339  0.6397  0.8294  0.4251
  108MOL0     H14539   1.796   8.425   0.374  0.8273 -0.3900  1.6493
  108MOL0     H14540   1.514   8.190   0.660  2.2568  0.0028 -0.4373
  108MOL0     H14541   1.373   8.302   0.808 -0.9553  0.6000 -2.6211
  108MOL0     H14542   1.131   8.809   0.957  2.5203 -0.6073 -0.0711
  108MOL0     H14543   0.973   8.821   1.163  2.1765  2.0715 -1.4599
  108MOL0     H14544   0.897   8.426   1.356  1.4338 -0.5015  1.0481
  108MOL0     H14545   0.979   8.546   1.457 -1.0418  1.3791  0.4705
  108MOL0     H14546   0.818   8.658   1.522  1.2603 -1.9547  1.8291
  108MOL0     H14547   0.684   8.603   1.422 -2.1523 -2.1493  0.6326
  108MOL0     H14548   0.687   8.382   1.501 -0.5903  0.6233 -0.3126
  108MOL0     H14549   0.819   8.413   1.617 -0.9242 -2.9258 -0.1998
  108MOL0     H14550   0.559   8.572   1.636  0.9066  0.9590 -0.8076
  108MOL0     H14551   0.698   8.580   1.745 -2.6315 -1.9375  2.7902
  108MOL0     H14552   0.687   8.340   1.800 -2.0117 -3.2476 -0.8536
  108MOL0     H14553   0.544   8.330   1.698 -0.3929  0.6318 -1.5586
  108MOL0     H14554   0.568   8.495   1.956 -0.5816  2.1393 -0.5745
  108MOL0     H14555   0.434   8.511   1.843  0.6505 -0.1286 -1.7912
  108MOL0     H14556   0.522   8.255   1.949  1.4251 -0.2138 -0.8303
  108MOL0     H14557   0.372   8.291   1.840  1.9298  1.5621 -0.7775
  108MOL0     H14558   0.430   8.384   2.130  0.3939  0.8176 -0.5131
  108MOL0     H14559   0.277   8.420   2.040 -1.4982 -0.0286  3.1440
  108MOL0     H14560   1.048   8.399   1.218 -0.3188  0.2585 -0.2633
  108MOL0     H14561   1.210   8.401   1.045  0.9601 -0.9368  1.6146
  108MOL0     H14562   1.555   8.677   0.709  1.5429 -0.1499  0.4370
  108MOL0     H14563   1.694   8.552   0.523  0.2971 -0.9497 -0.5884
  108MOL0     H14564   0.292   8.057   0.406  2.4267  3.9852 -1.0479
  108MOL0     H14565   0.265   7.884   0.602 -1.5369  1.6215  1.8423
  108MOL0     H14566   0.612   7.666   0.870  3.6297  0.4167  0.2987
  108MOL0     H14567   0.644   7.495   1.037 -0.9171 -0.0314 -1.6348
  108MOL0     H14568   0.506   7.366   1.425 -3.5730  0.6144  0.3470
  108MOL0     H14569   0.413   7.509   1.390 -1.6305 -2.5401 -2.5974
  108MOL0     H14570   0.491   7.530   1.586  1.4980 -2.3693  0.5470
  108MOL0     H14571   0.608   7.646   1.524  0.9300 -0.7330 -0.4457
  108MOL0     H14572   0.773   7.444   1.509 -0.3533 -1.5723  0.0327
  108MOL0     H14573   0.654   7.364   1.617 -1.8152  0.6691 -0.7797
  108MOL0     H14574   0.852   7.482   1.721 -1.0122 -0.9258  3.6728
  108MOL0     H14575   0.781   7.640   1.682 -0.8126 -0.3113  1.4265
  108MOL0     H14576   0.544   7.492   2.002 -0.1765 -2.7843 -1.4771
  108MOL0     H14577   0.420   7.717   1.323 -1.6815  3.0104 -1.4678
  108MOL0     H14578   0.425   8.006   1.179 -0.5074  0.2343  3.2423
  108MOL0     H14579   0.269   7.930   1.124 -1.3500 -2.5480  1.2306
  108MOL0     H14580   0.329   7.921   1.293  1.6343 -1.7623  1.3798
  109MOL0     O14581   2.258  10.132   9.663 -0.2333  0.5552  0.5990
  109MOL0     C14582   2.263  10.114   9.783  0.2211 -0.3643  0.3356
  109MOL0     O14583   2.366  10.145   9.867  0.0624  0.1720  0.4250
  109MOL0     C14584   2.485  10.180   9.816 -0.1765 -1.2883 -0.2431
  109MOL0     C14585   2.596  10.108   9.856  0.5435 -0.3436 -0.6743
  109MOL0     C14586   2.721  10.130   9.795  0.4007 -0.2155  0.7985
  109MOL0     C14587   2.734  10.224   9.697 -0.3550 -0.1497 -1.0466
  109MOL0     O14588   2.856  10.248   9.637 -0.0583  0.2897 -0.3432
  109MOL0     C14589   2.949  10.340   9.722 -0.3394  0.0406  0.1675
  109MOL0     C14590   3.026  10.271   9.837  0.0463 -0.2582 -0.3613
  109MOL0     C14591   3.155  10.347   9.874  0.4606  0.2577  0.4110
  109MOL0     C14592   3.227  10.256   9.987  0.1848  0.5758 -0.1802
  109MOL0     C14593   3.369  10.307  10.032 -0.2876  0.3468 -0.4097
  109MOL0     C14594   3.478  10.309   9.926 -0.1607 -0.4239  0.1536
  109MOL0     C14595   3.609  10.272   9.990 -0.1428 -0.4667  0.1154
  109MOL0     C14596   3.725  10.277   9.891  0.3670  1.1082 -0.5198
  109MOL0     N14597   3.857  10.291   9.964  0.6392 -0.2228  0.5333
  109MOL0     C14598   3.887  10.406  10.028 -0.2996  1.2475 -0.2240
  109MOL0     C14599   4.002  10.372  10.104  0.0302  0.3291 -0.5165
  109MOL0     C14600   4.080  10.465  10.188  0.1393  0.7140 -0.1318
  109MOL0     C14601   4.140  10.597  10.116  0.9100 -0.0135 -0.0215
  109MOL0     C14602   4.236  10.560  10.002  0.3212 -0.2049  0.2067
  109MOL0     C14603   4.292  10.694   9.944 -0.3176  0.0770  0.0492
  109MOL0     O14604   4.402  10.751  10.006 -0.3097 -0.2750  0.3320
  109MOL0     C14605   4.527  10.711   9.978 -0.6582  0.7207 -0.5017
  109MOL0     C14606   4.565  10.587   9.934 -0.1757 -0.8216  0.1921
  109MOL0     C14607   4.699  10.565   9.886  1.2961  0.0172 -0.2679
  109MOL0     C14608   4.795  10.661   9.895  0.1001  0.1933  0.2720
  109MOL0     C14609   4.931  10.640   9.840  0.7148  0.4887 -0.6420
  109MOL0     O14610   5.033  10.722   9.884  0.0210 -0.1157 -0.1186
  109MOL0     C14611   5.141  10.722   9.801 -0.4869 -0.4075  1.0182
  109MOL0     C14612   5.137  10.800   9.684  0.1376  0.9196  0.3526
  109MOL0     C14613   5.250  10.836   9.618  0.8872  0.8137 -0.4511
  109MOL0     C14614   5.367  10.787   9.664 -0.8062  0.9555  1.3116
  109MOL0     O14615   5.471  10.836   9.585 -0.2368  0.1941  0.6960
  109MOL0     C14616   5.608  10.817   9.625 -0.1283  0.1617 -0.8836
  109MOL0     C14617   5.696  10.905   9.540  0.6124 -0.0688 -0.2721
  109MOL0     C14618   5.689  11.044   9.593 -0.2907 -1.2391 -0.3478
  109MOL0     C14619   5.759  11.154   9.500 -1.3532  0.0622  0.3190
  109MOL0     C14620   5.721  11.293   9.517  0.1027 -0.5273 -0.2606
  109MOL0     C14621   5.775  11.354   9.653 -0.2403 -0.2393 -0.3175
  109MOL0     C14622   5.722  11.496   9.691 -0.4898  1.2649 -0.3691
  109MOL0     C14623   5.733  11.594   9.575  0.7854 -0.1244 -0.4602
  109MOL0    Cl14624   5.904  11.627   9.520  0.1245 -0.1108  0.2939
  109MOL0     C14625   5.378  10.686   9.763 -0.6300 -0.7994 -1.1837
  109MOL0     C14626   5.261  10.661   9.840  0.8054 -0.6811  0.7702
  109MOL0     O14627   4.942  10.560   9.751  0.0247 -0.0986 -0.1611
  109MOL0     C14628   4.759  10.779   9.966 -0.1222  0.3963  0.3847
  109MOL0     C14629   4.628  10.800  10.009  0.5235 -0.3272  0.3709
  109MOL0     N14630   4.020  10.233  10.092  1.1632  0.5595  0.2786
  109MOL0     N14631   3.941  10.192  10.007 -0.1530 -0.1918  0.3266
  109MOL0     C14632   2.627  10.303   9.658  1.0479 -0.2758  0.4187
  109MOL0     C14633   2.502  10.278   9.717  0.4653  0.3022  0.4193
  109MOL0     C14634   2.155  10.050   9.854 -0.0500 -0.2027 -0.4039
  109MOL0     C14635   2.189   9.996   9.990  0.5167  0.0090  0.2908
  109MOL0     C14636   2.091   9.923  10.058 -0.4619  0.5750  0.0514
  109MOL0     C14637   1.959   9.938  10.024  0.2478  1.2521 -0.2510
  109MOL0     O14638   1.869   9.863  10.102  0.2540 -0.1795 -0.4247
  109MOL0     C14639   1.733   9.830  10.048 -1.7275  0.0629 -0.2271
  109MOL0     C14640   1.657   9.758  10.156  0.0464 -0.7226 -0.0910
  109MOL0     C14641   1.512   9.729  10.111 -0.0456 -0.6742 -0.6558
  109MOL0     C14642   1.425   9.700  10.236 -0.8645 -0.2678 -0.4427
  109MOL0     C14643   1.293   9.733  10.190  0.4631 -0.3961 -0.2587
  109MOL0     C14644   1.180   9.768  10.158  0.4674  0.3250  0.3402
  109MOL0     C14645   1.926   9.989   9.899 -0.9383 -0.3549  0.7127
  109MOL0     C14646   2.025  10.049   9.810  0.1823 -0.2007  1.1155
  109MOL0     C14647   1.973  10.114   9.685 -0.4076  0.1646 -0.1144
  109MOL0     H14648   2.576  10.035   9.934 -0.0074 -0.4874 -0.9476
  109MOL0     H14649   2.800  10.061   9.820 -1.2743 -2.6689 -0.3193
  109MOL0     H14650   3.016  10.386   9.648 -0.3983  1.8456  1.1794
  109MOL0     H14651   2.883  10.413   9.769 -0.9737  0.6380 -1.5878
  109MOL0     H14652   3.052  10.168   9.810  0.5288  0.2238 -1.8015
  109MOL0     H14653   2.968  10.261   9.929 -1.6870  1.0329 -1.2759
  109MOL0     H14654   3.133  10.450   9.905  0.2654  0.0463  0.9676
  109MOL0     H14655   3.217  10.358   9.784  1.1139  0.8470  0.9223
  109MOL0     H14656   3.157  10.235  10.068 -0.8435  2.4183 -0.5398
  109MOL0     H14657   3.242  10.156   9.944 -2.2896  0.8712 -1.9154
  109MOL0     H14658   3.364  10.407  10.077  0.8995  0.9805 -1.6304
  109MOL0     H14659   3.381  10.243  10.120 -0.7766  0.8822  0.0620
  109MOL0     H14660   3.462  10.234   9.847 -0.4119 -4.2070  3.4605
  109MOL0     H14661   3.496  10.403   9.874 -0.0185 -0.0784  0.8272
  109MOL0     H14662   3.616  10.171  10.032  1.3513 -0.4959 -0.1705
  109MOL0     H14663   3.627  10.341  10.073  1.5416  1.1845 -1.5434
  109MOL0     H14664   3.730  10.186   9.830  1.3364  1.8702 -1.6262
  109MOL0     H14665   3.709  10.365   9.827  0.4454 -0.4079 -2.7429
  109MOL0     H14666   3.841  10.502  10.007  0.4128  1.6269 -0.0818
  109MOL0     H14667   4.018  10.497  10.272  2.4261  1.8097  1.2641
  109MOL0     H14668   4.168  10.409  10.222 -0.2813 -0.7735 -1.3882
  109MOL0     H14669   4.061  10.664  10.083  0.6325 -0.0112  0.6233
  109MOL0     H14670   4.200  10.651  10.190  2.0562  0.2779 -1.1447
  109MOL0     H14671   4.200  10.500   9.919  0.5985 -0.1074  0.0168
  109MOL0     H14672   4.318  10.503  10.046 -1.8111 -0.6544  4.0901
  109MOL0     H14673   4.210  10.765   9.952  0.1149  0.6313 -0.3061
  109MOL0     H14674   4.307  10.679   9.837  1.4861  0.4998  0.2068
  109MOL0     H14675   4.491  10.509   9.921 -0.4411 -0.5040 -0.1993
  109MOL0     H14676   4.725  10.465   9.853 -2.6922 -0.0367 -4.1456
  109MOL0     H14677   5.047  10.843   9.643  0.2323  0.5472 -0.2625
  109MOL0     H14678   5.244  10.897   9.529 -0.6927 -1.3190 -1.9178
  109MOL0     H14679   5.630  10.850   9.727 -0.4888 -0.8057 -0.4844
  109MOL0     H14680   5.637  10.712   9.617  0.6135  0.3791 -1.1460
  109MOL0     H14681   5.799  10.869   9.553  1.6278  2.9787  1.1292
  109MOL0     H14682   5.669  10.895   9.434  0.5476 -0.0496 -0.2566
  109MOL0     H14683   5.588  11.077   9.618 -0.9702 -2.8209 -0.8576
  109MOL0     H14684   5.746  11.041   9.686  0.6223  0.4944 -0.8113
  109MOL0     H14685   5.746  11.138   9.392  1.5700 -4.6829  0.4161
  109MOL0     H14686   5.868  11.150   9.504 -1.1200  2.2245 -1.5046
  109MOL0     H14687   5.612  11.302   9.517  0.0172 -0.5138 -3.2610
  109MOL0     H14688   5.766  11.361   9.443  0.2209 -0.5629 -0.2210
  109MOL0     H14689   5.739  11.296   9.739 -0.8609  2.4022  1.3171
  109MOL0     H14690   5.883  11.342   9.661 -0.5874 -2.7856  2.3817
  109MOL0     H14691   5.771  11.531   9.783  0.7022  1.1643 -0.9560
  109MOL0     H14692   5.615  11.485   9.711 -0.3922 -0.4615 -0.7051
  109MOL0     H14693   5.671  11.563   9.490 -2.9966 -1.2157  2.4120
  109MOL0     H14694   5.691  11.692   9.600 -0.5753 -0.5991 -0.7725
  109MOL0     H14695   5.479  10.662   9.793 -0.5577  1.2194  0.4685
  109MOL0     H14696   5.260  10.603   9.932  1.7259  0.9627  1.8706
  109MOL0     H14697   4.840  10.847   9.989  0.0204 -0.0964  1.4479
  109MOL0     H14698   4.597  10.886  10.068 -1.4164  0.6676 -1.9768
  109MOL0     H14699   2.651  10.362   9.570  1.4786  0.1778  0.8298
  109MOL0     H14700   2.417  10.331   9.675 -0.0285  0.3923  1.4940
  109MOL0     H14701   2.291   9.982  10.024  0.4762 -1.8371 -0.2515
  109MOL0     H14702   2.118   9.871  10.149 -1.3782 -0.8912 -0.4744
  109MOL0     H14703   1.734   9.763   9.961 -2.4943  0.6739 -0.7184
  109MOL0     H14704   1.662   9.912  10.031 -0.6309  1.0675 -0.0836
  109MOL0     H14705   1.649   9.825  10.242 -1.1069  0.2225 -0.8917
  109MOL0     H14706   1.702   9.661  10.180  0.3764 -0.8283 -1.0855
  109MOL0     H14707   1.505   9.637  10.051  0.9997 -0.7385 -0.6890
  109MOL0     H14708   1.471   9.820  10.066  2.8818 -0.4182 -3.1298
  109MOL0     H14709   1.439   9.593  10.257 -0.0982  0.1907  1.6247
  109MOL0     H14710   1.455   9.753  10.326 -1.3179 -0.7918  0.0248
  109MOL0     H14711   1.085   9.803  10.123  0.8150 -0.7851 -1.9103
  109MOL0     H14712   1.828   9.977   9.854 -1.1109  0.8233  0.7428
  109MOL0     H14713   1.864  10.108   9.687 -0.4117  0.3248  0.4259
  109MOL0     H14714   1.996  10.221   9.685  1.0899 -0.1237 -0.9150
  109MOL0     H14715   2.010  10.055   9.601 -2.4453 -2.1790  0.5013
  110MOL0     O14716   7.340   0.551   4.406  0.1606  0.3241  0.1461
  110MOL0     C14717   7.363   0.550   4.524 -0.2217  0.0385 -0.0469
  110MOL0     O14718   7.481   0.531   4.594 -0.7249  0.0547  0.4512
  110MOL0     C14719   7.606   0.508   4.530 -0.1939 -0.4998  0.1967
  110MOL0     C14720   7.622   0.479   4.388 -0.8112  0.0529 -0.3290
  110MOL0     C14721   7.751   0.454   4.335 -0.0527 -0.0116  0.6549
  110MOL0     C14722   7.862   0.469   4.408  0.1056  0.2305 -0.0536
  110MOL0     O14723   7.981   0.460   4.341  0.8377 -0.2292  0.6637
  110MOL0     C14724   8.099   0.453   4.412  0.2608  0.0191  0.5995
  110MOL0     C14725   8.218   0.401   4.329  0.5566 -0.4422 -0.0550
  110MOL0     C14726   8.353   0.407   4.404 -0.1403 -0.6858  0.9340
  110MOL0     C14727   8.460   0.422   4.298  0.1058  0.9420 -0.2005
  110MOL0     C14728   8.595   0.418   4.371  0.0192  0.0834 -0.1759
  110MOL0     C14729   8.728   0.457   4.294  0.3130 -0.1286 -0.1224
  110MOL0     C14730   8.761   0.348   4.187  1.0000  0.3268  0.0703
  110MOL0     C14731   8.836   0.233   4.244 -0.4440 -0.3838 -0.9216
  110MOL0     N14732   8.980   0.273   4.236 -0.5366 -0.3059  0.2536
  110MOL0     C14733   9.047   0.338   4.337  0.2568  0.1782 -0.0156
  110MOL0     C14734   9.156   0.388   4.276 -1.0680  0.0835  0.0493
  110MOL0     C14735   9.254   0.472   4.358 -0.1185 -1.0711 -0.2181
  110MOL0     C14736   9.225   0.620   4.353  0.2807 -0.7174  0.1401
  110MOL0     C14737   9.316   0.688   4.244 -0.1801 -0.5190  0.0391
  110MOL0     C14738   9.281   0.835   4.217 -0.8025 -0.1879  0.0727
  110MOL0     O14739   9.370   0.886   4.115 -0.0212  0.4317  0.1110
  110MOL0     C14740   9.494   0.897   4.153  0.3019 -0.4541 -0.2540
  110MOL0     C14741   9.590   0.821   4.089 -0.6168  0.3764 -0.1941
  110MOL0     C14742   9.728   0.834   4.126 -0.5351  0.5230 -0.2681
  110MOL0     C14743   9.768   0.904   4.237 -0.1786 -0.2010  0.4342
  110MOL0     C14744   9.904   0.897   4.286 -0.0451  0.6399 -0.1093
  110MOL0     O14745   9.998   0.903   4.195  0.2096 -0.1927 -0.0199
  110MOL0     C14746  10.128   0.870   4.209 -0.5960 -0.0870 -0.4981
  110MOL0     C14747  10.228   0.939   4.148 -0.8397 -1.7182 -0.0817
  110MOL0     C14748  10.362   0.896   4.144 -0.3594  0.4164  0.0415
  110MOL0     C14749  10.390   0.770   4.190  0.6026 -0.3593 -0.8816
  110MOL0     O14750  10.513   0.717   4.169  0.4022  0.1146  0.1936
  110MOL0     C14751  10.535   0.579   4.162 -0.8625  1.0597 -0.0793
  110MOL0     C14752  10.664   0.537   4.079 -0.4030  0.1745 -0.6999
  110MOL0     C14753  10.793   0.616   4.103 -0.7434  0.7226 -0.8979
  110MOL0     C14754  10.917   0.551   4.035  0.3695  0.0176 -0.8579
  110MOL0     C14755  11.050   0.628   4.079  0.1259  0.3666 -0.2090
  110MOL0     C14756  11.172   0.589   3.996  0.4286 -0.0603  0.1897
  110MOL0     C14757  11.282   0.693   4.017 -0.4900  0.1573 -0.3931
  110MOL0     C14758  11.391   0.681   3.914 -0.1972  0.0784  0.1458
  110MOL0    Cl14759  11.485   0.526   3.918 -0.4520  0.2939  0.6657
  110MOL0     C14760  10.287   0.695   4.261 -0.2944  0.3884 -0.6150
  110MOL0     C14761  10.163   0.747   4.275 -0.0989 -0.4037  0.8699
  110MOL0     O14762   9.925   0.885   4.413  0.4326  0.3814  0.1268
  110MOL0     C14763   9.666   0.972   4.303 -0.4886 -0.5621  0.3998
  110MOL0     C14764   9.531   0.966   4.267  0.8329 -1.1574 -0.0058
  110MOL0     N14765   9.160   0.348   4.141  0.1610 -0.2038 -0.0212
  110MOL0     N14766   9.048   0.277   4.116 -0.2368 -0.5585 -0.6638
  110MOL0     C14767   7.848   0.490   4.546  0.1385  0.2325 -0.1531
  110MOL0     C14768   7.727   0.507   4.608  0.2473 -0.1702 -0.1039
  110MOL0     C14769   7.246   0.550   4.612  0.2257 -0.3148 -0.2831
  110MOL0     C14770   7.268   0.518   4.747 -0.3257  0.0694 -0.3064
  110MOL0     C14771   7.171   0.545   4.838 -0.3430 -1.2541 -0.2885
  110MOL0     C14772   7.044   0.593   4.813 -0.2090 -1.3703 -0.3549
  110MOL0     O14773   6.956   0.662   4.903  0.0280  0.8969 -0.1088
  110MOL0     C14774   6.950   0.622   5.034 -0.1916 -0.1199 -0.9781
  110MOL0     C14775   6.896   0.477   5.043 -0.9201 -0.1208 -0.1467
  110MOL0     C14776   6.761   0.441   4.975  0.4170 -0.2049  0.0529
  110MOL0     C14777   6.641   0.511   5.055 -0.1045  0.5189 -0.4762
  110MOL0     C14778   6.629   0.462   5.193  1.0896  0.2942  0.5082
  110MOL0     C14779   6.621   0.429   5.306 -0.4559  0.1682  0.1219
  110MOL0     C14780   7.020   0.617   4.678  0.4024 -0.4343 -0.5941
  110MOL0     C14781   7.125   0.602   4.577  0.1891 -0.7394  0.0742
  110MOL0     C14782   7.076   0.658   4.447  0.2224 -0.3226 -0.0772
  110MOL0     H14783   7.532   0.466   4.329 -1.2069  0.8678  0.0703
  110MOL0     H14784   7.768   0.430   4.230 -1.2434 -3.4290  1.1157
  110MOL0     H14785   8.119   0.558   4.436 -2.4558  0.6128  0.5793
  110MOL0     H14786   8.084   0.390   4.500  0.1521 -1.3180 -0.3464
  110MOL0     H14787   8.226   0.461   4.237 -0.6548 -1.1722 -0.6539
  110MOL0     H14788   8.190   0.300   4.300 -4.2657  0.7118 -0.2214
  110MOL0     H14789   8.366   0.323   4.473 -2.5251 -1.6686  0.2843
  110MOL0     H14790   8.363   0.497   4.465 -1.9222  0.1965  0.0011
  110MOL0     H14791   8.470   0.331   4.237  0.9605  1.5640 -1.0095
  110MOL0     H14792   8.444   0.510   4.235 -1.6824  0.1466 -0.9351
  110MOL0     H14793   8.593   0.501   4.442  1.5487 -0.3471  0.4010
  110MOL0     H14794   8.610   0.322   4.422 -1.9463 -0.1394  0.0721
  110MOL0     H14795   8.689   0.550   4.252 -1.4318 -1.2670 -1.1355
  110MOL0     H14796   8.818   0.466   4.355  0.6665 -0.0386 -0.6470
  110MOL0     H14797   8.811   0.390   4.100  0.9267  0.0411 -0.1139
  110MOL0     H14798   8.668   0.308   4.145  0.9158  2.2883 -1.7209
  110MOL0     H14799   8.813   0.216   4.350  1.2278  0.5564 -0.3552
  110MOL0     H14800   8.805   0.148   4.184  1.8364 -0.7181 -1.7433
  110MOL0     H14801   9.018   0.337   4.442 -0.7780  1.4643 -0.2656
  110MOL0     H14802   9.272   0.448   4.464  3.4109 -2.5322 -1.0256
  110MOL0     H14803   9.353   0.458   4.315  0.0337 -0.4704 -0.0689
  110MOL0     H14804   9.123   0.643   4.321  0.2313 -0.7301  0.2857
  110MOL0     H14805   9.244   0.670   4.448 -1.9232 -1.1001  0.8378
  110MOL0     H14806   9.305   0.623   4.156  0.0936 -1.5846  0.7743
  110MOL0     H14807   9.420   0.683   4.278 -0.5789  1.6258  1.7664
  110MOL0     H14808   9.286   0.894   4.309  1.0896 -1.3847  0.7911
  110MOL0     H14809   9.174   0.827   4.196 -1.7847  0.2442  4.1598
  110MOL0     H14810   9.552   0.763   4.005 -2.7464  3.0588 -1.2410
  110MOL0     H14811   9.799   0.759   4.091 -0.7784 -1.1227  2.4774
  110MOL0     H14812  10.210   1.026   4.087 -3.0485 -3.4332 -2.0651
  110MOL0     H14813  10.432   0.965   4.098 -1.7183  1.0175 -1.2214
  110MOL0     H14814  10.554   0.532   4.260  0.4990  0.7972 -0.4450
  110MOL0     H14815  10.452   0.519   4.124  1.7487 -2.6474 -0.5905
  110MOL0     H14816  10.690   0.434   4.104  2.1232  1.5044  2.8956
  110MOL0     H14817  10.632   0.553   3.976 -0.4840  1.1203 -0.5401
  110MOL0     H14818  10.781   0.721   4.075  2.4207  1.5171  0.2012
  110MOL0     H14819  10.816   0.625   4.210 -0.1133 -0.9683 -0.8561
  110MOL0     H14820  10.899   0.565   3.928  1.7996 -1.0910 -1.2766
  110MOL0     H14821  10.925   0.443   4.052  0.7942  0.1407 -0.2341
  110MOL0     H14822  11.075   0.604   4.183  4.0307 -0.3831 -1.1545
  110MOL0     H14823  11.028   0.735   4.068 -0.8320  0.3740  1.4220
  110MOL0     H14824  11.220   0.492   4.016 -2.1436 -1.3350  0.6207
  110MOL0     H14825  11.148   0.588   3.890 -0.6681 -0.2042  0.4293
  110MOL0     H14826  11.316   0.688   4.120  0.9936  0.6579 -0.8300
  110MOL0     H14827  11.240   0.794   4.004 -0.7825  0.0412 -0.3678
  110MOL0     H14828  11.352   0.694   3.813 -2.8669 -0.8381  0.9637
  110MOL0     H14829  11.460   0.758   3.948  0.3321 -1.5588  3.1685
  110MOL0     H14830  10.307   0.596   4.303 -0.9147  0.6930  0.4274
  110MOL0     H14831  10.087   0.689   4.326 -1.4084  0.5557  0.0723
  110MOL0     H14832   9.690   1.018   4.399  4.8517  0.2251 -0.9881
  110MOL0     H14833   9.460   1.021   4.327  2.5546 -1.7177  2.7709
  110MOL0     H14834   7.933   0.487   4.614  0.9481 -0.2219 -1.1566
  110MOL0     H14835   7.714   0.531   4.713 -1.5702 -1.5930  0.0554
  110MOL0     H14836   7.365   0.503   4.794 -1.5410  0.3894  2.5230
  110MOL0     H14837   7.199   0.530   4.942 -0.0207 -0.0848 -0.1971
  110MOL0     H14838   6.878   0.686   5.087 -0.0446 -0.1973 -0.6825
  110MOL0     H14839   7.044   0.643   5.086 -0.8404 -0.1304  0.2444
  110MOL0     H14840   6.876   0.452   5.147 -1.6731 -0.5291 -0.3745
  110MOL0     H14841   6.974   0.407   5.013 -1.2583 -0.6925  0.2746
  110MOL0     H14842   6.753   0.333   4.967  1.6873 -0.2650 -0.6348
  110MOL0     H14843   6.770   0.484   4.875  0.1396  0.4433  0.2980
  110MOL0     H14844   6.656   0.619   5.046  2.7131  0.2338 -0.0433
  110MOL0     H14845   6.551   0.479   5.001  2.1050 -3.7938 -2.0776
  110MOL0     H14846   6.634   0.406   5.409  1.3341  2.1573  0.3989
  110MOL0     H14847   6.931   0.675   4.654 -0.3655 -1.2111  0.2506
  110MOL0     H14848   6.992   0.727   4.459 -0.5157 -1.1949 -0.1471
  110MOL0     H14849   7.155   0.707   4.389 -0.2412 -1.0176 -1.3431
  110MOL0     H14850   7.041   0.573   4.388  3.1450 -1.2018 -0.7340
  111MOL0     O14851   2.637   0.691   0.355  0.2389  0.0626 -0.2033
  111MOL0     C14852   2.555   0.711   0.264  0.3189 -0.7729 -0.3422
  111MOL0     O14853   2.588   0.758   0.139  0.1670 -0.2517  0.3982
  111MOL0     C14854   2.717   0.804   0.120 -0.6384  0.6225 -0.6303
  111MOL0     C14855   2.815   0.707   0.097  0.4578  0.0829 -0.4310
  111MOL0     C14856   2.951   0.735   0.074  0.3552 -0.2918  0.1436
  111MOL0     C14857   2.987   0.878   0.068  0.6640  0.1946 -0.7108
  111MOL0     O14858   3.109   0.922   0.030 -1.2418 -0.3929  0.3669
  111MOL0     C14859   3.211   0.833   0.035 -0.6793  0.2609  0.0454
  111MOL0     C14860   3.340   0.903   0.010 -0.3493 -0.6284 -0.7109
  111MOL0     C14861   3.473   0.818   0.013  1.6330 -1.1507 -0.4847
  111MOL0     C14862   3.596   0.897  -0.023  0.2768 -0.3686 -0.1691
  111MOL0     C14863   3.719   0.820  -0.034  0.1080 -0.6970  0.6668
  111MOL0     C14864   3.774   0.769   0.106  0.0736  0.2594 -0.2258
  111MOL0     C14865   3.915   0.710   0.075 -1.0265  0.6056  0.6441
  111MOL0     C14866   3.976   0.648   0.197 -0.4354  0.7325  0.3383
  111MOL0     N14867   4.112   0.593   0.164 -0.4123  0.0364 -1.1546
  111MOL0     C14868   4.217   0.665   0.207  0.6643  0.3128 -0.2960
  111MOL0     C14869   4.322   0.585   0.187 -1.1206  0.6131  0.7115
  111MOL0     C14870   4.469   0.620   0.223  0.8609 -0.7367  0.4099
  111MOL0     C14871   4.509   0.511   0.328  0.8576  0.2179  0.0297
  111MOL0     C14872   4.432   0.548   0.455 -0.1830 -0.0793 -0.1561
  111MOL0     C14873   4.490   0.490   0.585  1.0371  0.0971  0.1824
  111MOL0     O14874   4.601   0.566   0.625  0.3683 -0.2551 -0.6117
  111MOL0     C14875   4.688   0.511   0.722 -0.6273 -0.4390  0.4022
  111MOL0     C14876   4.830   0.526   0.704  1.2651  0.3503  0.6951
  111MOL0     C14877   4.912   0.456   0.796  0.1026 -0.5574 -0.9599
  111MOL0     C14878   4.865   0.394   0.913  0.4445 -0.5198  0.1598
  111MOL0     C14879   4.964   0.353   1.017  0.0250  1.0479  0.6574
  111MOL0     O14880   5.071   0.427   1.016  0.5307  0.1493  0.5945
  111MOL0     C14881   5.166   0.393   1.103  0.3572  0.0585  0.1796
  111MOL0     C14882   5.251   0.281   1.101  0.2643 -0.3719  0.1369
  111MOL0     C14883   5.350   0.260   1.193 -0.0594 -0.2069 -0.5724
  111MOL0     C14884   5.365   0.361   1.297 -0.1597  1.0048 -0.1256
  111MOL0     O14885   5.457   0.350   1.404  0.0159  0.0388 -0.3059
  111MOL0     C14886   5.546   0.238   1.404 -0.0820 -0.3546 -0.1496
  111MOL0     C14887   5.634   0.235   1.537  0.3391  0.4141 -0.4564
  111MOL0     C14888   5.633   0.085   1.594  0.9861 -0.6830  0.5572
  111MOL0     C14889   5.769   0.054   1.644  1.0500 -0.8520 -0.0106
  111MOL0     C14890   5.751  -0.019   1.774  0.0606 -0.2642 -0.0341
  111MOL0     C14891   5.893  -0.027   1.830  0.4680  0.1968 -0.1641
  111MOL0     C14892   5.895  -0.098   1.970  0.1117  0.3255 -0.0663
  111MOL0     C14893   6.012  -0.068   2.059 -1.0952  0.2554  0.1160
  111MOL0    Cl14894   6.158  -0.083   1.964  0.3606 -0.2489  0.3064
  111MOL0     C14895   5.282   0.467   1.304  0.0538 -0.0861  0.6126
  111MOL0     C14896   5.176   0.483   1.211 -1.1946  0.1206  0.2560
  111MOL0     O14897   4.944   0.250   1.080 -0.3731 -0.1414 -1.2307
  111MOL0     C14898   4.723   0.385   0.928 -0.3670 -0.3089  0.5138
  111MOL0     C14899   4.637   0.450   0.844 -0.1598 -0.7685  0.1488
  111MOL0     N14900   4.284   0.458   0.135 -0.2869 -0.2291  0.1289
  111MOL0     N14901   4.160   0.474   0.120  0.6042  0.7014 -0.3637
  111MOL0     C14902   2.883   0.974   0.082 -0.4122  0.1695  0.2195
  111MOL0     C14903   2.755   0.934   0.112  0.7223 -0.3144  0.5933
  111MOL0     C14904   2.411   0.679   0.293 -0.0551  1.5112 -0.4138
  111MOL0     C14905   2.376   0.629   0.419  0.5199  0.2213  0.2053
  111MOL0     C14906   2.248   0.590   0.440  0.4216  0.0397  0.5129
  111MOL0     C14907   2.154   0.585   0.337 -0.8336  0.6076 -0.3719
  111MOL0     O14908   2.030   0.540   0.365  0.4650 -0.7107 -0.2631
  111MOL0     C14909   1.923   0.637   0.363  0.1191  0.3180 -0.7445
  111MOL0     C14910   1.798   0.547   0.365 -0.1178  0.0178  0.6160
  111MOL0     C14911   1.671   0.619   0.387 -0.0949 -0.5034  0.0923
  111MOL0     C14912   1.615   0.689   0.260  0.6175  0.1322 -0.8917
  111MOL0     C14913   1.578   0.595   0.154 -0.2477  0.1920 -0.4484
  111MOL0     C14914   1.533   0.533   0.059  1.1524 -1.4057 -0.0841
  111MOL0     C14915   2.197   0.626   0.218  0.6491  0.3310  0.5923
  111MOL0     C14916   2.316   0.679   0.185  0.2549  0.2779  0.0934
  111MOL0     C14917   2.334   0.716   0.037  1.0776 -0.2511  0.4571
  111MOL0     H14918   2.784   0.603   0.093  2.5055 -0.5760 -0.4126
  111MOL0     H14919   3.020   0.657   0.044  1.3578  0.0611  1.4191
  111MOL0     H14920   3.224   0.773   0.125  1.8009  1.5711  0.6630
  111MOL0     H14921   3.195   0.773  -0.055  0.1573 -0.3969  0.3245
  111MOL0     H14922   3.346   0.976   0.092 -0.9186 -1.3333 -0.0262
  111MOL0     H14923   3.334   0.958  -0.084  2.3532 -0.7569 -1.0248
  111MOL0     H14924   3.466   0.741  -0.064 -0.4240 -0.9739 -0.5510
  111MOL0     H14925   3.479   0.769   0.111 -2.7316  1.3968  1.3806
  111MOL0     H14926   3.576   0.933  -0.125 -0.9009 -0.3078  0.0640
  111MOL0     H14927   3.612   0.976   0.051  1.1950 -0.4157 -0.3131
  111MOL0     H14928   3.701   0.727  -0.089 -1.5094 -1.3962  2.2329
  111MOL0     H14929   3.790   0.892  -0.074  1.4367  0.0685  4.0368
  111MOL0     H14930   3.778   0.854   0.175 -0.9656  0.1363 -0.0080
  111MOL0     H14931   3.710   0.690   0.147 -2.2922  2.7191  1.1139
  111MOL0     H14932   3.981   0.792   0.041 -0.5926 -0.3592 -0.9763
  111MOL0     H14933   3.913   0.631  -0.001  1.7675 -0.7568  1.8170
  111MOL0     H14934   3.988   0.715   0.282 -2.5944 -0.0076  1.2855
  111MOL0     H14935   3.913   0.566   0.234 -0.8098  0.6045 -0.5473
  111MOL0     H14936   4.223   0.764   0.252  3.1060 -0.8446  2.2053
  111MOL0     H14937   4.533   0.630   0.135 -1.0156  4.0059 -0.7232
  111MOL0     H14938   4.479   0.718   0.270 -1.5263  0.3069 -1.0317
  111MOL0     H14939   4.490   0.408   0.298  2.1557 -0.8579  2.5955
  111MOL0     H14940   4.618   0.521   0.341  1.1647 -0.4475 -1.7252
  111MOL0     H14941   4.332   0.505   0.448  0.0834 -0.8507  0.6377
  111MOL0     H14942   4.407   0.653   0.472 -2.0701 -0.6598  0.9146
  111MOL0     H14943   4.500   0.383   0.567 -1.2040 -0.7744  3.1772
  111MOL0     H14944   4.409   0.496   0.659  2.1777 -0.6005  1.5259
  111MOL0     H14945   4.879   0.580   0.624 -0.0485 -0.1615 -0.5076
  111MOL0     H14946   5.020   0.457   0.781 -0.1200 -0.0959 -2.7122
  111MOL0     H14947   5.246   0.190   1.042  0.6371 -0.0994 -0.3275
  111MOL0     H14948   5.410   0.170   1.190 -2.3225 -1.8408  0.1095
  111MOL0     H14949   5.489   0.145   1.404 -1.3376  0.3641 -1.7058
  111MOL0     H14950   5.610   0.241   1.315  1.4705 -2.3488  0.8171
  111MOL0     H14951   5.736   0.260   1.506  0.6884 -2.1244 -1.5734
  111MOL0     H14952   5.598   0.300   1.618  0.6485 -0.7358  0.6370
  111MOL0     H14953   5.563   0.088   1.678  1.9594  0.2779  1.3603
  111MOL0     H14954   5.607   0.018   1.512  0.7669 -0.0431  0.0998
  111MOL0     H14955   5.818   0.148   1.671  0.6855 -0.9215  0.9647
  111MOL0     H14956   5.834   0.003   1.573  1.1418 -1.8858  0.7897
  111MOL0     H14957   5.702  -0.116   1.764 -1.3737  0.4228  0.1421
  111MOL0     H14958   5.691   0.042   1.841  1.6595 -0.3162  1.5247
  111MOL0     H14959   5.947  -0.092   1.760 -0.5043 -3.4867  2.2245
  111MOL0     H14960   5.935   0.074   1.830 -1.7366  1.1918 -0.8797
  111MOL0     H14961   5.901  -0.203   1.940  0.0680  0.7632 -1.6942
  111MOL0     H14962   5.804  -0.081   2.030 -0.9981  0.0419 -1.6151
  111MOL0     H14963   6.009   0.038   2.086 -0.1699 -0.1539  2.0199
  111MOL0     H14964   6.011  -0.127   2.151 -2.6953  0.6648  0.3889
  111MOL0     H14965   5.297   0.545   1.379  4.5279  1.0079 -1.1175
  111MOL0     H14966   5.103   0.562   1.222  0.1621  1.3610  0.6731
  111MOL0     H14967   4.686   0.342   1.020 -0.3478 -1.4555 -0.0034
  111MOL0     H14968   4.531   0.427   0.848 -0.8052  1.7545 -0.8332
  111MOL0     H14969   2.908   1.076   0.057  2.1678 -0.2260  0.9083
  111MOL0     H14970   2.682   1.015   0.111 -1.9702 -2.5021 -3.1794
  111MOL0     H14971   2.439   0.640   0.507 -0.6675 -1.5946  1.3585
  111MOL0     H14972   2.227   0.550   0.539 -0.7139  0.7827  0.5870
  111MOL0     H14973   1.931   0.698   0.273 -0.6801  0.4049 -0.7586
  111MOL0     H14974   1.927   0.696   0.455  1.5831 -2.1325  0.9077
  111MOL0     H14975   1.819   0.474   0.443  0.2330 -0.1331  0.3848
  111MOL0     H14976   1.799   0.482   0.277  2.6441  0.1185  0.4818
  111MOL0     H14977   1.685   0.692   0.468 -0.6370  0.5591 -0.7491
  111MOL0     H14978   1.594   0.557   0.434 -0.3587  0.4149  0.9158
  111MOL0     H14979   1.520   0.736   0.288  0.4656 -0.0613 -1.0713
  111MOL0     H14980   1.690   0.753   0.214  3.6442 -0.3395  2.8802
  111MOL0     H14981   1.493   0.493  -0.032  2.5627  2.5371 -2.7053
  111MOL0     H14982   2.119   0.615   0.144 -0.6746 -1.6433  2.1632
  111MOL0     H14983   2.246   0.706  -0.027  1.4138 -2.7061  0.2958
  111MOL0     H14984   2.364   0.821   0.042  2.5349 -0.6076 -0.3239
  111MOL0     H14985   2.415   0.655  -0.004  3.0976  1.6952  1.3113
  112MOL0     O14986   4.666   8.403   2.306  0.3759 -0.1105 -0.2063
  112MOL0     C14987   4.665   8.502   2.230 -0.1562  0.0717 -0.2303
  112MOL0     O14988   4.763   8.595   2.225 -0.1040 -0.6538 -0.1491
  112MOL0     C14989   4.872   8.586   2.308 -0.5564 -0.2527  0.1830
  112MOL0     C14990   5.004   8.583   2.262 -0.6152 -0.2119  0.4185
  112MOL0     C14991   5.112   8.592   2.355 -0.3336  0.7374 -0.3921
  112MOL0     C14992   5.094   8.586   2.495  0.8751  1.0811  0.7333
  112MOL0     O14993   5.206   8.582   2.575  1.2350 -0.1440 -0.2525
  112MOL0     C14994   5.203   8.535   2.710  0.4905  0.5872 -0.0554
  112MOL0     C14995   5.336   8.516   2.779  0.3037 -0.5033 -0.4740
  112MOL0     C14996   5.421   8.643   2.762 -0.2199 -0.3121 -0.6875
  112MOL0     C14997   5.548   8.648   2.850  0.6269  0.1807  0.3885
  112MOL0     C14998   5.672   8.647   2.763 -1.3752 -0.0492 -0.7657
  112MOL0     C14999   5.795   8.629   2.863  0.5245 -0.3352 -0.0437
  112MOL0     C15000   5.917   8.566   2.796  0.5459  0.1410 -0.0064
  112MOL0     C15001   5.984   8.659   2.693 -0.1274 -0.2678  0.5339
  112MOL0     N15002   6.120   8.621   2.650  0.0278 -0.0954 -0.6302
  112MOL0     C15003   6.232   8.628   2.729  0.5705  0.1348  0.0692
  112MOL0     C15004   6.323   8.555   2.661  0.2965 -0.8810 -0.0720
  112MOL0     C15005   6.468   8.543   2.710 -0.0282 -0.6923 -0.3291
  112MOL0     C15006   6.561   8.454   2.623 -0.6082 -0.4959 -0.0458
  112MOL0     C15007   6.620   8.548   2.511 -0.0693 -1.2192 -0.4622
  112MOL0     C15008   6.700   8.471   2.412 -1.2054  0.3550 -0.8044
  112MOL0     O15009   6.833   8.439   2.469 -0.8501  0.1221  0.2370
  112MOL0     C15010   6.942   8.410   2.376  0.7055 -0.3107  0.3191
  112MOL0     C15011   6.917   8.364   2.249 -0.0586  0.0790 -0.5355
  112MOL0     C15012   7.019   8.369   2.152  1.2099 -0.4837  0.1281
  112MOL0     C15013   7.151   8.409   2.190 -0.6959 -0.0993 -0.2399
  112MOL0     C15014   7.270   8.411   2.087  1.4153  0.8569 -0.0138
  112MOL0     O15015   7.386   8.462   2.125  0.5702 -0.7028 -0.2237
  112MOL0     C15016   7.491   8.477   2.036  0.3963  0.1589  0.6397
  112MOL0     C15017   7.536   8.378   1.955  0.2315 -0.2270 -1.2798
  112MOL0     C15018   7.635   8.408   1.858  0.1354  0.0881 -0.3017
  112MOL0     C15019   7.687   8.535   1.849  0.0200 -0.3067 -0.0449
  112MOL0     O15020   7.763   8.568   1.742 -0.3456 -0.8498 -0.0468
  112MOL0     C15021   7.861   8.467   1.705  0.2513 -0.1702  0.3837
  112MOL0     C15022   8.002   8.533   1.701 -0.5445 -0.3537  0.0035
  112MOL0     C15023   8.037   8.570   1.850  0.7313 -0.7712  0.0084
  112MOL0     C15024   8.157   8.662   1.857  0.0113 -0.7786  0.3451
  112MOL0     C15025   8.230   8.649   1.992  0.0835 -0.7337 -0.8816
  112MOL0     C15026   8.339   8.753   2.010  0.1302 -0.2605  0.3231
  112MOL0     C15027   8.368   8.792   2.154 -0.2441  0.9917  0.1413
  112MOL0     C15028   8.420   8.670   2.229 -0.4229 -0.2889 -0.1064
  112MOL0    Cl15029   8.599   8.638   2.180  0.2024  0.1703  0.0819
  112MOL0     C15030   7.649   8.634   1.941  0.7947 -0.3145 -0.7397
  112MOL0     C15031   7.549   8.603   2.035 -0.1846 -0.4948 -0.4909
  112MOL0     O15032   7.237   8.371   1.973 -0.5794  0.1947  0.2539
  112MOL0     C15033   7.175   8.434   2.327  0.0627 -0.7024 -0.7585
  112MOL0     C15034   7.069   8.441   2.418  0.6188 -0.0899 -1.2412
  112MOL0     N15035   6.269   8.521   2.533 -0.4314 -0.7025 -0.0076
  112MOL0     N15036   6.143   8.558   2.533 -0.4943  0.6208  0.5595
  112MOL0     C15037   4.958   8.581   2.541  1.3177  0.2499 -0.2500
  112MOL0     C15038   4.852   8.595   2.448 -0.4980  0.0117  0.9244
  112MOL0     C15039   4.548   8.520   2.148  1.5188  0.3272  0.9468
  112MOL0     C15040   4.423   8.497   2.213  0.1763  0.7958 -0.3437
  112MOL0     C15041   4.298   8.510   2.156  0.0439 -0.7560 -0.1453
  112MOL0     C15042   4.299   8.560   2.025 -0.5622  0.7501  0.4973
  112MOL0     O15043   4.190   8.592   1.952 -0.7281  0.0651 -0.1778
  112MOL0     C15044   4.063   8.554   2.000 -1.0090  0.1140 -0.0858
  112MOL0     C15045   4.058   8.404   1.959  0.1499  0.5634 -0.3066
  112MOL0     C15046   3.944   8.316   2.034  0.2644 -0.9244 -0.1476
  112MOL0     C15047   3.917   8.189   1.954  0.7503 -0.4859  1.2181
  112MOL0     C15048   3.814   8.114   2.021 -0.5743  0.1122  0.0232
  112MOL0     C15049   3.723   8.055   2.078  0.0774  0.5253 -0.3263
  112MOL0     C15050   4.412   8.580   1.955 -0.1953 -0.4474  0.0831
  112MOL0     C15051   4.540   8.553   2.008 -0.6427 -0.3320  0.5097
  112MOL0     C15052   4.665   8.585   1.930 -0.2181 -0.4510  0.5876
  112MOL0     H15053   5.016   8.581   2.155  0.7014 -0.2621  0.5568
  112MOL0     H15054   5.212   8.585   2.316 -1.5255  0.1393 -3.6662
  112MOL0     H15055   5.132   8.595   2.767 -0.6006  1.5681 -2.3103
  112MOL0     H15056   5.163   8.433   2.706 -0.4339  0.9778 -2.0688
  112MOL0     H15057   5.395   8.434   2.737  1.6720 -1.0425  2.3091
  112MOL0     H15058   5.334   8.490   2.885 -0.9734 -1.1072 -0.6223
  112MOL0     H15059   5.360   8.733   2.778  0.3109  0.2589 -1.7488
  112MOL0     H15060   5.449   8.641   2.656  0.8811 -1.5565 -0.4025
  112MOL0     H15061   5.542   8.739   2.911 -0.2524 -0.8110  1.8448
  112MOL0     H15062   5.555   8.564   2.919 -0.9313  0.4345  0.9130
  112MOL0     H15063   5.681   8.571   2.684  3.3840  1.0425 -1.5758
  112MOL0     H15064   5.668   8.743   2.712 -3.4160 -0.4975 -1.5376
  112MOL0     H15065   5.813   8.734   2.887  0.2360 -0.2437 -0.2264
  112MOL0     H15066   5.761   8.576   2.952  0.2715  0.5621  0.3977
  112MOL0     H15067   5.887   8.468   2.758  1.3001 -0.6936  1.4718
  112MOL0     H15068   5.992   8.540   2.871  1.8784 -2.2700 -1.9972
  112MOL0     H15069   5.932   8.676   2.599  1.0646 -0.2602 -0.1421
  112MOL0     H15070   5.988   8.755   2.745 -1.0674 -0.1913  0.4773
  112MOL0     H15071   6.239   8.675   2.826 -1.1842 -0.8938  0.7374
  112MOL0     H15072   6.518   8.640   2.714 -0.4688 -0.3279 -2.4529
  112MOL0     H15073   6.473   8.512   2.815  2.0764 -1.1796 -0.5463
  112MOL0     H15074   6.644   8.410   2.680 -1.1122  0.0053  1.0857
  112MOL0     H15075   6.513   8.375   2.565 -0.6955 -2.3049  2.3164
  112MOL0     H15076   6.675   8.636   2.547  2.1329 -2.0952 -1.5201
  112MOL0     H15077   6.546   8.590   2.441 -0.4284  0.3456  0.7834
  112MOL0     H15078   6.717   8.521   2.316 -0.7772 -0.8697 -1.3878
  112MOL0     H15079   6.650   8.375   2.393  1.2115 -1.0145 -0.7189
  112MOL0     H15080   6.817   8.335   2.217 -1.0230  0.9504  1.5358
  112MOL0     H15081   7.004   8.331   2.051 -1.3716 -1.1113  0.6656
  112MOL0     H15082   7.484   8.283   1.956  0.0790 -0.1496  0.6019
  112MOL0     H15083   7.653   8.322   1.795  1.3166 -0.5479  0.8498
  112MOL0     H15084   7.856   8.375   1.763  0.1808 -0.4180 -0.0076
  112MOL0     H15085   7.835   8.435   1.603  4.5854 -0.0009 -0.9752
  112MOL0     H15086   8.080   8.466   1.663 -1.0545 -0.3492 -1.0601
  112MOL0     H15087   8.001   8.622   1.638 -0.0145 -0.7581 -0.5857
  112MOL0     H15088   7.948   8.612   1.897  1.3248 -1.5411  1.9360
  112MOL0     H15089   8.067   8.473   1.891  2.7708 -0.3205 -0.3110
  112MOL0     H15090   8.117   8.764   1.856 -0.8800 -1.0547 -2.4381
  112MOL0     H15091   8.224   8.649   1.771 -0.1377  3.1232 -0.5708
  112MOL0     H15092   8.269   8.549   2.015  0.1378 -0.7369 -0.9863
  112MOL0     H15093   8.162   8.682   2.071  0.2947  3.0528 -2.1247
  112MOL0     H15094   8.431   8.721   1.961  1.5282  1.1718  1.8912
  112MOL0     H15095   8.304   8.846   1.964  1.8008 -0.2707 -1.0232
  112MOL0     H15096   8.278   8.836   2.198 -0.9897 -1.9634  1.8106
  112MOL0     H15097   8.447   8.867   2.165 -2.4038  3.1070  2.9104
  112MOL0     H15098   8.414   8.671   2.338  1.0275 -2.4491  0.0512
  112MOL0     H15099   8.353   8.585   2.212 -1.6622  0.2680  1.6488
  112MOL0     H15100   7.682   8.737   1.943 -1.7373  0.5776  0.4935
  112MOL0     H15101   7.511   8.680   2.102 -0.9400 -0.3662 -1.0536
  112MOL0     H15102   7.271   8.469   2.363 -0.9129  1.3405  0.0128
  112MOL0     H15103   7.069   8.489   2.515 -1.9360 -0.5273 -0.9522
  112MOL0     H15104   4.938   8.588   2.647 -1.9098  1.0380 -0.8239
  112MOL0     H15105   4.749   8.613   2.477 -0.1953  1.4485  1.2152
  112MOL0     H15106   4.437   8.461   2.315 -1.3832 -2.5221 -1.1507
  112MOL0     H15107   4.216   8.479   2.220  0.9075 -2.8544 -0.0015
  112MOL0     H15108   3.988   8.617   1.953 -0.6887 -1.4777 -2.9872
  112MOL0     H15109   4.054   8.553   2.109  2.0821 -2.8515  0.3293
  112MOL0     H15110   4.154   8.352   1.972 -0.8678 -1.3899 -0.3138
  112MOL0     H15111   4.031   8.399   1.853  1.3314  3.2481 -0.8301
  112MOL0     H15112   3.853   8.372   2.057  0.7959 -1.1800  2.9475
  112MOL0     H15113   3.987   8.285   2.129  1.5975  0.4335 -0.2740
  112MOL0     H15114   3.873   8.221   1.859 -0.0043 -0.9272  1.4054
  112MOL0     H15115   4.007   8.128   1.947  1.0624  0.1022 -0.2107
  112MOL0     H15116   3.670   7.989   2.143  1.9745 -1.0782 -0.3052
  112MOL0     H15117   4.405   8.609   1.851 -0.6835  0.1072  0.2716
  112MOL0     H15118   4.739   8.505   1.933  0.8971  0.5715  1.8662
  112MOL0     H15119   4.643   8.589   1.823 -1.1783  0.0758  0.7946
  112MOL0     H15120   4.708   8.680   1.966 -1.6075 -0.0903  1.3617
  113MOL0     O15121   3.103   9.081   8.706 -0.1052  0.7948 -0.3854
  113MOL0     C15122   3.007   9.001   8.692  0.0066  0.0945 -0.1491
  113MOL0     O15123   3.006   8.904   8.601  0.1651  1.0291  0.6903
  113MOL0     C15124   3.107   8.881   8.515 -0.4688 -0.3350 -0.5024
  113MOL0     C15125   3.211   8.808   8.568  0.5768 -0.5783  0.2003
  113MOL0     C15126   3.318   8.774   8.487  0.6571  0.1862 -1.0872
  113MOL0     C15127   3.336   8.830   8.364  0.5878  0.3963  1.4065
  113MOL0     O15128   3.454   8.799   8.296 -0.3658 -0.4319 -0.7412
  113MOL0     C15129   3.462   8.831   8.160 -0.2995  0.2013  0.0381
  113MOL0     C15130   3.563   8.743   8.083  0.3004 -0.4524 -0.2806
  113MOL0     C15131   3.703   8.760   8.136  0.2344 -0.2034  0.0750
  113MOL0     C15132   3.806   8.654   8.093 -1.1057  0.3812 -1.1541
  113MOL0     C15133   3.940   8.703   8.162 -0.4747  0.1796 -0.4552
  113MOL0     C15134   4.062   8.631   8.111  0.0829  0.2076  0.2195
  113MOL0     C15135   4.195   8.647   8.179 -0.1982 -0.4789  0.0480
  113MOL0     C15136   4.244   8.796   8.181  0.0635 -1.5665 -0.2898
  113MOL0     N15137   4.384   8.806   8.219  0.8538  0.8515  0.4546
  113MOL0     C15138   4.480   8.845   8.138 -0.7339 -0.3367  0.3577
  113MOL0     C15139   4.593   8.814   8.203  0.2968  0.1376 -0.4667
  113MOL0     C15140   4.726   8.823   8.133 -0.4521 -0.4994 -0.6306
  113MOL0     C15141   4.827   8.724   8.182 -1.0097  0.1476  0.1045
  113MOL0     C15142   4.912   8.789   8.300  0.8109  0.3754 -0.3986
  113MOL0     C15143   5.005   8.682   8.343  0.0019  0.1836 -0.8799
  113MOL0     O15144   5.124   8.689   8.273  0.4744  0.0278 -0.1727
  113MOL0     C15145   5.241   8.734   8.327  0.4415  0.0605 -0.2606
  113MOL0     C15146   5.372   8.692   8.288  0.5015  0.3860  0.7071
  113MOL0     C15147   5.489   8.761   8.325  0.9023  0.0406 -0.1138
  113MOL0     C15148   5.479   8.872   8.415 -0.2153  0.0296 -0.2988
  113MOL0     C15149   5.606   8.929   8.450  0.7140 -0.6429 -0.8647
  113MOL0     O15150   5.725   8.859   8.421 -0.3441  0.0539 -0.5980
  113MOL0     C15151   5.845   8.918   8.443 -0.6624  0.1794 -0.3402
  113MOL0     C15152   5.918   8.973   8.337  0.2321  0.3864 -0.1086
  113MOL0     C15153   6.037   9.038   8.364  0.6965 -0.3958 -0.6114
  113MOL0     C15154   6.087   9.052   8.500 -0.8868  0.1512  0.1334
  113MOL0     O15155   6.207   9.107   8.535  0.4936 -0.5488 -0.0506
  113MOL0     C15156   6.302   9.136   8.434 -0.4858 -0.3339  0.0146
  113MOL0     C15157   6.438   9.148   8.497 -0.6600  0.1220 -0.9387
  113MOL0     C15158   6.485   9.025   8.587 -0.0927  0.6361  0.6595
  113MOL0     C15159   6.634   9.019   8.607  0.1511 -0.4962 -0.2638
  113MOL0     C15160   6.665   9.098   8.737  0.2372 -0.4884 -0.2874
  113MOL0     C15161   6.817   9.113   8.759 -0.5488  0.4921  0.4825
  113MOL0     C15162   6.894   9.166   8.637 -0.1227 -0.0178  0.1406
  113MOL0     C15163   7.033   9.188   8.687 -0.4585 -0.3983  0.0926
  113MOL0    Cl15164   7.142   9.222   8.554  0.1174 -0.1502 -0.7489
  113MOL0     C15165   6.002   8.998   8.604 -0.1395 -0.1510  0.1770
  113MOL0     C15166   5.884   8.943   8.576  0.1575 -0.4843  1.9659
  113MOL0     O15167   5.601   9.044   8.489  0.0244 -0.4025 -0.5829
  113MOL0     C15168   5.352   8.906   8.462 -0.4609  0.3068 -0.2953
  113MOL0     C15169   5.232   8.844   8.418  0.1099 -0.2055  0.0181
  113MOL0     N15170   4.563   8.751   8.326  0.4745  0.2287  0.5212
  113MOL0     N15171   4.433   8.751   8.330 -0.8980 -0.2086  0.4828
  113MOL0     C15172   3.230   8.906   8.309  0.6619 -0.3602 -0.0171
  113MOL0     C15173   3.112   8.936   8.389 -0.1323  0.3250 -0.3056
  113MOL0     C15174   2.892   9.035   8.783 -0.7201  0.1969 -0.7276
  113MOL0     C15175   2.885   9.163   8.844 -0.4134 -0.2317  0.1652
  113MOL0     C15176   2.775   9.215   8.921 -0.1770  0.5507 -0.7603
  113MOL0     C15177   2.672   9.127   8.951  0.6431 -0.2430  0.1047
  113MOL0     O15178   2.565   9.162   9.032  0.2150  0.1581  0.9594
  113MOL0     C15179   2.462   9.216   8.950 -0.2486  0.0490 -0.7267
  113MOL0     C15180   2.336   9.225   9.035  0.1423 -0.1317  0.6109
  113MOL0     C15181   2.265   9.090   9.072 -0.2731 -0.4485  0.3212
  113MOL0     C15182   2.188   9.021   8.959  0.0979  0.0142  0.2128
  113MOL0     C15183   2.052   9.072   8.923  0.5537  0.0181  1.1518
  113MOL0     C15184   1.936   9.098   8.900 -0.5463 -0.8266  0.4615
  113MOL0     C15185   2.686   8.994   8.906 -0.4594 -0.2263 -0.6901
  113MOL0     C15186   2.791   8.947   8.822 -0.5183 -0.8620  0.2546
  113MOL0     C15187   2.793   8.800   8.784 -1.2036  0.0460  1.2925
  113MOL0     H15188   3.209   8.776   8.672  1.3680 -0.9705  0.1064
  113MOL0     H15189   3.393   8.718   8.542  0.4810  1.7626  0.9046
  113MOL0     H15190   3.361   8.808   8.126 -1.4039 -0.9167  3.6481
  113MOL0     H15191   3.492   8.936   8.152 -3.3867  1.0590 -2.0752
  113MOL0     H15192   3.559   8.783   7.981 -0.8193  2.4677  0.8097
  113MOL0     H15193   3.528   8.640   8.096 -1.2361  0.3142  2.1544
  113MOL0     H15194   3.694   8.759   8.245 -2.6413  1.2424 -0.0465
  113MOL0     H15195   3.745   8.858   8.115  1.3801 -0.8254 -0.6627
  113MOL0     H15196   3.779   8.556   8.134  1.4558 -1.3766 -3.3473
  113MOL0     H15197   3.814   8.657   7.984 -0.5084  0.6879 -1.1060
  113MOL0     H15198   3.957   8.810   8.147  2.4506  0.1565  1.7306
  113MOL0     H15199   3.925   8.685   8.269  0.7058 -1.0080 -0.4656
  113MOL0     H15200   4.033   8.526   8.102 -0.4392  0.5283 -3.5788
  113MOL0     H15201   4.083   8.654   8.006  2.4987 -1.9667  0.1399
  113MOL0     H15202   4.270   8.597   8.116  2.6345  1.9455  1.2361
  113MOL0     H15203   4.192   8.606   8.281  1.1803  1.6763  1.0180
  113MOL0     H15204   4.211   8.848   8.090 -2.5256 -1.4058  0.6460
  113MOL0     H15205   4.188   8.848   8.259  0.4706  0.6335 -1.3784
  113MOL0     H15206   4.471   8.887   8.038  0.6757 -0.1841  0.2742
  113MOL0     H15207   4.703   8.792   8.031  0.1447  0.3047 -1.0166
  113MOL0     H15208   4.766   8.925   8.125 -2.3416  0.5676  2.0094
  113MOL0     H15209   4.794   8.623   8.207  0.1035 -0.9409 -2.4995
  113MOL0     H15210   4.882   8.712   8.088 -1.7804 -1.6605 -0.1551
  113MOL0     H15211   4.836   8.805   8.377 -0.5485  1.4238 -1.9080
  113MOL0     H15212   4.953   8.887   8.275 -0.2857  1.5535  2.0824
  113MOL0     H15213   4.972   8.578   8.350  0.2718  0.1035 -0.8012
  113MOL0     H15214   5.025   8.698   8.450 -0.0806  0.7803 -0.9534
  113MOL0     H15215   5.380   8.622   8.205  1.1582  1.7643 -0.4345
  113MOL0     H15216   5.583   8.727   8.283 -0.4624 -0.8022 -2.6921
  113MOL0     H15217   5.889   8.966   8.233 -0.4951  0.6748  0.0629
  113MOL0     H15218   6.099   9.067   8.280  0.9205  0.0873 -0.2814
  113MOL0     H15219   6.318   9.046   8.375  3.1627 -0.5949  1.1691
  113MOL0     H15220   6.272   9.224   8.377  2.5888  1.0251  0.3049
  113MOL0     H15221   6.512   9.163   8.417 -2.6295 -0.1849 -2.9019
  113MOL0     H15222   6.435   9.234   8.565 -1.8991 -0.7921  0.1905
  113MOL0     H15223   6.442   9.022   8.688  2.4747 -0.7503  1.8171
  113MOL0     H15224   6.452   8.931   8.542 -1.6637  1.3120  0.3226
  113MOL0     H15225   6.689   9.049   8.517  0.3068  1.3403  0.3947
  113MOL0     H15226   6.665   8.917   8.631  2.4937  0.0392 -0.7295
  113MOL0     H15227   6.615   9.043   8.817 -1.4381 -0.5013 -1.3101
  113MOL0     H15228   6.603   9.187   8.740 -0.9907 -1.3494  1.0540
  113MOL0     H15229   6.832   9.176   8.847 -0.4832  0.4555  0.4974
  113MOL0     H15230   6.858   9.017   8.794  1.5331  1.2685  0.3025
  113MOL0     H15231   6.852   9.255   8.590  0.3841  0.2520  0.1923
  113MOL0     H15232   6.903   9.090   8.559 -0.7798 -0.8485  0.8469
  113MOL0     H15233   7.038   9.267   8.763 -0.0208 -0.6560  0.3427
  113MOL0     H15234   7.076   9.101   8.739  2.0131  0.2457 -0.7263
  113MOL0     H15235   6.039   9.006   8.706  0.3730  3.5521 -0.1743
  113MOL0     H15236   5.823   8.914   8.660  0.1065 -1.0155  1.7445
  113MOL0     H15237   5.343   8.993   8.527  4.1123  2.9017 -2.6207
  113MOL0     H15238   5.140   8.896   8.445  1.4302  1.1954  2.1734
  113MOL0     H15239   3.237   8.949   8.210 -0.8324 -1.0655 -0.4662
  113MOL0     H15240   3.031   8.994   8.345 -0.7610  1.4286  2.0910
  113MOL0     H15241   2.963   9.233   8.818  0.7112 -1.8187 -0.9601
  113MOL0     H15242   2.767   9.318   8.956  2.2977  0.9855 -1.2712
  113MOL0     H15243   2.436   9.153   8.865  1.7514 -1.4176 -0.3249
  113MOL0     H15244   2.490   9.317   8.918 -0.0383  1.1665  2.6263
  113MOL0     H15245   2.278   9.273   8.956  1.2120 -2.0918 -1.4499
  113MOL0     H15246   2.352   9.288   9.124 -1.0543  0.7949  0.1974
  113MOL0     H15247   2.190   9.122   9.145 -2.7859 -1.2821 -1.7576
  113MOL0     H15248   2.339   9.024   9.118  1.4231  0.0494 -1.5280
  113MOL0     H15249   2.248   9.024   8.868 -1.9227 -2.5066 -1.3392
  113MOL0     H15250   2.168   8.921   8.998 -1.8118 -0.1007 -0.9231
  113MOL0     H15251   1.833   9.126   8.899 -0.7569 -0.8485  4.4168
  113MOL0     H15252   2.608   8.927   8.941 -3.1426  3.3541  0.7983
  113MOL0     H15253   2.767   8.787   8.679 -1.1354  0.6323  1.2020
  113MOL0     H15254   2.895   8.765   8.796 -1.8952 -1.4995  3.2961
  113MOL0     H15255   2.718   8.745   8.843 -1.9930  1.5646  1.7699
  114MOL0     O15256   3.102   7.638   3.084  0.5386 -0.5268 -0.8183
  114MOL0     C15257   3.090   7.519   3.091 -0.1444 -0.4424  0.4447
  114MOL0     O15258   3.182   7.429   3.116 -0.0082 -0.1991 -0.4668
  114MOL0     C15259   3.315   7.449   3.105 -0.4477  0.1162 -0.0593
  114MOL0     C15260   3.399   7.359   3.174  0.9245 -0.1057 -0.5990
  114MOL0     C15261   3.531   7.362   3.152  0.5245  0.4662  0.6882
  114MOL0     C15262   3.594   7.457   3.072  0.5635 -0.7882  0.4784
  114MOL0     O15263   3.730   7.471   3.070 -0.2317  0.1659  0.2083
  114MOL0     C15264   3.815   7.372   3.128  0.4502 -0.2347 -0.0648
  114MOL0     C15265   3.951   7.426   3.113  0.5629 -0.2527 -0.3792
  114MOL0     C15266   4.044   7.335   3.187 -0.0577 -0.1952  0.3874
  114MOL0     C15267   4.196   7.340   3.144  0.7083 -1.2324  0.3470
  114MOL0     C15268   4.285   7.272   3.236  0.9810 -0.0387 -0.5689
  114MOL0     C15269   4.431   7.266   3.184  0.3894  0.2303 -0.2647
  114MOL0     C15270   4.509   7.402   3.199  0.5926  0.2237 -0.6911
  114MOL0     C15271   4.517   7.454   3.340  0.0145  0.0411  0.0930
  114MOL0     N15272   4.541   7.342   3.439 -1.0468 -0.6062  0.2686
  114MOL0     C15273   4.656   7.269   3.430 -0.9153 -0.5108 -0.5496
  114MOL0     C15274   4.636   7.158   3.499 -0.5120 -0.5292 -0.1106
  114MOL0     C15275   4.738   7.061   3.538 -0.6128 -0.0249  0.5760
  114MOL0     C15276   4.856   7.047   3.432 -0.0597 -0.5359 -0.5861
  114MOL0     C15277   4.973   7.141   3.460 -0.9663 -0.3432  0.1066
  114MOL0     C15278   5.057   7.090   3.589 -0.5714  0.6003 -0.3695
  114MOL0     O15279   5.122   6.965   3.560  0.3394 -0.6879  0.4185
  114MOL0     C15280   5.252   6.973   3.525 -0.2142  0.3947 -0.4034
  114MOL0     C15281   5.349   7.043   3.602 -0.1429 -0.2258  0.2697
  114MOL0     C15282   5.484   7.039   3.573  0.1824 -0.3758  0.6476
  114MOL0     C15283   5.532   6.962   3.463  0.2096 -0.7192  0.2870
  114MOL0     C15284   5.677   6.965   3.426  0.7870 -0.1806  1.0235
  114MOL0     O15285   5.748   7.053   3.499  0.3747 -0.5804 -0.6226
  114MOL0     C15286   5.881   7.060   3.481 -0.5061  0.6628  0.3211
  114MOL0     C15287   5.968   6.951   3.518  0.0421 -0.6129 -0.0822
  114MOL0     C15288   6.106   6.949   3.490  0.1608  0.4571  1.2949
  114MOL0     C15289   6.161   7.064   3.424  0.4709 -0.6113 -0.2675
  114MOL0     O15290   6.293   7.087   3.389  0.7426  0.1187  0.2770
  114MOL0     C15291   6.396   7.065   3.491  0.5338  0.5588  0.2667
  114MOL0     C15292   6.530   7.088   3.435 -0.0091 -0.7156 -0.5067
  114MOL0     C15293   6.635   7.049   3.542  0.0849  0.1258  0.4514
  114MOL0     C15294   6.774   7.044   3.476  0.1165 -0.3459  0.4796
  114MOL0     C15295   6.889   7.052   3.573  0.4867 -0.2378 -0.2238
  114MOL0     C15296   6.932   6.914   3.639  0.4419 -0.4293 -1.0758
  114MOL0     C15297   6.982   6.814   3.530 -0.2986 -0.2692  0.2980
  114MOL0     C15298   7.079   6.701   3.594  0.4746  0.1121 -0.1894
  114MOL0    Cl15299   7.232   6.772   3.649  0.2826 -0.1562  0.1486
  114MOL0     C15300   6.077   7.173   3.392 -1.0030  0.2239 -0.1309
  114MOL0     C15301   5.942   7.169   3.416  0.4612 -0.6225  0.0512
  114MOL0     O15302   5.715   6.905   3.329  1.0718  0.0270  0.1008
  114MOL0     C15303   5.438   6.890   3.384 -0.1026 -0.4823 -0.1947
  114MOL0     C15304   5.300   6.895   3.424  0.2181 -0.5711 -0.1188
  114MOL0     N15305   4.509   7.170   3.555  0.2353 -0.1006  0.1764
  114MOL0     N15306   4.447   7.282   3.520 -0.1324 -0.5140  0.3321
  114MOL0     C15307   3.514   7.560   3.017 -0.0790  1.2556  0.0791
  114MOL0     C15308   3.378   7.549   3.026  0.3348 -0.9773 -0.0388
  114MOL0     C15309   2.949   7.461   3.076  0.2601  0.5483 -0.0228
  114MOL0     C15310   2.842   7.526   3.137 -0.0499  0.8199  0.7368
  114MOL0     C15311   2.712   7.485   3.125 -0.2330 -0.4017 -0.2520
  114MOL0     C15312   2.688   7.373   3.057 -0.5429 -0.7575  0.3579
  114MOL0     O15313   2.568   7.305   3.042  0.2839  0.3205  0.1905
  114MOL0     C15314   2.449   7.383   3.028 -0.3574  0.8039  0.6291
  114MOL0     C15315   2.332   7.288   2.988  0.0150  1.0796 -0.5483
  114MOL0     C15316   2.285   7.183   3.098 -0.0980 -0.3750 -0.8306
  114MOL0     C15317   2.144   7.139   3.070  1.0928  0.0040 -0.5898
  114MOL0     C15318   2.036   7.236   3.112  0.0250  0.8542 -0.0191
  114MOL0     C15319   1.958   7.328   3.139 -0.0061  0.4134 -0.9330
  114MOL0     C15320   2.787   7.300   2.995  0.1953 -0.3796 -0.1455
  114MOL0     C15321   2.915   7.339   3.004 -1.1366  0.3086 -0.8545
  114MOL0     C15322   3.019   7.266   2.931  0.5002 -0.0890 -0.1500
  114MOL0     H15323   3.360   7.276   3.232 -0.6245  0.4267 -0.8207
  114MOL0     H15324   3.593   7.289   3.204  0.9136 -3.0317 -4.0842
  114MOL0     H15325   3.802   7.360   3.236  5.3686  1.0595  0.9328
  114MOL0     H15326   3.788   7.273   3.091 -1.7600 -0.5121  2.0465
  114MOL0     H15327   3.954   7.530   3.147 -0.4863  0.7509 -3.0526
  114MOL0     H15328   3.973   7.439   3.006  0.7280  0.9023 -0.2141
  114MOL0     H15329   4.013   7.230   3.180  0.6451 -0.4574  1.0055
  114MOL0     H15330   4.036   7.361   3.293 -0.2659 -0.0555  0.3367
  114MOL0     H15331   4.203   7.298   3.043 -0.0040  3.0041 -1.6967
  114MOL0     H15332   4.218   7.446   3.128 -0.9688 -0.8954  0.0660
  114MOL0     H15333   4.274   7.303   3.340  1.0418  0.8007 -0.8051
  114MOL0     H15334   4.239   7.172   3.229  0.4818  0.2284 -1.2147
  114MOL0     H15335   4.484   7.183   3.232  3.6178  1.5658 -1.2493
  114MOL0     H15336   4.436   7.238   3.079 -3.9459  0.1333 -0.6533
  114MOL0     H15337   4.472   7.476   3.128 -1.4621  0.3945  0.4663
  114MOL0     H15338   4.613   7.388   3.169  1.4909  2.1903  1.2743
  114MOL0     H15339   4.607   7.513   3.356 -0.3254  0.6696 -0.2462
  114MOL0     H15340   4.430   7.512   3.372  0.2862 -1.7422  4.7494
  114MOL0     H15341   4.736   7.308   3.368 -0.4173 -0.6440 -0.0013
  114MOL0     H15342   4.776   7.089   3.637 -2.9465 -0.6478  1.7418
  114MOL0     H15343   4.691   6.963   3.553  0.4695 -0.7314 -0.4871
  114MOL0     H15344   4.888   6.943   3.446  2.4912 -0.0523 -2.1383
  114MOL0     H15345   4.815   7.069   3.333  2.0606  4.3118 -0.6606
  114MOL0     H15346   4.934   7.240   3.489  1.3210  0.2824  1.3648
  114MOL0     H15347   5.036   7.146   3.371 -3.7069  2.1221 -1.8723
  114MOL0     H15348   5.002   7.085   3.684 -0.3259  0.1516 -0.2493
  114MOL0     H15349   5.128   7.170   3.609  0.5390  0.8064 -4.3098
  114MOL0     H15350   5.306   7.099   3.684 -1.2722 -0.7771  0.0790
  114MOL0     H15351   5.538   7.102   3.644 -2.5080  0.4265  2.1173
  114MOL0     H15352   5.921   6.882   3.587  0.8675 -0.4486  0.6637
  114MOL0     H15353   6.165   6.863   3.521 -0.6794  0.2200  2.3181
  114MOL0     H15354   6.380   7.132   3.576  4.2015  0.7762  0.9296
  114MOL0     H15355   6.385   6.960   3.520  0.0297 -0.2247 -2.5004
  114MOL0     H15356   6.542   7.037   3.339 -1.2143 -0.8063 -0.6320
  114MOL0     H15357   6.535   7.196   3.420  1.0366 -0.8176 -0.9791
  114MOL0     H15358   6.641   7.116   3.628 -1.0445 -0.7294  1.2424
  114MOL0     H15359   6.608   6.955   3.593  1.6510  0.9696  3.0283
  114MOL0     H15360   6.770   7.133   3.414  1.9130 -0.3595  0.2946
  114MOL0     H15361   6.784   6.955   3.413  1.6619 -0.1827  0.4656
  114MOL0     H15362   6.876   7.119   3.659  1.4838 -0.7899  0.3795
  114MOL0     H15363   6.966   7.090   3.504  1.0676 -3.3038 -1.3976
  114MOL0     H15364   7.017   6.936   3.704  0.6464 -2.5502 -0.5527
  114MOL0     H15365   6.848   6.870   3.693  0.8867  0.7794  0.7034
  114MOL0     H15366   7.025   6.860   3.441 -2.0627 -0.6580 -0.8083
  114MOL0     H15367   6.902   6.746   3.498 -0.4974 -0.2594  0.7725
  114MOL0     H15368   7.031   6.662   3.683 -1.8860 -0.9415 -1.8239
  114MOL0     H15369   7.088   6.622   3.519 -2.5170 -0.1478 -0.3988
  114MOL0     H15370   6.126   7.251   3.335  0.5845  0.8783  2.0077
  114MOL0     H15371   5.882   7.255   3.388  1.2014  0.4432  1.5561
  114MOL0     H15372   5.465   6.846   3.288  0.4268  1.5584 -1.0364
  114MOL0     H15373   5.231   6.838   3.362  0.6762 -0.9136 -0.3153
  114MOL0     H15374   3.556   7.653   2.981  0.3564  2.3752  3.2064
  114MOL0     H15375   3.330   7.635   2.981  0.6381 -1.4027 -1.2019
  114MOL0     H15376   2.859   7.621   3.186 -1.3913  1.3358  0.2613
  114MOL0     H15377   2.640   7.546   3.179 -0.9193 -1.3773 -0.0373
  114MOL0     H15378   2.473   7.451   2.945  0.4071  0.2957  0.4127
  114MOL0     H15379   2.422   7.439   3.117 -0.4794 -1.0453  1.8108
  114MOL0     H15380   2.362   7.220   2.908  1.1014  0.2912  0.4750
  114MOL0     H15381   2.245   7.344   2.954 -0.9883 -1.0861 -1.7095
  114MOL0     H15382   2.294   7.237   3.193 -0.1967 -0.8824 -0.5217
  114MOL0     H15383   2.348   7.093   3.106  2.2701  1.2556 -0.1032
  114MOL0     H15384   2.135   7.129   2.961 -0.5169  0.7740 -0.5502
  114MOL0     H15385   2.132   7.042   3.119  1.5025  0.0800 -0.3344
  114MOL0     H15386   1.883   7.400   3.165  1.3806  1.2988  0.8020
  114MOL0     H15387   2.755   7.215   2.935  2.4313 -2.3314  1.2379
  114MOL0     H15388   3.099   7.234   2.997 -0.7143 -3.3650 -0.0952
  114MOL0     H15389   2.977   7.177   2.883  3.1372 -0.5501 -1.7836
  114MOL0     H15390   3.058   7.337   2.857 -5.1058  2.6172 -1.0969
  115MOL0     O15391   1.454   2.060  10.495 -0.1995 -0.6205 -0.9022
  115MOL0     C15392   1.427   2.082  10.613 -0.1800 -0.4318  0.0420
  115MOL0     O15393   1.511   2.077  10.722 -0.8326  0.2921  0.6656
  115MOL0     C15394   1.625   1.998  10.700 -0.2961 -0.7758  0.0625
  115MOL0     C15395   1.730   2.054  10.638 -0.5095 -0.1745 -0.2298
  115MOL0     C15396   1.848   1.980  10.623 -1.0591 -0.6043 -0.4198
  115MOL0     C15397   1.868   1.858  10.681  1.1136 -0.6661 -0.5217
  115MOL0     O15398   1.990   1.810  10.709 -0.4706 -0.1462 -0.7671
  115MOL0     C15399   2.026   1.683  10.663  0.0698  0.0407 -0.5380
  115MOL0     C15400   2.175   1.660  10.633  0.6092  0.5040 -0.5659
  115MOL0     C15401   2.227   1.743  10.514  0.1952 -0.5032  0.9179
  115MOL0     C15402   2.331   1.850  10.571 -0.0435  0.3399  0.0781
  115MOL0     C15403   2.349   1.964  10.460 -1.2734  0.3736 -0.6060
  115MOL0     C15404   2.489   2.035  10.456  0.3698 -0.0530 -0.2201
  115MOL0     C15405   2.579   1.946  10.361 -0.2767  0.4373  0.7028
  115MOL0     C15406   2.714   2.016  10.342 -0.5648  0.2408  0.1714
  115MOL0     N15407   2.797   1.930  10.258 -0.1522 -0.0851  0.1784
  115MOL0     C15408   2.800   1.934  10.125 -0.2275  0.3999  0.3683
  115MOL0     C15409   2.903   1.854  10.086  0.0623  0.0105  1.1235
  115MOL0     C15410   2.957   1.820   9.945  0.0413  0.2411  0.0778
  115MOL0     C15411   3.114   1.834   9.937 -0.0543 -0.9694  0.0221
  115MOL0     C15412   3.156   1.981   9.969 -1.0923 -0.4432 -0.1676
  115MOL0     C15413   3.309   1.997   9.997  0.1861 -0.3033 -0.1336
  115MOL0     O15414   3.395   1.958   9.890 -0.1496  0.0719  0.6953
  115MOL0     C15415   3.530   1.995   9.893  0.5191 -0.3269  0.7142
  115MOL0     C15416   3.612   1.981   9.786 -0.8167 -0.4016 -0.5810
  115MOL0     C15417   3.752   1.999   9.796  0.4559 -0.3486 -0.5281
  115MOL0     C15418   3.811   2.038   9.916  0.2233  0.5657  0.2591
  115MOL0     C15419   3.957   2.042   9.933 -0.3233 -0.0938  0.2289
  115MOL0     O15420   4.007   2.049  10.057 -0.3233  0.1811 -0.5103
  115MOL0     C15421   4.149   2.053  10.065  0.2216  0.0214  0.8881
  115MOL0     C15422   4.210   2.176  10.093  0.6551 -0.7903  0.1452
  115MOL0     C15423   4.345   2.182  10.121  0.0160  0.5458  0.0097
  115MOL0     C15424   4.420   2.063  10.120  1.1421  0.3107 -0.6487
  115MOL0     O15425   4.554   2.050  10.123 -0.2186 -0.2783 -0.0527
  115MOL0     C15426   4.613   2.139  10.222  0.1344 -0.2192  0.0905
  115MOL0     C15427   4.762   2.098  10.233  0.2559 -0.8277  0.4492
  115MOL0     C15428   4.829   2.160  10.356 -0.4174  1.1025 -0.9425
  115MOL0     C15429   4.967   2.092  10.391  0.0052 -0.0271  0.3493
  115MOL0     C15430   5.023   2.169  10.521  0.5999  0.1699  1.0910
  115MOL0     C15431   5.164   2.117  10.546  0.1963 -0.7344  0.2330
  115MOL0     C15432   5.234   2.190  10.667 -0.2245  0.6573 -0.2201
  115MOL0     C15433   5.287   2.094  10.770  0.2445  0.9421 -0.1869
  115MOL0    Cl15434   5.455   2.035  10.733  0.2729  0.0567  0.3435
  115MOL0     C15435   4.353   1.942  10.085  0.6957  0.5657 -0.2777
  115MOL0     C15436   4.223   1.940  10.052 -0.9618 -0.0014 -0.6500
  115MOL0     O15437   4.028   2.046   9.835  0.3332 -0.0256  0.2429
  115MOL0     C15438   3.727   2.074  10.017 -0.2724 -0.3078  0.4790
  115MOL0     C15439   3.588   2.057  10.003  0.2202 -0.5529 -0.1927
  115MOL0     N15440   2.970   1.816  10.199 -0.2275 -0.0531  0.8979
  115MOL0     N15441   2.902   1.853  10.297  0.4705 -0.0350 -0.4045
  115MOL0     C15442   1.762   1.801  10.748  0.4829 -1.0101 -0.1233
  115MOL0     C15443   1.634   1.868  10.754 -0.0868  0.3236  0.8243
  115MOL0     C15444   1.286   2.100  10.657  0.0273 -0.7481 -0.0310
  115MOL0     C15445   1.259   2.191  10.761 -0.8528  0.1552  0.2399
  115MOL0     C15446   1.136   2.206  10.818  0.6595 -0.5281  1.0461
  115MOL0     C15447   1.032   2.126  10.769 -0.5809 -0.0832  0.1257
  115MOL0     O15448   0.920   2.127  10.840 -0.1814 -0.1000 -0.1274
  115MOL0     C15449   0.810   2.064  10.779  0.4930  0.1566  0.1895
  115MOL0     C15450   0.684   2.108  10.867  0.1996  0.3632 -0.1564
  115MOL0     C15451   0.570   2.016  10.861  0.2266  0.1810 -0.1278
  115MOL0     C15452   0.470   2.071  10.766  1.6114  0.9283 -0.3019
  115MOL0     C15453   0.334   2.006  10.781 -0.0310 -0.9849 -0.6601
  115MOL0     C15454   0.227   1.947  10.788  0.9481 -0.1420  0.4574
  115MOL0     C15455   1.047   2.065  10.638 -0.8373  0.4380 -0.2384
  115MOL0     C15456   1.180   2.046  10.586  0.4652 -0.4843  0.5634
  115MOL0     C15457   1.194   1.952  10.471 -0.0451  0.7153  0.5512
  115MOL0     H15458   1.721   2.155  10.600 -1.1269  0.0143  0.3988
  115MOL0     H15459   1.931   2.024  10.569 -0.5324 -0.6233  0.3632
  115MOL0     H15460   2.006   1.619  10.749  2.5703  0.5666  0.4921
  115MOL0     H15461   1.974   1.653  10.571  2.7097 -2.9504 -1.2021
  115MOL0     H15462   2.197   1.557  10.603  0.3859  0.2951 -0.0148
  115MOL0     H15463   2.237   1.671  10.722  2.6885  0.3871 -1.9314
  115MOL0     H15464   2.143   1.787  10.459  2.3688 -0.7523 -2.9973
  115MOL0     H15465   2.273   1.670  10.447 -0.0584  2.0709 -2.3237
  115MOL0     H15466   2.299   1.891  10.667 -1.9645 -1.1075  0.0990
  115MOL0     H15467   2.429   1.802  10.585 -0.0781 -0.9889 -3.2781
  115MOL0     H15468   2.326   1.918  10.364  2.5761 -1.8565 -0.6571
  115MOL0     H15469   2.278   2.044  10.485  0.0558  0.3110  4.6083
  115MOL0     H15470   2.477   2.138  10.421  0.3018  0.9645  2.5405
  115MOL0     H15471   2.521   2.042  10.560 -2.6923  0.2840  0.8116
  115MOL0     H15472   2.532   1.931  10.263 -1.8544  0.5990  1.3953
  115MOL0     H15473   2.591   1.843  10.398 -0.7971  0.1761  0.1679
  115MOL0     H15474   2.703   2.118  10.304 -1.3386 -0.8387 -2.7429
  115MOL0     H15475   2.747   2.032  10.445 -0.5207 -1.0300  0.3699
  115MOL0     H15476   2.722   1.968  10.058 -0.2678  0.7617  0.6007
  115MOL0     H15477   2.915   1.724   9.911  3.3923 -0.5770 -2.2166
  115MOL0     H15478   2.917   1.894   9.875 -0.9042  2.9867  3.2643
  115MOL0     H15479   3.166   1.768  10.007  2.1770  1.6543  1.0309
  115MOL0     H15480   3.146   1.809   9.835  1.6399  1.4149 -0.1304
  115MOL0     H15481   3.095   2.015  10.053 -0.3374 -1.3036  0.7614
  115MOL0     H15482   3.140   2.046   9.883 -0.2918 -0.2768 -0.1990
  115MOL0     H15483   3.337   1.949  10.092 -2.3432  0.8058  1.2891
  115MOL0     H15484   3.329   2.104  10.003  1.4919 -0.4997 -0.6933
  115MOL0     H15485   3.568   1.942   9.695  2.2456 -1.0573 -1.8917
  115MOL0     H15486   3.801   1.982   9.701  3.1563  2.3835  0.2216
  115MOL0     H15487   4.167   2.276  10.091  3.2276  0.4247 -1.9851
  115MOL0     H15488   4.392   2.279  10.138 -0.5842  0.6962  0.8604
  115MOL0     H15489   4.602   2.242  10.187 -1.0622 -0.6067 -0.7232
  115MOL0     H15490   4.558   2.130  10.316 -2.1150  0.2514 -1.1209
  115MOL0     H15491   4.764   1.988  10.234 -0.1641 -0.8320  1.1263
  115MOL0     H15492   4.814   2.128  10.141 -0.5270 -0.2694  0.1856
  115MOL0     H15493   4.845   2.268  10.354 -2.5389  1.4530 -1.2188
  115MOL0     H15494   4.757   2.144  10.437  0.2767  2.2373 -0.0647
  115MOL0     H15495   5.037   2.101  10.308  0.0733  2.5544  0.5957
  115MOL0     H15496   4.954   1.986  10.413  2.0112 -0.1429  1.1657
  115MOL0     H15497   4.963   2.143  10.609  1.1410  0.6887  1.6227
  115MOL0     H15498   5.020   2.277  10.502  1.2901  0.1239  0.6641
  115MOL0     H15499   5.157   2.010  10.568  0.6973 -0.7751  0.2170
  115MOL0     H15500   5.235   2.128  10.463  0.7110 -0.2638  0.7285
  115MOL0     H15501   5.162   2.253  10.720 -0.4646  2.0480 -2.0840
  115MOL0     H15502   5.318   2.254  10.637  1.8433 -2.0275 -0.5566
  115MOL0     H15503   5.278   2.142  10.867 -1.7027 -2.7153  1.6441
  115MOL0     H15504   5.223   2.005  10.770  2.4805 -0.7735  1.4870
  115MOL0     H15505   4.409   1.849  10.084  0.9692  0.6222  2.3882
  115MOL0     H15506   4.172   1.845  10.046  0.0025 -0.8942  2.8743
  115MOL0     H15507   3.770   2.107  10.111  2.0255 -1.3366 -0.1614
  115MOL0     H15508   3.531   2.093  10.087 -0.4451  0.3542 -1.0137
  115MOL0     H15509   1.784   1.707  10.797  0.0288 -0.3439  1.4293
  115MOL0     H15510   1.551   1.826  10.810 -0.3969 -0.5250 -0.2337
  115MOL0     H15511   1.345   2.246  10.797  0.7113  0.5252 -3.5972
  115MOL0     H15512   1.121   2.269  10.906 -3.9716 -0.1551  0.2055
  115MOL0     H15513   0.830   1.958  10.793  0.1818 -0.4097 -3.0313
  115MOL0     H15514   0.797   2.086  10.673  1.4742  2.1083  0.4135
  115MOL0     H15515   0.662   2.214  10.851 -1.5001 -0.0200 -0.4552
  115MOL0     H15516   0.711   2.097  10.973  1.4626 -1.6813 -0.6192
  115MOL0     H15517   0.523   1.998  10.958  0.3784  0.5235  0.0106
  115MOL0     H15518   0.613   1.926  10.816 -1.3124  0.7515 -3.0022
  115MOL0     H15519   0.463   2.180  10.772 -0.9550  0.8332 -0.2487
  115MOL0     H15520   0.500   2.045  10.665 -3.9551 -2.7155 -1.4376
  115MOL0     H15521   0.137   1.889  10.794 -0.7442  1.7355 -3.3848
  115MOL0     H15522   0.963   2.006  10.604 -0.9332  0.0644  0.6294
  115MOL0     H15523   1.111   1.881  10.463  1.1319 -0.4559 -2.7546
  115MOL0     H15524   1.202   2.021  10.386 -1.8399 -0.3652 -0.5572
  115MOL0     H15525   1.284   1.893  10.488 -0.2171 -0.0387 -0.9625
  116MOL0     O15526   9.027   9.607   6.163  0.1706  0.6577  0.4224
  116MOL0     C15527   8.906   9.621   6.171  0.1740  1.0484 -0.9892
  116MOL0     O15528   8.839   9.722   6.229  0.0965  0.0298  0.2072
  116MOL0     C15529   8.907   9.799   6.324 -0.1323 -0.3088 -0.6746
  116MOL0     C15530   8.931   9.748   6.455  0.0945  1.1328  0.9740
  116MOL0     C15531   9.008   9.815   6.553 -0.2907 -0.4257  0.5785
  116MOL0     C15532   9.068   9.935   6.517 -0.1056 -0.8461  0.3167
  116MOL0     O15533   9.157  10.004   6.594  0.3645  0.3599  0.6594
  116MOL0     C15534   9.163   9.990   6.736  0.7016 -0.5760  0.0771
  116MOL0     C15535   9.235   9.878   6.786 -0.0288  0.2886 -0.7530
  116MOL0     C15536   9.205   9.851   6.937 -0.3373 -0.2427  0.4545
  116MOL0     C15537   9.301   9.748   7.001  0.6821 -0.6387  0.9662
  116MOL0     C15538   9.261   9.732   7.145  0.1267  0.3690 -0.3490
  116MOL0     C15539   9.364   9.646   7.225 -0.0131 -0.9028 -0.2456
  116MOL0     C15540   9.509   9.703   7.233  0.4566  0.3685 -0.2476
  116MOL0     C15541   9.587   9.626   7.337  0.7449  0.3084  1.6657
  116MOL0     N15542   9.729   9.675   7.325 -0.0866 -0.1788 -0.6415
  116MOL0     C15543   9.796   9.766   7.398 -0.7696  0.6681 -0.3516
  116MOL0     C15544   9.912   9.790   7.340 -0.5216  0.4090 -0.0062
  116MOL0     C15545  10.007   9.899   7.375 -0.5998  0.2187 -0.5376
  116MOL0     C15546   9.956  10.031   7.320 -0.2805  0.9326  0.2966
  116MOL0     C15547  10.065  10.134   7.317 -0.3441 -0.7697  0.4871
  116MOL0     C15548  10.158  10.144   7.185 -0.0590 -0.9890 -0.2188
  116MOL0     O15549  10.280  10.070   7.204  0.2351  0.8881 -0.3413
  116MOL0     C15550  10.400  10.120   7.158  0.0549  0.4232 -0.0487
  116MOL0     C15551  10.417  10.199   7.051  0.0034 -0.5990 -0.4203
  116MOL0     C15552  10.541  10.234   7.002 -0.1635  0.0190 -0.4074
  116MOL0     C15553  10.656  10.181   7.061 -0.4439  0.1301 -0.6622
  116MOL0     C15554  10.794  10.199   6.999 -0.1345 -0.6020 -0.3738
  116MOL0     O15555  10.808  10.241   6.874  0.5429  0.6061 -0.3780
  116MOL0     C15556  10.936  10.256   6.818  0.1196  0.4127 -0.6114
  116MOL0     C15557  11.047  10.326   6.879  1.2665  0.2007 -0.5310
  116MOL0     C15558  11.168  10.338   6.818  0.8868  1.3345  0.2407
  116MOL0     C15559  11.184  10.274   6.692  0.5352  0.5501 -0.1207
  116MOL0     O15560  11.309  10.263   6.631 -0.0011  0.1339  0.5327
  116MOL0     C15561  11.410  10.358   6.667  0.0140  0.0743  0.1049
  116MOL0     C15562  11.522  10.348   6.567  0.9309  1.5916 -0.1779
  116MOL0     C15563  11.624  10.464   6.573  0.3897 -0.8797 -0.0123
  116MOL0     C15564  11.725  10.460   6.687  0.2153  1.1299 -0.3636
  116MOL0     C15565  11.828  10.576   6.686  0.4376 -0.1709  0.0603
  116MOL0     C15566  11.904  10.602   6.559  0.0498  0.1498  0.0189
  116MOL0     C15567  11.998  10.486   6.540 -0.3143  0.2250 -0.4573
  116MOL0     C15568  12.078  10.487   6.410 -0.1380 -0.1930  1.0692
  116MOL0    Cl15569  12.194  10.614   6.413  0.0223 -0.3322  0.5895
  116MOL0     C15570  11.082  10.201   6.642  0.2011 -0.3129 -0.7078
  116MOL0     C15571  10.962  10.195   6.704 -0.4352  1.4452 -0.2200
  116MOL0     O15572  10.886  10.151   7.057 -0.2634  0.1470  0.7243
  116MOL0     C15573  10.639  10.107   7.181  0.2553 -0.4492 -0.2163
  116MOL0     C15574  10.509  10.078   7.229  0.8393  0.5084  0.1521
  116MOL0     N15575   9.910   9.705   7.225  0.4392 -0.3888  0.1813
  116MOL0     N15576   9.801   9.635   7.224  0.1952  0.0237 -0.3811
  116MOL0     C15577   9.061   9.982   6.386  0.1801  0.4299 -0.1558
  116MOL0     C15578   8.979   9.916   6.289 -0.3066 -0.6393 -0.0232
  116MOL0     C15579   8.824   9.524   6.106  0.6292 -0.6109 -1.0092
  116MOL0     C15580   8.685   9.543   6.118  0.1112 -0.0211 -1.1018
  116MOL0     C15581   8.593   9.451   6.068  0.3418 -0.0337 -0.0336
  116MOL0     C15582   8.638   9.329   6.002  0.0040 -0.7259  0.2293
  116MOL0     O15583   8.549   9.233   5.956 -0.4347 -0.0452 -0.4667
  116MOL0     C15584   8.414   9.276   5.938 -0.1929 -0.2923 -0.2124
  116MOL0     C15585   8.332   9.165   5.883 -0.5058  0.2963 -0.8037
  116MOL0     C15586   8.371   9.133   5.735  0.0171 -0.4099 -0.8514
  116MOL0     C15587   8.252   9.075   5.677 -0.6786 -0.2294  0.3904
  116MOL0     C15588   8.267   9.019   5.540  0.4181 -0.2008 -0.4555
  116MOL0     C15589   8.275   8.954   5.439  0.3930 -1.9453 -0.4971
  116MOL0     C15590   8.778   9.316   5.990  0.9798  0.8602  1.1744
  116MOL0     C15591   8.869   9.410   6.031 -0.3483  0.3083 -0.4550
  116MOL0     C15592   9.005   9.369   6.000 -0.3003  1.0398  0.2166
  116MOL0     H15593   8.888   9.652   6.484  2.0270  0.6057  2.2661
  116MOL0     H15594   9.027   9.786   6.656  0.8359 -2.3093 -0.1270
  116MOL0     H15595   9.199  10.088   6.770  0.1354 -0.6577  0.9456
  116MOL0     H15596   9.062   9.979   6.776 -0.2159 -1.0564 -2.2557
  116MOL0     H15597   9.341   9.896   6.765  0.8079 -2.7070  0.3628
  116MOL0     H15598   9.233   9.785   6.728  1.8508  0.1653 -0.6919
  116MOL0     H15599   9.109   9.799   6.934  0.1892 -1.1860 -1.3688
  116MOL0     H15600   9.196   9.938   7.002  1.9940  1.8791 -1.8534
  116MOL0     H15601   9.281   9.655   6.946  0.3460 -1.1789  1.9676
  116MOL0     H15602   9.406   9.777   6.989  0.3682  0.4429  0.6883
  116MOL0     H15603   9.239   9.829   7.190  0.0172  0.1176  0.1483
  116MOL0     H15604   9.173   9.666   7.143 -0.0712  0.6392 -1.5111
  116MOL0     H15605   9.333   9.624   7.327 -2.8316 -1.5276 -1.1390
  116MOL0     H15606   9.359   9.549   7.174 -2.3194  0.3908 -2.7207
  116MOL0     H15607   9.500   9.802   7.279  1.0744 -0.6709  2.2773
  116MOL0     H15608   9.563   9.700   7.137  0.5827 -0.8205 -0.1526
  116MOL0     H15609   9.550   9.638   7.439  0.4147  0.3363  1.5458
  116MOL0     H15610   9.592   9.519   7.316  1.1366  0.8077 -1.3877
  116MOL0     H15611   9.759   9.829   7.479  0.2731  1.3809 -0.4171
  116MOL0     H15612  10.020   9.907   7.483  0.4464 -2.8016 -0.3220
  116MOL0     H15613  10.101   9.860   7.335 -2.7706 -5.2761 -1.2023
  116MOL0     H15614   9.917  10.014   7.219  0.3103 -0.1409  0.2285
  116MOL0     H15615   9.876  10.065   7.387 -1.2931 -0.8627  0.0636
  116MOL0     H15616  10.132  10.123   7.403 -0.8307 -1.3080  0.8062
  116MOL0     H15617  10.005  10.225   7.325 -2.5407 -1.9748 -1.2981
  116MOL0     H15618  10.177  10.250   7.166  0.2476 -1.2434 -1.3980
  116MOL0     H15619  10.105  10.108   7.096 -0.5964  0.9901 -0.7504
  116MOL0     H15620  10.334  10.253   7.007  1.0408 -0.0527 -1.7821
  116MOL0     H15621  10.554  10.295   6.914  0.4146  3.4048  1.8167
  116MOL0     H15622  11.030  10.374   6.974  0.6362 -0.6024 -0.2152
  116MOL0     H15623  11.241  10.407   6.859 -0.0563  1.3678  1.9664
  116MOL0     H15624  11.384  10.463   6.676 -0.3580  0.0142 -0.2520
  116MOL0     H15625  11.446  10.336   6.768  0.0099  0.8068  0.2692
  116MOL0     H15626  11.567  10.251   6.587  0.2719  1.1221 -0.9271
  116MOL0     H15627  11.485  10.359   6.464 -1.8614 -1.1396  0.4183
  116MOL0     H15628  11.687  10.461   6.483 -1.9841 -0.7502 -1.7650
  116MOL0     H15629  11.570  10.559   6.582  1.6243 -0.1511 -0.0282
  116MOL0     H15630  11.777  10.364   6.681 -1.5133  0.2040 -1.5743
  116MOL0     H15631  11.677  10.468   6.786 -1.5726  1.1369 -1.1814
  116MOL0     H15632  11.887  10.569   6.777  0.1071  3.9725  0.8037
  116MOL0     H15633  11.786  10.674   6.709  1.5318 -0.2211  2.5175
  116MOL0     H15634  11.849  10.621   6.466  0.8894 -1.6013 -0.8791
  116MOL0     H15635  11.967  10.690   6.571  1.5587 -0.4889 -2.5851
  116MOL0     H15636  11.930  10.400   6.540  0.1617 -0.1550 -1.2418
  116MOL0     H15637  12.067  10.465   6.622  0.9265 -0.8721 -1.7222
  116MOL0     H15638  12.121  10.387   6.398 -0.6104 -0.5023  1.9095
  116MOL0     H15639  12.003  10.502   6.332  1.4911  0.0627 -0.5041
  116MOL0     H15640  11.096  10.139   6.555 -0.6901  0.4286 -1.3999
  116MOL0     H15641  10.878  10.138   6.664  0.1867  0.2080  0.1726
  116MOL0     H15642  10.720  10.048   7.224 -0.8928 -1.1042  1.1481
  116MOL0     H15643  10.498  10.018   7.318  0.6690 -0.7389 -0.6818
  116MOL0     H15644   9.100  10.078   6.355 -0.6648  1.1835  1.0160
  116MOL0     H15645   8.948   9.934   6.186 -1.3894 -3.9695 -0.4015
  116MOL0     H15646   8.635   9.628   6.163 -3.2893 -1.3963 -2.0380
  116MOL0     H15647   8.487   9.474   6.064  0.1102 -1.2632 -1.8165
  116MOL0     H15648   8.417   9.360   5.868  1.2653  0.1492  0.3395
  116MOL0     H15649   8.380   9.314   6.034  0.4692  0.2487 -0.1869
  116MOL0     H15650   8.226   9.192   5.884 -1.1412 -1.8824 -2.3874
  116MOL0     H15651   8.364   9.075   5.937 -1.9854  1.8393  3.0156
  116MOL0     H15652   8.456   9.064   5.734 -0.8956 -1.6118  0.2104
  116MOL0     H15653   8.396   9.226   5.684 -1.6970  0.8032  0.4298
  116MOL0     H15654   8.202   8.999   5.737  3.0318 -0.3097  3.7616
  116MOL0     H15655   8.171   9.147   5.663 -0.4226 -0.0641 -0.3131
  116MOL0     H15656   8.306   8.903   5.349 -2.5822 -1.8162 -1.7003
  116MOL0     H15657   8.813   9.232   5.930  0.5423  0.4022  1.5550
  116MOL0     H15658   9.007   9.260   5.989 -1.1367  1.1316 -1.0290
  116MOL0     H15659   9.034   9.422   5.909 -2.8124  0.6961 -0.8761
  116MOL0     H15660   9.079   9.389   6.078  1.4834  0.8246 -1.3631
  117MOL0     O15661   7.545   0.318   8.419  0.4349 -0.7670  0.5279
  117MOL0     C15662   7.599   0.213   8.443  0.8911  0.4013 -0.0814
  117MOL0     O15663   7.730   0.192   8.454  0.0135 -0.2524  0.4145
  117MOL0     C15664   7.804   0.306   8.464 -0.5414  0.4883 -0.1782
  117MOL0     C15665   7.856   0.344   8.592  0.7694  1.0987 -0.0411
  117MOL0     C15666   7.949   0.445   8.614 -0.1465 -0.4191 -0.0970
  117MOL0     C15667   7.986   0.523   8.508  1.0819 -0.6339  0.4580
  117MOL0     O15668   8.062   0.633   8.525 -0.3937 -0.0233  0.4385
  117MOL0     C15669   8.029   0.763   8.447 -0.5417  0.8583 -0.8362
  117MOL0     C15670   8.117   0.777   8.322 -0.1484  0.6919  0.2102
  117MOL0     C15671   8.058   0.859   8.206 -0.1348 -0.0027 -0.7275
  117MOL0     C15672   8.160   0.874   8.084  0.5955  1.2781  0.9964
  117MOL0     C15673   8.270   0.972   8.121  0.0657 -0.9199  0.0700
  117MOL0     C15674   8.370   0.999   8.018  0.8550  0.1109 -0.3699
  117MOL0     C15675   8.463   1.116   8.067  0.6469  0.3365  0.1658
  117MOL0     C15676   8.569   1.060   8.168  0.0008 -1.2021 -0.0069
  117MOL0     N15677   8.659   1.170   8.208  0.0640  0.8552  0.0968
  117MOL0     C15678   8.783   1.143   8.263  0.9181  0.0277 -0.3499
  117MOL0     C15679   8.853   1.264   8.257 -0.0324 -0.7776 -0.7083
  117MOL0     C15680   8.993   1.280   8.295 -0.2005 -0.3362  0.2220
  117MOL0     C15681   9.066   1.382   8.201  0.4927 -0.2465 -0.2435
  117MOL0     C15682   9.209   1.420   8.242 -0.7568  0.2683  0.1961
  117MOL0     C15683   9.302   1.299   8.245 -0.5132  0.6398 -0.1107
  117MOL0     O15684   9.325   1.257   8.110 -0.4652 -0.8137 -0.4700
  117MOL0     C15685   9.453   1.232   8.063 -0.8183  0.5947  0.3741
  117MOL0     C15686   9.569   1.304   8.108  0.1342 -0.0937 -0.0243
  117MOL0     C15687   9.695   1.280   8.046 -0.2074  0.9937 -0.3103
  117MOL0     C15688   9.708   1.178   7.943 -0.8363  0.3406  0.1299
  117MOL0     C15689   9.842   1.148   7.888 -0.1990  0.3046  0.0199
  117MOL0     O15690   9.949   1.213   7.948  0.4141  0.2673  0.2800
  117MOL0     C15691  10.071   1.206   7.889 -0.1741 -0.1867  0.0627
  117MOL0     C15692  10.089   1.185   7.742 -0.6412 -0.2087  0.5448
  117MOL0     C15693  10.216   1.193   7.692 -0.4656 -0.1493 -0.3725
  117MOL0     C15694  10.333   1.213   7.769  0.6637  1.3384 -0.0613
  117MOL0     O15695  10.455   1.203   7.709 -0.7552 -0.2203  0.1984
  117MOL0     C15696  10.559   1.140   7.791 -0.3090  0.3456  0.2558
  117MOL0     C15697  10.689   1.107   7.708  0.3671 -0.0317  0.3243
  117MOL0     C15698  10.804   1.107   7.808 -0.5041 -0.3254 -0.3637
  117MOL0     C15699  10.938   1.102   7.730 -0.0630  0.1064  0.2115
  117MOL0     C15700  11.059   1.058   7.815  1.0337 -0.6674  1.0413
  117MOL0     C15701  11.177   1.033   7.715 -0.0300 -0.4008 -0.6725
  117MOL0     C15702  11.301   0.982   7.792 -0.9535  0.7846  0.4079
  117MOL0     C15703  11.385   1.103   7.839 -0.2349  1.0641  0.1792
  117MOL0    Cl15704  11.531   1.028   7.917  0.3839 -0.3241 -0.5416
  117MOL0     C15705  10.311   1.226   7.905  0.4651 -0.3505 -0.3060
  117MOL0     C15706  10.186   1.229   7.965 -0.2296 -0.5005 -0.2222
  117MOL0     O15707   9.843   1.051   7.804 -0.3016  0.1322  0.7009
  117MOL0     C15708   9.593   1.110   7.898 -0.1094 -0.4104  0.9036
  117MOL0     C15709   9.469   1.140   7.960 -0.5666  0.2343  0.1918
  117MOL0     N15710   8.773   1.361   8.201  0.1305 -0.8771 -0.2874
  117MOL0     N15711   8.660   1.302   8.175  0.7668  0.6804  0.0693
  117MOL0     C15712   7.940   0.491   8.382  0.5015 -0.4650  0.3589
  117MOL0     C15713   7.867   0.377   8.359 -0.7702 -0.1617 -0.3382
  117MOL0     C15714   7.512   0.092   8.447  0.1259 -0.7069  0.4206
  117MOL0     C15715   7.565  -0.040   8.412  0.3417  0.0964  0.8353
  117MOL0     C15716   7.479  -0.148   8.394  0.4864 -0.5034  0.6048
  117MOL0     C15717   7.336  -0.124   8.417 -0.1417 -0.1084  0.1827
  117MOL0     O15718   7.254  -0.228   8.393  0.6229 -0.7860 -0.5469
  117MOL0     C15719   7.297  -0.360   8.389 -0.2352 -0.7405 -0.0202
  117MOL0     C15720   7.189  -0.471   8.422 -0.4376 -0.6049  0.3597
  117MOL0     C15721   7.113  -0.461   8.561 -0.2603 -0.2793  1.2395
  117MOL0     C15722   7.028  -0.340   8.595 -1.1879  0.5584 -0.1715
  117MOL0     C15723   6.928  -0.332   8.483  0.1632 -0.4401 -0.9132
  117MOL0     C15724   6.850  -0.326   8.391  0.0948 -0.4887 -1.2702
  117MOL0     C15725   7.288  -0.010   8.469  0.0863 -0.4975 -0.1705
  117MOL0     C15726   7.373   0.101   8.481 -0.4125 -0.8094  0.1803
  117MOL0     C15727   7.307   0.230   8.523 -0.1518 -0.1757 -0.0599
  117MOL0     H15728   7.833   0.284   8.679 -0.3808  1.3875 -0.1213
  117MOL0     H15729   8.001   0.472   8.705  0.7398  0.9246 -0.9744
  117MOL0     H15730   7.923   0.765   8.421 -0.0840  0.2545 -2.8764
  117MOL0     H15731   8.058   0.853   8.502  1.2203 -0.1140 -0.0632
  117MOL0     H15732   8.142   0.676   8.286 -1.9964 -0.7941  2.7922
  117MOL0     H15733   8.210   0.814   8.368  0.1123 -0.6993  0.8704
  117MOL0     H15734   8.011   0.953   8.237 -3.4086 -1.4986 -0.7149
  117MOL0     H15735   7.978   0.796   8.164  0.4232 -0.8755 -0.4974
  117MOL0     H15736   8.198   0.774   8.061 -0.9897  0.2011  2.7029
  117MOL0     H15737   8.105   0.913   7.998  0.7288  0.1598  0.3731
  117MOL0     H15738   8.212   1.063   8.145  0.6909 -0.1971 -1.0939
  117MOL0     H15739   8.315   0.931   8.212 -0.6943 -1.7501  0.0876
  117MOL0     H15740   8.427   0.906   8.010 -1.3778 -1.2649 -0.8037
  117MOL0     H15741   8.335   1.024   7.917 -0.8154 -0.4370  0.0490
  117MOL0     H15742   8.410   1.205   8.103 -0.3194 -0.4942  0.8467
  117MOL0     H15743   8.517   1.157   7.981 -0.5267 -0.1846 -0.8590
  117MOL0     H15744   8.529   1.019   8.261 -1.0951  0.0387  0.0991
  117MOL0     H15745   8.619   0.974   8.124  0.5660 -2.0752  2.2148
  117MOL0     H15746   8.821   1.048   8.299  0.7318  1.0959  2.9756
  117MOL0     H15747   8.998   1.316   8.398 -0.5705  0.1639  0.0712
  117MOL0     H15748   9.045   1.184   8.290  1.5756  0.3458  3.1183
  117MOL0     H15749   9.057   1.338   8.102  0.7441 -1.1559  0.1197
  117MOL0     H15750   9.017   1.479   8.190  1.8018  0.6281  1.2260
  117MOL0     H15751   9.216   1.474   8.337  1.7155  2.2635 -0.9986
  117MOL0     H15752   9.242   1.481   8.158  2.5683 -0.2156  1.0098
  117MOL0     H15753   9.274   1.212   8.305  1.1930 -0.8532 -1.3553
  117MOL0     H15754   9.391   1.330   8.300 -2.5383  0.8863  3.3480
  117MOL0     H15755   9.566   1.370   8.194 -0.3651 -2.3378  1.8010
  117MOL0     H15756   9.783   1.332   8.081  0.0184  0.4565 -0.0743
  117MOL0     H15757  10.008   1.184   7.670 -1.7442  3.5480  1.5250
  117MOL0     H15758  10.231   1.186   7.584  0.2352  1.6979 -0.4246
  117MOL0     H15759  10.579   1.209   7.874 -2.6729 -0.4817  1.6169
  117MOL0     H15760  10.525   1.044   7.832  0.4306 -0.5009 -1.0512
  117MOL0     H15761  10.665   1.014   7.656 -1.8974  0.4404  0.4202
  117MOL0     H15762  10.706   1.187   7.635 -0.1677 -0.4111 -0.2196
  117MOL0     H15763  10.821   1.193   7.874  1.7909 -0.8086 -0.2357
  117MOL0     H15764  10.802   1.016   7.868  0.4861 -0.1630 -0.0492
  117MOL0     H15765  10.969   1.200   7.694  0.6375  0.3338  1.3869
  117MOL0     H15766  10.928   1.048   7.635  0.2947  1.9354 -0.9044
  117MOL0     H15767  11.029   0.972   7.876 -2.3156 -0.9334 -0.7379
  117MOL0     H15768  11.088   1.141   7.881  0.7918  1.3242 -1.2210
  117MOL0     H15769  11.155   0.959   7.637  1.3542 -0.9456 -0.5864
  117MOL0     H15770  11.210   1.125   7.664 -0.1067 -0.1862 -0.3349
  117MOL0     H15771  11.350   0.914   7.722  0.0875  3.5321 -1.7686
  117MOL0     H15772  11.280   0.927   7.884 -0.7925  1.3024  0.7574
  117MOL0     H15773  11.424   1.157   7.753  0.3861 -1.6394 -1.3496
  117MOL0     H15774  11.325   1.162   7.910  1.1908  0.8698  1.6082
  117MOL0     H15775  10.401   1.236   7.965 -0.1199 -1.4589  0.7851
  117MOL0     H15776  10.188   1.238   8.073 -0.1635 -1.2751 -0.1482
  117MOL0     H15777   9.595   1.040   7.816 -2.2306  0.1156  0.3424
  117MOL0     H15778   9.379   1.093   7.923  0.4471 -0.9888 -0.7943
  117MOL0     H15779   7.966   0.543   8.290 -0.1782 -0.1052  0.3609
  117MOL0     H15780   7.852   0.347   8.255 -3.0831 -0.3835  0.0095
  117MOL0     H15781   7.669  -0.052   8.386  0.2763  0.4118  0.4082
  117MOL0     H15782   7.524  -0.233   8.344  0.7983  1.3330 -2.4638
  117MOL0     H15783   7.368  -0.362   8.472  0.4973  0.4893 -0.5789
  117MOL0     H15784   7.358  -0.382   8.301 -0.4115 -0.5923 -0.1803
  117MOL0     H15785   7.242  -0.566   8.416  1.4629  0.3932  0.5260
  117MOL0     H15786   7.109  -0.487   8.349  0.4765 -0.4936 -0.7007
  117MOL0     H15787   7.183  -0.489   8.640  1.1162  0.9762  0.5075
  117MOL0     H15788   7.030  -0.533   8.556 -0.0811 -0.4117 -0.6241
  117MOL0     H15789   6.980  -0.349   8.693  0.1890 -0.4476  0.4474
  117MOL0     H15790   7.101  -0.259   8.601  0.8642 -1.1555 -0.4014
  117MOL0     H15791   6.789  -0.305   8.305  1.9524  1.4991 -2.2063
  117MOL0     H15792   7.185  -0.010   8.502  0.9489 -0.6271  2.7275
  117MOL0     H15793   7.369   0.286   8.593 -1.9816 -0.3908  1.8367
  117MOL0     H15794   7.257   0.287   8.444  0.2549  2.7793  1.6859
  117MOL0     H15795   7.233   0.200   8.598 -1.8200  0.3818 -1.3896
  118MOL0     O15796   8.959   2.921  11.275  0.2760 -0.5866  0.4315
  118MOL0     C15797   8.940   2.802  11.256  0.6381  0.2093  0.4525
  118MOL0     O15798   9.040   2.717  11.252 -0.3841  0.4729  0.7824
  118MOL0     C15799   9.164   2.773  11.257 -0.2180  0.4121 -0.8680
  118MOL0     C15800   9.210   2.848  11.149  0.3510 -0.1796 -0.2889
  118MOL0     C15801   9.334   2.914  11.160 -1.4347 -0.3283 -0.3776
  118MOL0     C15802   9.401   2.911  11.283  0.0369  0.6859 -0.3072
  118MOL0     O15803   9.513   2.982  11.301  0.1283  0.4801  0.4594
  118MOL0     C15804   9.621   2.951  11.208 -0.2147 -1.0414 -0.7668
  118MOL0     C15805   9.752   2.968  11.283 -0.1665 -0.0645 -0.0688
  118MOL0     C15806   9.872   2.960  11.189 -0.2335  0.6916  0.1563
  118MOL0     C15807   9.877   3.078  11.103 -0.3861 -0.5601  0.2328
  118MOL0     C15808  10.014   3.125  11.052 -0.0371  0.0132  0.3959
  118MOL0     C15809  10.120   3.164  11.160  0.0095  0.1618  0.3522
  118MOL0     C15810  10.231   3.257  11.112 -0.4430  0.5789  0.7031
  118MOL0     C15811  10.335   3.298  11.218  0.3007 -0.1076 -0.1841
  118MOL0     N15812  10.421   3.397  11.167 -0.1161  0.0530  0.7291
  118MOL0     C15813  10.513   3.373  11.062  0.9824  0.5441 -0.7442
  118MOL0     C15814  10.578   3.496  11.044  0.2563 -0.1467 -0.3696
  118MOL0     C15815  10.673   3.534  10.943 -0.2012 -0.9469  0.0025
  118MOL0     C15816  10.789   3.436  10.919 -0.8352  0.0205 -0.9769
  118MOL0     C15817  10.888   3.442  11.040  0.2308 -0.5454 -0.1969
  118MOL0     C15818  10.994   3.331  11.014 -0.2592 -0.3752 -0.0006
  118MOL0     O15819  11.062   3.348  10.895 -0.0375 -0.2422  0.1950
  118MOL0     C15820  11.180   3.276  10.893  0.1547 -0.2810  0.8482
  118MOL0     C15821  11.298   3.312  10.950  0.3898 -0.2217  1.1957
  118MOL0     C15822  11.410   3.236  10.923 -0.6587 -0.4276  0.2101
  118MOL0     C15823  11.412   3.119  10.841  0.3584  0.4033  0.3616
  118MOL0     C15824  11.536   3.039  10.822 -0.1706  0.0563 -0.8156
  118MOL0     O15825  11.645   3.083  10.881 -0.8184  0.3799 -0.4419
  118MOL0     C15826  11.773   3.078  10.844 -0.0190  0.3356  0.5137
  118MOL0     C15827  11.822   3.013  10.730 -0.0698  0.1669 -0.8027
  118MOL0     C15828  11.961   3.034  10.695  0.3874  0.4272  1.1745
  118MOL0     C15829  12.051   3.108  10.775 -0.1920  0.5946  0.8910
  118MOL0     O15830  12.184   3.120  10.755 -0.1335  0.6154  0.6359
  118MOL0     C15831  12.263   3.093  10.632  0.2729  0.3420  0.9132
  118MOL0     C15832  12.420   3.100  10.649 -0.3329  0.1864 -1.0487
  118MOL0     C15833  12.470   2.998  10.754 -0.2200  0.0300  0.6157
  118MOL0     C15834  12.622   2.972  10.757  0.0237  0.6884 -0.6433
  118MOL0     C15835  12.675   2.872  10.862 -0.2325  0.3128  0.1099
  118MOL0     C15836  12.823   2.840  10.857  0.5259 -1.4192  0.2417
  118MOL0     C15837  12.868   2.766  10.730 -0.3928 -0.4326 -0.1416
  118MOL0     C15838  13.020   2.743  10.725  0.5416 -0.2462 -0.5388
  118MOL0    Cl15839  13.077   2.637  10.854  0.5499  0.0643 -0.1511
  118MOL0     C15840  12.001   3.165  10.891  0.0057 -0.2562  0.0363
  118MOL0     C15841  11.868   3.145  10.930  0.0060 -0.3785 -0.8358
  118MOL0     O15842  11.530   2.935  10.752  0.2870  0.4256  0.5683
  118MOL0     C15843  11.294   3.089  10.778 -0.8672  0.3718  0.1394
  118MOL0     C15844  11.184   3.173  10.807  0.5720 -0.6475  0.7466
  118MOL0     N15845  10.512   3.590  11.136 -0.1242  0.5581 -0.0973
  118MOL0     N15846  10.428   3.530  11.207  0.3749  0.5939 -0.1310
  118MOL0     C15847   9.356   2.841  11.392  0.5654 -0.3168  0.6064
  118MOL0     C15848   9.236   2.771  11.384 -0.0909  0.2800  0.4635
  118MOL0     C15849   8.806   2.738  11.257 -0.2218  0.2230  0.1417
  118MOL0     C15850   8.800   2.598  11.286  0.4860  0.2651  0.5944
  118MOL0     C15851   8.679   2.530  11.289 -0.1541  0.0793 -0.1732
  118MOL0     C15852   8.559   2.597  11.273  0.5613 -0.9733  0.0320
  118MOL0     O15853   8.437   2.537  11.275  0.0929  0.0334  0.4039
  118MOL0     C15854   8.362   2.555  11.399  0.5836 -0.3915  0.9012
  118MOL0     C15855   8.211   2.545  11.369 -1.0712  1.1237  0.3441
  118MOL0     C15856   8.132   2.512  11.493 -0.2642 -0.3629  0.1155
  118MOL0     C15857   7.985   2.494  11.462  0.0455  0.3646 -0.3567
  118MOL0     C15858   7.922   2.427  11.573 -0.8319 -0.0774 -0.0122
  118MOL0     C15859   7.884   2.378  11.679 -0.1588 -0.2581  0.3232
  118MOL0     C15860   8.562   2.732  11.252 -0.0244 -0.0771  1.2507
  118MOL0     C15861   8.681   2.805  11.238  0.8826 -0.1731  0.2158
  118MOL0     C15862   8.664   2.949  11.192  0.0318  0.0417 -0.2594
  118MOL0     H15863   9.154   2.868  11.059  1.6201  1.0292 -0.8482
  118MOL0     H15864   9.369   2.984  11.086 -0.8360 -0.1788  0.0416
  118MOL0     H15865   9.627   2.849  11.169  0.4215 -1.1105 -0.5029
  118MOL0     H15866   9.615   3.028  11.131  0.5316 -2.1474 -1.9758
  118MOL0     H15867   9.753   2.887  11.356 -1.3430  1.7207  2.0373
  118MOL0     H15868   9.768   3.063  11.335  0.0789 -0.4408  0.5546
  118MOL0     H15869   9.864   2.864  11.137  2.4763 -0.2584  1.3148
  118MOL0     H15870   9.960   2.955  11.255  0.2316 -1.9561 -0.5549
  118MOL0     H15871   9.818   3.064  11.012  0.4014  1.0706 -0.5615
  118MOL0     H15872   9.817   3.161  11.140 -0.7342  0.7290 -2.9038
  118MOL0     H15873  10.060   3.050  10.987  1.3245  0.6732  0.5758
  118MOL0     H15874   9.997   3.216  10.994  2.4453  0.7743  0.7313
  118MOL0     H15875  10.065   3.218  11.238 -0.8423  2.0348 -1.4744
  118MOL0     H15876  10.170   3.078  11.207  2.5790  2.0699  1.3876
  118MOL0     H15877  10.181   3.345  11.071 -3.7002 -2.0317 -1.4346
  118MOL0     H15878  10.284   3.207  11.030 -0.8664 -0.7672  1.2300
  118MOL0     H15879  10.281   3.339  11.304  0.7222 -1.7230  0.8918
  118MOL0     H15880  10.401   3.214  11.241  2.0801  0.9259 -1.2820
  118MOL0     H15881  10.538   3.280  11.012  1.5166  0.2727  0.0004
  118MOL0     H15882  10.626   3.554  10.846  0.9643  4.5049  0.2302
  118MOL0     H15883  10.733   3.620  10.973  1.3682 -2.0902  0.2944
  118MOL0     H15884  10.763   3.332  10.901  6.1210 -2.3656 -0.1758
  118MOL0     H15885  10.847   3.454  10.827  0.4378  1.2914  0.0247
  118MOL0     H15886  10.829   3.418  11.129 -1.7299  1.6416 -0.8244
  118MOL0     H15887  10.928   3.543  11.048 -0.4872 -0.1931 -0.9450
  118MOL0     H15888  10.951   3.231  11.005  0.7911 -0.7708 -0.8056
  118MOL0     H15889  11.063   3.321  11.098 -0.3201  0.6091  0.1784
  118MOL0     H15890  11.285   3.385  11.028  0.5703  5.5008 -3.4516
  118MOL0     H15891  11.504   3.254  10.974  0.0705  0.5598 -1.3846
  118MOL0     H15892  11.742   2.956  10.683 -0.3248 -0.4912  0.3970
  118MOL0     H15893  11.982   2.984  10.602 -2.6222  1.2571 -0.0744
  118MOL0     H15894  12.233   2.994  10.596  0.0237  0.6081  0.3813
  118MOL0     H15895  12.231   3.163  10.555 -0.4600  0.4540  1.3048
  118MOL0     H15896  12.467   3.072  10.555 -0.1419 -0.1374 -0.8601
  118MOL0     H15897  12.442   3.204  10.675 -1.3747  0.1112  0.2724
  118MOL0     H15898  12.431   3.041  10.847 -2.1009  1.0766 -0.5968
  118MOL0     H15899  12.419   2.901  10.753 -0.3466 -0.0212  3.3722
  118MOL0     H15900  12.670   3.068  10.782 -0.0920  1.1662 -2.1639
  118MOL0     H15901  12.652   2.938  10.657 -2.8276  0.2806 -1.4376
  118MOL0     H15902  12.613   2.783  10.845 -1.7319  1.4208 -0.3971
  118MOL0     H15903  12.645   2.905  10.962 -2.8648  0.1553 -0.5448
  118MOL0     H15904  12.879   2.933  10.869  0.1817 -1.0779 -0.7248
  118MOL0     H15905  12.858   2.787  10.947 -0.1862  2.5819  3.1507
  118MOL0     H15906  12.849   2.826  10.640  2.4157  2.0209  0.7433
  118MOL0     H15907  12.816   2.670  10.725 -1.4593  0.1933 -1.6621
  118MOL0     H15908  13.064   2.703  10.632  3.8595 -2.6734  1.8176
  118MOL0     H15909  13.071   2.838  10.743  0.3244  0.6936 -4.1200
  118MOL0     H15910  12.071   3.216  10.955 -1.1613  0.8958  0.4461
  118MOL0     H15911  11.822   3.186  11.020 -1.1302 -0.8980 -1.1531
  118MOL0     H15912  11.282   3.005  10.711  2.5550 -0.8192  0.8029
  118MOL0     H15913  11.087   3.153  10.762 -2.1721  1.7064  5.0438
  118MOL0     H15914   9.425   2.851  11.475  0.6440  1.4065  0.3788
  118MOL0     H15915   9.195   2.713  11.466  0.9984  0.3313  1.0619
  118MOL0     H15916   8.890   2.539  11.302  0.2591 -1.2609 -2.8114
  118MOL0     H15917   8.679   2.428  11.326  0.5726  0.5588  1.2346
  118MOL0     H15918   8.388   2.654  11.438 -0.0216  0.2477 -0.2652
  118MOL0     H15919   8.390   2.475  11.468  0.6597 -1.8351 -0.7481
  118MOL0     H15920   8.196   2.467  11.294  2.5180 -1.1419  1.7104
  118MOL0     H15921   8.175   2.639  11.326  0.7755  0.6967 -2.4024
  118MOL0     H15922   8.142   2.591  11.568  2.7943 -0.7944  0.2799
  118MOL0     H15923   8.178   2.423  11.536 -1.5849 -1.6829 -1.0441
  118MOL0     H15924   7.929   2.584  11.436 -3.2453 -1.4398 -0.0600
  118MOL0     H15925   7.963   2.434  11.374 -3.9795  0.6588  0.2761
  118MOL0     H15926   7.851   2.324  11.765 -2.9692 -1.2188 -1.2254
  118MOL0     H15927   8.467   2.783  11.244 -0.5600 -1.2989 -1.3546
  118MOL0     H15928   8.757   2.991  11.153  1.2200  0.0312  2.3174
  118MOL0     H15929   8.594   2.940  11.109 -0.0481 -1.0725 -0.0937
  118MOL0     H15930   8.625   3.005  11.277 -0.3030 -2.4037  1.3079
  119MOL0     O15931   0.380   1.560   5.719 -0.3302 -0.1071  0.1598
  119MOL0     C15932   0.417   1.481   5.636  0.1794  0.0843  0.2576
  119MOL0     O15933   0.336   1.408   5.545  0.0299  0.8925  0.2846
  119MOL0     C15934   0.203   1.428   5.544 -0.3172 -0.0825  0.5766
  119MOL0     C15935   0.132   1.450   5.423  0.0862  0.5957  1.2739
  119MOL0     C15936  -0.008   1.432   5.415  0.3212  0.0265 -0.2779
  119MOL0     C15937  -0.085   1.423   5.532 -0.8464 -0.2813 -0.5184
  119MOL0     O15938  -0.221   1.426   5.529  0.0159  0.1618 -0.1903
  119MOL0     C15939  -0.287   1.522   5.447  1.1371 -0.3899  0.4271
  119MOL0     C15940  -0.432   1.479   5.439  0.7161 -0.5054  0.2790
  119MOL0     C15941  -0.488   1.438   5.574 -0.2833 -0.0934  0.2500
  119MOL0     C15942  -0.642   1.419   5.560  0.9614  0.2023 -0.2992
  119MOL0     C15943  -0.695   1.380   5.695 -0.1729 -0.1314 -0.0600
  119MOL0     C15944  -0.670   1.474   5.813 -0.6312  0.1180  0.6338
  119MOL0     C15945  -0.717   1.623   5.795  0.2076 -0.1014  0.3867
  119MOL0     C15946  -0.721   1.699   5.926  0.0358 -0.9609 -0.3350
  119MOL0     N15947  -0.829   1.661   6.012 -0.1976 -0.2772 -0.6594
  119MOL0     C15948  -0.959   1.660   5.982 -0.8869 -0.4722  1.1092
  119MOL0     C15949  -1.024   1.599   6.080 -0.0398  0.5701 -0.9389
  119MOL0     C15950  -1.175   1.614   6.087 -0.3368  0.7005 -0.3763
  119MOL0     C15951  -1.252   1.485   6.118  0.1350  0.7721  1.1789
  119MOL0     C15952  -1.243   1.408   5.990 -0.2036 -0.1814 -0.7180
  119MOL0     C15953  -1.302   1.271   6.018 -0.7856 -0.8270 -0.3984
  119MOL0     O15954  -1.317   1.198   5.896  0.9756 -1.0184 -0.8096
  119MOL0     C15955  -1.220   1.152   5.816 -0.3966  0.0992  0.5236
  119MOL0     C15956  -1.238   1.117   5.685  0.1181  0.2305  0.4303
  119MOL0     C15957  -1.131   1.076   5.602  0.4054  0.3432  0.6878
  119MOL0     C15958  -1.001   1.067   5.652 -0.3183 -0.0555  0.8245
  119MOL0     C15959  -0.887   1.026   5.563  0.0423  0.1833 -0.3594
  119MOL0     O15960  -0.916   0.976   5.439 -0.1224  0.7276 -0.1215
  119MOL0     C15961  -0.816   0.929   5.368 -0.8517  0.2398 -0.2847
  119MOL0     C15962  -0.773   0.801   5.388  0.7313  0.2647  0.0778
  119MOL0     C15963  -0.672   0.744   5.319  0.5361 -0.0691 -0.8239
  119MOL0     C15964  -0.605   0.817   5.216 -0.1054 -0.0604  0.7195
  119MOL0     O15965  -0.503   0.754   5.143 -0.4140  0.1186 -0.1452
  119MOL0     C15966  -0.441   0.825   5.038  0.6810  0.1392  0.0197
  119MOL0     C15967  -0.336   0.746   4.967  0.6106  0.3784  0.4826
  119MOL0     C15968  -0.215   0.716   5.058  0.8316  0.1255 -0.5526
  119MOL0     C15969  -0.096   0.662   4.981 -0.0106  0.6672  0.0587
  119MOL0     C15970   0.010   0.622   5.083  0.0021  0.1304  0.5292
  119MOL0     C15971   0.139   0.569   5.006 -0.1595 -0.8642  0.3069
  119MOL0     C15972   0.125   0.447   4.912 -0.3752 -0.3991 -0.8859
  119MOL0     C15973   0.120   0.322   5.002 -0.1979  0.5452 -0.0769
  119MOL0    Cl15974   0.173   0.165   4.913 -0.2705 -0.2105 -0.0419
  119MOL0     C15975  -0.649   0.951   5.188  0.3481 -0.1517  0.6291
  119MOL0     C15976  -0.744   1.005   5.269  0.2648  1.3920 -0.2407
  119MOL0     O15977  -0.780   1.060   5.607 -0.4570  0.3999  0.0870
  119MOL0     C15978  -0.982   1.111   5.789  0.0225 -0.5550  0.4391
  119MOL0     C15979  -1.091   1.137   5.866 -0.6573  0.0875  0.5263
  119MOL0     N15980  -0.936   1.573   6.186  0.1047 -0.4155  0.6561
  119MOL0     N15981  -0.821   1.597   6.136 -0.0670 -0.0101 -0.0204
  119MOL0     C15982  -0.020   1.411   5.654  0.3126  0.7748 -0.1946
  119MOL0     C15983   0.120   1.406   5.660 -0.0199 -0.1344 -0.3677
  119MOL0     C15984   0.562   1.475   5.603 -0.4589  0.4493 -0.2172
  119MOL0     C15985   0.638   1.594   5.619 -0.6166  0.1935 -0.8043
  119MOL0     C15986   0.771   1.595   5.596  0.0175 -0.5903  0.2002
  119MOL0     C15987   0.842   1.488   5.547  0.1842 -0.2958 -0.6294
  119MOL0     O15988   0.971   1.508   5.548  0.2242 -0.8773 -0.4937
  119MOL0     C15989   1.062   1.392   5.531  0.3954 -0.2995  0.1762
  119MOL0     C15990   1.202   1.444   5.508  0.6227  0.2652  0.2907
  119MOL0     C15991   1.298   1.325   5.508 -1.5607  0.0914  0.2134
  119MOL0     C15992   1.445   1.363   5.496 -0.0121  0.6108  0.5615
  119MOL0     C15993   1.530   1.250   5.460 -0.0433  0.0939  0.1493
  119MOL0     C15994   1.607   1.157   5.445 -0.9134  0.5186 -0.0103
  119MOL0     C15995   0.770   1.372   5.529 -0.6214 -0.7215 -0.4699
  119MOL0     C15996   0.636   1.354   5.556  0.2648 -0.0391  0.2032
  119MOL0     C15997   0.569   1.224   5.530 -0.9682 -0.4971  0.3085
  119MOL0     H15998   0.190   1.477   5.336 -1.3168 -0.7709 -0.1515
  119MOL0     H15999  -0.052   1.431   5.316  0.5707 -0.4669 -0.3893
  119MOL0     H16000  -0.266   1.623   5.483  0.2998 -0.9012  2.4783
  119MOL0     H16001  -0.251   1.522   5.343 -0.5212  1.9974 -0.2398
  119MOL0     H16002  -0.434   1.404   5.360  3.0592 -0.8720  0.4983
  119MOL0     H16003  -0.492   1.559   5.396 -2.3994 -2.2839  1.0565
  119MOL0     H16004  -0.464   1.513   5.649 -1.5684 -0.6104  1.2254
  119MOL0     H16005  -0.448   1.345   5.615 -0.2054 -1.5179 -2.7469
  119MOL0     H16006  -0.685   1.507   5.512  3.2448  0.9253 -1.1817
  119MOL0     H16007  -0.657   1.326   5.505 -0.0839 -0.5116  1.1305
  119MOL0     H16008  -0.801   1.356   5.683  0.3441 -2.7770  0.0944
  119MOL0     H16009  -0.648   1.284   5.716  1.1050  0.5254  0.1592
  119MOL0     H16010  -0.723   1.440   5.902 -1.7346 -0.2634 -0.1418
  119MOL0     H16011  -0.562   1.465   5.829 -0.7352 -0.9855  0.8061
  119MOL0     H16012  -0.816   1.637   5.750  1.0682  1.6141 -1.1460
  119MOL0     H16013  -0.641   1.662   5.726 -2.1016 -0.8885 -2.8825
  119MOL0     H16014  -0.627   1.695   5.982 -0.8817  0.3483  1.3800
  119MOL0     H16015  -0.733   1.803   5.897 -1.1330 -1.3435 -1.3151
  119MOL0     H16016  -0.995   1.720   5.899  1.4622  3.0454  2.3946
  119MOL0     H16017  -1.185   1.673   6.179 -2.5988 -0.8473  0.4980
  119MOL0     H16018  -1.214   1.648   5.991  0.6194 -3.9811 -2.6982
  119MOL0     H16019  -1.217   1.426   6.203 -0.3175 -1.8469 -0.3633
  119MOL0     H16020  -1.352   1.523   6.142  0.4191  0.2096  3.4462
  119MOL0     H16021  -1.139   1.393   5.960  0.9811  0.2359  2.7596
  119MOL0     H16022  -1.304   1.456   5.913  0.3519 -1.4799 -2.0200
  119MOL0     H16023  -1.402   1.280   6.061  0.0918 -0.3775  1.6615
  119MOL0     H16024  -1.243   1.215   6.091 -0.6562 -1.4469 -0.9692
  119MOL0     H16025  -1.340   1.118   5.646  0.0472 -4.4897 -0.0356
  119MOL0     H16026  -1.149   1.046   5.499 -0.6607  2.5102  0.1606
  119MOL0     H16027  -0.815   0.738   5.466 -0.7225 -1.4611 -1.9864
  119MOL0     H16028  -0.630   0.647   5.343 -0.6860 -0.6578 -1.0164
  119MOL0     H16029  -0.511   0.850   4.958 -0.1047  0.3461  0.7603
  119MOL0     H16030  -0.390   0.916   5.071 -0.5902  1.0121 -0.3292
  119MOL0     H16031  -0.372   0.649   4.934 -1.0991  0.9211  0.6648
  119MOL0     H16032  -0.308   0.799   4.875  1.7016 -1.3390 -0.2138
  119MOL0     H16033  -0.190   0.811   5.107 -1.1199  1.3941 -1.8544
  119MOL0     H16034  -0.243   0.657   5.145 -3.0950  1.3254 -0.7829
  119MOL0     H16035  -0.053   0.729   4.907  0.8144  0.1432  0.0429
  119MOL0     H16036  -0.130   0.570   4.932 -2.6024 -0.0821  2.9452
  119MOL0     H16037  -0.023   0.544   5.151  0.6600  0.3227  1.0848
  119MOL0     H16038   0.040   0.706   5.146  2.2358 -0.9794  1.0493
  119MOL0     H16039   0.168   0.648   4.935 -2.4710  0.4859  0.7651
  119MOL0     H16040   0.217   0.549   5.080 -1.9536 -1.0032  2.2385
  119MOL0     H16041   0.206   0.440   4.838  0.4288  2.4477 -0.3814
  119MOL0     H16042   0.032   0.455   4.855 -2.6935  0.8671  2.7127
  119MOL0     H16043   0.184   0.334   5.090  0.7932 -1.7610 -0.3916
  119MOL0     H16044   0.019   0.321   5.044 -0.5603  1.6079 -0.8814
  119MOL0     H16045  -0.616   1.021   5.113  2.7917 -0.3396  1.4366
  119MOL0     H16046  -0.777   1.106   5.247 -0.7398  0.8756 -1.1850
  119MOL0     H16047  -0.880   1.099   5.823  0.0227 -1.1384  0.2499
  119MOL0     H16048  -1.059   1.155   5.968  1.3812  2.4347 -0.4168
  119MOL0     H16049  -0.079   1.389   5.743 -2.1298 -0.7899 -2.0762
  119MOL0     H16050   0.171   1.380   5.752 -1.2730 -2.1350 -0.1676
  119MOL0     H16051   0.587   1.685   5.649 -1.3658 -0.5374  0.2491
  119MOL0     H16052   0.823   1.689   5.615  1.1616 -1.0535 -0.5401
  119MOL0     H16053   1.028   1.331   5.446  2.4412  0.2043 -1.0666
  119MOL0     H16054   1.064   1.325   5.618 -2.4805 -0.0225  0.5601
  119MOL0     H16055   1.219   1.506   5.597 -2.0537  0.6085  0.6439
  119MOL0     H16056   1.207   1.499   5.414 -2.4003  2.1630  1.0868
  119MOL0     H16057   1.279   1.271   5.415  4.4774 -3.1805  0.4013
  119MOL0     H16058   1.279   1.254   5.589 -4.6049  2.3909  1.7192
  119MOL0     H16059   1.453   1.436   5.415  1.1946  0.3147  0.3957
  119MOL0     H16060   1.494   1.404   5.585 -1.7589  3.1438  0.4637
  119MOL0     H16061   1.676   1.078   5.464 -2.4868 -0.9332 -0.1073
  119MOL0     H16062   0.817   1.281   5.493  2.5356 -0.3304  2.2454
  119MOL0     H16063   0.559   1.208   5.422  3.0120 -2.3826  0.0590
  119MOL0     H16064   0.622   1.134   5.564 -1.3606 -1.0566 -0.5359
  119MOL0     H16065   0.468   1.221   5.573 -2.7168  4.0630 -2.7005
  120MOL0     O16066   2.056   2.395   8.979 -0.1900 -0.7994  0.0997
  120MOL0     C16067   2.084   2.323   8.889 -0.0939  0.0843 -1.1542
  120MOL0     O16068   2.208   2.310   8.832 -0.4503  0.0390  0.0652
  120MOL0     C16069   2.305   2.406   8.853 -0.0777  0.5005  0.9842
  120MOL0     C16070   2.365   2.471   8.744 -0.0816  0.3993  0.4808
  120MOL0     C16071   2.474   2.557   8.756  0.9370  0.0479 -0.4504
  120MOL0     C16072   2.533   2.571   8.883 -0.0374 -0.2601  0.8549
  120MOL0     O16073   2.628   2.670   8.911  0.6848 -0.2920  0.3256
  120MOL0     C16074   2.750   2.659   8.833  0.6892  0.2489  0.8474
  120MOL0     C16075   2.866   2.699   8.916 -0.4137 -0.4468 -1.0363
  120MOL0     C16076   2.997   2.662   8.855 -0.1377  0.7098  0.7251
  120MOL0     C16077   3.118   2.686   8.938 -0.2957  0.1306  0.0742
  120MOL0     C16078   3.248   2.650   8.855  0.1009 -0.2177 -0.3035
  120MOL0     C16079   3.376   2.694   8.931 -0.6799 -1.0757  0.0436
  120MOL0     C16080   3.391   2.855   8.903 -0.0183  0.8894 -0.2309
  120MOL0     C16081   3.532   2.896   8.941 -0.1243 -0.4118 -0.5093
  120MOL0     N16082   3.635   2.842   8.851 -0.2965  0.5635  0.0691
  120MOL0     C16083   3.649   2.847   8.715  0.0330 -0.5168  0.0655
  120MOL0     C16084   3.771   2.800   8.692 -0.1157  0.7334 -0.1269
  120MOL0     C16085   3.839   2.773   8.567  0.2315  0.3682 -0.0048
  120MOL0     C16086   3.946   2.875   8.538 -0.2806  0.2575 -0.3672
  120MOL0     C16087   4.025   2.832   8.407 -0.5794  0.0442  0.4006
  120MOL0     C16088   4.118   2.930   8.342 -0.2003 -0.2458  0.0678
  120MOL0     O16089   4.147   2.883   8.207  0.1208  0.0983 -0.0868
  120MOL0     C16090   4.280   2.870   8.169 -0.1224  0.0044  0.0149
  120MOL0     C16091   4.306   2.794   8.053 -0.8301 -0.5472  0.3468
  120MOL0     C16092   4.430   2.794   7.990 -0.0763 -0.3697  0.0209
  120MOL0     C16093   4.534   2.867   8.048  0.1492 -0.2822 -0.1646
  120MOL0     C16094   4.661   2.877   7.981 -0.3068  0.2153 -0.8961
  120MOL0     O16095   4.741   2.973   8.031 -0.3079  1.1057  0.0681
  120MOL0     C16096   4.852   3.017   7.957 -0.2955 -0.0153  0.6362
  120MOL0     C16097   4.881   2.997   7.823 -0.1643 -0.2224 -0.3731
  120MOL0     C16098   5.003   3.033   7.771 -0.4134  0.2558  0.6520
  120MOL0     C16099   5.109   3.073   7.863  0.2610 -0.4148 -0.0284
  120MOL0     O16100   5.236   3.081   7.826 -1.0133  0.6851  0.0163
  120MOL0     C16101   5.266   3.153   7.699 -0.5742  0.0134 -0.5173
  120MOL0     C16102   5.415   3.201   7.690 -1.0543  0.4483  0.4089
  120MOL0     C16103   5.480   3.125   7.574  0.2238 -0.0280  0.6885
  120MOL0     C16104   5.622   3.165   7.556  0.2577 -0.6451 -0.1561
  120MOL0     C16105   5.717   3.053   7.518  0.2633  0.0806  0.4374
  120MOL0     C16106   5.837   3.129   7.466 -0.6662  0.4171  0.3491
  120MOL0     C16107   5.953   3.031   7.451 -0.1472 -0.5807 -0.0042
  120MOL0     C16108   5.922   2.943   7.330  0.4396 -0.1807 -0.0180
  120MOL0    Cl16109   5.939   3.036   7.173  0.1377  0.1054 -0.2014
  120MOL0     C16110   5.080   3.094   7.996  0.0470  0.0241 -0.4301
  120MOL0     C16111   4.947   3.075   8.040 -0.3001  0.1109  0.0638
  120MOL0     O16112   4.682   2.791   7.898  0.0493 -0.0380  0.5894
  120MOL0     C16113   4.516   2.926   8.174  0.3906 -0.3877 -0.5948
  120MOL0     C16114   4.388   2.942   8.222  0.1293  0.0708  0.0487
  120MOL0     N16115   3.835   2.758   8.810  0.0604 -1.0187 -0.0323
  120MOL0     N16116   3.745   2.786   8.903  0.1014  0.8371  0.3994
  120MOL0     C16117   2.480   2.506   8.986 -0.1254  1.1301 -0.8108
  120MOL0     C16118   2.364   2.422   8.975 -0.2390 -0.9267  0.1197
  120MOL0     C16119   1.970   2.263   8.813  0.2024 -0.3117 -0.2542
  120MOL0     C16120   1.992   2.227   8.677 -0.0551 -0.8261 -0.0919
  120MOL0     C16121   1.891   2.177   8.600  0.3648  0.1551 -0.8660
  120MOL0     C16122   1.763   2.138   8.654  1.0315  0.2575  0.6146
  120MOL0     O16123   1.648   2.104   8.577  0.1898  0.0194  0.8842
  120MOL0     C16124   1.675   2.111   8.431 -0.2919  0.3621 -0.1337
  120MOL0     C16125   1.719   1.969   8.395 -0.7403 -0.2023  0.9553
  120MOL0     C16126   1.778   1.965   8.253  0.2161 -0.9199  0.0770
  120MOL0     C16127   1.670   2.004   8.153 -0.1112 -0.1634  0.4225
  120MOL0     C16128   1.701   1.967   8.014  0.4415  0.2282  0.5548
  120MOL0     C16129   1.736   1.956   7.893  0.1913  0.4550 -0.0054
  120MOL0     C16130   1.747   2.159   8.786 -0.0282  0.2220 -0.0035
  120MOL0     C16131   1.850   2.227   8.861  0.3180  0.4891 -0.4058
  120MOL0     C16132   1.800   2.253   8.998 -0.7500  0.2154  0.6789
  120MOL0     H16133   2.309   2.466   8.652 -1.2607  0.5455  1.1701
  120MOL0     H16134   2.501   2.618   8.671  2.8332  0.1415  0.1777
  120MOL0     H16135   2.768   2.557   8.796  0.1996  0.2088  0.7107
  120MOL0     H16136   2.754   2.710   8.736  1.2963  0.0888  0.7813
  120MOL0     H16137   2.858   2.665   9.019 -1.2098  1.7952 -0.2936
  120MOL0     H16138   2.870   2.808   8.921  3.4992 -0.4910 -0.7636
  120MOL0     H16139   3.009   2.721   8.764 -1.0138  0.5052  0.4706
  120MOL0     H16140   2.996   2.555   8.829  0.1237  1.2027 -1.4937
  120MOL0     H16141   3.113   2.789   8.974 -1.1891 -0.1150  0.6872
  120MOL0     H16142   3.119   2.626   9.030  1.3520  0.0527  0.0291
  120MOL0     H16143   3.257   2.541   8.860  2.3787 -0.0742 -0.3138
  120MOL0     H16144   3.247   2.691   8.753  1.5538  0.9060  0.1038
  120MOL0     H16145   3.378   2.683   9.040  1.7861 -2.0131 -0.0488
  120MOL0     H16146   3.465   2.646   8.889 -0.4277 -2.5176  2.0666
  120MOL0     H16147   3.318   2.905   8.966  1.3270  0.4350  1.7796
  120MOL0     H16148   3.370   2.877   8.798 -1.2933 -1.7792 -0.6241
  120MOL0     H16149   3.528   3.005   8.948  0.2981 -0.4968  1.9828
  120MOL0     H16150   3.546   2.850   9.040 -2.6049 -2.1619 -0.8886
  120MOL0     H16151   3.575   2.887   8.648  0.6552 -0.3481 -0.5296
  120MOL0     H16152   3.885   2.673   8.562 -0.4983  0.0812 -3.0495
  120MOL0     H16153   3.771   2.773   8.481  0.3326 -1.1982 -0.1314
  120MOL0     H16154   3.912   2.979   8.531 -1.2069 -0.1633 -3.4394
  120MOL0     H16155   4.025   2.882   8.614 -0.1468  1.4505 -0.5975
  120MOL0     H16156   3.944   2.799   8.341  2.0726 -3.7542 -1.3155
  120MOL0     H16157   4.095   2.751   8.429 -2.3606 -1.5429  0.4525
  120MOL0     H16158   4.204   2.949   8.406  2.0288 -0.0127 -2.8173
  120MOL0     H16159   4.075   3.030   8.332  0.3140  0.0469  0.7660
  120MOL0     H16160   4.223   2.748   8.000 -0.2766 -3.6201  1.9019
  120MOL0     H16161   4.446   2.737   7.899 -1.5747 -1.2759  0.2816
  120MOL0     H16162   4.805   2.944   7.767 -0.9793 -1.5810  1.9127
  120MOL0     H16163   5.023   3.008   7.668  0.1595 -2.5680  1.3773
  120MOL0     H16164   5.241   3.086   7.617 -0.5136 -0.1008 -0.4422
  120MOL0     H16165   5.193   3.235   7.695  1.5639  1.9809 -1.8057
  120MOL0     H16166   5.426   3.307   7.665  1.1985 -0.2203 -1.8445
  120MOL0     H16167   5.470   3.190   7.785 -1.4767  0.2133  0.6272
  120MOL0     H16168   5.481   3.018   7.594 -2.0608  0.1890  2.3065
  120MOL0     H16169   5.425   3.148   7.483 -1.5329  0.7376  1.8770
  120MOL0     H16170   5.661   3.221   7.641  0.0411  1.3773 -1.3257
  120MOL0     H16171   5.619   3.237   7.474 -1.4291 -0.5003  0.0087
  120MOL0     H16172   5.675   2.981   7.447  0.8463  1.3143 -1.2260
  120MOL0     H16173   5.737   3.010   7.617  0.4936  0.7571  0.6927
  120MOL0     H16174   5.825   3.174   7.368  0.4908 -2.6540 -1.3342
  120MOL0     H16175   5.873   3.203   7.538  2.8375 -0.3427 -0.4458
  120MOL0     H16176   5.974   2.982   7.546  2.6083  1.4368  0.5817
  120MOL0     H16177   6.042   3.089   7.421 -0.2744 -1.8623 -3.2943
  120MOL0     H16178   5.996   2.863   7.328  1.2131  0.5270 -0.1419
  120MOL0     H16179   5.828   2.888   7.324  1.0912 -1.1640 -3.1034
  120MOL0     H16180   5.142   3.114   8.082 -0.2179  0.3594 -0.3170
  120MOL0     H16181   4.934   3.100   8.144 -0.8446  0.0229  0.0175
  120MOL0     H16182   4.600   2.978   8.220  0.9106  0.7439 -2.7000
  120MOL0     H16183   4.358   3.029   8.278 -0.0546 -0.5001  0.8500
  120MOL0     H16184   2.532   2.533   9.078  0.6000 -1.4534 -0.3830
  120MOL0     H16185   2.328   2.356   9.052 -2.0707 -0.5341 -0.3443
  120MOL0     H16186   2.087   2.252   8.631  1.4095  0.2426  3.2357
  120MOL0     H16187   1.926   2.180   8.497  0.6008  0.6573 -0.7729
  120MOL0     H16188   1.735   2.193   8.389  0.7577 -0.1313  0.3966
  120MOL0     H16189   1.577   2.128   8.384  0.6955  1.5183 -1.9152
  120MOL0     H16190   1.642   1.894   8.408  0.3050 -1.2262  1.4235
  120MOL0     H16191   1.802   1.945   8.462  1.7017  1.7180 -1.1442
  120MOL0     H16192   1.820   1.867   8.229  1.2311 -0.9076  1.6467
  120MOL0     H16193   1.859   2.039   8.246 -0.2613 -0.4201 -0.2324
  120MOL0     H16194   1.578   1.951   8.178 -0.2099 -0.5635 -0.6956
  120MOL0     H16195   1.646   2.111   8.146 -0.9136 -0.3021  0.9705
  120MOL0     H16196   1.759   1.942   7.789  0.1955 -1.4547  0.2194
  120MOL0     H16197   1.648   2.133   8.822 -1.0879 -2.1339 -4.0546
  120MOL0     H16198   1.768   2.357   9.009  0.2526  0.5523  0.5840
  120MOL0     H16199   1.710   2.193   9.014  0.5045 -0.9605  4.3449
  120MOL0     H16200   1.874   2.218   9.070 -1.6437 -0.9056  1.0917
  121MOL0     O16201   6.937   3.004   3.041  0.7275  0.2026 -0.7508
  121MOL0     C16202   6.993   2.975   2.940  1.4651  0.2937  0.0094
  121MOL0     O16203   6.940   2.937   2.831  1.1656  0.2380  0.8382
  121MOL0     C16204   6.807   2.930   2.832  0.1432 -0.5934  0.8303
  121MOL0     C16205   6.730   3.042   2.789 -0.8541 -0.2031  0.0489
  121MOL0     C16206   6.590   3.041   2.786  0.0577 -0.3347 -0.6134
  121MOL0     C16207   6.517   2.929   2.842 -1.0098 -0.4400  0.3816
  121MOL0     O16208   6.382   2.906   2.844  0.1648  0.7829  0.3317
  121MOL0     C16209   6.298   2.997   2.789  0.3433 -0.0648  0.6324
  121MOL0     C16210   6.149   2.953   2.819 -0.9491  0.0582  0.0412
  121MOL0     C16211   6.110   2.828   2.750  0.1058  0.6895  0.6967
  121MOL0     C16212   5.958   2.815   2.765 -0.5855 -0.1229  0.6487
  121MOL0     C16213   5.919   2.668   2.728  0.2344 -0.5839  0.3717
  121MOL0     C16214   5.760   2.658   2.728 -0.0500  0.7653  0.3972
  121MOL0     C16215   5.709   2.529   2.676  0.3774  0.4641  1.2045
  121MOL0     C16216   5.652   2.441   2.798 -0.3059  1.2409 -0.2684
  121MOL0     N16217   5.540   2.353   2.761  0.3947  0.2917  0.1543
  121MOL0     C16218   5.406   2.389   2.755  0.0983 -0.3828 -0.5832
  121MOL0     C16219   5.344   2.288   2.693  0.1123  0.4625 -0.5513
  121MOL0     C16220   5.196   2.282   2.652 -0.7581  0.0940 -0.3744
  121MOL0     C16221   5.177   2.220   2.520 -0.5711 -0.2150  0.1913
  121MOL0     C16222   5.224   2.306   2.393  0.8033 -0.2399 -0.3673
  121MOL0     C16223   5.142   2.443   2.386  0.6470  1.1083 -0.4370
  121MOL0     O16224   5.203   2.502   2.278 -0.6130  0.1358  0.5011
  121MOL0     C16225   5.314   2.584   2.287  1.1564  0.5203 -0.6403
  121MOL0     C16226   5.385   2.618   2.408  0.3505  1.3158  0.9346
  121MOL0     C16227   5.496   2.694   2.405  0.0327 -0.1271 -0.5390
  121MOL0     C16228   5.543   2.739   2.285 -0.4921 -0.0645 -0.1693
  121MOL0     C16229   5.658   2.835   2.296 -0.3978  0.4181 -0.3329
  121MOL0     O16230   5.651   2.927   2.393  0.1155  0.3379  0.0021
  121MOL0     C16231   5.764   2.989   2.441  0.7018 -0.7120 -0.1284
  121MOL0     C16232   5.897   2.969   2.417 -0.4747  0.4575 -0.5401
  121MOL0     C16233   5.994   3.043   2.483 -0.6996  0.5267  0.1730
  121MOL0     C16234   5.968   3.142   2.572  0.2857 -0.7565  0.5725
  121MOL0     O16235   6.074   3.217   2.611  0.2708 -0.4679  1.8222
  121MOL0     C16236   6.070   3.359   2.642  0.3994 -0.3013 -0.4348
  121MOL0     C16237   6.140   3.442   2.534 -0.3858 -0.5807 -0.2171
  121MOL0     C16238   6.286   3.390   2.524  0.2975 -0.8246  0.0559
  121MOL0     C16239   6.371   3.490   2.444  0.0787  0.6870 -0.2107
  121MOL0     C16240   6.522   3.461   2.410  0.1415  0.4301  0.1309
  121MOL0     C16241   6.546   3.328   2.330  0.0260 -0.2243 -0.2815
  121MOL0     C16242   6.699   3.273   2.326 -0.5512  0.3208  0.3774
  121MOL0     C16243   6.784   3.371   2.245 -1.1473  0.4625 -0.2137
  121MOL0    Cl16244   6.947   3.297   2.247 -0.2702  0.4769 -0.0485
  121MOL0     C16245   5.830   3.168   2.594  0.4214  1.1057 -0.2974
  121MOL0     C16246   5.733   3.089   2.539  1.1832  0.0453  0.2711
  121MOL0     O16247   5.752   2.815   2.217 -0.8228 -0.3896  0.2945
  121MOL0     C16248   5.482   2.706   2.168  0.6228  0.0671  0.7480
  121MOL0     C16249   5.366   2.628   2.170 -0.0141  0.1115  0.9745
  121MOL0     N16250   5.437   2.189   2.686  0.0325 -0.1713 -0.0856
  121MOL0     N16251   5.551   2.228   2.726 -0.2780 -1.0884 -0.2607
  121MOL0     C16252   6.600   2.822   2.895 -0.0045  0.5052  0.7312
  121MOL0     C16253   6.743   2.826   2.892  1.0324 -0.5262 -0.8876
  121MOL0     C16254   7.142   2.979   2.935  0.6026 -0.6665  0.1716
  121MOL0     C16255   7.195   3.066   2.838 -0.1827 -0.1796 -0.4094
  121MOL0     C16256   7.338   3.074   2.819  0.1482 -0.1229  0.2479
  121MOL0     C16257   7.420   2.986   2.879  1.0282 -0.6844 -0.3746
  121MOL0     O16258   7.549   2.961   2.839  0.5089 -0.9194 -0.3760
  121MOL0     C16259   7.651   2.985   2.933 -0.5860 -0.3437  1.0192
  121MOL0     C16260   7.705   3.129   2.911 -0.1460  0.4748 -0.5561
  121MOL0     C16261   7.754   3.121   2.766  0.2004  0.1416 -0.0312
  121MOL0     C16262   7.853   3.237   2.758 -0.1647  0.3922 -0.5519
  121MOL0     C16263   7.881   3.261   2.618  0.1247  0.0690 -0.0169
  121MOL0     C16264   7.904   3.272   2.494 -0.1608 -0.1868 -0.4770
  121MOL0     C16265   7.364   2.904   2.982 -0.4140  0.2472 -0.1358
  121MOL0     C16266   7.227   2.900   3.011  0.4534 -0.2325  0.0486
  121MOL0     C16267   7.190   2.790   3.094 -1.1460  0.0478  0.3712
  121MOL0     H16268   6.779   3.130   2.747  1.0039 -1.1148  0.2122
  121MOL0     H16269   6.543   3.129   2.743 -0.8737 -0.7815 -0.5325
  121MOL0     H16270   6.314   3.097   2.830 -0.2485 -0.4600  1.8786
  121MOL0     H16271   6.312   2.992   2.680 -3.1459  0.2167  0.0332
  121MOL0     H16272   6.081   3.032   2.786 -0.0776  1.6092  1.8267
  121MOL0     H16273   6.143   2.938   2.927 -1.5068  0.0275  0.0094
  121MOL0     H16274   6.157   2.739   2.793 -1.7862 -2.0580 -2.5094
  121MOL0     H16275   6.144   2.827   2.646  0.8662  2.3372  0.8897
  121MOL0     H16276   5.933   2.840   2.869  1.6610 -0.0851  1.2388
  121MOL0     H16277   5.902   2.885   2.702 -1.5961 -2.2527 -0.9152
  121MOL0     H16278   5.959   2.642   2.630  0.1583 -2.3659  0.7758
  121MOL0     H16279   5.948   2.589   2.798  0.9087  0.8212  1.7386
  121MOL0     H16280   5.713   2.681   2.824 -2.1239 -0.7238 -0.1797
  121MOL0     H16281   5.719   2.736   2.663 -0.9807 -0.9528 -1.2023
  121MOL0     H16282   5.791   2.480   2.624  1.5306  1.9425  1.5666
  121MOL0     H16283   5.636   2.552   2.598  0.3992 -0.3454  0.9377
  121MOL0     H16284   5.731   2.372   2.828 -0.5793  1.9514  2.3419
  121MOL0     H16285   5.618   2.501   2.883 -0.0832  0.7769  0.1493
  121MOL0     H16286   5.370   2.488   2.778  2.7435  0.2862  1.0798
  121MOL0     H16287   5.148   2.223   2.731 -0.4666  0.4144  0.0475
  121MOL0     H16288   5.169   2.388   2.652  2.5684  1.0960 -2.1667
  121MOL0     H16289   5.227   2.123   2.517  2.1249  1.0107  1.6562
  121MOL0     H16290   5.069   2.210   2.508 -0.6891 -0.2333  1.1670
  121MOL0     H16291   5.198   2.244   2.307  1.7728 -1.0262 -0.1128
  121MOL0     H16292   5.331   2.325   2.392  0.4505  2.2349  0.2313
  121MOL0     H16293   5.147   2.510   2.472  1.6138 -0.4895  0.8063
  121MOL0     H16294   5.039   2.411   2.369  1.4457 -2.6844  0.9163
  121MOL0     H16295   5.342   2.589   2.503  2.6318 -2.3787  1.0407
  121MOL0     H16296   5.553   2.724   2.492  2.2870 -1.0303 -1.6253
  121MOL0     H16297   5.940   2.905   2.340  1.7954 -1.4142  2.0937
  121MOL0     H16298   6.094   3.007   2.462 -0.5285 -0.0327  1.8332
  121MOL0     H16299   5.966   3.387   2.663  0.8134  1.0156 -0.0606
  121MOL0     H16300   6.128   3.372   2.734  1.1340  0.9718 -1.0515
  121MOL0     H16301   6.088   3.444   2.438 -0.6034  0.2230 -0.0944
  121MOL0     H16302   6.156   3.543   2.573  0.2080 -0.5793 -0.4545
  121MOL0     H16303   6.324   3.385   2.626  4.4949  1.2817 -1.1839
  121MOL0     H16304   6.295   3.287   2.486  0.3233 -1.2058  1.0558
  121MOL0     H16305   6.363   3.589   2.491 -0.5517 -0.1175  1.4462
  121MOL0     H16306   6.311   3.504   2.354 -1.6716 -2.1298  0.3995
  121MOL0     H16307   6.566   3.443   2.508  1.7624 -2.3949 -1.0035
  121MOL0     H16308   6.568   3.541   2.351 -0.1346 -0.7924 -1.8661
  121MOL0     H16309   6.487   3.249   2.377  1.5922  0.3326  2.8605
  121MOL0     H16310   6.520   3.339   2.224  1.6848 -0.2990 -0.7142
  121MOL0     H16311   6.699   3.181   2.267  0.4808  0.1334  0.6559
  121MOL0     H16312   6.742   3.254   2.425  2.0400  0.5934 -0.6203
  121MOL0     H16313   6.759   3.373   2.138 -0.5558  1.5162 -0.3476
  121MOL0     H16314   6.778   3.468   2.295  0.1580  0.6854 -0.4556
  121MOL0     H16315   5.801   3.247   2.663  0.9778 -0.1337  1.4349
  121MOL0     H16316   5.629   3.110   2.563  1.2577  1.2570 -0.3467
  121MOL0     H16317   5.530   2.723   2.072 -1.3735  2.5853  0.0738
  121MOL0     H16318   5.314   2.601   2.078  0.3812 -0.2210  0.8476
  121MOL0     H16319   6.539   2.743   2.939 -0.5291 -0.7179 -1.9797
  121MOL0     H16320   6.795   2.748   2.947  0.1887 -1.9411 -2.0064
  121MOL0     H16321   7.114   3.122   2.791 -3.8218 -2.8896  2.0850
  121MOL0     H16322   7.385   3.131   2.740  1.6062 -0.4717  0.8416
  121MOL0     H16323   7.726   2.906   2.922  1.7135  1.8989 -0.6140
  121MOL0     H16324   7.617   2.979   3.036 -1.5091 -2.7055  0.6564
  121MOL0     H16325   7.789   3.148   2.979  1.3385 -2.9806 -1.1934
  121MOL0     H16326   7.625   3.203   2.921  0.6687  1.6473 -2.1533
  121MOL0     H16327   7.679   3.141   2.689 -0.6979  0.2255  0.8478
  121MOL0     H16328   7.814   3.031   2.748  0.4176  0.0368  1.1396
  121MOL0     H16329   7.809   3.325   2.806 -1.6631 -1.5063  1.8237
  121MOL0     H16330   7.946   3.216   2.812 -0.2163 -0.6688 -0.8434
  121MOL0     H16331   7.931   3.270   2.390 -0.5576 -2.3198 -0.5688
  121MOL0     H16332   7.433   2.836   3.031  2.0899  0.2202 -3.3905
  121MOL0     H16333   7.239   2.793   3.191 -0.1678 -1.0205 -0.0705
  121MOL0     H16334   7.082   2.788   3.115 -1.1861  2.1906  0.6193
  121MOL0     H16335   7.211   2.696   3.042  2.7438  0.6451  0.5721
  122MOL0     O16336  10.630   1.492   9.199  0.0028 -0.3704  0.0651
  122MOL0     C16337  10.659   1.590   9.127  0.6935  0.1511 -0.1933
  122MOL0     O16338  10.794   1.621   9.085  0.1781  0.2393 -0.3791
  122MOL0     C16339  10.902   1.537   9.116  0.4270  0.2560  0.6910
  122MOL0     C16340  10.989   1.513   9.014  0.1842  0.3406  0.0456
  122MOL0     C16341  11.109   1.445   9.042  0.7748  0.1596 -0.1029
  122MOL0     C16342  11.140   1.394   9.168  0.0959  0.0638  0.2992
  122MOL0     O16343  11.259   1.335   9.174  0.1677  0.1633 -0.4886
  122MOL0     C16344  11.291   1.260   9.292  0.0268 -0.9097  0.2866
  122MOL0     C16345  11.446   1.246   9.281  0.4366 -0.1840  0.4255
  122MOL0     C16346  11.490   1.159   9.396 -0.2102 -0.7067  0.0344
  122MOL0     C16347  11.653   1.155   9.396  0.2701  1.0872  0.4689
  122MOL0     C16348  11.695   1.046   9.478  0.2123  1.0951  0.4947
  122MOL0     C16349  11.695   0.904   9.407 -0.7286  0.3919 -0.6002
  122MOL0     C16350  11.739   0.792   9.499 -0.2885 -0.0286  0.1806
  122MOL0     C16351  11.698   0.653   9.449  0.1156  0.1757  0.5217
  122MOL0     N16352  11.768   0.541   9.511  0.8557  0.3973  0.5669
  122MOL0     C16353  11.737   0.495   9.638  0.0738  0.0462 -0.9058
  122MOL0     C16354  11.843   0.419   9.676 -0.0054 -0.7759  0.2755
  122MOL0     C16355  11.867   0.346   9.799  0.7300  0.7683 -0.2220
  122MOL0     C16356  11.865   0.441   9.918  0.0238 -0.2754  0.1277
  122MOL0     C16357  12.008   0.498   9.955  0.1366  0.2727  0.3485
  122MOL0     C16358  12.091   0.567   9.849  0.0512  0.4685  0.2458
  122MOL0     O16359  12.220   0.604   9.905  0.1377  0.1403  0.5530
  122MOL0     C16360  12.325   0.659   9.827  1.3142 -0.7436  0.3159
  122MOL0     C16361  12.456   0.655   9.881  0.1300 -0.0192  0.1351
  122MOL0     C16362  12.561   0.730   9.831  0.2532  1.0496  0.2010
  122MOL0     C16363  12.544   0.814   9.719  0.0299 -0.8072  0.3235
  122MOL0     C16364  12.657   0.880   9.656 -0.3885  0.5270 -0.0803
  122MOL0     O16365  12.769   0.885   9.734 -0.0434  0.0108  0.0568
  122MOL0     C16366  12.883   0.936   9.678 -0.6312  0.0195  0.4076
  122MOL0     C16367  12.923   0.928   9.543 -0.2127  0.2216  0.7454
  122MOL0     C16368  13.045   0.970   9.490 -0.0772 -1.1155  0.4753
  122MOL0     C16369  13.140   1.022   9.576  0.3822  0.1073 -0.6446
  122MOL0     O16370  13.256   1.069   9.527 -0.5676  0.0087  0.5389
  122MOL0     C16371  13.306   1.011   9.407 -0.1999 -0.0901 -0.0788
  122MOL0     C16372  13.455   1.044   9.396 -0.1504 -0.4470 -0.2049
  122MOL0     C16373  13.515   0.978   9.270 -0.1853  0.1533  0.7679
  122MOL0     C16374  13.663   0.995   9.278  0.7681 -0.1170 -0.4700
  122MOL0     C16375  13.742   0.992   9.146  0.0548  0.2223 -0.0510
  122MOL0     C16376  13.884   1.039   9.174 -0.1301 -0.0765  0.2344
  122MOL0     C16377  13.950   1.077   9.047 -0.5207 -0.9996  0.2870
  122MOL0     C16378  14.099   1.097   9.067 -0.1307  0.2714  0.4054
  122MOL0    Cl16379  14.110   1.225   9.186  0.0584  0.3038  0.1005
  122MOL0     C16380  13.108   1.029   9.710 -0.4426  0.7908 -0.3533
  122MOL0     C16381  12.986   0.978   9.760  0.5025 -0.9411 -0.3380
  122MOL0     O16382  12.646   0.935   9.545  0.0366 -0.2502 -0.7537
  122MOL0     C16383  12.416   0.815   9.660 -0.2439 -0.1697  0.2991
  122MOL0     C16384  12.307   0.748   9.718 -0.3964  0.2549 -0.4574
  122MOL0     N16385  11.932   0.409   9.574 -0.1276  0.2696 -0.3245
  122MOL0     N16386  11.883   0.478   9.473 -0.7634  1.0092 -1.1413
  122MOL0     C16387  11.048   1.417   9.266 -0.6227  0.0112 -0.2871
  122MOL0     C16388  10.932   1.496   9.247 -0.8778 -0.4276  0.8791
  122MOL0     C16389  10.539   1.681   9.100  0.0101  0.3884  0.1724
  122MOL0     C16390  10.424   1.658   9.168 -0.1049 -0.2209  0.1122
  122MOL0     C16391  10.302   1.728   9.150  0.3638  0.6528 -0.1334
  122MOL0     C16392  10.298   1.832   9.056  0.1953  0.1923 -0.1803
  122MOL0     O16393  10.185   1.908   9.041 -0.2475 -0.2272  0.1394
  122MOL0     C16394  10.139   1.916   8.909  0.6288 -0.4328  0.5391
  122MOL0     C16395  10.153   2.063   8.866  0.1668  0.1290 -0.3998
  122MOL0     C16396  10.023   2.129   8.815 -0.3582  0.3422  0.3021
  122MOL0     C16397  10.041   2.278   8.794 -0.6418 -0.0600  0.2237
  122MOL0     C16398  10.028   2.344   8.924  0.5012  0.3127 -1.5440
  122MOL0     C16399  10.017   2.402   9.035 -0.0595 -0.3249 -0.1081
  122MOL0     C16400  10.418   1.855   8.989 -0.1485  0.0045 -0.9400
  122MOL0     C16401  10.539   1.789   9.009 -0.2513  1.0177 -0.0843
  122MOL0     C16402  10.666   1.840   8.932  0.7382 -0.2752 -1.1505
  122MOL0     H16403  10.957   1.545   8.915 -0.1826 -2.4514 -0.8471
  122MOL0     H16404  11.181   1.429   8.962 -1.1771  0.2646 -1.9708
  122MOL0     H16405  11.274   1.302   9.391 -3.1332 -0.5885 -0.2811
  122MOL0     H16406  11.250   1.161   9.271  0.0466 -0.7311 -0.6764
  122MOL0     H16407  11.489   1.346   9.279  0.6630 -0.2269 -3.1963
  122MOL0     H16408  11.462   1.195   9.186 -0.7108  1.2191 -0.5664
  122MOL0     H16409  11.456   1.060   9.364  1.9737 -1.3913 -0.2748
  122MOL0     H16410  11.447   1.188   9.493  0.1910  0.4069 -0.1093
  122MOL0     H16411  11.693   1.143   9.295  3.0073 -1.0981  1.6891
  122MOL0     H16412  11.699   1.245   9.439  1.7006  2.4367 -3.4534
  122MOL0     H16413  11.796   1.064   9.515  0.2067  3.1227 -0.3717
  122MOL0     H16414  11.624   1.045   9.561 -0.6645  0.6150 -0.2372
  122MOL0     H16415  11.596   0.883   9.366 -0.8034  1.6383 -1.0942
  122MOL0     H16416  11.753   0.916   9.315 -1.6410 -1.4669 -1.4867
  122MOL0     H16417  11.716   0.798   9.606  1.0897 -1.2910  0.5845
  122MOL0     H16418  11.848   0.787   9.509 -0.4558 -2.0001  1.5238
  122MOL0     H16419  11.589   0.645   9.444  0.1283  0.1696 -3.2096
  122MOL0     H16420  11.734   0.642   9.346 -1.7260 -0.6484 -0.0878
  122MOL0     H16421  11.651   0.537   9.688  1.0684 -0.6434  1.5392
  122MOL0     H16422  11.789   0.270   9.808 -2.4849  3.2667 -3.7763
  122MOL0     H16423  11.965   0.298   9.806  1.2006  1.6529 -0.6519
  122MOL0     H16424  11.795   0.524   9.904 -1.1124 -1.3124 -0.4921
  122MOL0     H16425  11.829   0.395  10.011  0.5159 -0.6059  0.1611
  122MOL0     H16426  12.078   0.427  10.000  0.0239 -0.5045 -0.6732
  122MOL0     H16427  11.985   0.570  10.034 -0.7369 -1.2601  1.5277
  122MOL0     H16428  12.046   0.663   9.824  0.8705  1.1351  1.2749
  122MOL0     H16429  12.091   0.498   9.764 -1.8421  0.9177 -0.1667
  122MOL0     H16430  12.481   0.587   9.962 -0.9755  1.0255  1.3951
  122MOL0     H16431  12.661   0.730   9.872  0.8708  0.1438 -1.2202
  122MOL0     H16432  12.855   0.885   9.470  1.7529 -3.7077  0.9720
  122MOL0     H16433  13.053   0.959   9.383  0.3580  2.6757 -0.0112
  122MOL0     H16434  13.284   0.904   9.403 -1.8235  0.2094 -0.1292
  122MOL0     H16435  13.257   1.048   9.316  0.3777  0.2537 -0.2516
  122MOL0     H16436  13.455   1.153   9.400  2.7451 -0.3840  1.0356
  122MOL0     H16437  13.498   1.015   9.493 -0.6209  0.6872  0.3550
  122MOL0     H16438  13.490   0.873   9.250  1.3655 -0.0173 -0.5035
  122MOL0     H16439  13.480   1.031   9.181 -0.7071  1.3837  1.6796
  122MOL0     H16440  13.704   0.927   9.353  0.3437  1.4048  1.2164
  122MOL0     H16441  13.682   1.095   9.318 -3.3153  1.1840 -1.2825
  122MOL0     H16442  13.696   1.052   9.067 -1.0389 -2.3501 -1.4791
  122MOL0     H16443  13.747   0.893   9.100 -2.2266  0.0301  0.0109
  122MOL0     H16444  13.873   1.129   9.234  0.9450 -0.1054  0.4819
  122MOL0     H16445  13.941   0.954   9.213 -1.3487 -0.7700  0.5607
  122MOL0     H16446  13.906   1.174   9.021 -1.3499 -0.8110  2.1750
  122MOL0     H16447  13.946   0.992   8.979 -0.3158 -1.2729  0.6114
  122MOL0     H16448  14.138   1.002   9.103  0.4120 -2.1971 -5.5786
  122MOL0     H16449  14.142   1.133   8.973  1.4672  0.8693  1.3187
  122MOL0     H16450  13.178   1.069   9.783 -1.6627 -0.8606  1.8706
  122MOL0     H16451  12.978   0.990   9.868 -0.0976  2.1339 -0.6232
  122MOL0     H16452  12.391   0.886   9.583  2.1361 -0.2553 -0.6400
  122MOL0     H16453  12.211   0.766   9.671 -0.5028  0.1153 -0.2936
  122MOL0     H16454  11.077   1.390   9.367 -1.8335 -0.2100  0.0208
  122MOL0     H16455  10.878   1.530   9.335  0.1645  1.4327  0.8562
  122MOL0     H16456  10.415   1.576   9.239  0.5902 -2.8533 -2.6420
  122MOL0     H16457  10.210   1.701   9.200 -1.2318  0.3331 -2.9914
  122MOL0     H16458  10.041   1.870   8.897  0.3088 -0.7138  3.5309
  122MOL0     H16459  10.216   1.867   8.848  3.2617 -0.2495  3.4775
  122MOL0     H16460  10.238   2.066   8.798  0.8863  1.7159  0.5397
  122MOL0     H16461  10.185   2.120   8.953 -1.4562 -0.9694  0.9812
  122MOL0     H16462   9.944   2.118   8.890 -2.7519  2.1372 -1.7519
  122MOL0     H16463   9.993   2.079   8.723  0.3561  1.5324 -0.5987
  122MOL0     H16464  10.133   2.301   8.739 -1.6983  1.0800 -1.1390
  122MOL0     H16465   9.967   2.316   8.723 -0.1146 -0.3052 -0.4774
  122MOL0     H16466  10.026   2.454   9.129 -1.6122 -2.9057  1.5731
  122MOL0     H16467  10.422   1.943   8.926 -0.9655  1.6378  1.1627
  122MOL0     H16468  10.647   1.929   8.872  0.0623  1.5965  1.6060
  122MOL0     H16469  10.750   1.862   8.999  1.0118 -0.6232 -1.3751
  122MOL0     H16470  10.700   1.761   8.865  0.4610  0.1853 -1.8469
  123MOL0     O16471   9.879   8.316   9.307 -0.2851 -0.5092 -0.5665
  123MOL0     C16472   9.806   8.230   9.248  0.9231 -0.6052 -0.5179
  123MOL0     O16473   9.840   8.176   9.131 -0.5881 -0.5757  0.3381
  123MOL0     C16474   9.971   8.168   9.085  0.1746 -0.0870 -0.3687
  123MOL0     C16475  10.068   8.270   9.102  1.2765  0.2706 -0.0405
  123MOL0     C16476  10.199   8.258   9.060  0.7250 -0.0816 -0.3543
  123MOL0     C16477  10.240   8.141   8.998 -0.9101 -1.3011  0.4539
  123MOL0     O16478  10.368   8.122   8.930  0.2837 -0.0411 -0.4244
  123MOL0     C16479  10.472   8.222   8.941 -0.2212 -0.2642 -0.2739
  123MOL0     C16480  10.595   8.142   8.898 -0.1561  0.2254 -0.7138
  123MOL0     C16481  10.699   8.241   8.848  0.6808  0.2511  0.0849
  123MOL0     C16482  10.797   8.278   8.953 -0.6165 -0.6079 -0.5223
  123MOL0     C16483  10.892   8.386   8.906 -1.1148  0.2728  0.1009
  123MOL0     C16484  10.993   8.332   8.805 -0.3368  0.2736 -0.1745
  123MOL0     C16485  11.089   8.433   8.737  0.5369 -0.1500  0.2347
  123MOL0     C16486  11.187   8.505   8.830  0.7124 -0.5795  0.4485
  123MOL0     N16487  11.294   8.405   8.852 -0.0271  0.9954 -0.3318
  123MOL0     C16488  11.424   8.414   8.809 -0.0587 -0.5403  0.7818
  123MOL0     C16489  11.498   8.307   8.863  0.2700  0.3186  0.1353
  123MOL0     C16490  11.642   8.284   8.844 -0.1956  0.2026  0.2575
  123MOL0     C16491  11.687   8.135   8.837  0.5102 -0.3016  0.0364
  123MOL0     C16492  11.735   8.078   8.974 -0.4448 -0.5617  0.4111
  123MOL0     C16493  11.873   8.139   9.013  0.4680 -0.0885 -0.8293
  123MOL0     O16494  11.963   8.135   8.899 -0.2331  0.1214 -0.1740
  123MOL0     C16495  12.100   8.152   8.915 -0.7912  0.6738  0.1134
  123MOL0     C16496  12.181   8.120   8.805 -0.3181  0.7083  0.4146
  123MOL0     C16497  12.322   8.123   8.817  0.1819  0.0752  0.0868
  123MOL0     C16498  12.383   8.178   8.927  0.6456  0.3847  0.0790
  123MOL0     C16499  12.533   8.191   8.918  0.1884 -0.1896  0.3324
  123MOL0     O16500  12.589   8.309   8.970 -0.0219 -0.0923  0.0233
  123MOL0     C16501  12.728   8.305   8.972  0.0156  0.5362 -0.5437
  123MOL0     C16502  12.807   8.390   8.899 -0.0845  0.3935  0.2258
  123MOL0     C16503  12.943   8.405   8.928  0.0496  0.5329  1.3610
  123MOL0     C16504  13.004   8.353   9.039  0.6668 -0.3105 -0.5317
  123MOL0     O16505  13.136   8.380   9.055 -0.3991  1.5217  0.5318
  123MOL0     C16506  13.220   8.303   9.144  0.0813  1.0254  0.1870
  123MOL0     C16507  13.366   8.362   9.133 -0.8360  0.3199  0.6793
  123MOL0     C16508  13.453   8.276   9.230  0.2567  0.0131  0.0185
  123MOL0     C16509  13.592   8.326   9.213 -0.2181  0.0840 -0.5603
  123MOL0     C16510  13.713   8.247   9.278  0.1858  0.4934 -0.4247
  123MOL0     C16511  13.836   8.335   9.285  0.2695 -0.4317  0.4023
  123MOL0     C16512  13.962   8.253   9.299  0.8765 -0.0529  0.2038
  123MOL0     C16513  14.003   8.227   9.442  0.1412  0.4160 -0.4375
  123MOL0    Cl16514  14.125   8.092   9.419  0.3802  0.4946  0.2331
  123MOL0     C16515  12.932   8.250   9.109 -0.0190 -0.3688  0.0867
  123MOL0     C16516  12.795   8.231   9.072  0.3566 -0.1120 -0.1772
  123MOL0     O16517  12.603   8.099   8.884 -0.0514  0.2471  0.1016
  123MOL0     C16518  12.302   8.213   9.040 -0.5129  0.5575 -0.0526
  123MOL0     C16519  12.162   8.203   9.034  0.7553 -0.7537  0.1834
  123MOL0     N16520  11.413   8.241   8.947  1.4714  0.3230  0.4447
  123MOL0     N16521  11.293   8.289   8.937  0.2515 -0.3220  0.2777
  123MOL0     C16522  10.144   8.041   8.968  0.2862 -0.2855 -0.3563
  123MOL0     C16523  10.011   8.058   9.002  0.1423  0.1132  0.6331
  123MOL0     C16524   9.675   8.181   9.306 -0.7238 -0.2109  0.1471
  123MOL0     C16525   9.569   8.146   9.221  0.4884 -0.3169  0.1411
  123MOL0     C16526   9.443   8.112   9.259 -0.6286 -1.0538 -0.7045
  123MOL0     C16527   9.428   8.081   9.394  0.2044 -0.5920 -0.1829
  123MOL0     O16528   9.314   8.039   9.451 -0.7654  0.1668 -0.3113
  123MOL0     C16529   9.187   8.080   9.393 -0.0594  0.7387  0.3202
  123MOL0     C16530   9.077   7.977   9.437  0.3724  0.0310 -0.5111
  123MOL0     C16531   8.946   8.051   9.437  0.2358 -0.6397 -0.1507
  123MOL0     C16532   8.823   7.963   9.451  0.1137  0.0857 -0.0401
  123MOL0     C16533   8.714   8.068   9.447 -0.5717 -0.0243 -0.3321
  123MOL0     C16534   8.627   8.155   9.442 -0.0048  0.0692 -0.7940
  123MOL0     C16535   9.541   8.085   9.483  0.5537 -0.8260  0.4234
  123MOL0     C16536   9.664   8.140   9.440  1.1984 -0.6880 -0.2268
  123MOL0     C16537   9.780   8.131   9.544  0.4785 -0.2277  0.3088
  123MOL0     H16538  10.038   8.365   9.145 -0.5272  0.0179 -0.6233
  123MOL0     H16539  10.266   8.343   9.067  0.9856 -0.3020 -0.1546
  123MOL0     H16540  10.448   8.313   8.885  0.1501  2.4803  3.5467
  123MOL0     H16541  10.482   8.254   9.046  1.8635 -1.1520 -0.1709
  123MOL0     H16542  10.565   8.081   8.812 -0.9098  3.2060 -2.6841
  123MOL0     H16543  10.625   8.071   8.976  2.2824  0.1738 -1.6052
  123MOL0     H16544  10.653   8.332   8.811  0.7779  0.2858  0.0512
  123MOL0     H16545  10.753   8.194   8.765  1.5961 -1.7344  1.7037
  123MOL0     H16546  10.734   8.320   9.033  0.7353 -2.1247  1.4468
  123MOL0     H16547  10.832   8.179   8.983 -3.4807 -0.9062  2.3301
  123MOL0     H16548  10.841   8.470   8.859 -0.2867  0.2021 -0.9674
  123MOL0     H16549  10.944   8.427   8.993  0.7605  0.1284 -0.9060
  123MOL0     H16550  11.045   8.242   8.841 -1.9011 -0.6284 -0.0954
  123MOL0     H16551  10.938   8.283   8.724  0.3126  2.5025 -2.0796
  123MOL0     H16552  11.034   8.509   8.680 -1.2183 -1.4380  0.1370
  123MOL0     H16553  11.139   8.382   8.654  1.2002  1.3806 -0.3422
  123MOL0     H16554  11.222   8.597   8.782 -0.2181 -0.8575 -0.8400
  123MOL0     H16555  11.135   8.537   8.921 -0.0591 -0.5639  0.0182
  123MOL0     H16556  11.468   8.495   8.752 -0.2692  0.1741  1.6033
  123MOL0     H16557  11.674   8.332   8.752 -2.2809  0.3952 -0.4135
  123MOL0     H16558  11.680   8.331   8.936  0.1581 -0.8650  0.6848
  123MOL0     H16559  11.599   8.074   8.816  0.7502 -1.2290  1.5154
  123MOL0     H16560  11.755   8.111   8.755  1.3073 -0.3060  0.6791
  123MOL0     H16561  11.755   7.970   8.971  1.8891 -0.2008  1.4537
  123MOL0     H16562  11.662   8.100   9.053  0.6568  2.8814  0.6269
  123MOL0     H16563  11.916   8.068   9.084  0.9869 -0.8178 -1.8435
  123MOL0     H16564  11.857   8.241   9.050  2.2924  0.4845 -1.5067
  123MOL0     H16565  12.133   8.084   8.715  1.2609  2.7630 -1.3554
  123MOL0     H16566  12.372   8.086   8.728  0.3335  2.7253 -1.0170
  123MOL0     H16567  12.764   8.447   8.818  1.1612 -1.1716 -1.6528
  123MOL0     H16568  13.008   8.465   8.866 -0.8876  0.7345  0.5615
  123MOL0     H16569  13.189   8.327   9.246  0.1014  1.5552  0.0680
  123MOL0     H16570  13.206   8.195   9.130 -0.7444  1.1533 -0.0265
  123MOL0     H16571  13.403   8.339   9.032 -1.1814  0.8834  0.4173
  123MOL0     H16572  13.390   8.466   9.158  1.7381 -0.2329  0.7590
  123MOL0     H16573  13.424   8.271   9.336 -0.4801  1.8216 -0.0601
  123MOL0     H16574  13.452   8.175   9.187 -2.2219  0.0379 -0.1681
  123MOL0     H16575  13.601   8.433   9.237 -2.3608  0.5815 -1.6795
  123MOL0     H16576  13.620   8.331   9.108  3.8279 -1.3887  0.3036
  123MOL0     H16577  13.731   8.162   9.211 -0.3339  1.1275 -1.3925
  123MOL0     H16578  13.684   8.214   9.378  1.6195  0.0649 -0.1179
  123MOL0     H16579  13.835   8.385   9.188  0.8200 -1.3157 -0.0732
  123MOL0     H16580  13.822   8.410   9.363  1.5917 -1.3490  1.5782
  123MOL0     H16581  14.041   8.314   9.256  0.0957  1.9179  1.4202
  123MOL0     H16582  13.942   8.156   9.251  1.8190 -1.3685  2.3388
  123MOL0     H16583  14.038   8.317   9.494  1.4312 -1.6360  2.4804
  123MOL0     H16584  13.919   8.188   9.501 -0.9026  0.0788 -2.0646
  123MOL0     H16585  12.985   8.189   9.182 -4.3027 -2.2754  1.9503
  123MOL0     H16586  12.736   8.153   9.121 -0.7781 -0.2426 -1.6892
  123MOL0     H16587  12.342   8.247   9.135  0.1344 -0.9543  0.2427
  123MOL0     H16588  12.092   8.242   9.107 -1.5766  2.2011 -3.2357
  123MOL0     H16589  10.166   7.957   8.902  1.8829 -0.5277  0.4510
  123MOL0     H16590   9.934   7.989   8.969 -1.3898  1.3001  1.5935
  123MOL0     H16591   9.585   8.191   9.123  1.8687 -1.2464 -0.0793
  123MOL0     H16592   9.359   8.097   9.193 -1.0583 -0.9393 -0.1917
  123MOL0     H16593   9.190   8.067   9.285  0.7673 -1.4228  0.5580
  123MOL0     H16594   9.168   8.185   9.420 -1.0691  0.5591  0.3689
  123MOL0     H16595   9.100   7.951   9.540  2.0844 -0.6961 -1.0288
  123MOL0     H16596   9.078   7.892   9.368 -0.0986  0.8626 -1.5881
  123MOL0     H16597   8.930   8.113   9.349 -1.2610 -2.9188 -1.5904
  123MOL0     H16598   8.951   8.117   9.524  2.9957 -0.6734 -0.2069
  123MOL0     H16599   8.821   7.894   9.366 -0.3643  1.2000 -0.9639
  123MOL0     H16600   8.833   7.901   9.540  1.7636  2.5397  1.6143
  123MOL0     H16601   8.542   8.220   9.449  1.8835  2.6100  5.3256
  123MOL0     H16602   9.515   8.044   9.581 -0.3596  3.0757  1.9862
  123MOL0     H16603   9.736   8.102   9.639 -0.5039  3.1542  1.0155
  123MOL0     H16604   9.853   8.059   9.505  1.0469  1.4015 -1.8372
  123MOL0     H16605   9.827   8.228   9.560 -2.3301  0.8769  2.7881
  124MOL0     O16606   4.244  10.227   6.130  0.4729 -0.4137  0.4586
  124MOL0     C16607   4.205  10.120   6.180 -0.4612 -0.8013 -0.2660
  124MOL0     O16608   4.267  10.000   6.171  0.1048  0.1325 -0.0378
  124MOL0     C16609   4.367   9.991   6.074 -0.5771 -0.3155 -0.7083
  124MOL0     C16610   4.475  10.078   6.055  0.3206 -0.2600 -0.9637
  124MOL0     C16611   4.585  10.044   5.967 -0.7021 -0.0298 -0.2822
  124MOL0     C16612   4.578   9.920   5.898 -0.1204 -0.5793 -0.4193
  124MOL0     O16613   4.678   9.878   5.810 -0.8983  0.1141  0.1333
  124MOL0     C16614   4.737   9.979   5.731  0.7201 -0.1670 -0.1683
  124MOL0     C16615   4.809   9.905   5.620  0.1034  0.0720 -0.6410
  124MOL0     C16616   4.892   9.999   5.538 -0.1571  0.3104  0.6468
  124MOL0     C16617   5.010   9.923   5.462 -0.1440 -0.0501  0.8562
  124MOL0     C16618   5.052   9.992   5.331  0.8986  0.2497  0.5484
  124MOL0     C16619   5.180   9.933   5.273 -0.2003 -0.3966  0.0387
  124MOL0     C16620   5.171   9.785   5.233 -0.2479 -0.0666 -0.1211
  124MOL0     C16621   5.300   9.746   5.154 -0.3911 -0.3678 -0.4296
  124MOL0     N16622   5.415   9.765   5.248 -0.4155  0.0202  0.1286
  124MOL0     C16623   5.460   9.680   5.349 -0.6937  0.2384  0.1958
  124MOL0     C16624   5.560   9.742   5.408  0.0500  0.0482 -0.2313
  124MOL0     C16625   5.645   9.685   5.509  0.4010  0.7001 -0.7729
  124MOL0     C16626   5.588   9.700   5.647 -0.9376 -0.3843 -0.3044
  124MOL0     C16627   5.650   9.602   5.745  0.1268  0.6198  0.0995
  124MOL0     C16628   5.782   9.655   5.808  0.0964  0.9002 -0.2635
  124MOL0     O16629   5.818   9.574   5.923  0.1723  0.3030 -0.0822
  124MOL0     C16630   5.926   9.619   6.003 -0.3721  0.6211  0.3885
  124MOL0     C16631   6.027   9.720   5.969 -0.0252  0.6965 -0.5334
  124MOL0     C16632   6.116   9.769   6.060 -0.9144  0.4152 -0.5032
  124MOL0     C16633   6.122   9.718   6.192 -0.2709 -0.3198 -0.1004
  124MOL0     C16634   6.214   9.776   6.289 -0.3385  0.1404 -0.5423
  124MOL0     O16635   6.216   9.695   6.400  0.0519  0.5141 -0.0701
  124MOL0     C16636   6.305   9.736   6.498 -0.7501  0.7977 -0.4681
  124MOL0     C16637   6.270   9.822   6.601 -0.1131  0.9794 -0.3887
  124MOL0     C16638   6.369   9.848   6.696  0.0106  0.3852 -0.2222
  124MOL0     C16639   6.499   9.785   6.700 -0.0573  0.1100 -0.0883
  124MOL0     O16640   6.592   9.799   6.793 -0.2045 -0.3712 -0.0012
  124MOL0     C16641   6.590   9.891   6.905  0.2403  0.3960 -0.5279
  124MOL0     C16642   6.725   9.867   6.981 -0.6108 -0.6032 -0.3191
  124MOL0     C16643   6.837   9.951   6.929  1.1452  0.5231  0.6395
  124MOL0     C16644   6.966   9.900   6.980  0.3467 -0.3672  1.1134
  124MOL0     C16645   7.080   9.983   6.947  0.0453 -0.2207  0.0736
  124MOL0     C16646   7.209   9.944   7.010  0.5075 -0.1973  1.2340
  124MOL0     C16647   7.321  10.042   6.963 -0.2941 -0.1733 -0.0279
  124MOL0     C16648   7.325  10.178   7.031 -0.5319 -0.4809 -0.6749
  124MOL0    Cl16649   7.493  10.245   7.002  0.1395 -0.0848  0.6115
  124MOL0     C16650   6.527   9.690   6.598 -0.6077 -0.1718  0.1839
  124MOL0     C16651   6.427   9.666   6.499 -0.7041 -0.7742 -1.0668
  124MOL0     O16652   6.290   9.867   6.269 -0.2578  0.3802 -0.8780
  124MOL0     C16653   6.034   9.608   6.226 -0.8300 -1.1726  0.1163
  124MOL0     C16654   5.943   9.560   6.126 -0.2200  0.0460  0.5860
  124MOL0     N16655   5.596   9.849   5.331 -0.0559  0.2420 -0.4651
  124MOL0     N16656   5.509   9.866   5.237  0.3344  0.4490  0.0717
  124MOL0     C16657   4.477   9.828   5.929 -0.3328  0.1225  0.2995
  124MOL0     C16658   4.372   9.866   6.011  0.3326 -0.8523  0.3524
  124MOL0     C16659   4.090  10.134   6.266  0.3442 -0.2777 -0.0816
  124MOL0     C16660   4.028  10.013   6.312  0.0054 -0.3601 -0.0865
  124MOL0     C16661   3.903  10.012   6.376 -0.1234  0.0848 -0.6082
  124MOL0     C16662   3.835  10.128   6.392 -1.1153  0.0556  0.3803
  124MOL0     O16663   3.712  10.141   6.441  0.8423 -1.1013 -0.3566
  124MOL0     C16664   3.630  10.025   6.472  0.8476  0.6365 -0.4999
  124MOL0     C16665   3.485  10.071   6.484 -0.3185 -0.7185 -0.9020
  124MOL0     C16666   3.397   9.957   6.524 -0.0281  0.6344 -0.1375
  124MOL0     C16667   3.249  10.005   6.509  0.0108 -0.7478 -0.6770
  124MOL0     C16668   3.152   9.935   6.605 -0.6911 -0.1656  0.4155
  124MOL0     C16669   3.082   9.880   6.684  0.4280 -0.7619 -0.1928
  124MOL0     C16670   3.901  10.247   6.360  0.0037 -0.0122 -0.4407
  124MOL0     C16671   4.025  10.253   6.299 -1.1647 -0.8653  0.4435
  124MOL0     C16672   4.078  10.392   6.313 -0.6602  0.3141 -0.0341
  124MOL0     H16673   4.482  10.162   6.124  0.4638 -1.5383  0.6356
  124MOL0     H16674   4.672  10.108   5.960  0.1264 -0.8024  1.9733
  124MOL0     H16675   4.665  10.044   5.680 -0.2639 -0.2001  1.1355
  124MOL0     H16676   4.812  10.045   5.775  0.8140 -1.9304  2.6049
  124MOL0     H16677   4.735   9.844   5.568  0.6134 -1.4685  0.3750
  124MOL0     H16678   4.890   9.840   5.655  1.9220  0.0401 -4.4005
  124MOL0     H16679   4.941  10.084   5.588  1.1164  1.2543 -2.0002
  124MOL0     H16680   4.819  10.043   5.470  0.9125 -0.6786 -1.2239
  124MOL0     H16681   5.097   9.918   5.529  0.7046 -0.7190 -0.2524
  124MOL0     H16682   4.986   9.819   5.440  2.1193 -0.1296 -1.7821
  124MOL0     H16683   4.963   9.993   5.267 -0.6622 -1.0350  2.5600
  124MOL0     H16684   5.072  10.097   5.354 -1.2638  1.0853 -1.0318
  124MOL0     H16685   5.205   9.996   5.186 -0.7736  0.1005  0.2277
  124MOL0     H16686   5.260   9.940   5.347 -1.1885  1.4345  1.0034
  124MOL0     H16687   5.095   9.766   5.157  1.3004 -1.2079 -1.4574
  124MOL0     H16688   5.158   9.715   5.317  1.7067 -2.3570 -1.6098
  124MOL0     H16689   5.304   9.643   5.119 -2.3359 -0.4032 -0.6473
  124MOL0     H16690   5.324   9.815   5.072  1.4107 -1.3892 -0.8147
  124MOL0     H16691   5.424   9.589   5.396  0.1218 -0.8991 -1.2928
  124MOL0     H16692   5.654   9.577   5.494 -0.9864 -0.1391  3.1374
  124MOL0     H16693   5.744   9.728   5.494  1.1254  0.0808  1.7621
  124MOL0     H16694   5.602   9.804   5.676 -2.6078  1.3205 -4.6296
  124MOL0     H16695   5.480   9.685   5.653 -0.9739  0.4431  2.8454
  124MOL0     H16696   5.673   9.508   5.693  1.6120  1.0707 -0.1140
  124MOL0     H16697   5.572   9.581   5.819 -1.0846 -2.1646 -1.7750
  124MOL0     H16698   5.783   9.762   5.830  1.5400  0.7573  0.4938
  124MOL0     H16699   5.863   9.648   5.734  2.0211  2.6051  1.5484
  124MOL0     H16700   6.041   9.773   5.875  3.4473  2.7531  0.9318
  124MOL0     H16701   6.182   9.851   6.036  0.3245 -0.7482 -1.2000
  124MOL0     H16702   6.166   9.848   6.609 -0.4278 -0.1912 -0.4193
  124MOL0     H16703   6.347   9.910   6.783 -0.1754  0.2289 -0.1566
  124MOL0     H16704   6.573   9.993   6.869 -0.6224 -0.2739 -2.1473
  124MOL0     H16705   6.512   9.862   6.976  0.6625 -0.7684 -0.5148
  124MOL0     H16706   6.701   9.901   7.083 -0.0062 -2.3805  0.4443
  124MOL0     H16707   6.744   9.760   6.974 -1.9645 -0.8547 -0.5598
  124MOL0     H16708   6.839   9.929   6.822  1.6618  0.2192  0.7080
  124MOL0     H16709   6.826  10.059   6.946  1.1453  1.2729 -3.3034
  124MOL0     H16710   6.985   9.801   6.939  1.0555  0.9356 -2.0012
  124MOL0     H16711   6.962   9.890   7.089  1.7260 -3.7057  0.9518
  124MOL0     H16712   7.058  10.083   6.988  0.9014  0.2744 -0.6301
  124MOL0     H16713   7.083   9.982   6.838  0.7266 -0.9538  0.0931
  124MOL0     H16714   7.209   9.940   7.119  2.2243 -1.4988  1.2412
  124MOL0     H16715   7.226   9.840   6.979 -2.0975  0.5185 -3.6146
  124MOL0     H16716   7.315  10.070   6.858  0.5382  2.0553  0.4703
  124MOL0     H16717   7.421  10.001   6.979  0.2074  0.4920 -1.3615
  124MOL0     H16718   7.243  10.247   7.009 -0.0796 -0.2737 -1.7885
  124MOL0     H16719   7.326  10.178   7.140  0.3487  1.4736 -0.6322
  124MOL0     H16720   6.625   9.644   6.597 -1.7366 -2.8286  1.4102
  124MOL0     H16721   6.456   9.599   6.419  2.4993 -2.9275  1.5955
  124MOL0     H16722   6.038   9.571   6.329  0.2744  2.4085  1.4998
  124MOL0     H16723   5.883   9.477   6.162  0.0523 -0.7504 -0.7027
  124MOL0     H16724   4.480   9.730   5.883  1.7084  0.0834  0.4026
  124MOL0     H16725   4.286   9.805   6.035 -2.8828  3.5252  1.3515
  124MOL0     H16726   4.072   9.916   6.291  2.2149 -0.1068  2.7178
  124MOL0     H16727   3.849   9.919   6.394  3.2314 -2.0148 -0.4449
  124MOL0     H16728   3.659   9.972   6.563 -2.5874 -0.2516  0.1969
  124MOL0     H16729   3.635   9.958   6.385 -1.5327  0.0674 -0.2561
  124MOL0     H16730   3.447  10.118   6.393 -2.2297  1.6714  1.0197
  124MOL0     H16731   3.485  10.151   6.558 -0.0981 -3.7959  2.7408
  124MOL0     H16732   3.415   9.927   6.628  2.0205  0.0412 -0.6225
  124MOL0     H16733   3.422   9.881   6.450  0.2806  1.3388 -0.7673
  124MOL0     H16734   3.242  10.111   6.534  2.9104 -1.0195  1.9483
  124MOL0     H16735   3.214   9.992   6.406  2.4881 -1.0954 -1.5388
  124MOL0     H16736   3.038   9.825   6.765  0.4915  1.6941  1.6300
  124MOL0     H16737   3.856  10.343   6.384 -1.9581 -0.5596 -1.7234
  124MOL0     H16738   3.994  10.456   6.285 -2.4992 -2.1403 -0.5890
  124MOL0     H16739   4.123  10.411   6.410 -0.1878  2.7259 -0.6624
  124MOL0     H16740   4.152  10.405   6.233 -1.4482 -1.3202 -1.0867
  125MOL0     O16741  10.586   7.376   0.828 -0.2172 -0.5888 -0.4388
  125MOL0     C16742  10.603   7.439   0.726  0.8074 -0.0760 -1.1254
  125MOL0     O16743  10.719   7.439   0.656 -0.1056 -0.4943  0.6146
  125MOL0     C16744  10.832   7.383   0.705 -0.8262 -0.0286  0.7932
  125MOL0     C16745  10.955   7.456   0.709  0.3091  0.0810  0.9353
  125MOL0     C16746  11.078   7.392   0.728 -0.0325  0.8406 -0.0500
  125MOL0     C16747  11.081   7.248   0.747 -0.8377 -0.0649  0.1057
  125MOL0     O16748  11.195   7.180   0.773 -0.2247 -0.6513  0.0859
  125MOL0     C16749  11.305   7.234   0.850  0.9628 -0.9503  0.2184
  125MOL0     C16750  11.423   7.149   0.847  0.1567  0.1872 -0.0075
  125MOL0     C16751  11.551   7.217   0.900  0.7713 -0.3231 -0.1141
  125MOL0     C16752  11.656   7.107   0.920 -0.1711 -0.7732 -0.0708
  125MOL0     C16753  11.777   7.163   1.002 -1.3732  0.5058 -0.4075
  125MOL0     C16754  11.863   7.040   1.036  0.2963  0.0367 -0.6706
  125MOL0     C16755  11.974   7.071   1.137 -0.0094 -0.0477 -0.9877
  125MOL0     C16756  12.057   6.942   1.171 -0.0936  0.4450 -0.1904
  125MOL0     N16757  12.176   6.974   1.249 -0.4638 -0.4857  0.3505
  125MOL0     C16758  12.173   6.993   1.387 -0.5156 -0.4738 -0.0697
  125MOL0     C16759  12.290   7.060   1.418  0.9824  1.0730  0.4393
  125MOL0     C16760  12.337   7.117   1.554 -0.0802 -0.2147  0.6036
  125MOL0     C16761  12.490   7.130   1.574 -0.5499 -0.2547  0.5915
  125MOL0     C16762  12.513   7.193   1.703 -0.6255 -0.1947 -0.3281
  125MOL0     C16763  12.656   7.243   1.726 -0.4422 -0.3746 -1.1544
  125MOL0     O16764  12.677   7.334   1.830  0.5294 -0.7355 -0.1458
  125MOL0     C16765  12.812   7.374   1.853 -0.2702 -0.2194  1.3086
  125MOL0     C16766  12.931   7.329   1.782 -0.7160  0.2068  0.0374
  125MOL0     C16767  13.055   7.386   1.806 -0.0062  0.0489 -0.3364
  125MOL0     C16768  13.072   7.468   1.920 -0.6935 -0.1266 -0.2377
  125MOL0     C16769  13.212   7.525   1.948  0.5074 -0.0529  0.2393
  125MOL0     O16770  13.227   7.612   2.051 -0.1085 -0.0460  0.1897
  125MOL0     C16771  13.356   7.649   2.075  0.1801 -0.1614  0.9065
  125MOL0     C16772  13.429   7.733   1.988 -0.0114 -1.2348  0.6585
  125MOL0     C16773  13.562   7.763   2.027 -0.2050 -0.1620 -0.0710
  125MOL0     C16774  13.617   7.729   2.145 -0.0501  0.2285  0.1283
  125MOL0     O16775  13.750   7.767   2.157  0.2829  0.6418  0.1010
  125MOL0     C16776  13.838   7.689   2.243  0.4030  0.4985  0.4579
  125MOL0     C16777  13.982   7.708   2.198 -0.2892 -0.3534 -0.3333
  125MOL0     C16778  14.049   7.851   2.213 -0.3805  0.2687 -0.5582
  125MOL0     C16779  14.209   7.823   2.194  0.9119 -0.2698 -0.7952
  125MOL0     C16780  14.284   7.938   2.269  0.6997  1.1452  0.3521
  125MOL0     C16781  14.411   7.981   2.203 -0.1422 -0.0246 -0.2454
  125MOL0     C16782  14.526   7.901   2.264 -0.1217 -0.2410  0.1722
  125MOL0     C16783  14.665   7.920   2.194 -0.5217 -0.8394 -0.2686
  125MOL0    Cl16784  14.721   8.096   2.199  0.3666 -0.5021 -0.3018
  125MOL0     C16785  13.539   7.655   2.238 -0.7184 -0.7748 -0.6996
  125MOL0     C16786  13.414   7.610   2.199  0.2400  0.5430 -0.0720
  125MOL0     O16787  13.303   7.486   1.878  0.7144 -0.3662  0.4942
  125MOL0     C16788  12.967   7.509   2.002  0.9773  0.0986 -0.0639
  125MOL0     C16789  12.836   7.466   1.970 -0.2241 -0.0686  0.3697
  125MOL0     N16790  12.359   7.074   1.300 -0.0323 -0.5164 -0.2591
  125MOL0     N16791  12.295   7.019   1.204  0.2555  0.5812 -0.2901
  125MOL0     C16792  10.959   7.180   0.757 -0.7003  0.1619 -0.1333
  125MOL0     C16793  10.842   7.253   0.732 -0.4192  0.3680 -0.5978
  125MOL0     C16794  10.486   7.514   0.674  0.3978  0.9252  0.2528
  125MOL0     C16795  10.359   7.467   0.688  0.1475  1.1559 -0.6732
  125MOL0     C16796  10.248   7.535   0.641 -0.1778 -0.2079  0.7119
  125MOL0     C16797  10.265   7.660   0.575 -0.6092 -0.4609  0.0717
  125MOL0     O16798  10.172   7.733   0.501  0.3662  0.0271 -0.0124
  125MOL0     C16799  10.034   7.685   0.466 -0.2853  0.1946  0.0072
  125MOL0     C16800  10.036   7.617   0.332 -0.3372 -0.0737 -0.4569
  125MOL0     C16801  10.107   7.485   0.321  0.6584  0.0559  0.2051
  125MOL0     C16802  10.111   7.439   0.182 -0.1671  0.1450  0.3235
  125MOL0     C16803   9.983   7.415   0.128  0.7427 -0.3283  0.1781
  125MOL0     C16804   9.870   7.399   0.093 -0.1899 -0.3031  0.0164
  125MOL0     C16805  10.396   7.709   0.569  0.0011 -0.4668 -0.0292
  125MOL0     C16806  10.505   7.640   0.619  0.4715 -0.7056 -0.2809
  125MOL0     C16807  10.640   7.712   0.612  0.1272  0.2669 -0.2877
  125MOL0     H16808  10.960   7.562   0.688 -2.1046 -0.1419 -1.2381
  125MOL0     H16809  11.166   7.455   0.723 -1.3482  2.6473 -1.5251
  125MOL0     H16810  11.341   7.329   0.809  0.4864 -0.5015  0.8156
  125MOL0     H16811  11.275   7.257   0.953  1.5079  0.9587 -0.0099
  125MOL0     H16812  11.440   7.123   0.742  2.2737 -1.7960  0.7541
  125MOL0     H16813  11.399   7.053   0.893 -0.7202  0.0245 -0.7625
  125MOL0     H16814  11.546   7.265   0.998 -0.4642  2.3286 -1.3593
  125MOL0     H16815  11.579   7.297   0.830 -3.1756  0.4524 -1.0375
  125MOL0     H16816  11.617   7.022   0.977 -1.6424 -0.9830 -1.3399
  125MOL0     H16817  11.683   7.070   0.820 -0.4152 -1.6507  0.1748
  125MOL0     H16818  11.836   7.236   0.946  0.6311  0.2912  1.2901
  125MOL0     H16819  11.736   7.219   1.086 -1.8456  1.2000 -1.0862
  125MOL0     H16820  11.799   6.957   1.068 -0.8399  0.9737 -0.4409
  125MOL0     H16821  11.913   7.001   0.947  0.8726  1.3021 -0.9204
  125MOL0     H16822  11.934   7.117   1.227 -0.4060  3.2446 -2.6927
  125MOL0     H16823  12.044   7.144   1.096  0.1126 -0.2121 -1.0768
  125MOL0     H16824  11.991   6.872   1.224  1.2561 -0.2838  0.5793
  125MOL0     H16825  12.096   6.880   1.091 -0.5200 -0.6566  0.4313
  125MOL0     H16826  12.086   6.981   1.451 -0.4227 -0.3994  0.0710
  125MOL0     H16827  12.280   7.210   1.563  1.4145  0.6754  1.2122
  125MOL0     H16828  12.304   7.050   1.633 -0.4453 -0.9078 -0.1248
  125MOL0     H16829  12.536   7.031   1.583  2.3289  1.0087  0.7738
  125MOL0     H16830  12.535   7.180   1.488 -1.0121 -0.0155  0.4878
  125MOL0     H16831  12.511   7.120   1.784 -0.2229 -0.2384 -0.3538
  125MOL0     H16832  12.442   7.273   1.728  1.2236  1.4105  0.0861
  125MOL0     H16833  12.690   7.300   1.639 -0.3920  2.1690  0.4252
  125MOL0     H16834  12.713   7.154   1.754  1.2670  1.2844  0.9784
  125MOL0     H16835  12.921   7.260   1.698  0.6708 -2.8123  2.1836
  125MOL0     H16836  13.134   7.345   1.744  1.2337  2.2871 -0.3632
  125MOL0     H16837  13.382   7.768   1.896  1.2886  2.6938  1.3056
  125MOL0     H16838  13.615   7.822   1.953  0.7257 -1.2381 -0.2984
  125MOL0     H16839  13.831   7.715   2.349 -1.9761  1.4863  0.1147
  125MOL0     H16840  13.814   7.583   2.225  1.9358 -0.3261  2.7484
  125MOL0     H16841  14.039   7.639   2.261 -0.1140 -1.6516 -1.8493
  125MOL0     H16842  13.994   7.678   2.094 -1.0399  1.1309 -0.8794
  125MOL0     H16843  13.996   7.912   2.139 -3.5421  1.1415  2.1914
  125MOL0     H16844  14.027   7.886   2.314 -1.3241 -0.8430 -0.3658
  125MOL0     H16845  14.230   7.805   2.089 -0.1952 -0.5401 -0.9852
  125MOL0     H16846  14.238   7.731   2.246  4.5059  0.9365 -0.3988
  125MOL0     H16847  14.302   7.905   2.372 -0.2062  1.5936  0.6660
  125MOL0     H16848  14.221   8.028   2.270 -0.5245  0.3966 -1.9844
  125MOL0     H16849  14.400   7.961   2.096 -2.3968 -2.6418  0.3640
  125MOL0     H16850  14.430   8.088   2.210 -3.0740  0.5170  0.7707
  125MOL0     H16851  14.510   7.793   2.257  2.1020 -0.5456 -1.3825
  125MOL0     H16852  14.533   7.942   2.365 -0.0804  1.8468 -0.6148
  125MOL0     H16853  14.736   7.855   2.245 -1.7258 -2.2439 -0.2917
  125MOL0     H16854  14.651   7.885   2.091  1.4257  1.4809 -1.4197
  125MOL0     H16855  13.569   7.614   2.334 -0.4050  0.7202 -0.1285
  125MOL0     H16856  13.359   7.544   2.266  0.3772 -1.3356 -1.7318
  125MOL0     H16857  12.986   7.572   2.088 -1.1021  2.5544 -1.2453
  125MOL0     H16858  12.750   7.484   2.034  1.5753  0.9800  2.6023
  125MOL0     H16859  10.963   7.073   0.774  2.3319  0.1164 -0.5143
  125MOL0     H16860  10.746   7.202   0.739 -0.5141  0.7219  1.1169
  125MOL0     H16861  10.349   7.369   0.733  2.5713  1.2652  0.1948
  125MOL0     H16862  10.151   7.487   0.653 -0.1822 -0.7050 -1.1257
  125MOL0     H16863   9.955   7.761   0.470 -0.3716  0.0643  2.1745
  125MOL0     H16864   9.996   7.609   0.536 -1.3767  1.5202  0.9111
  125MOL0     H16865  10.077   7.676   0.250 -0.1125  1.9371  1.0436
  125MOL0     H16866   9.928   7.608   0.314 -0.1682 -2.0442 -0.7741
  125MOL0     H16867  10.059   7.406   0.380  0.7305 -1.8705 -2.1605
  125MOL0     H16868  10.210   7.491   0.356  2.0783 -3.8784 -2.5906
  125MOL0     H16869  10.152   7.513   0.113 -0.3289  1.8620  1.9728
  125MOL0     H16870  10.164   7.344   0.173 -0.9837 -0.2242 -0.7606
  125MOL0     H16871   9.765   7.406   0.075  0.0903  1.4987 -1.2621
  125MOL0     H16872  10.414   7.810   0.534 -0.5757  0.1020  1.2725
  125MOL0     H16873  10.619   7.813   0.648 -2.3235  0.2169 -1.3389
  125MOL0     H16874  10.724   7.670   0.668  0.4086 -1.2310 -1.7407
  125MOL0     H16875  10.671   7.714   0.507  2.5704  0.9549  0.3798
  126MOL0     O16876   4.701   4.071   4.740 -0.4473 -0.5591 -0.1827
  126MOL0     C16877   4.639   4.019   4.838 -0.0540 -0.0480 -0.2132
  126MOL0     O16878   4.695   4.005   4.966  0.4329 -0.5753 -0.7084
  126MOL0     C16879   4.827   4.023   4.968  0.8627 -0.1830  0.1378
  126MOL0     C16880   4.912   3.931   4.907  0.7428 -0.5365 -0.2789
  126MOL0     C16881   5.046   3.957   4.915 -0.0782 -0.1989 -0.1136
  126MOL0     C16882   5.098   4.070   4.982  0.3725 -0.3655 -0.4850
  126MOL0     O16883   5.232   4.098   4.999  0.1734 -0.2718  0.3644
  126MOL0     C16884   5.322   3.991   4.996  0.3043 -0.5589 -0.1962
  126MOL0     C16885   5.451   4.051   5.073 -0.7128  1.1183  0.7053
  126MOL0     C16886   5.497   4.175   4.998  0.4986 -1.2076  0.3055
  126MOL0     C16887   5.638   4.210   5.046 -0.8680 -0.6098 -0.7086
  126MOL0     C16888   5.698   4.336   4.983  0.7726  0.3983  0.2652
  126MOL0     C16889   5.816   4.318   4.882 -0.1479  0.8692 -0.1434
  126MOL0     C16890   5.788   4.238   4.753 -0.4762 -0.4681 -0.3278
  126MOL0     C16891   5.674   4.288   4.668 -0.2438  0.2216 -0.0991
  126MOL0     N16892   5.683   4.252   4.530 -0.0699 -0.3188 -0.1546
  126MOL0     C16893   5.767   4.306   4.429 -0.3166 -1.0849  0.0517
  126MOL0     C16894   5.757   4.224   4.324  0.9519  0.0444  0.7553
  126MOL0     C16895   5.842   4.242   4.197 -0.4805 -1.0692  1.1303
  126MOL0     C16896   5.994   4.261   4.219  0.7147 -0.0602 -0.0256
  126MOL0     C16897   6.043   4.129   4.273 -0.0236  0.4233  0.4166
  126MOL0     C16898   6.187   4.143   4.326 -0.0142 -0.7782 -1.1621
  126MOL0     O16899   6.196   4.240   4.431 -0.6626 -0.4526 -0.1266
  126MOL0     C16900   6.322   4.276   4.477 -0.2875 -0.7587 -0.2541
  126MOL0     C16901   6.434   4.213   4.430 -0.9503  0.0772  0.7265
  126MOL0     C16902   6.562   4.258   4.456 -0.7932  0.9923  0.1709
  126MOL0     C16903   6.576   4.377   4.532 -0.3925  0.9140  1.3223
  126MOL0     C16904   6.713   4.422   4.563  0.2308  0.0994 -0.2498
  126MOL0     O16905   6.713   4.528   4.644  0.1608  0.5719 -0.1267
  126MOL0     C16906   6.826   4.575   4.709  0.0659 -0.8878 -0.3978
  126MOL0     C16907   6.803   4.599   4.842  0.1585 -0.1478  0.5169
  126MOL0     C16908   6.902   4.660   4.920  0.4744  0.2401 -0.0157
  126MOL0     C16909   7.024   4.682   4.864 -0.4716 -0.7595  0.2734
  126MOL0     O16910   7.116   4.740   4.948 -0.1433 -0.5012  0.0781
  126MOL0     C16911   7.262   4.742   4.918 -0.1290 -0.8916 -0.3479
  126MOL0     C16912   7.341   4.826   5.020  0.3133 -0.5823  0.1849
  126MOL0     C16913   7.332   4.760   5.154  1.4026  0.1796  1.2164
  126MOL0     C16914   7.394   4.833   5.269 -0.2929  0.3635  0.3371
  126MOL0     C16915   7.391   4.744   5.400 -0.0536  0.2961 -0.6152
  126MOL0     C16916   7.470   4.814   5.510  0.9273  0.3110 -0.0452
  126MOL0     C16917   7.619   4.766   5.504  0.6495 -0.1401 -0.0955
  126MOL0     C16918   7.710   4.837   5.602  0.7922  0.5049 -0.3367
  126MOL0    Cl16919   7.662   5.014   5.635 -0.0842  0.0646  0.2680
  126MOL0     C16920   7.051   4.647   4.723 -1.0016 -0.4821  0.1373
  126MOL0     C16921   6.949   4.596   4.646  0.0616  0.5126  0.4682
  126MOL0     O16922   6.808   4.352   4.533 -0.5840 -0.2070 -0.5391
  126MOL0     C16923   6.452   4.444   4.575 -0.2000  0.3775  0.6616
  126MOL0     C16924   6.326   4.396   4.537 -0.0861 -0.4135 -0.3984
  126MOL0     N16925   5.672   4.121   4.354 -0.2436  0.0398 -0.1104
  126MOL0     N16926   5.635   4.139   4.479 -0.4043  0.0802  0.4504
  126MOL0     C16927   5.008   4.149   5.048  0.5644 -0.0186 -0.5563
  126MOL0     C16928   4.873   4.126   5.044  0.3417  0.3568 -1.3382
  126MOL0     C16929   4.495   3.997   4.824  0.6043 -0.7196  0.5964
  126MOL0     C16930   4.405   4.064   4.911 -0.5885 -0.4134  0.5879
  126MOL0     C16931   4.267   4.044   4.907 -0.5916 -0.3863 -0.9654
  126MOL0     C16932   4.206   3.968   4.803  0.4309  0.2874  0.8447
  126MOL0     O16933   4.075   3.952   4.782  0.2112 -1.0829  0.8484
  126MOL0     C16934   3.999   4.029   4.884  0.8744  0.0894  0.2810
  126MOL0     C16935   3.847   4.013   4.879 -0.0129 -0.1731  0.2956
  126MOL0     C16936   3.788   4.076   4.755  0.2394  0.2220  0.3808
  126MOL0     C16937   3.636   4.068   4.748 -0.4701  0.0411 -0.6620
  126MOL0     C16938   3.597   3.936   4.721 -0.2399 -0.0002 -0.1378
  126MOL0     C16939   3.582   3.816   4.702  0.5801  0.8358  0.3149
  126MOL0     C16940   4.292   3.900   4.721 -0.3751  0.6963 -0.0603
  126MOL0     C16941   4.435   3.914   4.724  0.2635 -0.4352 -0.3816
  126MOL0     C16942   4.511   3.839   4.613 -0.2938 -0.4816  0.0058
  126MOL0     H16943   4.878   3.841   4.857 -0.3421  0.3877 -1.2668
  126MOL0     H16944   5.118   3.886   4.876  0.2480 -2.9803  4.6867
  126MOL0     H16945   5.279   3.908   5.054 -0.4118 -0.2962 -0.3430
  126MOL0     H16946   5.343   3.954   4.895  1.2556 -0.0531 -0.1978
  126MOL0     H16947   5.535   3.982   5.084  0.6469  2.6970  0.5365
  126MOL0     H16948   5.421   4.072   5.176  0.9418  3.0948  0.8413
  126MOL0     H16949   5.424   4.255   5.016 -0.2438 -2.2969  2.4870
  126MOL0     H16950   5.497   4.165   4.889 -0.5482  3.5707 -0.3904
  126MOL0     H16951   5.636   4.228   5.154 -0.3155  0.6937 -0.9014
  126MOL0     H16952   5.704   4.124   5.031 -1.1957 -0.3341 -4.8419
  126MOL0     H16953   5.622   4.394   4.930 -1.4160 -3.8382 -1.7975
  126MOL0     H16954   5.719   4.399   5.070 -0.6597  0.9097  0.2724
  126MOL0     H16955   5.866   4.415   4.870  2.7551 -0.2725  1.6292
  126MOL0     H16956   5.895   4.262   4.933  0.9146 -1.7334 -4.1815
  126MOL0     H16957   5.775   4.131   4.775 -2.3057 -0.2205 -0.0042
  126MOL0     H16958   5.881   4.243   4.697  0.8627 -0.9353  1.7309
  126MOL0     H16959   5.579   4.247   4.705 -1.0246  0.7318 -1.4579
  126MOL0     H16960   5.662   4.396   4.676 -3.3840 -0.0060 -0.1158
  126MOL0     H16961   5.832   4.393   4.439 -2.8338  0.8223  0.9774
  126MOL0     H16962   5.828   4.152   4.136  0.0010  0.8856 -2.1315
  126MOL0     H16963   5.807   4.323   4.133  0.9195 -1.6429 -0.4428
  126MOL0     H16964   6.040   4.289   4.124 -0.5581 -1.6028 -1.1593
  126MOL0     H16965   6.013   4.347   4.284 -0.4605  0.3113 -0.1356
  126MOL0     H16966   6.038   4.069   4.182  1.6652 -1.8283  1.7077
  126MOL0     H16967   5.975   4.078   4.341  0.0605 -1.8576 -1.1111
  126MOL0     H16968   6.235   4.190   4.240  1.2242 -1.0230 -0.6261
  126MOL0     H16969   6.241   4.050   4.347  1.4288  0.0189 -1.1929
  126MOL0     H16970   6.425   4.117   4.382  1.4263 -0.0308  0.3535
  126MOL0     H16971   6.650   4.210   4.415 -0.9903 -0.1664  1.0418
  126MOL0     H16972   6.705   4.578   4.884  0.0875 -0.5549  0.1504
  126MOL0     H16973   6.887   4.672   5.027  0.2032  2.2195 -0.2342
  126MOL0     H16974   7.300   4.640   4.908 -0.7760 -1.0066 -1.8020
  126MOL0     H16975   7.276   4.798   4.825 -1.4017  0.0919  0.0115
  126MOL0     H16976   7.448   4.832   4.994  0.6316 -1.2465  1.2692
  126MOL0     H16977   7.303   4.928   5.017  2.6437  0.3433 -1.4281
  126MOL0     H16978   7.224   4.756   5.174  0.9399  0.2028 -1.0719
  126MOL0     H16979   7.379   4.661   5.149  0.4445 -0.3920  2.7587
  126MOL0     H16980   7.343   4.929   5.284 -2.7310 -1.0607  1.8240
  126MOL0     H16981   7.496   4.854   5.235 -1.0830  0.0530 -2.4778
  126MOL0     H16982   7.425   4.641   5.385  0.3350  0.0136  1.8012
  126MOL0     H16983   7.287   4.730   5.428 -0.3865 -3.4608 -2.9861
  126MOL0     H16984   7.482   4.921   5.490  3.1445 -0.1813 -1.7862
  126MOL0     H16985   7.419   4.798   5.605 -1.2121  0.3456 -1.1197
  126MOL0     H16986   7.655   4.794   5.404 -0.6787 -0.6239 -0.7431
  126MOL0     H16987   7.632   4.657   5.502  0.4788 -0.1511 -0.8086
  126MOL0     H16988   7.713   4.786   5.700  2.1518  3.2307  1.1390
  126MOL0     H16989   7.812   4.839   5.564  1.6857  0.9315  1.9251
  126MOL0     H16990   7.150   4.661   4.679 -0.9207 -0.9088  0.1819
  126MOL0     H16991   6.974   4.567   4.544  2.1624  2.2213  0.4290
  126MOL0     H16992   6.465   4.536   4.631  0.3214  1.0310 -0.4916
  126MOL0     H16993   6.233   4.452   4.549 -0.8730 -1.4520 -1.4227
  126MOL0     H16994   5.026   4.225   5.123 -0.8937 -4.0816  4.4418
  126MOL0     H16995   4.802   4.188   5.097 -0.6431 -1.8523  0.0465
  126MOL0     H16996   4.432   4.138   4.986 -0.1676 -1.4683  1.4997
  126MOL0     H16997   4.200   4.095   4.976 -1.2746 -3.0192  0.4275
  126MOL0     H16998   4.022   4.134   4.902 -0.9779 -0.1011  5.4928
  126MOL0     H16999   4.032   3.978   4.975 -0.3295  0.4328  0.9242
  126MOL0     H17000   3.806   4.075   4.959 -2.4708  2.4305 -2.7034
  126MOL0     H17001   3.822   3.907   4.883  0.4842 -0.5538 -3.3245
  126MOL0     H17002   3.830   4.045   4.659  3.3860  3.6399  0.4238
  126MOL0     H17003   3.811   4.183   4.758  2.2702 -0.1983  2.2886
  126MOL0     H17004   3.594   4.110   4.839 -0.9028 -1.4536 -0.1333
  126MOL0     H17005   3.597   4.131   4.667 -0.8744 -0.5993 -0.9765
  126MOL0     H17006   3.571   3.710   4.700 -0.8429  0.9754 -0.5169
  126MOL0     H17007   4.250   3.841   4.640 -2.9797  3.0595 -0.6154
  126MOL0     H17008   4.571   3.914   4.561 -0.8100 -0.3383 -0.3907
  126MOL0     H17009   4.564   3.751   4.652  2.9794  0.3876 -2.0391
  126MOL0     H17010   4.454   3.792   4.532  0.4113 -1.9768  0.3242
  127MOL0     O17011   1.680   3.607  11.106  0.4553  0.4704 -0.5075
  127MOL0     C17012   1.634   3.640  10.995 -0.7288 -0.4514  0.2577
  127MOL0     O17013   1.711   3.689  10.888  0.1451 -0.1230  0.4555
  127MOL0     C17014   1.847   3.692  10.890 -0.4152 -0.1399 -0.0873
  127MOL0     C17015   1.910   3.735  11.010  0.1594  0.3578  0.7520
  127MOL0     C17016   2.052   3.734  11.024  0.4976  0.2267  0.9138
  127MOL0     C17017   2.132   3.683  10.920 -0.0546 -0.6029 -0.3931
  127MOL0     O17018   2.269   3.659  10.928 -0.3710  0.1573 -0.0183
  127MOL0     C17019   2.342   3.702  11.046  0.1355 -0.4030 -0.6113
  127MOL0     C17020   2.340   3.593  11.151  0.4747  0.0315  0.2316
  127MOL0     C17021   2.492   3.575  11.184 -0.7170  0.1464 -0.2182
  127MOL0     C17022   2.511   3.483  11.303  0.1124  0.2627  0.1471
  127MOL0     C17023   2.656   3.449  11.343  0.5476 -0.3585 -0.4660
  127MOL0     C17024   2.660   3.368  11.467 -0.8528 -0.8181  0.7772
  127MOL0     C17025   2.796   3.313  11.494 -0.2787  0.8352 -0.4859
  127MOL0     C17026   2.923   3.405  11.514 -0.3214  0.0931 -0.0868
  127MOL0     N17027   3.033   3.300  11.513 -0.6060  1.2216  0.7574
  127MOL0     C17028   3.121   3.268  11.405  0.3539  0.0114  0.0869
  127MOL0     C17029   3.186   3.159  11.448  0.3475 -0.5040  0.2641
  127MOL0     C17030   3.300   3.082  11.385 -0.7151  0.7877 -0.1250
  127MOL0     C17031   3.435   3.147  11.416 -1.2409  0.1991  0.4903
  127MOL0     C17032   3.512   3.097  11.541 -0.1456  0.1442  0.1964
  127MOL0     C17033   3.623   3.196  11.591  0.1231  0.1576 -0.0101
  127MOL0     O17034   3.733   3.205  11.495 -0.0160  0.7365  0.2433
  127MOL0     C17035   3.819   3.308  11.513 -0.2931 -0.7168 -0.1734
  127MOL0     C17036   3.916   3.340  11.409 -0.2132  0.5333  1.1671
  127MOL0     C17037   4.009   3.441  11.428  0.5537 -0.0040 -0.6268
  127MOL0     C17038   4.010   3.517  11.548 -0.1380  0.0717  0.8324
  127MOL0     C17039   4.108   3.629  11.556 -0.7820 -0.0718 -0.6084
  127MOL0     O17040   4.200   3.648  11.454  0.1998  0.5588 -0.5221
  127MOL0     C17041   4.330   3.652  11.486 -0.8306 -0.2852 -0.4459
  127MOL0     C17042   4.408   3.538  11.531  0.4172  0.0918  0.4887
  127MOL0     C17043   4.535   3.555  11.575 -0.2042 -0.1396 -0.2965
  127MOL0     C17044   4.607   3.680  11.566  0.7941  0.8395  0.5550
  127MOL0     O17045   4.730   3.711  11.618  0.1237 -0.4140 -0.2384
  127MOL0     C17046   4.843   3.628  11.600  0.0324  0.3283  0.4141
  127MOL0     C17047   4.959   3.723  11.618  0.0204  0.2958 -0.3459
  127MOL0     C17048   5.104   3.655  11.589  0.6833 -1.2665  0.2368
  127MOL0     C17049   5.223   3.753  11.610 -0.0578  0.4249  0.3187
  127MOL0     C17050   5.356   3.684  11.637  0.4489  0.4706  0.1798
  127MOL0     C17051   5.466   3.775  11.647 -0.2334 -0.5460  0.4641
  127MOL0     C17052   5.594   3.723  11.715 -0.1802 -0.0245  0.5093
  127MOL0     C17053   5.707   3.834  11.730 -0.3350  0.6123  0.6280
  127MOL0    Cl17054   5.861   3.767  11.813 -0.2992  0.3948 -0.4602
  127MOL0     C17055   4.529   3.785  11.519 -0.4912 -0.4018  0.3592
  127MOL0     C17056   4.395   3.776  11.482  1.0938  0.1451  0.3015
  127MOL0     O17057   4.101   3.697  11.656 -0.7340 -0.0114 -0.0329
  127MOL0     C17058   3.922   3.480  11.654  0.7711 -0.3665 -0.8519
  127MOL0     C17059   3.821   3.381  11.632 -0.8618  0.1626 -0.1105
  127MOL0     N17060   3.152   3.125  11.570 -0.0409  0.0578  0.0456
  127MOL0     N17061   3.053   3.202  11.608 -0.8588  0.1493 -0.9040
  127MOL0     C17062   2.074   3.642  10.799 -0.5233 -0.0458 -0.1599
  127MOL0     C17063   1.938   3.642  10.785 -0.3403 -0.0114 -0.0773
  127MOL0     C17064   1.486   3.647  10.983 -0.1707  0.3341  0.5272
  127MOL0     C17065   1.416   3.615  11.100  0.2571 -0.1141  0.3650
  127MOL0     C17066   1.274   3.599  11.101 -0.0774  0.1463 -0.2789
  127MOL0     C17067   1.202   3.606  10.985 -0.1415  0.2539 -0.1139
  127MOL0     O17068   1.072   3.568  10.997 -0.4506  0.3153 -0.2535
  127MOL0     C17069   1.008   3.531  10.872  0.1049  0.2457 -0.2330
  127MOL0     C17070   0.872   3.474  10.898 -1.5480 -0.4358  0.4827
  127MOL0     C17071   0.774   3.581  10.935  0.8995  0.7476  0.1989
  127MOL0     C17072   0.636   3.513  10.944  0.1608 -0.8133 -0.3233
  127MOL0     C17073   0.530   3.617  10.971 -0.1528  1.6359 -0.0400
  127MOL0     C17074   0.438   3.697  10.993 -0.2748  0.2331  0.3044
  127MOL0     C17075   1.275   3.644  10.867  0.6500  0.4704 -0.2003
  127MOL0     C17076   1.412   3.664  10.860 -0.4908 -0.9817 -0.1235
  127MOL0     C17077   1.475   3.695  10.729  0.1488 -0.2517 -0.1532
  127MOL0     H17078   1.845   3.767  11.091 -1.6191  1.0495 -0.8776
  127MOL0     H17079   2.098   3.735  11.123  0.8143 -0.2609  0.7765
  127MOL0     H17080   2.444   3.729  11.016 -0.2317  0.1945 -1.3465
  127MOL0     H17081   2.291   3.787  11.092  0.7887 -0.8084  0.9308
  127MOL0     H17082   2.305   3.502  11.101  0.7932 -0.0404  0.1379
  127MOL0     H17083   2.275   3.618  11.234 -5.9977 -0.6246 -3.9299
  127MOL0     H17084   2.546   3.670  11.188  1.1135 -0.8618 -0.1381
  127MOL0     H17085   2.539   3.519  11.103  1.1845  0.8712  0.3384
  127MOL0     H17086   2.468   3.535  11.390  1.7535  1.9522  0.0259
  127MOL0     H17087   2.458   3.388  11.294 -2.0494  0.9975  3.4101
  127MOL0     H17088   2.711   3.392  11.267  1.5807 -1.3579  0.9616
  127MOL0     H17089   2.711   3.543  11.357  0.2797 -0.4153  1.1091
  127MOL0     H17090   2.639   3.434  11.552 -1.5042 -0.5065  0.3815
  127MOL0     H17091   2.582   3.291  11.470 -2.6861  0.9204 -0.1359
  127MOL0     H17092   2.815   3.233  11.422  0.2568  1.6568 -1.2723
  127MOL0     H17093   2.777   3.252  11.583 -2.7953 -1.1429 -2.2406
  127MOL0     H17094   2.939   3.460  11.421  0.4281  0.0194 -0.0064
  127MOL0     H17095   2.926   3.464  11.606  0.2366 -3.7127  2.6003
  127MOL0     H17096   3.126   3.310  11.305  2.2571  0.5824  0.3859
  127MOL0     H17097   3.295   2.982  11.429 -0.4822  1.7958  2.3746
  127MOL0     H17098   3.283   3.083  11.277 -1.3511 -0.5040 -0.0549
  127MOL0     H17099   3.485   3.141  11.319 -2.2409  0.3630 -0.0454
  127MOL0     H17100   3.420   3.255  11.428 -2.6027 -0.0702  1.4940
  127MOL0     H17101   3.557   2.998  11.525 -0.7933 -0.1365  0.0382
  127MOL0     H17102   3.432   3.088  11.616 -0.2089 -2.0937 -0.0700
  127MOL0     H17103   3.659   3.158  11.687  0.4494 -1.4703 -0.7398
  127MOL0     H17104   3.589   3.298  11.610 -1.4734  0.2693 -2.8357
  127MOL0     H17105   3.916   3.276  11.321  2.4305  1.7233  0.1894
  127MOL0     H17106   4.073   3.471  11.346  0.4743 -1.7367 -1.3624
  127MOL0     H17107   4.364   3.439  11.542 -1.4380  0.8987  0.8229
  127MOL0     H17108   4.592   3.468  11.605  0.7848  0.9054  0.9824
  127MOL0     H17109   4.843   3.544  11.670  2.3935 -2.1559 -2.3268
  127MOL0     H17110   4.855   3.588  11.499 -1.4446 -0.8985  0.6905
  127MOL0     H17111   4.937   3.809  11.554 -2.8612  1.2652  1.7811
  127MOL0     H17112   4.952   3.766  11.718  3.2937 -1.3318  0.7461
  127MOL0     H17113   5.109   3.583  11.671 -0.9053 -2.5434 -0.7202
  127MOL0     H17114   5.114   3.608  11.491  1.5577 -1.7008  0.5245
  127MOL0     H17115   5.200   3.810  11.700  2.7982  0.8150  0.8819
  127MOL0     H17116   5.230   3.821  11.524  3.1560 -1.2026 -0.8950
  127MOL0     H17117   5.368   3.620  11.549  0.2372  0.7479 -0.0534
  127MOL0     H17118   5.342   3.620  11.724  1.1253 -0.2399 -0.2188
  127MOL0     H17119   5.485   3.809  11.545 -1.1727 -1.2025  0.0619
  127MOL0     H17120   5.440   3.864  11.705  1.5640 -1.2772  2.5210
  127MOL0     H17121   5.632   3.644  11.649  1.6817  0.5131  0.8853
  127MOL0     H17122   5.572   3.675  11.810  1.0485 -1.4560  0.1058
  127MOL0     H17123   5.732   3.863  11.628 -1.3214 -0.9405 -0.0868
  127MOL0     H17124   5.673   3.919  11.790 -0.3833 -0.7117  2.5755
  127MOL0     H17125   4.585   3.879  11.518 -2.1813  0.7467  3.0284
  127MOL0     H17126   4.340   3.861  11.442 -1.3552 -0.6874  1.6879
  127MOL0     H17127   3.927   3.541  11.743  1.7917  0.8256 -1.7011
  127MOL0     H17128   3.773   3.359  11.727  0.9191  1.0020  1.0324
  127MOL0     H17129   2.142   3.601  10.724 -0.6331  2.1237 -1.5264
  127MOL0     H17130   1.892   3.597  10.697 -1.6559  3.2207 -1.2149
  127MOL0     H17131   1.465   3.594  11.195  2.2990 -0.7403 -0.7579
  127MOL0     H17132   1.221   3.584  11.194  0.5259 -1.4686 -0.1674
  127MOL0     H17133   1.068   3.459  10.816  0.5177  2.4952 -2.8816
  127MOL0     H17134   0.996   3.622  10.813 -1.2500  0.3598  0.1783
  127MOL0     H17135   0.871   3.395  10.974  1.7629 -2.2104 -1.1219
  127MOL0     H17136   0.841   3.425  10.806  4.5962 -2.2120 -1.0687
  127MOL0     H17137   0.753   3.657  10.860 -0.4575  1.6750  1.4747
  127MOL0     H17138   0.798   3.636  11.026  0.5549  3.1260 -1.0684
  127MOL0     H17139   0.613   3.454  10.855 -0.0888 -1.6105  0.2603
  127MOL0     H17140   0.643   3.447  11.031  1.5025  2.9059  2.6363
  127MOL0     H17141   0.363   3.766  11.025  2.8925  2.7890  2.8920
  127MOL0     H17142   1.222   3.658  10.774  1.2680  1.2526 -0.4464
  127MOL0     H17143   1.401   3.694  10.648  0.3656  0.4492 -0.3654
  127MOL0     H17144   1.514   3.797  10.724 -1.5554  0.3963 -3.0830
  127MOL0     H17145   1.558   3.627  10.709  2.1910  1.2040  2.6956
  128MOL0     O17146   0.052  11.188   3.676  0.2145 -0.2975 -0.8076
  128MOL0     C17147  -0.019  11.286   3.654  0.0182 -0.2770  0.0558
  128MOL0     O17148   0.006  11.414   3.683 -0.7254 -0.3107 -0.4374
  128MOL0     C17149   0.128  11.431   3.744  0.7386  0.1666 -0.5572
  128MOL0     C17150   0.250  11.409   3.679 -0.7527 -0.4064 -0.7881
  128MOL0     C17151   0.366  11.428   3.754 -0.6736  0.0623 -0.1204
  128MOL0     C17152   0.363  11.464   3.894  0.2875 -0.2007  0.1324
  128MOL0     O17153   0.481  11.480   3.970 -0.4952 -0.3643 -0.0689
  128MOL0     C17154   0.577  11.574   3.919 -0.6150 -0.0143  0.0880
  128MOL0     C17155   0.696  11.581   4.013 -0.4719  0.8929  0.4894
  128MOL0     C17156   0.783  11.458   4.008  0.1487 -1.1533 -0.9637
  128MOL0     C17157   0.852  11.440   3.874 -0.2901  0.4906 -1.0385
  128MOL0     C17158   0.942  11.307   3.894 -0.9244 -0.5434 -0.4224
  128MOL0     C17159   1.053  11.274   3.785 -0.8380  0.2169 -0.1655
  128MOL0     C17160   0.993  11.265   3.654  0.3701 -0.3038 -0.6970
  128MOL0     C17161   1.083  11.202   3.538  0.2658 -0.6686 -0.0972
  128MOL0     N17162   1.023  11.097   3.451  0.0096 -0.6411 -0.1688
  128MOL0     C17163   0.971  10.969   3.479 -0.1842 -0.3573 -0.0702
  128MOL0     C17164   0.929  10.917   3.360 -0.6800 -0.0276  0.3000
  128MOL0     C17165   0.861  10.782   3.335 -0.0771 -0.1130  0.4790
  128MOL0     C17166   0.713  10.800   3.312 -0.1863 -0.9294 -0.7028
  128MOL0     C17167   0.689  10.795   3.167 -0.2402  0.0426  0.3609
  128MOL0     C17168   0.562  10.839   3.118  0.6997 -0.4765  0.0987
  128MOL0     O17169   0.460  10.830   3.228 -0.2484 -0.5095  0.6473
  128MOL0     C17170   0.326  10.836   3.192 -0.0095 -1.0377 -0.1389
  128MOL0     C17171   0.280  10.881   3.068 -0.0039  0.1459 -0.6574
  128MOL0     C17172   0.143  10.911   3.056 -0.3311  0.1889  0.1308
  128MOL0     C17173   0.047  10.855   3.146 -0.4965 -0.0406 -0.7425
  128MOL0     C17174  -0.098  10.847   3.131 -0.0553 -0.2396  0.4799
  128MOL0     O17175  -0.189  10.794   3.225 -0.1575  0.2685 -0.1911
  128MOL0     C17176  -0.321  10.836   3.230  0.2685 -0.3838  0.2431
  128MOL0     C17177  -0.378  10.947   3.164 -0.0025 -0.3814 -0.3142
  128MOL0     C17178  -0.512  10.973   3.186  0.4206 -0.1468  0.4648
  128MOL0     C17179  -0.582  10.895   3.279  1.3678  0.3644 -0.2887
  128MOL0     O17180  -0.702  10.936   3.315  0.7010 -1.1184  0.2483
  128MOL0     C17181  -0.811  10.934   3.221  0.3227  0.4599  0.2284
  128MOL0     C17182  -0.885  10.805   3.207  0.4761 -0.3515  0.4348
  128MOL0     C17183  -1.002  10.805   3.100  0.5185  0.5515  0.7101
  128MOL0     C17184  -1.079  10.678   3.101 -0.3412  0.3195  0.6215
  128MOL0     C17185  -1.199  10.673   3.008  0.2286  0.1659  0.3013
  128MOL0     C17186  -1.250  10.527   3.009  0.2629  0.9129 -0.1120
  128MOL0     C17187  -1.162  10.431   2.915  0.0014 -0.4480 -0.1235
  128MOL0     C17188  -1.221  10.296   2.888  0.8986 -0.0708 -0.5287
  128MOL0    Cl17189  -1.195  10.193   3.038 -0.1125  0.0575  0.0037
  128MOL0     C17190  -0.527  10.789   3.353 -0.2523 -0.7357 -0.2316
  128MOL0     C17191  -0.392  10.758   3.317  0.7354  0.0341  0.1562
  128MOL0     O17192  -0.134  10.890   3.024  0.1738  0.0790  0.6020
  128MOL0     C17193   0.097  10.805   3.272  1.0111  0.5016  0.9447
  128MOL0     C17194   0.232  10.794   3.292  0.0058  0.3558  0.0889
  128MOL0     N17195   0.965  11.009   3.262  0.4068 -0.2649  0.3144
  128MOL0     N17196   1.018  11.110   3.315  0.9662 -0.4914 -0.3363
  128MOL0     C17197   0.240  11.491   3.954  0.3629 -0.1344 -0.2833
  128MOL0     C17198   0.125  11.466   3.879  0.1993 -1.2287  0.1389
  128MOL0     C17199  -0.154  11.257   3.598  0.1857 -0.4119  0.0856
  128MOL0     C17200  -0.260  11.320   3.667 -0.6692  0.3428 -0.5295
  128MOL0     C17201  -0.396  11.301   3.624 -0.6524  0.3171  0.2878
  128MOL0     C17202  -0.416  11.210   3.515  0.0921  0.9612 -0.9194
  128MOL0     O17203  -0.537  11.164   3.468 -1.0303 -0.3100  0.4217
  128MOL0     C17204  -0.658  11.221   3.517 -0.2191  0.5446 -0.5027
  128MOL0     C17205  -0.677  11.376   3.466  0.4971  0.7213  0.3329
  128MOL0     C17206  -0.663  11.391   3.309  0.6295  0.5902 -0.7632
  128MOL0     C17207  -0.757  11.499   3.249 -0.2363 -0.7243 -0.4310
  128MOL0     C17208  -0.895  11.476   3.258  0.2633  0.3945 -0.7796
  128MOL0     C17209  -1.016  11.464   3.271  0.0682 -0.4020  0.4444
  128MOL0     C17210  -0.309  11.147   3.459 -1.0448 -0.0391  0.3806
  128MOL0     C17211  -0.182  11.168   3.497 -0.3610  0.5522  0.2132
  128MOL0     C17212  -0.062  11.106   3.430 -0.3507  0.4708 -0.0078
  128MOL0     H17213   0.256  11.383   3.574  1.9770 -3.3560 -0.0761
  128MOL0     H17214   0.461  11.406   3.708 -0.4258  0.5822  0.1366
  128MOL0     H17215   0.608  11.536   3.821  0.0370  0.3694  0.1345
  128MOL0     H17216   0.528  11.672   3.913 -0.5052  0.0586  0.3884
  128MOL0     H17217   0.656  11.600   4.113 -1.0407  0.2072  0.4066
  128MOL0     H17218   0.749  11.672   3.984 -4.3379  2.7499 -1.6045
  128MOL0     H17219   0.718  11.373   4.030 -1.2510 -0.2157 -1.3747
  128MOL0     H17220   0.849  11.449   4.095 -1.0537  1.8693  0.4374
  128MOL0     H17221   0.787  11.413   3.790 -0.2889  1.3839 -1.3383
  128MOL0     H17222   0.915  11.525   3.847  2.9107 -1.8966 -1.8144
  128MOL0     H17223   1.000  11.316   3.986  0.5223  0.7533 -1.4188
  128MOL0     H17224   0.868  11.226   3.895 -3.1009  1.3449 -1.0008
  128MOL0     H17225   1.127  11.354   3.786  0.6631 -1.0256  2.9802
  128MOL0     H17226   1.104  11.181   3.812  0.4398  0.6535 -0.9846
  128MOL0     H17227   0.949  11.360   3.621  1.8055 -0.7621 -4.5303
  128MOL0     H17228   0.915  11.190   3.672  1.8648 -1.5472  0.9198
  128MOL0     H17229   1.106  11.290   3.477  1.3446 -0.6022  0.3889
  128MOL0     H17230   1.178  11.154   3.563  2.4283  2.2201 -2.1516
  128MOL0     H17231   0.974  10.915   3.573  1.2168  0.7188  0.5538
  128MOL0     H17232   0.920  10.731   3.258  1.0764  2.7058 -0.6338
  128MOL0     H17233   0.876  10.714   3.419  1.9151  1.4355  1.4506
  128MOL0     H17234   0.659  10.720   3.363 -0.8091 -1.0838 -1.5634
  128MOL0     H17235   0.681  10.897   3.352  0.8076 -0.3077 -1.3768
  128MOL0     H17236   0.714  10.691   3.144  0.1952 -0.4036  2.5883
  128MOL0     H17237   0.763  10.862   3.121  0.1560  1.6242  3.0537
  128MOL0     H17238   0.521  10.776   3.038 -1.0630 -0.9976  1.3356
  128MOL0     H17239   0.567  10.943   3.085 -2.3063 -0.1610  0.3177
  128MOL0     H17240   0.350  10.910   2.989 -0.9544  1.7408 -0.9532
  128MOL0     H17241   0.102  10.962   2.969 -2.4142  0.3206  1.1235
  128MOL0     H17242  -0.314  11.019   3.116  0.9064 -0.8618  0.1519
  128MOL0     H17243  -0.556  11.061   3.139  1.7758 -0.6842 -1.9587
  128MOL0     H17244  -0.882  11.011   3.253 -0.2956  1.0284 -2.2821
  128MOL0     H17245  -0.769  10.953   3.122  1.4798  0.5391  0.7145
  128MOL0     H17246  -0.805  10.736   3.179  1.7129  0.9130  0.7731
  128MOL0     H17247  -0.914  10.772   3.308 -0.4195 -0.5608  0.1174
  128MOL0     H17248  -1.074  10.886   3.119 -2.3754 -1.4606 -0.9324
  128MOL0     H17249  -0.967  10.821   2.997 -1.8621 -0.2185 -0.2910
  128MOL0     H17250  -1.110  10.658   3.204  0.4260  0.1784  0.8316
  128MOL0     H17251  -1.013  10.597   3.069 -1.4215 -0.8741  1.2956
  128MOL0     H17252  -1.170  10.702   2.907 -1.5412  0.1050 -0.2441
  128MOL0     H17253  -1.276  10.749   3.025  0.1416  0.2044 -0.2467
  128MOL0     H17254  -1.250  10.482   3.109 -1.5929  4.1688  1.5209
  128MOL0     H17255  -1.355  10.534   2.980  0.4941 -0.6220 -1.4402
  128MOL0     H17256  -1.058  10.419   2.945 -0.2045 -1.1910  0.3015
  128MOL0     H17257  -1.178  10.473   2.815  1.0912 -0.3264 -0.2561
  128MOL0     H17258  -1.328  10.309   2.868  0.9951  2.6394  0.2543
  128MOL0     H17259  -1.177  10.254   2.798 -2.0357 -2.3541 -1.0639
  128MOL0     H17260  -0.576  10.744   3.439  2.7040 -0.7952  1.5418
  128MOL0     H17261  -0.334  10.679   3.364  2.0881  0.6879 -0.3532
  128MOL0     H17262   0.029  10.763   3.345 -0.5427  1.7824  0.2894
  128MOL0     H17263   0.258  10.738   3.381 -2.4746 -3.1613 -1.1241
  128MOL0     H17264   0.232  11.515   4.059 -0.7368  3.0433 -0.9925
  128MOL0     H17265   0.028  11.498   3.917  0.4849 -2.1630  1.7568
  128MOL0     H17266  -0.238  11.375   3.758 -0.3692 -1.9324  0.8448
  128MOL0     H17267  -0.474  11.347   3.684 -1.4261  1.0716 -1.2517
  128MOL0     H17268  -0.679  11.218   3.624 -1.1397  1.2031 -0.6637
  128MOL0     H17269  -0.735  11.157   3.472  0.2820 -1.6384  1.5175
  128MOL0     H17270  -0.609  11.450   3.510  1.5496 -1.0181  1.8025
  128MOL0     H17271  -0.778  11.405   3.499 -0.3127 -0.3594 -1.0825
  128MOL0     H17272  -0.687  11.291   3.271  0.2478 -0.4307  1.9832
  128MOL0     H17273  -0.559  11.409   3.280  0.2809  0.4900 -2.1891
  128MOL0     H17274  -0.746  11.590   3.309 -0.1351 -0.7967 -0.3403
  128MOL0     H17275  -0.725  11.523   3.147  3.2582 -1.4400  0.3780
  128MOL0     H17276  -1.122  11.450   3.265  0.1454 -0.5794 -0.9831
  128MOL0     H17277  -0.343  11.064   3.398  1.2328 -1.6459  1.1759
  128MOL0     H17278  -0.009  11.032   3.491  0.1241 -0.7757 -1.8315
  128MOL0     H17279  -0.098  11.052   3.342 -0.8162  2.4720 -1.1053
  128MOL0     H17280   0.011  11.184   3.405  2.6280 -1.7790  1.0926
  129MOL0     O17281   8.686  11.180   9.515 -0.3612 -0.0409 -0.1290
  129MOL0     C17282   8.696  11.305   9.537 -0.0011 -0.0919 -0.3775
  129MOL0     O17283   8.592  11.389   9.534  0.0555 -0.0007  0.9283
  129MOL0     C17284   8.463  11.340   9.489 -1.3807 -0.2575  0.3712
  129MOL0     C17285   8.361  11.338   9.584  1.1063 -0.1931 -1.3511
  129MOL0     C17286   8.228  11.312   9.544 -0.5072 -0.2398 -0.2290
  129MOL0     C17287   8.198  11.305   9.406  0.1621  0.6484 -0.7643
  129MOL0     O17288   8.073  11.258   9.372  0.1391  0.6071 -0.1230
  129MOL0     C17289   8.056  11.190   9.249  0.3930 -0.1665  0.5474
  129MOL0     C17290   7.901  11.166   9.241 -0.1043 -0.9332 -0.4735
  129MOL0     C17291   7.881  11.057   9.127 -0.6129 -0.0178  0.3893
  129MOL0     C17292   7.731  11.019   9.125 -0.2041 -0.3420  0.5990
  129MOL0     C17293   7.707  10.883   9.067 -0.2975  0.3687  0.6985
  129MOL0     C17294   7.560  10.854   9.076  0.2776 -0.0181 -0.7537
  129MOL0     C17295   7.533  10.714   9.030 -0.4759 -1.0374 -0.1719
  129MOL0     C17296   7.440  10.704   8.911  0.5550 -0.4786 -0.0879
  129MOL0     N17297   7.505  10.740   8.787 -0.7491 -0.0884  0.3282
  129MOL0     C17298   7.642  10.738   8.752 -0.1646 -0.0619  0.1107
  129MOL0     C17299   7.656  10.775   8.626 -0.1570 -1.0196  0.1420
  129MOL0     C17300   7.785  10.782   8.538  0.7544 -1.1223 -0.1695
  129MOL0     C17301   7.831  10.922   8.506 -0.4831  0.6131  0.3771
  129MOL0     C17302   7.900  10.979   8.634 -0.2890  0.2938 -0.3862
  129MOL0     C17303   7.925  11.132   8.625  0.2735 -0.1640 -0.0831
  129MOL0     O17304   7.966  11.175   8.751 -0.0536  0.0833 -0.1711
  129MOL0     C17305   8.068  11.268   8.759  0.1815  1.2516  0.5446
  129MOL0     C17306   8.172  11.255   8.856  0.0649  0.2668  0.3866
  129MOL0     C17307   8.278  11.344   8.865 -1.0789 -0.1544 -0.1473
  129MOL0     C17308   8.277  11.453   8.775 -0.9017  0.6073 -0.6385
  129MOL0     C17309   8.398  11.538   8.773 -1.2212 -0.3052  0.2675
  129MOL0     O17310   8.486  11.513   8.875  0.6197 -0.6079 -0.4583
  129MOL0     C17311   8.602  11.587   8.894  0.2873  0.6143 -0.1826
  129MOL0     C17312   8.640  11.592   9.030  0.5285 -0.1404  0.0611
  129MOL0     C17313   8.757  11.657   9.075  0.5820  0.0484 -0.5862
  129MOL0     C17314   8.846  11.702   8.971 -0.3261  0.2384  0.5462
  129MOL0     O17315   8.976  11.743   8.992  0.3522 -0.2480 -0.3249
  129MOL0     C17316   9.016  11.807   9.115  0.0002  0.1599  0.2207
  129MOL0     C17317   9.161  11.860   9.112 -0.2259  0.6923 -0.5586
  129MOL0     C17318   9.253  11.760   9.043 -0.2699  0.3219 -0.5218
  129MOL0     C17319   9.404  11.765   9.090  0.3713  0.2786  0.0295
  129MOL0     C17320   9.494  11.801   8.965  0.1167  0.8481 -0.0292
  129MOL0     C17321   9.632  11.791   9.007 -0.4102 -0.1596 -0.0118
  129MOL0     C17322   9.730  11.795   8.889 -0.8780  0.1190  0.9875
  129MOL0     C17323   9.876  11.751   8.927 -0.0745 -0.0201  0.3319
  129MOL0    Cl17324   9.963  11.860   9.034 -0.3237  0.8480 -0.1153
  129MOL0     C17325   8.800  11.704   8.840  0.7552 -0.2775 -0.4915
  129MOL0     C17326   8.677  11.644   8.801 -0.3588  0.0427 -0.4137
  129MOL0     O17327   8.419  11.621   8.682 -0.1956  1.1374 -0.0995
  129MOL0     C17328   8.171  11.478   8.681  0.6170  0.5978 -0.2295
  129MOL0     C17329   8.067  11.386   8.674 -0.0915  0.0619  0.7659
  129MOL0     N17330   7.532  10.815   8.579 -0.0069 -0.6303 -0.0705
  129MOL0     N17331   7.451  10.774   8.663  0.7011 -0.1715 -0.3737
  129MOL0     C17332   8.299  11.328   9.312  0.0642  0.0525  0.6010
  129MOL0     C17333   8.430  11.337   9.353  0.2858 -0.5491 -0.1747
  129MOL0     C17334   8.831  11.368   9.565 -0.4073 -0.8319 -0.0389
  129MOL0     C17335   8.832  11.508   9.571 -0.0962 -0.3016 -0.7551
  129MOL0     C17336   8.953  11.571   9.585 -0.1345  0.4305  0.4362
  129MOL0     C17337   9.072  11.499   9.604  0.3247 -0.9563 -0.3367
  129MOL0     O17338   9.190  11.581   9.605  0.6686  0.0024  0.1817
  129MOL0     C17339   9.316  11.526   9.645  0.8123 -0.2786  0.2072
  129MOL0     C17340   9.424  11.623   9.615  0.0936 -0.2678  0.5756
  129MOL0     C17341   9.446  11.650   9.461  0.3883 -0.1556 -0.0914
  129MOL0     C17342   9.587  11.711   9.441  0.8156 -0.3521  0.6583
  129MOL0     C17343   9.598  11.852   9.489 -0.4059 -0.0978  0.8343
  129MOL0     C17344   9.624  11.971   9.504  0.5889 -0.5876 -0.1717
  129MOL0     C17345   9.070  11.364   9.587  0.0722  0.7748 -0.0901
  129MOL0     C17346   8.952  11.296   9.570  0.1470  0.1412  0.8130
  129MOL0     C17347   8.959  11.146   9.550 -0.1389  1.1095  0.0499
  129MOL0     H17348   8.398  11.364   9.683 -0.4276 -1.3513 -0.4191
  129MOL0     H17349   8.144  11.299   9.612  0.1498  0.3868  0.7310
  129MOL0     H17350   8.086  11.255   9.166 -2.9352  1.1047  0.1867
  129MOL0     H17351   8.120  11.101   9.252  1.6502  0.5252 -2.0586
  129MOL0     H17352   7.852  11.263   9.229  0.9986 -0.2648  0.2391
  129MOL0     H17353   7.860  11.129   9.335  2.8559 -0.5254  1.0913
  129MOL0     H17354   7.942  10.970   9.152  0.5093  1.2314  2.2826
  129MOL0     H17355   7.915  11.082   9.026  1.8562 -1.2338  0.8396
  129MOL0     H17356   7.684  11.019   9.224  1.5086 -1.2452  1.4579
  129MOL0     H17357   7.670  11.097   9.080  0.6780  0.9809  1.6375
  129MOL0     H17358   7.745  10.882   8.965 -0.7043  1.4533  0.5242
  129MOL0     H17359   7.770  10.806   9.113  3.5095  3.4340  1.1614
  129MOL0     H17360   7.537  10.866   9.182 -0.1748  1.3118 -0.9819
  129MOL0     H17361   7.502  10.934   9.029  2.4136  3.1820  1.5836
  129MOL0     H17362   7.478  10.674   9.116 -1.2986 -0.0154 -0.1903
  129MOL0     H17363   7.626  10.662   9.008  0.4959  0.9454 -1.0918
  129MOL0     H17364   7.419  10.597   8.902  0.7127 -0.4271 -1.0889
  129MOL0     H17365   7.342  10.748   8.934  0.4869 -0.5500 -0.2452
  129MOL0     H17366   7.723  10.702   8.815  1.2169 -0.0644 -1.5688
  129MOL0     H17367   7.868  10.726   8.581  0.9490 -0.4374  0.3704
  129MOL0     H17368   7.768  10.740   8.439  2.6060  3.4945 -2.7761
  129MOL0     H17369   7.905  10.917   8.426 -1.7708 -0.7350 -0.7863
  129MOL0     H17370   7.748  10.981   8.467  0.0976  1.7920  0.8662
  129MOL0     H17371   8.004  10.948   8.647 -0.1656  1.1674  0.7805
  129MOL0     H17372   7.852  10.949   8.727  1.8800  0.3794  0.8224
  129MOL0     H17373   7.828  11.173   8.595  0.3943 -0.4458 -0.8863
  129MOL0     H17374   8.003  11.149   8.550 -1.7152  0.6790 -2.0753
  129MOL0     H17375   8.176  11.157   8.901  0.3249  1.0863  2.2045
  129MOL0     H17376   8.358  11.313   8.931 -2.8193 -1.6785  1.3952
  129MOL0     H17377   8.581  11.544   9.107  2.6163  1.1094  2.6654
  129MOL0     H17378   8.796  11.645   9.175  1.5067  2.3600 -0.6025
  129MOL0     H17379   8.958  11.898   9.134  0.9957  0.9659 -0.5026
  129MOL0     H17380   9.006  11.728   9.190 -0.8778  0.1146  0.0642
  129MOL0     H17381   9.165  11.944   9.043 -2.6380  0.4720 -1.0591
  129MOL0     H17382   9.191  11.892   9.212  1.9323  1.5548 -1.4080
  129MOL0     H17383   9.212  11.659   9.056 -0.3014  0.3423 -0.4662
  129MOL0     H17384   9.246  11.773   8.935 -3.0167 -0.1390 -0.4637
  129MOL0     H17385   9.425  11.666   9.131  1.9988 -0.2804 -1.9341
  129MOL0     H17386   9.418  11.837   9.171 -0.6694 -0.6535  1.0778
  129MOL0     H17387   9.462  11.899   8.931 -2.1074  0.7854  1.6263
  129MOL0     H17388   9.467  11.728   8.888  0.1863  0.8157 -0.0233
  129MOL0     H17389   9.661  11.870   9.078  3.6929  0.6130 -2.2209
  129MOL0     H17390   9.640  11.696   9.060  0.3990  0.4445  0.9927
  129MOL0     H17391   9.744  11.898   8.856 -0.6036 -1.4307 -4.6792
  129MOL0     H17392   9.699  11.737   8.802  0.2388 -1.5800  1.6678
  129MOL0     H17393   9.877  11.648   8.964 -1.0001 -0.1073  0.1445
  129MOL0     H17394   9.935  11.757   8.835  0.2354  0.3047  0.5478
  129MOL0     H17395   8.861  11.753   8.764  2.0569  1.5445  1.5850
  129MOL0     H17396   8.647  11.652   8.697  1.1984  0.0337 -0.8866
  129MOL0     H17397   8.168  11.576   8.635  1.6143  0.6469 -0.2130
  129MOL0     H17398   7.973  11.409   8.624 -0.7616 -1.0932  1.4401
  129MOL0     H17399   8.281  11.335   9.205 -1.4461 -1.6990  0.6928
  129MOL0     H17400   8.506  11.352   9.278 -1.3762  1.8633 -1.4955
  129MOL0     H17401   8.745  11.572   9.572 -0.3282 -0.5762  1.1563
  129MOL0     H17402   8.946  11.679   9.588 -4.4541  0.3529  0.0356
  129MOL0     H17403   9.332  11.427   9.601 -3.1259 -1.0527  0.1747
  129MOL0     H17404   9.322  11.518   9.754 -2.0374  2.8408  0.7525
  129MOL0     H17405   9.515  11.572   9.648 -1.1470 -4.1774 -1.4234
  129MOL0     H17406   9.414  11.715   9.673  3.7370 -1.3820  3.4220
  129MOL0     H17407   9.370  11.707   9.409  1.5707  0.2335 -1.4338
  129MOL0     H17408   9.449  11.550   9.416 -1.0281  0.3438 -1.3721
  129MOL0     H17409   9.656  11.641   9.488  2.1384 -1.4425 -2.6546
  129MOL0     H17410   9.611  11.713   9.335  1.3041 -1.5019  0.7403
  129MOL0     H17411   9.640  12.077   9.507 -0.2945 -0.4083 -1.2318
  129MOL0     H17412   9.164  11.311   9.576 -0.0563  0.7336 -1.0533
  129MOL0     H17413   8.882  11.093   9.606 -0.5644  0.1611 -1.3731
  129MOL0     H17414   8.952  11.121   9.443  0.0619  0.9662  0.0694
  129MOL0     H17415   9.055  11.103   9.579 -0.4188  2.6920  3.8353
  130MOL0     O17416   8.854   0.770  10.546  0.8389 -0.2193  0.0012
  130MOL0     C17417   8.755   0.784  10.477 -0.3963  0.2075  0.5766
  130MOL0     O17418   8.718   0.903  10.429  0.4757 -0.1114 -0.4907
  130MOL0     C17419   8.810   1.001  10.447 -0.7893  0.3376  0.5366
  130MOL0     C17420   8.787   1.107  10.524 -0.2284 -0.7488 -0.5580
  130MOL0     C17421   8.896   1.200  10.559  0.1994  0.5003 -0.9885
  130MOL0     C17422   9.022   1.197  10.496  0.4478 -0.1897 -0.6203
  130MOL0     O17423   9.114   1.294  10.518  0.1945  0.7287  0.2889
  130MOL0     C17424   9.180   1.345  10.395 -0.0365  0.3955 -0.1901
  130MOL0     C17425   9.286   1.455  10.423 -0.3425  0.1371  0.2830
  130MOL0     C17426   9.343   1.495  10.291 -0.3506 -0.1662 -0.3987
  130MOL0     C17427   9.462   1.597  10.295 -0.1772 -0.2009 -0.0101
  130MOL0     C17428   9.482   1.649  10.152  0.3436  0.2541 -0.1367
  130MOL0     C17429   9.612   1.730  10.125 -0.5243 -0.1988  0.2795
  130MOL0     C17430   9.640   1.754   9.979 -0.2083 -0.5102 -0.0018
  130MOL0     C17431   9.665   1.621   9.893  0.0837 -1.3431 -0.2783
  130MOL0     N17432   9.788   1.560   9.921 -1.0702 -0.3824 -0.0363
  130MOL0     C17433   9.887   1.553   9.826 -0.1770  0.0794  0.5958
  130MOL0     C17434   9.994   1.507   9.899 -0.0784  0.3689  0.3764
  130MOL0     C17435  10.122   1.452   9.844 -0.6116  0.2254  0.3222
  130MOL0     C17436  10.122   1.304   9.855  0.6033 -0.5090 -0.1537
  130MOL0     C17437  10.130   1.231   9.994  0.3530  0.7297 -1.1003
  130MOL0     C17438  10.226   1.284  10.092 -0.8483  0.0973  0.0532
  130MOL0     O17439  10.354   1.266  10.036 -0.6468 -0.8517 -0.0638
  130MOL0     C17440  10.467   1.342  10.078  0.9477  0.8728 -1.8383
  130MOL0     C17441  10.483   1.390  10.214  1.5310 -0.7556 -0.3143
  130MOL0     C17442  10.592   1.465  10.259 -0.1042  0.8581  0.2927
  130MOL0     C17443  10.690   1.491  10.165  0.2870 -0.4455  0.0332
  130MOL0     C17444  10.811   1.574  10.187 -0.3612 -0.4274 -0.1215
  130MOL0     O17445  10.916   1.581  10.095  0.4087 -0.1709 -0.1615
  130MOL0     C17446  11.017   1.662  10.136 -0.7547 -0.3226  0.3937
  130MOL0     C17447  11.138   1.603  10.165 -0.8613  0.3793  1.1408
  130MOL0     C17448  11.242   1.688  10.210 -0.4695 -0.2009 -0.4987
  130MOL0     C17449  11.229   1.831  10.205  0.5447  0.1581  0.7007
  130MOL0     O17450  11.336   1.909  10.234  0.3223 -0.1702 -0.4008
  130MOL0     C17451  11.348   2.044  10.175  0.5131 -0.3364  0.0653
  130MOL0     C17452  11.473   2.108  10.215  0.5394 -0.1467  0.0516
  130MOL0     C17453  11.592   2.075  10.122  0.8365  0.4715 -0.1695
  130MOL0     C17454  11.722   2.157  10.155 -0.1162 -0.5669  0.3539
  130MOL0     C17455  11.829   2.139  10.044 -0.3257  0.4809 -0.6756
  130MOL0     C17456  11.962   2.209  10.072  0.6776  0.2869  1.1410
  130MOL0     C17457  12.056   2.221   9.959 -0.0949 -0.3743 -0.1474
  130MOL0     C17458  12.167   2.115   9.975  0.3282  0.3342 -0.7788
  130MOL0    Cl17459  12.252   2.108   9.821  0.0759  0.3409  0.1044
  130MOL0     C17460  11.113   1.888  10.156  0.8311  1.3356 -0.6801
  130MOL0     C17461  11.004   1.810  10.123  0.2843  0.0279  0.0485
  130MOL0     O17462  10.807   1.623  10.305  0.0184 -0.0934 -0.2973
  130MOL0     C17463  10.683   1.434  10.032  0.1389 -1.5236 -0.8530
  130MOL0     C17464  10.572   1.359   9.994 -0.7506  0.5614 -0.0270
  130MOL0     N17465   9.965   1.495  10.030  0.1335  0.9284  0.4211
  130MOL0     N17466   9.837   1.525  10.044  0.0586  0.2143 -0.4286
  130MOL0     C17467   9.033   1.089  10.399 -0.0519  0.0135  0.0437
  130MOL0     C17468   8.937   0.987  10.382  0.4172 -0.8759  0.1924
  130MOL0     C17469   8.659   0.664  10.444 -0.5823  0.3249 -0.3180
  130MOL0     C17470   8.538   0.704  10.391  0.4489 -0.0467 -0.2511
  130MOL0     C17471   8.444   0.607  10.360 -0.4182 -0.3351  0.1966
  130MOL0     C17472   8.463   0.476  10.400  0.2380 -0.2237  0.0330
  130MOL0     O17473   8.388   0.370  10.367  0.7245  0.3748 -0.7846
  130MOL0     C17474   8.287   0.376  10.267 -0.1160 -0.6331 -0.2571
  130MOL0     C17475   8.248   0.221  10.234 -0.0004 -0.8467  0.7638
  130MOL0     C17476   8.125   0.229  10.146  0.0639 -1.0811 -0.3022
  130MOL0     C17477   8.005   0.245  10.238  0.4643 -0.7515  0.7096
  130MOL0     C17478   7.880   0.211  10.174  0.2512 -0.0180 -0.3800
  130MOL0     C17479   7.767   0.180  10.141  0.7287  0.3173  0.3710
  130MOL0     C17480   8.588   0.436  10.466  0.0821 -0.0765  0.6973
  130MOL0     C17481   8.690   0.528  10.485 -0.7156 -0.5799 -0.7525
  130MOL0     C17482   8.822   0.484  10.536  0.2527  0.8175 -1.2927
  130MOL0     H17483   8.686   1.123  10.560  0.3487  2.5702 -0.1008
  130MOL0     H17484   8.864   1.277  10.628  0.5345 -1.0607  0.9949
  130MOL0     H17485   9.228   1.262  10.343 -1.2755 -0.7132  0.3864
  130MOL0     H17486   9.106   1.387  10.326 -1.6932  0.0179  1.2807
  130MOL0     H17487   9.361   1.424  10.495 -0.3798  0.8883  0.6544
  130MOL0     H17488   9.239   1.543  10.467  0.4633  1.6566 -1.7266
  130MOL0     H17489   9.262   1.532  10.227 -1.5375 -1.2566  0.4189
  130MOL0     H17490   9.382   1.403  10.248 -0.9094  0.0210 -1.3285
  130MOL0     H17491   9.428   1.677  10.362 -1.0518 -0.1953 -0.4476
  130MOL0     H17492   9.555   1.552  10.331 -0.0859 -0.8321 -1.0086
  130MOL0     H17493   9.468   1.567  10.081  1.6501  0.2962 -0.4670
  130MOL0     H17494   9.399   1.716  10.130 -2.2817 -2.9160 -0.8014
  130MOL0     H17495   9.589   1.823  10.176 -0.7808 -0.5764  0.8637
  130MOL0     H17496   9.702   1.699  10.180  0.3149  4.5843  2.0182
  130MOL0     H17497   9.721   1.828   9.972 -1.5802  0.9830 -0.8432
  130MOL0     H17498   9.549   1.796   9.935 -0.4015 -2.4878 -1.6182
  130MOL0     H17499   9.582   1.551   9.904 -2.8380  1.5714 -2.1243
  130MOL0     H17500   9.658   1.642   9.786  1.0142 -0.3702 -0.1715
  130MOL0     H17501   9.871   1.573   9.721 -0.6767 -1.6127  0.3193
  130MOL0     H17502  10.127   1.483   9.739  0.9351 -0.7920  0.0518
  130MOL0     H17503  10.213   1.484   9.897  1.7086 -4.2871 -0.3610
  130MOL0     H17504  10.032   1.276   9.800  0.3134  2.5529 -1.3888
  130MOL0     H17505  10.202   1.251   9.801 -0.2930 -2.0176 -0.0521
  130MOL0     H17506  10.150   1.124   9.979  3.9978  0.4923  3.3413
  130MOL0     H17507  10.031   1.243  10.039 -0.6481 -0.4509 -2.8764
  130MOL0     H17508  10.224   1.224  10.183  2.3542 -2.8203 -1.6006
  130MOL0     H17509  10.188   1.386  10.105 -1.1038  0.0974 -0.6249
  130MOL0     H17510  10.407   1.370  10.290  0.2612  0.3434 -1.2580
  130MOL0     H17511  10.602   1.499  10.362 -1.3244 -4.6890  2.6077
  130MOL0     H17512  11.154   1.495  10.168  0.6729  0.5848  4.6284
  130MOL0     H17513  11.340   1.653  10.242 -0.8026 -0.1590  0.6291
  130MOL0     H17514  11.330   2.048  10.067  1.8001  1.9571 -0.1233
  130MOL0     H17515  11.268   2.099  10.224 -0.1761 -0.6821 -0.6388
  130MOL0     H17516  11.471   2.217  10.210 -1.0174 -0.1143  0.9205
  130MOL0     H17517  11.509   2.085  10.316 -0.5260 -1.2434  0.2057
  130MOL0     H17518  11.631   1.975  10.145  0.9228 -0.1627 -2.8220
  130MOL0     H17519  11.567   2.081  10.016  2.1750  0.1903 -0.5264
  130MOL0     H17520  11.755   2.131  10.256 -3.6056  0.2328  1.8643
  130MOL0     H17521  11.700   2.264  10.161  1.4002 -0.1875 -0.3603
  130MOL0     H17522  11.785   2.156   9.945 -3.8059 -0.8320  0.4908
  130MOL0     H17523  11.849   2.031  10.044 -1.7348  0.1790  1.1389
  130MOL0     H17524  11.935   2.308  10.110 -0.0807 -0.7201  3.4060
  130MOL0     H17525  12.009   2.147  10.149  3.1049 -0.9687 -1.1793
  130MOL0     H17526  12.086   2.326   9.955 -3.4869  0.6937 -0.3414
  130MOL0     H17527  12.010   2.211   9.861  1.7973 -2.0740 -0.9522
  130MOL0     H17528  12.252   2.137  10.041  3.3369 -2.1712 -3.4460
  130MOL0     H17529  12.128   2.014   9.988 -0.3039  0.8172  1.5902
  130MOL0     H17530  11.115   1.994  10.129  2.6621  0.8191 -2.8401
  130MOL0     H17531  10.906   1.846  10.091  0.7612 -0.6513 -2.4074
  130MOL0     H17532  10.764   1.460   9.965 -1.9203  2.4402 -2.1742
  130MOL0     H17533  10.543   1.337   9.892 -3.7055  1.8922  0.4289
  130MOL0     H17534   9.120   1.077  10.335 -0.6657  1.7452 -1.2017
  130MOL0     H17535   8.956   0.907  10.311 -1.1902 -2.3810  1.3706
  130MOL0     H17536   8.518   0.805  10.357 -0.5605  0.8640  2.7596
  130MOL0     H17537   8.349   0.633  10.314 -0.3339  1.0142  0.7141
  130MOL0     H17538   8.332   0.425  10.180  0.6919 -3.7454 -1.7474
  130MOL0     H17539   8.191   0.426  10.284 -1.7226 -3.7155  0.4720
  130MOL0     H17540   8.236   0.161  10.324  0.2092 -1.2025  0.5541
  130MOL0     H17541   8.341   0.183  10.192  1.9871  3.3432  0.8018
  130MOL0     H17542   8.116   0.141  10.082 -1.6606 -2.5296  1.8017
  130MOL0     H17543   8.124   0.317  10.082  0.0584  0.9585  2.3561
  130MOL0     H17544   8.018   0.184  10.327  1.2490 -1.2709  0.2551
  130MOL0     H17545   8.009   0.350  10.270  3.6375 -0.9805  1.4295
  130MOL0     H17546   7.671   0.160  10.099  1.3544  0.7897 -1.4074
  130MOL0     H17547   8.615   0.335  10.494  2.9102 -0.0939 -1.5840
  130MOL0     H17548   8.855   0.528  10.631  2.8973 -1.2984 -1.1128
  130MOL0     H17549   8.807   0.377  10.556 -1.1924  0.8553 -2.0541
  130MOL0     H17550   8.904   0.492  10.464  1.8015  1.9057  0.5138
  131MOL0     O17551   2.738   4.731   7.202  0.7506  0.2568 -0.2273
  131MOL0     C17552   2.768   4.628   7.148  0.0038 -0.2756 -0.2437
  131MOL0     O17553   2.896   4.575   7.136  1.5035  0.5915  0.4097
  131MOL0     C17554   3.007   4.644   7.172 -0.4425 -0.3829 -0.0191
  131MOL0     C17555   3.101   4.689   7.078 -0.1310  0.5703 -0.2984
  131MOL0     C17556   3.224   4.751   7.115 -0.7269  0.2988  0.6927
  131MOL0     C17557   3.256   4.775   7.249  0.4533 -0.5495 -0.4487
  131MOL0     O17558   3.382   4.831   7.281 -0.1762 -0.3239  0.1130
  131MOL0     C17559   3.377   4.978   7.299  0.1135 -0.6294  0.4990
  131MOL0     C17560   3.512   5.046   7.310 -0.6753 -0.6374 -0.5499
  131MOL0     C17561   3.582   5.010   7.444  0.8692  0.6755  0.5262
  131MOL0     C17562   3.714   5.085   7.475  0.4034  0.2731 -0.0671
  131MOL0     C17563   3.800   5.019   7.586  0.4373  0.2694  0.3714
  131MOL0     C17564   3.901   5.116   7.641 -0.9356 -0.6807  0.1313
  131MOL0     C17565   3.850   5.198   7.758  0.5034  0.4236  0.1134
  131MOL0     C17566   3.945   5.300   7.806 -0.1337  0.2408  0.0316
  131MOL0     N17567   4.051   5.223   7.880  0.5347 -0.6318  0.8179
  131MOL0     C17568   4.170   5.174   7.829 -0.7307  0.2488  0.0753
  131MOL0     C17569   4.241   5.126   7.938  0.1148 -0.6119  0.3945
  131MOL0     C17570   4.386   5.086   7.942 -0.6566  0.0067 -0.0296
  131MOL0     C17571   4.492   5.200   7.907  0.3774 -0.0895  0.1280
  131MOL0     C17572   4.636   5.146   7.903  0.2744 -0.1933  0.2737
  131MOL0     C17573   4.657   5.073   7.773 -0.1874 -0.0234  0.2571
  131MOL0     O17574   4.800   5.050   7.771 -0.1635 -0.4908 -0.1801
  131MOL0     C17575   4.860   5.018   7.655  0.3051  0.3469  0.3271
  131MOL0     C17576   4.795   4.958   7.547  0.0447 -0.2929 -0.1572
  131MOL0     C17577   4.871   4.929   7.436 -0.0953 -0.3151  0.3976
  131MOL0     C17578   5.007   4.968   7.425  0.3717  0.2660 -0.6206
  131MOL0     C17579   5.079   4.931   7.298  0.2222  0.0111  0.0814
  131MOL0     O17580   5.204   4.982   7.281  0.0561 -0.1048 -0.5591
  131MOL0     C17581   5.291   4.947   7.183 -0.2299 -0.6739 -0.9834
  131MOL0     C17582   5.300   4.828   7.116  0.5131  0.9320 -0.9507
  131MOL0     C17583   5.396   4.794   7.026  0.9668 -0.0731  0.2214
  131MOL0     C17584   5.492   4.897   6.996 -0.0070  0.2958  0.1997
  131MOL0     O17585   5.595   4.879   6.910 -0.1532 -0.3121  0.5023
  131MOL0     C17586   5.629   4.750   6.849  0.6115 -0.1238 -0.2233
  131MOL0     C17587   5.710   4.773   6.723 -0.4870  0.4199 -0.2380
  131MOL0     C17588   5.859   4.778   6.744  0.4180 -0.2083 -0.6863
  131MOL0     C17589   5.935   4.795   6.611 -0.3251 -0.2931 -0.0335
  131MOL0     C17590   6.085   4.782   6.631 -0.0191 -0.2001  0.9623
  131MOL0     C17591   6.161   4.800   6.495 -0.0102 -0.2070 -0.3970
  131MOL0     C17592   6.307   4.833   6.527 -0.4291 -0.7729 -0.4027
  131MOL0     C17593   6.378   4.844   6.393 -0.7910  0.2960  0.2877
  131MOL0    Cl17594   6.546   4.873   6.435 -0.8480  0.1694  0.1080
  131MOL0     C17595   5.489   5.023   7.059 -0.5844  0.1899  0.1610
  131MOL0     C17596   5.391   5.043   7.158 -0.0160  0.6962  0.8563
  131MOL0     O17597   5.018   4.861   7.220  0.3889 -0.7467  1.5683
  131MOL0     C17598   5.066   5.027   7.532 -0.8223  0.2443  0.5948
  131MOL0     C17599   4.996   5.052   7.651  0.1998  0.9184  0.1044
  131MOL0     N17600   4.164   5.154   8.055 -0.5984  0.0309  0.5521
  131MOL0     N17601   4.054   5.216   8.013 -0.1752  0.1169 -0.0831
  131MOL0     C17602   3.164   4.722   7.344 -0.6160 -0.6251 -0.2375
  131MOL0     C17603   3.045   4.660   7.307 -0.3390  0.7409  0.6181
  131MOL0     C17604   2.645   4.566   7.088 -0.5761  0.4220  0.5747
  131MOL0     C17605   2.513   4.622   7.119  0.2759  0.4133  0.4598
  131MOL0     C17606   2.395   4.567   7.069 -0.4121 -0.4020  0.4521
  131MOL0     C17607   2.410   4.456   6.984 -0.5764  0.1908  0.3054
  131MOL0     O17608   2.312   4.407   6.901 -0.3878 -0.0234 -0.8190
  131MOL0     C17609   2.183   4.464   6.927  0.7397  1.4511  0.4145
  131MOL0     C17610   2.073   4.382   6.852  0.0637  0.0139 -0.4650
  131MOL0     C17611   2.024   4.249   6.914 -0.7680  1.2859  0.2661
  131MOL0     C17612   1.970   4.262   7.055  0.3059 -0.0887  0.2856
  131MOL0     C17613   1.883   4.148   7.097 -0.5435 -0.5403 -0.9347
  131MOL0     C17614   1.828   4.045   7.139 -0.3485 -0.1251  0.1152
  131MOL0     C17615   2.534   4.396   6.967  0.3232 -0.3713  0.9052
  131MOL0     C17616   2.649   4.447   7.021 -0.3798 -0.1827  0.1362
  131MOL0     C17617   2.772   4.369   7.000 -0.6237  0.7648  0.5167
  131MOL0     H17618   3.090   4.645   6.979 -1.1606  0.6884 -0.2525
  131MOL0     H17619   3.294   4.784   7.038 -0.8807 -0.0056  0.4168
  131MOL0     H17620   3.317   5.028   7.222  1.8375 -1.0958 -1.2168
  131MOL0     H17621   3.320   5.000   7.390  0.8609  1.0332  0.5953
  131MOL0     H17622   3.514   5.155   7.306 -0.6498 -0.6609 -1.3292
  131MOL0     H17623   3.583   5.010   7.235  0.0725  2.1043 -1.2597
  131MOL0     H17624   3.602   4.903   7.432  0.7630  0.3514  2.7635
  131MOL0     H17625   3.511   5.021   7.526 -0.3890  1.3139 -0.6165
  131MOL0     H17626   3.781   5.111   7.393 -0.4083  1.1012 -0.4950
  131MOL0     H17627   3.684   5.182   7.515  3.0125  0.4650  1.6582
  131MOL0     H17628   3.744   4.974   7.669  2.0206 -2.9966 -0.1881
  131MOL0     H17629   3.862   4.942   7.539 -0.8258  0.2689 -1.3759
  131MOL0     H17630   3.979   5.054   7.686 -0.1365  0.5946  0.5463
  131MOL0     H17631   3.951   5.171   7.561  1.0807 -1.7502  0.6028
  131MOL0     H17632   3.829   5.129   7.840 -1.1947  1.1109  0.2874
  131MOL0     H17633   3.767   5.258   7.720  1.2853  0.4028 -1.7070
  131MOL0     H17634   3.984   5.358   7.723 -0.7318  1.7812  0.7848
  131MOL0     H17635   3.895   5.363   7.880  0.4900 -0.9003  1.4910
  131MOL0     H17636   4.213   5.172   7.729  0.5876 -0.3277  0.6196
  131MOL0     H17637   4.411   5.059   8.045 -0.2844  2.4785  0.5885
  131MOL0     H17638   4.402   4.993   7.885 -1.2877 -1.7978  2.5435
  131MOL0     H17639   4.467   5.250   7.813  2.0609 -0.7878 -0.7330
  131MOL0     H17640   4.472   5.280   7.980 -1.8699  1.2394 -1.7987
  131MOL0     H17641   4.661   5.081   7.987 -0.1835 -0.6137  0.0890
  131MOL0     H17642   4.709   5.227   7.899  2.5059 -2.1467 -3.2000
  131MOL0     H17643   4.620   5.128   7.687  0.4258  1.3848  0.8639
  131MOL0     H17644   4.594   4.983   7.773 -1.5501  0.6983 -4.0936
  131MOL0     H17645   4.688   4.941   7.555 -0.8225  3.1305 -2.1687
  131MOL0     H17646   4.833   4.878   7.349  0.0808 -0.0998  0.1916
  131MOL0     H17647   5.220   4.755   7.125 -0.7149  2.0062 -2.7382
  131MOL0     H17648   5.387   4.690   6.996 -1.9059 -0.6015  2.3969
  131MOL0     H17649   5.700   4.708   6.921  0.1083  2.1213  1.6759
  131MOL0     H17650   5.542   4.690   6.823 -0.6145  1.6329 -0.3825
  131MOL0     H17651   5.702   4.690   6.651  3.7026  1.1350 -1.8284
  131MOL0     H17652   5.670   4.861   6.672  0.1635  0.6043 -0.4487
  131MOL0     H17653   5.876   4.862   6.811  1.0893  0.2450 -1.3995
  131MOL0     H17654   5.903   4.687   6.787  1.6825  0.6007 -0.1999
  131MOL0     H17655   5.920   4.895   6.568  0.1633 -0.7151 -1.2254
  131MOL0     H17656   5.895   4.728   6.535  0.5545  1.8687 -2.5487
  131MOL0     H17657   6.116   4.684   6.667  0.5480 -0.4683 -0.2033
  131MOL0     H17658   6.112   4.854   6.708 -1.7960  3.5460 -1.6068
  131MOL0     H17659   6.155   4.701   6.448 -3.8368 -2.4232  3.9513
  131MOL0     H17660   6.126   4.878   6.426  3.0087 -0.9756 -3.0262
  131MOL0     H17661   6.346   4.759   6.598 -1.1559  0.6366  1.5598
  131MOL0     H17662   6.306   4.929   6.579 -0.7778 -0.0748 -1.6674
  131MOL0     H17663   6.359   4.758   6.329  1.4185 -0.6115  0.7663
  131MOL0     H17664   6.332   4.930   6.343 -0.6652 -0.2215 -0.7504
  131MOL0     H17665   5.565   5.099   7.043 -1.7351  0.9072 -2.4193
  131MOL0     H17666   5.392   5.138   7.211  1.8052  0.4335  1.3757
  131MOL0     H17667   5.174   5.040   7.535 -1.0010  1.7570  1.3108
  131MOL0     H17668   5.053   5.094   7.733  0.5918 -1.2244  0.9880
  131MOL0     H17669   3.187   4.724   7.450  1.0139 -0.5035 -0.5620
  131MOL0     H17670   2.976   4.626   7.384 -1.5249  1.0670 -0.2722
  131MOL0     H17671   2.504   4.710   7.181  0.2850 -0.6457  2.0420
  131MOL0     H17672   2.309   4.630   7.086  1.4230  2.1130  0.9996
  131MOL0     H17673   2.162   4.565   6.890 -1.3512  1.1150  0.5551
  131MOL0     H17674   2.150   4.456   7.031 -0.1880 -1.1495  0.0078
  131MOL0     H17675   2.093   4.370   6.745 -0.4604  1.9013 -0.8093
  131MOL0     H17676   1.985   4.446   6.855 -0.0864 -0.1309  3.1269
  131MOL0     H17677   2.114   4.187   6.918 -1.7679 -0.2477 -0.5128
  131MOL0     H17678   1.949   4.203   6.849  0.2436  1.7297 -1.2654
  131MOL0     H17679   2.048   4.275   7.130  0.4947  1.0769 -0.0886
  131MOL0     H17680   1.899   4.345   7.058 -1.0148 -1.0557 -1.9202
  131MOL0     H17681   1.807   3.944   7.168  1.2925 -0.4602  0.2527
  131MOL0     H17682   2.539   4.316   6.895 -0.1539  0.8788 -0.5757
  131MOL0     H17683   2.765   4.293   6.921 -2.8104  0.7355  0.6904
  131MOL0     H17684   2.860   4.423   6.964 -0.5642  1.1540  1.2219
  131MOL0     H17685   2.789   4.305   7.087  1.5795  1.6606  0.7999
  132MOL0     O17686   5.324   0.509  10.709 -0.2298 -0.3802  0.1311
  132MOL0     C17687   5.218   0.508  10.768  0.6905  0.2743  1.0889
  132MOL0     O17688   5.194   0.582  10.874 -0.2753 -0.2653 -0.3414
  132MOL0     C17689   5.285   0.671  10.920  0.2851 -1.2074 -0.1131
  132MOL0     C17690   5.409   0.637  10.983  0.0522 -0.2829  0.2794
  132MOL0     C17691   5.491   0.741  11.036  0.6002 -1.0065 -0.2776
  132MOL0     C17692   5.446   0.875  11.037  0.1962 -0.6442 -0.5471
  132MOL0     O17693   5.521   0.971  11.093 -0.1274  0.3366 -0.8089
  132MOL0     C17694   5.570   1.076  11.010 -0.1270  0.5198  0.0902
  132MOL0     C17695   5.700   1.131  11.046  0.1440  0.3406  0.0675
  132MOL0     C17696   5.809   1.050  10.982 -0.4107  0.1551 -0.7568
  132MOL0     C17697   5.952   1.080  11.044  0.5585  0.0429  0.1434
  132MOL0     C17698   6.043   0.980  10.980 -1.1735 -0.0678  0.3907
  132MOL0     C17699   6.197   1.023  10.997 -0.7076 -0.0433  0.9001
  132MOL0     C17700   6.244   1.007  11.141  0.3157 -0.1910  0.1470
  132MOL0     C17701   6.395   1.015  11.144  0.3081 -0.6243 -0.0606
  132MOL0     N17702   6.443   0.975  11.274 -0.2252  0.5375  0.0333
  132MOL0     C17703   6.511   1.060  11.356  0.3446  0.2761 -0.6825
  132MOL0     C17704   6.569   0.977  11.443 -0.9099  0.1141  0.3346
  132MOL0     C17705   6.653   1.001  11.557 -0.6177 -0.3622 -0.5228
  132MOL0     C17706   6.791   0.936  11.548  0.5353 -0.2656  0.1901
  132MOL0     C17707   6.882   0.928  11.676  0.9082 -0.2358 -0.1097
  132MOL0     C17708   6.889   1.059  11.752  0.3840 -0.4642 -0.3538
  132MOL0     O17709   6.991   1.042  11.857 -0.2518  0.5238 -0.0781
  132MOL0     C17710   7.121   1.070  11.825  0.5499  0.1618 -0.2206
  132MOL0     C17711   7.220   0.981  11.871  0.3149  0.1382  0.4558
  132MOL0     C17712   7.348   1.007  11.831  0.1982 -0.2947 -0.3702
  132MOL0     C17713   7.385   1.121  11.760 -0.7989 -1.3660  0.6793
  132MOL0     C17714   7.519   1.160  11.744  0.2940 -0.0667  0.0029
  132MOL0     O17715   7.614   1.070  11.682  0.0436 -0.3257 -0.8185
  132MOL0     C17716   7.571   0.943  11.648 -0.7244  0.0825 -0.6547
  132MOL0     C17717   7.622   0.830  11.721  0.1411 -0.3668  0.5898
  132MOL0     C17718   7.565   0.706  11.709  0.9728  0.5627 -0.4117
  132MOL0     C17719   7.443   0.689  11.622 -0.1814 -0.3454  0.5367
  132MOL0     O17720   7.388   0.576  11.575 -0.3575  0.3975 -0.3387
  132MOL0     C17721   7.351   0.477  11.675  0.3270  0.2965  0.0330
  132MOL0     C17722   7.211   0.424  11.652  0.2057  0.3640 -1.2300
  132MOL0     C17723   7.100   0.539  11.640 -1.4150 -0.1804 -0.6946
  132MOL0     C17724   6.965   0.465  11.638  0.2072  0.3186  0.0479
  132MOL0     C17725   6.843   0.553  11.600 -0.0430 -0.1740  0.1591
  132MOL0     C17726   6.713   0.468  11.594 -0.0120  0.6281 -0.0145
  132MOL0     C17727   6.593   0.551  11.577 -0.3869  0.3030  0.1444
  132MOL0     C17728   6.465   0.459  11.560 -0.2160 -0.3711 -0.3055
  132MOL0    Cl17729   6.407   0.391  11.728  0.1759  0.3330  0.4574
  132MOL0     C17730   7.401   0.801  11.556  0.2745  0.2471 -0.0650
  132MOL0     C17731   7.474   0.924  11.555  0.6021  0.8969 -0.2135
  132MOL0     O17732   7.546   1.283  11.771 -0.1054  0.2655  0.0481
  132MOL0     C17733   7.289   1.209  11.716 -0.5703  0.2046  0.2712
  132MOL0     C17734   7.159   1.176  11.740  0.7762  0.0695 -1.4963
  132MOL0     N17735   6.538   0.841  11.412 -0.1069  0.4092 -0.6782
  132MOL0     N17736   6.452   0.839  11.313 -0.3772 -0.3913 -0.4312
  132MOL0     C17737   5.318   0.908  10.983 -0.2543 -0.5884 -0.3049
  132MOL0     C17738   5.235   0.802  10.930 -0.3371 -0.0658  0.1949
  132MOL0     C17739   5.109   0.424  10.711 -0.6915  0.2398  0.1141
  132MOL0     C17740   4.977   0.474  10.719  0.2113  0.6643  0.7195
  132MOL0     C17741   4.866   0.404  10.660 -0.3170 -0.8157 -0.8137
  132MOL0     C17742   4.890   0.279  10.601  0.2161  0.1599 -0.3544
  132MOL0     O17743   4.786   0.202  10.550  0.3963 -0.4399 -0.3529
  132MOL0     C17744   4.653   0.262  10.553 -0.5604 -0.0405  0.1738
  132MOL0     C17745   4.542   0.165  10.496  0.4612 -0.6704 -0.2115
  132MOL0     C17746   4.419   0.231  10.440  0.3834 -0.2756 -0.1721
  132MOL0     C17747   4.312   0.131  10.414  0.5143 -0.4392  0.0778
  132MOL0     C17748   4.191   0.187  10.368  0.8240 -0.5519 -0.4951
  132MOL0     C17749   4.095   0.244  10.319 -0.3787  0.4379 -0.6433
  132MOL0     C17750   5.020   0.234  10.586 -0.1136 -0.6520  0.6781
  132MOL0     C17751   5.131   0.303  10.643 -0.0833  0.1786  0.1928
  132MOL0     C17752   5.260   0.244  10.609  0.4489 -0.4890 -0.7964
  132MOL0     H17753   5.437   0.532  10.985  1.7908  0.0766 -1.5962
  132MOL0     H17754   5.596   0.725  11.059  1.8936  2.2814 -3.0618
  132MOL0     H17755   5.573   1.041  10.906  3.3958  0.1989  0.1832
  132MOL0     H17756   5.494   1.154  11.013 -0.5745  0.0639  0.9327
  132MOL0     H17757   5.703   1.126  11.155  0.2803  1.5812  0.1313
  132MOL0     H17758   5.703   1.237  11.020 -0.8604 -0.0469 -1.8088
  132MOL0     H17759   5.798   1.053  10.874 -1.3551 -1.5238 -0.7451
  132MOL0     H17760   5.784   0.947  11.008  1.4951  0.2075  1.6230
  132MOL0     H17761   5.986   1.181  11.021  1.7022 -0.6368 -1.3027
  132MOL0     H17762   5.948   1.064  11.153 -0.0070 -0.5079  0.0461
  132MOL0     H17763   6.023   0.886  11.033 -2.4866  1.3052  2.4608
  132MOL0     H17764   6.017   0.970  10.875  1.1791  2.0117 -0.4835
  132MOL0     H17765   6.252   0.960  10.927  0.2888  0.3927  1.2572
  132MOL0     H17766   6.194   1.127  10.961 -2.5945 -0.9399 -1.8401
  132MOL0     H17767   6.212   0.907  11.170  1.5316 -0.6686 -0.1402
  132MOL0     H17768   6.199   1.084  11.206  3.5030  1.2680  0.8012
  132MOL0     H17769   6.428   0.945  11.066 -2.2476  0.7650 -2.5527
  132MOL0     H17770   6.431   1.117  11.128 -0.8080 -0.2920 -0.5130
  132MOL0     H17771   6.510   1.169  11.351  1.7131  0.3057 -0.6953
  132MOL0     H17772   6.675   1.108  11.563  2.1172 -0.8124 -0.9313
  132MOL0     H17773   6.601   0.967  11.647 -1.1894 -0.7671 -1.0031
  132MOL0     H17774   6.781   0.835  11.507 -0.2830 -0.7023  1.3944
  132MOL0     H17775   6.834   0.993  11.465 -4.0655  2.3529 -0.7476
  132MOL0     H17776   6.983   0.904  11.641  0.9657  1.3860 -1.1876
  132MOL0     H17777   6.857   0.846  11.743  0.7174 -0.7039 -0.7465
  132MOL0     H17778   6.790   1.079  11.792 -0.1515 -0.5802 -1.5709
  132MOL0     H17779   6.912   1.135  11.677  0.5687 -0.8746 -0.7195
  132MOL0     H17780   7.200   0.888  11.923  0.6550  0.0397  0.4137
  132MOL0     H17781   7.429   0.944  11.867  0.4768  0.0426 -0.4029
  132MOL0     H17782   7.697   0.857  11.794  0.0865  2.3626 -0.2396
  132MOL0     H17783   7.604   0.614  11.752 -0.3243 -0.0800 -0.5410
  132MOL0     H17784   7.412   0.387  11.689  0.9383  0.5949 -0.6513
  132MOL0     H17785   7.343   0.526  11.773 -5.3166  0.9691 -0.4391
  132MOL0     H17786   7.206   0.370  11.557 -1.1236  2.8481 -2.7056
  132MOL0     H17787   7.170   0.349  11.721 -3.5047  0.0866 -3.4338
  132MOL0     H17788   7.105   0.595  11.734 -0.0667 -4.6802  2.2310
  132MOL0     H17789   7.135   0.602  11.557  0.8551 -0.5059 -0.0589
  132MOL0     H17790   6.944   0.428  11.739 -2.4660  2.6786  0.4885
  132MOL0     H17791   6.974   0.383  11.566 -2.2838  0.7986 -0.9482
  132MOL0     H17792   6.865   0.596  11.502 -0.2993  2.2908  1.1198
  132MOL0     H17793   6.837   0.627  11.681  0.5382  0.2699 -0.1909
  132MOL0     H17794   6.714   0.401  11.508  3.5924  2.6015 -1.7468
  132MOL0     H17795   6.708   0.411  11.688  1.5740  2.5004  1.2932
  132MOL0     H17796   6.608   0.602  11.481  1.1593 -1.8071 -0.8254
  132MOL0     H17797   6.596   0.628  11.655  1.1096 -2.8053  3.4676
  132MOL0     H17798   6.396   0.528  11.510  0.5389  1.0864  0.5987
  132MOL0     H17799   6.480   0.377  11.489  2.2106 -0.4452  0.1990
  132MOL0     H17800   7.327   0.790  11.477 -0.6822  0.8781  0.7171
  132MOL0     H17801   7.453   1.005  11.486  1.2309  0.0310 -1.4467
  132MOL0     H17802   7.314   1.298  11.660  0.0673 -0.2586 -0.1824
  132MOL0     H17803   7.086   1.244  11.697 -0.2438 -0.8267 -1.2433
  132MOL0     H17804   5.291   1.014  10.983  1.1543 -0.1250  2.7898
  132MOL0     H17805   5.145   0.831  10.877  0.5417  3.7051  0.4769
  132MOL0     H17806   4.956   0.564  10.775 -2.7355  0.7872 -0.3859
  132MOL0     H17807   4.768   0.451  10.665 -0.7994 -1.8476 -0.1501
  132MOL0     H17808   4.643   0.347  10.485 -2.3292 -1.9909 -2.2018
  132MOL0     H17809   4.631   0.281  10.658  0.1086 -2.2132  0.7784
  132MOL0     H17810   4.515   0.113  10.589 -0.6481 -0.4450 -0.3900
  132MOL0     H17811   4.582   0.091  10.427 -1.8000 -3.8242  1.5965
  132MOL0     H17812   4.441   0.286  10.349  2.2578 -1.0914 -0.2706
  132MOL0     H17813   4.379   0.292  10.522  1.0936 -2.4270  1.8951
  132MOL0     H17814   4.325   0.059  10.333 -3.3447 -0.1063 -1.0396
  132MOL0     H17815   4.284   0.070  10.500 -2.7378 -0.7520 -1.0688
  132MOL0     H17816   4.014   0.299  10.276  0.8753  0.2748 -3.4428
  132MOL0     H17817   5.039   0.135  10.547  1.1015 -0.9221  1.8649
  132MOL0     H17818   5.256   0.142  10.568  1.0706 -0.6224 -0.5359
  132MOL0     H17819   5.316   0.295  10.530  2.6862 -2.2519 -0.4618
  132MOL0     H17820   5.319   0.244  10.701  1.3814 -1.1003 -1.3765
  133MOL0     O17821   3.686   1.737   5.164  0.3336  0.2999 -0.1809
  133MOL0     C17822   3.606   1.781   5.245 -0.2275  0.1233  0.0921
  133MOL0     O17823   3.649   1.807   5.368  0.8114 -0.6633  0.1442
  133MOL0     C17824   3.722   1.928   5.388  0.6977  0.5687  0.2688
  133MOL0     C17825   3.781   1.947   5.516  0.3829  0.2654  0.1575
  133MOL0     C17826   3.854   2.060   5.540  0.3657 -0.3094  0.0286
  133MOL0     C17827   3.867   2.167   5.446 -0.6403  1.2275 -0.1635
  133MOL0     O17828   3.937   2.274   5.477 -0.3947  0.1726  0.5707
  133MOL0     C17829   4.018   2.329   5.382  0.7675 -0.3135 -0.1426
  133MOL0     C17830   4.115   2.427   5.437 -1.0113 -0.6937 -0.1438
  133MOL0     C17831   4.227   2.446   5.338 -0.4788 -0.2082  0.4938
  133MOL0     C17832   4.316   2.559   5.370 -0.4007 -0.2662  0.2312
  133MOL0     C17833   4.439   2.576   5.278  0.3122 -0.3748 -0.5596
  133MOL0     C17834   4.557   2.655   5.324 -0.9066  0.2527 -0.9268
  133MOL0     C17835   4.513   2.802   5.362 -0.2193 -0.2547 -0.7666
  133MOL0     C17836   4.633   2.902   5.350 -0.1233  0.0772  0.4578
  133MOL0     N17837   4.765   2.851   5.407  0.2497 -0.5771  0.5532
  133MOL0     C17838   4.794   2.810   5.540 -0.1859  0.6501  0.1590
  133MOL0     C17839   4.912   2.753   5.532 -0.7541 -0.5572 -0.0505
  133MOL0     C17840   4.990   2.679   5.633  0.5217 -0.4232  0.0235
  133MOL0     C17841   5.108   2.750   5.699  0.1798  0.0378 -0.0004
  133MOL0     C17842   5.072   2.867   5.793  1.2037 -0.2670 -0.0416
  133MOL0     C17843   5.187   2.932   5.864  0.3676  0.6133  0.1658
  133MOL0     O17844   5.292   2.977   5.778  0.4123  0.1758 -0.3020
  133MOL0     C17845   5.396   3.041   5.836  1.1861  0.1649 -0.3175
  133MOL0     C17846   5.423   3.058   5.979  0.9703 -0.3341  0.2721
  133MOL0     C17847   5.541   3.109   6.021  0.5054 -0.4329  0.1550
  133MOL0     C17848   5.635   3.153   5.934 -0.4387 -0.0975 -0.2164
  133MOL0     C17849   5.767   3.207   5.977  0.5841  0.3325 -0.7012
  133MOL0     O17850   5.755   3.259   6.105 -0.1532 -0.3913 -0.1122
  133MOL0     C17851   5.868   3.318   6.153  0.0053 -0.5618 -0.2069
  133MOL0     C17852   5.885   3.455   6.164 -0.2538 -0.2146  0.0749
  133MOL0     C17853   6.010   3.503   6.208 -0.5511 -0.0273  0.4512
  133MOL0     C17854   6.116   3.423   6.233 -0.5694 -0.4929  0.6398
  133MOL0     O17855   6.238   3.478   6.282 -0.1237 -0.5473  0.0184
  133MOL0     C17856   6.249   3.473   6.429  0.1337 -0.1933  0.1773
  133MOL0     C17857   6.389   3.534   6.467 -0.1956 -0.4425  0.4327
  133MOL0     C17858   6.437   3.522   6.611  0.7910  0.5112 -0.9994
  133MOL0     C17859   6.378   3.622   6.714 -0.8509 -0.9981  0.0293
  133MOL0     C17860   6.476   3.639   6.834  0.2457  0.3439  0.3663
  133MOL0     C17861   6.411   3.751   6.929  0.7869  0.3738  0.3616
  133MOL0     C17862   6.485   3.755   7.058 -0.0488  0.6948 -0.8924
  133MOL0     C17863   6.427   3.644   7.149  1.1198 -0.1735  0.0934
  133MOL0    Cl17864   6.499   3.646   7.306 -0.6465  0.0925  0.1490
  133MOL0     C17865   6.093   3.284   6.229  0.4370 -0.0709  0.4953
  133MOL0     C17866   5.970   3.238   6.192  0.0795 -0.0612 -0.2154
  133MOL0     O17867   5.867   3.201   5.908 -0.0424 -0.0342  0.1740
  133MOL0     C17868   5.618   3.125   5.802  0.7713  0.3923 -0.1699
  133MOL0     C17869   5.502   3.074   5.751  0.0055 -0.2507  0.3002
  133MOL0     N17870   4.964   2.771   5.402  0.5260 -0.4003  0.0772
  133MOL0     N17871   4.877   2.824   5.331 -0.0720 -0.7304  0.1865
  133MOL0     C17872   3.794   2.157   5.321 -0.7138 -0.0835 -0.3485
  133MOL0     C17873   3.728   2.033   5.299 -0.0997 -0.7414 -1.0364
  133MOL0     C17874   3.474   1.813   5.198  0.2961 -0.6330  0.0260
  133MOL0     C17875   3.383   1.852   5.297  0.0379  0.3977 -0.2823
  133MOL0     C17876   3.261   1.906   5.271  0.1691  0.0132 -0.7384
  133MOL0     C17877   3.216   1.915   5.141  0.4099 -0.0580 -0.8587
  133MOL0     O17878   3.088   1.947   5.107  0.0224 -0.6355  0.3504
  133MOL0     C17879   3.024   2.034   5.206  0.1095 -0.0187 -0.3859
  133MOL0     C17880   2.893   2.072   5.153  1.2783  0.0502 -0.5198
  133MOL0     C17881   2.800   1.948   5.120  0.5144 -0.1337  0.1270
  133MOL0     C17882   2.652   1.969   5.081  0.2137 -0.5126  0.3663
  133MOL0     C17883   2.648   2.079   4.981 -0.7533  0.9839  0.2046
  133MOL0     C17884   2.644   2.158   4.883  0.4771  0.2880 -0.5528
  133MOL0     C17885   3.292   1.863   5.035 -0.5100  0.5560 -0.3119
  133MOL0     C17886   3.425   1.819   5.067  0.6881 -0.9013  0.6853
  133MOL0     C17887   3.508   1.782   4.942  0.3540  0.0221 -0.0420
  133MOL0     H17888   3.777   1.867   5.589 -1.4606 -0.2930 -0.5025
  133MOL0     H17889   3.900   2.075   5.638  0.2861  0.9639 -0.1040
  133MOL0     H17890   4.061   2.244   5.329 -0.5344 -0.3642 -1.1690
  133MOL0     H17891   3.954   2.368   5.302  1.1137 -0.5138 -0.5231
  133MOL0     H17892   4.164   2.398   5.530  0.0854  2.4424  0.3787
  133MOL0     H17893   4.052   2.517   5.444  0.0253 -0.0388  1.3994
  133MOL0     H17894   4.179   2.459   5.241  0.1634 -3.3625 -0.3281
  133MOL0     H17895   4.284   2.353   5.338  2.0623  1.1157  3.4924
  133MOL0     H17896   4.262   2.649   5.339  0.1867 -0.3021 -0.9592
  133MOL0     H17897   4.333   2.573   5.477 -1.3110  1.0825  0.2233
  133MOL0     H17898   4.470   2.473   5.260 -0.7484 -0.7473 -0.3326
  133MOL0     H17899   4.413   2.600   5.174 -1.2537 -2.0828 -0.6209
  133MOL0     H17900   4.611   2.604   5.404 -0.8536  1.4350 -0.1952
  133MOL0     H17901   4.624   2.649   5.238 -0.0434 -0.5761 -0.2154
  133MOL0     H17902   4.472   2.812   5.463 -1.4549  2.3494 -1.4243
  133MOL0     H17903   4.433   2.843   5.299 -0.5712 -1.8831 -1.4373
  133MOL0     H17904   4.638   2.925   5.243 -2.4263  1.9257  0.6744
  133MOL0     H17905   4.589   2.981   5.412 -1.9307  0.2200 -0.9121
  133MOL0     H17906   4.732   2.814   5.629  1.2352  1.7616  1.1394
  133MOL0     H17907   4.921   2.653   5.714  0.1354  3.6153  1.2388
  133MOL0     H17908   5.030   2.589   5.585  0.3952 -2.3035  3.1089
  133MOL0     H17909   5.156   2.671   5.759  1.9166  1.0532  0.0084
  133MOL0     H17910   5.183   2.769   5.622  0.0726 -1.5631 -0.5378
  133MOL0     H17911   4.995   2.841   5.867  0.7201  3.4512  0.9867
  133MOL0     H17912   5.018   2.948   5.743 -0.6901  1.0901  3.7470
  133MOL0     H17913   5.220   2.859   5.939 -1.1222 -2.8645 -2.2747
  133MOL0     H17914   5.149   3.011   5.929  0.0259 -0.3364  1.1497
  133MOL0     H17915   5.348   3.034   6.054 -0.6810  1.6961 -0.6301
  133MOL0     H17916   5.573   3.113   6.124 -1.1179 -2.8758  0.8361
  133MOL0     H17917   5.802   3.526   6.160  1.1017  1.5602  1.5740
  133MOL0     H17918   6.017   3.609   6.227 -0.7869 -0.1305  1.1235
  133MOL0     H17919   6.172   3.524   6.487  0.6089  0.2227  0.4529
  133MOL0     H17920   6.250   3.365   6.446  3.2491 -0.2045  0.5079
  133MOL0     H17921   6.455   3.466   6.413 -1.3202 -1.4366  0.2660
  133MOL0     H17922   6.403   3.634   6.425 -0.4692 -0.5074  0.1885
  133MOL0     H17923   6.398   3.429   6.653 -0.8711  1.7293  0.3523
  133MOL0     H17924   6.545   3.510   6.604  0.7027  0.0214 -1.5535
  133MOL0     H17925   6.282   3.579   6.746 -1.8769 -0.7687 -2.4956
  133MOL0     H17926   6.354   3.716   6.663 -1.4112 -0.4028  1.3365
  133MOL0     H17927   6.576   3.662   6.798  0.2970  1.4646  1.1770
  133MOL0     H17928   6.461   3.541   6.880 -1.8185  0.9063  1.0289
  133MOL0     H17929   6.420   3.845   6.874 -0.2481 -0.2206 -0.8698
  133MOL0     H17930   6.303   3.738   6.937  0.0135  4.3792 -1.2166
  133MOL0     H17931   6.460   3.844   7.116 -2.4552 -0.5493  0.1540
  133MOL0     H17932   6.593   3.751   7.045  0.4963 -1.9047  2.8424
  133MOL0     H17933   6.324   3.673   7.170  1.4630  1.4498 -0.3115
  133MOL0     H17934   6.425   3.544   7.103 -3.6319 -0.9983  1.5620
  133MOL0     H17935   6.168   3.210   6.255 -0.9392 -1.1488  1.5259
  133MOL0     H17936   5.952   3.131   6.188 -1.1395  0.0747  0.8243
  133MOL0     H17937   5.693   3.149   5.727  0.0012  2.8966 -0.2154
  133MOL0     H17938   5.488   3.039   5.650 -0.1152  2.4852 -0.7305
  133MOL0     H17939   3.806   2.235   5.246  1.6387  0.5721  0.6134
  133MOL0     H17940   3.683   2.021   5.200  2.2380  0.0578 -2.2620
  133MOL0     H17941   3.417   1.852   5.400  2.3360 -1.1109 -0.9549
  133MOL0     H17942   3.204   1.933   5.359 -2.2207 -1.2083 -1.8134
  133MOL0     H17943   3.078   2.128   5.217 -1.1884  0.5790  1.2590
  133MOL0     H17944   3.015   1.981   5.302  0.0568 -1.3627 -1.0984
  133MOL0     H17945   2.913   2.119   5.057  2.0117 -0.8361 -0.8113
  133MOL0     H17946   2.843   2.149   5.213  1.3637  0.8323 -1.4313
  133MOL0     H17947   2.783   1.868   5.192 -2.4033 -0.9618 -1.3227
  133MOL0     H17948   2.845   1.902   5.031  0.4054 -1.4392  0.7259
  133MOL0     H17949   2.608   1.883   5.030  0.2496 -0.1121 -0.3466
  133MOL0     H17950   2.597   1.998   5.171  0.5766  1.6387 -0.0565
  133MOL0     H17951   2.629   2.233   4.808  1.5382  1.6518  0.5455
  133MOL0     H17952   3.245   1.877   4.939 -1.7430 -1.5992 -0.0772
  133MOL0     H17953   3.550   1.681   4.950 -1.4648 -0.7701 -0.0413
  133MOL0     H17954   3.443   1.781   4.854 -1.4634  0.9131  1.2194
  133MOL0     H17955   3.585   1.857   4.923 -0.4146  0.0703 -3.8029
  134MOL0     O17956   3.297  10.967   6.907  0.0026 -0.6298  0.4652
  134MOL0     C17957   3.263  10.857   6.860  0.7991  0.3512  0.3221
  134MOL0     O17958   3.347  10.770   6.810 -0.0102  0.0453  0.4240
  134MOL0     C17959   3.471  10.803   6.767 -0.0085  0.0574  0.2480
  134MOL0     C17960   3.563  10.857   6.851 -0.3172  0.3990 -0.5253
  134MOL0     C17961   3.694  10.873   6.803 -0.2139 -0.2369  0.3750
  134MOL0     C17962   3.736  10.838   6.679  0.0918  0.4078 -0.0734
  134MOL0     O17963   3.856  10.869   6.624  0.2574  1.0069 -0.4862
  134MOL0     C17964   3.960  10.909   6.713 -0.0381 -0.1569 -0.8206
  134MOL0     C17965   4.098  10.882   6.654  0.2298  0.1133  0.0189
  134MOL0     C17966   4.213  10.915   6.752  0.2345  0.0495  0.1459
  134MOL0     C17967   4.247  10.796   6.845 -0.5369  0.2360 -0.2179
  134MOL0     C17968   4.342  10.839   6.961 -0.5888 -0.2677 -0.8518
  134MOL0     C17969   4.423  10.731   7.025  0.4034  0.8463  0.1027
  134MOL0     C17970   4.520  10.795   7.127  0.5208  0.3183 -0.7054
  134MOL0     C17971   4.633  10.694   7.173  0.2233 -0.0938  0.3797
  134MOL0     N17972   4.729  10.657   7.061  0.2046 -0.2148 -0.7281
  134MOL0     C17973   4.839  10.729   7.021  0.3256  0.3216 -0.7958
  134MOL0     C17974   4.903  10.655   6.932  0.9814 -0.2056 -0.1981
  134MOL0     C17975   5.043  10.692   6.876 -0.1626 -0.0291  0.9722
  134MOL0     C17976   5.156  10.643   6.963  0.8376  0.1175 -0.6685
  134MOL0     C17977   5.288  10.705   6.949 -0.6688  0.0254 -0.7782
  134MOL0     C17978   5.389  10.658   7.056  0.7717 -0.4208  0.2674
  134MOL0     O17979   5.512  10.701   7.002 -0.1625  0.3454 -0.3717
  134MOL0     C17980   5.628  10.692   7.071  0.0779 -0.1057  0.3194
  134MOL0     C17981   5.624  10.635   7.200 -0.3660  0.4910  0.1287
  134MOL0     C17982   5.735  10.610   7.280 -0.0067 -0.2960  0.5244
  134MOL0     C17983   5.859  10.630   7.223 -0.1021 -0.3687 -0.0354
  134MOL0     C17984   5.993  10.608   7.300  0.0887  0.2689 -1.1191
  134MOL0     O17985   6.104  10.615   7.219 -0.2495  0.1195 -0.2216
  134MOL0     C17986   6.216  10.570   7.275  0.7431 -0.5765 -0.2120
  134MOL0     C17987   6.268  10.439   7.250  0.1381 -0.2214  0.5676
  134MOL0     C17988   6.382  10.406   7.317 -0.1944  0.3191  0.1549
  134MOL0     C17989   6.455  10.489   7.402  0.0117 -0.5632  0.1142
  134MOL0     O17990   6.556  10.439   7.472  0.1472 -0.1410  0.3930
  134MOL0     C17991   6.522  10.371   7.593 -0.4898 -0.0310  0.4642
  134MOL0     C17992   6.647  10.326   7.669  0.4657  0.4346 -0.3228
  134MOL0     C17993   6.763  10.416   7.659  0.0562  0.8007  0.7111
  134MOL0     C17994   6.877  10.372   7.770  0.1725 -0.6127  0.3735
  134MOL0     C17995   7.012  10.440   7.746 -0.0193 -0.2857  0.3072
  134MOL0     C17996   7.128  10.405   7.840 -0.2862 -0.4093 -0.1128
  134MOL0     C17997   7.270  10.458   7.798  0.0026  0.2099 -0.6996
  134MOL0     C17998   7.369  10.427   7.913  0.4865 -0.4247 -0.0424
  134MOL0    Cl17999   7.370  10.254   7.972 -0.1967 -0.2529 -0.0189
  134MOL0     C18000   6.421  10.626   7.398 -0.7548 -0.2070 -0.1055
  134MOL0     C18001   6.292  10.665   7.346  0.2949 -0.7850  0.2709
  134MOL0     O18002   5.994  10.587   7.422  0.6332 -1.0450  0.7215
  134MOL0     C18003   5.864  10.695   7.102  0.4134  1.0808  0.7616
  134MOL0     C18004   5.755  10.731   7.024 -0.7314 -0.6051 -1.0439
  134MOL0     N18005   4.817  10.539   6.920  0.3813 -0.0607 -0.1422
  134MOL0     N18006   4.716  10.541   6.990 -0.0482 -0.5722 -0.0116
  134MOL0     C18007   3.645  10.775   6.597  0.0563  0.6621 -0.1388
  134MOL0     C18008   3.513  10.751   6.637  0.4078 -0.7824 -0.3801
  134MOL0     C18009   3.116  10.819   6.868  0.5429 -0.9053 -0.5246
  134MOL0     C18010   3.087  10.688   6.896 -0.2864  0.4428  0.1322
  134MOL0     C18011   2.960  10.637   6.917 -0.4077 -0.2101 -0.0548
  134MOL0     C18012   2.853  10.728   6.907 -0.0882 -0.0051 -0.1564
  134MOL0     O18013   2.723  10.691   6.922  0.4447  0.0074  0.4475
  134MOL0     C18014   2.695  10.551   6.921 -0.3293  0.0457 -0.3150
  134MOL0     C18015   2.543  10.541   6.911  0.1270 -0.5951  0.6911
  134MOL0     C18016   2.474  10.634   7.015  0.1661  0.2951 -0.4917
  134MOL0     C18017   2.323  10.597   7.018  0.0736 -0.8305 -0.2062
  134MOL0     C18018   2.287  10.458   7.022 -0.6305 -0.2205 -0.9546
  134MOL0     C18019   2.270  10.343   7.044 -0.1525 -0.0416  0.1671
  134MOL0     C18020   2.882  10.864   6.893 -0.1897  1.0606 -0.2614
  134MOL0     C18021   3.012  10.916   6.872  0.0479  0.7695 -0.5374
  134MOL0     C18022   3.017  11.063   6.854 -0.9811 -0.7432 -0.7528
  134MOL0     H18023   3.529  10.880   6.951  2.2521 -0.4175  0.6304
  134MOL0     H18024   3.765  10.930   6.861  3.3071 -2.1704 -1.6762
  134MOL0     H18025   3.941  11.013   6.741 -2.1627 -1.1091  1.7340
  134MOL0     H18026   3.952  10.849   6.805  0.3367  1.3944  0.2666
  134MOL0     H18027   4.114  10.947   6.567 -1.5107  1.9925  1.0354
  134MOL0     H18028   4.105  10.775   6.633 -1.3891 -0.1715  0.8093
  134MOL0     H18029   4.188  11.001   6.814 -1.9024  1.1265 -2.0506
  134MOL0     H18030   4.300  10.958   6.701 -0.2957  1.3984  0.3422
  134MOL0     H18031   4.155  10.750   6.881 -0.4515 -0.9848 -1.4593
  134MOL0     H18032   4.297  10.721   6.782  0.5790  0.6402  0.1635
  134MOL0     H18033   4.406  10.922   6.931  0.7044  0.1542  2.6194
  134MOL0     H18034   4.275  10.881   7.037 -1.4717 -1.3740 -0.9769
  134MOL0     H18035   4.359  10.657   7.074 -0.6828 -0.0763 -2.5461
  134MOL0     H18036   4.484  10.680   6.950  1.1984 -1.9835  2.4933
  134MOL0     H18037   4.467  10.841   7.212 -1.3351  0.7143 -2.0113
  134MOL0     H18038   4.567  10.878   7.074 -1.5502  0.4634 -2.4350
  134MOL0     H18039   4.679  10.713   7.270 -1.0878 -0.3165  1.0779
  134MOL0     H18040   4.587  10.601   7.206 -0.4063  1.6012  5.0099
  134MOL0     H18041   4.883  10.813   7.075  5.1065 -1.1754 -1.8562
  134MOL0     H18042   5.062  10.654   6.775 -1.7114  2.2931 -0.2643
  134MOL0     H18043   5.049  10.800   6.858 -0.1001 -0.5338 -2.9933
  134MOL0     H18044   5.124  10.663   7.065  1.6866  0.5925 -0.4813
  134MOL0     H18045   5.162  10.535   6.945  1.0795  0.1051 -0.5225
  134MOL0     H18046   5.284  10.814   6.949 -1.3875  0.0836  2.1482
  134MOL0     H18047   5.322  10.662   6.854 -2.0485  0.5965 -1.5704
  134MOL0     H18048   5.390  10.555   7.091  0.9735  0.4181  2.9531
  134MOL0     H18049   5.363  10.715   7.146 -1.8568 -1.6062  0.3444
  134MOL0     H18050   5.533  10.606   7.251  0.5083 -1.0620  0.8811
  134MOL0     H18051   5.719  10.557   7.373  2.0819 -0.5357  0.7959
  134MOL0     H18052   6.222  10.375   7.175 -0.3216  0.2156  0.4713
  134MOL0     H18053   6.403  10.301   7.300 -0.2868  0.4467 -0.7597
  134MOL0     H18054   6.463  10.441   7.653 -3.4511 -1.8127 -0.1578
  134MOL0     H18055   6.472  10.276   7.571 -0.6150 -0.2475  1.5989
  134MOL0     H18056   6.624  10.316   7.775 -0.5677  2.0942 -0.3588
  134MOL0     H18057   6.671  10.226   7.631 -0.7231  0.2138 -0.5098
  134MOL0     H18058   6.791  10.403   7.554 -1.8424  0.8680  0.1552
  134MOL0     H18059   6.740  10.520   7.684  0.1450  1.2090 -0.8149
  134MOL0     H18060   6.886  10.263   7.771 -1.1402 -0.7895 -1.5955
  134MOL0     H18061   6.849  10.387   7.875 -1.7493  2.7568 -0.4746
  134MOL0     H18062   6.989  10.547   7.741  2.5584  0.3648  0.9832
  134MOL0     H18063   7.041  10.414   7.644 -2.4256  3.5946 -1.6207
  134MOL0     H18064   7.098  10.449   7.935 -0.0550  0.6004 -0.4941
  134MOL0     H18065   7.141  10.297   7.846  0.9149 -0.2153  1.2488
  134MOL0     H18066   7.264  10.567   7.794  1.9102  0.4336  0.9055
  134MOL0     H18067   7.302  10.416   7.702  1.2124 -1.3776  0.3530
  134MOL0     H18068   7.468  10.453   7.873 -0.7341  1.8312 -1.8527
  134MOL0     H18069   7.340  10.476   8.006 -2.2428 -2.7832  0.4877
  134MOL0     H18070   6.483  10.689   7.461 -0.5873  0.9440 -1.3648
  134MOL0     H18071   6.251  10.766   7.350  0.4784 -0.7515  3.0863
  134MOL0     H18072   5.953  10.741   7.060  0.3430  0.9171  0.4283
  134MOL0     H18073   5.770  10.797   6.939  2.8119  1.6527  1.1047
  134MOL0     H18074   3.682  10.741   6.500 -0.7656  0.5377 -0.4180
  134MOL0     H18075   3.444  10.703   6.568  2.0287 -0.0471 -2.6453
  134MOL0     H18076   3.162  10.611   6.910 -1.0180 -0.4644 -0.7698
  134MOL0     H18077   2.940  10.532   6.938  1.8528 -0.6449  0.1331
  134MOL0     H18078   2.723  10.503   7.016 -2.2388 -0.9826 -0.2025
  134MOL0     H18079   2.748  10.501   6.840  0.5632  0.0337  0.2660
  134MOL0     H18080   2.512  10.436   6.921  2.4985 -1.2355  2.1504
  134MOL0     H18081   2.522  10.581   6.812 -0.4129  0.4878  1.2321
  134MOL0     H18082   2.488  10.741   6.995 -0.1480  0.5819  0.6946
  134MOL0     H18083   2.514  10.619   7.116  0.1504  2.4868 -0.1108
  134MOL0     H18084   2.287  10.649   7.107  0.4655 -1.6995  0.4766
  134MOL0     H18085   2.280  10.635   6.925 -1.3960 -1.9646 -0.0276
  134MOL0     H18086   2.233  10.243   7.055 -2.2518  0.3882 -2.1995
  134MOL0     H18087   2.795  10.929   6.894 -1.7753 -0.9466 -0.2358
  134MOL0     H18088   3.083  11.080   6.769  2.0150 -2.4866  1.0676
  134MOL0     H18089   2.923  11.119   6.844 -0.8423 -0.4850 -0.6351
  134MOL0     H18090   3.075  11.083   6.944 -0.2798 -2.2141 -0.8535
  135MOL0     O18091   8.974   0.541   8.318  0.0047 -0.3837  0.3008
  135MOL0     C18092   8.888   0.626   8.286 -0.3623  0.2814  0.3319
  135MOL0     O18093   8.908   0.756   8.272  0.3908  0.8607 -0.5236
  135MOL0     C18094   9.033   0.805   8.308  1.0154 -0.1468 -0.0053
  135MOL0     C18095   9.039   0.912   8.402  0.3001 -0.4793  0.9099
  135MOL0     C18096   9.168   0.964   8.432  0.7848  0.0526 -0.1199
  135MOL0     C18097   9.283   0.901   8.391 -0.8472  0.0093 -0.8475
  135MOL0     O18098   9.406   0.943   8.444 -0.2848 -0.3651  0.4372
  135MOL0     C18099   9.501   0.980   8.341  0.4600 -0.5466  0.0952
  135MOL0     C18100   9.630   0.954   8.412  0.2862 -0.7850 -0.6650
  135MOL0     C18101   9.749   1.021   8.344  0.1832 -0.1388 -0.1973
  135MOL0     C18102   9.879   0.982   8.406 -0.2037  0.0985 -0.3049
  135MOL0     C18103   9.992   1.031   8.319  0.5952 -0.1686 -0.1806
  135MOL0     C18104  10.127   1.006   8.389 -0.2087  0.4772  0.3234
  135MOL0     C18105  10.238   1.079   8.313  0.6403 -0.6320 -0.0055
  135MOL0     C18106  10.380   1.015   8.336 -0.5692 -0.6604  0.6575
  135MOL0     N18107  10.490   1.091   8.269  0.0015  0.3813  0.0324
  135MOL0     C18108  10.537   1.214   8.323 -0.0726  0.2623  0.3822
  135MOL0     C18109  10.615   1.264   8.228  0.1142 -0.1158 -0.1869
  135MOL0     C18110  10.702   1.385   8.230 -0.4314 -0.1168 -0.0460
  135MOL0     C18111  10.831   1.360   8.313 -0.1883 -0.0757  0.3448
  135MOL0     C18112  10.880   1.503   8.351  0.3902  0.1871  0.9647
  135MOL0     C18113  11.028   1.522   8.348 -0.3019  0.0613  0.2570
  135MOL0     O18114  11.082   1.505   8.209 -0.6127  0.4327  0.2280
  135MOL0     C18115  11.218   1.513   8.197 -0.4422  1.1273 -0.0865
  135MOL0     C18116  11.265   1.477   8.070  0.0170 -0.1725  1.5260
  135MOL0     C18117  11.402   1.473   8.046  0.5045  0.4096  0.4945
  135MOL0     C18118  11.494   1.508   8.153 -0.8206  0.4522 -0.5617
  135MOL0     C18119  11.641   1.487   8.132  0.3777 -0.4103  0.3182
  135MOL0     O18120  11.668   1.389   8.036  0.3390 -0.3209  0.1430
  135MOL0     C18121  11.796   1.357   8.003  0.2230  0.1452  0.1191
  135MOL0     C18122  11.917   1.411   8.040 -0.7620 -0.1535 -0.7830
  135MOL0     C18123  12.038   1.348   7.998 -0.0302 -1.1483 -0.8044
  135MOL0     C18124  12.036   1.233   7.916 -0.1336 -0.4188 -0.7927
  135MOL0     O18125  12.158   1.171   7.891 -0.6580  0.2223 -0.9231
  135MOL0     C18126  12.156   1.041   7.830  0.2913  0.6858 -0.0737
  135MOL0     C18127  12.311   0.996   7.849  0.5563  0.5229  1.1145
  135MOL0     C18128  12.331   0.931   7.993 -0.2032 -0.2260 -0.0553
  135MOL0     C18129  12.409   1.032   8.081 -0.7399 -0.3018 -0.4203
  135MOL0     C18130  12.390   1.008   8.234 -0.4072 -0.7074  0.1125
  135MOL0     C18131  12.417   0.857   8.272  0.1100 -0.5180  0.4897
  135MOL0     C18132  12.563   0.802   8.260 -0.2715 -0.7323 -0.3151
  135MOL0     C18133  12.666   0.850   8.371  0.2031  0.3629 -0.1254
  135MOL0    Cl18134  12.629   0.792   8.525 -0.0579  0.1825  0.2024
  135MOL0     C18135  11.915   1.183   7.868  1.3767  0.5039 -0.5052
  135MOL0     C18136  11.801   1.252   7.906  0.2866 -1.0228 -0.2379
  135MOL0     O18137  11.717   1.563   8.198  0.9390  0.5117  0.2512
  135MOL0     C18138  11.451   1.538   8.284  0.0620  0.1657  0.8945
  135MOL0     C18139  11.316   1.531   8.306  0.2592 -0.0218  0.3852
  135MOL0     N18140  10.627   1.172   8.128 -1.2143 -0.2385 -0.0704
  135MOL0     N18141  10.558   1.069   8.153  0.6145 -0.1261 -0.3305
  135MOL0     C18142   9.277   0.784   8.310  0.3459 -0.2659 -1.6402
  135MOL0     C18143   9.154   0.747   8.267  0.9498 -0.5737  0.4918
  135MOL0     C18144   8.745   0.581   8.261  1.0374  0.3481 -0.2175
  135MOL0     C18145   8.665   0.662   8.186  0.2928  0.4716 -0.2922
  135MOL0     C18146   8.528   0.633   8.166  0.0907 -0.3968  0.1185
  135MOL0     C18147   8.468   0.522   8.235  0.7848 -0.8006 -0.6919
  135MOL0     O18148   8.337   0.496   8.196  0.0203 -0.5369 -0.1318
  135MOL0     C18149   8.269   0.393   8.268  0.0112 -0.5581  0.6967
  135MOL0     C18150   8.315   0.253   8.211  0.0525 -0.2410 -1.6528
  135MOL0     C18151   8.245   0.130   8.289 -0.7886  0.0091 -0.1812
  135MOL0     C18152   8.089   0.137   8.276 -0.4146 -0.0963 -0.6373
  135MOL0     C18153   8.033   0.001   8.291  0.2310  0.1993  0.2926
  135MOL0     C18154   7.971  -0.104   8.286  0.6847  0.6907  0.0606
  135MOL0     C18155   8.555   0.444   8.316  0.3617  0.3521  0.0539
  135MOL0     C18156   8.689   0.464   8.325 -0.5418 -0.1361  0.2630
  135MOL0     C18157   8.766   0.358   8.407  0.7546 -0.7403  0.0335
  135MOL0     H18158   8.951   0.969   8.431  0.9636  0.8223  0.4036
  135MOL0     H18159   9.174   1.051   8.496 -1.8672 -0.0796  0.4321
  135MOL0     H18160   9.494   0.909   8.259  0.5105 -2.3445  1.5983
  135MOL0     H18161   9.480   1.084   8.314 -1.8307 -1.6942 -3.2102
  135MOL0     H18162   9.647   0.846   8.411  2.9269 -0.4287 -2.2607
  135MOL0     H18163   9.621   0.995   8.513 -0.3621 -2.6064  0.0675
  135MOL0     H18164   9.742   1.129   8.359 -2.3806 -0.3271  0.3164
  135MOL0     H18165   9.755   1.007   8.235 -2.0764 -0.4353 -0.3177
  135MOL0     H18166   9.892   1.023   8.506 -0.7997  2.1186 -0.9933
  135MOL0     H18167   9.890   0.873   8.412 -0.6420  0.1250  1.3078
  135MOL0     H18168   9.990   0.992   8.217 -0.5890 -2.2116  0.5561
  135MOL0     H18169   9.978   1.139   8.309 -0.3343 -0.0508  1.9785
  135MOL0     H18170  10.129   1.043   8.492 -3.5648 -1.2110  1.1220
  135MOL0     H18171  10.145   0.898   8.387  1.5922  0.7503 -0.5585
  135MOL0     H18172  10.237   1.186   8.335  1.3054 -0.9611  1.7557
  135MOL0     H18173  10.230   1.071   8.204  0.4196 -1.9848  0.0877
  135MOL0     H18174  10.411   1.014   8.441  3.7379 -3.5693 -0.3932
  135MOL0     H18175  10.375   0.909   8.310 -0.0768 -0.7324  0.8554
  135MOL0     H18176  10.530   1.250   8.425 -0.7224 -0.1919  0.5074
  135MOL0     H18177  10.725   1.420   8.129  0.0927  2.0281  0.7474
  135MOL0     H18178  10.641   1.470   8.264  0.3398  2.0291 -3.4933
  135MOL0     H18179  10.799   1.315   8.408 -1.8200  2.0435  0.9035
  135MOL0     H18180  10.905   1.300   8.261 -0.0706 -0.7402  1.2447
  135MOL0     H18181  10.845   1.524   8.452 -1.0621 -2.3983  1.0921
  135MOL0     H18182  10.829   1.575   8.287 -2.5631 -2.3335  0.2122
  135MOL0     H18183  11.071   1.442   8.410  1.6896 -0.7125 -1.9576
  135MOL0     H18184  11.057   1.617   8.394  0.7242 -0.1219  0.0070
  135MOL0     H18185  11.196   1.459   7.989  2.1474  1.5319 -0.8178
  135MOL0     H18186  11.446   1.461   7.947  0.5632  3.2843  0.0819
  135MOL0     H18187  11.920   1.510   8.084  0.5905 -0.2961 -0.5063
  135MOL0     H18188  12.128   1.389   8.043 -0.3998 -1.2225  0.0109
  135MOL0     H18189  12.092   0.968   7.882 -0.9210  1.0106 -1.0581
  135MOL0     H18190  12.119   1.036   7.727  2.4931 -1.2371 -0.8516
  135MOL0     H18191  12.341   0.923   7.773  0.0636  2.0855 -0.6642
  135MOL0     H18192  12.382   1.075   7.823  2.1978 -1.0816  0.5031
  135MOL0     H18193  12.233   0.915   8.041  1.2725 -0.9801  2.9796
  135MOL0     H18194  12.394   0.842   7.984  2.5350  1.5115  0.6845
  135MOL0     H18195  12.383   1.137   8.061  0.2930  0.3618  1.4423
  135MOL0     H18196  12.516   1.020   8.063 -0.0871  0.8751  2.1912
  135MOL0     H18197  12.292   1.036   8.273 -1.1233 -3.0037  0.1549
  135MOL0     H18198  12.466   1.071   8.282  0.1160  0.1587 -1.7717
  135MOL0     H18199  12.391   0.856   8.379  3.2428  0.7756  1.3791
  135MOL0     H18200  12.364   0.784   8.210  0.6047  1.5649 -2.5479
  135MOL0     H18201  12.591   0.813   8.155 -0.1543 -1.3724 -0.3579
  135MOL0     H18202  12.549   0.694   8.276  1.4255 -0.6498  2.4660
  135MOL0     H18203  12.764   0.804   8.352 -0.8884 -2.1633  0.0156
  135MOL0     H18204  12.677   0.959   8.375 -1.5960  0.5630  3.3956
  135MOL0     H18205  11.906   1.094   7.808  3.0526  0.3540 -0.5725
  135MOL0     H18206  11.712   1.243   7.843 -2.0978  5.2700  1.5056
  135MOL0     H18207  11.521   1.548   8.367 -2.0832 -5.0324  3.8064
  135MOL0     H18208  11.285   1.559   8.406  1.1688 -0.3135  0.7619
  135MOL0     H18209   9.356   0.720   8.273 -0.8169 -1.8212 -1.5738
  135MOL0     H18210   9.162   0.657   8.208 -0.3554  0.5731 -1.5555
  135MOL0     H18211   8.698   0.761   8.154  2.5362  0.8135  2.5853
  135MOL0     H18212   8.465   0.699   8.107  0.6538  0.9950  1.0236
  135MOL0     H18213   8.161   0.408   8.262  0.2384  0.7333 -0.8860
  135MOL0     H18214   8.300   0.387   8.373  0.8099 -3.2481  0.3874
  135MOL0     H18215   8.424   0.257   8.207  0.0352  2.2886 -0.9792
  135MOL0     H18216   8.289   0.248   8.105 -2.5452  0.3098 -1.1157
  135MOL0     H18217   8.272   0.116   8.394  0.4023 -1.9456 -0.6962
  135MOL0     H18218   8.275   0.037   8.239 -0.0012  0.4069 -0.4680
  135MOL0     H18219   8.044   0.197   8.355 -3.1218  3.3425 -4.3875
  135MOL0     H18220   8.059   0.184   8.182 -1.6916  0.8077  0.1944
  135MOL0     H18221   7.910  -0.188   8.260  0.9311  0.7123 -0.5919
  135MOL0     H18222   8.515   0.360   8.373  0.4359 -0.3324 -0.8929
  135MOL0     H18223   8.847   0.310   8.352 -0.0869 -2.1651  0.0121
  135MOL0     H18224   8.810   0.404   8.496 -1.5309 -1.8574  1.8398
  135MOL0     H18225   8.701   0.276   8.439 -1.0373 -0.9916 -3.6163
  136MOL0     O18226   6.133   9.726   5.616 -0.1791 -0.5088 -0.2535
  136MOL0     C18227   6.121   9.621   5.561  0.3645 -0.1552 -0.2259
  136MOL0     O18228   6.178   9.503   5.604 -0.7994 -0.2466  0.5371
  136MOL0     C18229   6.251   9.506   5.727 -0.2074  0.5369  0.0240
  136MOL0     C18230   6.197   9.462   5.850  0.9944 -0.3380  0.3035
  136MOL0     C18231   6.273   9.477   5.962  0.8208 -1.0320  0.5764
  136MOL0     C18232   6.402   9.526   5.966 -0.3753  0.5923 -0.2042
  136MOL0     O18233   6.471   9.547   6.081 -0.4882 -0.1637 -0.4422
  136MOL0     C18234   6.583   9.643   6.082 -0.2576 -0.0107  0.3315
  136MOL0     C18235   6.615   9.677   6.224  0.8074 -0.5557 -0.1280
  136MOL0     C18236   6.739   9.752   6.243 -0.3214 -0.4196 -0.0269
  136MOL0     C18237   6.753   9.801   6.384  0.5424 -0.0791 -0.4229
  136MOL0     C18238   6.883   9.865   6.406  0.0087  0.0353 -0.2874
  136MOL0     C18239   6.901   9.916   6.553 -0.3831  0.4805 -0.3598
  136MOL0     C18240   6.985  10.037   6.559  0.2789  0.0097 -0.3123
  136MOL0     C18241   7.135  10.008   6.521 -0.4349  0.0410  0.9807
  136MOL0     N18242   7.227  10.126   6.518 -0.2259  0.2426  0.0926
  136MOL0     C18243   7.347  10.149   6.579  0.3859 -0.4209  0.0640
  136MOL0     C18244   7.392  10.270   6.536  0.0217  0.0253 -0.2772
  136MOL0     C18245   7.521  10.316   6.587 -1.2803  0.7635  0.8649
  136MOL0     C18246   7.580  10.427   6.507 -0.0537  0.9872 -0.2379
  136MOL0     C18247   7.715  10.478   6.564 -0.2709  0.0370 -0.1887
  136MOL0     C18248   7.748  10.614   6.506 -1.0373 -0.1035 -0.4634
  136MOL0     O18249   7.869  10.671   6.560  0.4706  0.1308 -0.0973
  136MOL0     C18250   7.982  10.634   6.494 -0.2695 -0.3579  0.1222
  136MOL0     C18251   7.991  10.539   6.387  0.7526 -0.0545 -0.6743
  136MOL0     C18252   8.111  10.496   6.342  0.0319  0.1181 -0.0616
  136MOL0     C18253   8.225  10.560   6.374 -0.3515  0.2008 -0.8906
  136MOL0     C18254   8.354  10.543   6.311 -0.3549  0.1459  0.7198
  136MOL0     O18255   8.466  10.590   6.372  0.1025  0.3158 -0.2317
  136MOL0     C18256   8.585  10.613   6.298  1.0312  0.0869  0.6322
  136MOL0     C18257   8.653  10.504   6.241  0.2006 -0.0778  0.5072
  136MOL0     C18258   8.759  10.528   6.156  0.1440  0.3144  0.2142
  136MOL0     C18259   8.808  10.658   6.123  0.5098  0.1652 -0.5025
  136MOL0     O18260   8.920  10.683   6.055  0.7120 -0.5862 -0.2258
  136MOL0     C18261   8.968  10.581   5.959  0.5681  0.3732  0.8708
  136MOL0     C18262   9.072  10.626   5.862  0.1959 -0.1308 -0.0258
  136MOL0     C18263   9.203  10.686   5.928  0.4132 -0.4272 -0.6985
  136MOL0     C18264   9.320  10.712   5.826  0.2809 -0.3285  0.4931
  136MOL0     C18265   9.409  10.821   5.883  0.2462  0.5856 -0.1433
  136MOL0     C18266   9.538  10.850   5.802 -0.0442 -0.2240 -0.6274
  136MOL0     C18267   9.614  10.971   5.867 -0.1359 -0.2037 -0.4915
  136MOL0     C18268   9.727  11.014   5.776  0.9016 -0.7583  0.0846
  136MOL0    Cl18269   9.823  11.124   5.870 -0.2401  0.2108 -0.2819
  136MOL0     C18270   8.740  10.767   6.181 -0.0029  0.2271  0.3752
  136MOL0     C18271   8.630  10.740   6.266  0.1035 -0.3105  0.5094
  136MOL0     O18272   8.354  10.498   6.195 -0.1240 -0.1445  0.4124
  136MOL0     C18273   8.222  10.658   6.483 -0.5143  0.0352  0.6177
  136MOL0     C18274   8.102  10.691   6.541  0.1776 -1.0679 -0.7395
  136MOL0     N18275   7.308  10.316   6.439 -0.0126  0.3892  0.2032
  136MOL0     N18276   7.211  10.228   6.436  0.0524 -0.2385  0.2743
  136MOL0     C18277   6.456   9.564   5.837  1.0955  0.7339  0.0867
  136MOL0     C18278   6.380   9.555   5.719  0.4975  0.9284 -0.3181
  136MOL0     C18279   6.029   9.627   5.442  0.0725  0.5302  0.0861
  136MOL0     C18280   6.012   9.744   5.370  0.0022  0.0165  0.1403
  136MOL0     C18281   5.929   9.757   5.261 -0.4560 -0.6359  0.2168
  136MOL0     C18282   5.862   9.648   5.209 -0.0381 -0.8392  0.0156
  136MOL0     O18283   5.778   9.652   5.099 -0.0531  0.0298 -0.4509
  136MOL0     C18284   5.789   9.763   5.011  0.3735  0.4245 -0.8656
  136MOL0     C18285   5.744   9.718   4.869  0.6221  0.8045  0.4968
  136MOL0     C18286   5.608   9.636   4.878  0.1860 -0.4985  0.0246
  136MOL0     C18287   5.492   9.716   4.819  0.5973  0.6199  0.4499
  136MOL0     C18288   5.365   9.636   4.841 -0.9635 -0.0315  0.1598
  136MOL0     C18289   5.273   9.566   4.871 -0.9445 -0.0657  0.5090
  136MOL0     C18290   5.884   9.526   5.273 -0.1130 -0.1719 -0.6910
  136MOL0     C18291   5.957   9.512   5.393  0.3885 -0.3710 -0.2483
  136MOL0     C18292   5.963   9.371   5.465 -0.8519 -0.0693  0.5953
  136MOL0     H18293   6.095   9.427   5.852  1.4432 -1.6734  0.8104
  136MOL0     H18294   6.215   9.456   6.051 -1.9673  0.3935 -0.7862
  136MOL0     H18295   6.669   9.604   6.027 -1.9881 -0.9164 -1.8884
  136MOL0     H18296   6.553   9.735   6.030 -1.7412  0.6349  2.2297
  136MOL0     H18297   6.614   9.579   6.272  0.0792 -0.8173 -0.6507
  136MOL0     H18298   6.532   9.736   6.264 -0.3087 -2.4486  0.4686
  136MOL0     H18299   6.737   9.833   6.169 -1.2172 -1.6034 -1.3408
  136MOL0     H18300   6.824   9.687   6.219 -1.6031 -1.5195 -1.7944
  136MOL0     H18301   6.664   9.862   6.403 -1.3548 -2.3104 -1.5331
  136MOL0     H18302   6.755   9.717   6.454 -0.0712 -1.7330 -2.2791
  136MOL0     H18303   6.968   9.800   6.388 -1.7617 -2.3059 -0.6403
  136MOL0     H18304   6.885   9.949   6.335  3.4723  0.1466 -0.1918
  136MOL0     H18305   6.801   9.935   6.595 -0.3231  0.4475 -0.2002
  136MOL0     H18306   6.935   9.830   6.613 -2.2691 -0.6583 -0.8243
  136MOL0     H18307   6.975  10.078   6.660 -0.4437 -1.0607  0.0660
  136MOL0     H18308   6.950  10.117   6.493  0.3918  3.0656  3.0252
  136MOL0     H18309   7.178   9.932   6.587  0.7359 -0.3467 -0.1779
  136MOL0     H18310   7.120   9.966   6.421 -2.3834  0.5674  0.9996
  136MOL0     H18311   7.387  10.091   6.662  1.2455 -0.9080 -0.6768
  136MOL0     H18312   7.507  10.357   6.688  1.0427 -0.9284  1.9684
  136MOL0     H18313   7.592  10.233   6.596 -0.5324  1.4684  1.8244
  136MOL0     H18314   7.593  10.395   6.404  1.2489  0.8509 -0.0518
  136MOL0     H18315   7.510  10.511   6.513 -0.3875  1.1354 -4.1123
  136MOL0     H18316   7.790  10.400   6.546  0.0237  0.4117 -0.6131
  136MOL0     H18317   7.710  10.498   6.671 -2.8091 -1.0037 -0.0346
  136MOL0     H18318   7.668  10.685   6.530 -0.1033  1.4262 -1.6557
  136MOL0     H18319   7.750  10.609   6.397  0.8536  0.4485 -0.4977
  136MOL0     H18320   7.910  10.483   6.342  1.5044 -0.1078 -2.0127
  136MOL0     H18321   8.126  10.416   6.270  1.6437  0.8673 -0.6126
  136MOL0     H18322   8.615  10.402   6.252 -4.0504  0.8108 -2.9693
  136MOL0     H18323   8.809  10.437   6.125 -2.5530 -0.9658 -0.7205
  136MOL0     H18324   8.996  10.491   6.016  0.2333  1.2198  2.4369
  136MOL0     H18325   8.880  10.554   5.901  0.2820  0.2923  1.3370
  136MOL0     H18326   9.100  10.532   5.813  0.8745 -0.1562  0.4037
  136MOL0     H18327   9.022  10.702   5.801  0.1449  0.8665  1.2411
  136MOL0     H18328   9.174  10.774   5.987  0.5531 -1.5548  1.0987
  136MOL0     H18329   9.236  10.603   5.990 -2.2367 -2.6027 -1.9603
  136MOL0     H18330   9.277  10.750   5.733  1.5907  1.3753  0.5375
  136MOL0     H18331   9.369  10.618   5.802  0.7568  0.3018 -1.1386
  136MOL0     H18332   9.441  10.787   5.982  3.1352 -0.6523 -1.3969
  136MOL0     H18333   9.358  10.918   5.888 -0.3505  0.2618  0.2004
  136MOL0     H18334   9.610  10.767   5.809  2.2332  1.7531  1.7747
  136MOL0     H18335   9.510  10.867   5.698 -5.0164 -5.4539 -0.6248
  136MOL0     H18336   9.674  10.945   5.955  0.3495  0.7503 -0.5345
  136MOL0     H18337   9.560  11.062   5.895 -0.8296 -1.8843  4.8600
  136MOL0     H18338   9.794  10.933   5.744  3.2307  0.3239  1.9275
  136MOL0     H18339   9.688  11.068   5.689 -0.9180 -1.8511  0.1602
  136MOL0     H18340   8.769  10.871   6.170  0.5279  0.1103  0.6194
  136MOL0     H18341   8.585  10.833   6.297 -1.2277  0.9350 -4.3541
  136MOL0     H18342   8.316  10.705   6.512  0.2618 -0.3920 -1.1192
  136MOL0     H18343   8.104  10.752   6.630 -0.4271 -1.7145 -0.2683
  136MOL0     H18344   6.556   9.604   5.827  2.0682 -1.3672  0.9458
  136MOL0     H18345   6.408   9.581   5.618 -1.2423 -0.4459 -1.2225
  136MOL0     H18346   6.069   9.830   5.402  1.3189  0.1683 -2.3958
  136MOL0     H18347   5.938   9.853   5.212  0.1385  0.0227  1.5536
  136MOL0     H18348   5.881   9.821   5.001  0.5528 -0.1558 -3.0783
  136MOL0     H18349   5.715   9.835   5.047  0.2959 -1.3674  3.0351
  136MOL0     H18350   5.823   9.646   4.843  0.2737  0.0536  1.4762
  136MOL0     H18351   5.737   9.799   4.795  0.9471  1.7972  1.5327
  136MOL0     H18352   5.578   9.620   4.982  1.9509 -1.6579  0.4182
  136MOL0     H18353   5.618   9.539   4.827 -1.1026 -0.7119  0.1588
  136MOL0     H18354   5.462   9.810   4.867 -0.0219  1.4733 -1.5091
  136MOL0     H18355   5.511   9.742   4.714  4.3887 -3.0616 -0.0292
  136MOL0     H18356   5.200   9.491   4.894 -0.5979 -0.2956  0.8730
  136MOL0     H18357   5.830   9.437   5.242  0.1230 -0.9814  1.0910
  136MOL0     H18358   6.048   9.313   5.428 -0.7859  1.0832 -1.1867
  136MOL0     H18359   5.963   9.383   5.574  1.5200 -0.3284  0.6804
  136MOL0     H18360   5.877   9.317   5.424 -0.8957 -0.9703  1.8338
  137MOL0     O18361   6.616   2.299   1.287 -0.1701 -0.8955  0.1192
  137MOL0     C18362   6.548   2.268   1.383  0.1319  1.0974  0.0687
  137MOL0     O18363   6.595   2.246   1.516 -0.2315 -0.0401  0.5091
  137MOL0     C18364   6.727   2.281   1.547 -0.2804  0.3208 -0.6308
  137MOL0     C18365   6.838   2.327   1.474 -0.2194 -0.5579 -0.0083
  137MOL0     C18366   6.958   2.357   1.534 -0.6147  0.6721 -0.3221
  137MOL0     C18367   6.981   2.339   1.670  0.5474  0.1490 -0.1148
  137MOL0     O18368   7.103   2.382   1.718  0.1782  0.7246  0.1555
  137MOL0     C18369   7.110   2.401   1.860  0.4414  0.2892 -0.0852
  137MOL0     C18370   7.257   2.428   1.894  0.3193 -0.1230  0.1848
  137MOL0     C18371   7.313   2.546   1.812  0.5587  1.0581 -0.3253
  137MOL0     C18372   7.424   2.608   1.893 -0.1401 -0.0864  0.6164
  137MOL0     C18373   7.516   2.702   1.814  0.3330  1.1819  0.1034
  137MOL0     C18374   7.622   2.614   1.758 -0.7608 -0.7125 -0.2840
  137MOL0     C18375   7.706   2.700   1.663  0.1645 -0.6377  0.3290
  137MOL0     C18376   7.796   2.620   1.578 -0.5406  0.3906  0.8607
  137MOL0     N18377   7.895   2.709   1.504  0.1199 -0.1647 -0.8406
  137MOL0     C18378   7.872   2.765   1.384  0.6581  0.2053  0.4061
  137MOL0     C18379   7.988   2.811   1.338  0.8949 -0.6312 -0.6411
  137MOL0     C18380   8.011   2.873   1.202 -0.5120  0.1550  0.0003
  137MOL0     C18381   8.091   3.010   1.207 -0.6071 -0.5329  0.3658
  137MOL0     C18382   8.245   2.999   1.222 -0.2197  0.0543 -0.2033
  137MOL0     C18383   8.312   3.140   1.222 -1.1972  0.2625 -0.5841
  137MOL0     O18384   8.435   3.153   1.154  0.8679  0.2630 -0.3046
  137MOL0     C18385   8.556   3.128   1.216 -0.3594  0.2863  0.0690
  137MOL0     C18386   8.576   3.076   1.349 -0.9382 -0.1656  0.0239
  137MOL0     C18387   8.705   3.066   1.399  0.5229  0.2330  0.3911
  137MOL0     C18388   8.812   3.102   1.318 -0.4295 -0.0840  0.2798
  137MOL0     C18389   8.956   3.086   1.361  0.0660  0.2952  0.0374
  137MOL0     O18390   8.986   3.020   1.476 -0.3876  0.2111  0.5831
  137MOL0     C18391   9.108   2.998   1.527 -0.4544  0.3431 -0.6264
  137MOL0     C18392   9.108   3.018   1.668 -0.4365  0.2877 -0.8948
  137MOL0     C18393   9.224   3.036   1.740 -0.2356  0.2438  0.6593
  137MOL0     C18394   9.352   3.005   1.670 -0.1743 -0.2844  0.1520
  137MOL0     O18395   9.470   3.024   1.735  0.4534  0.2077 -0.4349
  137MOL0     C18396   9.588   3.019   1.651 -0.0971  1.0009 -0.2421
  137MOL0     C18397   9.705   3.050   1.731  0.1822 -0.0367 -0.0522
  137MOL0     C18398   9.746   3.198   1.736 -0.4371  0.2756  0.1190
  137MOL0     C18399   9.859   3.231   1.838 -0.2332 -0.4613 -1.0186
  137MOL0     C18400   9.990   3.194   1.788  0.2663  0.3465  1.2095
  137MOL0     C18401  10.097   3.227   1.886 -0.1781 -1.0092 -0.4757
  137MOL0     C18402  10.246   3.209   1.831  1.2009  0.1586 -0.3503
  137MOL0     C18403  10.298   3.317   1.730  0.1578 -0.3782 -0.1828
  137MOL0    Cl18404  10.465   3.284   1.685  0.0617  0.0516  0.2421
  137MOL0     C18405   9.349   2.972   1.532 -0.4181 -0.3770  0.7624
  137MOL0     C18406   9.230   2.971   1.464  0.7527  0.4048  0.1963
  137MOL0     O18407   9.046   3.125   1.283  0.5337 -0.5774 -0.3834
  137MOL0     C18408   8.785   3.150   1.190  0.6785 -0.0232  0.1275
  137MOL0     C18409   8.661   3.165   1.140  0.4295  0.2846  0.7469
  137MOL0     N18410   8.088   2.768   1.424 -0.0877 -0.3262 -0.3543
  137MOL0     N18411   8.025   2.720   1.530  0.4122 -0.0090  0.0481
  137MOL0     C18412   6.873   2.299   1.751  1.1033  0.5731  0.7604
  137MOL0     C18413   6.746   2.271   1.688 -0.6406  0.0100 -0.4211
  137MOL0     C18414   6.403   2.236   1.347  0.3739  0.3969 -0.5055
  137MOL0     C18415   6.354   2.292   1.223 -0.9984 -0.4710 -0.0381
  137MOL0     C18416   6.223   2.272   1.190 -0.4624 -0.2544 -0.1296
  137MOL0     C18417   6.132   2.209   1.277 -1.6257 -0.4506 -0.1671
  137MOL0     O18418   6.008   2.184   1.230  0.0419  0.6304  0.4068
  137MOL0     C18419   5.908   2.100   1.300  0.3369 -1.0420 -0.6320
  137MOL0     C18420   5.802   2.080   1.190 -0.0837 -0.4577 -0.5438
  137MOL0     C18421   5.702   2.188   1.199  0.6276  0.3053 -0.2443
  137MOL0     C18422   5.649   2.232   1.066 -0.0597 -0.7006 -0.4563
  137MOL0     C18423   5.568   2.136   0.994  0.5472 -0.1044  0.6648
  137MOL0     C18424   5.508   2.052   0.932 -0.2578 -0.2688  0.2339
  137MOL0     C18425   6.174   2.165   1.407 -0.1925  0.1109 -0.1247
  137MOL0     C18426   6.307   2.179   1.438 -0.6699 -0.0095  0.0504
  137MOL0     C18427   6.355   2.120   1.570  0.3812  0.2360 -1.1775
  137MOL0     H18428   6.836   2.342   1.367  1.9624  0.9964  0.1102
  137MOL0     H18429   7.040   2.399   1.476 -1.1893  2.0683 -0.1579
  137MOL0     H18430   7.048   2.485   1.894 -0.9394 -0.0083 -1.7728
  137MOL0     H18431   7.086   2.306   1.908  1.8318 -1.3911 -2.4972
  137MOL0     H18432   7.309   2.335   1.869  0.7935 -0.3648  1.9360
  137MOL0     H18433   7.268   2.439   2.002  3.8422  2.9770 -0.2748
  137MOL0     H18434   7.242   2.622   1.777 -0.6818  0.2439  0.3449
  137MOL0     H18435   7.341   2.504   1.715  1.3378  0.9186 -0.0413
  137MOL0     H18436   7.377   2.669   1.971  4.8684  0.4380  3.7304
  137MOL0     H18437   7.489   2.529   1.933 -2.5058 -2.3940  0.1587
  137MOL0     H18438   7.460   2.749   1.732  0.3717  2.5419  0.8399
  137MOL0     H18439   7.553   2.777   1.885 -2.1593  1.1706  1.5074
  137MOL0     H18440   7.690   2.580   1.836  2.0446  2.9960 -0.8189
  137MOL0     H18441   7.581   2.529   1.702 -0.4219 -1.4366  0.5484
  137MOL0     H18442   7.769   2.773   1.713  0.1662  0.0263 -0.6030
  137MOL0     H18443   7.636   2.748   1.593 -0.4790 -1.1393  0.6218
  137MOL0     H18444   7.857   2.549   1.634 -0.0413 -0.3190 -0.5178
  137MOL0     H18445   7.738   2.567   1.502 -0.2411  3.8480 -2.0339
  137MOL0     H18446   7.779   2.775   1.329  0.6133 -3.0366 -0.3338
  137MOL0     H18447   8.066   2.805   1.136 -2.0179  0.0342 -1.1969
  137MOL0     H18448   7.913   2.892   1.158 -1.4179  0.4268  2.0519
  137MOL0     H18449   8.073   3.062   1.112 -0.1985 -0.3905  0.3670
  137MOL0     H18450   8.043   3.063   1.289 -1.5536 -0.7044 -0.0610
  137MOL0     H18451   8.272   2.947   1.130  0.5751  0.8620 -0.4398
  137MOL0     H18452   8.277   2.940   1.309  0.5198  0.7022 -0.0277
  137MOL0     H18453   8.311   3.188   1.320 -0.1939  3.5971 -2.0891
  137MOL0     H18454   8.241   3.197   1.161  1.0797 -0.2710 -4.0245
  137MOL0     H18455   8.501   3.048   1.422  1.3367  0.3718  2.7277
  137MOL0     H18456   8.709   3.024   1.498  0.4032 -0.2861  0.1788
  137MOL0     H18457   9.010   3.024   1.713  0.7171  0.5082  1.7542
  137MOL0     H18458   9.221   3.063   1.846  0.7691  1.1571  0.4751
  137MOL0     H18459   9.596   2.914   1.623  1.4307  1.2637 -0.8425
  137MOL0     H18460   9.592   3.088   1.566  1.5015 -0.6609 -1.5881
  137MOL0     H18461   9.688   3.017   1.833 -3.0971  2.1898  0.2842
  137MOL0     H18462   9.785   2.995   1.681  0.8839  3.1718 -2.9050
  137MOL0     H18463   9.781   3.233   1.638 -1.2362 -0.5866 -0.4860
  137MOL0     H18464   9.656   3.251   1.768 -1.2674 -0.1714 -1.3649
  137MOL0     H18465   9.849   3.185   1.937  0.6314  2.5986  0.6173
  137MOL0     H18466   9.858   3.338   1.857 -0.3512 -0.0454 -3.1441
  137MOL0     H18467  10.012   3.251   1.697  3.4692 -0.8175  1.1158
  137MOL0     H18468   9.986   3.091   1.751 -2.8296  1.1649 -1.1724
  137MOL0     H18469  10.094   3.327   1.931  1.9265 -1.3004  0.4544
  137MOL0     H18470  10.084   3.159   1.971 -2.4965 -1.3655 -1.0448
  137MOL0     H18471  10.261   3.110   1.788 -0.8458  0.9100 -3.0657
  137MOL0     H18472  10.314   3.210   1.917  0.6928 -2.3669  0.1433
  137MOL0     H18473  10.235   3.314   1.641 -1.3221 -0.9658  0.8250
  137MOL0     H18474  10.301   3.416   1.776 -0.5796  0.1365 -1.2292
  137MOL0     H18475   9.440   2.948   1.477  0.3950  0.1005  1.8608
  137MOL0     H18476   9.218   2.956   1.357 -0.9216 -0.5811  0.4793
  137MOL0     H18477   8.863   3.182   1.122  2.0100 -1.3648  0.9486
  137MOL0     H18478   8.656   3.207   1.040  0.9718  0.5601  0.8332
  137MOL0     H18479   6.882   2.287   1.858  0.3970 -0.8112  0.6900
  137MOL0     H18480   6.659   2.233   1.741 -1.0265  0.9073 -0.3954
  137MOL0     H18481   6.411   2.359   1.159 -2.0219  0.3820 -0.0769
  137MOL0     H18482   6.180   2.303   1.095  0.8942 -1.8390 -1.3312
  137MOL0     H18483   5.865   2.150   1.387 -0.5244 -2.6782 -0.0714
  137MOL0     H18484   5.949   2.002   1.326  0.1498 -0.6458  1.3444
  137MOL0     H18485   5.763   1.979   1.202 -1.1584 -0.1071 -1.0047
  137MOL0     H18486   5.854   2.081   1.094  0.1523  0.3677 -0.4219
  137MOL0     H18487   5.745   2.280   1.241  1.7765  0.2358 -1.2280
  137MOL0     H18488   5.626   2.148   1.267  1.9185 -0.4406  0.7952
  137MOL0     H18489   5.577   2.311   1.089  0.3652 -0.9651  2.0271
  137MOL0     H18490   5.732   2.279   1.013  0.7936 -0.8498  0.7129
  137MOL0     H18491   5.441   1.984   0.882 -0.5834 -0.8458  1.4161
  137MOL0     H18492   6.101   2.126   1.477 -1.0034  0.9416 -0.4809
  137MOL0     H18493   6.270   2.072   1.618 -0.6716  2.9017 -0.1523
  137MOL0     H18494   6.436   2.048   1.558  0.8594  0.2823  1.2723
  137MOL0     H18495   6.397   2.195   1.638 -0.8197 -1.1053  1.1456
  138MOL0     O18496  10.019   1.780   6.338 -0.5180 -0.6502 -0.4651
  138MOL0     C18497   9.919   1.832   6.284  0.7014  0.2819  0.4042
  138MOL0     O18498   9.914   1.892   6.158 -0.5553  1.1465  0.1323
  138MOL0     C18499  10.030   1.913   6.082 -0.3904 -0.0779  0.1166
  138MOL0     C18500  10.144   1.972   6.140  0.5038  0.0674  0.0233
  138MOL0     C18501  10.258   2.004   6.060  0.9880  0.8815 -0.1272
  138MOL0     C18502  10.256   1.984   5.925  0.5201 -0.4992  0.2494
  138MOL0     O18503  10.361   2.016   5.846 -0.4600 -1.2934  0.0932
  138MOL0     C18504  10.475   2.082   5.893  0.4263 -0.2646 -1.0562
  138MOL0     C18505  10.573   2.107   5.774 -0.2426  0.5439 -0.3306
  138MOL0     C18506  10.719   2.150   5.820 -0.1844  0.4434  0.6885
  138MOL0     C18507  10.801   2.169   5.696 -0.5819 -0.2768 -0.3075
  138MOL0     C18508  10.949   2.144   5.719 -0.4731  0.4383  0.8552
  138MOL0     C18509  11.043   2.203   5.603  0.2548 -0.4621 -0.1930
  138MOL0     C18510  11.190   2.187   5.644  0.4860 -0.2773 -0.7812
  138MOL0     C18511  11.236   2.298   5.739 -0.1511 -0.0256 -0.1815
  138MOL0     N18512  11.381   2.304   5.738 -1.2182 -0.4742  0.8312
  138MOL0     C18513  11.460   2.193   5.750 -0.3934 -0.2636 -0.2622
  138MOL0     C18514  11.587   2.242   5.748  0.2781  0.5791  0.4818
  138MOL0     C18515  11.710   2.143   5.735  0.9214  0.2419 -0.0024
  138MOL0     C18516  11.757   2.130   5.590  1.4323 -0.5980 -0.3376
  138MOL0     C18517  11.841   2.240   5.539  0.6559 -1.0636 -0.4795
  138MOL0     C18518  11.905   2.215   5.406 -0.2115  0.4815 -0.1633
  138MOL0     O18519  11.966   2.091   5.394 -0.7074 -0.1115  0.0825
  138MOL0     C18520  12.103   2.079   5.406 -0.3507  0.0962 -0.3651
  138MOL0     C18521  12.141   1.947   5.409 -0.4526  0.3388  0.6260
  138MOL0     C18522  12.281   1.913   5.429  0.6895  0.2382  0.5420
  138MOL0     C18523  12.379   2.011   5.418  0.2998 -0.5629 -0.2130
  138MOL0     C18524  12.518   1.979   5.427 -0.2205  0.1879 -0.7521
  138MOL0     O18525  12.560   1.868   5.368 -0.6377 -0.1812 -0.6097
  138MOL0     C18526  12.687   1.835   5.402  0.0890 -0.1997 -0.3001
  138MOL0     C18527  12.803   1.880   5.327  0.3237  0.4419  0.5585
  138MOL0     C18528  12.929   1.835   5.362  0.3578  0.1529  1.3303
  138MOL0     C18529  12.945   1.748   5.470  0.3048  0.0704 -0.4567
  138MOL0     O18530  13.078   1.720   5.506  0.1603  0.1619 -0.3149
  138MOL0     C18531  13.104   1.599   5.587  0.1233  0.3467 -1.3337
  138MOL0     C18532  13.250   1.561   5.605 -0.0688 -0.2169  0.1382
  138MOL0     C18533  13.257   1.418   5.675 -0.4263 -0.5230  0.4901
  138MOL0     C18534  13.396   1.345   5.652 -0.0656  0.2834 -0.6242
  138MOL0     C18535  13.504   1.411   5.739 -0.4888  0.6162  0.6350
  138MOL0     C18536  13.628   1.323   5.740 -0.7360 -0.4066  0.0424
  138MOL0     C18537  13.742   1.368   5.836  0.4559 -0.1286 -0.0692
  138MOL0     C18538  13.797   1.512   5.814  0.3014 -0.5603 -0.4103
  138MOL0    Cl18539  13.904   1.569   5.942  0.4148 -0.2942  0.3026
  138MOL0     C18540  12.835   1.696   5.532  0.6760  0.4497 -1.4361
  138MOL0     C18541  12.705   1.742   5.500  0.5293 -0.0465 -0.4465
  138MOL0     O18542  12.593   2.050   5.498  0.1717  0.5881 -0.1509
  138MOL0     C18543  12.336   2.144   5.419 -0.0489  0.5870 -0.1486
  138MOL0     C18544  12.201   2.184   5.416 -0.6080  0.3103 -0.1183
  138MOL0     N18545  11.592   2.371   5.714 -0.1067  0.1572 -0.3589
  138MOL0     N18546  11.466   2.417   5.724 -0.2506  0.0428  0.1548
  138MOL0     C18547  10.134   1.945   5.863  0.4795 -0.2477  0.0254
  138MOL0     C18548  10.022   1.906   5.941 -0.3415  0.4045  0.2172
  138MOL0     C18549   9.786   1.826   6.354 -0.5626 -0.0727 -0.5848
  138MOL0     C18550   9.668   1.834   6.273 -0.4973 -0.6107  0.2755
  138MOL0     C18551   9.539   1.846   6.321 -0.4345 -0.5506  0.5337
  138MOL0     C18552   9.521   1.840   6.457  0.2065  0.2001  0.5216
  138MOL0     O18553   9.402   1.857   6.527  1.5118  0.3862  0.5769
  138MOL0     C18554   9.284   1.827   6.467  1.0077 -0.0299  1.2160
  138MOL0     C18555   9.228   1.947   6.390  0.6648 -0.3863 -0.2444
  138MOL0     C18556   9.111   1.899   6.298 -0.9055  0.2746  0.3515
  138MOL0     C18557   9.085   1.996   6.194 -0.7913 -0.1496 -0.4200
  138MOL0     C18558   9.157   1.996   6.067 -0.7118 -0.9330 -0.5592
  138MOL0     C18559   9.242   1.996   5.974 -0.2119 -0.3065  0.0902
  138MOL0     C18560   9.641   1.835   6.539  0.0691  0.4003 -0.0435
  138MOL0     C18561   9.770   1.835   6.494  0.0561  1.5936 -0.3631
  138MOL0     C18562   9.874   1.848   6.596  0.0626  0.6672 -0.0198
  138MOL0     H18563  10.143   1.989   6.248  1.1212 -0.1819  0.0682
  138MOL0     H18564  10.349   2.038   6.108  1.6562  0.4732 -1.0633
  138MOL0     H18565  10.458   2.182   5.936  2.6518 -0.2383 -0.0917
  138MOL0     H18566  10.523   2.025   5.973 -2.7017 -1.1871  0.3393
  138MOL0     H18567  10.539   2.192   5.715  1.9765  2.8621  1.5124
  138MOL0     H18568  10.579   2.013   5.718  2.2680  0.7898 -0.6154
  138MOL0     H18569  10.760   2.065   5.875  1.7175  1.7567  1.4001
  138MOL0     H18570  10.713   2.230   5.894 -1.3633  0.6396  0.4034
  138MOL0     H18571  10.768   2.087   5.631 -0.4189 -3.2177  2.9902
  138MOL0     H18572  10.779   2.269   5.657 -0.8152 -0.1006  0.2539
  138MOL0     H18573  10.982   2.166   5.821 -1.1814 -0.8801  1.3944
  138MOL0     H18574  10.957   2.037   5.698 -0.6350  0.6475 -0.3357
  138MOL0     H18575  11.033   2.162   5.502  0.8214 -1.0083 -0.0381
  138MOL0     H18576  11.012   2.307   5.592 -1.6067 -1.1545 -2.0973
  138MOL0     H18577  11.246   2.188   5.549 -0.5656 -3.8357 -1.6266
  138MOL0     H18578  11.207   2.092   5.696  0.7789 -0.7378 -1.6919
  138MOL0     H18579  11.197   2.393   5.703 -0.8651 -0.3253 -0.2163
  138MOL0     H18580  11.194   2.301   5.839 -1.9506  1.3253 -0.9343
  138MOL0     H18581  11.435   2.087   5.750  3.5401 -1.4523  3.2580
  138MOL0     H18582  11.795   2.186   5.788  0.1292 -2.6160  3.9908
  138MOL0     H18583  11.699   2.038   5.762 -0.5490 -0.9481 -4.3163
  138MOL0     H18584  11.813   2.037   5.576  0.5208 -1.5643  1.9298
  138MOL0     H18585  11.668   2.113   5.529  1.0778 -2.5824  0.6573
  138MOL0     H18586  11.919   2.259   5.613 -0.1033 -1.1944  0.3764
  138MOL0     H18587  11.781   2.331   5.543  0.3708 -1.2674 -0.0298
  138MOL0     H18588  11.975   2.290   5.369  2.7750 -2.1026 -0.2305
  138MOL0     H18589  11.820   2.214   5.338 -0.8751  0.1986  0.6499
  138MOL0     H18590  12.069   1.867   5.391  0.9218 -0.9579  0.6648
  138MOL0     H18591  12.314   1.810   5.446 -0.6627 -0.3126 -0.0227
  138MOL0     H18592  12.794   1.944   5.239  0.5222 -3.0495 -2.2450
  138MOL0     H18593  13.016   1.849   5.299 -0.9274  1.2322 -0.2896
  138MOL0     H18594  13.066   1.602   5.690  2.0455 -1.1207 -0.5094
  138MOL0     H18595  13.048   1.520   5.535 -0.4948  0.2597 -0.5547
  138MOL0     H18596  13.302   1.559   5.509  0.4269 -0.8836  0.4121
  138MOL0     H18597  13.293   1.633   5.674 -1.2238  0.0860  0.5695
  138MOL0     H18598  13.242   1.428   5.783 -0.4872 -0.6514  0.4937
  138MOL0     H18599  13.184   1.352   5.627  1.0483 -1.6849 -0.2414
  138MOL0     H18600  13.424   1.347   5.546 -0.5823 -0.3007 -0.7780
  138MOL0     H18601  13.385   1.236   5.660 -1.2570  0.1864 -2.8242
  138MOL0     H18602  13.457   1.435   5.834  0.1015  2.1069  0.5771
  138MOL0     H18603  13.530   1.507   5.692  1.6004 -0.2927 -0.1744
  138MOL0     H18604  13.606   1.217   5.760 -1.8382 -0.1135  0.4637
  138MOL0     H18605  13.680   1.321   5.644  1.7731  2.1908  1.2215
  138MOL0     H18606  13.831   1.306   5.825  1.0239  0.1495  2.3535
  138MOL0     H18607  13.697   1.357   5.935 -2.3087 -1.6663 -1.3773
  138MOL0     H18608  13.863   1.508   5.726 -1.3943 -1.9240 -1.7163
  138MOL0     H18609  13.717   1.585   5.798  1.2269  0.8353  1.0224
  138MOL0     H18610  12.843   1.620   5.610  0.3102  1.6758 -0.1640
  138MOL0     H18611  12.609   1.701   5.530 -0.3069  0.9570 -1.6684
  138MOL0     H18612  12.413   2.221   5.425  0.6142  0.1447 -2.1152
  138MOL0     H18613  12.177   2.290   5.411 -0.0896  0.4281 -5.0133
  138MOL0     H18614  10.135   1.935   5.755  0.6851  4.4765 -0.6292
  138MOL0     H18615   9.926   1.867   5.911  0.2278 -1.4767  0.6745
  138MOL0     H18616   9.670   1.842   6.165  0.1354  2.2165  0.4092
  138MOL0     H18617   9.452   1.851   6.256  0.0772 -1.2791 -0.2191
  138MOL0     H18618   9.224   1.780   6.545  1.2892 -1.3599  0.6505
  138MOL0     H18619   9.300   1.749   6.393 -1.1747 -1.7361  2.4188
  138MOL0     H18620   9.302   1.995   6.324  0.1660  2.6839  1.2388
  138MOL0     H18621   9.180   2.020   6.456  0.9104  0.6296 -1.1429
  138MOL0     H18622   9.023   1.871   6.357 -0.4953  1.0373  1.3711
  138MOL0     H18623   9.148   1.820   6.233  0.6522  0.5446  0.8412
  138MOL0     H18624   8.977   2.004   6.177 -0.4994  3.1777 -1.4282
  138MOL0     H18625   9.120   2.091   6.236 -0.2288 -0.0635 -1.0693
  138MOL0     H18626   9.310   1.987   5.892 -0.0731 -0.3517  0.2111
  138MOL0     H18627   9.622   1.834   6.646  0.0059 -2.0489 -0.0194
  138MOL0     H18628   9.961   1.792   6.561  0.3196  1.5503 -0.8259
  138MOL0     H18629   9.903   1.950   6.621  0.9510  0.4980 -0.3237
  138MOL0     H18630   9.841   1.808   6.692 -0.3104 -2.1065 -1.2128
  139MOL0     O18631   9.350   7.640   9.414 -0.5474  0.1316 -0.4004
  139MOL0     C18632   9.250   7.634   9.342 -0.2569 -0.2402  0.5041
  139MOL0     O18633   9.245   7.652   9.207  0.6844  0.2214  0.3743
  139MOL0     C18634   9.365   7.703   9.149  0.6238 -0.1631  0.6174
  139MOL0     C18635   9.406   7.634   9.036  0.3345 -0.8936  0.2531
  139MOL0     C18636   9.526   7.652   8.980 -1.2349 -0.2974  0.2486
  139MOL0     C18637   9.614   7.747   9.024 -0.1999 -0.3739  0.0405
  139MOL0     O18638   9.733   7.771   8.953 -0.3188  0.2104 -0.1742
  139MOL0     C18639   9.825   7.665   8.910  0.4390  0.5607  0.1533
  139MOL0     C18640   9.959   7.723   8.894  0.3651  0.3677 -0.0749
  139MOL0     C18641  10.053   7.615   8.838 -0.3797 -0.7570 -0.1859
  139MOL0     C18642  10.197   7.664   8.819  0.3638 -0.0392 -0.0890
  139MOL0     C18643  10.288   7.550   8.791  0.8005  0.7883 -0.7295
  139MOL0     C18644  10.422   7.555   8.862 -0.1658  0.3702 -0.0386
  139MOL0     C18645  10.509   7.671   8.830 -0.0611  0.0325 -0.4668
  139MOL0     C18646  10.566   7.659   8.685  0.2177 -0.3919 -0.4913
  139MOL0     N18647  10.671   7.765   8.663  0.1870 -0.2388 -0.5001
  139MOL0     C18648  10.784   7.768   8.732  1.1810  0.1717  0.6107
  139MOL0     C18649  10.842   7.884   8.689  0.1902  0.7543 -0.1907
  139MOL0     C18650  10.970   7.949   8.733 -0.5319 -0.3086  0.6114
  139MOL0     C18651  11.100   7.876   8.702  0.2672 -0.0283 -0.2795
  139MOL0     C18652  11.205   7.970   8.753 -0.0206  0.0331  0.6601
  139MOL0     C18653  11.337   7.907   8.742  0.0272 -0.7105  0.1369
  139MOL0     O18654  11.411   7.951   8.625  0.3005  0.1496 -0.4370
  139MOL0     C18655  11.542   7.902   8.608 -0.2947 -0.7942 -0.1620
  139MOL0     C18656  11.623   7.969   8.511  0.0334  0.2835  1.1938
  139MOL0     C18657  11.751   7.923   8.474  0.1251 -0.5709 -0.5860
  139MOL0     C18658  11.812   7.826   8.555 -0.3891 -0.5148  0.6099
  139MOL0     C18659  11.958   7.790   8.545  0.5131  0.4423 -0.0515
  139MOL0     O18660  12.040   7.869   8.461  0.0654  0.2129 -0.0225
  139MOL0     C18661  12.182   7.866   8.462  0.3407  0.2341 -0.5001
  139MOL0     C18662  12.250   7.931   8.359  0.8920  0.4807 -0.6704
  139MOL0     C18663  12.386   7.945   8.362 -1.0188  0.1159  0.2131
  139MOL0     C18664  12.456   7.876   8.455 -0.5151  0.3768 -0.8095
  139MOL0     O18665  12.591   7.880   8.465 -0.6886 -1.1521  0.4593
  139MOL0     C18666  12.654   8.010   8.439 -0.2977 -0.1792 -0.1300
  139MOL0     C18667  12.806   8.005   8.466 -0.0325  0.1888  0.2294
  139MOL0     C18668  12.846   7.969   8.609  0.1935  0.8619 -0.6162
  139MOL0     C18669  12.974   8.022   8.655  0.7220 -0.3163  0.0624
  139MOL0     C18670  13.008   7.996   8.802 -0.9537  0.1899 -0.2202
  139MOL0     C18671  13.139   8.066   8.838 -0.3939 -0.1024  0.3567
  139MOL0     C18672  13.264   8.005   8.769  0.8431  0.8693  0.1401
  139MOL0     C18673  13.375   7.965   8.864 -0.7138 -0.9014  0.1253
  139MOL0    Cl18674  13.461   8.104   8.941 -0.1647 -0.2044  0.0394
  139MOL0     C18675  12.396   7.815   8.566  0.1032  0.5886 -0.3309
  139MOL0     C18676  12.255   7.814   8.564  0.1094  1.6010 -0.7293
  139MOL0     O18677  11.993   7.695   8.619  0.0279 -0.5956 -0.6309
  139MOL0     C18678  11.728   7.762   8.645 -0.0056 -0.9456 -0.9143
  139MOL0     C18679  11.595   7.796   8.681 -0.0561  0.1316  0.2055
  139MOL0     N18680  10.762   7.952   8.607 -0.0218  0.0551  0.5895
  139MOL0     N18681  10.655   7.879   8.586  0.4971 -0.8159  0.1850
  139MOL0     C18682   9.588   7.817   9.139  0.4834 -1.0339  0.0590
  139MOL0     C18683   9.463   7.794   9.205  0.2394 -0.5074 -0.0662
  139MOL0     C18684   9.130   7.634   9.427 -0.2466 -0.2340 -0.2710
  139MOL0     C18685   9.134   7.620   9.571  0.1791  0.1260 -0.2846
  139MOL0     C18686   9.026   7.575   9.655 -0.2855 -0.5609  0.0292
  139MOL0     C18687   8.900   7.577   9.601 -0.2967  0.1268  0.1095
  139MOL0     O18688   8.786   7.534   9.660  0.2879 -0.6589 -0.5694
  139MOL0     C18689   8.727   7.419   9.615  0.8564 -0.4331 -0.5689
  139MOL0     C18690   8.812   7.293   9.649  0.5246 -0.4191 -0.2219
  139MOL0     C18691   8.817   7.285   9.804  0.2373  0.2759  0.4641
  139MOL0     C18692   8.918   7.177   9.850 -0.5224  0.0863  1.4572
  139MOL0     C18693   8.954   7.190   9.991 -0.2128 -0.5524 -0.1882
  139MOL0     C18694   8.975   7.215  10.109  0.1818  0.3303 -0.4150
  139MOL0     C18695   8.885   7.627   9.475  0.4766 -0.0823  0.6657
  139MOL0     C18696   8.994   7.641   9.376 -0.0015 -0.1456 -0.7344
  139MOL0     C18697   8.965   7.643   9.228 -0.1485 -0.1362 -0.2159
  139MOL0     H18698   9.340   7.558   8.997 -0.3796 -0.7738  1.1847
  139MOL0     H18699   9.561   7.584   8.903  0.8903  0.6432  0.3310
  139MOL0     H18700   9.824   7.588   8.988  1.3968  0.9394  0.5483
  139MOL0     H18701   9.791   7.626   8.814 -0.3681 -0.6946  0.9101
  139MOL0     H18702   9.987   7.749   8.996 -1.8578 -2.4120  1.3942
  139MOL0     H18703   9.952   7.814   8.833 -5.1812 -1.7638 -3.4256
  139MOL0     H18704  10.010   7.577   8.745  0.5539  1.5119 -1.6643
  139MOL0     H18705  10.062   7.534   8.910 -0.0753 -0.8714 -0.3504
  139MOL0     H18706  10.202   7.745   8.746 -0.6774  1.3714  1.3406
  139MOL0     H18707  10.227   7.717   8.911  2.1338  1.2828 -1.3561
  139MOL0     H18708  10.234   7.457   8.814 -1.3656  1.3884 -2.9500
  139MOL0     H18709  10.294   7.535   8.683 -0.8634 -2.5737 -0.4920
  139MOL0     H18710  10.403   7.565   8.969 -0.7242 -0.4002 -0.0593
  139MOL0     H18711  10.475   7.462   8.840 -2.9491 -0.9540 -1.7404
  139MOL0     H18712  10.587   7.688   8.904 -1.4774 -0.2588  1.1374
  139MOL0     H18713  10.457   7.765   8.849  0.3980 -0.2549  2.7557
  139MOL0     H18714  10.603   7.557   8.673 -0.0243 -0.3231 -2.1251
  139MOL0     H18715  10.483   7.677   8.616 -1.0521 -2.3361  0.4385
  139MOL0     H18716  10.822   7.690   8.797 -1.7611 -1.2968  0.7458
  139MOL0     H18717  10.976   8.048   8.687 -0.6599  0.3393  1.9324
  139MOL0     H18718  10.965   7.961   8.842 -1.6266 -3.2652  0.9845
  139MOL0     H18719  11.100   7.780   8.754 -1.6611 -1.0314 -2.0367
  139MOL0     H18720  11.123   7.870   8.595  2.3040  0.6494  0.0524
  139MOL0     H18721  11.178   7.998   8.855 -3.3242  0.7560 -0.2784
  139MOL0     H18722  11.213   8.060   8.691 -1.5953 -1.5709 -2.1183
  139MOL0     H18723  11.327   7.799   8.749 -1.9087 -0.7363 -1.8770
  139MOL0     H18724  11.385   7.937   8.835 -1.4937 -1.6366  1.2515
  139MOL0     H18725  11.573   8.051   8.459 -2.4601  0.4376  3.6190
  139MOL0     H18726  11.807   7.976   8.398  0.3074 -1.4724 -1.0855
  139MOL0     H18727  12.195   7.959   8.269 -0.9568 -3.3917 -0.9300
  139MOL0     H18728  12.444   7.988   8.281  0.8489 -1.5055  0.6111
  139MOL0     H18729  12.636   8.041   8.335  0.8496 -0.4929 -0.4348
  139MOL0     H18730  12.608   8.087   8.502  1.1379 -0.1137  0.8667
  139MOL0     H18731  12.849   7.927   8.402 -1.6100  1.2660 -2.2650
  139MOL0     H18732  12.851   8.096   8.426 -0.0074 -1.1674 -3.1708
  139MOL0     H18733  12.773   8.016   8.676 -0.9173 -0.7090 -0.6616
  139MOL0     H18734  12.843   7.860   8.621  1.0569  1.0025  1.1997
  139MOL0     H18735  12.982   8.129   8.636  2.5216 -0.8515 -2.7751
  139MOL0     H18736  13.055   7.981   8.594 -1.1985 -1.2095 -2.0763
  139MOL0     H18737  13.007   7.889   8.822  0.2131 -0.1945 -1.9708
  139MOL0     H18738  12.933   8.050   8.860 -1.5494  3.0232 -3.2817
  139MOL0     H18739  13.140   8.173   8.816 -2.3572 -0.0952  0.1093
  139MOL0     H18740  13.157   8.068   8.945 -0.4528 -3.4049  0.5418
  139MOL0     H18741  13.294   8.076   8.691  0.3406  0.0147 -0.8701
  139MOL0     H18742  13.232   7.916   8.713 -1.6635  1.0548  1.1648
  139MOL0     H18743  13.340   7.906   8.950  3.4942  0.6855  3.2985
  139MOL0     H18744  13.439   7.902   8.801 -0.4779 -0.8006  0.2611
  139MOL0     H18745  12.445   7.755   8.643  0.3034 -0.0153 -0.9225
  139MOL0     H18746  12.207   7.778   8.655 -0.6186 -0.1149 -1.7353
  139MOL0     H18747  11.784   7.707   8.719  0.3933  3.9906  3.0022
  139MOL0     H18748  11.538   7.742   8.755 -1.2422  1.4998  0.3422
  139MOL0     H18749   9.668   7.884   9.169  1.5168 -1.4160 -1.6310
  139MOL0     H18750   9.435   7.851   9.293 -1.5761 -1.3901 -0.0170
  139MOL0     H18751   9.231   7.601   9.616  0.4276 -0.3518 -1.0018
  139MOL0     H18752   9.057   7.544   9.755 -2.0282 -0.3619  0.6684
  139MOL0     H18753   8.708   7.425   9.507 -1.9005  0.8076 -0.1084
  139MOL0     H18754   8.631   7.406   9.666  1.3817  1.0331  0.8601
  139MOL0     H18755   8.907   7.307   9.596  0.2533  0.6024 -0.4495
  139MOL0     H18756   8.753   7.210   9.608  1.8901 -0.7663 -1.5801
  139MOL0     H18757   8.718   7.248   9.831  0.3734  0.2720  0.9691
  139MOL0     H18758   8.855   7.382   9.837  4.3296 -1.1841  0.7487
  139MOL0     H18759   8.895   7.075   9.816 -1.0050  0.5482  0.3656
  139MOL0     H18760   9.012   7.202   9.800 -1.5181  1.9095  0.4253
  139MOL0     H18761   8.986   7.218  10.215 -1.9347  4.9396 -0.1082
  139MOL0     H18762   8.783   7.642   9.441  0.4892 -1.0058  0.1864
  139MOL0     H18763   8.858   7.639   9.206 -0.0805 -1.7976 -0.3527
  139MOL0     H18764   9.026   7.716   9.174  3.0594 -2.6002 -0.2774
  139MOL0     H18765   9.001   7.545   9.194  1.3731 -1.2239  3.9135
  140MOL0     O18766  11.119   7.046   0.107 -0.0231 -0.6664 -0.7162
  140MOL0     C18767  11.067   7.111   0.205  0.0014 -1.0887  0.5872
  140MOL0     O18768  11.144   7.192   0.291  0.5055  0.2659  0.1635
  140MOL0     C18769  11.269   7.144   0.318 -0.7310 -0.8703  0.0770
  140MOL0     C18770  11.303   7.035   0.410  0.6397 -0.1148  0.7758
  140MOL0     C18771  11.440   6.992   0.410  0.1813  0.0454 -0.0494
  140MOL0     C18772  11.533   7.054   0.329 -0.0314 -0.2770 -0.1613
  140MOL0     O18773  11.664   7.016   0.354 -0.4549  0.3082  0.2909
  140MOL0     C18774  11.779   7.090   0.300  0.3580  0.8179 -0.4301
  140MOL0     C18775  11.909   7.075   0.387  0.5403  0.3053  0.4937
  140MOL0     C18776  11.971   6.932   0.392  0.1236 -0.4213 -0.1878
  140MOL0     C18777  12.042   6.888   0.257 -0.2364 -0.2239  1.2518
  140MOL0     C18778  12.113   6.751   0.258 -0.0778  0.1798  0.3706
  140MOL0     C18779  12.221   6.741   0.368 -0.0506 -0.4763 -0.9058
  140MOL0     C18780  12.294   6.609   0.365  0.3994  0.1779  0.0747
  140MOL0     C18781  12.237   6.477   0.425  0.0624  0.1378  0.5143
  140MOL0     N18782  12.152   6.401   0.327 -0.3706 -0.1081 -0.2469
  140MOL0     C18783  12.207   6.352   0.205  0.7300  0.1596  0.1607
  140MOL0     C18784  12.113   6.261   0.167  0.7860  0.8070  0.2927
  140MOL0     C18785  12.128   6.160   0.058  0.7083  0.2598 -0.1619
  140MOL0     C18786  12.159   6.015   0.108  0.3376  0.0855  0.0093
  140MOL0     C18787  12.141   5.912   0.005 -0.0685  0.4470 -0.1556
  140MOL0     C18788  12.245   5.915  -0.104 -0.8842  0.2953 -0.4498
  140MOL0     O18789  12.371   5.868  -0.063 -0.3285  0.0571  0.3074
  140MOL0     C18790  12.467   5.851  -0.160  0.6836 -0.2783  0.2520
  140MOL0     C18791  12.602   5.843  -0.116 -0.0169 -0.3093  0.5339
  140MOL0     C18792  12.705   5.817  -0.212 -0.0434  0.6435 -0.0350
  140MOL0     C18793  12.666   5.797  -0.343  0.7125  0.2129  0.2470
  140MOL0     C18794  12.770   5.760  -0.446 -0.6662  0.4578  0.0116
  140MOL0     O18795  12.898   5.766  -0.393  0.2517  0.0159 -0.0635
  140MOL0     C18796  13.013   5.706  -0.439  0.6408 -0.3573 -0.2732
  140MOL0     C18797  13.130   5.767  -0.395 -0.1598 -0.0756 -0.2187
  140MOL0     C18798  13.254   5.707  -0.437  0.2549 -0.3876 -0.0913
  140MOL0     C18799  13.260   5.605  -0.535 -0.0009  0.0644  0.2766
  140MOL0     O18800  13.379   5.556  -0.579 -0.7390 -0.6889  0.2131
  140MOL0     C18801  13.390   5.497  -0.709  0.4513 -0.0802  0.1831
  140MOL0     C18802  13.541   5.475  -0.742  0.4355 -0.6437  0.6566
  140MOL0     C18803  13.632   5.410  -0.641  0.6587 -0.3567 -0.3131
  140MOL0     C18804  13.778   5.446  -0.668  0.0366  1.2825  0.7584
  140MOL0     C18805  13.880   5.409  -0.560 -0.0165 -0.2484  0.9182
  140MOL0     C18806  14.016   5.459  -0.599 -0.1595 -0.1453 -0.5306
  140MOL0     C18807  14.120   5.444  -0.491 -0.1621  0.3213 -0.1306
  140MOL0     C18808  14.252   5.523  -0.526  0.2672 -0.1000  0.4523
  140MOL0    Cl18809  14.323   5.456  -0.671 -0.1362 -0.1152  0.1919
  140MOL0     C18810  13.141   5.550  -0.568  0.6139  0.2724 -1.0618
  140MOL0     C18811  13.016   5.597  -0.526  0.0546  0.0407 -0.1088
  140MOL0     O18812  12.740   5.711  -0.556  0.0638  0.6123  0.9452
  140MOL0     C18813  12.529   5.800  -0.389  0.3413  0.5111 -0.1600
  140MOL0     C18814  12.432   5.828  -0.299 -0.4424 -0.4932 -0.4527
  140MOL0     N18815  12.002   6.266   0.254 -0.0122  0.0874 -0.4916
  140MOL0     N18816  12.028   6.350   0.356 -0.3204 -0.2835 -0.0546
  140MOL0     C18817  11.497   7.152   0.242  0.6310  0.2440  0.4374
  140MOL0     C18818  11.363   7.194   0.231  0.7064 -0.4548  0.1520
  140MOL0     C18819  10.918   7.111   0.220  0.5066 -0.7737 -0.6669
  140MOL0     C18820  10.860   7.166   0.340 -0.5931  0.2573 -0.0166
  140MOL0     C18821  10.722   7.173   0.358  0.2663  0.0797  0.2776
  140MOL0     C18822  10.634   7.138   0.259  0.0923  0.3371 -0.7280
  140MOL0     O18823  10.501   7.155   0.290  0.1362 -0.0461  0.6384
  140MOL0     C18824  10.442   7.046   0.366  0.6912  0.3368 -0.1912
  140MOL0     C18825  10.298   7.090   0.423  0.7051 -0.1979 -0.2111
  140MOL0     C18826  10.254   7.024   0.558  0.0989  0.0512 -0.1424
  140MOL0     C18827  10.319   7.095   0.681  0.3971  0.0487  0.0241
  140MOL0     C18828  10.296   7.002   0.790 -0.3873  0.2835  0.6453
  140MOL0     C18829  10.291   6.917   0.873 -0.4544 -0.7428  0.1238
  140MOL0     C18830  10.691   7.080   0.142  0.2663  0.1079 -0.4465
  140MOL0     C18831  10.828   7.067   0.116  0.3180 -0.7201  0.0080
  140MOL0     C18832  10.871   6.975   0.011 -0.9105 -0.0311 -0.0370
  140MOL0     H18833  11.232   6.987   0.477  1.1185  0.4466  1.6889
  140MOL0     H18834  11.475   6.916   0.479 -2.0007  1.0112  2.3052
  140MOL0     H18835  11.794   7.054   0.198 -1.7354 -0.6231 -0.3019
  140MOL0     H18836  11.757   7.197   0.300  1.0391  0.9647 -0.6595
  140MOL0     H18837  11.873   7.094   0.489  0.3315 -0.4815  0.5723
  140MOL0     H18838  11.987   7.147   0.361  1.5492  0.5145  3.6605
  140MOL0     H18839  11.891   6.861   0.414  1.3082 -2.0887 -1.0511
  140MOL0     H18840  12.037   6.931   0.479 -1.0490 -2.0729  0.7336
  140MOL0     H18841  11.970   6.877   0.176 -1.8254 -3.0621  2.8971
  140MOL0     H18842  12.107   6.974   0.235 -0.6116 -0.0004  1.0057
  140MOL0     H18843  12.039   6.673   0.280 -0.1546  0.4923  1.2626
  140MOL0     H18844  12.163   6.730   0.163 -0.7325  0.3138 -0.0133
  140MOL0     H18845  12.296   6.819   0.356  1.1041 -1.3940 -0.0141
  140MOL0     H18846  12.170   6.739   0.465  0.1055 -3.2243 -0.7980
  140MOL0     H18847  12.375   6.624   0.437  0.6833 -0.5507 -0.0794
  140MOL0     H18848  12.337   6.585   0.267 -1.6527  2.0556 -1.3737
  140MOL0     H18849  12.315   6.413   0.468 -0.5597  0.0382  1.5132
  140MOL0     H18850  12.175   6.501   0.511  1.3766  1.7988  1.0477
  140MOL0     H18851  12.302   6.371   0.157  0.6452 -0.0531 -0.0904
  140MOL0     H18852  12.051   6.149  -0.019 -0.1594  1.6245  0.4738
  140MOL0     H18853  12.214   6.193  -0.001  2.8516  0.7923  3.0101
  140MOL0     H18854  12.255   6.015   0.159  0.5116  0.6624 -0.3083
  140MOL0     H18855  12.094   6.006   0.196  2.6982  0.6660  1.8977
  140MOL0     H18856  12.042   5.917  -0.042  0.0925 -0.4865 -0.6357
  140MOL0     H18857  12.152   5.823   0.068  1.6242  1.5629  1.2044
  140MOL0     H18858  12.251   6.017  -0.144 -0.9173  0.1107 -0.9441
  140MOL0     H18859  12.209   5.843  -0.178  1.9489 -3.0095  1.0934
  140MOL0     H18860  12.624   5.852  -0.010  0.0206  1.9038  0.3927
  140MOL0     H18861  12.810   5.806  -0.188 -0.0694  0.5880  0.0516
  140MOL0     H18862  13.112   5.842  -0.318 -0.3511  1.3599 -1.6071
  140MOL0     H18863  13.350   5.731  -0.392 -0.8591  1.2725  1.4991
  140MOL0     H18864  13.354   5.394  -0.709  0.7017 -0.1701  0.8756
  140MOL0     H18865  13.351   5.565  -0.786  1.7731 -2.3619 -2.7193
  140MOL0     H18866  13.557   5.419  -0.835 -3.1412 -0.7856  0.0064
  140MOL0     H18867  13.567   5.579  -0.765  1.7503 -0.8647  1.0297
  140MOL0     H18868  13.603   5.437  -0.539 -0.9816  0.6684 -1.0334
  140MOL0     H18869  13.612   5.302  -0.640 -0.2137 -0.2474  2.5751
  140MOL0     H18870  13.782   5.552  -0.695  1.1114  2.1339  3.7725
  140MOL0     H18871  13.802   5.384  -0.754 -1.9539 -1.3464  1.9425
  140MOL0     H18872  13.878   5.301  -0.548 -2.6771 -0.1635  1.8587
  140MOL0     H18873  13.846   5.456  -0.467  1.0644  2.9115 -0.1552
  140MOL0     H18874  14.037   5.396  -0.686  1.1777 -0.7162  0.1696
  140MOL0     H18875  14.025   5.563  -0.629 -2.0768  0.6602  1.4317
  140MOL0     H18876  14.146   5.341  -0.467  2.3266  0.4471 -1.9320
  140MOL0     H18877  14.077   5.485  -0.398  0.2107 -0.4396  0.3894
  140MOL0     H18878  14.225   5.629  -0.537 -1.1370 -0.4112  0.7118
  140MOL0     H18879  14.338   5.521  -0.458  1.6822  1.8253 -1.1626
  140MOL0     H18880  13.147   5.469  -0.641  2.0145 -1.9156  1.3109
  140MOL0     H18881  12.927   5.555  -0.572  0.2457 -0.1037 -0.3483
  140MOL0     H18882  12.499   5.794  -0.493  3.2989 -2.4981 -0.9922
  140MOL0     H18883  12.331   5.836  -0.337 -0.1547  1.8694 -0.9145
  140MOL0     H18884  11.566   7.214   0.186 -1.3496  1.8930 -0.3083
  140MOL0     H18885  11.339   7.271   0.158  0.6267  0.5624  1.2149
  140MOL0     H18886  10.921   7.197   0.425  0.7588 -0.8092 -0.5581
  140MOL0     H18887  10.692   7.213   0.454 -0.2614  0.5791 -0.0877
  140MOL0     H18888  10.506   7.027   0.453  1.2084  3.0979  0.1346
  140MOL0     H18889  10.425   6.958   0.303  0.0124  0.8000 -0.6628
  140MOL0     H18890  10.236   7.048   0.343  0.2050  1.9383 -1.0207
  140MOL0     H18891  10.293   7.198   0.435  1.1803 -0.1308 -0.5623
  140MOL0     H18892  10.285   6.919   0.564  0.3994  0.2174  2.2404
  140MOL0     H18893  10.145   7.028   0.569  0.1319  1.1112 -0.0944
  140MOL0     H18894  10.428   7.093   0.675  0.4476  0.5307  0.6506
  140MOL0     H18895  10.275   7.194   0.702  1.6926  0.8607 -0.9782
  140MOL0     H18896  10.283   6.847   0.954 -0.3387  0.5776  1.3043
  140MOL0     H18897  10.612   7.055   0.072  1.6927  0.8368 -2.4176
  140MOL0     H18898  10.902   7.038  -0.073  1.0703 -0.6831  0.1767
  140MOL0     H18899  10.944   6.899   0.039  0.1115  1.3246  1.1182
  140MOL0     H18900  10.780   6.921  -0.019  0.8737 -3.7189  0.6637
  141MOL0     O18901  11.002  10.144   4.596  0.0093  0.0616  0.3374
  141MOL0     C18902  10.900  10.094   4.652  0.1260 -1.7069 -0.1625
  141MOL0     O18903  10.873  10.109   4.792 -0.3103  0.2700  0.2450
  141MOL0     C18904  10.972  10.124   4.875 -0.6382 -0.3253 -0.5656
  141MOL0     C18905  11.092  10.055   4.863 -0.3192  0.3028 -0.0083
  141MOL0     C18906  11.196  10.074   4.951  0.5157 -0.0432  0.1138
  141MOL0     C18907  11.181  10.152   5.057 -0.0684 -0.2702 -1.3731
  141MOL0     O18908  11.296  10.161   5.130  0.0501  0.0252 -0.3095
  141MOL0     C18909  11.275  10.208   5.264  0.8981  0.0977 -0.2973
  141MOL0     C18910  11.398  10.193   5.351 -0.1558 -0.0273 -0.5298
  141MOL0     C18911  11.385  10.215   5.500 -0.5764  0.5869 -0.4783
  141MOL0     C18912  11.380  10.365   5.531  0.3401  0.9241  0.3066
  141MOL0     C18913  11.382  10.377   5.688  0.1491 -0.3960 -0.6002
  141MOL0     C18914  11.525  10.345   5.736  0.3235 -0.2692 -0.0601
  141MOL0     C18915  11.655  10.405   5.671 -0.2011 -0.0054  0.8324
  141MOL0     C18916  11.779  10.358   5.746 -0.2877  0.3838 -0.4559
  141MOL0     N18917  11.814  10.468   5.843 -0.1696  1.3358  0.2930
  141MOL0     C18918  11.755  10.480   5.960  0.1497  0.4476 -0.6423
  141MOL0     C18919  11.813  10.590   6.014 -0.1645 -0.6745 -0.4204
  141MOL0     C18920  11.779  10.652   6.148 -0.0050 -1.2318 -0.4684
  141MOL0     C18921  11.633  10.617   6.186 -0.1555 -0.9084  0.6995
  141MOL0     C18922  11.594  10.714   6.299 -0.1571  0.0427 -0.1357
  141MOL0     C18923  11.439  10.721   6.324 -0.0321  0.2911  1.0242
  141MOL0     O18924  11.398  10.581   6.339  0.5620  0.0350 -0.0715
  141MOL0     C18925  11.269  10.553   6.362  1.6996  0.3907 -0.4160
  141MOL0     C18926  11.213  10.425   6.326 -0.3264  0.7797 -0.2177
  141MOL0     C18927  11.084  10.401   6.339 -0.6679 -0.1417 -0.5296
  141MOL0     C18928  10.996  10.494   6.401  0.1364 -0.2352  0.3935
  141MOL0     C18929  10.846  10.466   6.416 -0.1831  0.0854 -0.5643
  141MOL0     O18930  10.813  10.348   6.364 -0.6762 -0.2783  0.2149
  141MOL0     C18931  10.686  10.300   6.382  0.7173 -0.1399 -0.0185
  141MOL0     C18932  10.583  10.311   6.288  0.3437 -0.5028 -0.9412
  141MOL0     C18933  10.448  10.279   6.325  0.6235  0.6804  0.2797
  141MOL0     C18934  10.419  10.234   6.452 -0.4969  0.5427 -0.3024
  141MOL0     O18935  10.288  10.220   6.496 -0.0344 -0.4220  0.2595
  141MOL0     C18936  10.196  10.165   6.402  0.0326 -0.8525 -0.0261
  141MOL0     C18937  10.062  10.133   6.474  1.1269 -0.8647 -0.1504
  141MOL0     C18938   9.963  10.084   6.374 -0.4874 -0.8548  0.1846
  141MOL0     C18939   9.989   9.940   6.325 -0.0135  0.5248 -0.6964
  141MOL0     C18940   9.885   9.890   6.220 -0.3816 -0.7088 -0.7261
  141MOL0     C18941   9.923   9.944   6.082 -0.3039  0.8686  0.5300
  141MOL0     C18942   9.820   9.907   5.973 -0.7818 -0.2787 -0.1142
  141MOL0     C18943   9.855   9.942   5.829  0.8484  0.4461  0.1603
  141MOL0    Cl18944   9.698   9.914   5.741 -0.2466  0.2307  0.2036
  141MOL0     C18945  10.519  10.236   6.553 -0.1592 -0.3109  0.4040
  141MOL0     C18946  10.643  10.272   6.516 -0.9697 -0.3808  0.1534
  141MOL0     O18947  10.771  10.540   6.476 -0.0782 -0.7700  0.1124
  141MOL0     C18948  11.046  10.615   6.438  0.2784  0.1474  0.0314
  141MOL0     C18949  11.178  10.647   6.417  0.0290 -0.5754  0.1228
  141MOL0     N18950  11.915  10.640   5.927 -0.6585  0.7847  0.3529
  141MOL0     N18951  11.918  10.558   5.832  0.3588  0.1162 -0.7437
  141MOL0     C18952  11.057  10.216   5.077 -0.6847 -0.1704 -0.3621
  141MOL0     C18953  10.956  10.195   4.992 -0.6345 -0.5786 -0.4332
  141MOL0     C18954  10.798  10.029   4.575 -0.2221 -0.2872  0.2458
  141MOL0     C18955  10.667  10.069   4.614 -0.3604 -0.2034  0.8186
  141MOL0     C18956  10.557  10.013   4.552 -0.5868  1.4396 -0.5057
  141MOL0     C18957  10.572   9.912   4.457  0.2411 -0.5026 -0.0360
  141MOL0     O18958  10.464   9.859   4.387  0.3482  0.1315  0.7294
  141MOL0     C18959  10.332   9.879   4.446 -0.6035  0.7069 -0.1042
  141MOL0     C18960  10.229   9.781   4.397  0.6173 -0.4013 -0.0133
  141MOL0     C18961  10.077   9.810   4.437 -0.1387 -0.4364 -0.2122
  141MOL0     C18962   9.980   9.714   4.368  0.3164 -0.0828  0.2818
  141MOL0     C18963  10.015   9.578   4.421  0.0882 -0.3183 -0.3175
  141MOL0     C18964  10.044   9.476   4.481  0.4728  0.4667  0.3418
  141MOL0     C18965  10.695   9.873   4.421  0.3206 -0.5409 -0.2326
  141MOL0     C18966  10.815   9.928   4.473  0.1236 -0.9824 -0.2733
  141MOL0     C18967  10.948   9.886   4.416 -0.4113  0.0305  0.5665
  141MOL0     H18968  11.101   9.974   4.791 -3.5343 -0.4794  0.3023
  141MOL0     H18969  11.294  10.032   4.936 -0.2091 -1.6257 -0.4099
  141MOL0     H18970  11.250  10.315   5.269 -3.1615 -0.7170  0.9193
  141MOL0     H18971  11.189  10.156   5.308  0.8983  2.7162  3.3161
  141MOL0     H18972  11.477  10.260   5.316 -1.0415  0.3741 -1.8494
  141MOL0     H18973  11.426  10.088   5.338  0.9070  0.0468  0.8642
  141MOL0     H18974  11.480  10.176   5.538 -0.1228  1.2393 -0.9232
  141MOL0     H18975  11.302  10.159   5.543 -0.5802  0.2462 -0.9215
  141MOL0     H18976  11.451  10.430   5.480 -0.6294  0.3147 -1.9465
  141MOL0     H18977  11.278  10.396   5.507  0.4029  0.9665  0.0880
  141MOL0     H18978  11.352  10.477   5.720  0.6852  0.1716 -1.8188
  141MOL0     H18979  11.318  10.300   5.732 -1.4252  0.5369 -1.1669
  141MOL0     H18980  11.532  10.362   5.844 -1.5062  0.9001 -0.0946
  141MOL0     H18981  11.542  10.237   5.725 -0.1462 -0.1802 -2.0031
  141MOL0     H18982  11.656  10.515   5.664  1.0564 -0.0786 -0.7112
  141MOL0     H18983  11.663  10.362   5.570 -1.2732 -1.3001  1.2710
  141MOL0     H18984  11.752  10.265   5.797 -0.5296  0.0135 -1.2521
  141MOL0     H18985  11.863  10.338   5.679 -1.2542  2.2570 -2.3718
  141MOL0     H18986  11.671  10.429   6.007  1.9190 -1.3924  0.7061
  141MOL0     H18987  11.842  10.603   6.223 -0.2094 -0.4539  0.2326
  141MOL0     H18988  11.800  10.759   6.152 -0.9340 -1.0368 -0.6704
  141MOL0     H18989  11.569  10.641   6.101  1.4459  1.7513  0.1081
  141MOL0     H18990  11.622  10.512   6.215 -1.1247 -0.6208  1.4023
  141MOL0     H18991  11.631  10.815   6.280  0.3384 -0.2428 -0.7335
  141MOL0     H18992  11.635  10.682   6.396 -1.4223  0.5894  0.5994
  141MOL0     H18993  11.387  10.782   6.249  1.0164 -1.6269 -1.3832
  141MOL0     H18994  11.431  10.775   6.419 -1.7612  2.5644 -0.2988
  141MOL0     H18995  11.282  10.352   6.284 -1.4073 -1.1352  1.1907
  141MOL0     H18996  11.057  10.297   6.319 -1.7454 -0.1653  0.8702
  141MOL0     H18997  10.601  10.349   6.188 -0.7648  1.2790 -0.5117
  141MOL0     H18998  10.377  10.287   6.243  0.6925  0.2444  0.1748
  141MOL0     H18999  10.187  10.232   6.317  0.0817 -1.3094 -0.3985
  141MOL0     H19000  10.234  10.075   6.352 -0.4398  0.1041 -2.2185
  141MOL0     H19001  10.079  10.050   6.544 -1.7365 -2.8201 -1.5886
  141MOL0     H19002  10.013  10.213   6.531 -0.3656 -2.8580  1.5325
  141MOL0     H19003   9.863  10.095   6.417 -1.8548 -2.2374 -2.4078
  141MOL0     H19004   9.961  10.150   6.287  0.9538  0.1937  0.8934
  141MOL0     H19005   9.973   9.872   6.409 -1.0352 -1.3773 -2.3386
  141MOL0     H19006  10.088   9.922   6.282  0.6696 -0.5095  1.2350
  141MOL0     H19007   9.790   9.937   6.248 -1.8358 -3.3717 -0.8369
  141MOL0     H19008   9.865   9.783   6.214  1.8931 -1.2451  0.1033
  141MOL0     H19009   9.924  10.053   6.087  1.0498  0.8831  0.1793
  141MOL0     H19010  10.024   9.905   6.063  0.0802  1.5208  1.1839
  141MOL0     H19011   9.726   9.960   5.990 -2.0820 -1.3821 -3.2528
  141MOL0     H19012   9.798   9.800   5.978 -1.5420 -0.0794  3.3367
  141MOL0     H19013   9.880  10.048   5.819 -0.8788  0.9441  0.7106
  141MOL0     H19014   9.930   9.871   5.794 -0.4930 -0.7061 -0.4961
  141MOL0     H19015  10.484  10.237   6.656  0.1993  3.0988  0.6008
  141MOL0     H19016  10.710  10.288   6.600 -0.7147 -1.3580  0.1458
  141MOL0     H19017  10.985  10.687   6.492 -1.0781 -0.1339 -1.0536
  141MOL0     H19018  11.214  10.743   6.454 -0.9855 -0.2419  0.2678
  141MOL0     H19019  11.056  10.284   5.162  2.4959 -1.4024  0.8301
  141MOL0     H19020  10.865  10.250   5.012  1.2027  2.1517  0.9777
  141MOL0     H19021  10.652  10.148   4.686  3.2892  2.6252 -1.1719
  141MOL0     H19022  10.455  10.045   4.569 -1.0253  0.5747 -1.3758
  141MOL0     H19023  10.298   9.982   4.435  1.8807  1.8350  1.6656
  141MOL0     H19024  10.342   9.871   4.554  0.5253 -0.0758 -0.2449
  141MOL0     H19025  10.255   9.678   4.422 -2.4210 -0.6445  2.9361
  141MOL0     H19026  10.224   9.798   4.289 -2.0613  1.3524  0.2825
  141MOL0     H19027  10.045   9.913   4.418 -3.4001 -1.5788 -1.6751
  141MOL0     H19028  10.062   9.812   4.546  0.0065  1.9964 -0.1795
  141MOL0     H19029   9.875   9.740   4.390  0.4583 -0.1818  1.0849
  141MOL0     H19030   9.993   9.721   4.260 -3.2588  1.0215 -0.2391
  141MOL0     H19031  10.056   9.378   4.520 -5.0370 -0.9066 -0.5590
  141MOL0     H19032  10.699   9.798   4.342  2.4567 -0.9686  0.2249
  141MOL0     H19033  11.034   9.903   4.481  0.9565 -2.0281 -0.5867
  141MOL0     H19034  10.946   9.778   4.400 -1.3230 -0.4447  3.3039
  141MOL0     H19035  10.979   9.939   4.325 -0.5425  0.4431  0.7601
  142MOL0     O19036   6.794   6.798   9.859 -0.7185  0.5785  0.5303
  142MOL0     C19037   6.803   6.843   9.746  0.1808  0.1420  0.1107
  142MOL0     O19038   6.915   6.875   9.674 -0.3999 -0.0220  0.0291
  142MOL0     C19039   7.032   6.850   9.744  0.5790  0.1842  0.2206
  142MOL0     C19040   7.093   6.951   9.817  0.5566  0.2152  0.0578
  142MOL0     C19041   7.223   6.936   9.868 -0.0608 -0.8138  0.8638
  142MOL0     C19042   7.292   6.813   9.853  1.0285  0.2988 -0.3344
  142MOL0     O19043   7.416   6.791   9.913 -0.4474  0.0911 -0.0021
  142MOL0     C19044   7.480   6.888   9.999 -0.0449  0.8726  0.2167
  142MOL0     C19045   7.603   6.815  10.057  0.3905 -0.2102  0.9069
  142MOL0     C19046   7.709   6.905  10.125 -0.4327  0.2353 -0.5134
  142MOL0     C19047   7.821   6.828  10.181  0.2763 -0.3085  0.0421
  142MOL0     C19048   7.912   6.769  10.078  1.1878 -0.0356 -0.9821
  142MOL0     C19049   8.044   6.712  10.145  0.4371 -0.6332 -0.3364
  142MOL0     C19050   8.164   6.719  10.054  0.7023  0.6308 -0.2584
  142MOL0     C19051   8.232   6.849  10.039 -0.3870 -0.0276 -0.4693
  142MOL0     N19052   8.375   6.840  10.010  0.2942 -0.9246  0.3933
  142MOL0     C19053   8.482   6.868  10.096  0.5966 -0.7053 -0.2786
  142MOL0     C19054   8.593   6.859  10.017  0.5106 -0.5018  0.5764
  142MOL0     C19055   8.732   6.881  10.069  0.0902  0.0692  0.8506
  142MOL0     C19056   8.807   6.767  10.124 -0.5674 -0.2554  0.2893
  142MOL0     C19057   8.947   6.805  10.168  0.0285 -0.0054  0.3271
  142MOL0     C19058   9.044   6.835  10.049  0.0036  0.3868 -1.0129
  142MOL0     O19059   9.176   6.831  10.108 -0.4216  0.0102 -0.2656
  142MOL0     C19060   9.282   6.882  10.035 -0.6227 -0.6243  0.1637
  142MOL0     C19061   9.288   6.951   9.918  0.6870  0.1236  0.8343
  142MOL0     C19062   9.405   6.999   9.856 -0.1761  0.2081 -0.1900
  142MOL0     C19063   9.523   6.992   9.934 -0.1362  0.7244 -0.0886
  142MOL0     C19064   9.648   7.027   9.881 -0.9226  0.1791 -0.0887
  142MOL0     O19065   9.761   6.990   9.952  0.2007 -0.1373  0.2862
  142MOL0     C19066   9.884   7.013   9.892  0.7475 -0.5089 -0.8415
  142MOL0     C19067   9.932   7.143   9.867 -0.6306  0.0267 -0.5211
  142MOL0     C19068  10.057   7.160   9.816 -0.4489  0.7437  1.1867
  142MOL0     C19069  10.135   7.048   9.790  0.3975 -0.7349  0.0265
  142MOL0     O19070  10.264   7.061   9.758 -0.2317 -0.6755 -0.1921
  142MOL0     C19071  10.351   7.176   9.735 -0.5401  1.0962 -0.0036
  142MOL0     C19072  10.484   7.110   9.688  0.3713 -0.2068 -0.6320
  142MOL0     C19073  10.596   7.204   9.666 -1.0444  0.0487  0.4481
  142MOL0     C19074  10.656   7.267   9.792 -0.0819 -0.9901  0.3815
  142MOL0     C19075  10.794   7.319   9.761  0.0605  0.6759 -0.4203
  142MOL0     C19076  10.858   7.375   9.889 -0.2077  1.1368 -0.1250
  142MOL0     C19077  10.997   7.443   9.867 -0.0517  0.2351 -0.1984
  142MOL0     C19078  11.030   7.532   9.986  0.0294  0.4388  0.4888
  142MOL0    Cl19079  11.070   7.434  10.126  0.0528  0.3542  0.4229
  142MOL0     C19080  10.088   6.919   9.811  0.2440  0.3606  1.3416
  142MOL0     C19081   9.960   6.901   9.865 -0.2602 -0.5689  0.6534
  142MOL0     O19082   9.645   7.092   9.779 -0.3398 -0.2255  0.1983
  142MOL0     C19083   9.516   6.910  10.056 -0.6721 -0.4076  0.3493
  142MOL0     C19084   9.407   6.862  10.097  0.5559 -0.1343  0.0676
  142MOL0     N19085   8.560   6.817   9.895 -0.2468  0.6325 -0.3790
  142MOL0     N19086   8.428   6.799   9.885 -0.4120 -0.0567 -0.5951
  142MOL0     C19087   7.220   6.710   9.789 -0.7884  0.2223 -0.2070
  142MOL0     C19088   7.100   6.730   9.728 -0.6766 -0.0787 -0.4905
  142MOL0     C19089   6.690   6.877   9.667  0.0792 -0.0318 -0.0635
  142MOL0     C19090   6.689   6.991   9.582  0.3748 -0.1184  0.1700
  142MOL0     C19091   6.577   7.020   9.506  0.5664  0.1742  0.3012
  142MOL0     C19092   6.461   6.940   9.518 -0.1876 -0.1928  1.0911
  142MOL0     O19093   6.369   6.979   9.431  0.9727  0.5584  0.7852
  142MOL0     C19094   6.232   6.948   9.456 -0.0223  0.2751  0.7989
  142MOL0     C19095   6.130   7.055   9.412  0.0409  0.5917  0.1854
  142MOL0     C19096   6.169   7.109   9.275  0.2114  0.0078 -0.1755
  142MOL0     C19097   6.055   7.167   9.204 -0.5606 -0.4299  0.1000
  142MOL0     C19098   5.954   7.064   9.162  0.0455 -0.4830 -0.5792
  142MOL0     C19099   5.878   6.979   9.117 -0.0945  0.7276  0.2102
  142MOL0     C19100   6.464   6.830   9.600 -0.1325  0.4804 -0.4147
  142MOL0     C19101   6.581   6.790   9.673  0.1301  0.0343 -0.3052
  142MOL0     C19102   6.580   6.666   9.761 -0.0575 -0.0582  0.5081
  142MOL0     H19103   7.033   7.041   9.804 -1.3895 -1.1364 -0.7614
  142MOL0     H19104   7.277   7.018   9.914  0.4734 -1.2992  1.1122
  142MOL0     H19105   7.510   6.974   9.938 -1.5803  1.2698 -0.0101
  142MOL0     H19106   7.415   6.920  10.081 -1.5957  2.6984 -1.5846
  142MOL0     H19107   7.650   6.776   9.966  2.8336  2.3581  0.9307
  142MOL0     H19108   7.577   6.728  10.117  3.5004 -2.2234 -0.4000
  142MOL0     H19109   7.660   6.963  10.204 -2.0480 -1.0706 -0.5109
  142MOL0     H19110   7.755   6.971  10.051  0.4591 -1.8456 -1.8900
  142MOL0     H19111   7.884   6.894  10.241 -0.1876  0.3040 -0.1372
  142MOL0     H19112   7.777   6.758  10.253  1.2575 -0.3902  0.5735
  142MOL0     H19113   7.863   6.687  10.025 -0.5958  0.7163 -0.5990
  142MOL0     H19114   7.946   6.843  10.006 -1.5282  0.7430 -1.6039
  142MOL0     H19115   8.064   6.766  10.238 -2.8423  1.9117 -0.8980
  142MOL0     H19116   8.026   6.610  10.180  1.0066 -0.0189  1.8731
  142MOL0     H19117   8.159   6.680   9.952  1.4224  2.6048 -1.1168
  142MOL0     H19118   8.243   6.668  10.110  0.0724 -0.0657 -0.0021
  142MOL0     H19119   8.177   6.908   9.965 -3.9723 -0.9153  1.2505
  142MOL0     H19120   8.224   6.893  10.139  1.3479 -1.7377  0.5070
  142MOL0     H19121   8.480   6.893  10.201  4.3093  0.3305 -0.3161
  142MOL0     H19122   8.796   6.927   9.993  0.0934  0.6080  1.1704
  142MOL0     H19123   8.719   6.953  10.151 -0.4738  0.1826  0.6654
  142MOL0     H19124   8.751   6.724  10.207 -0.9138  2.2873  1.4748
  142MOL0     H19125   8.812   6.680  10.057 -0.7453 -1.0587  1.2919
  142MOL0     H19126   9.001   6.729  10.224  1.0232 -0.2259 -0.8982
  142MOL0     H19127   8.937   6.895  10.229 -2.3221  1.1530 -1.6026
  142MOL0     H19128   9.023   6.931  10.001 -0.5926  1.0467  0.4889
  142MOL0     H19129   9.026   6.753   9.978 -3.9663 -1.9782  2.2325
  142MOL0     H19130   9.189   6.962   9.874  0.7620 -1.3311  0.2777
  142MOL0     H19131   9.400   7.049   9.760  2.3482 -0.0971 -0.5481
  142MOL0     H19132   9.875   7.234   9.884 -1.2114 -0.4895  0.4479
  142MOL0     H19133  10.107   7.253   9.790 -1.3030  0.5163 -1.6404
  142MOL0     H19134  10.313   7.234   9.650 -1.1178  0.4560 -0.1897
  142MOL0     H19135  10.357   7.235   9.827 -1.6871 -1.0172  1.5141
  142MOL0     H19136  10.509   7.049   9.774 -3.7060  1.1969  1.8513
  142MOL0     H19137  10.472   7.046   9.600  1.3026  1.9398 -2.4318
  142MOL0     H19138  10.670   7.151   9.606  0.3334  0.4944  1.7017
  142MOL0     H19139  10.566   7.283   9.597 -0.2065 -1.6577 -1.9856
  142MOL0     H19140  10.659   7.201   9.880  0.4162  0.3649  1.4241
  142MOL0     H19141  10.595   7.349   9.832  0.5768 -0.8407  1.1213
  142MOL0     H19142  10.798   7.399   9.687  2.3703  0.6725 -0.3678
  142MOL0     H19143  10.864   7.240   9.732  1.1953  0.9735  1.4222
  142MOL0     H19144  10.786   7.451   9.923 -2.1309  1.5603 -4.4611
  142MOL0     H19145  10.863   7.302   9.970 -0.3659  0.0647 -1.0509
  142MOL0     H19146  10.989   7.506   9.778  0.0109  0.7396  0.1485
  142MOL0     H19147  11.069   7.370   9.830 -3.3900 -2.1017 -2.6716
  142MOL0     H19148  11.122   7.587   9.962  0.5903 -0.5853  0.2713
  142MOL0     H19149  10.949   7.603  10.006 -1.6922 -0.8573 -1.4540
  142MOL0     H19150  10.137   6.824   9.793  0.1954  0.5305  0.2489
  142MOL0     H19151   9.929   6.798   9.878 -1.0686 -0.8357 -2.6222
  142MOL0     H19152   9.602   6.876  10.114  0.1502 -3.2065 -2.2868
  142MOL0     H19153   9.408   6.796  10.183 -1.2589 -0.9973 -0.5366
  142MOL0     H19154   7.265   6.612   9.780 -1.1609  0.2242 -4.3335
  142MOL0     H19155   7.061   6.641   9.678  2.1176 -1.9915  0.4926
  142MOL0     H19156   6.781   7.043   9.555 -0.2667  0.2447 -1.4265
  142MOL0     H19157   6.590   7.095   9.429 -0.2078  0.0508  0.0390
  142MOL0     H19158   6.208   6.913   9.557 -2.8985 -1.9935 -0.5006
  142MOL0     H19159   6.200   6.858   9.403 -0.7139  1.8010 -1.5098
  142MOL0     H19160   6.128   7.143   9.476 -1.9360  1.3868 -0.8790
  142MOL0     H19161   6.028   7.017   9.411 -0.0311  0.7386 -1.4105
  142MOL0     H19162   6.201   7.032   9.204 -5.4411 -1.4150 -1.6758
  142MOL0     H19163   6.252   7.179   9.285 -0.2440  0.4082  0.9668
  142MOL0     H19164   6.023   7.255   9.260  2.3360  0.6359  0.2625
  142MOL0     H19165   6.093   7.200   9.106  0.3763 -1.6163  0.0317
  142MOL0     H19166   5.806   6.904   9.093 -0.0637  1.1218 -1.2296
  142MOL0     H19167   6.375   6.768   9.603 -0.1094  0.4736  0.3117
  142MOL0     H19168   6.490   6.605   9.747  0.8499 -0.9988 -1.9791
  142MOL0     H19169   6.675   6.614   9.741 -0.0856  0.8413 -2.6180
  142MOL0     H19170   6.574   6.698   9.865  0.4068 -0.1301  0.5629
  143MOL0     O19171   8.272   6.733   2.674 -0.5443 -0.4284 -0.2991
  143MOL0     C19172   8.316   6.839   2.638  0.0708  0.4042 -1.3000
  143MOL0     O19173   8.429   6.849   2.562 -0.2632 -0.2441  0.4633
  143MOL0     C19174   8.478   6.741   2.497 -0.5652  0.5422 -0.9223
  143MOL0     C19175   8.398   6.648   2.424  0.6401  0.7143 -0.3213
  143MOL0     C19176   8.456   6.540   2.356  0.2543 -0.9581 -0.3987
  143MOL0     C19177   8.594   6.518   2.358 -0.3263  0.3258 -0.0788
  143MOL0     O19178   8.652   6.408   2.305  0.0516  0.6962  1.1636
  143MOL0     C19179   8.798   6.400   2.280 -0.1285 -0.2589  0.2036
  143MOL0     C19180   8.839   6.287   2.190 -0.0839  0.3386  0.3013
  143MOL0     C19181   8.988   6.253   2.193  0.4582 -0.3407  0.3171
  143MOL0     C19182   9.076   6.368   2.152  0.3835 -0.2932  0.2093
  143MOL0     C19183   9.229   6.341   2.172 -0.3941  0.1893 -0.4289
  143MOL0     C19184   9.327   6.450   2.122 -0.2389 -0.6132 -0.4672
  143MOL0     C19185   9.341   6.463   1.966  0.1790 -0.0336  0.2804
  143MOL0     C19186   9.453   6.552   1.909 -0.3207 -0.1676 -0.1403
  143MOL0     N19187   9.452   6.542   1.761 -0.2589  0.5617 -0.4135
  143MOL0     C19188   9.537   6.457   1.700 -0.2558 -0.0967 -0.3233
  143MOL0     C19189   9.500   6.465   1.567  0.6434 -0.0875  0.1780
  143MOL0     C19190   9.583   6.424   1.446 -0.0539  1.3074 -0.0006
  143MOL0     C19191   9.626   6.548   1.366  0.3931 -0.3767  0.0849
  143MOL0     C19192   9.684   6.512   1.231  0.4910 -0.6409 -0.5846
  143MOL0     C19193   9.818   6.451   1.245 -0.4064 -0.2276 -0.2056
  143MOL0     O19194   9.917   6.539   1.290  0.1006 -0.5652  0.6936
  143MOL0     C19195  10.035   6.480   1.311 -0.3774  0.0479  0.1792
  143MOL0     C19196  10.076   6.357   1.260 -0.4674  0.2918 -0.2286
  143MOL0     C19197  10.205   6.316   1.274 -1.1672  0.5449  0.9960
  143MOL0     C19198  10.305   6.405   1.317 -1.3108 -0.9981  0.6341
  143MOL0     C19199  10.447   6.363   1.316 -0.2110  0.1594  1.3646
  143MOL0     O19200  10.475   6.264   1.230 -0.7794 -0.3095 -0.0785
  143MOL0     C19201  10.602   6.212   1.230  0.2538  0.1175 -0.3110
  143MOL0     C19202  10.719   6.282   1.208 -0.1565 -0.0967  0.1193
  143MOL0     C19203  10.847   6.219   1.211  0.0814 -0.4901  0.0813
  143MOL0     C19204  10.864   6.079   1.218  0.3107  0.0802 -0.7550
  143MOL0     O19205  10.988   6.024   1.211  0.2403  0.4228  0.8129
  143MOL0     C19206  10.998   5.881   1.197 -0.3250 -0.4236  1.0757
  143MOL0     C19207  11.144   5.851   1.221  0.4078 -0.5792  0.9496
  143MOL0     C19208  11.225   5.816   1.094 -0.4438 -0.4629 -0.0097
  143MOL0     C19209  11.271   5.938   1.008  0.5252  0.0824  0.0034
  143MOL0     C19210  11.360   5.889   0.890  0.6089 -0.0063 -0.3351
  143MOL0     C19211  11.400   6.010   0.803 -0.4125  0.5747  0.4044
  143MOL0     C19212  11.526   5.977   0.729 -0.4808  0.4208  0.9980
  143MOL0     C19213  11.564   6.095   0.637  0.0560  0.7497 -0.6348
  143MOL0    Cl19214  11.670   6.225   0.718  0.3130 -0.1632 -0.5383
  143MOL0     C19215  10.750   6.003   1.241  0.2488  0.2057 -0.5198
  143MOL0     C19216  10.624   6.073   1.248  0.5457  0.4986  0.0345
  143MOL0     O19217  10.529   6.412   1.391 -0.7389  0.1776  0.7111
  143MOL0     C19218  10.268   6.523   1.386  0.3238  0.5042  0.3334
  143MOL0     C19219  10.131   6.561   1.376 -0.7313 -0.4588 -1.3933
  143MOL0     N19220   9.388   6.550   1.551  0.0156  0.3512 -0.1386
  143MOL0     N19221   9.356   6.587   1.672 -0.0371 -0.7917 -0.1317
  143MOL0     C19222   8.671   6.605   2.432  0.0259  0.2168 -0.4554
  143MOL0     C19223   8.617   6.712   2.497 -0.5472 -1.1204 -0.8070
  143MOL0     C19224   8.255   6.966   2.677 -0.6204 -0.0918 -0.3303
  143MOL0     C19225   8.329   7.085   2.637  0.0408 -0.2253  0.0381
  143MOL0     C19226   8.274   7.215   2.669  0.2111 -0.0105  0.4357
  143MOL0     C19227   8.148   7.218   2.738 -0.0906  0.4556 -0.3833
  143MOL0     O19228   8.093   7.338   2.779  0.4075  1.2876 -0.0838
  143MOL0     C19229   8.013   7.404   2.682 -0.5475 -0.9279  0.0719
  143MOL0     C19230   7.878   7.337   2.654 -0.0315  0.1857 -0.1488
  143MOL0     C19231   7.884   7.246   2.533 -0.1103 -1.2212  0.1548
  143MOL0     C19232   7.748   7.163   2.553  0.0644  0.6337 -0.2698
  143MOL0     C19233   7.725   7.091   2.429 -0.4180  0.4157  0.2394
  143MOL0     C19234   7.696   7.043   2.319  0.1395  0.1230  0.4167
  143MOL0     C19235   8.082   7.102   2.768 -0.2833  1.1402 -0.1773
  143MOL0     C19236   8.129   6.980   2.741 -0.2999  0.3796  0.5411
  143MOL0     C19237   8.043   6.866   2.775 -0.9778 -0.2622  0.1892
  143MOL0     H19238   8.293   6.668   2.401  0.5106  2.9492  1.7264
  143MOL0     H19239   8.395   6.470   2.299  0.8826 -1.1438 -0.8599
  143MOL0     H19240   8.836   6.488   2.228  1.7600 -2.0652 -1.6845
  143MOL0     H19241   8.849   6.380   2.375 -0.6563 -1.6899  0.2220
  143MOL0     H19242   8.802   6.304   2.088 -0.5584  1.6328  0.6787
  143MOL0     H19243   8.786   6.198   2.224  2.8564 -1.6468  0.0878
  143MOL0     H19244   9.001   6.168   2.125  0.4295 -1.3209  1.5095
  143MOL0     H19245   9.016   6.213   2.291  1.6884 -0.7729 -0.1834
  143MOL0     H19246   9.063   6.390   2.045 -1.3462 -0.4989  0.3483
  143MOL0     H19247   9.055   6.464   2.199 -0.1717  0.1597 -0.9292
  143MOL0     H19248   9.246   6.336   2.280  3.3586 -1.8993 -0.9561
  143MOL0     H19249   9.258   6.244   2.130 -0.9852 -1.6055  2.9077
  143MOL0     H19250   9.300   6.549   2.161  0.7814 -0.9438  1.2122
  143MOL0     H19251   9.428   6.415   2.144 -0.3528 -1.7708 -1.7057
  143MOL0     H19252   9.248   6.502   1.922  0.8408 -1.1662 -2.3230
  143MOL0     H19253   9.367   6.364   1.928  0.2725  0.5272 -1.1575
  143MOL0     H19254   9.441   6.657   1.936 -2.4396 -0.7785  1.5323
  143MOL0     H19255   9.546   6.509   1.947 -1.2818 -1.2354  1.0947
  143MOL0     H19256   9.630   6.418   1.740  0.1911  0.4987 -0.7674
  143MOL0     H19257   9.668   6.370   1.488 -0.9872  0.3804  0.7941
  143MOL0     H19258   9.522   6.347   1.397  0.0541  0.8966  0.5010
  143MOL0     H19259   9.548   6.621   1.344  0.0725 -1.6796 -4.1206
  143MOL0     H19260   9.698   6.607   1.423 -0.5987  0.1907  0.7744
  143MOL0     H19261   9.689   6.607   1.178  0.8846 -0.6799 -0.6196
  143MOL0     H19262   9.617   6.452   1.169 -0.9712 -0.8530  1.1248
  143MOL0     H19263   9.838   6.413   1.145  2.2165  3.7233 -1.4392
  143MOL0     H19264   9.816   6.369   1.317  1.6693 -0.8200 -0.7596
  143MOL0     H19265   9.996   6.291   1.226 -1.2060  0.5802  0.8788
  143MOL0     H19266  10.228   6.220   1.228  1.8184  1.6439  0.0053
  143MOL0     H19267  10.708   6.389   1.191  2.1825  0.1613 -0.1110
  143MOL0     H19268  10.943   6.267   1.221  0.7195 -1.9355  1.3044
  143MOL0     H19269  10.949   5.822   1.274  1.1085 -1.2956  1.3653
  143MOL0     H19270  10.959   5.862   1.097 -1.0639  1.7006  0.8955
  143MOL0     H19271  11.191   5.925   1.286  1.5013 -1.5605  1.3081
  143MOL0     H19272  11.136   5.754   1.271  0.2203 -1.0720 -0.0075
  143MOL0     H19273  11.319   5.770   1.126 -0.3435 -1.4478 -1.6013
  143MOL0     H19274  11.172   5.741   1.033  2.4759 -1.8717 -1.0102
  143MOL0     H19275  11.319   6.014   1.069  0.9827 -0.5431  0.4353
  143MOL0     H19276  11.180   5.984   0.969 -1.2533 -3.2525 -0.1993
  143MOL0     H19277  11.305   5.812   0.834  0.8746 -0.0428 -0.5485
  143MOL0     H19278  11.442   5.847   0.949 -2.3257 -3.4190  1.7022
  143MOL0     H19279  11.319   6.036   0.734 -2.2507 -1.7658  1.5390
  143MOL0     H19280  11.426   6.097   0.864 -1.7392  1.8431 -0.7334
  143MOL0     H19281  11.499   5.886   0.673  0.1144  0.2819  0.9328
  143MOL0     H19282  11.605   5.953   0.800  0.0308  2.1785  1.0711
  143MOL0     H19283  11.638   6.062   0.563 -0.7976  1.1511 -1.6918
  143MOL0     H19284  11.482   6.136   0.577 -2.4372 -1.3427  1.0946
  143MOL0     H19285  10.749   5.895   1.250 -0.0401  0.2896  0.5792
  143MOL0     H19286  10.537   6.018   1.280  0.6808  0.2217 -0.0717
  143MOL0     H19287  10.341   6.587   1.435 -2.4025  1.0161  4.2356
  143MOL0     H19288  10.096   6.659   1.406 -2.0828 -0.0400 -4.0619
  143MOL0     H19289   8.777   6.590   2.449 -0.2177 -0.8564  0.1731
  143MOL0     H19290   8.673   6.780   2.560  0.3372 -2.1036 -0.5095
  143MOL0     H19291   8.412   7.077   2.568 -0.7744  0.1905 -1.0235
  143MOL0     H19292   8.319   7.313   2.658  0.1653  0.1004  1.1650
  143MOL0     H19293   8.074   7.412   2.591 -3.6413  1.1353 -1.9964
  143MOL0     H19294   7.994   7.508   2.709 -0.8136 -0.7649 -0.7091
  143MOL0     H19295   7.810   7.421   2.635 -0.0892  0.3143  0.5960
  143MOL0     H19296   7.848   7.280   2.742  0.6725 -0.1258 -0.1083
  143MOL0     H19297   7.966   7.173   2.526  0.4615 -0.4251 -2.9758
  143MOL0     H19298   7.886   7.291   2.433 -0.1788 -1.2287  0.1502
  143MOL0     H19299   7.755   7.087   2.631 -2.5486  0.4023 -0.1573
  143MOL0     H19300   7.667   7.229   2.586  1.5529  2.7462 -0.6138
  143MOL0     H19301   7.674   7.019   2.216 -2.7795  3.0208  0.2039
  143MOL0     H19302   7.980   7.105   2.805 -0.7869 -0.6567 -1.3030
  143MOL0     H19303   8.097   6.801   2.845 -1.6289  0.2676  1.2163
  143MOL0     H19304   7.949   6.897   2.822 -2.1867 -1.4437 -1.3677
  143MOL0     H19305   8.011   6.807   2.690 -0.3404 -1.3511  0.6902
  144MOL0     O19306   6.412   1.287   5.001  0.0803  0.1434 -0.1927
  144MOL0     C19307   6.301   1.289   5.065 -0.8154 -0.5744 -0.1202
  144MOL0     O19308   6.292   1.292   5.197 -0.5220 -0.1209 -0.6618
  144MOL0     C19309   6.408   1.301   5.271  0.3968  0.5150 -0.1590
  144MOL0     C19310   6.518   1.388   5.255  0.2208  0.6586 -0.1216
  144MOL0     C19311   6.616   1.407   5.350 -0.5202  0.3296  0.6845
  144MOL0     C19312   6.616   1.329   5.464 -0.7949  0.6492  0.0334
  144MOL0     O19313   6.711   1.345   5.563 -0.2998  0.0552  0.1181
  144MOL0     C19314   6.847   1.360   5.529  0.0024 -0.2401  0.3595
  144MOL0     C19315   6.929   1.306   5.645  0.1972  0.7075 -0.4835
  144MOL0     C19316   7.074   1.325   5.632  0.5032  0.1047 -0.2647
  144MOL0     C19317   7.161   1.218   5.683  0.5628  0.8197 -0.0274
  144MOL0     C19318   7.314   1.263   5.673  0.6448  0.2823  0.5066
  144MOL0     C19319   7.356   1.397   5.728  0.5480  0.5737 -0.0405
  144MOL0     C19320   7.503   1.417   5.685 -0.2819  0.1482  0.5373
  144MOL0     C19321   7.613   1.311   5.727 -0.2749 -0.0957  0.2026
  144MOL0     N19322   7.743   1.364   5.685 -0.6028  0.5415 -0.4015
  144MOL0     C19323   7.846   1.417   5.756 -0.3000 -0.0425 -0.4104
  144MOL0     C19324   7.947   1.441   5.665 -0.1820  0.2006 -0.6365
  144MOL0     C19325   8.085   1.480   5.716  0.7727  0.3898 -0.4555
  144MOL0     C19326   8.167   1.368   5.788 -0.0273  0.2645 -0.6722
  144MOL0     C19327   8.289   1.424   5.857  0.4978  0.0562  0.0960
  144MOL0     C19328   8.358   1.324   5.946 -0.5335  0.2038  0.4370
  144MOL0     O19329   8.437   1.232   5.874 -0.5696 -0.8291 -0.0128
  144MOL0     C19330   8.568   1.255   5.884 -0.2945 -0.5174  0.4742
  144MOL0     C19331   8.656   1.168   5.959  0.7386  0.3723  0.5037
  144MOL0     C19332   8.795   1.176   5.936 -0.6657  0.3813  0.1055
  144MOL0     C19333   8.844   1.272   5.844 -0.8818 -0.5898 -0.1625
  144MOL0     C19334   8.990   1.282   5.822  0.0411  0.0365 -0.1867
  144MOL0     O19335   9.066   1.185   5.887  0.6499 -0.2862  0.5442
  144MOL0     C19336   9.203   1.177   5.876  0.1037  0.0679 -0.2271
  144MOL0     C19337   9.279   1.136   5.985  0.8698 -0.3727 -0.7947
  144MOL0     C19338   9.416   1.127   5.985 -0.4779  0.3586 -0.2628
  144MOL0     C19339   9.482   1.175   5.872  0.2460 -0.4110  0.3913
  144MOL0     O19340   9.620   1.190   5.874 -0.0056  0.4057 -0.7522
  144MOL0     C19341   9.689   1.059   5.850 -0.4194 -0.7111 -1.4136
  144MOL0     C19342   9.717   0.980   5.982  0.0757  0.5838 -0.3583
  144MOL0     C19343   9.809   0.857   5.941  1.0308  0.1165 -0.6500
  144MOL0     C19344   9.851   0.761   6.050  0.2785 -0.0130 -0.0143
  144MOL0     C19345   9.730   0.664   6.093 -0.8613 -0.0386  0.0511
  144MOL0     C19346   9.639   0.621   5.975 -0.3974  0.6518  0.0105
  144MOL0     C19347   9.554   0.499   6.012 -0.0396 -0.1194 -0.0474
  144MOL0     C19348   9.486   0.448   5.890 -0.5471  0.3427 -0.1178
  144MOL0    Cl19349   9.404   0.302   5.939  0.1358  0.9471 -0.2405
  144MOL0     C19350   9.405   1.214   5.759 -0.6126  0.0379  0.2092
  144MOL0     C19351   9.269   1.202   5.753  0.1731  0.7314  0.7033
  144MOL0     O19352   9.040   1.365   5.746  0.5078 -0.6873  0.3751
  144MOL0     C19353   8.770   1.383   5.810 -0.5662  0.1219 -0.3031
  144MOL0     C19354   8.630   1.358   5.807 -0.9034 -0.2876 -0.8484
  144MOL0     N19355   7.904   1.396   5.544 -0.5350  0.0933 -0.3381
  144MOL0     N19356   7.784   1.361   5.555 -0.4432 -0.9765 -0.4289
  144MOL0     C19357   6.515   1.235   5.486 -1.1652  0.3847  0.2682
  144MOL0     C19358   6.420   1.220   5.388  0.6359 -0.1002 -0.7327
  144MOL0     C19359   6.182   1.300   4.987  0.7434  0.5545 -0.2616
  144MOL0     C19360   6.194   1.344   4.859 -0.0254 -0.0511  0.8471
  144MOL0     C19361   6.078   1.345   4.774  1.2308  0.3017 -0.3314
  144MOL0     C19362   5.951   1.320   4.825 -0.1097  0.3152  0.1461
  144MOL0     O19363   5.838   1.303   4.747 -0.1991  0.2565 -0.0334
  144MOL0     C19364   5.826   1.385   4.628 -0.8732  0.8560  0.5298
  144MOL0     C19365   5.683   1.423   4.590 -0.3723 -0.8728 -0.6749
  144MOL0     C19366   5.618   1.519   4.690  0.6851  0.4628  0.3425
  144MOL0     C19367   5.485   1.582   4.636  0.2006 -0.7551 -0.8723
  144MOL0     C19368   5.513   1.671   4.522  0.7677 -0.1763 -0.0592
  144MOL0     C19369   5.534   1.747   4.433 -0.0009 -0.3644 -0.4113
  144MOL0     C19370   5.941   1.289   4.957  0.2741 -0.6089 -0.4060
  144MOL0     C19371   6.051   1.282   5.041  0.5095 -0.1213 -0.0245
  144MOL0     C19372   6.007   1.235   5.178  0.0506  0.1198 -0.2672
  144MOL0     H19373   6.527   1.441   5.161 -0.4683  1.0153  0.0010
  144MOL0     H19374   6.699   1.472   5.329  0.8127 -1.3310  0.6194
  144MOL0     H19375   6.872   1.307   5.437  0.5344  0.2652  0.2048
  144MOL0     H19376   6.849   1.469   5.517 -3.5954 -0.1971 -1.1019
  144MOL0     H19377   6.914   1.200   5.668  0.9295  0.4904 -0.9892
  144MOL0     H19378   6.901   1.371   5.728 -1.0058  1.8852 -1.7678
  144MOL0     H19379   7.088   1.411   5.698  0.9293 -0.1697  0.0106
  144MOL0     H19380   7.105   1.352   5.530  1.1760 -0.7286 -0.2919
  144MOL0     H19381   7.142   1.201   5.789 -2.0872 -3.3771 -0.9280
  144MOL0     H19382   7.143   1.128   5.624 -2.4943  1.3375 -0.0293
  144MOL0     H19383   7.384   1.189   5.713  0.9119  0.7873  1.0002
  144MOL0     H19384   7.331   1.259   5.565 -1.4615 -1.5350  0.1778
  144MOL0     H19385   7.290   1.471   5.683 -0.0209 -0.3877 -0.8085
  144MOL0     H19386   7.352   1.397   5.838  1.1358  0.8574 -0.0123
  144MOL0     H19387   7.541   1.513   5.723 -0.4432 -0.3560  2.0258
  144MOL0     H19388   7.496   1.423   5.576  0.9630  1.4995  0.5009
  144MOL0     H19389   7.615   1.305   5.837 -0.3700  1.5275  0.3286
  144MOL0     H19390   7.591   1.215   5.680  4.7133 -0.5180 -1.9066
  144MOL0     H19391   7.851   1.423   5.864  1.5682  3.1804 -0.5394
  144MOL0     H19392   8.141   1.503   5.624 -1.7243 -3.0341 -3.1092
  144MOL0     H19393   8.064   1.572   5.772 -2.8371  0.3395 -1.4778
  144MOL0     H19394   8.113   1.311   5.864  1.4138 -0.9700 -0.5429
  144MOL0     H19395   8.188   1.291   5.713 -1.0126  0.5280 -1.2480
  144MOL0     H19396   8.258   1.504   5.923 -0.7009 -1.3308  1.2707
  144MOL0     H19397   8.355   1.470   5.782 -1.3897  1.6907 -0.6612
  144MOL0     H19398   8.287   1.266   6.005  3.3802 -1.1675  4.3571
  144MOL0     H19399   8.424   1.384   6.010 -0.4674  1.5955 -0.8670
  144MOL0     H19400   8.604   1.098   6.024  1.2441  0.8433  1.4508
  144MOL0     H19401   8.863   1.104   5.979  0.0090  0.4767 -0.7818
  144MOL0     H19402   9.220   1.096   6.067  0.5860 -2.9417 -2.1468
  144MOL0     H19403   9.460   1.108   6.082  0.2124  2.0442 -0.2093
  144MOL0     H19404   9.629   1.000   5.779 -2.3902  0.9606 -1.2084
  144MOL0     H19405   9.777   1.091   5.794 -0.1903  0.8550 -0.2071
  144MOL0     H19406   9.772   1.036   6.058 -0.9673 -0.6902  1.4025
  144MOL0     H19407   9.628   0.950   6.037 -0.4431  0.9444 -0.9848
  144MOL0     H19408   9.760   0.801   5.861  2.4438  0.6452 -1.9488
  144MOL0     H19409   9.900   0.895   5.893  0.9915  2.3513  0.8745
  144MOL0     H19410   9.891   0.810   6.139  0.5485 -1.2394  0.5496
  144MOL0     H19411   9.932   0.701   6.007 -0.0820  0.6643 -1.7406
  144MOL0     H19412   9.664   0.715   6.164  1.4051 -0.3784  2.5370
  144MOL0     H19413   9.767   0.573   6.142 -1.6155 -0.1969  0.3481
  144MOL0     H19414   9.566   0.691   5.935 -2.5831 -0.0730  2.4653
  144MOL0     H19415   9.695   0.596   5.884 -2.0733 -1.8129 -0.4339
  144MOL0     H19416   9.475   0.524   6.083  0.1937  0.6158 -0.0419
  144MOL0     H19417   9.615   0.420   6.055 -1.1018 -1.5964 -1.1503
  144MOL0     H19418   9.423   0.528   5.850 -1.4326  1.1169  2.6017
  144MOL0     H19419   9.557   0.423   5.811 -1.9151 -0.8755 -1.0189
  144MOL0     H19420   9.446   1.250   5.665 -2.8650  2.8586  0.1539
  144MOL0     H19421   9.216   1.212   5.659  0.7446  0.9405  0.3988
  144MOL0     H19422   8.816   1.470   5.765 -1.3552  2.5115  3.0367
  144MOL0     H19423   8.566   1.423   5.749 -0.6145 -2.0115 -3.2720
  144MOL0     H19424   6.521   1.174   5.576 -1.0228 -0.2008 -0.1275
  144MOL0     H19425   6.354   1.134   5.394 -0.1193  0.4158 -1.3310
  144MOL0     H19426   6.289   1.371   4.814 -1.9222  3.5946 -1.4188
  144MOL0     H19427   6.093   1.368   4.669  2.7730  1.5463  0.1246
  144MOL0     H19428   5.875   1.324   4.551 -0.7529  0.5637  0.8348
  144MOL0     H19429   5.880   1.480   4.634 -0.1183  0.4270  0.7786
  144MOL0     H19430   5.622   1.333   4.584 -1.8342  0.0025  0.3660
  144MOL0     H19431   5.693   1.472   4.492 -1.8050 -0.2002 -0.5120
  144MOL0     H19432   5.686   1.599   4.718  0.5210  0.6900  0.1019
  144MOL0     H19433   5.595   1.470   4.785 -0.8456  0.7637  0.1535
  144MOL0     H19434   5.418   1.508   4.593 -1.3647  2.0293 -3.6247
  144MOL0     H19435   5.443   1.635   4.722  0.7532 -1.5585 -0.1013
  144MOL0     H19436   5.562   1.834   4.378  1.0971 -0.3494  0.1517
  144MOL0     H19437   5.837   1.289   4.987  0.4513  2.0268  0.4224
  144MOL0     H19438   6.024   1.311   5.255  2.1827  1.2158 -1.7139
  144MOL0     H19439   5.907   1.192   5.184  0.1840 -0.1847 -0.2300
  144MOL0     H19440   6.068   1.149   5.206 -0.6598 -1.0713 -2.1739
  145MOL0     O19441   8.602  10.266   7.664 -0.2109  0.1853  0.7549
  145MOL0     C19442   8.626  10.190   7.571  0.3392 -0.4990 -0.9240
  145MOL0     O19443   8.753  10.144   7.552 -0.4396  0.6162  0.0239
  145MOL0     C19444   8.861  10.215   7.615  0.4082  0.2658  0.8840
  145MOL0     C19445   8.973  10.141   7.652  0.3282  0.4298 -0.3930
  145MOL0     C19446   9.086  10.193   7.711 -0.4029  0.3369  0.2827
  145MOL0     C19447   9.100  10.335   7.721 -0.5829  0.0741  0.1264
  145MOL0     O19448   9.200  10.403   7.777  0.2681 -0.5841  0.9798
  145MOL0     C19449   9.320  10.336   7.811 -0.6107 -0.3476  1.1580
  145MOL0     C19450   9.424  10.447   7.838 -0.8192 -0.0271  0.1649
  145MOL0     C19451   9.546  10.377   7.885 -0.3695 -0.2496  0.0417
  145MOL0     C19452   9.663  10.465   7.933  0.0516  0.1021 -0.0669
  145MOL0     C19453   9.616  10.553   8.045  0.1297 -0.8217 -0.6316
  145MOL0     C19454   9.730  10.639   8.099  0.4883  1.2926 -0.4248
  145MOL0     C19455   9.792  10.752   8.016 -1.0955 -0.5734  0.6325
  145MOL0     C19456   9.882  10.839   8.105 -0.0310  0.6335  0.0644
  145MOL0     N19457  10.024  10.812   8.106  0.8644 -0.3927  0.3899
  145MOL0     C19458  10.120  10.915   8.088  0.1365  0.3646  0.4844
  145MOL0     C19459  10.229  10.842   8.074  0.2475 -0.0572 -0.2009
  145MOL0     C19460  10.363  10.901   8.041  0.9166 -0.5310 -0.2221
  145MOL0     C19461  10.465  10.808   8.080  0.3521  0.8354  1.0217
  145MOL0     C19462  10.601  10.877   8.070  0.7189 -0.1145 -0.2125
  145MOL0     C19463  10.712  10.776   8.088  0.2963  0.1761 -0.2932
  145MOL0     O19464  10.837  10.846   8.081  0.6624  0.4713  0.8936
  145MOL0     C19465  10.946  10.756   8.080  0.5242 -0.4663 -0.6477
  145MOL0     C19466  11.063  10.827   8.045  0.3212  0.3704  0.0268
  145MOL0     C19467  11.187  10.765   8.022 -0.0671 -0.6288 -0.0216
  145MOL0     C19468  11.193  10.623   8.026  0.4434  0.1449 -0.6497
  145MOL0     C19469  11.327  10.555   8.003 -0.0965  0.1137  1.1068
  145MOL0     O19470  11.425  10.626   7.930 -0.1052  0.0600 -0.1958
  145MOL0     C19471  11.559  10.587   7.945 -0.1138 -0.0717  1.2602
  145MOL0     C19472  11.644  10.582   7.839 -1.3782  0.2478 -0.5654
  145MOL0     C19473  11.780  10.541   7.858 -0.2438 -0.0839 -0.1286
  145MOL0     C19474  11.830  10.503   7.983  0.3017  0.9061 -0.7134
  145MOL0     O19475  11.951  10.472   8.019 -0.3284 -0.3032 -0.2788
  145MOL0     C19476  12.020  10.379   7.936 -0.1690  0.4563  0.0673
  145MOL0     C19477  12.137  10.315   8.013  0.8352  0.7119 -0.0106
  145MOL0     C19478  12.224  10.230   7.922 -0.2145 -0.3452 -0.6598
  145MOL0     C19479  12.325  10.153   8.002  0.2957  0.3643  0.3993
  145MOL0     C19480  12.416  10.074   7.906 -0.5632 -0.4351  0.5322
  145MOL0     C19481  12.508   9.981   7.981  0.2060  0.4879  0.3527
  145MOL0     C19482  12.605   9.894   7.895  0.4135  0.3714  0.2246
  145MOL0     C19483  12.696   9.802   7.981  0.7431 -0.1422  0.3107
  145MOL0    Cl19484  12.821   9.731   7.873  0.0677 -0.2043 -0.4422
  145MOL0     C19485  11.746  10.513   8.089  0.3771  0.1349 -0.2309
  145MOL0     C19486  11.611  10.554   8.069  0.4712  0.0793  0.3381
  145MOL0     O19487  11.339  10.454   8.066  0.4749  0.0897  0.0662
  145MOL0     C19488  11.077  10.549   8.061  0.1958  0.3657  0.7468
  145MOL0     C19489  10.951  10.615   8.079 -0.9057  0.1984  0.2834
  145MOL0     N19490  10.205  10.705   8.096 -0.0338 -0.3639  0.2172
  145MOL0     N19491  10.079  10.694   8.111 -0.5103 -0.3695  0.5004
  145MOL0     C19492   8.992  10.421   7.680  0.3105  0.0290  0.6113
  145MOL0     C19493   8.877  10.357   7.624  0.3441  0.5269  0.1066
  145MOL0     C19494   8.510  10.123   7.511  0.7129 -0.0858  0.0950
  145MOL0     C19495   8.543  10.008   7.436 -0.1276  0.5562  0.1239
  145MOL0     C19496   8.444   9.926   7.380  0.1528 -0.0633 -0.0481
  145MOL0     C19497   8.310   9.965   7.394 -0.2897  0.2169 -0.7231
  145MOL0     O19498   8.220   9.883   7.334 -0.0802  0.1399 -0.0719
  145MOL0     C19499   8.083   9.920   7.307 -0.5352 -0.0339  0.1145
  145MOL0     C19500   8.030   9.841   7.190 -0.1564 -0.0339  0.8573
  145MOL0     C19501   8.119   9.841   7.070 -0.3158  0.0403  0.0106
  145MOL0     C19502   8.038   9.793   6.943  0.5682 -0.0088  0.6737
  145MOL0     C19503   8.138   9.798   6.835 -0.4535 -0.6683  0.0605
  145MOL0     C19504   8.218   9.802   6.744  0.1680 -0.1852  0.3640
  145MOL0     C19505   8.285  10.081   7.467  0.0428  0.7762 -0.4007
  145MOL0     C19506   8.376  10.159   7.523 -0.6591  0.2510  0.3471
  145MOL0     C19507   8.330  10.288   7.572  0.5015 -0.5018 -0.7392
  145MOL0     H19508   8.969  10.032   7.647  0.5019  0.4413 -0.8047
  145MOL0     H19509   9.165  10.123   7.736 -1.3061 -1.3765 -1.3386
  145MOL0     H19510   9.306  10.287   7.908  1.5703 -2.6061  0.4225
  145MOL0     H19511   9.360  10.268   7.736  0.8624 -0.2411  1.8118
  145MOL0     H19512   9.375  10.511   7.912 -0.2125  1.1005 -0.3747
  145MOL0     H19513   9.435  10.503   7.745 -1.7272  0.3604  0.2833
  145MOL0     H19514   9.586  10.304   7.815  0.3671 -4.0795  4.0246
  145MOL0     H19515   9.511  10.314   7.968 -1.6508 -1.5260 -1.4143
  145MOL0     H19516   9.748  10.402   7.961  1.4919  2.5525  1.4341
  145MOL0     H19517   9.717  10.517   7.853 -0.0871 -0.8205 -0.7746
  145MOL0     H19518   9.547  10.630   8.009 -0.1028  0.5889  2.4773
  145MOL0     H19519   9.557  10.495   8.117 -0.8251  0.9552  0.0723
  145MOL0     H19520   9.694  10.672   8.196 -1.6320  1.7099 -1.3063
  145MOL0     H19521   9.802  10.569   8.141  0.5592  1.1656 -0.7477
  145MOL0     H19522   9.703  10.811   7.993  0.0869  2.4422  3.1564
  145MOL0     H19523   9.836  10.714   7.923 -0.8357  0.5170  0.2917
  145MOL0     H19524   9.858  10.942   8.074 -0.0972 -0.0563 -2.4192
  145MOL0     H19525   9.858  10.826   8.211 -1.9794  0.4137 -0.3598
  145MOL0     H19526  10.127  11.023   8.095  2.6775  0.2938 -0.2620
  145MOL0     H19527  10.382  10.926   7.936  1.2714  1.3795  0.2572
  145MOL0     H19528  10.365  10.992   8.103 -1.6872  0.3157 -1.2364
  145MOL0     H19529  10.444  10.752   8.172 -0.7427 -0.6171 -0.0800
  145MOL0     H19530  10.467  10.735   7.999  0.5482  0.6669  1.1781
  145MOL0     H19531  10.592  10.951   8.150  0.1018 -1.2305  0.7810
  145MOL0     H19532  10.610  10.936   7.979 -0.7707 -0.0486 -0.3467
  145MOL0     H19533  10.717  10.704   8.006  1.9498 -0.0579 -0.0221
  145MOL0     H19534  10.695  10.722   8.182 -1.0791 -2.6991 -2.0627
  145MOL0     H19535  11.057  10.934   8.026 -1.3938 -0.1780 -3.1966
  145MOL0     H19536  11.266  10.837   8.007 -0.6103  0.0947  0.5099
  145MOL0     H19537  11.614  10.595   7.736  1.4293 -0.2515 -1.5267
  145MOL0     H19538  11.840  10.520   7.770 -2.1655 -1.7953 -1.1293
  145MOL0     H19539  11.952  10.304   7.895  2.6187 -1.0144 -2.2026
  145MOL0     H19540  12.051  10.435   7.847  2.0649 -0.3831  0.2547
  145MOL0     H19541  12.212  10.383   8.053  1.6687 -1.2760  2.0493
  145MOL0     H19542  12.095  10.255   8.095 -0.0345  0.3869 -0.6780
  145MOL0     H19543  12.167  10.160   7.859  0.3605  0.9798 -2.7467
  145MOL0     H19544  12.268  10.301   7.852 -0.8868 -1.3142 -2.1344
  145MOL0     H19545  12.269  10.083   8.065 -1.2402  1.8507  0.7304
  145MOL0     H19546  12.389  10.213   8.068  2.0101  0.7315 -1.4934
  145MOL0     H19547  12.472  10.147   7.847  0.9654 -2.1997 -0.2582
  145MOL0     H19548  12.352  10.021   7.835  0.1372  1.9016 -1.9975
  145MOL0     H19549  12.574  10.040   8.046 -0.6491  0.0072  1.7040
  145MOL0     H19550  12.437   9.922   8.040 -0.4075  1.3972  0.5517
  145MOL0     H19551  12.658   9.972   7.839  0.1128  1.0088  0.8117
  145MOL0     H19552  12.543   9.845   7.819 -1.2331 -0.0046  1.7340
  145MOL0     H19553  12.736   9.858   8.066  1.4324 -0.0644 -0.0598
  145MOL0     H19554  12.625   9.725   8.011  0.5484 -1.2541 -2.6638
  145MOL0     H19555  11.776  10.477   8.187 -4.6483  2.8174  2.7070
  145MOL0     H19556  11.545  10.543   8.155 -1.1215  0.3591 -0.8083
  145MOL0     H19557  11.065  10.442   8.056 -2.2363  0.6312 -1.8553
  145MOL0     H19558  10.858  10.560   8.086 -0.6607 -0.1052  1.3363
  145MOL0     H19559   8.986  10.529   7.675  0.3800  0.0043 -0.2027
  145MOL0     H19560   8.802  10.415   7.571  1.7525 -1.4078 -4.5002
  145MOL0     H19561   8.646   9.993   7.406 -0.2555  0.0882 -0.0892
  145MOL0     H19562   8.457   9.838   7.318  3.3016 -0.9723  1.6462
  145MOL0     H19563   8.085  10.027   7.284  0.1436 -0.1727 -0.5112
  145MOL0     H19564   8.018   9.897   7.392 -3.0536 -1.1730 -1.9783
  145MOL0     H19565   7.932   9.889   7.176  0.2708  0.8950  1.0065
  145MOL0     H19566   8.015   9.736   7.217  0.3345 -0.5875 -0.9417
  145MOL0     H19567   8.208   9.780   7.089 -0.4578 -0.4980 -0.9630
  145MOL0     H19568   8.157   9.939   7.040 -1.9038  0.8085  0.4360
  145MOL0     H19569   8.006   9.689   6.945  0.6038 -0.2424 -3.4648
  145MOL0     H19570   7.950   9.854   6.918 -1.4209 -2.8093  0.4309
  145MOL0     H19571   8.280   9.800   6.656 -2.0456  0.9623 -1.3133
  145MOL0     H19572   8.180  10.104   7.480 -0.7498 -2.3479 -0.4428
  145MOL0     H19573   8.226  10.310   7.546  0.0096  0.1317  1.5348
  145MOL0     H19574   8.331  10.265   7.679  0.4929 -1.4844 -0.9358
  145MOL0     H19575   8.402  10.369   7.563  0.5991 -0.7791 -2.8309
  146MOL0     O19576   0.372  10.168   3.916 -0.5143  0.8991  0.7401
  146MOL0     C19577   0.356  10.108   3.807 -0.8067 -0.7947  0.6455
  146MOL0     O19578   0.444  10.029   3.749  0.3864 -0.7012 -0.8847
  146MOL0     C19579   0.546   9.990   3.822 -1.1477 -0.3103  0.0011
  146MOL0     C19580   0.671  10.049   3.802 -0.0808 -0.0447 -0.3689
  146MOL0     C19581   0.785  10.005   3.873 -0.1916 -0.6558  0.0325
  146MOL0     C19582   0.784   9.887   3.937  0.0722  0.4490  0.4589
  146MOL0     O19583   0.890   9.825   4.007  0.5590 -0.7459  0.3547
  146MOL0     C19584   0.991   9.918   4.058 -0.1269 -0.8767  0.2704
  146MOL0     C19585   1.069   9.852   4.181  0.0173  0.2612 -0.5744
  146MOL0     C19586   1.159   9.737   4.124  0.1193 -0.1071  0.1483
  146MOL0     C19587   1.301   9.724   4.189 -0.1298  0.9324 -0.0008
  146MOL0     C19588   1.381   9.619   4.114 -0.4875 -0.3655 -0.2224
  146MOL0     C19589   1.304   9.487   4.103  0.2666 -0.1243  0.1570
  146MOL0     C19590   1.385   9.367   4.062 -0.5605  0.2027  1.1610
  146MOL0     C19591   1.413   9.361   3.912 -0.4735  1.6335  0.8769
  146MOL0     N19592   1.494   9.478   3.856  0.2806 -0.4240  0.0165
  146MOL0     C19593   1.627   9.502   3.886 -0.1303 -0.7899  0.2325
  146MOL0     C19594   1.655   9.611   3.810  0.2059  1.0800  0.1497
  146MOL0     C19595   1.786   9.681   3.815 -0.0739  0.5478 -0.2624
  146MOL0     C19596   1.901   9.612   3.751 -0.1309  0.9310 -0.1207
  146MOL0     C19597   1.890   9.583   3.605  0.3417 -0.2048 -0.0828
  146MOL0     C19598   2.023   9.519   3.561 -0.9282  0.5220  0.8589
  146MOL0     O19599   2.059   9.399   3.645  0.3302  0.7357 -0.4121
  146MOL0     C19600   2.191   9.372   3.651 -0.0828 -0.4682  0.2275
  146MOL0     C19601   2.230   9.284   3.749  0.1822  0.6446 -0.3716
  146MOL0     C19602   2.358   9.226   3.752 -0.1617 -0.1990  0.1864
  146MOL0     C19603   2.461   9.271   3.661 -0.4927 -1.2870 -0.0220
  146MOL0     C19604   2.597   9.235   3.654 -0.1784  0.3009  0.0081
  146MOL0     O19605   2.656   9.252   3.526 -0.1169  0.0200 -0.0959
  146MOL0     C19606   2.786   9.196   3.517 -0.2312 -0.0351  0.5332
  146MOL0     C19607   2.798   9.074   3.454  0.4021 -0.2182 -0.3046
  146MOL0     C19608   2.930   9.011   3.452 -0.2071  0.1944  0.2694
  146MOL0     C19609   3.041   9.077   3.508  1.1072  0.3467  0.1527
  146MOL0     O19610   3.161   9.015   3.519  0.0982  0.2202 -0.0820
  146MOL0     C19611   3.198   8.906   3.435 -0.1797  1.2406 -0.2114
  146MOL0     C19612   3.351   8.889   3.436  0.3195  0.7968 -0.0035
  146MOL0     C19613   3.393   8.790   3.328 -1.2289 -0.4327 -1.2581
  146MOL0     C19614   3.546   8.780   3.328  0.4754 -1.4432 -0.2363
  146MOL0     C19615   3.605   8.910   3.279 -0.5733  0.9145 -1.1685
  146MOL0     C19616   3.754   8.904   3.292 -0.4405 -0.4528  0.7909
  146MOL0     C19617   3.838   9.023   3.235 -0.0177 -0.4291  0.1187
  146MOL0     C19618   3.983   9.027   3.279 -0.3027 -0.2308  0.0242
  146MOL0    Cl19619   4.011   9.045   3.455 -0.2726 -0.2151 -0.1016
  146MOL0     C19620   3.025   9.209   3.561  0.1186  0.0476  0.3162
  146MOL0     C19621   2.897   9.266   3.557 -1.2086  0.4271  0.5703
  146MOL0     O19622   2.646   9.180   3.757  0.1018  0.2055  0.3762
  146MOL0     C19623   2.416   9.360   3.561  0.0235 -0.2756 -0.2132
  146MOL0     C19624   2.284   9.405   3.554 -0.2624 -0.5541  0.6973
  146MOL0     N19625   1.543   9.650   3.737 -1.4236 -0.0198  0.7742
  146MOL0     N19626   1.446   9.559   3.751 -0.5158  0.4613 -0.7355
  146MOL0     C19627   0.661   9.824   3.955  0.1922  0.7448 -0.8645
  146MOL0     C19628   0.541   9.873   3.903 -0.1802  0.5820 -0.9897
  146MOL0     C19629   0.249  10.148   3.719  1.2128  0.1117 -1.1269
  146MOL0     C19630   0.209  10.281   3.714 -0.0595 -0.3949  0.4439
  146MOL0     C19631   0.090  10.324   3.643  0.2131 -0.2051 -0.1939
  146MOL0     C19632   0.013  10.230   3.572 -0.2100  0.1046 -0.2161
  146MOL0     O19633  -0.095  10.250   3.488 -0.4546 -0.0684  0.1542
  146MOL0     C19634  -0.144  10.376   3.461  0.6627  0.8354  0.3093
  146MOL0     C19635  -0.238  10.432   3.572  0.3444 -0.3163  0.3881
  146MOL0     C19636  -0.376  10.361   3.578 -0.2139  0.4386 -0.0459
  146MOL0     C19637  -0.478  10.421   3.673 -0.7439 -1.6126 -0.5597
  146MOL0     C19638  -0.437  10.442   3.811  0.6948 -0.8397  0.2603
  146MOL0     C19639  -0.397  10.454   3.923 -0.8086 -0.1011  0.8874
  146MOL0     C19640   0.053  10.104   3.586  0.2824  0.4111  0.5412
  146MOL0     C19641   0.171  10.059   3.647 -0.1211 -0.0461 -0.4262
  146MOL0     C19642   0.197   9.914   3.648 -0.4285 -1.5078 -0.1304
  146MOL0     H19643   0.667  10.141   3.743  1.7025  0.1264 -0.2675
  146MOL0     H19644   0.880  10.053   3.854  0.6174 -2.5228 -0.9504
  146MOL0     H19645   1.050   9.931   3.967 -2.1747 -1.6243 -1.2597
  146MOL0     H19646   0.958  10.021   4.079  0.6380 -0.7454  0.8418
  146MOL0     H19647   1.002   9.822   4.262 -1.1537  2.3492 -0.6961
  146MOL0     H19648   1.130   9.935   4.219 -1.4140  1.4191 -0.7053
  146MOL0     H19649   1.177   9.759   4.019  1.1147  1.6219  0.6438
  146MOL0     H19650   1.100   9.645   4.132  1.5993 -1.0196  1.0199
  146MOL0     H19651   1.354   9.819   4.198  0.3125  0.5782  1.4609
  146MOL0     H19652   1.292   9.686   4.292  1.6297 -0.1014 -0.1646
  146MOL0     H19653   1.407   9.669   4.020  1.3311  0.9550  0.9229
  146MOL0     H19654   1.473   9.593   4.167 -2.9936 -1.3413  4.1376
  146MOL0     H19655   1.257   9.482   4.202 -0.2116 -2.2329 -0.1239
  146MOL0     H19656   1.216   9.485   4.038  2.5089 -1.4923 -3.0709
  146MOL0     H19657   1.335   9.272   4.083  0.0989 -0.9731 -2.0319
  146MOL0     H19658   1.483   9.371   4.109  1.0619 -0.2837 -1.9018
  146MOL0     H19659   1.456   9.261   3.905 -0.2106  1.6161  2.4108
  146MOL0     H19660   1.323   9.339   3.854 -0.1294  2.1856  0.1071
  146MOL0     H19661   1.699   9.459   3.954 -0.9440 -1.3512  0.7571
  146MOL0     H19662   1.774   9.767   3.749 -0.6085  0.1497 -0.6855
  146MOL0     H19663   1.794   9.710   3.921 -2.4088 -3.3026  1.1706
  146MOL0     H19664   1.983   9.684   3.764 -0.8873  1.5346  1.6579
  146MOL0     H19665   1.937   9.527   3.811  2.2137  0.6912 -1.7402
  146MOL0     H19666   1.873   9.679   3.556 -0.3957 -0.8826 -1.1811
  146MOL0     H19667   1.812   9.509   3.589  1.7860 -1.3473 -2.3626
  146MOL0     H19668   2.094   9.602   3.572 -1.5477  1.1466  0.2454
  146MOL0     H19669   2.021   9.492   3.455 -1.5786 -0.0592  1.0128
  146MOL0     H19670   2.162   9.250   3.827 -0.6038 -0.7841 -1.6210
  146MOL0     H19671   2.372   9.154   3.832 -2.3661  0.6561  1.4429
  146MOL0     H19672   2.718   9.020   3.405  2.6081 -1.0164 -3.3101
  146MOL0     H19673   2.935   8.910   3.414 -3.8197  0.5302 -1.5518
  146MOL0     H19674   3.154   8.817   3.479  2.7334  2.0683  5.1380
  146MOL0     H19675   3.154   8.923   3.336 -2.3340  1.0770  0.6472
  146MOL0     H19676   3.392   8.988   3.416 -0.4591  0.9215 -1.0771
  146MOL0     H19677   3.393   8.850   3.529 -1.5470  1.9179  1.3802
  146MOL0     H19678   3.346   8.693   3.340  0.1129 -1.0750 -0.9658
  146MOL0     H19679   3.356   8.829   3.232 -1.5640  0.7729 -0.6547
  146MOL0     H19680   3.569   8.698   3.259 -0.0498 -2.3446  0.6257
  146MOL0     H19681   3.580   8.753   3.429 -4.2547 -2.7360  1.2859
  146MOL0     H19682   3.582   8.999   3.338  0.1307  0.7606 -0.6543
  146MOL0     H19683   3.564   8.921   3.178 -2.5660  0.6111 -0.4378
  146MOL0     H19684   3.774   8.885   3.398 -1.1327 -6.6005  0.1488
  146MOL0     H19685   3.780   8.821   3.226 -0.3444  1.6936 -2.0763
  146MOL0     H19686   3.788   9.117   3.260  1.7746  0.2493  1.4243
  146MOL0     H19687   3.827   9.005   3.127  0.5045 -2.5854  0.3825
  146MOL0     H19688   4.022   8.929   3.251  0.0997  0.3366 -1.4641
  146MOL0     H19689   4.038   9.095   3.213 -1.4344 -0.5611 -1.3013
  146MOL0     H19690   3.106   9.261   3.610 -0.1875 -1.0139  2.0169
  146MOL0     H19691   2.893   9.370   3.587 -1.2321  0.6955 -0.3370
  146MOL0     H19692   2.495   9.402   3.500 -1.1343  0.6711 -1.1004
  146MOL0     H19693   2.247   9.463   3.470 -1.3128  1.0706  2.1984
  146MOL0     H19694   0.663   9.730   4.010  0.9351  0.4384 -1.3918
  146MOL0     H19695   0.449   9.820   3.926  1.1985 -1.9904 -0.9682
  146MOL0     H19696   0.271  10.357   3.762 -0.4133  0.4757 -0.4477
  146MOL0     H19697   0.071  10.428   3.620  0.5251 -0.0101  0.4209
  146MOL0     H19698  -0.203  10.369   3.369  1.8206  1.6294 -0.5198
  146MOL0     H19699  -0.062  10.445   3.438  0.5569  0.1327 -2.5378
  146MOL0     H19700  -0.254  10.537   3.546  1.3548  0.1742  1.6464
  146MOL0     H19701  -0.189  10.431   3.670  3.6852  1.6693 -1.0816
  146MOL0     H19702  -0.360  10.258   3.611 -0.4615  0.4264  0.0442
  146MOL0     H19703  -0.421  10.349   3.479  1.2276 -0.2172 -0.6351
  146MOL0     H19704  -0.523  10.507   3.624 -1.3256 -1.4676  0.2085
  146MOL0     H19705  -0.565  10.355   3.681 -1.1246 -1.1241 -0.6064
  146MOL0     H19706  -0.336  10.465   4.010  1.8712 -0.2940 -0.8272
  146MOL0     H19707  -0.018  10.032   3.546 -0.4110  1.1186  0.4816
  146MOL0     H19708   0.253   9.873   3.564  0.1651 -0.2936 -0.3475
  146MOL0     H19709   0.236   9.877   3.744  0.9467  1.2183  0.4391
  146MOL0     H19710   0.102   9.860   3.638 -0.6166 -1.9582  2.9948
  147MOL0     O19711   0.964   1.546  11.045 -0.0811 -0.0943  0.0891
  147MOL0     C19712   0.886   1.638  11.063  0.0112 -0.6298 -0.0055
  147MOL0     O19713   0.922   1.770  11.080 -0.0277 -0.0853  0.3424
  147MOL0     C19714   1.054   1.791  11.104  0.1707 -0.6474  0.6121
  147MOL0     C19715   1.094   1.809  11.234 -0.2729 -0.2927  0.0218
  147MOL0     C19716   1.233   1.830  11.256 -0.2361 -0.5082  1.3476
  147MOL0     C19717   1.329   1.835  11.149  0.1414  0.0772  0.3143
  147MOL0     O19718   1.458   1.861  11.182  0.5146  0.5134  0.3083
  147MOL0     C19719   1.570   1.821  11.110  0.6008  0.4887  0.1991
  147MOL0     C19720   1.694   1.854  11.200  1.0516 -0.0310  0.2824
  147MOL0     C19721   1.826   1.839  11.116  0.9756 -0.0470  0.6723
  147MOL0     C19722   1.938   1.891  11.197 -0.4515  0.2086 -0.4454
  147MOL0     C19723   2.076   1.911  11.117  1.5589 -0.0411 -1.2797
  147MOL0     C19724   2.128   1.786  11.054 -0.6788  0.6103 -0.6620
  147MOL0     C19725   2.240   1.804  10.952  0.8536  0.7300  0.2782
  147MOL0     C19726   2.353   1.883  11.009  0.0140 -0.3925 -0.5780
  147MOL0     N19727   2.471   1.868  10.915 -0.6804 -0.2703 -0.0573
  147MOL0     C19728   2.549   1.966  10.859  0.6786 -0.2907  0.4606
  147MOL0     C19729   2.644   1.905  10.801 -0.9204 -0.2544 -0.0646
  147MOL0     C19730   2.742   1.968  10.709 -0.7448  0.2664  0.7949
  147MOL0     C19731   2.883   1.978  10.760 -0.4129 -1.1757 -0.4877
  147MOL0     C19732   2.893   2.025  10.907  0.7332  0.3263 -1.5104
  147MOL0     C19733   3.027   2.047  10.968  0.2905 -0.8429  0.5693
  147MOL0     O19734   3.078   2.153  10.896 -0.3022 -1.1739 -0.0497
  147MOL0     C19735   3.207   2.185  10.919 -0.0549  0.7062  0.4205
  147MOL0     C19736   3.254   2.289  10.844  0.1407  0.1518  0.5085
  147MOL0     C19737   3.385   2.337  10.860  0.3689 -0.1784  0.2304
  147MOL0     C19738   3.464   2.277  10.960 -0.9198  0.2464 -1.4107
  147MOL0     C19739   3.594   2.341  10.995  0.4309  0.0006 -0.3933
  147MOL0     O19740   3.669   2.274  11.083 -0.5666 -0.5639  0.1480
  147MOL0     C19741   3.798   2.318  11.117  0.1825  0.1403 -0.5644
  147MOL0     C19742   3.837   2.444  11.156 -0.0096  0.0614 -0.4073
  147MOL0     C19743   3.968   2.470  11.192 -0.5345 -0.2052  0.5968
  147MOL0     C19744   4.060   2.364  11.195 -0.0126 -0.4838  0.1928
  147MOL0     O19745   4.189   2.388  11.225  0.1362 -0.9267 -0.7970
  147MOL0     C19746   4.228   2.451  11.352 -0.7997 -0.4976  0.0650
  147MOL0     C19747   4.341   2.368  11.414  0.6963 -0.6410 -0.1249
  147MOL0     C19748   4.462   2.351  11.323  0.1910  1.0035 -0.3581
  147MOL0     C19749   4.562   2.264  11.400  0.2517 -0.3476  0.0083
  147MOL0     C19750   4.691   2.242  11.320  0.0187  0.4222  0.6141
  147MOL0     C19751   4.807   2.216  11.410  0.1900  0.2924  0.6594
  147MOL0     C19752   4.936   2.193  11.327  0.0343 -0.4473 -0.7637
  147MOL0     C19753   5.059   2.277  11.376  0.4444  0.0506  0.7680
  147MOL0    Cl19754   5.105   2.260  11.547 -0.0689 -0.0318 -0.5116
  147MOL0     C19755   4.015   2.235  11.157 -0.3427 -0.2343 -0.6447
  147MOL0     C19756   3.886   2.213  11.131  1.1173  0.6122 -0.2021
  147MOL0     O19757   3.616   2.455  10.943 -0.4502 -0.1580  0.3437
  147MOL0     C19758   3.408   2.181  11.043  0.3239  0.1202 -0.8245
  147MOL0     C19759   3.288   2.139  11.013 -0.4768 -0.2873  1.0516
  147MOL0     N19760   2.630   1.778  10.810  0.8603  0.9157 -0.0872
  147MOL0     N19761   2.520   1.750  10.880 -0.2722  0.5472  1.0341
  147MOL0     C19762   1.279   1.826  11.021  0.3066 -0.4212 -0.9613
  147MOL0     C19763   1.148   1.796  10.998  0.2418 -0.3325  0.5276
  147MOL0     C19764   0.735   1.610  11.067  0.0180 -0.3684  0.2173
  147MOL0     C19765   0.646   1.721  11.040 -0.3714  0.0288  0.0269
  147MOL0     C19766   0.509   1.700  11.037  0.0648  0.7235  0.5565
  147MOL0     C19767   0.460   1.574  11.039  1.6673 -0.1034  0.1464
  147MOL0     O19768   0.332   1.555  11.008 -0.4690 -0.0906 -0.7528
  147MOL0     C19769   0.273   1.420  10.993 -0.8021 -0.7146  0.8078
  147MOL0     C19770   0.118   1.417  11.012  0.4749 -0.2586 -0.5328
  147MOL0     C19771   0.060   1.286  10.964  0.1634 -0.5922  0.7038
  147MOL0     C19772  -0.088   1.294  10.951  0.1114  0.0557  0.0716
  147MOL0     C19773  -0.147   1.170  10.894 -0.3813  0.2254  0.0684
  147MOL0     C19774  -0.180   1.066  10.849 -0.6034  0.0941  1.3381
  147MOL0     C19775   0.541   1.465  11.069 -0.0091 -0.1183 -1.2958
  147MOL0     C19776   0.678   1.484  11.082 -0.1367 -0.3395 -0.5214
  147MOL0     C19777   0.766   1.358  11.099  0.4859  0.4421 -0.0280
  147MOL0     H19778   1.026   1.804  11.318 -1.2361 -2.2793 -0.7996
  147MOL0     H19779   1.261   1.848  11.360  1.4785  3.6860  0.3392
  147MOL0     H19780   1.557   1.716  11.084  1.9473  0.3092  0.2041
  147MOL0     H19781   1.564   1.881  11.018 -0.3035  1.4377  0.8424
  147MOL0     H19782   1.689   1.790  11.289 -4.0710  0.2888  0.5286
  147MOL0     H19783   1.689   1.960  11.223  2.9123  0.8671 -2.8410
  147MOL0     H19784   1.799   1.904  11.032 -0.5055 -1.2345  0.1704
  147MOL0     H19785   1.843   1.736  11.084  1.3904  0.0613  0.5414
  147MOL0     H19786   1.918   1.980  11.257  1.9518  0.7760 -0.3842
  147MOL0     H19787   1.961   1.805  11.260  0.7408 -0.9302 -2.3292
  147MOL0     H19788   2.055   1.973  11.029  2.0914  1.3017 -0.4750
  147MOL0     H19789   2.148   1.963  11.180  0.4429  1.3904 -1.1303
  147MOL0     H19790   2.163   1.723  11.136 -0.2626  1.2504 -0.3355
  147MOL0     H19791   2.045   1.727  11.014 -1.6410  0.9163  0.8098
  147MOL0     H19792   2.196   1.843  10.860  0.4284  0.1678  0.2354
  147MOL0     H19793   2.273   1.701  10.932  1.5095  0.5174  2.3210
  147MOL0     H19794   2.337   1.990  11.018 -0.7590 -0.2327 -3.1441
  147MOL0     H19795   2.377   1.837  11.106 -2.4916  2.8447  1.7928
  147MOL0     H19796   2.535   2.073  10.874 -0.7110 -0.1952 -1.1786
  147MOL0     H19797   2.751   1.901  10.623  1.9646  1.9041 -0.3279
  147MOL0     H19798   2.716   2.068  10.674  1.5130 -0.3572 -3.2486
  147MOL0     H19799   2.931   1.880  10.753 -1.7138 -1.8495 -0.2078
  147MOL0     H19800   2.942   2.047  10.699 -1.6802 -0.3296 -0.7914
  147MOL0     H19801   2.845   1.943  10.961 -0.7047  0.1402 -2.9959
  147MOL0     H19802   2.831   2.115  10.917 -0.1544 -0.3865 -0.2603
  147MOL0     H19803   3.088   1.958  10.948 -1.1046 -1.5092 -1.0142
  147MOL0     H19804   3.021   2.072  11.074  0.6639 -1.6157  0.7778
  147MOL0     H19805   3.178   2.325  10.776 -0.1176 -1.4219 -0.0687
  147MOL0     H19806   3.444   2.407  10.801  0.9142 -0.4385  0.4657
  147MOL0     H19807   3.761   2.521  11.151  1.0721  1.1136 -4.9619
  147MOL0     H19808   4.000   2.569  11.221  0.0908 -0.5173  0.9879
  147MOL0     H19809   4.264   2.553  11.337 -3.9283  0.7346  0.1854
  147MOL0     H19810   4.149   2.467  11.426 -0.5749  1.4867 -0.0811
  147MOL0     H19811   4.362   2.421  11.508  0.4771  0.9448 -0.9424
  147MOL0     H19812   4.299   2.272  11.446 -1.1270 -0.0114 -0.5243
  147MOL0     H19813   4.417   2.298  11.238 -1.8597  1.1008  0.5983
  147MOL0     H19814   4.503   2.446  11.288  0.9019  1.4829  1.6804
  147MOL0     H19815   4.533   2.168  11.445 -0.2629 -0.1199  0.1710
  147MOL0     H19816   4.596   2.334  11.477  0.5416  1.1237 -1.4106
  147MOL0     H19817   4.710   2.330  11.259  1.5521 -1.0238 -1.1056
  147MOL0     H19818   4.665   2.161  11.251 -1.6655  1.4548 -0.0041
  147MOL0     H19819   4.813   2.285  11.495 -0.4855 -1.1976  1.9633
  147MOL0     H19820   4.804   2.124  11.469  2.2082 -1.1571 -1.3551
  147MOL0     H19821   4.912   2.204  11.221  2.7942  0.3421 -1.3941
  147MOL0     H19822   4.972   2.090  11.334 -0.0392 -0.4188  0.1572
  147MOL0     H19823   5.150   2.257  11.319  0.8282 -1.0524  1.7142
  147MOL0     H19824   5.046   2.385  11.361  0.3597 -0.0652 -0.0000
  147MOL0     H19825   4.079   2.147  11.157  2.0631  1.4015 -1.8605
  147MOL0     H19826   3.851   2.113  11.110  2.5642  0.5784 -2.8842
  147MOL0     H19827   3.453   2.146  11.135  2.2142  1.8071 -1.0271
  147MOL0     H19828   3.261   2.055  11.075  2.6861 -2.2982 -0.0290
  147MOL0     H19829   1.345   1.842  10.937 -0.3331 -2.7908 -1.9780
  147MOL0     H19830   1.115   1.778  10.897  1.7956 -1.8126  0.2470
  147MOL0     H19831   0.689   1.816  11.010 -1.4234  0.8737  1.1063
  147MOL0     H19832   0.442   1.782  11.013  1.1617  0.8936 -2.3942
  147MOL0     H19833   0.311   1.345  11.064  2.6479  0.0908 -0.0085
  147MOL0     H19834   0.300   1.385  10.893 -1.8754 -0.3667  0.3840
  147MOL0     H19835   0.082   1.503  10.956 -0.4132 -0.2730 -0.0090
  147MOL0     H19836   0.082   1.427  11.115 -1.4314  1.5002 -1.2923
  147MOL0     H19837   0.084   1.196  11.021  0.4524 -2.2523 -1.8578
  147MOL0     H19838   0.107   1.266  10.867  2.5819  1.8363  1.2602
  147MOL0     H19839  -0.123   1.306  11.054  2.2601 -1.3450  1.0400
  147MOL0     H19840  -0.115   1.375  10.882  1.5320  0.9678  0.5314
  147MOL0     H19841  -0.209   0.976  10.798  0.6306  0.4564 -0.0774
  147MOL0     H19842   0.504   1.363  11.074 -0.0192 -0.1648 -2.0959
  147MOL0     H19843   0.697   1.274  11.114 -0.3542  0.4648 -3.0649
  147MOL0     H19844   0.842   1.341  11.022  0.8548 -1.5197  0.7140
  147MOL0     H19845   0.817   1.373  11.195  1.4686 -1.2396 -0.2410
  148MOL0     O19846   0.555   7.323   8.470 -0.4164  0.1970 -0.1923
  148MOL0     C19847   0.567   7.327   8.347  0.6062 -0.4261 -0.1931
  148MOL0     O19848   0.664   7.265   8.271 -0.1574 -0.1110  0.0184
  148MOL0     C19849   0.738   7.170   8.332 -0.0028  0.3749  1.1640
  148MOL0     C19850   0.682   7.058   8.385 -0.0310  0.5219  0.3551
  148MOL0     C19851   0.753   6.966   8.462 -0.0956  0.3318  0.0425
  148MOL0     C19852   0.893   6.982   8.468 -0.3257 -0.3677  0.1815
  148MOL0     O19853   0.974   6.877   8.516  0.4586 -0.3103  0.0722
  148MOL0     C19854   0.975   6.756   8.434  0.3109 -0.9148  0.0025
  148MOL0     C19855   1.112   6.711   8.437 -0.0032 -0.8221  0.8732
  148MOL0     C19856   1.194   6.817   8.358  0.1594 -0.0487  0.0053
  148MOL0     C19857   1.342   6.775   8.360 -0.2440  0.1446 -0.8425
  148MOL0     C19858   1.424   6.828   8.241 -0.3673  0.3811  1.1429
  148MOL0     C19859   1.568   6.823   8.272 -0.7733  0.3591  0.5848
  148MOL0     C19860   1.653   6.889   8.162 -0.1267 -0.2474 -0.1448
  148MOL0     C19861   1.796   6.868   8.203 -0.7484  0.0482  0.2261
  148MOL0     N19862   1.881   6.927   8.101  0.0520 -0.8297  0.1101
  148MOL0     C19863   1.892   6.876   7.974 -0.6713 -0.0521 -0.2624
  148MOL0     C19864   1.971   6.968   7.911 -0.2125  0.1745 -0.0114
  148MOL0     C19865   2.025   6.957   7.766 -0.0564  0.6873 -0.3183
  148MOL0     C19866   2.158   6.889   7.759  0.2702  1.0013  0.2476
  148MOL0     C19867   2.272   6.973   7.807 -0.5309 -0.5442 -0.3730
  148MOL0     C19868   2.413   6.923   7.756  0.2112  0.0525  0.8005
  148MOL0     O19869   2.458   6.793   7.792 -0.2530 -0.4954 -0.3888
  148MOL0     C19870   2.589   6.761   7.783  0.2786 -0.4231  0.1111
  148MOL0     C19871   2.692   6.847   7.733  0.1129  0.4677 -0.3642
  148MOL0     C19872   2.827   6.810   7.738 -0.1377 -0.1300 -0.2476
  148MOL0     C19873   2.859   6.685   7.792 -0.8015  0.3310  0.1360
  148MOL0     C19874   2.993   6.636   7.801 -0.3810  0.1423  0.2108
  148MOL0     O19875   3.008   6.516   7.860  0.5414  0.3332 -0.3496
  148MOL0     C19876   3.137   6.465   7.903 -0.0207 -0.0948  0.4968
  148MOL0     C19877   3.157   6.327   7.886  0.2852  0.8546 -0.8873
  148MOL0     C19878   3.282   6.266   7.904  0.1565 -0.5821  0.9100
  148MOL0     C19879   3.389   6.348   7.943  0.7290 -0.6294  0.7430
  148MOL0     O19880   3.509   6.278   7.970 -0.6869 -0.3521  0.3622
  148MOL0     C19881   3.561   6.299   8.102  0.4937  1.5257 -0.5529
  148MOL0     C19882   3.457   6.253   8.206  0.5512 -0.3640  0.8359
  148MOL0     C19883   3.407   6.111   8.185  0.1275  0.1536 -0.0420
  148MOL0     C19884   3.363   6.041   8.313 -0.2460  0.3298 -0.3933
  148MOL0     C19885   3.340   5.892   8.274 -0.5088 -0.0163 -0.1143
  148MOL0     C19886   3.289   5.818   8.388  0.5096 -1.1053  0.1027
  148MOL0     C19887   3.277   5.671   8.348  0.6275  0.4096  0.6878
  148MOL0     C19888   3.253   5.586   8.475 -0.1269  0.0576 -1.0882
  148MOL0    Cl19889   3.204   5.430   8.437 -0.2052 -0.1347 -0.0090
  148MOL0     C19890   3.374   6.486   7.961  0.9222  0.3374  0.0141
  148MOL0     C19891   3.242   6.549   7.940 -0.3844 -0.3797 -0.0566
  148MOL0     O19892   3.082   6.710   7.769  0.0428  0.3880 -0.4991
  148MOL0     C19893   2.760   6.595   7.813  0.7250  0.3969 -0.3671
  148MOL0     C19894   2.619   6.634   7.815  0.1075  0.1813 -0.4725
  148MOL0     N19895   2.021   7.056   7.995 -0.1218 -1.1840 -0.2449
  148MOL0     N19896   1.959   7.040   8.108 -0.1307  0.3836 -0.7152
  148MOL0     C19897   0.953   7.099   8.418  0.2772 -0.5106  0.9049
  148MOL0     C19898   0.876   7.192   8.344 -0.1650 -0.3847 -0.3231
  148MOL0     C19899   0.454   7.411   8.282 -0.4611 -0.2346 -0.1767
  148MOL0     C19900   0.380   7.508   8.359  0.6905  0.0571  0.0204
  148MOL0     C19901   0.276   7.587   8.309  0.3348  0.1815 -0.1593
  148MOL0     C19902   0.257   7.596   8.174 -0.0469  0.6841 -0.2053
  148MOL0     O19903   0.173   7.677   8.106 -0.6183  0.9669  0.2208
  148MOL0     C19904   0.117   7.796   8.179 -0.8262  0.0038 -0.0398
  148MOL0     C19905   0.189   7.921   8.121  0.1408  0.1390 -0.8477
  148MOL0     C19906   0.122   8.056   8.170 -0.2443 -1.0030  0.5835
  148MOL0     C19907   0.192   8.173   8.099 -0.9915 -0.5778  0.1287
  148MOL0     C19908   0.334   8.194   8.129 -0.1705 -0.2945  0.2324
  148MOL0     C19909   0.450   8.229   8.145  1.8390  0.1779 -0.1312
  148MOL0     C19910   0.327   7.507   8.090 -0.4451 -0.4612  0.4682
  148MOL0     C19911   0.426   7.416   8.140  0.4157 -0.5404 -0.5730
  148MOL0     C19912   0.498   7.343   8.037 -0.1442 -0.2032  0.0298
  148MOL0     H19913   0.577   7.044   8.360 -0.3361  1.8130  0.8471
  148MOL0     H19914   0.714   6.873   8.502  2.0517 -0.6580 -0.0771
  148MOL0     H19915   0.916   6.674   8.475 -1.4823  0.3046 -0.0344
  148MOL0     H19916   0.945   6.782   8.332 -0.5101  2.4889  0.9891
  148MOL0     H19917   1.118   6.621   8.375 -1.8142  1.5726 -3.1882
  148MOL0     H19918   1.153   6.707   8.539  2.4189  1.0778  0.0692
  148MOL0     H19919   1.176   6.918   8.397 -0.3504 -0.3415  0.5509
  148MOL0     H19920   1.151   6.808   8.258  2.8106  0.3877 -1.2691
  148MOL0     H19921   1.382   6.828   8.447  1.3973 -0.1483 -1.3951
  148MOL0     H19922   1.368   6.671   8.380 -1.1049 -0.2211 -1.5304
  148MOL0     H19923   1.408   6.772   8.149 -0.9751  0.4951  1.1750
  148MOL0     H19924   1.400   6.934   8.229  1.8902  0.7028 -1.6494
  148MOL0     H19925   1.582   6.881   8.364 -1.1557  2.3049 -0.5164
  148MOL0     H19926   1.604   6.721   8.287  0.0306  0.2800 -1.5378
  148MOL0     H19927   1.632   6.996   8.163  1.0161 -0.0003 -0.2708
  148MOL0     H19928   1.631   6.832   8.070 -2.1641 -0.3544  0.3690
  148MOL0     H19929   1.816   6.916   8.300  2.1306 -0.9216  0.2055
  148MOL0     H19930   1.822   6.764   8.225  0.0159  0.0357 -0.7174
  148MOL0     H19931   1.835   6.791   7.939  1.4072 -2.1525  1.1876
  148MOL0     H19932   1.949   6.902   7.709  2.9727 -2.3270 -1.7653
  148MOL0     H19933   2.029   7.052   7.712  0.7779  1.3749  0.9239
  148MOL0     H19934   2.153   6.805   7.829 -2.0333  0.4699 -0.4755
  148MOL0     H19935   2.173   6.844   7.660  2.3593 -0.0758  0.9898
  148MOL0     H19936   2.280   6.978   7.916 -0.9431 -1.0007 -0.3170
  148MOL0     H19937   2.251   7.076   7.775  0.7808 -0.0831  0.1604
  148MOL0     H19938   2.479   6.996   7.802  0.9661 -0.8094  1.1186
  148MOL0     H19939   2.418   6.931   7.647  0.7618  3.3269  0.9771
  148MOL0     H19940   2.665   6.940   7.684 -1.6206  0.4501  0.4754
  148MOL0     H19941   2.904   6.884   7.718  0.2096 -1.0145 -2.4305
  148MOL0     H19942   3.070   6.267   7.860  1.0044 -0.2950 -0.6724
  148MOL0     H19943   3.309   6.162   7.889  0.2364 -0.2128 -2.3618
  148MOL0     H19944   3.647   6.232   8.110 -1.2680 -0.6329  2.4099
  148MOL0     H19945   3.594   6.401   8.123 -1.8360  1.9877  1.2804
  148MOL0     H19946   3.507   6.262   8.303  1.6593  1.4944  0.1441
  148MOL0     H19947   3.376   6.327   8.216  0.1408 -0.7911  0.7148
  148MOL0     H19948   3.327   6.102   8.111  0.3222 -1.2700 -0.1105
  148MOL0     H19949   3.485   6.048   8.142  0.2724 -1.6547  2.5916
  148MOL0     H19950   3.273   6.089   8.352  0.5155  1.3787  0.1055
  148MOL0     H19951   3.435   6.046   8.394  0.5639  1.5510 -1.1630
  148MOL0     H19952   3.442   5.856   8.258 -0.1544  0.6162  0.6834
  148MOL0     H19953   3.270   5.877   8.191 -0.3598 -0.7519 -0.1156
  148MOL0     H19954   3.367   5.823   8.465  0.2732 -0.2633  0.2970
  148MOL0     H19955   3.192   5.846   8.428  0.5668 -3.8547  2.4995
  148MOL0     H19956   3.366   5.635   8.295  0.3859  2.9896 -1.7521
  148MOL0     H19957   3.195   5.672   8.275  2.6020  2.4645 -1.7443
  148MOL0     H19958   3.336   5.576   8.545 -0.5386 -1.5527 -0.8002
  148MOL0     H19959   3.170   5.630   8.531  1.0624  1.6229 -0.4877
  148MOL0     H19960   3.454   6.543   8.005 -0.1529  0.8824  1.3194
  148MOL0     H19961   3.228   6.652   7.971 -2.3342 -0.8851  0.9128
  148MOL0     H19962   2.771   6.494   7.851 -3.4944  1.0454  3.4018
  148MOL0     H19963   2.549   6.560   7.851  0.3354  1.4581  2.9330
  148MOL0     H19964   1.060   7.115   8.428 -0.1176  1.3005  2.5532
  148MOL0     H19965   0.930   7.275   8.299  0.2056  0.3262  1.3652
  148MOL0     H19966   0.392   7.518   8.466 -0.8797  2.5600  0.0554
  148MOL0     H19967   0.229   7.649   8.385  0.7867 -0.5955  0.7777
  148MOL0     H19968   0.134   7.792   8.287 -0.0578  0.2457 -0.1452
  148MOL0     H19969   0.009   7.798   8.164 -1.9514 -2.8417  5.2073
  148MOL0     H19970   0.185   7.914   8.012  0.1944 -0.5094 -0.8165
  148MOL0     H19971   0.294   7.929   8.151 -0.6702  2.9810  1.7555
  148MOL0     H19972   0.131   8.061   8.279 -1.9374 -3.2076  0.9108
  148MOL0     H19973   0.015   8.057   8.147  0.1872  2.1315 -1.9173
  148MOL0     H19974   0.174   8.183   7.992  0.1369 -2.9331 -0.3409
  148MOL0     H19975   0.133   8.256   8.141 -1.2988 -0.5331 -0.3822
  148MOL0     H19976   0.551   8.261   8.136  1.8239  0.5518  0.9147
  148MOL0     H19977   0.303   7.504   7.984 -1.4307 -1.3357  0.6922
  148MOL0     H19978   0.511   7.244   8.082  0.4894  0.4761  1.3759
  148MOL0     H19979   0.448   7.336   7.939  1.5669  0.4568 -0.9341
  148MOL0     H19980   0.593   7.395   8.026 -1.0973  1.4586 -0.7234
  149MOL0     O19981   1.175  10.221   9.417  0.2115  0.2581  0.5764
  149MOL0     C19982   1.187  10.263   9.535  0.3638 -0.2998  0.5744
  149MOL0     O19983   1.310  10.309   9.582  1.2434  0.1022 -0.0319
  149MOL0     C19984   1.417  10.315   9.499  0.4172  0.0462  0.2855
  149MOL0     C19985   1.512  10.215   9.507 -0.0796 -0.1344 -0.5802
  149MOL0     C19986   1.618  10.214   9.421  0.4050 -0.0779 -0.0182
  149MOL0     C19987   1.640  10.313   9.329 -0.0970 -0.3509  0.3291
  149MOL0     O19988   1.750  10.318   9.244 -0.2095  0.3018  0.4693
  149MOL0     C19989   1.867  10.353   9.322 -1.0157 -0.3549  0.2033
  149MOL0     C19990   1.952  10.227   9.335 -0.6644  0.0593  0.6172
  149MOL0     C19991   2.094  10.254   9.386  0.0190 -0.2741  0.0692
  149MOL0     C19992   2.184  10.296   9.277 -0.0772 -0.6937  0.2639
  149MOL0     C19993   2.322  10.327   9.345  1.1124  0.1876  0.2899
  149MOL0     C19994   2.405  10.419   9.260 -0.5095 -0.0321 -0.5528
  149MOL0     C19995   2.544  10.435   9.324  0.3396  0.5201  0.0282
  149MOL0     C19996   2.620  10.523   9.230 -0.2704 -0.9851  0.9889
  149MOL0     N19997   2.754  10.570   9.291  0.8131 -0.3094 -0.1661
  149MOL0     C19998   2.757  10.685   9.370 -0.3460 -0.5740 -0.1977
  149MOL0     C19999   2.881  10.690   9.407 -0.9983 -0.5629  0.5320
  149MOL0     C20000   2.933  10.790   9.507  0.1716  0.4409  0.8627
  149MOL0     C20001   3.039  10.738   9.601 -1.1611 -0.3480 -0.7834
  149MOL0     C20002   3.121  10.854   9.664  0.1490 -0.6361  0.2845
  149MOL0     C20003   3.195  10.960   9.588 -0.0373  0.0806 -0.0125
  149MOL0     O20004   3.274  11.039   9.684  0.3782 -0.4108  0.3659
  149MOL0     C20005   3.377  11.109   9.652  0.0329 -0.1842  0.2074
  149MOL0     C20006   3.470  11.143   9.751 -0.1289  0.5576  0.4711
  149MOL0     C20007   3.594  11.202   9.719 -0.1687 -1.2089 -0.0857
  149MOL0     C20008   3.618  11.247   9.588 -0.5092  1.0542  0.4607
  149MOL0     C20009   3.750  11.305   9.559  0.0535  0.2532  0.1454
  149MOL0     O20010   3.845  11.289   9.659 -0.2214 -0.2368  0.8369
  149MOL0     C20011   3.975  11.310   9.622 -0.1300  0.3805 -0.0804
  149MOL0     C20012   4.058  11.203   9.585  0.7938 -0.0490 -0.3633
  149MOL0     C20013   4.191  11.226   9.552  1.0425 -0.6995  0.3395
  149MOL0     C20014   4.251  11.354   9.563 -0.3697 -0.2792  0.5310
  149MOL0     O20015   4.382  11.377   9.530  0.2585  0.2057 -0.6118
  149MOL0     C20016   4.449  11.299   9.429 -0.2381 -0.3417  0.6785
  149MOL0     C20017   4.582  11.381   9.397  0.3412  0.0142  0.2519
  149MOL0     C20018   4.693  11.371   9.498  0.2248 -0.0080 -0.6898
  149MOL0     C20019   4.775  11.495   9.501  0.4519 -0.0107 -0.2403
  149MOL0     C20020   4.898  11.462   9.587  0.7724 -0.1651 -0.5952
  149MOL0     C20021   4.974  11.595   9.620 -0.2319 -0.0871  0.8257
  149MOL0     C20022   5.075  11.640   9.511  0.1887 -0.0367 -0.0158
  149MOL0     C20023   5.181  11.731   9.569  0.5126  0.3778  0.7662
  149MOL0    Cl20024   5.267  11.785   9.423 -0.0043 -0.3346 -0.2033
  149MOL0     C20025   4.175  11.459   9.613 -0.6507 -0.2579  0.1448
  149MOL0     C20026   4.039  11.440   9.638 -0.6518  0.0165  0.4529
  149MOL0     O20027   3.772  11.345   9.448 -0.2954  0.1358  0.0560
  149MOL0     C20028   3.524  11.225   9.485  0.4041  0.1960 -0.5126
  149MOL0     C20029   3.403  11.149   9.518 -0.0791 -1.1970  0.6975
  149MOL0     N20030   2.957  10.585   9.349  0.1303 -0.0596 -0.0156
  149MOL0     N20031   2.878  10.522   9.270  0.3316  0.5550  0.0497
  149MOL0     C20032   1.547  10.415   9.319 -0.8561 -0.1805  0.4429
  149MOL0     C20033   1.442  10.420   9.412  1.2282  0.4434  0.5980
  149MOL0     C20034   1.076  10.294   9.630 -0.3537 -0.1055  1.0046
  149MOL0     C20035   1.112  10.353   9.754 -1.0496 -0.0064 -0.0464
  149MOL0     C20036   1.017  10.371   9.848 -0.4340 -0.4039 -0.7791
  149MOL0     C20037   0.888  10.320   9.834  0.8711 -0.1098 -0.1266
  149MOL0     O20038   0.801  10.329   9.943 -0.1806  0.4681  0.5384
  149MOL0     C20039   0.680  10.250   9.955 -0.3200  0.6937 -0.1925
  149MOL0     C20040   0.646  10.241  10.105  0.9288  0.1224  0.6582
  149MOL0     C20041   0.599  10.371  10.177  0.7813 -0.5622 -1.0405
  149MOL0     C20042   0.451  10.413  10.139 -0.4063 -0.4767  0.0356
  149MOL0     C20043   0.352  10.318  10.189 -0.6399 -0.2437  1.1269
  149MOL0     C20044   0.271  10.244  10.234  0.1353 -0.2278 -0.2061
  149MOL0     C20045   0.853  10.256   9.717 -0.3931 -0.8151  0.8780
  149MOL0     C20046   0.938  10.251   9.607 -0.7754  0.6544 -0.1107
  149MOL0     C20047   0.900  10.192   9.473  0.1667 -0.0253 -1.2542
  149MOL0     H20048   1.499  10.141   9.585  1.3747 -1.1156 -1.2053
  149MOL0     H20049   1.690  10.137   9.446 -0.6863 -1.0714  0.1469
  149MOL0     H20050   1.928  10.426   9.268 -0.7334  0.1530  1.1828
  149MOL0     H20051   1.832  10.401   9.414 -2.1869  1.0869 -0.9501
  149MOL0     H20052   1.959  10.166   9.244  1.9336  0.4057  0.5137
  149MOL0     H20053   1.904  10.160   9.408  1.6033 -1.2309  1.0133
  149MOL0     H20054   2.122  10.154   9.422 -0.2730 -0.9877 -1.5905
  149MOL0     H20055   2.094  10.312   9.479 -2.0029 -4.2394  2.8609
  149MOL0     H20056   2.191  10.213   9.206  0.9849 -0.9045  0.5908
  149MOL0     H20057   2.138  10.380   9.225 -1.4368 -2.5994 -1.8025
  149MOL0     H20058   2.306  10.377   9.441 -0.5022  0.6253 -0.1668
  149MOL0     H20059   2.364  10.231   9.377 -2.0483 -1.6650 -0.6587
  149MOL0     H20060   2.422  10.376   9.161  3.6934 -1.5796  0.6231
  149MOL0     H20061   2.343  10.509   9.256 -0.7576 -0.1865 -0.2578
  149MOL0     H20062   2.606  10.348   9.348  2.5527  2.1089  0.4841
  149MOL0     H20063   2.525  10.470   9.426 -1.5161 -2.6872  0.9160
  149MOL0     H20064   2.644  10.458   9.146  1.2214  1.4605 -0.6273
  149MOL0     H20065   2.573  10.618   9.201  1.3142 -0.3634  0.3516
  149MOL0     H20066   2.669  10.739   9.403  0.4265 -0.3871  1.7021
  149MOL0     H20067   2.987  10.867   9.453  2.4448 -2.7214 -1.7930
  149MOL0     H20068   2.853  10.819   9.575  0.8442  0.6082  1.6047
  149MOL0     H20069   2.998  10.679   9.684  0.6649  0.5438  0.8574
  149MOL0     H20070   3.109  10.676   9.544 -1.0316 -0.4410 -0.5246
  149MOL0     H20071   3.201  10.814   9.728  2.4732  2.7921 -0.1895
  149MOL0     H20072   3.057  10.910   9.733  0.3976 -1.0247  0.8389
  149MOL0     H20073   3.127  11.030   9.538  0.2501 -0.4263 -1.1360
  149MOL0     H20074   3.260  10.911   9.515 -0.9353 -0.0623 -0.7297
  149MOL0     H20075   3.467  11.099   9.851  2.6529 -1.6337 -0.2725
  149MOL0     H20076   3.668  11.219   9.796  0.5460 -1.4941 -0.6929
  149MOL0     H20077   4.016  11.103   9.594  0.7232  0.1298  1.6684
  149MOL0     H20078   4.263  11.148   9.531 -0.1737 -1.9168  0.5221
  149MOL0     H20079   4.486  11.201   9.460  2.7158  0.8119  1.1661
  149MOL0     H20080   4.380  11.293   9.345 -1.4404  2.2040  1.3863
  149MOL0     H20081   4.626  11.361   9.299  0.5883  1.0024  0.1458
  149MOL0     H20082   4.549  11.485   9.384  0.6544 -0.0947 -1.6008
  149MOL0     H20083   4.653  11.345   9.596 -0.3744  0.6167 -0.7621
  149MOL0     H20084   4.754  11.282   9.478 -1.7725 -1.9849  1.3302
  149MOL0     H20085   4.722  11.579   9.546 -1.1553  0.4121 -2.7515
  149MOL0     H20086   4.818  11.518   9.403  0.8334  0.2438 -0.0172
  149MOL0     H20087   4.969  11.390   9.546 -1.0066 -2.0420 -0.5282
  149MOL0     H20088   4.861  11.423   9.682 -1.5880  4.0776  0.5052
  149MOL0     H20089   4.908  11.681   9.624  0.1364  0.2490 -0.1605
  149MOL0     H20090   5.022  11.584   9.718  1.0846  1.3827  0.3868
  149MOL0     H20091   5.016  11.686   9.432  0.9295  2.5274  0.8377
  149MOL0     H20092   5.124  11.555   9.463  0.5546 -1.9847  3.4718
  149MOL0     H20093   5.149  11.814   9.633  0.7795  0.7058  0.4808
  149MOL0     H20094   5.249  11.672   9.631  2.2271 -1.6661 -2.7778
  149MOL0     H20095   4.210  11.561   9.628  0.4566 -0.8042  1.5480
  149MOL0     H20096   3.969  11.510   9.683 -0.2172  1.6149 -1.2027
  149MOL0     H20097   3.540  11.273   9.390  0.7014 -0.3958 -0.7678
  149MOL0     H20098   3.314  11.144   9.456 -1.4572  0.3382  2.4422
  149MOL0     H20099   1.561  10.491   9.242 -0.1617 -0.9491 -0.2160
  149MOL0     H20100   1.368  10.499   9.403  0.8615  0.0816  0.4224
  149MOL0     H20101   1.215  10.379   9.774  0.3064 -3.3085 -1.9015
  149MOL0     H20102   1.053  10.421   9.938  0.3929  1.3552 -2.0164
  149MOL0     H20103   0.714  10.153   9.917  0.9598 -0.8109  4.1730
  149MOL0     H20104   0.601  10.296   9.894 -0.5205  2.2030  1.1472
  149MOL0     H20105   0.731  10.191  10.153  0.2163 -1.9672 -0.1687
  149MOL0     H20106   0.558  10.177  10.115  0.0710  1.5553  2.9570
  149MOL0     H20107   0.661  10.458  10.155 -1.0206  1.2408  0.6771
  149MOL0     H20108   0.606  10.355  10.285 -0.9469  2.9118 -0.2875
  149MOL0     H20109   0.426  10.508  10.189  0.8035 -1.1087  1.9417
  149MOL0     H20110   0.449  10.419  10.030  2.3279 -0.6726 -0.0890
  149MOL0     H20111   0.204  10.171  10.275  0.6204 -1.8464 -2.0968
  149MOL0     H20112   0.750  10.225   9.706 -0.6129 -0.7794  2.5948
  149MOL0     H20113   0.794  10.167   9.472  0.0332  0.1834  1.0252
  149MOL0     H20114   0.913  10.253   9.383 -0.6365  0.7965 -0.8259
  149MOL0     H20115   0.958  10.102   9.451  0.5373 -0.5656  1.4953
  150MOL0     O20116   2.218   2.886   9.704 -0.0533  0.6528  0.5641
  150MOL0     C20117   2.245   2.781   9.768  0.4925  0.4364 -0.0371
  150MOL0     O20118   2.363   2.745   9.827 -0.5046 -0.1398 -0.4379
  150MOL0     C20119   2.463   2.839   9.832  1.0254 -0.0742 -0.2271
  150MOL0     C20120   2.548   2.837   9.728  0.3250  0.3064 -0.0725
  150MOL0     C20121   2.666   2.909   9.723  0.2555 -0.3258 -0.1063
  150MOL0     C20122   2.690   2.999   9.829  0.1787  0.1476  0.5139
  150MOL0     O20123   2.794   3.088   9.821 -0.6951  0.7652  0.0069
  150MOL0     C20124   2.919   3.050   9.756  0.0115 -0.1550 -0.3412
  150MOL0     C20125   3.036   3.124   9.814  0.6323 -0.5711  0.1056
  150MOL0     C20126   3.165   3.094   9.750 -0.0592  0.6217  1.1670
  150MOL0     C20127   3.284   3.175   9.812 -0.1960  0.4968 -0.0511
  150MOL0     C20128   3.420   3.151   9.733  0.3925  0.8480  0.0156
  150MOL0     C20129   3.537   3.224   9.804  0.2481  0.9082  0.2379
  150MOL0     C20130   3.680   3.187   9.750 -0.7930 -0.2792 -0.1956
  150MOL0     C20131   3.710   3.223   9.606 -0.0269 -0.3958 -0.3928
  150MOL0     N20132   3.831   3.162   9.552 -0.4442 -0.3291 -0.7096
  150MOL0     C20133   3.954   3.224   9.553 -0.6802  0.0998 -0.1866
  150MOL0     C20134   4.033   3.128   9.501  0.4435  0.0349  0.5717
  150MOL0     C20135   4.184   3.148   9.478  0.3362 -0.6569 -0.4864
  150MOL0     C20136   4.253   3.088   9.603  0.1262  0.7583  0.3317
  150MOL0     C20137   4.404   3.105   9.597 -0.0255  0.3698 -0.5823
  150MOL0     C20138   4.441   3.228   9.675  0.0107 -0.4752 -0.4538
  150MOL0     O20139   4.581   3.268   9.660  0.3437 -0.8184  0.0269
  150MOL0     C20140   4.633   3.298   9.541 -0.3891 -0.4940  0.2917
  150MOL0     C20141   4.565   3.374   9.438  0.1433  0.2416  0.3498
  150MOL0     C20142   4.635   3.405   9.315 -0.4739  0.7799  0.0111
  150MOL0     C20143   4.766   3.369   9.302 -0.8352 -0.2092 -0.8250
  150MOL0     C20144   4.854   3.408   9.193 -0.4166  1.3033  0.4996
  150MOL0     O20145   4.986   3.375   9.190 -0.4979  0.7353  0.1069
  150MOL0     C20146   5.079   3.421   9.099 -0.3945 -0.7387  0.2478
  150MOL0     C20147   5.207   3.426   9.147  0.3314 -0.1028 -0.0498
  150MOL0     C20148   5.315   3.471   9.080 -0.4903 -1.0317 -0.0478
  150MOL0     C20149   5.299   3.518   8.949 -0.6805 -0.7410  0.7528
  150MOL0     O20150   5.400   3.553   8.860  0.4834  0.6722  0.0732
  150MOL0     C20151   5.518   3.600   8.922 -0.3758 -0.8738  0.0274
  150MOL0     C20152   5.562   3.715   8.832  0.4187 -0.5448  0.2329
  150MOL0     C20153   5.706   3.752   8.859  0.5067 -0.0551  0.6975
  150MOL0     C20154   5.742   3.872   8.763  0.0666  0.0606  0.3405
  150MOL0     C20155   5.879   3.938   8.788 -0.6707 -0.3328  0.3908
  150MOL0     C20156   6.010   3.871   8.745  0.6991  0.1464 -1.2756
  150MOL0     C20157   6.022   3.877   8.594 -0.7209  0.0138  0.3959
  150MOL0     C20158   6.164   3.879   8.544 -0.1277  0.3548 -0.7571
  150MOL0    Cl20159   6.268   3.778   8.652  0.8810  0.2965 -0.3179
  150MOL0     C20160   5.175   3.511   8.896 -0.3030 -0.7603  1.0046
  150MOL0     C20161   5.069   3.457   8.965 -0.4693  0.7712  0.0739
  150MOL0     O20162   4.789   3.463   9.103  0.7273  0.1617  0.4335
  150MOL0     C20163   4.834   3.303   9.404 -0.0982 -0.3822 -0.9504
  150MOL0     C20164   4.758   3.259   9.518 -0.4058  0.4479 -0.4953
  150MOL0     N20165   3.954   3.029   9.452 -0.2222  0.0992  0.0785
  150MOL0     N20166   3.829   3.049   9.481 -0.0493 -0.2700 -0.5560
  150MOL0     C20167   2.601   3.014   9.930 -0.4899  1.0778 -0.1181
  150MOL0     C20168   2.485   2.926   9.935 -0.6017 -0.4020 -0.2608
  150MOL0     C20169   2.150   2.671   9.773  0.1894 -0.0807  0.2910
  150MOL0     C20170   2.192   2.542   9.796 -0.4200  0.3179 -0.0683
  150MOL0     C20171   2.109   2.428   9.816  0.4490  0.2036  0.1215
  150MOL0     C20172   1.970   2.443   9.810 -0.9470  0.0100  0.2118
  150MOL0     O20173   1.873   2.343   9.839 -0.9898 -0.3091  0.3722
  150MOL0     C20174   1.910   2.211   9.883 -0.3436 -0.7216 -0.9807
  150MOL0     C20175   1.929   2.126   9.759  0.2390  0.2847  0.1547
  150MOL0     C20176   1.903   1.967   9.790 -0.0092 -0.6245  0.2326
  150MOL0     C20177   2.035   1.887   9.827  0.0523 -0.4038  0.2342
  150MOL0     C20178   2.136   1.910   9.727 -0.3238 -0.3563 -0.3180
  150MOL0     C20179   2.218   1.933   9.642 -0.5654 -0.1433 -0.3939
  150MOL0     C20180   1.927   2.571   9.767  0.0556  0.7402 -0.1293
  150MOL0     C20181   2.003   2.683   9.745 -0.8645  0.8575  0.1886
  150MOL0     C20182   1.932   2.812   9.715  0.0544  0.3198 -0.1597
  150MOL0     H20183   2.524   2.779   9.640 -0.6102  1.3077 -0.4965
  150MOL0     H20184   2.741   2.902   9.645 -0.7777 -2.6310 -0.9913
  150MOL0     H20185   2.932   2.943   9.776  2.3567  0.0927 -0.2850
  150MOL0     H20186   2.895   3.074   9.652 -0.1096  1.8141  0.0951
  150MOL0     H20187   3.050   3.091   9.917 -1.0198 -1.7216  0.0035
  150MOL0     H20188   3.016   3.231   9.805 -3.5533 -1.1017  0.9867
  150MOL0     H20189   3.169   3.112   9.642 -0.4848  2.1754  1.3817
  150MOL0     H20190   3.183   2.989   9.776 -1.6140  0.0384  0.0259
  150MOL0     H20191   3.258   3.281   9.803 -0.2323  0.5634  0.7982
  150MOL0     H20192   3.295   3.161   9.920  1.0076  0.7572 -0.1279
  150MOL0     H20193   3.436   3.043   9.721 -0.5693  0.7859 -0.8309
  150MOL0     H20194   3.405   3.198   9.635 -1.8650 -1.6779 -0.9809
  150MOL0     H20195   3.538   3.332   9.784 -1.5666  0.8199 -0.6089
  150MOL0     H20196   3.530   3.211   9.912  0.3459  1.2468  0.2852
  150MOL0     H20197   3.693   3.080   9.763 -0.9409 -0.1552  1.0300
  150MOL0     H20198   3.750   3.229   9.823 -0.6308  0.4668 -0.7546
  150MOL0     H20199   3.627   3.180   9.548 -2.4720  1.1143  1.7640
  150MOL0     H20200   3.713   3.327   9.574  0.6030 -0.4290 -0.4527
  150MOL0     H20201   3.983   3.317   9.601 -2.1161 -0.6156  2.2623
  150MOL0     H20202   4.206   3.106   9.380  3.3533  0.6608 -0.4859
  150MOL0     H20203   4.208   3.254   9.469 -1.3967 -0.2844 -1.1090
  150MOL0     H20204   4.208   3.140   9.688 -2.3278  1.5823 -1.3498
  150MOL0     H20205   4.224   2.982   9.607  0.4215  0.6454 -0.3279
  150MOL0     H20206   4.427   3.120   9.490  0.0203 -0.8900 -0.7666
  150MOL0     H20207   4.469   3.022   9.626  3.2793  2.0299 -2.5639
  150MOL0     H20208   4.418   3.218   9.781  2.3880  0.8767  0.2665
  150MOL0     H20209   4.384   3.315   9.640  1.1230  0.2923 -0.4105
  150MOL0     H20210   4.462   3.406   9.445  0.4721  1.5100 -0.3057
  150MOL0     H20211   4.578   3.470   9.250 -1.6041  2.1776  2.2649
  150MOL0     H20212   5.224   3.401   9.251 -0.0053 -0.5304 -0.0978
  150MOL0     H20213   5.409   3.475   9.134  0.4712 -0.8357 -1.6676
  150MOL0     H20214   5.501   3.641   9.022 -1.1551 -1.7954  0.2927
  150MOL0     H20215   5.599   3.527   8.931 -1.1298 -1.8050 -0.4899
  150MOL0     H20216   5.571   3.684   8.727  2.8420 -1.2475  0.5788
  150MOL0     H20217   5.500   3.805   8.837  1.6845  0.5390 -1.9678
  150MOL0     H20218   5.710   3.776   8.965 -0.9358 -0.1137  0.7818
  150MOL0     H20219   5.775   3.669   8.842  0.5892  0.6330 -3.3308
  150MOL0     H20220   5.662   3.946   8.767  0.0698  0.1003 -0.2297
  150MOL0     H20221   5.733   3.820   8.667 -2.4504 -2.2623  1.6881
  150MOL0     H20222   5.883   3.952   8.896 -1.2141  0.7387  0.2860
  150MOL0     H20223   5.875   4.035   8.737 -0.6670 -0.3931  0.2740
  150MOL0     H20224   6.090   3.936   8.782 -1.0484  0.5726  2.1349
  150MOL0     H20225   6.013   3.765   8.775 -1.8327  0.5246  0.6818
  150MOL0     H20226   5.973   3.964   8.548  1.4424  0.2950 -1.5306
  150MOL0     H20227   5.985   3.782   8.554  1.8204 -0.5928 -0.6816
  150MOL0     H20228   6.167   3.852   8.438 -1.5420  0.8021 -0.9298
  150MOL0     H20229   6.206   3.979   8.552  2.9463 -0.5961 -3.2047
  150MOL0     H20230   5.160   3.550   8.796 -0.8521  1.1163  1.7670
  150MOL0     H20231   4.970   3.463   8.921 -0.2032 -0.9149 -0.8327
  150MOL0     H20232   4.936   3.268   9.410  0.7246  2.0468  0.5075
  150MOL0     H20233   4.820   3.192   9.576  2.1714  0.0940 -3.3601
  150MOL0     H20234   2.614   3.078  10.017 -2.2395  3.4133 -1.4498
  150MOL0     H20235   2.425   2.931  10.026 -0.2508 -1.3375  0.0342
  150MOL0     H20236   2.297   2.518   9.803 -0.2507  1.3148  1.2375
  150MOL0     H20237   2.147   2.329   9.841  0.2946  0.4100  1.1737
  150MOL0     H20238   1.819   2.176   9.932 -3.0840  3.0992 -2.8111
  150MOL0     H20239   1.994   2.207   9.953 -1.7861  1.2081  1.0026
  150MOL0     H20240   2.025   2.139   9.709  1.3259 -3.4695  0.9407
  150MOL0     H20241   1.848   2.158   9.693 -1.4001 -0.1534  1.8681
  150MOL0     H20242   1.864   1.916   9.701 -0.4003 -0.7643  0.4808
  150MOL0     H20243   1.828   1.952   9.869 -1.4935  0.8110 -0.8295
  150MOL0     H20244   2.078   1.920   9.923  2.7535 -0.5997 -0.8124
  150MOL0     H20245   2.023   1.780   9.844  2.3678 -0.6832  0.4459
  150MOL0     H20246   2.312   1.945   9.593  1.6388  2.3228  3.8436
  150MOL0     H20247   1.819   2.585   9.766  0.3886  3.9318  0.2614
  150MOL0     H20248   1.967   2.885   9.788  0.4675 -3.0460  3.2817
  150MOL0     H20249   1.950   2.861   9.618 -3.2355  2.9912  0.3926
  150MOL0     H20250   1.824   2.799   9.721  0.1209  0.0651  0.4678
  151MOL0     O20251   3.426   0.656   1.474 -0.0246  0.2118  0.8827
  151MOL0     C20252   3.368   0.547   1.466 -0.0611 -0.2732  0.3579
  151MOL0     O20253   3.434   0.425   1.480 -0.1698  0.4434  0.3262
  151MOL0     C20254   3.569   0.430   1.506 -0.3388 -0.0648 -0.4121
  151MOL0     C20255   3.660   0.495   1.419 -0.0583  0.1556  0.1714
  151MOL0     C20256   3.800   0.506   1.444  1.2687  0.2463  0.6409
  151MOL0     C20257   3.852   0.486   1.579  0.2878 -0.3807 -0.2689
  151MOL0     O20258   3.981   0.536   1.602  0.1020  0.9291 -0.2408
  151MOL0     C20259   4.027   0.510   1.733 -0.2431 -0.7816 -0.6330
  151MOL0     C20260   4.177   0.556   1.728  0.5664 -0.2575 -0.2875
  151MOL0     C20261   4.241   0.540   1.859  0.0349 -0.5592 -0.3919
  151MOL0     C20262   4.392   0.521   1.828 -0.3253  0.2216  0.4257
  151MOL0     C20263   4.485   0.491   1.952 -0.5926 -0.1644  0.0301
  151MOL0     C20264   4.631   0.488   1.930  0.0003  0.5567 -0.2269
  151MOL0     C20265   4.675   0.393   1.820 -0.3692 -0.3645  0.2254
  151MOL0     C20266   4.838   0.382   1.807  0.4592 -0.1153 -0.0709
  151MOL0     N20267   4.918   0.508   1.808 -0.5748 -0.1932  0.1000
  151MOL0     C20268   4.876   0.621   1.741  0.5792  0.1382 -0.3289
  151MOL0     C20269   4.951   0.714   1.796 -0.7729 -0.1671 -0.4786
  151MOL0     C20270   4.942   0.858   1.762 -0.0625 -0.9580 -0.8024
  151MOL0     C20271   4.961   0.956   1.877  0.7199 -0.5808 -0.5934
  151MOL0     C20272   4.926   1.103   1.867  0.1476  0.4704 -0.5369
  151MOL0     C20273   4.800   1.120   1.782 -0.8190 -0.7014 -0.7740
  151MOL0     O20274   4.683   1.040   1.834 -0.7615 -0.4712  0.1565
  151MOL0     C20275   4.574   1.025   1.757  0.1298  0.2929  0.2878
  151MOL0     C20276   4.481   0.920   1.770  0.2872  0.1139  0.1615
  151MOL0     C20277   4.376   0.911   1.681  0.1690  0.4816 -0.9390
  151MOL0     C20278   4.347   1.009   1.578  0.2480  0.1286 -0.1851
  151MOL0     C20279   4.222   1.012   1.493 -0.3782 -0.2270 -0.9893
  151MOL0     O20280   4.134   0.905   1.512 -0.0909  0.3003 -0.4170
  151MOL0     C20281   4.029   0.878   1.424  0.2333 -0.9837 -0.0157
  151MOL0     C20282   4.051   0.810   1.301 -0.3810 -0.0439 -0.0937
  151MOL0     C20283   3.936   0.783   1.224 -0.4543  0.3238 -0.4202
  151MOL0     C20284   3.806   0.825   1.255 -0.4172 -0.5338  0.1295
  151MOL0     O20285   3.704   0.803   1.170  0.1050 -0.1274 -0.7656
  151MOL0     C20286   3.591   0.893   1.151  0.5764 -0.2993 -0.9530
  151MOL0     C20287   3.515   0.877   1.019 -0.2015 -0.5051 -0.2941
  151MOL0     C20288   3.561   0.970   0.902  0.3852 -0.5406 -0.0590
  151MOL0     C20289   3.511   0.919   0.776 -0.2278 -0.6278  0.8414
  151MOL0     C20290   3.530   1.014   0.654  0.2250 -0.1591  1.2483
  151MOL0     C20291   3.674   1.057   0.612 -0.6360  0.6789 -0.6213
  151MOL0     C20292   3.665   1.142   0.484 -0.5751 -0.0661 -0.2579
  151MOL0     C20293   3.677   1.062   0.352  0.0128  0.2265  0.1521
  151MOL0    Cl20294   3.664   1.174   0.203  0.0089 -0.5790 -0.0471
  151MOL0     C20295   3.783   0.886   1.380  0.2694  0.0990  0.3832
  151MOL0     C20296   3.896   0.915   1.462 -0.2184  0.3994  0.3602
  151MOL0     O20297   4.200   1.102   1.417 -0.3018  0.0671 -0.5490
  151MOL0     C20298   4.450   1.106   1.564  0.1289  0.7666  0.8888
  151MOL0     C20299   4.556   1.115   1.653  0.1642 -0.3473 -0.3164
  151MOL0     N20300   5.039   0.661   1.881  0.0062  0.3226 -0.8993
  151MOL0     N20301   5.018   0.535   1.896  0.2449  0.6604  0.5198
  151MOL0     C20302   3.765   0.423   1.664 -0.5342  0.3377 -0.8908
  151MOL0     C20303   3.625   0.406   1.637 -0.5027  0.4912  0.6269
  151MOL0     C20304   3.220   0.537   1.457 -0.7134  1.2541  0.4938
  151MOL0     C20305   3.152   0.410   1.475 -0.9183 -0.1609  0.2252
  151MOL0     C20306   3.013   0.400   1.458  0.7104 -0.3326 -0.1945
  151MOL0     C20307   2.936   0.506   1.412  0.7085  0.4289 -0.0860
  151MOL0     O20308   2.798   0.494   1.377 -0.2693  0.4448  0.5271
  151MOL0     C20309   2.703   0.584   1.443  0.8678 -0.2064 -0.9317
  151MOL0     C20310   2.589   0.505   1.507  0.6791 -0.3307  0.3606
  151MOL0     C20311   2.523   0.436   1.390 -0.0846 -0.1651  0.6783
  151MOL0     C20312   2.389   0.400   1.436  1.0058  0.0073 -0.6482
  151MOL0     C20313   2.377   0.328   1.572 -0.4470 -0.4290 -0.1180
  151MOL0     C20314   2.370   0.264   1.674  0.4869 -0.1385 -0.1627
  151MOL0     C20315   3.002   0.623   1.387 -0.1056  0.1239  0.4203
  151MOL0     C20316   3.138   0.643   1.409  0.0863 -0.4409 -0.0046
  151MOL0     C20317   3.194   0.773   1.357  0.3334  0.5495 -1.0017
  151MOL0     H20318   3.624   0.526   1.322  0.8333 -0.6170 -0.4218
  151MOL0     H20319   3.863   0.543   1.364 -1.0445 -0.5624 -1.6847
  151MOL0     H20320   3.983   0.568   1.815 -0.7002 -0.3283 -1.1855
  151MOL0     H20321   4.028   0.405   1.762  1.3178 -0.7472 -0.4692
  151MOL0     H20322   4.178   0.656   1.684 -3.8914  0.4548  0.8286
  151MOL0     H20323   4.218   0.478   1.663 -0.6592 -0.6257 -0.6438
  151MOL0     H20324   4.197   0.460   1.919 -0.8611  0.0868 -0.1648
  151MOL0     H20325   4.230   0.634   1.914 -0.9674 -1.5303  1.1233
  151MOL0     H20326   4.396   0.443   1.751 -3.7897  3.5066 -3.5569
  151MOL0     H20327   4.426   0.607   1.771  0.4231  0.7484  1.6244
  151MOL0     H20328   4.472   0.570   2.028  0.1727 -2.5400  2.8188
  151MOL0     H20329   4.454   0.392   1.988 -0.7611 -0.6297 -1.3531
  151MOL0     H20330   4.671   0.586   1.907  0.5393 -0.2836 -3.1815
  151MOL0     H20331   4.677   0.439   2.017  0.1080 -1.9382 -1.6069
  151MOL0     H20332   4.634   0.425   1.724  0.9006  1.4117  0.2129
  151MOL0     H20333   4.638   0.299   1.860  0.1030 -0.8476 -0.4338
  151MOL0     H20334   4.888   0.335   1.891 -1.9435  1.8273  2.6627
  151MOL0     H20335   4.860   0.327   1.715  1.2068 -0.6841  0.4376
  151MOL0     H20336   4.795   0.630   1.670  1.3516  0.7972 -1.1378
  151MOL0     H20337   5.014   0.884   1.684  0.7785  1.0296  0.5570
  151MOL0     H20338   4.846   0.881   1.716 -0.7875  1.1164  1.4991
  151MOL0     H20339   4.900   0.915   1.958  0.0432  1.7092  0.1414
  151MOL0     H20340   5.065   0.952   1.912  0.6109  1.8270  0.2333
  151MOL0     H20341   5.009   1.153   1.817  0.2169  2.5019  1.4315
  151MOL0     H20342   4.935   1.143   1.969  1.4174  0.7774 -0.7525
  151MOL0     H20343   4.840   1.101   1.682  5.6467  3.5394  0.3853
  151MOL0     H20344   4.770   1.225   1.782  0.5793 -0.2746 -0.2153
  151MOL0     H20345   4.495   0.848   1.850  0.8082 -0.4528 -0.4260
  151MOL0     H20346   4.318   0.819   1.681  3.1134 -1.6875  3.1252
  151MOL0     H20347   4.152   0.797   1.264  0.2557  2.1690  0.6474
  151MOL0     H20348   3.952   0.734   1.128  1.9466 -0.1388  0.1463
  151MOL0     H20349   3.519   0.854   1.224  1.3018 -1.0299 -0.6057
  151MOL0     H20350   3.618   0.998   1.163  0.6097 -0.2889 -1.1109
  151MOL0     H20351   3.534   0.775   0.987  1.1091 -0.8466  1.4346
  151MOL0     H20352   3.407   0.887   1.036 -0.7088 -2.0394 -2.2517
  151MOL0     H20353   3.527   1.072   0.916  3.6434  1.3899 -4.0297
  151MOL0     H20354   3.670   0.981   0.894 -0.0206  3.9652 -1.8231
  151MOL0     H20355   3.404   0.898   0.771  0.0565 -1.8714 -0.6162
  151MOL0     H20356   3.560   0.822   0.762  1.1403 -0.2857  2.7377
  151MOL0     H20357   3.463   1.098   0.677 -4.0528 -2.1330 -2.2885
  151MOL0     H20358   3.488   0.950   0.575 -1.7860 -0.2639  2.3264
  151MOL0     H20359   3.731   1.102   0.693  1.0161  1.0156 -1.9223
  151MOL0     H20360   3.735   0.971   0.585 -3.1169 -1.4871  0.2233
  151MOL0     H20361   3.746   1.216   0.487 -0.4689 -0.1519 -0.9623
  151MOL0     H20362   3.569   1.194   0.472  1.3460  3.4838 -1.9938
  151MOL0     H20363   3.767   1.000   0.344  1.3324  2.1175 -0.5756
  151MOL0     H20364   3.596   0.991   0.337 -0.6409  1.2384 -1.4354
  151MOL0     H20365   3.685   0.900   1.425  0.7161  0.3538  1.3084
  151MOL0     H20366   3.879   0.978   1.549  4.3249  3.8254 -0.8619
  151MOL0     H20367   4.430   1.184   1.491 -3.7127 -1.6445 -0.9550
  151MOL0     H20368   4.619   1.201   1.632  1.9705 -1.5453 -0.0175
  151MOL0     H20369   3.811   0.387   1.756  1.2990 -0.5354 -2.0690
  151MOL0     H20370   3.553   0.366   1.708 -1.3713  0.0145 -0.4972
  151MOL0     H20371   3.217   0.327   1.498 -0.4740  0.6921  2.2524
  151MOL0     H20372   2.973   0.299   1.467  1.3459 -0.6653 -0.9532
  151MOL0     H20373   2.661   0.648   1.365  1.6955  2.3253  0.5782
  151MOL0     H20374   2.743   0.663   1.507  0.3169 -0.6196 -0.0518
  151MOL0     H20375   2.528   0.582   1.554  0.7552  1.6723 -2.5593
  151MOL0     H20376   2.622   0.426   1.574  0.1177  0.2567  1.3488
  151MOL0     H20377   2.594   0.358   1.363 -0.6961 -0.2619 -0.7566
  151MOL0     H20378   2.518   0.509   1.308 -2.0472  2.6239  3.0624
  151MOL0     H20379   2.318   0.483   1.441  1.0684 -0.0097  0.7997
  151MOL0     H20380   2.351   0.323   1.367  1.3489 -1.9912  1.2634
  151MOL0     H20381   2.369   0.211   1.767  3.0040  1.4328  0.8661
  151MOL0     H20382   2.955   0.712   1.346  0.5225  0.0483 -0.4781
  151MOL0     H20383   3.127   0.830   1.292 -0.8972  0.6926  0.3345
  151MOL0     H20384   3.218   0.833   1.445  1.2337 -2.6666  1.1295
  151MOL0     H20385   3.290   0.759   1.306  0.5022  0.2907 -0.6224
  152MOL0     O20386  10.647  10.384   5.051 -0.1257  0.0892 -0.0171
  152MOL0     C20387  10.591  10.489   5.047 -0.6669 -0.8117 -0.0467
  152MOL0     O20388  10.646  10.602   4.989  0.4259  0.7058  0.2599
  152MOL0     C20389  10.766  10.584   4.928 -0.4766  0.3723 -0.5094
  152MOL0     C20390  10.875  10.632   4.998  0.0163  0.0263  0.1532
  152MOL0     C20391  11.002  10.615   4.936  0.9799  0.7016 -0.2754
  152MOL0     C20392  11.015  10.539   4.821 -0.0551 -0.1998  0.3695
  152MOL0     O20393  11.146  10.521   4.773  0.1930 -0.3445  0.5210
  152MOL0     C20394  11.159  10.418   4.686  0.4206 -0.0088 -1.0305
  152MOL0     C20395  11.312  10.386   4.682 -0.1453 -0.1989  0.3242
  152MOL0     C20396  11.407  10.511   4.657  1.3075  0.2589  0.1572
  152MOL0     C20397  11.552  10.478   4.642 -0.8222  0.1698 -0.4705
  152MOL0     C20398  11.596  10.423   4.775 -0.3230 -0.2092 -0.7466
  152MOL0     C20399  11.739  10.380   4.781 -0.3186 -0.7003 -0.1898
  152MOL0     C20400  11.837  10.480   4.720 -0.0295 -0.4009  1.1103
  152MOL0     C20401  11.984  10.448   4.758  0.1938  0.3161  0.2011
  152MOL0     N20402  12.075  10.540   4.696 -0.1514 -0.4566 -0.3439
  152MOL0     C20403  12.147  10.647   4.747  0.3762 -0.3292  0.5852
  152MOL0     C20404  12.219  10.688   4.634  0.1077 -0.9057 -1.0658
  152MOL0     C20405  12.297  10.824   4.622  0.5648  1.0731 -0.1860
  152MOL0     C20406  12.425  10.835   4.698 -0.5322  0.2588 -0.2948
  152MOL0     C20407  12.510  10.713   4.705 -0.9930  0.2568  0.5941
  152MOL0     C20408  12.558  10.670   4.566 -0.7784 -0.1857  0.5321
  152MOL0     O20409  12.635  10.772   4.509 -0.1200 -0.1513  0.6496
  152MOL0     C20410  12.769  10.768   4.517  0.1043 -0.4828  0.8061
  152MOL0     C20411  12.838  10.695   4.610  0.1693  1.0240  0.4271
  152MOL0     C20412  12.973  10.690   4.613 -0.1628 -0.4372 -0.2178
  152MOL0     C20413  13.048  10.762   4.521 -0.1862 -0.3660 -0.6665
  152MOL0     C20414  13.195  10.765   4.536 -0.4375 -0.5808  0.4975
  152MOL0     O20415  13.258  10.886   4.510 -0.2582  0.1526  0.0226
  152MOL0     C20416  13.399  10.897   4.515  0.1616  0.4121  0.4443
  152MOL0     C20417  13.463  10.944   4.402 -0.8862 -0.4614  0.6921
  152MOL0     C20418  13.599  10.964   4.407 -0.0300 -0.4900 -0.2635
  152MOL0     C20419  13.678  10.921   4.516 -0.2513  0.4435 -0.4186
  152MOL0     O20420  13.816  10.937   4.520  0.3856  0.7966  0.5167
  152MOL0     C20421  13.895  10.982   4.404 -0.2648 -0.0698 -0.3673
  152MOL0     C20422  14.051  10.968   4.419 -0.8505 -0.4634 -0.0131
  152MOL0     C20423  14.108  10.834   4.390 -0.6265  0.2288 -0.0722
  152MOL0     C20424  14.179  10.830   4.250 -1.0646  0.6836  0.3445
  152MOL0     C20425  14.222  10.689   4.219 -0.7044  0.5176  0.5210
  152MOL0     C20426  14.283  10.692   4.083  0.3504  0.1375  0.9438
  152MOL0     C20427  14.299  10.547   4.038  0.4126  0.2591 -0.4914
  152MOL0     C20428  14.374  10.515   3.913 -0.6752  0.1869 -0.0638
  152MOL0    Cl20429  14.547  10.571   3.920  0.3280  0.1331 -0.2079
  152MOL0     C20430  13.609  10.873   4.628  0.1535 -0.4269 -0.3988
  152MOL0     C20431  13.475  10.855   4.625 -0.2443  0.0078 -0.7082
  152MOL0     O20432  13.249  10.662   4.572 -0.2722 -0.3283  0.9200
  152MOL0     C20433  12.983  10.846   4.427  0.1703 -0.1989 -0.7962
  152MOL0     C20434  12.843  10.848   4.430 -0.1032  0.3044 -0.1080
  152MOL0     N20435  12.198  10.605   4.523 -0.6179 -0.9896  0.6681
  152MOL0     N20436  12.115  10.513   4.568 -0.1138 -0.1188  0.0580
  152MOL0     C20437  10.898  10.506   4.750  0.7076  0.1209  0.8403
  152MOL0     C20438  10.771  10.523   4.803 -0.3406  0.2954 -0.4011
  152MOL0     C20439  10.460  10.507   5.109 -0.5270 -0.3041 -1.2732
  152MOL0     C20440  10.411  10.637   5.116 -0.2413  1.6825 -0.4212
  152MOL0     C20441  10.294  10.663   5.188  0.8169  1.0138  0.2464
  152MOL0     C20442  10.219  10.558   5.248  0.5695 -0.1730  0.0542
  152MOL0     O20443  10.107  10.565   5.332  0.4705 -0.2781 -0.1752
  152MOL0     C20444  10.041  10.688   5.354 -0.0492 -0.4720  0.6413
  152MOL0     C20445   9.932  10.677   5.461 -0.6011 -0.4266  0.7358
  152MOL0     C20446   9.790  10.677   5.408  0.3002  0.1914 -0.7927
  152MOL0     C20447   9.684  10.660   5.519  1.1613  0.2317  0.4357
  152MOL0     C20448   9.676  10.540   5.608  0.1891  0.4628 -0.1170
  152MOL0     C20449   9.668  10.440   5.676  0.6625  0.0597  0.0037
  152MOL0     C20450  10.265  10.429   5.237 -0.3296 -0.2009 -0.4558
  152MOL0     C20451  10.386  10.402   5.173  0.0009 -0.6330 -1.0159
  152MOL0     C20452  10.432  10.259   5.189  0.2277 -0.3582 -0.7741
  152MOL0     H20453  10.867  10.688   5.091 -1.6083  0.7795 -0.4001
  152MOL0     H20454  11.091  10.643   4.992  1.6862 -1.4082 -0.2386
  152MOL0     H20455  11.097  10.334   4.717 -1.9243  1.5860 -1.2045
  152MOL0     H20456  11.137  10.457   4.586  0.7304  0.0325 -1.0858
  152MOL0     H20457  11.317  10.311   4.603 -1.3445 -0.3443  0.3640
  152MOL0     H20458  11.335  10.323   4.769  1.1153  1.1537  1.0198
  152MOL0     H20459  11.396  10.575   4.744 -4.5369  1.9744 -1.3677
  152MOL0     H20460  11.363  10.558   4.568 -0.8409 -1.2323  0.3421
  152MOL0     H20461  11.578  10.411   4.559 -1.8696  1.9758 -2.3618
  152MOL0     H20462  11.604  10.573   4.628  1.0135 -0.3767  1.9884
  152MOL0     H20463  11.575  10.496   4.854  0.6821 -0.1194 -0.5390
  152MOL0     H20464  11.538  10.336   4.807  1.6156 -0.4505  2.7190
  152MOL0     H20465  11.756  10.375   4.889  2.0003  3.0869 -0.2287
  152MOL0     H20466  11.748  10.285   4.727  2.6807  0.0245 -1.1107
  152MOL0     H20467  11.815  10.585   4.744  0.6210  0.5279 -1.8625
  152MOL0     H20468  11.850  10.471   4.611  2.8797  1.4077  1.1838
  152MOL0     H20469  11.999  10.459   4.866  1.7940 -0.1643  0.0389
  152MOL0     H20470  12.005  10.349   4.718  0.3904 -0.0911  1.2863
  152MOL0     H20471  12.138  10.705   4.838  1.6275  1.3409 -0.3127
  152MOL0     H20472  12.333  10.837   4.519  1.3408  1.7581  0.1572
  152MOL0     H20473  12.237  10.913   4.640  1.5815  2.0765 -1.4798
  152MOL0     H20474  12.486  10.919   4.664  0.3207  0.7312  2.1337
  152MOL0     H20475  12.396  10.854   4.802 -0.6452 -0.9640 -0.0837
  152MOL0     H20476  12.459  10.626   4.747  1.0418 -0.7929  0.9636
  152MOL0     H20477  12.595  10.743   4.767 -0.5686  1.5193 -0.5466
  152MOL0     H20478  12.481  10.642   4.494 -0.1045 -1.0836  0.1408
  152MOL0     H20479  12.619  10.581   4.586  1.8568  1.7647  1.7351
  152MOL0     H20480  12.776  10.640   4.680 -1.1934 -1.1673 -2.2968
  152MOL0     H20481  13.035  10.632   4.681  2.8151 -0.8544 -3.0029
  152MOL0     H20482  13.404  10.967   4.314 -2.5196  0.8455  2.0505
  152MOL0     H20483  13.639  11.015   4.320 -0.5879 -0.0743 -0.2783
  152MOL0     H20484  13.857  10.941   4.310  1.2118 -0.9549 -0.6045
  152MOL0     H20485  13.871  11.089   4.400  5.3067  1.8596  4.2194
  152MOL0     H20486  14.097  11.041   4.352 -3.4209  1.4356  0.1256
  152MOL0     H20487  14.079  10.997   4.521  1.5540 -0.9755 -0.4738
  152MOL0     H20488  14.176  10.817   4.474 -2.2529 -0.1325  1.2100
  152MOL0     H20489  14.030  10.758   4.395 -0.7051  0.3719  1.0339
  152MOL0     H20490  14.265  10.897   4.260  2.0795 -2.8140 -0.9558
  152MOL0     H20491  14.111  10.873   4.176  1.1346 -0.7092 -2.7241
  152MOL0     H20492  14.135  10.622   4.222 -1.9345  2.0827  2.0003
  152MOL0     H20493  14.293  10.649   4.291 -1.7529 -2.1218  0.2278
  152MOL0     H20494  14.210  10.736   4.014 -1.6614 -2.1238  1.4745
  152MOL0     H20495  14.379  10.743   4.093 -0.2729  0.9820  3.1326
  152MOL0     H20496  14.199  10.507   4.017  0.3939  0.4547 -0.7985
  152MOL0     H20497  14.346  10.491   4.119 -0.7176  0.3023  0.2183
  152MOL0     H20498  14.385  10.407   3.909  1.1952  0.3586 -0.4037
  152MOL0     H20499  14.330  10.551   3.819  3.5268  0.3082 -2.1938
  152MOL0     H20500  13.675  10.847   4.710  0.9932 -0.4278 -1.0582
  152MOL0     H20501  13.427  10.800   4.706  1.5154  0.7666  0.9436
  152MOL0     H20502  13.023  10.912   4.350 -0.1610  1.0476  0.0694
  152MOL0     H20503  12.779  10.909   4.367 -1.7402  1.4582  2.5151
  152MOL0     H20504  10.904  10.451   4.657 -0.6688 -0.0723  0.8407
  152MOL0     H20505  10.675  10.501   4.757  0.0813 -2.2643 -0.2210
  152MOL0     H20506  10.458  10.717   5.060 -2.4137  2.6760 -0.9323
  152MOL0     H20507  10.247  10.761   5.201  0.5641  0.9623 -0.2647
  152MOL0     H20508   9.983  10.720   5.266  0.6164 -0.9533  0.0191
  152MOL0     H20509  10.113  10.766   5.382 -2.6300  2.5913 -0.5524
  152MOL0     H20510   9.951  10.760   5.530 -1.4440 -0.3530  0.8955
  152MOL0     H20511   9.953  10.585   5.517 -0.0635  0.5100  2.1349
  152MOL0     H20512   9.769  10.614   5.321  0.4570 -0.8721 -0.0787
  152MOL0     H20513   9.771  10.774   5.362  1.3671  1.0690  0.5301
  152MOL0     H20514   9.686  10.748   5.583 -0.2911  0.3646  0.3408
  152MOL0     H20515   9.587  10.671   5.470  0.6248 -1.9336  0.8571
  152MOL0     H20516   9.657  10.349   5.731  2.9779 -1.1924 -1.4040
  152MOL0     H20517  10.201  10.355   5.285  2.0622 -1.3738  1.1167
  152MOL0     H20518  10.530  10.257   5.237  0.1197 -1.6534 -0.5865
  152MOL0     H20519  10.368  10.197   5.253 -0.0154  0.5750 -0.0869
  152MOL0     H20520  10.426  10.212   5.091 -1.4759 -3.2967  0.6193
  153MOL0     O20521   7.364  11.192  11.017  0.3020 -0.2037 -0.4996
  153MOL0     C20522   7.316  11.195  11.132  0.4729  0.0237  0.6258
  153MOL0     O20523   7.391  11.170  11.242  0.0166  0.5608  0.2511
  153MOL0     C20524   7.509  11.103  11.229  0.0430  0.9638  0.4362
  153MOL0     C20525   7.517  10.972  11.274 -0.0786  0.1770 -1.3056
  153MOL0     C20526   7.636  10.904  11.263  0.6604  0.5315 -0.2465
  153MOL0     C20527   7.747  10.956  11.203  0.3763  0.2160  0.7930
  153MOL0     O20528   7.857  10.884  11.173  0.5619 -0.6494  0.0459
  153MOL0     C20529   7.902  10.789  11.268  0.3625 -0.7556  0.5927
  153MOL0     C20530   8.043  10.738  11.225 -0.0507 -0.6626 -0.1531
  153MOL0     C20531   8.163  10.844  11.203  0.5035 -0.4857  0.5405
  153MOL0     C20532   8.271  10.747  11.141  0.4280  0.0010 -0.1415
  153MOL0     C20533   8.398  10.819  11.095 -0.4235 -0.2934  0.3705
  153MOL0     C20534   8.502  10.712  11.061 -0.3934  0.0223 -0.1038
  153MOL0     C20535   8.642  10.761  11.025 -0.9634 -0.8690 -0.3840
  153MOL0     C20536   8.722  10.835  11.145  0.4729 -0.7321  0.8271
  153MOL0     N20537   8.867  10.834  11.110  0.2260 -0.8289 -0.1728
  153MOL0     C20538   8.953  10.721  11.110 -1.0028  0.4888 -0.1525
  153MOL0     C20539   9.073  10.772  11.072  0.1196 -0.6286 -0.2094
  153MOL0     C20540   9.194  10.693  11.045 -1.2716 -0.4316 -0.2068
  153MOL0     C20541   9.297  10.784  10.989 -0.4829  0.0078  0.4456
  153MOL0     C20542   9.435  10.710  10.982 -0.0529  0.5749  0.4432
  153MOL0     C20543   9.543  10.806  10.930  0.5751  0.0534 -0.2046
  153MOL0     O20544   9.502  10.856  10.797  0.4706  0.5362 -0.5183
  153MOL0     C20545   9.593  10.915  10.710  0.8648  0.1266  0.0188
  153MOL0     C20546   9.700  10.980  10.762 -0.1448  0.3622  0.5153
  153MOL0     C20547   9.783  11.038  10.667 -0.5100 -1.3004 -0.1587
  153MOL0     C20548   9.758  11.035  10.528  0.1581  0.3987  0.1983
  153MOL0     C20549   9.840  11.110  10.431  0.0320  0.9551  0.0538
  153MOL0     O20550   9.952  11.175  10.489  0.9092  0.6006 -0.1453
  153MOL0     C20551  10.037  11.243  10.407 -0.6399 -0.3955  0.3440
  153MOL0     C20552  10.164  11.191  10.385  0.2666  0.3884 -0.2887
  153MOL0     C20553  10.252  11.242  10.297  0.4910  0.8537  0.4721
  153MOL0     C20554  10.225  11.352  10.217  0.4940 -0.3188 -0.5533
  153MOL0     O20555  10.310  11.420  10.135  0.5055  0.6040  0.1796
  153MOL0     C20556  10.397  11.500  10.212 -0.0085  0.1485  0.1184
  153MOL0     C20557  10.456  11.610  10.129 -0.9751  0.1894  1.0171
  153MOL0     C20558  10.576  11.685  10.196 -0.0249 -0.0395  0.1476
  153MOL0     C20559  10.708  11.619  10.168 -0.1188  0.9518  0.0723
  153MOL0     C20560  10.826  11.693  10.226 -0.1656 -0.1564  1.0702
  153MOL0     C20561  10.956  11.653  10.167  0.0363 -0.6995  0.5258
  153MOL0     C20562  11.061  11.759  10.212 -0.0834  0.6699  0.1644
  153MOL0     C20563  11.186  11.729  10.149 -0.5435  0.4264  0.0734
  153MOL0    Cl20564  11.303  11.866  10.189 -0.0138 -0.0623  0.0125
  153MOL0     C20565  10.100  11.407  10.223  0.2096  0.3813  0.2331
  153MOL0     C20566  10.006  11.352  10.320  0.5678 -0.3321 -0.0332
  153MOL0     O20567   9.823  11.103  10.309  0.3082 -0.2740  0.3482
  153MOL0     C20568   9.644  10.960  10.485 -1.2555 -1.0301 -0.6603
  153MOL0     C20569   9.560  10.909  10.582 -0.0929  0.5294 -0.5329
  153MOL0     N20570   9.062  10.907  11.046 -0.2696  0.9495  0.3482
  153MOL0     N20571   8.940  10.938  11.063  0.0425 -0.0254 -0.0093
  153MOL0     C20572   7.738  11.085  11.155 -0.4761  0.4346  0.0775
  153MOL0     C20573   7.624  11.162  11.177  0.0622  0.0491 -0.2522
  153MOL0     C20574   7.180  11.247  11.150 -0.1903  0.3012 -0.2833
  153MOL0     C20575   7.148  11.310  11.272 -0.2792 -1.1393 -0.4717
  153MOL0     C20576   7.027  11.364  11.290  0.1174 -0.5792  1.4045
  153MOL0     C20577   6.924  11.378  11.189 -0.9729 -0.2027  0.0460
  153MOL0     O20578   6.801  11.437  11.228  0.4118 -0.5235 -0.7890
  153MOL0     C20579   6.703  11.435  11.134  0.8998 -0.2012 -0.7688
  153MOL0     C20580   6.629  11.293  11.130 -0.4998 -0.2468 -0.0713
  153MOL0     C20581   6.516  11.286  11.017  0.1929 -0.3077 -0.5298
  153MOL0     C20582   6.562  11.214  10.890  0.4746  0.6847 -0.3375
  153MOL0     C20583   6.640  11.309  10.807 -0.1725 -0.3449 -0.2536
  153MOL0     C20584   6.702  11.388  10.737 -0.2304  0.1976  0.2415
  153MOL0     C20585   6.962  11.331  11.063  0.4665 -0.1389  0.5193
  153MOL0     C20586   7.088  11.263  11.040  0.1229 -0.8728  0.2414
  153MOL0     C20587   7.105  11.196  10.908  0.3056  0.6708  0.8885
  153MOL0     H20588   7.428  10.934  11.324 -0.1776  2.8056  0.7617
  153MOL0     H20589   7.623  10.798  11.283 -0.0115  0.8534  1.2191
  153MOL0     H20590   7.898  10.845  11.362 -1.3922 -1.5562  1.0269
  153MOL0     H20591   7.832  10.706  11.280 -0.5176 -0.1635 -0.1832
  153MOL0     H20592   8.032  10.678  11.135  0.0044 -1.5848  0.4402
  153MOL0     H20593   8.076  10.661  11.295 -2.4376 -2.9287 -1.3705
  153MOL0     H20594   8.206  10.888  11.293  3.0139  1.1605 -1.3347
  153MOL0     H20595   8.136  10.925  11.134  0.1339 -1.1020 -0.0473
  153MOL0     H20596   8.300  10.673  11.216  0.9188 -1.0263 -1.3326
  153MOL0     H20597   8.232  10.699  11.051 -2.0790  2.0628 -0.2748
  153MOL0     H20598   8.381  10.889  11.013 -0.5001 -2.2157 -1.3141
  153MOL0     H20599   8.432  10.871  11.185  0.5245 -1.6566  0.8306
  153MOL0     H20600   8.515  10.632  11.135  1.6694 -0.0960 -0.5276
  153MOL0     H20601   8.470  10.670  10.966 -1.2380  2.5150 -0.9930
  153MOL0     H20602   8.639  10.837  10.946 -1.4918  0.1242  0.5740
  153MOL0     H20603   8.696  10.673  10.987 -1.5228 -1.4738  0.1895
  153MOL0     H20604   8.693  10.939  11.160  2.6861  0.3649 -1.7762
  153MOL0     H20605   8.712  10.780  11.240  1.1720 -0.5695  1.0053
  153MOL0     H20606   8.926  10.617  11.126 -0.6013  0.5362  0.8324
  153MOL0     H20607   9.232  10.644  11.134  0.3080 -1.4882 -1.4025
  153MOL0     H20608   9.165  10.620  10.969  0.3866 -1.5061  0.1475
  153MOL0     H20609   9.273  10.819  10.888 -0.5970 -0.5177  0.2866
  153MOL0     H20610   9.308  10.877  11.045 -1.4037 -0.4701  1.4348
  153MOL0     H20611   9.421  10.628  10.910 -0.1004 -1.2894  2.4743
  153MOL0     H20612   9.461  10.669  11.080 -1.3427 -1.1498  0.1347
  153MOL0     H20613   9.633  10.753  10.894  0.5758  2.4475 -4.3727
  153MOL0     H20614   9.574  10.888  10.994  0.6493 -0.4136  0.3664
  153MOL0     H20615   9.714  10.986  10.869 -1.1007 -1.2319  0.7559
  153MOL0     H20616   9.868  11.100  10.696  0.0623 -2.0677 -0.1624
  153MOL0     H20617  10.190  11.103  10.443 -0.4449  0.6120  0.3891
  153MOL0     H20618  10.357  11.215  10.290 -0.2723 -2.0353 -1.1662
  153MOL0     H20619  10.345  11.545  10.297  1.6650  1.2388  0.6205
  153MOL0     H20620  10.470  11.444  10.272  2.3270  1.7590 -1.0458
  153MOL0     H20621  10.480  11.567  10.032 -2.0705 -3.2434  2.0928
  153MOL0     H20622  10.381  11.687  10.109  0.7850  1.8589  0.6270
  153MOL0     H20623  10.582  11.786  10.154  0.4129  0.0982  0.5366
  153MOL0     H20624  10.541  11.697  10.298 -2.7388  0.7035 -0.7772
  153MOL0     H20625  10.716  11.613  10.059 -3.7235  0.8068 -0.3058
  153MOL0     H20626  10.702  11.518  10.210 -1.2964 -0.0095 -2.1905
  153MOL0     H20627  10.822  11.666  10.332  1.4341  0.8094  1.4180
  153MOL0     H20628  10.814  11.800  10.206 -1.8390 -0.3494  0.8594
  153MOL0     H20629  10.980  11.555  10.208 -3.1251 -0.8229  2.4485
  153MOL0     H20630  10.954  11.657  10.058 -0.4452 -0.6925  0.5335
  153MOL0     H20631  11.084  11.757  10.319 -0.1850  1.0955  0.1945
  153MOL0     H20632  11.034  11.863  10.191 -4.0949 -0.3775 -0.5965
  153MOL0     H20633  11.230  11.635  10.183  0.3552  0.4987 -0.8559
  153MOL0     H20634  11.171  11.734  10.041 -0.2193 -0.5196 -0.0186
  153MOL0     H20635  10.088  11.496  10.162  1.1213  0.0284 -0.4860
  153MOL0     H20636   9.905  11.384  10.342  0.9100  0.3792  0.5395
  153MOL0     H20637   9.624  10.958  10.379  2.6693 -1.4837 -1.5731
  153MOL0     H20638   9.470  10.853  10.559  0.5146 -1.0238  0.7293
  153MOL0     H20639   7.831  11.121  11.111  0.2685 -0.5055  0.8373
  153MOL0     H20640   7.620  11.268  11.151 -0.0256  0.2088  0.3981
  153MOL0     H20641   7.214  11.318  11.358 -0.1219  1.8506 -0.7679
  153MOL0     H20642   7.003  11.404  11.388 -0.8638  0.1139  0.8931
  153MOL0     H20643   6.747  11.461  11.037  0.9530 -0.2375 -0.7549
  153MOL0     H20644   6.628  11.513  11.150 -1.6299 -2.5500 -0.3932
  153MOL0     H20645   6.573  11.292  11.224 -0.1765  0.0449  0.1277
  153MOL0     H20646   6.697  11.208  11.122 -0.8128 -0.6733  1.5848
  153MOL0     H20647   6.485  11.386  10.985  1.0999 -0.0374 -0.5960
  153MOL0     H20648   6.434  11.234  11.066  1.6269 -1.3051  0.9330
  153MOL0     H20649   6.627  11.128  10.907 -1.8493 -1.0446  0.3469
  153MOL0     H20650   6.471  11.176  10.842  0.2257  1.5592 -0.5904
  153MOL0     H20651   6.738  11.474  10.684 -3.2439  0.9287 -0.8585
  153MOL0     H20652   6.894  11.331  10.978 -0.7992 -3.3457  1.3929
  153MOL0     H20653   7.189  11.248  10.860  0.7496 -1.8096 -1.2486
  153MOL0     H20654   7.124  11.090  10.923 -1.1829  0.3320  0.5258
  153MOL0     H20655   7.016  11.205  10.844  0.5997 -1.1751  0.1664
  154MOL0     O20656   9.036   4.099   6.544  0.4468  0.0769 -0.2656
  154MOL0     C20657   9.076   4.129   6.434 -0.2295  0.6018  0.8822
  154MOL0     O20658   9.003   4.137   6.321  0.3459  0.4039 -0.7426
  154MOL0     C20659   8.880   4.184   6.334 -0.7774  0.7737  0.1812
  154MOL0     C20660   8.842   4.281   6.428  0.5059  0.1748 -0.0377
  154MOL0     C20661   8.709   4.323   6.440 -0.3769 -0.1110  0.8229
  154MOL0     C20662   8.612   4.268   6.347 -0.5721 -0.2621 -0.3183
  154MOL0     O20663   8.483   4.295   6.362  0.0546 -0.5284 -0.2104
  154MOL0     C20664   8.375   4.220   6.291  0.5426 -0.9182  0.3293
  154MOL0     C20665   8.253   4.272   6.359 -0.2844  0.6537 -0.2690
  154MOL0     C20666   8.214   4.407   6.311  0.0456  0.5644 -0.5605
  154MOL0     C20667   8.084   4.458   6.377  0.2484  0.0709  0.1243
  154MOL0     C20668   7.973   4.428   6.285 -0.5714  1.1072 -0.5656
  154MOL0     C20669   7.831   4.473   6.341  0.2567 -0.5085  0.3523
  154MOL0     C20670   7.721   4.404   6.270  0.6259 -0.4558  0.2539
  154MOL0     C20671   7.658   4.488   6.150  0.0618  0.5296 -0.3507
  154MOL0     N20672   7.747   4.565   6.070  0.3368 -0.2192 -0.9000
  154MOL0     C20673   7.786   4.697   6.091  0.4953 -0.5054 -0.5170
  154MOL0     C20674   7.896   4.717   6.013  0.1492 -0.2663 -0.1568
  154MOL0     C20675   7.946   4.858   5.993 -0.3406  0.3076 -0.0294
  154MOL0     C20676   7.996   4.922   6.119  0.7255  1.2169 -0.4922
  154MOL0     C20677   8.065   5.054   6.090  0.1457 -0.3459  0.4567
  154MOL0     C20678   8.216   5.033   6.079  0.2245 -1.2038 -0.3801
  154MOL0     O20679   8.285   5.155   6.059  0.0690 -0.9154  0.1562
  154MOL0     C20680   8.417   5.132   6.067 -0.2815  0.0034  1.2645
  154MOL0     C20681   8.491   5.216   6.155  0.2933 -0.1370  0.2584
  154MOL0     C20682   8.631   5.209   6.161 -0.0028 -0.1907 -0.6165
  154MOL0     C20683   8.708   5.118   6.077 -0.6422  0.5449  0.1899
  154MOL0     C20684   8.855   5.121   6.076 -0.0779  0.6684  0.3280
  154MOL0     O20685   8.913   5.038   5.980  0.0011  0.1351  0.7446
  154MOL0     C20686   9.029   5.074   5.915  0.2142  1.1337  0.2778
  154MOL0     C20687   9.101   4.984   5.847 -0.7452 -0.1853 -0.2027
  154MOL0     C20688   9.212   5.028   5.765  0.6772 -0.4571  0.1989
  154MOL0     C20689   9.252   5.155   5.757 -0.1158  0.6471 -0.3698
  154MOL0     O20690   9.351   5.200   5.680 -0.5483 -0.3422  0.2205
  154MOL0     C20691   9.405   5.114   5.579  0.4848  0.2103  0.6136
  154MOL0     C20692   9.508   5.206   5.509  0.3026 -0.5024 -1.0094
  154MOL0     C20693   9.638   5.204   5.590  0.3953 -0.5053  0.0991
  154MOL0     C20694   9.748   5.283   5.513 -1.0900 -0.2026  1.2954
  154MOL0     C20695   9.883   5.263   5.583 -1.4305 -0.2035  0.1363
  154MOL0     C20696  10.009   5.341   5.514  0.7540  0.6220 -0.2864
  154MOL0     C20697  10.003   5.298   5.364 -0.1122  0.8123  0.0556
  154MOL0     C20698  10.135   5.331   5.296 -0.3466 -0.0492  0.2466
  154MOL0    Cl20699  10.198   5.495   5.322  0.0664 -0.5991 -0.2320
  154MOL0     C20700   9.179   5.246   5.825  0.2728  0.9080 -0.2389
  154MOL0     C20701   9.065   5.211   5.895  0.6298  0.9565  0.1802
  154MOL0     O20702   8.917   5.186   6.155 -0.0742  0.1536  0.1286
  154MOL0     C20703   8.636   5.045   5.984 -0.1803  0.4441  0.0794
  154MOL0     C20704   8.497   5.063   5.971  0.4388  0.4839 -0.3358
  154MOL0     N20705   7.919   4.598   5.946 -0.3265  0.0855  0.8893
  154MOL0     N20706   7.832   4.517   5.982  0.4884  1.1898  0.4791
  154MOL0     C20707   8.658   4.186   6.248  0.3367 -0.1502 -0.1051
  154MOL0     C20708   8.778   4.138   6.241 -0.8691  0.5156 -0.1779
  154MOL0     C20709   9.229   4.137   6.429  0.2579  0.0957 -1.2151
  154MOL0     C20710   9.296   4.021   6.463 -0.1312  0.1955  0.2545
  154MOL0     C20711   9.437   4.023   6.444 -0.6086  0.8014 -0.1849
  154MOL0     C20712   9.509   4.133   6.396 -0.3009 -1.0400 -0.2220
  154MOL0     O20713   9.651   4.146   6.402  0.2722  0.0720 -0.0036
  154MOL0     C20714   9.726   4.032   6.438 -0.5002 -0.7548  0.4012
  154MOL0     C20715   9.718   3.921   6.332 -0.2377  0.3789 -0.3030
  154MOL0     C20716   9.727   3.981   6.191 -0.3249  0.5340  0.7293
  154MOL0     C20717   9.780   3.874   6.089 -0.4087 -0.1850  0.3368
  154MOL0     C20718   9.837   3.950   5.978 -0.0575 -0.3972 -0.7722
  154MOL0     C20719   9.880   4.013   5.891 -0.0063 -0.5616 -0.5911
  154MOL0     C20720   9.437   4.250   6.371  0.1538  0.6446 -0.9951
  154MOL0     C20721   9.298   4.252   6.385  0.2928  0.0851  0.7418
  154MOL0     C20722   9.235   4.381   6.346  0.1611 -0.8843 -0.1299
  154MOL0     H20723   8.918   4.324   6.493  2.0309 -0.5151 -1.2914
  154MOL0     H20724   8.685   4.402   6.510  2.5724 -0.6941  2.6689
  154MOL0     H20725   8.358   4.237   6.184  1.6376  2.4669  0.5854
  154MOL0     H20726   8.396   4.113   6.299  0.1561 -0.9189  1.5193
  154MOL0     H20727   8.257   4.273   6.469 -2.7283  2.1877 -0.1210
  154MOL0     H20728   8.169   4.204   6.347 -0.2630  1.0402 -3.3391
  154MOL0     H20729   8.211   4.408   6.201  1.8793  2.6788 -0.6549
  154MOL0     H20730   8.287   4.487   6.328 -0.0187  0.2220  1.6119
  154MOL0     H20731   8.065   4.436   6.482  0.1933 -0.7081 -0.0381
  154MOL0     H20732   8.091   4.567   6.369  1.8636 -0.1644 -3.0946
  154MOL0     H20733   7.983   4.473   6.186 -1.7349  1.4962 -0.5284
  154MOL0     H20734   7.967   4.319   6.275 -0.7305  0.9886  0.5917
  154MOL0     H20735   7.830   4.443   6.446 -1.5104 -1.6044  0.0532
  154MOL0     H20736   7.811   4.581   6.347  2.5917 -0.0982  2.2239
  154MOL0     H20737   7.649   4.395   6.352  0.3549  1.0723  0.2029
  154MOL0     H20738   7.734   4.301   6.233 -0.9906 -1.7952  3.0499
  154MOL0     H20739   7.594   4.416   6.098  1.0264 -0.3171 -0.4114
  154MOL0     H20740   7.580   4.554   6.189  0.5763  0.0988  1.5143
  154MOL0     H20741   7.733   4.772   6.148  1.4525 -0.3532  0.2033
  154MOL0     H20742   8.017   4.871   5.912 -1.8696  1.7121 -1.2171
  154MOL0     H20743   7.861   4.910   5.948  0.3640  0.8667 -0.7253
  154MOL0     H20744   7.904   4.924   6.180  0.2825 -2.9251 -0.7589
  154MOL0     H20745   8.060   4.857   6.179 -2.9440 -1.6850  0.7284
  154MOL0     H20746   8.053   5.128   6.170  1.7220  2.1859 -1.4745
  154MOL0     H20747   8.036   5.103   5.997  1.4728  1.0213  0.7207
  154MOL0     H20748   8.239   4.965   5.996  2.4687  0.1767 -0.9786
  154MOL0     H20749   8.249   4.982   6.170  2.6654  1.5164  0.3911
  154MOL0     H20750   8.427   5.287   6.206  0.8391 -0.8391  2.0137
  154MOL0     H20751   8.677   5.269   6.239 -3.2085  1.3334  0.2858
  154MOL0     H20752   9.070   4.880   5.851 -2.9972  0.3802 -1.2686
  154MOL0     H20753   9.258   4.955   5.699 -1.3980 -0.4509 -1.3541
  154MOL0     H20754   9.447   5.024   5.624  1.5015  0.2391 -0.2306
  154MOL0     H20755   9.326   5.086   5.509  2.5520  0.5391 -2.0070
  154MOL0     H20756   9.537   5.174   5.409  1.3806 -0.7860 -0.6238
  154MOL0     H20757   9.469   5.307   5.497 -1.9164 -1.3021 -0.9763
  154MOL0     H20758   9.619   5.254   5.686 -0.6500 -1.0168  0.1794
  154MOL0     H20759   9.674   5.102   5.603 -1.0341 -0.7837  2.7103
  154MOL0     H20760   9.722   5.388   5.498  0.4837  0.1795  1.0774
  154MOL0     H20761   9.760   5.240   5.413 -0.5370 -1.7000  1.9776
  154MOL0     H20762   9.914   5.158   5.578  1.0342  0.4768 -4.3436
  154MOL0     H20763   9.886   5.288   5.689  1.5214 -2.2947  0.6754
  154MOL0     H20764   9.998   5.449   5.519 -0.6601  0.7988 -4.0104
  154MOL0     H20765  10.106   5.309   5.553  0.6303  0.0349 -0.4394
  154MOL0     H20766   9.928   5.348   5.303 -0.1247 -1.2391 -1.7423
  154MOL0     H20767   9.983   5.191   5.349  1.3745  0.3115  1.3770
  154MOL0     H20768  10.211   5.260   5.331  0.5814  0.5139 -0.5468
  154MOL0     H20769  10.133   5.309   5.188  0.4352 -3.1921  0.7607
  154MOL0     H20770   9.199   5.352   5.818  0.7904  0.9004  0.8916
  154MOL0     H20771   8.999   5.282   5.945 -0.7388 -0.0276 -0.1533
  154MOL0     H20772   8.691   4.984   5.913  0.6414 -1.6915  2.4320
  154MOL0     H20773   8.453   5.015   5.884 -1.5329  1.6382 -0.0433
  154MOL0     H20774   8.588   4.143   6.177  0.1302 -2.5179  1.4178
  154MOL0     H20775   8.816   4.065   6.170  4.0089 -0.2693  2.7610
  154MOL0     H20776   9.254   3.927   6.497 -2.7008  1.6048  1.2309
  154MOL0     H20777   9.485   3.932   6.479 -0.0334  0.0942 -2.6484
  154MOL0     H20778   9.700   3.991   6.536  1.1553  0.5806  1.4577
  154MOL0     H20779   9.828   4.071   6.445 -1.6278  2.6412 -0.2840
  154MOL0     H20780   9.617   3.881   6.342 -0.9726  1.9565 -1.0160
  154MOL0     H20781   9.799   3.848   6.346  0.3525  0.9829 -0.5499
  154MOL0     H20782   9.800   4.062   6.185 -0.2575  0.6269  2.3508
  154MOL0     H20783   9.629   4.018   6.161  0.1300  1.5051  0.4047
  154MOL0     H20784   9.858   3.807   6.126 -2.2349 -0.9707  2.9981
  154MOL0     H20785   9.691   3.816   6.064 -1.4326  0.7027  1.7605
  154MOL0     H20786   9.933   4.071   5.818  1.2605  0.6131  1.1794
  154MOL0     H20787   9.491   4.339   6.339 -0.4574  1.5197  0.3095
  154MOL0     H20788   9.308   4.462   6.342 -1.3081  0.4931 -0.0999
  154MOL0     H20789   9.194   4.373   6.245  0.4684  2.5071 -0.6418
  154MOL0     H20790   9.150   4.411   6.408  0.7764 -0.7756  0.6784
  155MOL0     O20791   8.440   5.325   3.504  0.4401 -0.0314  0.5598
  155MOL0     C20792   8.432   5.335   3.384 -0.6777 -0.5807 -0.7813
  155MOL0     O20793   8.517   5.404   3.311  0.5937  0.6428  1.0546
  155MOL0     C20794   8.614   5.483   3.366 -0.0289 -0.2658 -1.0864
  155MOL0     C20795   8.702   5.446   3.465 -0.7087 -0.3979  0.3065
  155MOL0     C20796   8.799   5.534   3.514 -1.1259 -0.1454  0.3348
  155MOL0     C20797   8.805   5.661   3.463  0.1365 -0.0887 -0.2003
  155MOL0     O20798   8.900   5.747   3.516  0.4666  0.4734  0.0741
  155MOL0     C20799   8.986   5.803   3.418 -0.1848  0.1280  0.7153
  155MOL0     C20800   9.087   5.897   3.486 -0.3835 -0.8094 -0.5099
  155MOL0     C20801   9.190   5.824   3.569 -0.0909  1.0173 -0.6654
  155MOL0     C20802   9.140   5.791   3.713  0.1719  0.0170  0.0779
  155MOL0     C20803   9.243   5.729   3.798  0.5352 -0.3757 -0.1969
  155MOL0     C20804   9.321   5.599   3.739 -0.0421  0.0335  0.5744
  155MOL0     C20805   9.381   5.508   3.841 -0.2010 -0.2011  0.4276
  155MOL0     C20806   9.463   5.391   3.772  0.2475 -0.0965 -0.0184
  155MOL0     N20807   9.475   5.268   3.857 -0.6268 -0.0486 -0.1068
  155MOL0     C20808   9.387   5.180   3.902 -0.4584 -0.7683 -0.7505
  155MOL0     C20809   9.455   5.083   3.968 -0.0938  0.0850 -0.0207
  155MOL0     C20810   9.402   4.960   4.030  0.2468 -0.3552  0.4290
  155MOL0     C20811   9.477   4.829   4.001 -0.3598 -0.0689 -0.7020
  155MOL0     C20812   9.509   4.802   3.850  0.6100  0.3157  0.0814
  155MOL0     C20813   9.380   4.780   3.759 -0.3351 -0.5455  0.3679
  155MOL0     O20814   9.335   4.645   3.763 -0.2336  0.3487 -0.2840
  155MOL0     C20815   9.203   4.625   3.798 -0.1737  0.0669 -0.0417
  155MOL0     C20816   9.128   4.528   3.729 -0.0304  0.1518 -0.1275
  155MOL0     C20817   8.993   4.510   3.761 -0.0890 -1.1327  0.2053
  155MOL0     C20818   8.929   4.589   3.853  0.1952  0.0063 -0.0649
  155MOL0     C20819   8.779   4.590   3.881 -1.1042  0.9966  0.0427
  155MOL0     O20820   8.748   4.635   4.004 -0.0257 -0.5852 -0.5047
  155MOL0     C20821   8.612   4.660   4.029  0.8667  0.2345  0.0385
  155MOL0     C20822   8.536   4.574   4.106  0.6832  0.0732 -1.2145
  155MOL0     C20823   8.398   4.602   4.139  0.3892  0.1492 -0.6970
  155MOL0     C20824   8.339   4.725   4.094 -0.3359  0.0102  0.6209
  155MOL0     O20825   8.212   4.764   4.128 -0.2715 -0.5731 -0.3317
  155MOL0     C20826   8.185   4.758   4.272  0.0189 -0.3639 -0.2063
  155MOL0     C20827   8.085   4.650   4.305 -0.7047  0.1487  0.5061
  155MOL0     C20828   8.036   4.651   4.448 -0.6055 -0.2369 -0.6009
  155MOL0     C20829   8.130   4.588   4.554 -0.6580  0.6104 -0.0922
  155MOL0     C20830   8.065   4.587   4.694  0.5420 -0.0694 -0.2756
  155MOL0     C20831   8.154   4.523   4.807 -0.4509 -0.9149  0.1171
  155MOL0     C20832   8.281   4.605   4.848  0.3163  0.4850  0.0402
  155MOL0     C20833   8.340   4.550   4.969 -0.1185  0.2937 -0.4326
  155MOL0    Cl20834   8.356   4.383   4.958  0.0176 -0.0246  0.2814
  155MOL0     C20835   8.415   4.805   4.005  0.1165 -0.1785 -0.3305
  155MOL0     C20836   8.551   4.775   3.978  0.4147  0.1033 -0.7511
  155MOL0     O20837   8.705   4.552   3.790  0.1067  0.1877 -0.2593
  155MOL0     C20838   9.010   4.681   3.926 -0.6176  0.2030  0.7321
  155MOL0     C20839   9.147   4.691   3.908 -0.2877 -0.4059 -0.2283
  155MOL0     N20840   9.586   5.123   3.962 -0.6294  0.3989 -0.1146
  155MOL0     N20841   9.594   5.233   3.904 -0.4465 -0.4713 -1.0020
  155MOL0     C20842   8.711   5.703   3.366  0.0395  0.2221  0.6382
  155MOL0     C20843   8.613   5.615   3.316 -0.6980  0.0242  0.8820
  155MOL0     C20844   8.314   5.268   3.323  0.5138  0.8485 -1.1125
  155MOL0     C20845   8.192   5.248   3.399 -0.2547 -0.0376  0.2117
  155MOL0     C20846   8.074   5.207   3.336  0.3480 -1.0058 -0.4965
  155MOL0     C20847   8.069   5.179   3.206  0.4870 -0.6525 -1.1277
  155MOL0     O20848   7.942   5.158   3.156 -0.3763 -0.2714 -0.0493
  155MOL0     C20849   7.909   5.097   3.037 -0.1945 -0.1378 -0.6049
  155MOL0     C20850   7.945   4.943   3.054  0.4709 -0.0526  1.0731
  155MOL0     C20851   7.916   4.858   2.932 -0.4542 -0.1113  0.5113
  155MOL0     C20852   8.005   4.897   2.814  0.0476 -0.6689  1.1234
  155MOL0     C20853   8.140   4.853   2.826  0.2843 -0.1713  0.7511
  155MOL0     C20854   8.254   4.814   2.832 -0.2576  0.3952 -0.2007
  155MOL0     C20855   8.192   5.177   3.129 -0.1117 -0.4855  0.4743
  155MOL0     C20856   8.314   5.217   3.191  0.6917 -0.4333 -0.4053
  155MOL0     C20857   8.447   5.197   3.109  0.1740 -0.1527  0.1311
  155MOL0     H20858   8.696   5.346   3.507 -0.3427 -0.9895 -0.9744
  155MOL0     H20859   8.862   5.503   3.596 -1.7438  0.0182  0.8757
  155MOL0     H20860   9.033   5.725   3.358 -1.9287 -0.3415 -0.0954
  155MOL0     H20861   8.928   5.868   3.352  0.4208  1.0137  1.0398
  155MOL0     H20862   9.033   5.972   3.543  2.3890 -0.7541  2.3289
  155MOL0     H20863   9.134   5.956   3.406 -0.7372 -0.2768 -0.3313
  155MOL0     H20864   9.268   5.900   3.578 -0.4258  1.8825 -3.7650
  155MOL0     H20865   9.227   5.735   3.517 -2.2661  0.6541 -1.7067
  155MOL0     H20866   9.101   5.884   3.756 -0.4818  0.9190 -2.3040
  155MOL0     H20867   9.057   5.719   3.714 -0.2576  0.5113  0.4113
  155MOL0     H20868   9.307   5.812   3.828  0.7233 -0.8431  0.7193
  155MOL0     H20869   9.196   5.698   3.892 -2.0484 -1.1777 -1.6551
  155MOL0     H20870   9.263   5.553   3.659 -1.0917 -1.1873  1.9732
  155MOL0     H20871   9.404   5.645   3.683 -3.3362  2.1176 -3.1210
  155MOL0     H20872   9.298   5.469   3.901 -1.2688  1.8678  0.3927
  155MOL0     H20873   9.443   5.563   3.912 -1.2496  0.9161  0.5119
  155MOL0     H20874   9.418   5.343   3.685 -0.8456 -1.1025  1.0718
  155MOL0     H20875   9.561   5.431   3.743 -0.6914  2.2327 -0.2460
  155MOL0     H20876   9.279   5.191   3.903 -0.8664 -2.6249  4.2411
  155MOL0     H20877   9.392   4.977   4.138 -1.2700 -2.1012  0.6182
  155MOL0     H20878   9.301   4.950   3.989  0.2398  1.2723 -0.0162
  155MOL0     H20879   9.575   4.823   4.050 -1.0360 -2.3124  0.5065
  155MOL0     H20880   9.420   4.746   4.044 -0.6406  2.0753  3.5301
  155MOL0     H20881   9.575   4.715   3.849  0.8672  0.4317 -2.5651
  155MOL0     H20882   9.565   4.884   3.804 -1.3858  0.6734 -1.8925
  155MOL0     H20883   9.409   4.803   3.656 -4.3403 -3.3361 -1.6260
  155MOL0     H20884   9.304   4.856   3.782 -1.9932 -1.5006 -1.6790
  155MOL0     H20885   9.171   4.471   3.647 -0.6856 -0.5871  0.0241
  155MOL0     H20886   8.943   4.442   3.692  0.1418  0.9260 -2.1722
  155MOL0     H20887   8.589   4.494   4.156  2.0750  1.1895 -0.8216
  155MOL0     H20888   8.338   4.534   4.198  0.9834 -1.4995 -1.9100
  155MOL0     H20889   8.277   4.753   4.330  0.4699  0.9972 -0.7602
  155MOL0     H20890   8.135   4.851   4.301 -2.3600 -2.0247  1.4113
  155MOL0     H20891   7.999   4.664   4.240  0.2564  1.4472 -0.5474
  155MOL0     H20892   8.122   4.553   4.272 -1.4771  0.4247 -1.2922
  155MOL0     H20893   8.003   4.751   4.476 -3.6652 -0.8389 -1.6120
  155MOL0     H20894   7.942   4.594   4.444 -0.0847 -1.0931 -1.1082
  155MOL0     H20895   8.227   4.637   4.562 -0.7573  0.6319  1.1581
  155MOL0     H20896   8.148   4.481   4.537 -1.6818 -0.0005  2.2604
  155MOL0     H20897   7.972   4.530   4.693  0.8044 -0.5103 -0.1371
  155MOL0     H20898   8.029   4.684   4.729 -1.5460 -0.8056 -0.2472
  155MOL0     H20899   8.083   4.509   4.889 -0.9532  1.0824  0.0642
  155MOL0     H20900   8.187   4.425   4.772 -2.2046 -1.5133  0.0564
  155MOL0     H20901   8.260   4.710   4.870  2.3202  0.6699  1.3409
  155MOL0     H20902   8.354   4.595   4.767  0.9652  2.0166  0.4041
  155MOL0     H20903   8.442   4.585   4.986 -0.5734  1.4902 -0.0815
  155MOL0     H20904   8.284   4.588   5.055  1.7900 -0.1434  1.1006
  155MOL0     H20905   8.392   4.909   3.985  3.5953  1.0325  1.1857
  155MOL0     H20906   8.611   4.834   3.910 -0.3022 -1.9655 -3.3300
  155MOL0     H20907   8.956   4.734   4.004  0.6072  0.0681  1.7137
  155MOL0     H20908   9.204   4.757   3.973 -1.0377 -0.8655  0.9195
  155MOL0     H20909   8.719   5.801   3.319 -0.0898 -0.6206 -1.2643
  155MOL0     H20910   8.541   5.641   3.239 -1.0695 -3.0573  0.0490
  155MOL0     H20911   8.190   5.264   3.506  1.0945 -1.3508  0.4662
  155MOL0     H20912   7.980   5.209   3.391 -1.9528 -2.0614 -4.0184
  155MOL0     H20913   7.963   5.146   2.955  0.9907 -2.2006 -1.1361
  155MOL0     H20914   7.804   5.111   3.012 -1.3714  2.5457  4.5490
  155MOL0     H20915   7.884   4.900   3.133  2.2885 -1.9624  1.5235
  155MOL0     H20916   8.050   4.939   3.087 -0.0447 -0.8054  2.6897
  155MOL0     H20917   7.812   4.883   2.908  0.3784  2.5016 -0.7516
  155MOL0     H20918   7.943   4.759   2.969  0.3498 -0.0504  0.0987
  155MOL0     H20919   7.956   4.849   2.728 -2.3390 -2.1028  3.1468
  155MOL0     H20920   8.011   5.003   2.788 -2.7822 -0.8500 -0.7853
  155MOL0     H20921   8.359   4.792   2.832  0.3883  2.9601  1.9287
  155MOL0     H20922   8.180   5.143   3.027  0.2305 -0.1993  0.3369
  155MOL0     H20923   8.538   5.208   3.168  1.2412  3.0533 -1.8080
  155MOL0     H20924   8.464   5.094   3.077  2.0850  0.3422 -0.6025
  155MOL0     H20925   8.442   5.271   3.029  1.7702  0.5128  0.6180
  156MOL0     O20926   9.175   2.334  10.502 -0.3437 -0.1880  0.1881
  156MOL0     C20927   9.182   2.318  10.382  1.2147  0.0270  0.0583
  156MOL0     O20928   9.263   2.394  10.292  0.6522 -0.0795 -0.5196
  156MOL0     C20929   9.362   2.466  10.332 -0.5846 -0.0801  0.3329
  156MOL0     C20930   9.347   2.605  10.305  0.3352  0.2972  0.6639
  156MOL0     C20931   9.453   2.695  10.319  0.1372  0.7253 -0.3795
  156MOL0     C20932   9.568   2.646  10.391 -0.2016  0.5668  0.2973
  156MOL0     O20933   9.676   2.726  10.432 -0.4877  0.3260 -0.0887
  156MOL0     C20934   9.658   2.868  10.445 -0.0968  0.0794 -0.2018
  156MOL0     C20935   9.766   2.925  10.536 -0.8411  0.0374  0.3886
  156MOL0     C20936   9.858   3.019  10.465  0.2199 -0.6296 -0.6866
  156MOL0     C20937   9.921   3.111  10.563  0.0409 -0.6897 -0.2557
  156MOL0     C20938  10.066   3.119  10.558 -0.6091 -0.3332  0.0843
  156MOL0     C20939  10.136   3.233  10.633 -0.0089 -0.2889  0.2873
  156MOL0     C20940  10.288   3.224  10.609 -0.0295 -0.4941  0.0793
  156MOL0     C20941  10.356   3.328  10.710  0.3925 -0.2118  1.5561
  156MOL0     N20942  10.497   3.333  10.679 -0.1604  0.5744 -0.2013
  156MOL0     C20943  10.560   3.425  10.603  0.3384 -0.2030  0.1205
  156MOL0     C20944  10.688   3.373  10.567  0.0537  0.1894 -0.3872
  156MOL0     C20945  10.797   3.434  10.485  0.2948 -0.1424  0.3503
  156MOL0     C20946  10.938   3.433  10.547 -0.4827  0.1013  0.2302
  156MOL0     C20947  11.040   3.431  10.434  0.7865 -0.2853  0.8432
  156MOL0     C20948  11.037   3.555  10.348  0.1162  1.1803 -0.3264
  156MOL0     O20949  11.164   3.579  10.277  0.2087 -0.4052 -0.1177
  156MOL0     C20950  11.278   3.620  10.347 -0.3776 -0.0388 -0.5839
  156MOL0     C20951  11.401   3.571  10.298  0.1806  0.8530  0.0700
  156MOL0     C20952  11.526   3.619  10.347  1.1834  0.6623  0.5868
  156MOL0     C20953  11.528   3.726  10.436  0.0737  0.2518 -0.8071
  156MOL0     C20954  11.656   3.787  10.463 -0.4824  0.1398 -0.0522
  156MOL0     O20955  11.662   3.864  10.587  0.3142  0.4354  0.6215
  156MOL0     C20956  11.776   3.936  10.612 -0.4294 -1.0051 -0.1007
  156MOL0     C20957  11.874   3.865  10.686 -0.0475  0.2460 -0.0484
  156MOL0     C20958  11.988   3.929  10.735  0.7123  0.5940 -0.3818
  156MOL0     C20959  11.993   4.068  10.732  0.2530 -0.2913  0.2678
  156MOL0     O20960  12.091   4.128  10.796 -1.4033  0.2990 -1.1746
  156MOL0     C20961  12.112   4.264  10.780 -0.1717 -0.0509 -0.1339
  156MOL0     C20962  12.249   4.291  10.827  0.4571 -0.5606  0.4765
  156MOL0     C20963  12.296   4.433  10.801 -0.4160  0.0661  0.2066
  156MOL0     C20964  12.440   4.434  10.757  0.8577 -0.2332  0.4888
  156MOL0     C20965  12.489   4.575  10.722  0.4928  0.0042  0.0745
  156MOL0     C20966  12.643   4.554  10.687 -0.4151  1.0028  0.1081
  156MOL0     C20967  12.704   4.687  10.678 -0.7211  0.1919 -0.1861
  156MOL0     C20968  12.859   4.683  10.686  0.4225  1.1968  0.6624
  156MOL0    Cl20969  12.918   4.841  10.751  0.4011 -0.5823  0.0899
  156MOL0     C20970  11.901   4.135  10.650 -0.1443  0.0591 -0.2791
  156MOL0     C20971  11.788   4.068  10.584 -0.0636  0.4296 -0.6173
  156MOL0     O20972  11.750   3.755  10.391 -0.1355  0.0711  0.7934
  156MOL0     C20973  11.408   3.759  10.499  0.4085  0.4964 -1.0325
  156MOL0     C20974  11.281   3.700  10.462 -0.4405  0.6244 -0.0629
  156MOL0     N20975  10.697   3.247  10.635 -0.3020  0.3190 -1.1977
  156MOL0     N20976  10.587   3.228  10.709  0.2827  0.2888  0.3739
  156MOL0     C20977   9.579   2.508  10.428  0.5197  0.9642 -0.3063
  156MOL0     C20978   9.467   2.424  10.401 -0.4594  0.1904  0.7022
  156MOL0     C20979   9.080   2.230  10.316 -0.0972 -0.3826 -0.2498
  156MOL0     C20980   9.065   2.239  10.179  0.7515 -0.9717  0.9440
  156MOL0     C20981   8.978   2.156  10.110  0.5469  0.3271  0.5853
  156MOL0     C20982   8.882   2.068  10.173  0.1535 -0.3774  0.6961
  156MOL0     O20983   8.797   1.981  10.099  0.1956 -0.5877  0.3909
  156MOL0     C20984   8.818   1.962   9.965 -0.0769  0.5870  0.9033
  156MOL0     C20985   8.738   1.836   9.921 -0.2891  0.4983  0.0587
  156MOL0     C20986   8.594   1.867   9.882 -0.3848 -0.3971  0.6515
  156MOL0     C20987   8.496   1.835   9.991  0.4725 -0.0050  0.0850
  156MOL0     C20988   8.361   1.841   9.930  0.4033 -0.1134  0.1830
  156MOL0     C20989   8.257   1.856   9.872  0.1672 -0.2371 -0.8676
  156MOL0     C20990   8.886   2.063  10.311 -0.9200  0.5005  0.1108
  156MOL0     C20991   8.980   2.145  10.384  0.0089  0.8481 -0.2247
  156MOL0     C20992   8.950   2.146  10.532  0.3711 -0.5746  0.3597
  156MOL0     H20993   9.248   2.629  10.266 -0.3784 -3.2715 -0.0203
  156MOL0     H20994   9.447   2.798  10.286 -0.9641  0.8434  0.1309
  156MOL0     H20995   9.651   2.914  10.346 -0.0379 -0.5414 -0.5005
  156MOL0     H20996   9.562   2.886  10.495 -0.2828 -0.2858 -0.4249
  156MOL0     H20997   9.828   2.844  10.574 -0.4754  0.2775  0.3098
  156MOL0     H20998   9.718   2.971  10.623  1.2980 -2.7826  3.2892
  156MOL0     H20999   9.810   3.069  10.381 -0.9078 -1.6134 -0.6561
  156MOL0     H21000   9.942   2.964  10.421  1.1955  1.3347 -1.4284
  156MOL0     H21001   9.880   3.210  10.540  2.0886 -0.3450 -3.0325
  156MOL0     H21002   9.902   3.089  10.669 -0.7357  0.8289 -0.0503
  156MOL0     H21003  10.101   3.028  10.607  0.9467  0.8201  1.2169
  156MOL0     H21004  10.088   3.132  10.451 -1.1277  3.5947  0.2880
  156MOL0     H21005  10.097   3.333  10.613  0.7494  0.8504  3.9154
  156MOL0     H21006  10.131   3.202  10.737  3.2403 -1.8985  0.0733
  156MOL0     H21007  10.304   3.261  10.508 -2.9994  0.6174 -0.1059
  156MOL0     H21008  10.326   3.122  10.619 -1.2905 -0.8257  2.2243
  156MOL0     H21009  10.312   3.427  10.694 -2.6357 -1.7664 -0.8101
  156MOL0     H21010  10.323   3.301  10.811  0.2210 -0.2740  1.4838
  156MOL0     H21011  10.507   3.508  10.557 -2.4883 -0.1385  3.0923
  156MOL0     H21012  10.806   3.374  10.394  1.7462  1.0068 -0.3180
  156MOL0     H21013  10.766   3.534  10.455 -0.4088 -0.9800 -1.8340
  156MOL0     H21014  10.950   3.520  10.612  1.9266 -0.4416  0.6042
  156MOL0     H21015  10.962   3.346  10.609  3.1308  1.4978  1.0733
  156MOL0     H21016  11.028   3.346  10.366  2.4665  1.0603 -1.2774
  156MOL0     H21017  11.133   3.436  10.490  0.2095  3.7558  1.8000
  156MOL0     H21018  11.016   3.633  10.422  0.3595  0.1540  0.8786
  156MOL0     H21019  10.956   3.552  10.275  0.1313 -1.0385 -0.3096
  156MOL0     H21020  11.389   3.491  10.225  0.4083  1.6971 -0.9288
  156MOL0     H21021  11.608   3.571  10.294 -0.6340 -1.5582 -0.4247
  156MOL0     H21022  11.867   3.760  10.714  1.5649  0.0612 -0.2643
  156MOL0     H21023  12.052   3.882  10.810  0.0015 -0.3733 -0.3554
  156MOL0     H21024  12.120   4.295  10.676  0.9892  1.3353  0.3421
  156MOL0     H21025  12.037   4.318  10.838  0.4902 -0.6513  1.3269
  156MOL0     H21026  12.252   4.275  10.935 -0.2701  0.5572  0.6719
  156MOL0     H21027  12.311   4.219  10.773 -1.3902 -0.4000 -2.0375
  156MOL0     H21028  12.235   4.476  10.721  1.9911  0.6916 -1.4027
  156MOL0     H21029  12.285   4.486  10.896  1.4058  0.3734  0.2765
  156MOL0     H21030  12.446   4.370  10.669 -1.9390  1.0902 -0.7810
  156MOL0     H21031  12.504   4.388  10.833  0.0780 -0.5296  0.9813
  156MOL0     H21032  12.490   4.639  10.811 -0.1340 -2.8530  2.3014
  156MOL0     H21033  12.441   4.624  10.637 -1.5852  0.3198  1.3760
  156MOL0     H21034  12.701   4.490  10.754 -0.3872  0.3075 -0.5660
  156MOL0     H21035  12.643   4.500  10.592  0.9517 -1.1784  1.2428
  156MOL0     H21036  12.679   4.754  10.760  0.9232  1.3089 -0.5560
  156MOL0     H21037  12.662   4.738  10.590 -2.4680  1.1471  1.1220
  156MOL0     H21038  12.899   4.600  10.744 -0.9872 -0.8536 -1.1175
  156MOL0     H21039  12.903   4.672  10.586 -1.4457 -2.5297  0.0967
  156MOL0     H21040  11.902   4.243  10.648 -1.6536  0.2704  3.2223
  156MOL0     H21041  11.720   4.134  10.531  1.0118  0.9050 -1.4452
  156MOL0     H21042  11.401   3.846  10.564 -3.2025  1.0821 -1.9967
  156MOL0     H21043  11.191   3.732  10.513  0.0379  1.0448  0.5193
  156MOL0     H21044   9.672   2.470  10.470 -0.7077 -1.8612  0.0969
  156MOL0     H21045   9.474   2.322  10.437 -0.0970 -0.5252 -1.3051
  156MOL0     H21046   9.134   2.302  10.124 -0.9665  1.6325  1.6222
  156MOL0     H21047   8.985   2.164  10.002 -0.9521 -2.1159  0.2371
  156MOL0     H21048   8.926   1.948   9.953 -0.2711 -2.3534  1.7501
  156MOL0     H21049   8.789   2.043   9.897  0.6155  0.1559  0.0645
  156MOL0     H21050   8.734   1.762  10.002 -1.5430 -0.8914 -1.2030
  156MOL0     H21051   8.799   1.793   9.841 -0.5225 -0.4517  0.3786
  156MOL0     H21052   8.573   1.812   9.790 -0.0576  0.0834  0.2847
  156MOL0     H21053   8.598   1.973   9.856  2.0082 -1.1861 -2.9880
  156MOL0     H21054   8.505   1.732  10.025  1.4206 -0.3423 -1.1118
  156MOL0     H21055   8.512   1.907  10.072  4.4747  1.3333 -1.6046
  156MOL0     H21056   8.176   1.865   9.802  0.6223 -0.2370 -1.4030
  156MOL0     H21057   8.817   2.005  10.371 -2.8211  3.0372  0.5096
  156MOL0     H21058   8.929   2.247  10.568  2.7568  0.0538  0.1948
  156MOL0     H21059   8.855   2.093  10.546  0.4169 -1.4950 -2.2986
  156MOL0     H21060   9.026   2.102  10.598  1.5939  0.8466 -0.0371
  157MOL0     O21061   2.735   4.829   9.009  0.9961 -0.3324 -0.2061
  157MOL0     C21062   2.623   4.872   9.051 -0.9085  0.3714  0.0189
  157MOL0     O21063   2.600   4.999   9.071 -0.2141 -0.0594 -0.0890
  157MOL0     C21064   2.687   5.093   9.022 -0.5402  0.0185  0.4827
  157MOL0     C21065   2.825   5.098   9.065  0.8245  0.5746 -0.3687
  157MOL0     C21066   2.911   5.203   9.029  0.2514  1.1936  0.0456
  157MOL0     C21067   2.860   5.318   8.968 -0.1020  0.0747 -0.4406
  157MOL0     O21068   2.930   5.418   8.919 -0.1949 -0.4525  0.3219
  157MOL0     C21069   3.067   5.454   8.963 -0.0184 -0.7000 -0.4001
  157MOL0     C21070   3.125   5.553   8.868 -0.5015  0.1554  0.3036
  157MOL0     C21071   3.243   5.643   8.918  0.4817 -0.0465  0.6010
  157MOL0     C21072   3.362   5.555   8.931 -0.5027 -0.7191  0.4816
  157MOL0     C21073   3.490   5.644   8.960  0.1970 -0.3345 -0.5519
  157MOL0     C21074   3.624   5.565   8.985  0.2470 -0.4104 -0.0786
  157MOL0     C21075   3.622   5.453   9.098 -1.1453  1.1220 -0.0234
  157MOL0     C21076   3.768   5.414   9.100 -0.1430  0.1276  0.2924
  157MOL0     N21077   3.837   5.523   9.184  0.2988 -0.4144  0.2988
  157MOL0     C21078   3.902   5.631   9.121  0.5378  0.2345  0.0327
  157MOL0     C21079   3.940   5.701   9.229  0.0344 -0.1404  0.6708
  157MOL0     C21080   4.003   5.828   9.238 -0.3617 -0.6589  0.2132
  157MOL0     C21081   4.153   5.813   9.233 -0.6885 -0.8025 -0.7382
  157MOL0     C21082   4.221   5.940   9.283  0.7273  0.1745  0.2748
  157MOL0     C21083   4.230   5.953   9.440 -0.3517 -0.7761  0.3920
  157MOL0     O21084   4.277   6.084   9.456  0.4396 -0.0782  0.4177
  157MOL0     C21085   4.414   6.117   9.439 -1.0396 -0.7600 -0.0101
  157MOL0     C21086   4.446   6.249   9.462  0.5100 -0.0819 -0.5380
  157MOL0     C21087   4.581   6.288   9.442  0.0209  0.7837 -0.6034
  157MOL0     C21088   4.687   6.192   9.415 -0.1265  0.2638  0.1733
  157MOL0     C21089   4.820   6.248   9.397 -0.3261 -0.8053 -0.3054
  157MOL0     O21090   4.907   6.176   9.331  0.5227  0.2292  0.4621
  157MOL0     C21091   5.039   6.200   9.299  0.0594 -0.4761 -0.4795
  157MOL0     C21092   5.118   6.301   9.344 -0.2211 -0.3886 -1.3935
  157MOL0     C21093   5.258   6.302   9.315  0.6833  0.4955  0.2627
  157MOL0     C21094   5.317   6.209   9.226 -0.2645  0.3689 -0.7744
  157MOL0     O21095   5.450   6.230   9.195  1.0652  0.1826 -0.4843
  157MOL0     C21096   5.501   6.186   9.073  0.4701  0.0108  0.4253
  157MOL0     C21097   5.646   6.213   9.052 -0.2223 -0.9162  0.8843
  157MOL0     C21098   5.746   6.137   9.135 -1.5806 -0.0124 -0.4458
  157MOL0     C21099   5.886   6.169   9.077 -0.4551 -0.8896  0.1646
  157MOL0     C21100   6.005   6.103   9.154 -0.2288  0.7003 -0.4913
  157MOL0     C21101   6.131   6.136   9.087 -0.1000  0.1345  0.9071
  157MOL0     C21102   6.243   6.070   9.171  0.6719 -0.4601 -0.6288
  157MOL0     C21103   6.377   6.063   9.082 -0.9020  0.5715  0.0761
  157MOL0    Cl21104   6.461   6.223   9.097  0.3933 -0.2479  0.2033
  157MOL0     C21105   5.239   6.102   9.188  0.2451 -0.5288 -0.5798
  157MOL0     C21106   5.100   6.099   9.220  0.7081  0.2253 -0.0052
  157MOL0     O21107   4.846   6.357   9.445  0.3031  0.0221 -0.2286
  157MOL0     C21108   4.649   6.063   9.396 -0.0427  0.5385  0.1893
  157MOL0     C21109   4.520   6.024   9.409  0.6770 -0.3814  0.0497
  157MOL0     N21110   3.907   5.631   9.343 -0.2189  0.2052 -0.3641
  157MOL0     N21111   3.833   5.528   9.314 -0.2500 -0.7456 -0.1473
  157MOL0     C21112   2.726   5.313   8.924 -1.1173  0.2167  0.2419
  157MOL0     C21113   2.649   5.199   8.949  0.1348 -0.0278 -0.5506
  157MOL0     C21114   2.512   4.776   9.080  0.6615 -0.4418  0.3819
  157MOL0     C21115   2.516   4.646   9.031  1.1341 -0.0737  0.4877
  157MOL0     C21116   2.397   4.567   9.039 -0.5917 -0.0185 -0.8004
  157MOL0     C21117   2.276   4.612   9.088 -0.8519  0.0007 -0.8180
  157MOL0     O21118   2.162   4.538   9.114 -0.2194 -0.6330  0.3602
  157MOL0     C21119   2.167   4.402   9.057  0.7027 -0.3666 -0.9867
  157MOL0     C21120   2.035   4.323   9.053  0.7356  0.3985 -0.9092
  157MOL0     C21121   1.947   4.395   8.953 -0.9047 -0.5536 -0.1322
  157MOL0     C21122   1.814   4.332   8.976  0.3368 -0.5508  0.6755
  157MOL0     C21123   1.717   4.393   8.883 -0.7694 -0.5378  0.8420
  157MOL0     C21124   1.628   4.445   8.819  0.0891 -0.0808 -0.4666
  157MOL0     C21125   2.272   4.737   9.136  0.5624  0.3996  0.7652
  157MOL0     C21126   2.386   4.823   9.135 -0.1206  0.9752  0.1514
  157MOL0     C21127   2.366   4.959   9.207 -0.6423  0.2275  0.0396
  157MOL0     H21128   2.843   5.016   9.134  2.1517 -0.9235 -2.3929
  157MOL0     H21129   3.013   5.188   9.064  0.0011 -0.1077  0.2586
  157MOL0     H21130   3.073   5.513   9.055 -1.3171  0.3977 -0.9677
  157MOL0     H21131   3.131   5.366   8.962  0.9061 -0.1030 -3.3257
  157MOL0     H21132   3.042   5.612   8.829 -1.4832 -2.0619 -1.1856
  157MOL0     H21133   3.150   5.510   8.770 -4.1897  1.3121 -1.3435
  157MOL0     H21134   3.214   5.685   9.016  1.4991 -0.9246  1.2918
  157MOL0     H21135   3.258   5.719   8.841 -2.1219  0.5040  0.5383
  157MOL0     H21136   3.364   5.469   8.999  0.5319 -0.0006  1.4150
  157MOL0     H21137   3.375   5.513   8.831  0.8177 -0.1958  0.4109
  157MOL0     H21138   3.501   5.734   8.898  1.8550  0.1383  0.3796
  157MOL0     H21139   3.476   5.691   9.058  1.0855 -0.6918 -0.2480
  157MOL0     H21140   3.664   5.516   8.896 -1.6805 -2.4590  0.0939
  157MOL0     H21141   3.686   5.650   9.016 -1.6236  0.0115  2.9696
  157MOL0     H21142   3.561   5.365   9.074 -3.1779  2.8145 -1.4568
  157MOL0     H21143   3.590   5.480   9.198  1.4027 -0.7587  1.4147
  157MOL0     H21144   3.770   5.316   9.150  0.9291  1.0461  2.1495
  157MOL0     H21145   3.822   5.410   9.005 -0.5259  0.0718  0.0749
  157MOL0     H21146   3.909   5.660   9.017 -0.4844  1.3346  0.2362
  157MOL0     H21147   3.976   5.902   9.162  1.8945  0.7424  0.6985
  157MOL0     H21148   3.973   5.880   9.329 -0.9553 -0.1497 -0.2630
  157MOL0     H21149   4.191   5.743   9.309  3.5817  0.0180 -1.8676
  157MOL0     H21150   4.195   5.804   9.133  3.5708  0.7813  0.6857
  157MOL0     H21151   4.165   6.022   9.238  0.7965 -1.1092 -2.3544
  157MOL0     H21152   4.324   5.950   9.249  0.3158 -1.3630 -1.6099
  157MOL0     H21153   4.302   5.887   9.490 -0.7891 -0.4846  1.4146
  157MOL0     H21154   4.132   5.935   9.484  0.1564 -1.7115  1.1790
  157MOL0     H21155   4.366   6.317   9.489  0.1741 -1.9109  3.9778
  157MOL0     H21156   4.617   6.389   9.458  2.8547  0.1699 -2.3667
  157MOL0     H21157   5.081   6.384   9.402 -0.0915 -2.4407  1.8655
  157MOL0     H21158   5.317   6.390   9.341  1.3577 -0.3446  1.6860
  157MOL0     H21159   5.477   6.081   9.051 -0.3640  0.8911 -3.6383
  157MOL0     H21160   5.443   6.246   9.003  0.4393 -1.5878 -0.9989
  157MOL0     H21161   5.667   6.201   8.945  0.8480  2.7386  0.5440
  157MOL0     H21162   5.663   6.320   9.064  0.1604 -0.6961 -1.1766
  157MOL0     H21163   5.736   6.170   9.239  0.7546  0.6384 -0.3682
  157MOL0     H21164   5.729   6.029   9.148 -1.5539  0.1534  1.1378
  157MOL0     H21165   5.879   6.277   9.095 -1.3863 -1.1666  1.7135
  157MOL0     H21166   5.889   6.132   8.975 -2.7515 -3.6810  0.9646
  157MOL0     H21167   5.983   5.996   9.147 -1.8879  0.6987  2.6540
  157MOL0     H21168   6.004   6.130   9.260  1.1811  0.9137 -0.5090
  157MOL0     H21169   6.124   6.089   8.988  0.2087  1.2074  0.3677
  157MOL0     H21170   6.134   6.242   9.060 -1.1130  0.0379  0.3739
  157MOL0     H21171   6.214   5.969   9.202 -0.4913 -0.9406 -3.0072
  157MOL0     H21172   6.252   6.110   9.272  1.6424 -2.0215 -0.0584
  157MOL0     H21173   6.439   5.984   9.125 -1.1862  0.8640  1.0641
  157MOL0     H21174   6.365   6.037   8.977  1.0353 -1.5301  0.3051
  157MOL0     H21175   5.278   6.016   9.134 -2.6547 -1.9619 -0.5866
  157MOL0     H21176   5.028   6.029   9.180 -1.6040  1.9203  0.9715
  157MOL0     H21177   4.723   5.990   9.365 -0.0191 -0.0696  1.5897
  157MOL0     H21178   4.483   5.924   9.388  1.7010 -0.3995 -1.9001
  157MOL0     H21179   2.679   5.398   8.876 -2.8326 -1.9929 -2.3552
  157MOL0     H21180   2.550   5.197   8.904  0.2808 -0.5784 -0.8495
  157MOL0     H21181   2.604   4.621   8.971  1.3720  2.6284 -0.3931
  157MOL0     H21182   2.411   4.461   9.022  2.7289  0.2987 -0.7374
  157MOL0     H21183   2.236   4.347   9.122 -0.1285  1.0564  1.2670
  157MOL0     H21184   2.204   4.411   8.955  1.4368  0.9783 -0.6429
  157MOL0     H21185   1.980   4.318   9.148  2.9693 -1.2452  0.3931
  157MOL0     H21186   2.054   4.219   9.024  1.1098 -0.9870  3.4941
  157MOL0     H21187   1.980   4.365   8.853  2.1506  1.8700 -0.0301
  157MOL0     H21188   1.940   4.504   8.962  0.1553 -0.5815  1.4488
  157MOL0     H21189   1.807   4.229   8.941 -1.2400 -0.5705  0.9433
  157MOL0     H21190   1.775   4.327   9.078  0.5880 -0.8691  0.7563
  157MOL0     H21191   1.540   4.484   8.771 -0.4237  0.7246  1.0736
  157MOL0     H21192   2.180   4.762   9.187 -1.5326 -0.9097 -2.1143
  157MOL0     H21193   2.282   4.972   9.276  1.9132  0.6173  3.3288
  157MOL0     H21194   2.458   4.987   9.258  0.7625  0.6881 -2.5733
  157MOL0     H21195   2.347   5.031   9.128 -2.9951  0.2615  0.5692
  158MOL0     O21196   8.196   7.751   3.592  0.1699 -0.0767 -0.5084
  158MOL0     C21197   8.196   7.819   3.488  0.1884  0.1301 -0.6128
  158MOL0     O21198   8.303   7.868   3.426  0.4371 -0.1944 -0.4953
  158MOL0     C21199   8.431   7.854   3.486 -0.8009 -0.4594  0.7426
  158MOL0     C21200   8.519   7.964   3.508 -0.1712 -1.2212  0.3943
  158MOL0     C21201   8.656   7.948   3.545  0.8031  0.5452  0.8302
  158MOL0     C21202   8.709   7.814   3.554 -0.1426  0.5684  0.3679
  158MOL0     O21203   8.840   7.775   3.586  0.1329 -0.8038  0.5685
  158MOL0     C21204   8.904   7.872   3.675 -0.2917  0.0617  0.0266
  158MOL0     C21205   9.041   7.809   3.727  0.3556 -0.6985  0.3346
  158MOL0     C21206   9.130   7.916   3.798 -0.1506  0.5486 -0.0871
  158MOL0     C21207   9.264   7.850   3.838  0.6715  0.0557 -0.0591
  158MOL0     C21208   9.347   7.949   3.917  0.3267  0.7128 -0.2656
  158MOL0     C21209   9.479   7.882   3.958 -0.1926  0.1930 -0.6986
  158MOL0     C21210   9.576   7.982   4.035 -0.5141  0.7821  0.3345
  158MOL0     C21211   9.497   8.061   4.143  0.4287 -0.8998 -0.2891
  158MOL0     N21212   9.573   8.124   4.246 -0.2060 -0.4007  0.4590
  158MOL0     C21213   9.577   8.097   4.378 -0.2154  0.3408  0.0788
  158MOL0     C21214   9.676   8.181   4.424 -0.1802  0.0267 -0.9102
  158MOL0     C21215   9.711   8.195   4.568 -0.4122 -0.1099 -0.6368
  158MOL0     C21216   9.820   8.102   4.635 -0.5513 -0.4891 -0.3010
  158MOL0     C21217   9.839   8.124   4.787  1.0726  1.3574  1.0237
  158MOL0     C21218   9.970   8.059   4.845 -0.1081 -0.1909  0.3278
  158MOL0     O21219  10.089   8.133   4.812  0.0463 -0.2372 -0.4238
  158MOL0     C21220  10.197   8.050   4.827  0.7020  0.0301  0.2524
  158MOL0     C21221  10.267   8.064   4.943 -0.2210 -0.2372  0.2970
  158MOL0     C21222  10.377   7.980   4.965 -0.4272 -0.0431 -0.1025
  158MOL0     C21223  10.416   7.876   4.879 -0.0148  0.1824 -0.2569
  158MOL0     C21224  10.547   7.803   4.895 -0.0505  0.1614 -0.4636
  158MOL0     O21225  10.638   7.863   4.976 -0.9447 -0.1475 -0.4567
  158MOL0     C21226  10.764   7.811   4.986 -0.5102  0.4850 -0.4435
  158MOL0     C21227  10.864   7.894   5.023 -0.0192  0.5266 -0.0736
  158MOL0     C21228  11.001   7.864   5.031  0.4167 -0.0319 -0.4308
  158MOL0     C21229  11.041   7.732   5.021  0.0551  0.4851 -0.8331
  158MOL0     O21230  11.172   7.706   5.033 -0.1954  0.0362 -0.0441
  158MOL0     C21231  11.206   7.562   5.028  0.1807  0.0135  0.0696
  158MOL0     C21232  11.345   7.556   5.080 -0.4685  0.5690  0.1934
  158MOL0     C21233  11.413   7.416   5.056  0.5405 -0.3860 -0.0313
  158MOL0     C21234  11.570   7.431   5.055  0.0745 -1.2062  0.9060
  158MOL0     C21235  11.639   7.302   5.055  0.3225 -0.0957  0.0775
  158MOL0     C21236  11.789   7.330   5.073 -0.1871  0.8849  0.5525
  158MOL0     C21237  11.870   7.199   5.080  0.6069  0.4631  0.3122
  158MOL0     C21238  11.853   7.145   5.225  0.8111  0.0045 -0.1228
  158MOL0    Cl21239  11.960   7.009   5.253 -0.0414 -0.1561  0.4388
  158MOL0     C21240  10.943   7.639   4.995 -0.6858 -0.0662 -0.2826
  158MOL0     C21241  10.813   7.679   4.969 -0.3045 -0.3599 -0.4911
  158MOL0     O21242  10.562   7.701   4.831 -0.4862  0.6187 -0.0419
  158MOL0     C21243  10.333   7.860   4.765 -1.0504 -0.2790 -0.0786
  158MOL0     C21244  10.219   7.939   4.747 -0.4689  0.2204  0.0379
  158MOL0     N21245   9.721   8.255   4.320  0.0517  1.1549 -0.1438
  158MOL0     N21246   9.669   8.211   4.219  0.1249  0.1126  0.1676
  158MOL0     C21247   8.633   7.707   3.523  0.8036  0.4459 -0.3967
  158MOL0     C21248   8.500   7.732   3.490  0.2989  0.3110  0.8119
  158MOL0     C21249   8.066   7.849   3.426  0.2187 -0.2123  0.1092
  158MOL0     C21250   8.047   7.973   3.367  0.3183  0.1735 -0.2501
  158MOL0     C21251   7.924   8.015   3.325  0.5230  0.7355  0.4024
  158MOL0     C21252   7.815   7.931   3.318 -0.2783  0.3572 -1.0868
  158MOL0     O21253   7.690   7.964   3.271  0.4665 -0.4526 -0.9192
  158MOL0     C21254   7.690   8.031   3.144  0.2307 -0.5207 -0.5610
  158MOL0     C21255   7.649   8.181   3.158 -0.4212  0.0814 -0.2523
  158MOL0     C21256   7.668   8.251   3.025  0.4353 -0.5268  0.1703
  158MOL0     C21257   7.814   8.248   2.969 -0.3173  0.1210 -0.1519
  158MOL0     C21258   7.852   8.378   2.909 -0.1082 -0.1613  0.1151
  158MOL0     C21259   7.890   8.489   2.876  0.3274  0.7392 -0.5757
  158MOL0     C21260   7.831   7.802   3.373 -0.6189 -0.1551  0.6201
  158MOL0     C21261   7.956   7.759   3.429 -0.5700  0.1949 -0.5118
  158MOL0     C21262   7.967   7.622   3.478 -0.5626 -0.4689  0.2791
  158MOL0     H21263   8.486   8.067   3.515  0.8427 -0.9030  0.7978
  158MOL0     H21264   8.727   8.030   3.554  2.3487 -0.4884 -1.2067
  158MOL0     H21265   8.924   7.961   3.615 -1.6740  1.0071  0.8995
  158MOL0     H21266   8.841   7.890   3.763  2.6377  1.6397  1.9539
  158MOL0     H21267   9.082   7.758   3.639 -1.4191 -1.4326 -0.1229
  158MOL0     H21268   9.024   7.724   3.792 -1.8620  0.5077  1.4390
  158MOL0     H21269   9.087   7.955   3.890  3.4587  1.8370  1.2631
  158MOL0     H21270   9.134   8.002   3.730  0.5636 -0.3515 -1.2314
  158MOL0     H21271   9.254   7.760   3.899  2.0210 -2.0058 -2.6935
  158MOL0     H21272   9.322   7.823   3.750  2.0019  0.7420  0.5792
  158MOL0     H21273   9.370   8.033   3.850  0.9848  1.5582  0.9760
  158MOL0     H21274   9.282   7.993   3.994 -1.9542  1.0888 -2.2748
  158MOL0     H21275   9.451   7.797   4.021  2.2412  1.7917  2.9138
  158MOL0     H21276   9.543   7.842   3.879  2.1697 -1.5581  1.9398
  158MOL0     H21277   9.619   8.054   3.965 -1.0249  0.1550 -0.6447
  158MOL0     H21278   9.650   7.921   4.088 -1.7409  0.0135  1.2093
  158MOL0     H21279   9.462   8.148   4.087  2.4689  0.9998  1.1777
  158MOL0     H21280   9.417   8.002   4.189  0.5835 -1.4141 -0.6770
  158MOL0     H21281   9.518   8.026   4.436  0.8160 -3.0604 -2.6592
  158MOL0     H21282   9.739   8.300   4.580  0.9823 -0.4857 -0.4382
  158MOL0     H21283   9.615   8.188   4.621 -0.7652  2.6559 -0.7636
  158MOL0     H21284   9.803   7.997   4.610  0.2184 -0.0973 -2.6825
  158MOL0     H21285   9.910   8.131   4.581 -0.7874  0.4905 -0.1850
  158MOL0     H21286   9.760   8.077   4.845  3.6460 -0.6328  3.2077
  158MOL0     H21287   9.838   8.231   4.809  2.4030  1.2501  1.7185
  158MOL0     H21288   9.968   7.958   4.803  0.0079 -0.2100  0.3661
  158MOL0     H21289   9.971   8.043   4.954  0.5464  1.2645  0.5523
  158MOL0     H21290  10.246   8.142   5.015 -2.9177 -0.7609  0.1994
  158MOL0     H21291  10.421   7.986   5.064  0.1038 -1.0896 -0.2605
  158MOL0     H21292  10.853   8.002   5.023  0.0014  0.5616 -1.5828
  158MOL0     H21293  11.073   7.941   5.056  0.0873  0.0835  0.1868
  158MOL0     H21294  11.143   7.497   5.089 -1.0246 -1.0945 -2.2140
  158MOL0     H21295  11.203   7.514   4.930  1.2846  0.4315 -0.1897
  158MOL0     H21296  11.395   7.642   5.035  1.0127  0.4887  1.5998
  158MOL0     H21297  11.342   7.576   5.187 -1.1118  0.9503  0.1080
  158MOL0     H21298  11.381   7.352   5.139 -0.7230  1.0097  0.6321
  158MOL0     H21299  11.396   7.363   4.962  3.8866 -0.2498 -0.8370
  158MOL0     H21300  11.597   7.488   5.144 -2.8105  0.3090  0.9305
  158MOL0     H21301  11.608   7.484   4.967 -3.0875 -0.9053 -0.3993
  158MOL0     H21302  11.633   7.250   4.959  2.4141 -0.5699  0.1388
  158MOL0     H21303  11.609   7.238   5.139 -0.0414  0.5650  0.4517
  158MOL0     H21304  11.827   7.388   4.988 -0.3019 -1.8175 -1.4839
  158MOL0     H21305  11.801   7.385   5.167  0.9919 -0.9822  1.5527
  158MOL0     H21306  11.973   7.223   5.053 -0.5954  2.0361 -3.6475
  158MOL0     H21307  11.841   7.124   5.006  3.5962 -2.9677  2.2918
  158MOL0     H21308  11.891   7.217   5.298  2.5794 -0.5372 -0.4655
  158MOL0     H21309  11.751   7.121   5.257  1.8341 -0.8054  2.8094
  158MOL0     H21310  10.955   7.532   4.992 -0.0582 -0.0216  0.4367
  158MOL0     H21311  10.743   7.597   4.955  0.6963 -1.2602 -0.3813
  158MOL0     H21312  10.366   7.785   4.694 -0.1371  0.2940 -0.2792
  158MOL0     H21313  10.171   7.939   4.650 -2.3929  1.2080  0.9309
  158MOL0     H21314   8.663   7.604   3.538 -1.8202 -0.3755 -0.2783
  158MOL0     H21315   8.440   7.647   3.456 -0.3381  1.1012 -0.0938
  158MOL0     H21316   8.132   8.040   3.360  0.0141  1.1016  3.1391
  158MOL0     H21317   7.922   8.116   3.285  0.1476  1.0333  1.1573
  158MOL0     H21318   7.617   7.990   3.073 -2.5673  1.9192  0.6731
  158MOL0     H21319   7.790   8.028   3.100  0.3191  0.8773 -0.4808
  158MOL0     H21320   7.708   8.224   3.239 -1.5920 -0.7123  1.0845
  158MOL0     H21321   7.544   8.199   3.186 -0.8384  0.6175 -2.0662
  158MOL0     H21322   7.642   8.354   3.049 -0.7177 -0.6099 -0.6402
  158MOL0     H21323   7.599   8.204   2.955 -2.1129  1.6212  1.0808
  158MOL0     H21324   7.882   8.231   3.052 -0.4962  1.0356  0.1834
  158MOL0     H21325   7.829   8.166   2.898 -1.1557  1.8501 -2.4645
  158MOL0     H21326   7.930   8.575   2.826  2.4322  0.9969  1.3920
  158MOL0     H21327   7.743   7.738   3.365 -1.4604  1.2153 -1.7934
  158MOL0     H21328   7.957   7.621   3.587 -1.5019  0.0209  0.2077
  158MOL0     H21329   7.886   7.561   3.436 -0.3103 -1.0057  0.5624
  158MOL0     H21330   8.064   7.579   3.453 -0.8068 -0.1621 -1.3488
  159MOL0     O21331   3.775   8.592   4.090 -0.3030 -0.3873 -0.1034
  159MOL0     C21332   3.719   8.575   3.982 -0.1739 -0.4711 -0.4341
  159MOL0     O21333   3.782   8.516   3.873 -1.0968 -0.5943  0.0640
  159MOL0     C21334   3.911   8.468   3.889  1.2820 -0.2254  0.3153
  159MOL0     C21335   4.010   8.570   3.907  0.3926  0.3466  0.5430
  159MOL0     C21336   4.142   8.537   3.935 -0.3098  0.0958  0.9319
  159MOL0     C21337   4.189   8.405   3.920  0.2689 -1.5280 -0.3299
  159MOL0     O21338   4.324   8.388   3.924  0.1922 -0.1722  1.0509
  159MOL0     C21339   4.381   8.287   3.846  0.0294 -0.1169  0.7868
  159MOL0     C21340   4.514   8.335   3.795 -0.7132 -1.2179  0.5001
  159MOL0     C21341   4.493   8.442   3.686 -0.8968 -0.0201 -0.1821
  159MOL0     C21342   4.608   8.455   3.581  0.3582 -0.1453 -0.1872
  159MOL0     C21343   4.592   8.570   3.480  0.3556 -0.5885  0.4611
  159MOL0     C21344   4.700   8.551   3.380  0.0206 -1.0454  0.1292
  159MOL0     C21345   4.679   8.642   3.256  0.0851 -0.1454 -0.2165
  159MOL0     C21346   4.659   8.790   3.297 -0.2815  0.2711  0.4186
  159MOL0     N21347   4.773   8.833   3.378  0.0664  0.3377 -0.0027
  159MOL0     C21348   4.901   8.853   3.331  1.4526 -0.3956 -0.2248
  159MOL0     C21349   4.964   8.876   3.445 -0.3913  0.8699 -0.5283
  159MOL0     C21350   5.106   8.929   3.437  0.3620  0.4780 -0.3663
  159MOL0     C21351   5.205   8.814   3.463 -1.0369  0.2152  0.1576
  159MOL0     C21352   5.351   8.863   3.497  0.3744 -0.5427  0.6625
  159MOL0     C21353   5.349   8.926   3.638 -0.8026  0.3136  0.7465
  159MOL0     O21354   5.473   8.929   3.693  0.3093 -0.1053 -0.4719
  159MOL0     C21355   5.578   9.000   3.642 -0.3156  0.0842 -0.1427
  159MOL0     C21356   5.580   9.087   3.535 -0.2472  0.2483  0.3517
  159MOL0     C21357   5.700   9.141   3.488  0.3803  0.4569 -0.1519
  159MOL0     C21358   5.820   9.106   3.544 -0.4773  0.1183  0.1901
  159MOL0     C21359   5.939   9.153   3.479 -1.1840  0.5027 -0.1652
  159MOL0     O21360   6.060   9.123   3.540  0.1345 -0.1290 -0.7775
  159MOL0     C21361   6.175   9.171   3.481 -0.7262  0.4384  0.3799
  159MOL0     C21362   6.196   9.271   3.383 -0.2379  0.1191  0.4685
  159MOL0     C21363   6.329   9.303   3.339  0.8604  0.2197  0.0246
  159MOL0     C21364   6.441   9.238   3.383 -0.1008 -0.5620  0.5078
  159MOL0     O21365   6.563   9.277   3.336  0.0701 -0.2690 -0.0825
  159MOL0     C21366   6.573   9.252   3.192  0.3194 -1.2574 -0.0657
  159MOL0     C21367   6.711   9.294   3.143 -0.5818  0.1766 -0.9249
  159MOL0     C21368   6.812   9.180   3.186 -0.2658 -0.8792  0.2981
  159MOL0     C21369   6.963   9.204   3.139 -0.3086 -0.9651  0.9499
  159MOL0     C21370   7.058   9.088   3.169  0.8021 -0.5418  0.1410
  159MOL0     C21371   7.196   9.142   3.143  0.5230 -0.3119 -0.3839
  159MOL0     C21372   7.305   9.033   3.167 -0.4469  0.9037  0.4541
  159MOL0     C21373   7.448   9.085   3.177 -0.3489  0.1174 -0.6238
  159MOL0    Cl21374   7.470   9.216   3.073  0.0010 -0.3735 -0.1604
  159MOL0     C21375   6.424   9.141   3.490 -1.0149  0.2943  0.9450
  159MOL0     C21376   6.293   9.108   3.530  0.3667 -1.0142 -0.4301
  159MOL0     O21377   5.920   9.213   3.373  0.3736  0.0365 -0.4428
  159MOL0     C21378   5.823   9.014   3.650  0.3936  0.4161 -0.0835
  159MOL0     C21379   5.704   8.957   3.692  0.3799  0.9147 -0.4709
  159MOL0     N21380   4.873   8.867   3.553 -0.9690 -0.4497  0.1550
  159MOL0     N21381   4.757   8.860   3.506 -0.0577 -0.5248 -0.1115
  159MOL0     C21382   4.098   8.308   3.894 -0.2942 -0.5030  0.3700
  159MOL0     C21383   3.964   8.338   3.879 -0.2714  0.6935 -0.1282
  159MOL0     C21384   3.581   8.637   3.987 -0.5037 -0.8842  0.3590
  159MOL0     C21385   3.505   8.654   4.110 -0.9082 -0.0375 -0.0871
  159MOL0     C21386   3.377   8.702   4.106  0.5875  1.0193  0.1915
  159MOL0     C21387   3.315   8.739   3.988  0.7964  0.2540 -0.3294
  159MOL0     O21388   3.189   8.795   3.975  0.6664  0.3603 -0.4213
  159MOL0     C21389   3.126   8.837   4.098 -0.1753 -0.6249 -0.8957
  159MOL0     C21390   2.974   8.876   4.079 -0.1759  0.0314  0.6285
  159MOL0     C21391   2.949   8.969   3.956 -0.0965 -0.4324  0.1382
  159MOL0     C21392   3.017   9.104   3.945 -0.4816 -0.2723  0.0777
  159MOL0     C21393   3.153   9.095   3.883 -0.7461 -0.6192  0.5364
  159MOL0     C21394   3.268   9.080   3.838  0.1810  0.4043  0.3066
  159MOL0     C21395   3.378   8.713   3.870  0.1134  0.0601 -0.3498
  159MOL0     C21396   3.508   8.663   3.869 -0.2157 -0.3023  0.2579
  159MOL0     C21397   3.570   8.619   3.741 -0.3665  0.1736  0.5997
  159MOL0     H21398   3.967   8.669   3.894 -1.4521 -0.7060 -2.1589
  159MOL0     H21399   4.215   8.614   3.959 -2.7343  2.3938  1.4604
  159MOL0     H21400   4.398   8.194   3.901 -0.6435 -0.7399 -0.0112
  159MOL0     H21401   4.314   8.261   3.763  1.8642  2.2954 -1.6209
  159MOL0     H21402   4.574   8.254   3.753  0.4767 -0.9486  1.6287
  159MOL0     H21403   4.564   8.389   3.876 -0.0160 -0.2474 -0.5566
  159MOL0     H21404   4.479   8.539   3.735 -0.2040 -0.2061  0.4099
  159MOL0     H21405   4.403   8.424   3.627 -0.2330 -0.2575 -1.1446
  159MOL0     H21406   4.691   8.491   3.642 -1.2022  1.4831  1.0952
  159MOL0     H21407   4.628   8.359   3.532  1.0757 -1.0280  1.7373
  159MOL0     H21408   4.490   8.572   3.440 -0.9724  2.4535  3.4803
  159MOL0     H21409   4.607   8.670   3.519 -0.2453 -0.4846  0.4332
  159MOL0     H21410   4.799   8.566   3.423 -0.3404  0.1331  0.5941
  159MOL0     H21411   4.698   8.449   3.340 -0.5587 -0.1453 -2.2995
  159MOL0     H21412   4.595   8.612   3.193 -1.7708  3.3731  0.3150
  159MOL0     H21413   4.764   8.645   3.188  1.6787  2.0408  1.6840
  159MOL0     H21414   4.663   8.846   3.203  1.1119  0.9267  0.8449
  159MOL0     H21415   4.565   8.805   3.352  0.3891 -2.8266  2.6657
  159MOL0     H21416   4.930   8.860   3.226  0.3249  3.1449 -0.4452
  159MOL0     H21417   5.119   8.974   3.339  0.0901  2.2252  0.3624
  159MOL0     H21418   5.118   9.014   3.505 -1.0537  0.0569  0.4513
  159MOL0     H21419   5.168   8.753   3.546  0.6526 -0.2716  0.5915
  159MOL0     H21420   5.206   8.747   3.376  0.7284 -0.8583  0.9382
  159MOL0     H21421   5.395   8.930   3.423 -2.8354  1.3050  0.2922
  159MOL0     H21422   5.414   8.774   3.504 -0.3569 -1.1154  0.0843
  159MOL0     H21423   5.284   8.863   3.699  0.2218 -0.2200  1.3114
  159MOL0     H21424   5.298   9.022   3.629  2.4774  2.1286 -0.2025
  159MOL0     H21425   5.481   9.117   3.499  0.7071  1.6381 -1.2723
  159MOL0     H21426   5.691   9.206   3.401  0.9251  0.0914 -0.4923
  159MOL0     H21427   6.112   9.324   3.339 -0.6867 -0.1339  1.0119
  159MOL0     H21428   6.341   9.379   3.263 -1.7650 -0.0661 -0.7791
  159MOL0     H21429   6.561   9.150   3.154  0.2421 -0.3305 -2.6982
  159MOL0     H21430   6.489   9.307   3.150 -0.8720 -1.5139  1.8369
  159MOL0     H21431   6.710   9.301   3.034 -1.8149 -0.3431 -0.9650
  159MOL0     H21432   6.730   9.395   3.181 -0.5573 -0.2678  0.2853
  159MOL0     H21433   6.805   9.166   3.294  0.0558 -0.2097  0.4080
  159MOL0     H21434   6.782   9.084   3.144  1.4281 -1.5682  0.5633
  159MOL0     H21435   6.998   9.295   3.189 -1.2116  1.1569 -2.0575
  159MOL0     H21436   6.974   9.217   3.031  2.9658 -4.1682  0.7022
  159MOL0     H21437   7.047   9.009   3.094 -1.1915  0.4047 -0.6333
  159MOL0     H21438   7.047   9.047   3.270 -0.6952  0.5940  0.4689
  159MOL0     H21439   7.219   9.180   3.043  0.7967 -1.5295 -0.7966
  159MOL0     H21440   7.211   9.216   3.223 -1.5808  0.3885 -0.5894
  159MOL0     H21441   7.302   8.957   3.089  1.5119 -0.3800  1.5444
  159MOL0     H21442   7.282   8.968   3.252  1.7169  0.5497  0.8163
  159MOL0     H21443   7.474   9.130   3.274 -0.6502 -4.3223  1.8019
  159MOL0     H21444   7.520   9.005   3.157  1.0411  1.2448 -0.2647
  159MOL0     H21445   6.512   9.100   3.538 -2.0347  0.8682  3.4483
  159MOL0     H21446   6.268   9.030   3.601  1.7212 -0.3265  0.8613
  159MOL0     H21447   5.921   8.993   3.690  0.3315  1.1503  0.4830
  159MOL0     H21448   5.698   8.888   3.776 -1.2395  0.7008 -0.7458
  159MOL0     H21449   4.140   8.210   3.873 -0.0585 -0.4444  0.5571
  159MOL0     H21450   3.898   8.260   3.841 -0.2135  1.0051 -0.8874
  159MOL0     H21451   3.565   8.640   4.200  1.4582  0.8017 -1.4379
  159MOL0     H21452   3.331   8.731   4.200 -0.6195  1.7332 -0.5902
  159MOL0     H21453   3.180   8.927   4.127  1.1431 -0.3622 -3.8414
  159MOL0     H21454   3.124   8.761   4.177  2.0262  2.6988  2.7023
  159MOL0     H21455   2.944   8.930   4.169 -2.2050  3.8529 -2.0227
  159MOL0     H21456   2.911   8.788   4.067  0.5990 -0.5557  0.7772
  159MOL0     H21457   2.841   8.983   3.945  0.4190  2.7187 -3.0167
  159MOL0     H21458   2.987   8.923   3.864  4.2089  2.0571  0.3888
  159MOL0     H21459   2.937   9.161   3.896 -3.8219 -2.8234  2.0648
  159MOL0     H21460   3.027   9.146   4.046  0.5158  0.0674 -0.1544
  159MOL0     H21461   3.365   9.051   3.802 -0.5248  1.1767 -2.3705
  159MOL0     H21462   3.313   8.726   3.785  0.2480  1.0120 -0.3180
  159MOL0     H21463   3.605   8.516   3.742  2.2835  0.9559 -0.4884
  159MOL0     H21464   3.497   8.612   3.659  0.2790 -2.2887  0.1677
  159MOL0     H21465   3.651   8.685   3.708 -2.1586  1.8228 -0.7252
  160MOL0     O21466   3.557   5.202  11.129  0.4250 -0.9790 -0.1963
  160MOL0     C21467   3.577   5.183  11.249  1.2233  0.1265 -0.6907
  160MOL0     O21468   3.696   5.215  11.309 -0.2723  0.3090 -1.0094
  160MOL0     C21469   3.805   5.241  11.233  0.5034  0.9485 -0.6036
  160MOL0     C21470   3.889   5.335  11.285  0.0287 -0.0760  0.6586
  160MOL0     C21471   4.014   5.349  11.221  0.0278 -0.6253  0.0377
  160MOL0     C21472   4.055   5.261  11.120 -0.4560 -0.1681  0.2342
  160MOL0     O21473   4.176   5.290  11.064  0.5132  0.0583  0.0704
  160MOL0     C21474   4.266   5.185  11.025  0.0294 -0.6530 -0.9651
  160MOL0     C21475   4.413   5.249  11.003 -0.1133 -0.2328  0.2028
  160MOL0     C21476   4.518   5.144  11.001  0.1740  0.4848 -0.7306
  160MOL0     C21477   4.662   5.194  10.976  0.0269  0.4047 -0.4026
  160MOL0     C21478   4.759   5.073  10.974  0.5674 -0.1130  0.3874
  160MOL0     C21479   4.910   5.132  10.991  0.8927  1.0796 -0.7478
  160MOL0     C21480   4.978   5.184  10.866 -0.3366 -0.7210  0.7572
  160MOL0     C21481   5.121   5.229  10.892  0.3093  1.0221 -0.0246
  160MOL0     N21482   5.121   5.312  11.016 -0.7922 -0.1009 -0.8067
  160MOL0     C21483   5.095   5.446  11.017  0.1278  0.1659 -0.1477
  160MOL0     C21484   5.106   5.489  11.141  0.9346  0.0026  0.3638
  160MOL0     C21485   5.090   5.637  11.191 -0.1544  0.1412 -0.2446
  160MOL0     C21486   5.157   5.657  11.330  0.3024 -0.8498  0.1545
  160MOL0     C21487   5.158   5.802  11.385  0.1593  0.5246 -0.0299
  160MOL0     C21488   5.239   5.817  11.515  0.4162 -0.0661  0.5003
  160MOL0     O21489   5.381   5.836  11.488  0.8766  0.3776 -0.9435
  160MOL0     C21490   5.468   5.845  11.597 -0.5248 -0.2638  0.3915
  160MOL0     C21491   5.429   5.864  11.727  0.0285 -0.1233 -0.4868
  160MOL0     C21492   5.526   5.853  11.830 -0.5530 -0.3667 -0.1618
  160MOL0     C21493   5.664   5.836  11.801  0.2410 -0.3208  0.4571
  160MOL0     C21494   5.761   5.814  11.909 -0.2784  0.5234  0.5150
  160MOL0     O21495   5.714   5.781  12.031 -0.4047  0.4619 -1.0209
  160MOL0     C21496   5.806   5.716  12.118  0.4285  0.6716  0.3832
  160MOL0     C21497   5.813   5.768  12.248  0.8279  0.5537 -0.6744
  160MOL0     C21498   5.907   5.718  12.337  0.3022 -0.3280 -0.0626
  160MOL0     C21499   6.004   5.631  12.296 -1.2919  0.3915 -0.3845
  160MOL0     O21500   6.092   5.595  12.391 -0.0451 -0.0466 -0.0528
  160MOL0     C21501   6.216   5.535  12.353  0.1303  0.5059  0.6053
  160MOL0     C21502   6.318   5.621  12.272 -1.1361 -0.4077 -0.2855
  160MOL0     C21503   6.442   5.642  12.353  0.4389 -0.1372  0.4015
  160MOL0     C21504   6.420   5.691  12.502  0.0930 -0.6211 -0.8271
  160MOL0     C21505   6.558   5.681  12.579  0.3698 -1.0351 -0.6251
  160MOL0     C21506   6.574   5.772  12.700  0.3351  0.2130  0.4252
  160MOL0     C21507   6.485   5.719  12.813  0.3050  0.9009  0.1803
  160MOL0     C21508   6.452   5.835  12.903 -0.4579 -0.4211  0.0663
  160MOL0    Cl21509   6.337   5.795  13.032  0.0849 -0.3316 -0.2756
  160MOL0     C21510   6.000   5.573  12.163  0.9090  0.2938  0.5292
  160MOL0     C21511   5.898   5.615  12.083 -0.9904 -0.6886  0.6286
  160MOL0     O21512   5.878   5.834  11.881 -0.1430 -0.4738 -0.1710
  160MOL0     C21513   5.703   5.828  11.665 -0.2182 -0.0723  0.2909
  160MOL0     C21514   5.603   5.834  11.574 -0.0515 -0.2279  0.8586
  160MOL0     N21515   5.126   5.376  11.216 -0.0414 -0.1136 -0.8056
  160MOL0     N21516   5.144   5.271  11.147 -0.4975 -0.1879  0.0252
  160MOL0     C21517   3.975   5.160  11.074  0.7921 -0.1567  0.6246
  160MOL0     C21518   3.848   5.152  11.129 -0.2341  0.5888  0.2091
  160MOL0     C21519   3.461   5.140  11.330 -0.0015  0.5696  0.1140
  160MOL0     C21520   3.348   5.099  11.260 -0.0216  0.4627  0.2895
  160MOL0     C21521   3.235   5.050  11.322  0.2006 -0.1058  0.2867
  160MOL0     C21522   3.236   5.034  11.458 -0.4347 -0.6182 -1.1882
  160MOL0     O21523   3.135   4.993  11.541  0.6636 -0.1147 -0.1111
  160MOL0     C21524   3.034   4.925  11.476  0.3842 -0.3971  0.5212
  160MOL0     C21525   2.961   4.843  11.576  0.4848  0.7964  0.0541
  160MOL0     C21526   2.859   4.770  11.499  0.0355  0.0153  0.5313
  160MOL0     C21527   2.798   4.652  11.577  0.4098  0.2181 -0.2013
  160MOL0     C21528   2.705   4.685  11.686 -0.1210  0.4030 -1.4251
  160MOL0     C21529   2.633   4.710  11.782  0.5057 -0.8910 -0.0325
  160MOL0     C21530   3.345   5.064  11.529  0.0901  0.7385  0.3402
  160MOL0     C21531   3.459   5.119  11.475 -0.3514  0.2749  0.7701
  160MOL0     C21532   3.577   5.163  11.558  0.2868  0.4968 -0.0041
  160MOL0     H21533   3.864   5.406  11.363 -0.7165  0.1074  0.2543
  160MOL0     H21534   4.075   5.430  11.259 -3.6166  1.0438  2.9047
  160MOL0     H21535   4.260   5.106  11.100  0.9734 -0.0968 -0.2713
  160MOL0     H21536   4.218   5.140  10.938 -2.3817 -0.1228  0.0031
  160MOL0     H21537   4.435   5.310  11.092 -0.8674 -2.3578  1.9411
  160MOL0     H21538   4.413   5.301  10.907  1.5589 -0.4911  0.0354
  160MOL0     H21539   4.488   5.082  10.916 -1.6852  0.3541 -0.0174
  160MOL0     H21540   4.515   5.092  11.097  3.0755  1.2430 -0.1439
  160MOL0     H21541   4.664   5.257  10.886 -1.0407 -0.8270 -1.3197
  160MOL0     H21542   4.695   5.265  11.053  2.8404 -0.6570 -0.4963
  160MOL0     H21543   4.727   5.001  11.050  2.1701 -1.6064 -0.2861
  160MOL0     H21544   4.754   5.006  10.888 -3.1938  1.1672 -0.5737
  160MOL0     H21545   4.895   5.209  11.067 -1.8211 -0.1793  0.1409
  160MOL0     H21546   4.961   5.043  11.029 -2.1589 -0.7577 -0.5524
  160MOL0     H21547   4.917   5.262  10.821  1.3052  0.3018  0.1970
  160MOL0     H21548   4.984   5.100  10.797  1.0001 -2.1061  2.4323
  160MOL0     H21549   5.180   5.139  10.912 -1.1600 -0.1947 -0.9110
  160MOL0     H21550   5.163   5.286  10.809 -0.6483  1.9207  0.0870
  160MOL0     H21551   5.084   5.503  10.925 -0.6643 -0.2038 -0.2868
  160MOL0     H21552   5.133   5.699  11.112 -0.0799  0.5536  0.1109
  160MOL0     H21553   4.985   5.667  11.202 -0.7003 -1.3414 -1.1736
  160MOL0     H21554   5.099   5.612  11.411 -1.7575 -0.4456 -1.0355
  160MOL0     H21555   5.255   5.614  11.310 -0.2821 -1.4998 -1.3904
  160MOL0     H21556   5.058   5.838  11.410  0.4681  4.3663 -3.2910
  160MOL0     H21557   5.190   5.871  11.307 -0.9315  1.0287 -0.0542
  160MOL0     H21558   5.235   5.728  11.578  0.8926  1.0464  2.1574
  160MOL0     H21559   5.209   5.904  11.573  2.6436  0.7273  0.5646
  160MOL0     H21560   5.323   5.868  11.749 -0.0138  0.1921 -0.7422
  160MOL0     H21561   5.489   5.860  11.932 -0.3098 -4.0606  0.2926
  160MOL0     H21562   5.735   5.838  12.276  0.2807  0.3705 -1.6999
  160MOL0     H21563   5.924   5.758  12.436  1.3590 -2.0173  0.4759
  160MOL0     H21564   6.264   5.487  12.439 -1.3690 -3.6724 -0.6022
  160MOL0     H21565   6.188   5.450  12.290  1.8475 -0.1118  0.6376
  160MOL0     H21566   6.356   5.576  12.180  1.6993  2.7871 -0.8992
  160MOL0     H21567   6.279   5.719  12.243 -0.0477  0.1046 -0.0889
  160MOL0     H21568   6.492   5.547  12.370 -2.1528 -1.1086  3.7489
  160MOL0     H21569   6.502   5.704  12.285  0.2107 -1.2003 -0.8115
  160MOL0     H21570   6.331   5.650  12.553 -0.6053  0.5455 -1.0805
  160MOL0     H21571   6.394   5.797  12.498 -2.1180 -0.8380  2.7693
  160MOL0     H21572   6.632   5.704  12.501 -1.2789  1.0876 -1.6806
  160MOL0     H21573   6.579   5.576  12.602 -1.8927 -1.5570 -0.7235
  160MOL0     H21574   6.679   5.785  12.731  0.6724  0.5189 -0.7812
  160MOL0     H21575   6.554   5.875  12.672  1.0393  0.3561  0.4160
  160MOL0     H21576   6.531   5.631  12.860 -3.0129 -1.4671 -0.6208
  160MOL0     H21577   6.391   5.683  12.769  1.5068 -1.2679 -0.7389
  160MOL0     H21578   6.545   5.866  12.952 -0.3826 -0.2825 -0.1621
  160MOL0     H21579   6.416   5.917  12.840 -0.5244 -2.6693 -3.0351
  160MOL0     H21580   6.083   5.516  12.121 -0.9090 -2.3969  0.3849
  160MOL0     H21581   5.896   5.591  11.977  1.2364 -0.0055  0.3737
  160MOL0     H21582   5.806   5.811  11.634  0.1643 -3.7384  2.9180
  160MOL0     H21583   5.635   5.828  11.470  0.8420  2.9128  0.8325
  160MOL0     H21584   4.000   5.083  11.002  2.3670  0.5171  0.4035
  160MOL0     H21585   3.789   5.062  11.116  0.4870  0.1365 -0.0094
  160MOL0     H21586   3.343   5.107  11.152  3.0109 -1.8487 -0.1563
  160MOL0     H21587   3.155   5.002  11.265  1.1228 -0.5826 -0.6431
  160MOL0     H21588   3.070   4.858  11.397  2.1594 -2.1021  2.6531
  160MOL0     H21589   2.968   4.990  11.417  3.4396  0.9852 -1.6681
  160MOL0     H21590   2.910   4.900  11.654 -2.0331 -1.7094  0.4209
  160MOL0     H21591   3.036   4.781  11.627  1.6669  1.1657 -1.1735
  160MOL0     H21592   2.894   4.725  11.406  2.2704 -2.0718  2.2731
  160MOL0     H21593   2.779   4.837  11.465  1.1101  0.6433 -0.8568
  160MOL0     H21594   2.735   4.597  11.505  0.0933  3.2391 -2.4500
  160MOL0     H21595   2.875   4.586  11.618  0.6539  1.4193  1.3600
  160MOL0     H21596   2.589   4.736  11.875  2.4585  0.8077  0.4755
  160MOL0     H21597   3.346   5.058  11.637 -0.3860  0.4321  0.3303
  160MOL0     H21598   3.597   5.270  11.548  0.5258  0.2216 -3.4806
  160MOL0     H21599   3.565   5.146  11.666  2.7717  1.5933  0.5169
  160MOL0     H21600   3.669   5.111  11.531  0.8022  0.8126  1.0594
  161MOL0     O21601   7.936   0.841   4.657 -0.1981 -0.3442 -0.1614
  161MOL0     C21602   7.886   0.893   4.761  0.2148 -0.0038  0.3399
  161MOL0     O21603   7.951   0.962   4.860 -0.1608 -0.0836  0.2708
  161MOL0     C21604   8.082   0.982   4.835  0.1940 -0.6381  0.1076
  161MOL0     C21605   8.174   0.915   4.908 -0.3172  0.5421 -0.0736
  161MOL0     C21606   8.317   0.937   4.884 -0.2851 -0.7138  0.1988
  161MOL0     C21607   8.353   1.031   4.787  0.3919  0.9303  0.0750
  161MOL0     O21608   8.484   1.050   4.743 -0.0290  0.3632 -0.4395
  161MOL0     C21609   8.588   0.995   4.821 -0.8450  0.2529 -0.5594
  161MOL0     C21610   8.712   1.009   4.745  0.0171  0.2916  0.1987
  161MOL0     C21611   8.841   0.998   4.833 -0.6113 -0.7875 -0.2581
  161MOL0     C21612   8.956   1.000   4.729  0.4322  0.1143  0.0412
  161MOL0     C21613   9.090   0.976   4.811  0.9074  0.4402  0.1582
  161MOL0     C21614   9.211   1.009   4.719 -0.0970 -0.0343  0.4818
  161MOL0     C21615   9.340   0.984   4.796  0.0043 -0.6756 -0.2940
  161MOL0     C21616   9.475   0.984   4.711 -0.4697  0.2420 -0.4800
  161MOL0     N21617   9.579   0.935   4.803  0.4510 -0.4711 -0.9231
  161MOL0     C21618   9.693   0.883   4.748  0.1945  0.1247  0.2423
  161MOL0     C21619   9.786   0.888   4.840  0.3133  0.3904  0.5415
  161MOL0     C21620   9.924   0.849   4.826 -1.2566 -1.1251 -0.0600
  161MOL0     C21621   9.925   0.707   4.775  1.7373 -0.5538 -0.2077
  161MOL0     C21622  10.056   0.623   4.791 -0.7143 -0.1239  1.0854
  161MOL0     C21623  10.164   0.676   4.702 -0.2157  0.2565 -0.1270
  161MOL0     O21624  10.296   0.604   4.731 -0.1374 -0.6774 -0.1945
  161MOL0     C21625  10.406   0.650   4.657  0.1821 -0.2192 -0.5044
  161MOL0     C21626  10.524   0.575   4.665 -0.3718 -1.1965  0.6514
  161MOL0     C21627  10.639   0.619   4.596  0.1027  0.3344 -0.2209
  161MOL0     C21628  10.641   0.734   4.513  0.8568  0.3754  0.3137
  161MOL0     C21629  10.761   0.790   4.437 -0.1607 -0.2448 -0.5515
  161MOL0     O21630  10.879   0.758   4.497 -0.2013  0.0647 -0.0256
  161MOL0     C21631  11.003   0.814   4.457 -0.3750 -0.4654  0.0746
  161MOL0     C21632  11.111   0.794   4.539  0.7610  0.3195 -0.1844
  161MOL0     C21633  11.242   0.852   4.511  0.0429 -0.2961  0.4159
  161MOL0     C21634  11.260   0.927   4.390 -0.0297  0.0621 -0.0362
  161MOL0     O21635  11.370   1.003   4.372  0.4353  0.1768  0.1269
  161MOL0     C21636  11.389   1.080   4.245  0.6159  0.3090  0.0914
  161MOL0     C21637  11.513   1.165   4.235  0.4085  0.0903 -0.5325
  161MOL0     C21638  11.629   1.084   4.181 -0.1553  1.0621  0.5727
  161MOL0     C21639  11.635   1.079   4.026  0.7042 -0.3064 -0.6028
  161MOL0     C21640  11.742   0.986   3.980 -0.4144 -0.3644 -0.1945
  161MOL0     C21641  11.780   1.015   3.836  0.2518 -0.1170  0.3844
  161MOL0     C21642  11.910   0.945   3.808  0.1639  0.8295  0.0405
  161MOL0     C21643  12.029   1.028   3.858 -0.0232 -0.1645 -0.2892
  161MOL0    Cl21644  12.188   0.953   3.824 -0.2811 -0.0486 -0.2807
  161MOL0     C21645  11.148   0.944   4.308 -0.0999  0.2036  0.5046
  161MOL0     C21646  11.029   0.891   4.338  0.3422  0.1321  0.4833
  161MOL0     O21647  10.741   0.875   4.349 -0.4581 -0.2104  0.4288
  161MOL0     C21648  10.516   0.809   4.504  0.4163 -0.2895 -0.6854
  161MOL0     C21649  10.400   0.757   4.571  0.1254 -0.0535  0.7887
  161MOL0     N21650   9.732   0.949   4.952  0.4920  0.2073 -0.1485
  161MOL0     N21651   9.606   0.978   4.929 -0.4283  0.1992 -0.0219
  161MOL0     C21652   8.257   1.103   4.717 -0.2623  0.3580  0.0635
  161MOL0     C21653   8.126   1.072   4.738  0.3450  0.2116 -0.7855
  161MOL0     C21654   7.744   0.896   4.762  0.0443  0.4143 -0.3674
  161MOL0     C21655   7.670   0.970   4.665 -0.1002  0.3456  0.4738
  161MOL0     C21656   7.531   0.961   4.669  0.5963  0.3014  0.0597
  161MOL0     C21657   7.466   0.887   4.770  0.1439 -0.2629 -0.9929
  161MOL0     O21658   7.330   0.890   4.793  0.0751 -0.2864 -0.5264
  161MOL0     C21659   7.250   0.972   4.707 -0.1005  0.0861 -0.1603
  161MOL0     C21660   7.262   1.130   4.719 -0.3403 -0.2768 -0.6092
  161MOL0     C21661   7.188   1.184   4.845  0.0447  0.6543  0.3593
  161MOL0     C21662   7.160   1.334   4.835  0.0701  0.4248 -0.3717
  161MOL0     C21663   7.275   1.412   4.887  0.5329 -0.0775  0.7358
  161MOL0     C21664   7.359   1.487   4.927 -0.7562  0.3229  1.0705
  161MOL0     C21665   7.538   0.812   4.862 -0.4475 -0.8864  0.5921
  161MOL0     C21666   7.677   0.820   4.865  0.9643  0.1226 -0.1650
  161MOL0     C21667   7.757   0.749   4.974  0.4864  0.0975  0.1673
  161MOL0     H21668   8.159   0.846   4.991  0.6330  1.4668  0.8863
  161MOL0     H21669   8.376   0.887   4.960  1.4697 -0.7484 -1.1315
  161MOL0     H21670   8.597   1.036   4.922 -0.5403  0.6346 -0.7395
  161MOL0     H21671   8.567   0.889   4.838 -0.8389  0.4475  0.7571
  161MOL0     H21672   8.719   1.106   4.694  3.1437 -0.6192 -1.3513
  161MOL0     H21673   8.719   0.935   4.666  3.6549  1.5777 -0.8795
  161MOL0     H21674   8.848   0.904   4.888  0.3069 -0.9966 -0.7144
  161MOL0     H21675   8.850   1.083   4.902 -1.7962 -1.4421  0.7509
  161MOL0     H21676   8.943   0.922   4.654 -0.1285 -2.5957  2.7628
  161MOL0     H21677   8.962   1.097   4.678 -5.0425  1.8399  1.9049
  161MOL0     H21678   9.097   1.046   4.895 -0.5630  1.7345 -0.7397
  161MOL0     H21679   9.086   0.873   4.848  2.2020  0.2834 -0.1000
  161MOL0     H21680   9.208   0.949   4.628  3.5144  1.0035 -0.4884
  161MOL0     H21681   9.208   1.111   4.681 -2.1726  0.4989  1.8985
  161MOL0     H21682   9.329   0.886   4.843 -1.5357  0.2148  1.3461
  161MOL0     H21683   9.357   1.054   4.878 -0.4792 -2.1009  1.0842
  161MOL0     H21684   9.473   0.922   4.621  5.3260  1.2874 -1.7314
  161MOL0     H21685   9.506   1.082   4.673  1.1929 -0.2683 -0.5537
  161MOL0     H21686   9.694   0.845   4.646 -2.1381 -2.0088  0.8949
  161MOL0     H21687   9.986   0.919   4.770  1.8903 -1.5729  2.4927
  161MOL0     H21688   9.975   0.849   4.923  1.7179 -1.9501 -1.4914
  161MOL0     H21689   9.854   0.653   4.837 -1.4698  3.7512  0.3651
  161MOL0     H21690   9.890   0.708   4.672  0.5696 -1.5035  0.1623
  161MOL0     H21691  10.027   0.522   4.760 -1.1133  0.2292  0.2846
  161MOL0     H21692  10.088   0.620   4.895  0.9103  0.8614  0.6460
  161MOL0     H21693  10.168   0.785   4.712 -2.4588  0.4170 -0.4345
  161MOL0     H21694  10.130   0.662   4.599  0.6547 -3.9129 -0.0237
  161MOL0     H21695  10.535   0.479   4.715 -0.8941 -0.2109  2.7665
  161MOL0     H21696  10.734   0.570   4.614 -0.0119  0.6664  1.3664
  161MOL0     H21697  11.101   0.733   4.628  1.6627  1.0679  0.4541
  161MOL0     H21698  11.329   0.864   4.573  0.0866  1.0336  0.1346
  161MOL0     H21699  11.397   0.996   4.175  2.4346 -0.6591  1.3708
  161MOL0     H21700  11.305   1.148   4.230  2.1471  3.0050  2.6373
  161MOL0     H21701  11.488   1.252   4.173 -0.5096 -0.5283 -1.0563
  161MOL0     H21702  11.533   1.204   4.335  0.8084 -0.0107 -0.5722
  161MOL0     H21703  11.723   1.130   4.213  0.1821  2.7847 -2.5320
  161MOL0     H21704  11.630   0.978   4.208  0.5066  0.6608 -0.9361
  161MOL0     H21705  11.654   1.180   3.989 -0.7939 -0.0351 -0.6838
  161MOL0     H21706  11.537   1.047   3.992 -0.4979  3.8890 -1.7487
  161MOL0     H21707  11.716   0.881   3.991 -0.1320 -0.6143 -1.6746
  161MOL0     H21708  11.822   1.010   4.051 -1.1720 -0.4584  0.7051
  161MOL0     H21709  11.701   0.978   3.771  2.8592 -2.0380 -1.9521
  161MOL0     H21710  11.792   1.123   3.827 -3.2188  0.3418 -0.0465
  161MOL0     H21711  11.922   0.933   3.700 -0.1966  1.5641 -0.0893
  161MOL0     H21712  11.912   0.843   3.847  0.7886  0.2263 -1.4948
  161MOL0     H21713  12.021   1.132   3.823  0.9030  0.9217  2.4160
  161MOL0     H21714  12.016   1.039   3.966 -0.7383  0.9292 -0.4635
  161MOL0     H21715  11.167   0.992   4.212  4.5574 -3.9291 -1.1149
  161MOL0     H21716  10.958   0.900   4.257 -0.9622  0.3356  1.5952
  161MOL0     H21717  10.496   0.896   4.441  1.3657  1.0782  0.8163
  161MOL0     H21718  10.311   0.818   4.558  2.8348  3.8846 -1.2956
  161MOL0     H21719   8.290   1.166   4.635 -0.5179  0.1464 -0.2029
  161MOL0     H21720   8.060   1.133   4.677  0.3877  3.0365  1.7917
  161MOL0     H21721   7.717   1.030   4.587 -0.8708 -0.2689 -0.4865
  161MOL0     H21722   7.474   1.004   4.587  0.1153  2.4572  1.4343
  161MOL0     H21723   7.145   0.945   4.722  0.0652 -0.5182 -0.0905
  161MOL0     H21724   7.277   0.943   4.605  1.2352 -0.7017  0.3927
  161MOL0     H21725   7.223   1.172   4.627 -0.8437  1.0130  0.1660
  161MOL0     H21726   7.366   1.160   4.737 -0.3280 -1.0516  0.8259
  161MOL0     H21727   7.237   1.150   4.937  2.7755  1.1091 -0.8312
  161MOL0     H21728   7.088   1.139   4.845  0.2985 -0.7740 -5.5841
  161MOL0     H21729   7.155   1.370   4.731  0.6361 -3.2342 -1.8294
  161MOL0     H21730   7.068   1.361   4.888  3.1639  1.6201  5.0702
  161MOL0     H21731   7.432   1.554   4.968 -0.0660  1.0146 -1.1056
  161MOL0     H21732   7.486   0.752   4.935  2.8446 -3.0519  1.4067
  161MOL0     H21733   7.745   0.806   5.066  2.4020 -0.8151  1.0437
  161MOL0     H21734   7.718   0.649   4.993  3.6676 -0.9122  2.1221
  161MOL0     H21735   7.864   0.740   4.954  0.4081 -0.3076 -0.0688
  162MOL0     O21736   6.730   7.494   7.817  0.3636  0.2489  0.8490
  162MOL0     C21737   6.784   7.385   7.773 -0.1084 -0.6953  1.0576
  162MOL0     O21738   6.862   7.300   7.843 -0.4132 -0.4798 -0.0387
  162MOL0     C21739   6.835   7.292   7.977 -0.2029  1.0175  0.0804
  162MOL0     C21740   6.905   7.375   8.060  0.7260 -0.6453 -0.0477
  162MOL0     C21741   6.870   7.368   8.192  0.5916 -0.5917 -0.4574
  162MOL0     C21742   6.779   7.276   8.245 -0.5290  0.4200 -0.2510
  162MOL0     O21743   6.745   7.286   8.379  0.4231  0.3322  0.0934
  162MOL0     C21744   6.640   7.204   8.434 -0.1602 -0.4301  0.2564
  162MOL0     C21745   6.659   7.196   8.582  0.4245  0.7677 -0.6259
  162MOL0     C21746   6.787   7.123   8.629  0.6694 -0.4875 -0.3049
  162MOL0     C21747   6.812   7.127   8.783 -1.0240 -0.1721  0.3880
  162MOL0     C21748   6.873   7.257   8.828  0.2521  0.0536 -0.8041
  162MOL0     C21749   7.017   7.262   8.804  0.5497  0.4717 -0.1212
  162MOL0     C21750   7.074   7.395   8.834 -0.2940  0.6001  0.2108
  162MOL0     C21751   7.215   7.420   8.776  0.4298 -0.3494 -0.3541
  162MOL0     N21752   7.272   7.535   8.836 -0.3985  0.2952  0.2719
  162MOL0     C21753   7.367   7.607   8.779 -1.4171  0.4100  0.0775
  162MOL0     C21754   7.407   7.692   8.883 -0.0204  0.0488  0.8326
  162MOL0     C21755   7.504   7.798   8.873 -0.7353  0.2374 -0.3930
  162MOL0     C21756   7.642   7.750   8.883 -0.3981  1.4362 -0.7383
  162MOL0     C21757   7.730   7.839   8.968  0.2873 -0.8927  0.7284
  162MOL0     C21758   7.870   7.822   8.920 -0.6373 -0.1323 -0.2594
  162MOL0     O21759   7.945   7.938   8.947 -0.4489 -0.0130  0.2903
  162MOL0     C21760   8.035   7.929   9.057 -0.2155 -0.6749  0.4912
  162MOL0     C21761   8.019   7.846   9.167  0.5628 -0.2967 -0.1268
  162MOL0     C21762   8.103   7.849   9.284 -0.0281  0.1274 -0.1767
  162MOL0     C21763   8.207   7.942   9.294 -0.3758 -0.4138 -0.0481
  162MOL0     C21764   8.283   7.944   9.416  0.0045 -0.1201  0.2165
  162MOL0     O21765   8.269   7.846   9.513  0.1112 -0.4679  0.8856
  162MOL0     C21766   8.332   7.856   9.634 -0.8048  0.5067  1.1085
  162MOL0     C21767   8.254   7.890   9.744  0.7389  1.0187 -0.0606
  162MOL0     C21768   8.309   7.903   9.874  0.1858  0.4736  0.9658
  162MOL0     C21769   8.450   7.881   9.897 -0.3382 -0.2786 -0.3721
  162MOL0     O21770   8.505   7.879  10.021 -0.0374  0.1727 -0.3228
  162MOL0     C21771   8.554   8.004  10.066 -0.3519  0.6015 -1.4341
  162MOL0     C21772   8.617   8.007  10.204 -0.4200 -0.8404 -0.3902
  162MOL0     C21773   8.631   8.157  10.246 -0.2933  0.6215  0.1109
  162MOL0     C21774   8.500   8.236  10.261  0.0429 -0.5165  0.5060
  162MOL0     C21775   8.506   8.306  10.388  0.8459  1.2998  0.0174
  162MOL0     C21776   8.443   8.221  10.502 -0.6823 -0.5283  0.2666
  162MOL0     C21777   8.433   8.311  10.636 -1.4697  0.2115  0.5503
  162MOL0     C21778   8.323   8.267  10.720  0.7260  0.0449 -0.0672
  162MOL0    Cl21779   8.167   8.319  10.644  0.3235 -0.0190  0.2000
  162MOL0     C21780   8.528   7.845   9.785 -0.1181  0.5530  0.1025
  162MOL0     C21781   8.469   7.828   9.657  0.0041  0.5752 -0.7256
  162MOL0     O21782   8.367   8.035   9.423 -0.2701  0.5122  0.2779
  162MOL0     C21783   8.228   8.019   9.181  0.0585 -0.1582 -0.1282
  162MOL0     C21784   8.147   8.019   9.067 -0.0014 -0.0404 -0.6953
  162MOL0     N21785   7.330   7.677   8.998 -1.0549  0.7296  0.1098
  162MOL0     N21786   7.255   7.579   8.962  0.6189  0.3748 -1.4058
  162MOL0     C21787   6.735   7.172   8.152 -0.2134 -0.3021 -1.1010
  162MOL0     C21788   6.756   7.179   8.018 -0.3306 -0.0392 -0.3324
  162MOL0     C21789   6.802   7.374   7.627  0.0347 -0.8440  0.8283
  162MOL0     C21790   6.927   7.355   7.570 -0.2426  0.6328 -0.3687
  162MOL0     C21791   6.936   7.343   7.433 -0.0449 -0.5400  0.4142
  162MOL0     C21792   6.826   7.355   7.341  0.5541 -0.9393  0.2075
  162MOL0     O21793   6.855   7.323   7.213 -0.2282  0.1858 -0.2386
  162MOL0     C21794   6.766   7.220   7.159  0.0083  0.5253 -1.0757
  162MOL0     C21795   6.662   7.277   7.064  0.1427 -0.2026  0.1660
  162MOL0     C21796   6.587   7.178   6.970  0.0957  0.6778  0.5419
  162MOL0     C21797   6.489   7.240   6.877  0.2869 -0.2943  1.0581
  162MOL0     C21798   6.447   7.138   6.784 -0.5606  0.7904 -0.4176
  162MOL0     C21799   6.401   7.047   6.717  0.0931 -0.0515 -0.0668
  162MOL0     C21800   6.698   7.371   7.393  0.2492 -0.0521 -0.8087
  162MOL0     C21801   6.684   7.386   7.536 -0.2880 -0.1425  0.0193
  162MOL0     C21802   6.550   7.419   7.593 -0.7209  0.4409  0.5352
  162MOL0     H21803   6.967   7.450   8.012 -2.0911  2.4206  0.7454
  162MOL0     H21804   6.908   7.434   8.270  1.6498 -3.5291  1.6869
  162MOL0     H21805   6.542   7.243   8.402 -0.3046 -0.3767  0.7602
  162MOL0     H21806   6.654   7.101   8.400  2.9834  0.3008 -1.0277
  162MOL0     H21807   6.566   7.151   8.618 -0.3169 -1.9205 -5.1603
  162MOL0     H21808   6.651   7.301   8.610 -0.0178  1.1684 -2.1610
  162MOL0     H21809   6.871   7.171   8.578 -1.0374  0.9052 -1.9291
  162MOL0     H21810   6.779   7.016   8.605 -0.3391 -0.9912  1.9980
  162MOL0     H21811   6.719   7.101   8.833 -0.0792 -1.6118  1.5111
  162MOL0     H21812   6.870   7.044   8.826 -3.3372 -1.3483  1.3885
  162MOL0     H21813   6.814   7.336   8.782  0.4024  0.2125 -0.7260
  162MOL0     H21814   6.866   7.262   8.937  0.4491 -0.4838 -0.7643
  162MOL0     H21815   7.062   7.192   8.874 -1.5440 -2.3748 -1.4359
  162MOL0     H21816   7.028   7.237   8.698 -2.1478  2.0906 -0.9078
  162MOL0     H21817   7.069   7.399   8.943 -2.5088 -1.5993  0.2577
  162MOL0     H21818   7.016   7.476   8.788 -2.0491 -1.3057 -1.0719
  162MOL0     H21819   7.274   7.328   8.786  1.2991 -0.4612 -4.6417
  162MOL0     H21820   7.206   7.447   8.670 -0.0046 -0.1064 -0.2589
  162MOL0     H21821   7.418   7.595   8.684 -0.9476 -0.5166  0.4323
  162MOL0     H21822   7.484   7.846   8.776 -2.2331 -1.2456 -0.8613
  162MOL0     H21823   7.482   7.870   8.953 -0.8260 -2.4229  2.1234
  162MOL0     H21824   7.657   7.653   8.931 -0.5672  1.7578 -0.0212
  162MOL0     H21825   7.675   7.743   8.779 -1.3037 -2.3474 -0.8951
  162MOL0     H21826   7.716   7.810   9.073 -0.8869 -1.7025  0.3558
  162MOL0     H21827   7.694   7.942   8.962 -1.0897 -1.4582 -1.8437
  162MOL0     H21828   7.882   7.813   8.812  2.3075 -0.3247  0.0073
  162MOL0     H21829   7.915   7.735   8.970 -1.8248  0.2229  1.5311
  162MOL0     H21830   7.933   7.781   9.168 -0.6853  1.2588 -1.1659
  162MOL0     H21831   8.098   7.768   9.356 -0.6572  0.6009  0.3247
  162MOL0     H21832   8.149   7.918   9.737 -0.1621 -2.0536 -0.4751
  162MOL0     H21833   8.250   7.911   9.964 -0.5729 -2.7116  0.8906
  162MOL0     H21834   8.643   8.039  10.012  1.5233  0.1288  1.1262
  162MOL0     H21835   8.470   8.074  10.066 -1.7395 -0.8820  1.7214
  162MOL0     H21836   8.565   7.949  10.281 -0.4044  1.1461  1.1839
  162MOL0     H21837   8.716   7.964  10.186  0.0801  0.5474 -1.1469
  162MOL0     H21838   8.689   8.164  10.338 -0.3644  2.1302  0.0631
  162MOL0     H21839   8.684   8.209  10.166 -1.7378  0.6536 -0.8568
  162MOL0     H21840   8.411   8.172  10.261 -0.7904  0.5154 -2.3665
  162MOL0     H21841   8.498   8.302  10.174  3.3231 -0.8450  0.0764
  162MOL0     H21842   8.454   8.401  10.374  1.4643  1.4946 -1.0805
  162MOL0     H21843   8.606   8.332  10.421  0.0897  2.7006  1.3127
  162MOL0     H21844   8.344   8.185  10.473 -0.0909  0.0678 -2.8229
  162MOL0     H21845   8.512   8.140  10.529  1.9350  1.6048  0.3765
  162MOL0     H21846   8.407   8.414  10.611  0.1037  0.5394  0.1871
  162MOL0     H21847   8.531   8.294  10.680 -0.7833 -1.1811 -1.3727
  162MOL0     H21848   8.328   8.161  10.748 -4.0157 -0.1868  0.8550
  162MOL0     H21849   8.341   8.318  10.815  3.1822 -0.5692 -0.1373
  162MOL0     H21850   8.629   7.804   9.782 -0.1212  0.5971 -0.6259
  162MOL0     H21851   8.532   7.803   9.572  1.0278  0.7062 -0.0315
  162MOL0     H21852   8.306   8.093   9.195 -1.2008  1.3882 -0.9395
  162MOL0     H21853   8.178   8.083   8.986 -0.9151  1.4199  0.0773
  162MOL0     H21854   6.680   7.093   8.202  0.4888  0.6487  1.2906
  162MOL0     H21855   6.728   7.106   7.943  2.1790  0.2927 -1.6905
  162MOL0     H21856   7.015   7.335   7.631 -1.9493 -2.0943  1.4567
  162MOL0     H21857   7.029   7.321   7.382 -1.6924 -1.2788 -2.5097
  162MOL0     H21858   6.717   7.168   7.242  1.8437  1.7895  0.9373
  162MOL0     H21859   6.833   7.152   7.107  1.9210 -0.5850  2.4913
  162MOL0     H21860   6.709   7.349   6.997 -1.8386 -0.5083 -1.6598
  162MOL0     H21861   6.588   7.334   7.121 -0.6801 -1.2375  0.1615
  162MOL0     H21862   6.540   7.101   7.033 -1.5474  0.7986 -0.4692
  162MOL0     H21863   6.660   7.121   6.912 -1.1525  0.8013 -1.2103
  162MOL0     H21864   6.408   7.295   6.925  0.9232  2.4737 -0.8230
  162MOL0     H21865   6.552   7.309   6.821 -0.2253  1.2087  2.2755
  162MOL0     H21866   6.338   6.975   6.668  0.0744  0.2793 -0.5404
  162MOL0     H21867   6.607   7.381   7.335 -0.6606  0.6742  0.6758
  162MOL0     H21868   6.515   7.338   7.658  0.5733  0.6497  1.5353
  162MOL0     H21869   6.542   7.503   7.663  1.1050  0.6788  0.5012
  162MOL0     H21870   6.489   7.443   7.505  1.8835  1.6048 -1.0616
  163MOL0     O21871   5.678   7.874   2.991 -0.2407 -0.7092 -0.4073
  163MOL0     C21872   5.653   7.947   2.895  0.5576 -0.1623 -0.4024
  163MOL0     O21873   5.745   7.983   2.803 -0.4795  0.0399  0.3966
  163MOL0     C21874   5.879   7.956   2.822  0.8585  0.1128  0.7211
  163MOL0     C21875   5.933   7.835   2.776 -0.8123 -0.5086  0.7008
  163MOL0     C21876   6.069   7.814   2.797  0.0054  0.2665 -0.3707
  163MOL0     C21877   6.156   7.894   2.874  2.1680 -0.1335 -0.4273
  163MOL0     O21878   6.287   7.854   2.877  0.1061  0.5379 -1.1076
  163MOL0     C21879   6.353   7.881   3.005 -0.0560  0.0399  1.0877
  163MOL0     C21880   6.502   7.837   2.991  0.4049  0.0469 -0.2896
  163MOL0     C21881   6.542   7.791   3.133  0.0349  0.5486 -0.4122
  163MOL0     C21882   6.693   7.754   3.130  0.2850  0.3442 -0.5569
  163MOL0     C21883   6.728   7.713   3.268 -0.0411  0.1635 -0.1469
  163MOL0     C21884   6.875   7.687   3.281 -0.4832 -0.4976  0.0440
  163MOL0     C21885   6.951   7.824   3.302  0.1396  0.4138 -0.1973
  163MOL0     C21886   7.102   7.821   3.270  0.6366  0.1943 -0.1275
  163MOL0     N21887   7.152   7.953   3.311  0.0846  0.2127  0.4719
  163MOL0     C21888   7.163   7.995   3.436 -0.1210 -0.4167 -0.7246
  163MOL0     C21889   7.183   8.127   3.433 -0.0423  0.1004  0.0738
  163MOL0     C21890   7.213   8.226   3.543  0.1632  0.1668  0.0915
  163MOL0     C21891   7.354   8.195   3.602  0.3449 -0.7664  0.6032
  163MOL0     C21892   7.467   8.203   3.498  0.0447 -0.2487 -0.2763
  163MOL0     C21893   7.608   8.184   3.558  0.1422  0.0166 -0.0736
  163MOL0     O21894   7.665   8.298   3.611  0.1447 -0.5248 -0.8108
  163MOL0     C21895   7.799   8.293   3.660  0.6988  0.0575  0.5698
  163MOL0     C21896   7.890   8.184   3.653  0.7040 -0.8909  0.5279
  163MOL0     C21897   8.018   8.197   3.697 -0.1279 -0.5236 -0.0672
  163MOL0     C21898   8.061   8.310   3.769 -0.1212 -0.2161  0.6323
  163MOL0     C21899   8.193   8.322   3.820 -0.0669  0.1417 -0.6688
  163MOL0     O21900   8.289   8.230   3.783 -0.6555 -0.1671 -0.0686
  163MOL0     C21901   8.419   8.238   3.829  0.3718  1.1044 -0.5631
  163MOL0     C21902   8.495   8.353   3.846  0.0977 -0.6744 -0.0120
  163MOL0     C21903   8.635   8.343   3.868 -0.2334  0.2431  0.6963
  163MOL0     C21904   8.699   8.219   3.876 -0.8287  0.3148  0.0025
  163MOL0     O21905   8.835   8.187   3.884 -0.1598 -0.0082 -0.3683
  163MOL0     C21906   8.935   8.290   3.848  0.0613  0.1098 -0.1730
  163MOL0     C21907   8.959   8.294   3.696 -0.0183 -0.9444  0.4828
  163MOL0     C21908   9.022   8.437   3.674  0.1620  0.1717  0.0611
  163MOL0     C21909   9.027   8.482   3.527 -0.1374  0.3274 -0.1680
  163MOL0     C21910   9.119   8.596   3.501  0.2260 -1.1827 -0.2304
  163MOL0     C21911   9.259   8.555   3.503 -0.5847 -0.1855  0.1349
  163MOL0     C21912   9.349   8.656   3.434 -0.5273  0.2585  0.1201
  163MOL0     C21913   9.495   8.627   3.453 -0.0066  0.2046  0.2733
  163MOL0    Cl21914   9.592   8.733   3.356  0.2614  0.0888 -0.5132
  163MOL0     C21915   8.622   8.101   3.872 -0.6805  0.2852  0.8318
  163MOL0     C21916   8.489   8.108   3.844 -0.5779  0.2127  0.4443
  163MOL0     O21917   8.207   8.414   3.905 -0.0693  0.1208 -0.7411
  163MOL0     C21918   7.974   8.425   3.773  0.2813 -0.1094 -0.4796
  163MOL0     C21919   7.845   8.415   3.710  0.8062 -0.2486  0.1417
  163MOL0     N21920   7.167   8.167   3.297 -0.2348  0.1053  0.1860
  163MOL0     N21921   7.150   8.061   3.227 -0.2405 -0.5514  0.4474
  163MOL0     C21922   6.091   8.008   2.927 -0.0563  0.2526  0.5292
  163MOL0     C21923   5.958   8.042   2.899  0.3132 -0.3617 -0.1318
  163MOL0     C21924   5.515   8.001   2.872  0.8542 -0.3266  0.4168
  163MOL0     C21925   5.491   8.075   2.754  0.2601 -0.3188  0.6738
  163MOL0     C21926   5.366   8.127   2.725 -0.0064  0.2215  0.1817
  163MOL0     C21927   5.270   8.131   2.826  0.7721  0.5486  0.1380
  163MOL0     O21928   5.156   8.204   2.787 -0.3149  0.3429  0.6824
  163MOL0     C21929   5.028   8.157   2.826 -0.4794 -0.1955  0.4142
  163MOL0     C21930   4.970   8.259   2.934  0.3581 -0.1627 -0.0475
  163MOL0     C21931   4.820   8.236   2.966 -0.3333 -0.8561  0.6776
  163MOL0     C21932   4.747   8.354   3.034 -0.7199 -0.6393 -0.1574
  163MOL0     C21933   4.604   8.330   3.057  0.0572  0.6474  0.2324
  163MOL0     C21934   4.484   8.302   3.066 -0.2772 -0.1399  0.0267
  163MOL0     C21935   5.290   8.061   2.940  0.1189  0.6846  0.5860
  163MOL0     C21936   5.408   7.998   2.969 -0.2722  1.3533  0.6380
  163MOL0     C21937   5.425   7.919   3.097 -0.9167  0.2142 -0.6374
  163MOL0     H21938   5.878   7.770   2.708  0.6458 -1.4762  0.4184
  163MOL0     H21939   6.108   7.722   2.754 -1.8497 -0.7204 -0.0347
  163MOL0     H21940   6.360   7.989   3.021 -3.0093  0.3787  0.6906
  163MOL0     H21941   6.291   7.834   3.082 -5.4355  2.8014 -0.9693
  163MOL0     H21942   6.568   7.919   2.961 -0.1149  0.6957  0.3033
  163MOL0     H21943   6.514   7.747   2.930  0.5907  0.5565 -1.0222
  163MOL0     H21944   6.489   7.704   3.172  2.9148 -0.0715  2.5831
  163MOL0     H21945   6.519   7.867   3.208 -0.9353 -0.0048 -0.1345
  163MOL0     H21946   6.723   7.672   3.065 -0.2495 -1.2750  1.1515
  163MOL0     H21947   6.755   7.833   3.085 -0.3666  0.1718 -1.8035
  163MOL0     H21948   6.698   7.792   3.337  1.8044  2.0134 -1.3380
  163MOL0     H21949   6.682   7.616   3.286  0.5822 -0.2833 -0.9079
  163MOL0     H21950   6.891   7.620   3.366 -2.0371  0.6073  1.2860
  163MOL0     H21951   6.921   7.648   3.190  1.4524 -0.6287  1.0325
  163MOL0     H21952   6.929   7.843   3.408 -3.2726  0.1898 -0.7693
  163MOL0     H21953   6.897   7.902   3.248 -2.1967  0.1582  1.6056
  163MOL0     H21954   7.154   7.750   3.335 -0.5251  0.7139  1.4456
  163MOL0     H21955   7.124   7.804   3.164 -0.4848  3.5764 -1.0171
  163MOL0     H21956   7.168   7.933   3.525  3.2015 -0.7591 -1.0275
  163MOL0     H21957   7.214   8.330   3.510 -1.0679  0.4355  0.8309
  163MOL0     H21958   7.143   8.212   3.626  0.9033  1.1204  0.8993
  163MOL0     H21959   7.367   8.269   3.681  1.5404  2.1608 -2.0958
  163MOL0     H21960   7.344   8.094   3.643 -1.5874 -1.4623 -1.4090
  163MOL0     H21961   7.455   8.303   3.455 -1.3110 -0.1807  0.2244
  163MOL0     H21962   7.452   8.117   3.431 -0.1986 -1.1261  0.8748
  163MOL0     H21963   7.667   8.149   3.472  0.4161 -0.7784  0.4317
  163MOL0     H21964   7.611   8.103   3.631  1.0002 -1.4595 -1.6495
  163MOL0     H21965   7.854   8.094   3.605  2.0133 -0.3769 -1.5675
  163MOL0     H21966   8.079   8.107   3.694 -1.6538 -1.7756  2.4199
  163MOL0     H21967   8.452   8.452   3.844 -0.8079 -1.0613 -0.3280
  163MOL0     H21968   8.689   8.436   3.884 -0.4901  0.6840 -0.7924
  163MOL0     H21969   8.908   8.387   3.891  0.2092  0.3305 -0.5768
  163MOL0     H21970   9.027   8.272   3.905  0.2679 -0.4879 -0.6815
  163MOL0     H21971   9.029   8.214   3.670  0.7334 -0.9437  2.3571
  163MOL0     H21972   8.872   8.283   3.631  0.9300 -1.2858 -0.7865
  163MOL0     H21973   8.963   8.519   3.718  1.8332  0.3058  2.1823
  163MOL0     H21974   9.121   8.446   3.720  1.0483  3.1653 -2.1041
  163MOL0     H21975   8.928   8.513   3.495 -0.9129  1.9743  3.3069
  163MOL0     H21976   9.060   8.403   3.459  0.9530  1.2632 -0.7724
  163MOL0     H21977   9.112   8.667   3.583  3.3884  1.0466 -1.7006
  163MOL0     H21978   9.086   8.645   3.409  1.0136  1.0324  0.6052
  163MOL0     H21979   9.291   8.549   3.608  1.0493  1.8554 -0.1827
  163MOL0     H21980   9.265   8.457   3.456 -2.7367 -1.2011  1.7967
  163MOL0     H21981   9.320   8.757   3.462  1.9061  1.2465 -0.6027
  163MOL0     H21982   9.330   8.652   3.326  2.3928  0.4532 -0.5055
  163MOL0     H21983   9.508   8.659   3.557  0.0493  2.0616 -0.2728
  163MOL0     H21984   9.528   8.525   3.430 -1.6844 -0.3590  0.2043
  163MOL0     H21985   8.655   7.998   3.883 -1.5760 -0.1414 -0.2505
  163MOL0     H21986   8.420   8.025   3.838  0.7152 -1.0414  2.0618
  163MOL0     H21987   8.006   8.522   3.811  0.7147 -0.1941 -0.6224
  163MOL0     H21988   7.784   8.504   3.705 -2.8921 -2.6473 -1.5184
  163MOL0     H21989   6.153   8.080   2.979  0.2377 -1.2546  2.3692
  163MOL0     H21990   5.928   8.135   2.946  3.5593 -0.1064  1.7800
  163MOL0     H21991   5.575   8.083   2.685  1.8347 -0.6811  2.4672
  163MOL0     H21992   5.346   8.171   2.628 -1.5061  3.8721  1.9861
  163MOL0     H21993   5.016   8.054   2.861 -0.6711 -0.0368  0.8201
  163MOL0     H21994   4.966   8.150   2.736  0.1507 -1.9279  0.0765
  163MOL0     H21995   4.978   8.359   2.889 -1.5038  0.3511  0.6833
  163MOL0     H21996   5.029   8.253   3.025 -0.2441  3.2684  0.7233
  163MOL0     H21997   4.810   8.152   3.036 -0.2297 -0.8301  0.7243
  163MOL0     H21998   4.761   8.221   2.875  0.3426 -0.2973  0.1378
  163MOL0     H21999   4.800   8.395   3.120  0.1029  0.6724 -1.2404
  163MOL0     H22000   4.750   8.446   2.975  0.6603  1.1417  2.4727
  163MOL0     H22001   4.384   8.270   3.086  1.2406 -4.7995  1.3266
  163MOL0     H22002   5.208   8.052   3.011 -0.1295  3.1171  0.6704
  163MOL0     H22003   5.343   7.939   3.166  0.7231  0.9501  1.2054
  163MOL0     H22004   5.427   7.811   3.078 -0.9429 -0.3452  2.0698
  163MOL0     H22005   5.515   7.946   3.153 -0.9154 -1.7217  0.3778
  164MOL0     O22006   7.426   2.050   2.216 -0.0926 -0.5038 -0.2507
  164MOL0     C22007   7.374   2.157   2.199 -0.7015  0.0566 -0.0101
  164MOL0     O22008   7.438   2.266   2.153  1.1124 -0.1757 -0.0988
  164MOL0     C22009   7.559   2.255   2.102  0.4147 -0.3707  0.3729
  164MOL0     C22010   7.644   2.332   2.177 -1.3509  0.3052  0.6340
  164MOL0     C22011   7.780   2.329   2.149 -0.2842  0.4745 -0.0788
  164MOL0     C22012   7.823   2.242   2.046 -0.7927 -0.1925 -0.2181
  164MOL0     O22013   7.955   2.217   2.019  0.0037  0.6602  0.5937
  164MOL0     C22014   8.059   2.262   2.108 -0.0792 -0.2795  0.7298
  164MOL0     C22015   8.190   2.197   2.054 -0.3571  0.3818  0.8154
  164MOL0     C22016   8.296   2.221   2.142 -0.1706 -0.1543 -0.8417
  164MOL0     C22017   8.418   2.134   2.114 -0.4342  0.2013  0.0287
  164MOL0     C22018   8.548   2.201   2.162  0.4925 -0.1270 -0.1284
  164MOL0     C22019   8.612   2.273   2.034 -0.3536  0.9129  0.5710
  164MOL0     C22020   8.699   2.394   2.079 -0.0075 -0.1518  0.1836
  164MOL0     C22021   8.601   2.500   2.121 -0.3575  0.4466 -0.7728
  164MOL0     N22022   8.665   2.638   2.140  0.1435 -0.3699  0.1796
  164MOL0     C22023   8.694   2.721   2.036 -0.4393 -0.1879  0.2734
  164MOL0     C22024   8.740   2.837   2.098  0.7688 -0.7068 -0.4164
  164MOL0     C22025   8.791   2.962   2.022 -1.0867 -0.6949 -0.0626
  164MOL0     C22026   8.798   3.092   2.093 -0.2188 -0.6449 -1.3189
  164MOL0     C22027   8.928   3.105   2.171  0.6856 -0.0371  0.3104
  164MOL0     C22028   8.940   3.250   2.228  0.9113  0.1082  0.7179
  164MOL0     O22029   9.062   3.269   2.300  0.0508  0.4965  0.0934
  164MOL0     C22030   9.093   3.398   2.340  0.6929  0.2424  0.5560
  164MOL0     C22031   9.227   3.431   2.355  0.9044 -0.2057 -0.3793
  164MOL0     C22032   9.259   3.565   2.389 -0.6994  0.3161  0.3609
  164MOL0     C22033   9.157   3.662   2.405  0.0592 -0.7539 -0.7620
  164MOL0     C22034   9.195   3.807   2.432 -0.3679  0.1318  0.1666
  164MOL0     O22035   9.317   3.850   2.389  0.3834  0.1805 -0.1934
  164MOL0     C22036   9.357   3.974   2.408  0.4106 -0.2933 -0.3494
  164MOL0     C22037   9.373   4.060   2.297 -0.2430  0.3756 -0.7321
  164MOL0     C22038   9.430   4.183   2.312 -0.6691  0.1683 -0.2428
  164MOL0     C22039   9.477   4.219   2.440  0.1891  0.3509 -0.2830
  164MOL0     O22040   9.550   4.335   2.455 -0.4324  0.5264  0.4116
  164MOL0     C22041   9.585   4.411   2.340  0.5861 -0.4794  0.1316
  164MOL0     C22042   9.663   4.535   2.394  0.1814  0.6207 -0.9937
  164MOL0     C22043   9.811   4.505   2.399 -0.2800  0.2143  0.3360
  164MOL0     C22044   9.885   4.640   2.424 -0.3595  0.0667  0.1217
  164MOL0     C22045  10.013   4.612   2.505 -0.0483 -0.3228 -0.9860
  164MOL0     C22046  10.065   4.735   2.570 -0.4796  0.2814  0.1156
  164MOL0     C22047  10.146   4.697   2.695 -0.0081  0.0673 -0.1494
  164MOL0     C22048  10.194   4.812   2.769 -0.0543 -0.7669  0.7317
  164MOL0    Cl22049  10.324   4.910   2.681 -0.0212  0.1462  0.4705
  164MOL0     C22050   9.455   4.143   2.553  0.4319 -0.2294 -0.2341
  164MOL0     C22051   9.396   4.021   2.534 -0.1657  0.2192 -0.1493
  164MOL0     O22052   9.109   3.867   2.500 -0.4586  0.3517 -0.2175
  164MOL0     C22053   9.026   3.618   2.397 -0.4139  0.6119 -0.2575
  164MOL0     C22054   8.995   3.490   2.366 -0.1068 -0.7994  0.7253
  164MOL0     N22055   8.732   2.822   2.241 -0.8548  0.7110 -0.3557
  164MOL0     N22056   8.687   2.702   2.259  0.0373  0.2657  0.5173
  164MOL0     C22057   7.743   2.159   1.977 -0.1471 -0.1722 -0.0547
  164MOL0     C22058   7.606   2.168   2.002  1.0561 -0.1345  0.8714
  164MOL0     C22059   7.231   2.187   2.215  0.4144 -0.1271 -0.1400
  164MOL0     C22060   7.185   2.300   2.283  0.3584  0.5255 -0.2364
  164MOL0     C22061   7.048   2.328   2.291 -0.8035  0.8844 -0.1458
  164MOL0     C22062   6.955   2.240   2.245  0.1917 -0.3499 -0.0227
  164MOL0     O22063   6.820   2.280   2.242  0.3932 -0.2812  0.0661
  164MOL0     C22064   6.727   2.204   2.159 -0.1564 -0.7761  0.5502
  164MOL0     C22065   6.589   2.272   2.169 -0.4574  0.4489 -0.2190
  164MOL0     C22066   6.497   2.227   2.052 -0.0459  0.9209  1.1924
  164MOL0     C22067   6.366   2.321   2.053 -0.1670  0.0998  0.6627
  164MOL0     C22068   6.259   2.242   1.983  0.3277 -0.6972 -0.5422
  164MOL0     C22069   6.158   2.199   1.932 -0.2269 -0.6359 -0.2984
  164MOL0     C22070   7.002   2.124   2.178  0.2339  0.2213 -0.1861
  164MOL0     C22071   7.133   2.098   2.159 -0.1603 -0.2721  0.1610
  164MOL0     C22072   7.166   1.968   2.087 -0.5373  0.4255 -0.1288
  164MOL0     H22073   7.603   2.393   2.257 -0.6609  1.8376 -0.1230
  164MOL0     H22074   7.854   2.387   2.203  0.0982 -0.0476 -0.0269
  164MOL0     H22075   8.064   2.371   2.112 -0.4225 -0.2935  1.9030
  164MOL0     H22076   8.043   2.226   2.210  0.0956 -0.1693  0.7972
  164MOL0     H22077   8.218   2.235   1.955 -0.6779 -0.3411  0.4430
  164MOL0     H22078   8.177   2.089   2.042  1.6095  0.2824 -1.1276
  164MOL0     H22079   8.263   2.193   2.242  2.9632  3.1931  1.3781
  164MOL0     H22080   8.317   2.328   2.142 -1.1090  0.1618  2.6898
  164MOL0     H22081   8.408   2.042   2.174 -3.1636  0.6215  0.3446
  164MOL0     H22082   8.415   2.105   2.008 -3.3066  0.7487 -0.1024
  164MOL0     H22083   8.533   2.272   2.244  2.4438  1.4623 -1.0548
  164MOL0     H22084   8.616   2.133   2.214  1.8094  1.5827  0.4687
  164MOL0     H22085   8.672   2.192   1.992 -1.1879 -1.4667  3.6139
  164MOL0     H22086   8.529   2.306   1.970 -1.9570  1.4598  2.7741
  164MOL0     H22087   8.753   2.427   1.990 -1.7224  0.0471 -0.8342
  164MOL0     H22088   8.769   2.362   2.157  2.2810  1.9628 -0.8629
  164MOL0     H22089   8.516   2.507   2.052 -0.9945  0.3254 -0.0226
  164MOL0     H22090   8.559   2.468   2.217  1.0860 -3.7779 -1.3437
  164MOL0     H22091   8.691   2.694   1.931  2.7807  0.9864 -0.2203
  164MOL0     H22092   8.889   2.946   1.977 -2.3227 -2.4728 -2.3287
  164MOL0     H22093   8.725   2.991   1.939  0.8178  4.1835 -0.1989
  164MOL0     H22094   8.800   3.177   2.024  1.3868  1.2426  0.8710
  164MOL0     H22095   8.712   3.097   2.161 -0.3653 -0.6659 -1.5024
  164MOL0     H22096   9.012   3.080   2.106 -1.6627 -2.2066 -2.1659
  164MOL0     H22097   8.936   3.036   2.256 -0.4159 -1.7641 -0.9062
  164MOL0     H22098   8.853   3.264   2.293  0.4687  1.8710 -0.1835
  164MOL0     H22099   8.931   3.317   2.142  1.5859  0.4240  0.8871
  164MOL0     H22100   9.297   3.350   2.336 -0.4509 -1.6428  0.5364
  164MOL0     H22101   9.363   3.590   2.408 -0.6737  0.1496  0.4404
  164MOL0     H22102   9.335   4.014   2.207  0.8666  0.8347 -1.4591
  164MOL0     H22103   9.443   4.240   2.221 -1.7499 -0.3537 -0.7412
  164MOL0     H22104   9.630   4.352   2.260 -1.4267 -1.1910 -0.5478
  164MOL0     H22105   9.493   4.441   2.288  0.3998 -0.2342  0.5931
  164MOL0     H22106   9.648   4.605   2.311 -3.8331 -0.3721 -1.2959
  164MOL0     H22107   9.605   4.579   2.476 -1.5051  0.4274 -2.0404
  164MOL0     H22108   9.824   4.440   2.486 -0.6980 -0.9048 -0.4131
  164MOL0     H22109   9.841   4.449   2.310 -0.0181  0.8876 -0.0052
  164MOL0     H22110   9.823   4.715   2.473  0.5442 -0.1737  1.6868
  164MOL0     H22111   9.915   4.676   2.325  0.1696 -1.2641 -0.2326
  164MOL0     H22112  10.094   4.577   2.440 -0.1198  0.1431 -1.3303
  164MOL0     H22113   9.993   4.539   2.583 -1.1585 -0.6153 -1.5238
  164MOL0     H22114  10.133   4.784   2.500 -0.8446 -0.9516 -1.1431
  164MOL0     H22115   9.984   4.801   2.603  1.4045  0.8924  4.2426
  164MOL0     H22116  10.239   4.648   2.663  1.4387  0.2276  3.3429
  164MOL0     H22117  10.087   4.636   2.763  1.5983 -4.3667 -2.3194
  164MOL0     H22118  10.103   4.870   2.788 -0.0146 -0.1530 -0.8316
  164MOL0     H22119  10.248   4.783   2.860 -0.9974 -0.9443  1.2571
  164MOL0     H22120   9.487   4.179   2.650 -2.4574 -3.1686  2.0369
  164MOL0     H22121   9.383   3.948   2.614  1.2281 -0.1283 -0.2201
  164MOL0     H22122   8.953   3.696   2.413 -0.3029  0.9078 -1.1277
  164MOL0     H22123   8.889   3.466   2.362 -0.2841  0.0551 -2.3847
  164MOL0     H22124   7.774   2.102   1.890 -1.2473  3.7308 -3.3036
  164MOL0     H22125   7.531   2.107   1.954  1.3171  1.6072 -1.9318
  164MOL0     H22126   7.259   2.368   2.325  0.5322 -1.0517  2.1648
  164MOL0     H22127   7.024   2.422   2.340 -0.2878  1.6561 -1.3543
  164MOL0     H22128   6.718   2.097   2.181 -3.1190 -0.7459 -0.0174
  164MOL0     H22129   6.768   2.206   2.058 -1.4526 -0.8817 -0.0010
  164MOL0     H22130   6.604   2.380   2.175  1.1810  0.1917  1.6327
  164MOL0     H22131   6.548   2.240   2.265  1.5055 -1.5335  0.0590
  164MOL0     H22132   6.471   2.123   2.071 -0.8237  0.9935  0.5786
  164MOL0     H22133   6.551   2.222   1.957 -0.8772 -0.5511  0.7692
  164MOL0     H22134   6.332   2.357   2.150 -1.8182  0.5605 -0.0421
  164MOL0     H22135   6.400   2.412   2.003  3.1314 -1.7072 -0.7258
  164MOL0     H22136   6.072   2.160   1.882  1.7965 -5.1482 -0.8097
  164MOL0     H22137   6.926   2.053   2.147  0.0953 -0.1983  1.0499
  164MOL0     H22138   7.239   2.000   2.012  1.5468  1.8640  2.3597
  164MOL0     H22139   7.212   1.895   2.154 -2.4927 -1.3271 -0.5958
  164MOL0     H22140   7.076   1.916   2.054  0.0353 -1.9243  1.7810
  165MOL0     O22141   9.794   3.845   1.397 -0.3915  0.2076 -0.1673
  165MOL0     C22142   9.745   3.914   1.478  0.6691 -0.1509 -0.7874
  165MOL0     O22143   9.815   3.989   1.572  0.1113  0.2484  0.3414
  165MOL0     C22144   9.957   4.009   1.575  0.2563 -0.7029  0.0932
  165MOL0     C22145  10.028   4.015   1.456 -0.0070  0.3556  0.0174
  165MOL0     C22146  10.163   4.037   1.458  1.0206 -0.4858 -0.0187
  165MOL0     C22147  10.233   4.055   1.574  0.6181 -0.2493  0.1306
  165MOL0     O22148  10.371   4.042   1.564 -0.3038 -0.6337  0.5410
  165MOL0     C22149  10.467   4.097   1.658  0.1076  0.1722  0.0024
  165MOL0     C22150  10.611   4.062   1.622 -0.1482  0.8472  0.2213
  165MOL0     C22151  10.711   4.106   1.727  0.3276  0.5680 -0.3645
  165MOL0     C22152  10.849   4.080   1.672  0.2063 -0.4101  0.8223
  165MOL0     C22153  10.902   4.209   1.609 -0.4588  0.2111  0.2994
  165MOL0     C22154  11.042   4.196   1.542 -0.0477 -0.6721 -0.6082
  165MOL0     C22155  11.142   4.183   1.654 -0.4300 -0.2276  1.4666
  165MOL0     C22156  11.285   4.178   1.592  0.3116 -0.3134 -0.3895
  165MOL0     N22157  11.391   4.178   1.691  0.5801  0.4508 -1.0587
  165MOL0     C22158  11.446   4.062   1.747 -0.2374 -0.2100  0.9148
  165MOL0     C22159  11.489   4.096   1.869  0.2896 -0.6617  0.2573
  165MOL0     C22160  11.540   4.001   1.974  0.4409 -0.3719  0.1276
  165MOL0     C22161  11.690   3.993   1.962 -0.6027 -1.1696  0.1878
  165MOL0     C22162  11.739   3.875   2.052  0.4868 -0.3331  0.0201
  165MOL0     C22163  11.887   3.855   2.040 -0.6601 -0.0982  0.0240
  165MOL0     O22164  11.920   3.842   1.899  1.0789  0.5479  0.1512
  165MOL0     C22165  12.046   3.807   1.865  0.4057  0.1902 -0.3035
  165MOL0     C22166  12.150   3.789   1.960 -0.1941 -0.1283  0.2652
  165MOL0     C22167  12.276   3.749   1.920  0.0042  0.1332  0.2284
  165MOL0     C22168  12.317   3.757   1.788  1.0935  0.8917  0.4819
  165MOL0     C22169  12.453   3.714   1.753 -0.3463  0.0396 -0.0588
  165MOL0     O22170  12.468   3.676   1.628  0.4626  1.7183  0.1648
  165MOL0     C22171  12.587   3.618   1.596  0.5650  0.4230 -0.1081
  165MOL0     C22172  12.572   3.514   1.515 -0.4153  0.9929  0.4005
  165MOL0     C22173  12.693   3.452   1.465  0.2969 -0.1856 -0.7703
  165MOL0     C22174  12.823   3.498   1.505  0.0606 -0.2741 -0.3016
  165MOL0     O22175  12.936   3.439   1.474  0.4263 -0.1820 -0.2258
  165MOL0     C22176  12.959   3.403   1.337  0.5504 -0.3292 -0.2658
  165MOL0     C22177  13.100   3.430   1.290 -0.8855 -0.7299  1.0381
  165MOL0     C22178  13.200   3.348   1.370  0.3318  0.4100 -0.3565
  165MOL0     C22179  13.332   3.419   1.355 -0.8333  0.0584  0.0202
  165MOL0     C22180  13.403   3.413   1.222 -0.3758  0.0978 -0.2502
  165MOL0     C22181  13.557   3.419   1.246  0.6139  0.1959 -0.7512
  165MOL0     C22182  13.626   3.427   1.113 -0.3503 -0.1926 -0.0668
  165MOL0     C22183  13.780   3.415   1.127 -0.4948 -0.0925  0.0932
  165MOL0    Cl22184  13.858   3.451   0.972 -0.5382 -0.3933  0.1416
  165MOL0     C22185  12.833   3.604   1.589 -0.5339  0.3464  0.6785
  165MOL0     C22186  12.714   3.667   1.631  0.4603 -0.4133 -0.8604
  165MOL0     O22187  12.535   3.708   1.843 -0.0766 -0.4658  0.4475
  165MOL0     C22188  12.217   3.777   1.691  0.0106 -0.0735  0.5967
  165MOL0     C22189  12.080   3.790   1.729  0.2154 -0.1057 -0.5183
  165MOL0     N22190  11.476   4.234   1.888  0.4127 -0.3432  0.3216
  165MOL0     N22191  11.427   4.283   1.774  0.3829  0.6763 -0.3755
  165MOL0     C22192  10.164   4.047   1.698 -0.0576 -0.2773  0.3436
  165MOL0     C22193  10.031   4.034   1.695  0.2562  0.4231 -0.1257
  165MOL0     C22194   9.592   3.916   1.485  0.2720 -0.8470 -0.1744
  165MOL0     C22195   9.529   3.948   1.610  0.1538 -0.4019 -0.5619
  165MOL0     C22196   9.387   3.933   1.629 -0.5199 -0.3201  0.7886
  165MOL0     C22197   9.309   3.909   1.515  0.6563  0.1493 -0.1043
  165MOL0     O22198   9.174   3.906   1.536 -0.2899  0.1221 -0.0078
  165MOL0     C22199   9.102   3.795   1.481  0.1016 -0.5498 -1.1872
  165MOL0     C22200   8.949   3.809   1.494 -0.8880 -0.2851 -0.4558
  165MOL0     C22201   8.905   3.834   1.637  0.3251  0.2450  0.1203
  165MOL0     C22202   8.792   3.934   1.640  0.6637 -0.2597 -0.8969
  165MOL0     C22203   8.703   3.916   1.756  0.5738  0.2720 -0.6433
  165MOL0     C22204   8.614   3.884   1.838  0.1566 -0.1331  0.5570
  165MOL0     C22205   9.372   3.882   1.390 -0.0931 -1.0242  0.1954
  165MOL0     C22206   9.507   3.879   1.376 -0.0558  0.0321  0.2522
  165MOL0     C22207   9.550   3.823   1.242 -0.1379 -0.4723 -0.5292
  165MOL0     H22208   9.986   4.000   1.357  3.6687 -2.3993 -1.3170
  165MOL0     H22209  10.212   4.023   1.362 -2.7459 -1.4757 -2.0070
  165MOL0     H22210  10.464   4.206   1.664  1.6480  0.5322 -3.4099
  165MOL0     H22211  10.458   4.059   1.760  1.2145 -0.1767 -0.0158
  165MOL0     H22212  10.631   4.097   1.520 -0.9455 -5.4576 -2.5559
  165MOL0     H22213  10.634   3.956   1.616  0.4987  1.0589 -2.6552
  165MOL0     H22214  10.707   4.046   1.818 -5.4186  0.1884 -0.5042
  165MOL0     H22215  10.690   4.210   1.754 -0.6198  0.5586 -0.9866
  165MOL0     H22216  10.920   4.045   1.747  0.5318  0.3448  0.8832
  165MOL0     H22217  10.845   4.010   1.588  0.6916  1.5107 -0.8871
  165MOL0     H22218  10.841   4.252   1.529 -3.4203 -1.8336  1.2902
  165MOL0     H22219  10.920   4.283   1.687  0.0343  1.6325 -1.0990
  165MOL0     H22220  11.050   4.108   1.478 -0.5775  0.1448 -1.8577
  165MOL0     H22221  11.068   4.284   1.481  0.8440  2.6819  4.0779
  165MOL0     H22222  11.131   4.087   1.705 -0.5482 -0.6780  0.6095
  165MOL0     H22223  11.118   4.268   1.719 -1.1106  0.0783  0.8273
  165MOL0     H22224  11.310   4.093   1.528 -0.7565 -1.0404  0.1388
  165MOL0     H22225  11.309   4.274   1.544  1.2359 -1.2718 -1.9214
  165MOL0     H22226  11.448   3.967   1.696  1.4627  0.0688  0.3918
  165MOL0     H22227  11.519   4.042   2.074 -0.0316  0.9326 -0.4892
  165MOL0     H22228  11.488   3.905   1.969 -1.1037  0.4066  0.4402
  165MOL0     H22229  11.721   3.963   1.862  1.8601  1.1870  0.1118
  165MOL0     H22230  11.741   4.088   1.981 -0.5916 -1.2066  0.3435
  165MOL0     H22231  11.682   3.784   2.031  0.8050 -0.5551  0.1044
  165MOL0     H22232  11.713   3.900   2.155 -1.1544  4.8727 -1.3522
  165MOL0     H22233  11.899   3.759   2.091  1.2046  0.5945  0.9643
  165MOL0     H22234  11.947   3.931   2.089  0.1127 -2.1542  2.4849
  165MOL0     H22235  12.135   3.800   2.067 -0.0919  1.3321  0.1526
  165MOL0     H22236  12.350   3.724   1.995 -0.9567  1.2177  1.6057
  165MOL0     H22237  12.479   3.470   1.480 -0.4684  0.3745  1.2743
  165MOL0     H22238  12.689   3.367   1.398 -2.2561 -1.3187  0.6530
  165MOL0     H22239  12.923   3.301   1.327 -1.2652  0.4815 -3.0709
  165MOL0     H22240  12.894   3.471   1.281  1.2681  0.9500  0.3986
  165MOL0     H22241  13.118   3.397   1.188 -3.1296 -2.2569  1.0756
  165MOL0     H22242  13.119   3.538   1.299  0.5947 -0.9907  1.4227
  165MOL0     H22243  13.173   3.362   1.475  1.7240  1.7495 -0.1435
  165MOL0     H22244  13.202   3.241   1.347 -0.5138  0.5570 -1.1805
  165MOL0     H22245  13.401   3.370   1.424 -1.5966 -0.3900  0.4800
  165MOL0     H22246  13.339   3.522   1.392 -1.5465  0.0244  0.2685
  165MOL0     H22247  13.382   3.510   1.176  0.2103  0.9594  1.2326
  165MOL0     H22248  13.385   3.327   1.158 -0.4660  1.2697 -1.8648
  165MOL0     H22249  13.587   3.508   1.303 -0.0144  0.8685 -1.4399
  165MOL0     H22250  13.583   3.327   1.298 -2.4126 -0.8305 -0.8475
  165MOL0     H22251  13.612   3.528   1.073  2.1654  1.6675  3.2197
  165MOL0     H22252  13.591   3.343   1.052  0.0071 -0.7727  0.5237
  165MOL0     H22253  13.813   3.491   1.199 -1.0852  0.8655 -0.6201
  165MOL0     H22254  13.811   3.322   1.175  1.8031  1.1559  1.2123
  165MOL0     H22255  12.933   3.634   1.619 -1.1941  0.9951  2.3339
  165MOL0     H22256  12.730   3.758   1.689  0.7558  0.5744 -2.4345
  165MOL0     H22257  12.242   3.777   1.585  0.8135 -2.1431  0.7448
  165MOL0     H22258  12.005   3.775   1.653 -0.2079 -4.1130  0.4418
  165MOL0     H22259  10.204   4.081   1.794 -0.4799  0.3640  0.3039
  165MOL0     H22260   9.987   4.035   1.794  1.0881  0.2610  0.2540
  165MOL0     H22261   9.588   3.981   1.694  0.3666 -2.1654  0.0256
  165MOL0     H22262   9.340   3.947   1.726  1.4976 -2.1047  2.1075
  165MOL0     H22263   9.130   3.708   1.542 -1.1870 -0.4434 -0.4056
  165MOL0     H22264   9.113   3.766   1.376 -3.1110 -2.4759 -1.1551
  165MOL0     H22265   8.903   3.716   1.459 -1.2164  0.4867 -2.1842
  165MOL0     H22266   8.921   3.889   1.424  3.2100  3.0259  1.2383
  165MOL0     H22267   8.987   3.873   1.697 -0.6895  1.3558  0.8262
  165MOL0     H22268   8.867   3.739   1.676 -0.2142  0.3518 -0.1423
  165MOL0     H22269   8.839   4.033   1.645 -1.6131  0.8321  0.4738
  165MOL0     H22270   8.734   3.925   1.548  0.0773 -1.2203 -0.4441
  165MOL0     H22271   8.528   3.859   1.897 -0.7093  2.1001  0.3322
  165MOL0     H22272   9.315   3.846   1.306 -0.4142 -0.5908  0.2231
  165MOL0     H22273   9.461   3.838   1.180 -1.1033 -0.0836  0.9207
  165MOL0     H22274   9.644   3.870   1.210  0.3035 -0.0065  1.3346
  165MOL0     H22275   9.570   3.716   1.251  0.8121 -0.1479  1.6670
  166MOL0     O22276   1.658   5.548   2.882  0.5756  0.7224  0.3998
  166MOL0     C22277   1.705   5.438   2.921  0.2575 -0.3827  0.0308
  166MOL0     O22278   1.631   5.335   2.966  0.4071 -0.1950 -0.3250
  166MOL0     C22279   1.508   5.353   3.027 -0.4681  0.0965  0.1716
  166MOL0     C22280   1.414   5.246   3.025 -0.0652  0.2836  0.7710
  166MOL0     C22281   1.302   5.246   3.103 -0.0282 -0.5879 -0.1806
  166MOL0     C22282   1.282   5.359   3.183 -0.3544 -0.3500  0.5515
  166MOL0     O22283   1.170   5.348   3.258  1.0755 -0.5722  0.0752
  166MOL0     C22284   1.113   5.467   3.310  0.1516 -0.8203 -0.4983
  166MOL0     C22285   0.965   5.452   3.318 -0.2321  0.3656 -0.2666
  166MOL0     C22286   0.926   5.313   3.373 -0.1953 -0.9050  0.0893
  166MOL0     C22287   0.778   5.329   3.437 -0.3815 -0.1691  0.7494
  166MOL0     C22288   0.710   5.199   3.458 -0.5273 -0.7409 -1.4241
  166MOL0     C22289   0.774   5.101   3.548 -0.3079  0.0733  0.0297
  166MOL0     C22290   0.796   5.146   3.691  0.3251  0.4579  0.3085
  166MOL0     C22291   0.895   5.048   3.757 -0.4911 -0.6867 -0.5282
  166MOL0     N22292   0.863   5.066   3.898  0.2778  0.4406  0.5847
  166MOL0     C22293   0.766   4.987   3.957 -1.0274  0.7468 -0.8758
  166MOL0     C22294   0.787   4.986   4.093 -1.0959  0.0894 -0.8723
  166MOL0     C22295   0.701   4.905   4.193  0.2911  0.4537  0.4885
  166MOL0     C22296   0.657   4.967   4.324  0.1641 -0.4139 -0.8592
  166MOL0     C22297   0.573   5.096   4.330  0.2275  0.1067 -0.0868
  166MOL0     C22298   0.427   5.093   4.273  0.6003  0.5716 -0.2577
  166MOL0     O22299   0.406   5.054   4.136  0.3367 -0.3512  0.0294
  166MOL0     C22300   0.393   5.139   4.034  0.7697 -0.0191 -1.4392
  166MOL0     C22301   0.502   5.213   3.988  0.8517  0.6256  0.6671
  166MOL0     C22302   0.492   5.295   3.870  0.0524 -1.0412 -0.4966
  166MOL0     C22303   0.371   5.312   3.807 -0.2762  0.1147  0.0506
  166MOL0     C22304   0.358   5.404   3.694 -0.3816 -0.7842  0.4160
  166MOL0     O22305   0.481   5.448   3.640  0.0025  0.2603  0.6539
  166MOL0     C22306   0.478   5.517   3.523  0.5114  0.7188  0.4544
  166MOL0     C22307   0.414   5.471   3.414 -0.5772  0.5651  0.5988
  166MOL0     C22308   0.418   5.541   3.291  0.5043 -0.4232 -0.6441
  166MOL0     C22309   0.487   5.658   3.284 -0.4298 -0.4100 -0.5696
  166MOL0     O22310   0.475   5.728   3.169  0.2342 -0.0129  0.4036
  166MOL0     C22311   0.531   5.861   3.164 -0.6381 -0.5482  0.6012
  166MOL0     C22312   0.507   5.922   3.023 -0.6346 -0.6189 -0.3438
  166MOL0     C22313   0.573   6.072   3.015  0.0455  0.0875  0.2886
  166MOL0     C22314   0.622   6.091   2.865 -0.3914  0.3006  0.0235
  166MOL0     C22315   0.716   6.215   2.848  0.8971 -0.1438  0.4941
  166MOL0     C22316   0.852   6.175   2.921 -0.2152  0.0151 -0.1025
  166MOL0     C22317   0.971   6.275   2.882  0.7382  0.4864 -0.6332
  166MOL0     C22318   1.112   6.205   2.896 -0.2640  0.0741 -0.5228
  166MOL0    Cl22319   1.115   6.087   3.032  0.1622 -0.5029 -0.0939
  166MOL0     C22320   0.564   5.705   3.391 -0.2425  0.0395 -0.0746
  166MOL0     C22321   0.563   5.630   3.506  1.1565  0.1112  1.1019
  166MOL0     O22322   0.252   5.454   3.668 -0.1040  0.8594 -0.5271
  166MOL0     C22323   0.248   5.246   3.861  0.3684 -0.5579  1.2849
  166MOL0     C22324   0.269   5.151   3.967  0.3900  0.1960  0.0276
  166MOL0     N22325   0.890   5.074   4.117 -1.1082  0.0377 -0.2715
  166MOL0     N22326   0.926   5.118   4.003 -0.2826  0.0029  0.5885
  166MOL0     C22327   1.379   5.456   3.197 -0.6860  0.5345 -1.5362
  166MOL0     C22328   1.492   5.453   3.121 -0.7999  0.7403 -0.6378
  166MOL0     C22329   1.846   5.419   2.902  0.3580  0.0109  0.3510
  166MOL0     C22330   1.916   5.521   2.835  0.5407  0.0244 -0.1061
  166MOL0     C22331   2.053   5.519   2.803 -0.2420 -0.6782 -0.5514
  166MOL0     C22332   2.132   5.408   2.850  0.0489 -0.1487 -0.6113
  166MOL0     O22333   2.267   5.409   2.823  0.1217 -0.8031  0.2078
  166MOL0     C22334   2.348   5.310   2.895  0.4871 -0.1953  0.3464
  166MOL0     C22335   2.505   5.322   2.865  0.9628  0.0355  0.1585
  166MOL0     C22336   2.575   5.459   2.884 -0.2698  0.1393  0.2960
  166MOL0     C22337   2.658   5.496   2.756  0.1611 -0.0700 -0.8144
  166MOL0     C22338   2.768   5.394   2.764  0.0590 -0.3795 -0.4871
  166MOL0     C22339   2.844   5.306   2.764 -0.8262  0.6971 -0.4507
  166MOL0     C22340   2.063   5.308   2.918  0.0578 -0.1249 -1.0754
  166MOL0     C22341   1.924   5.315   2.955 -0.2138 -0.7821 -0.1079
  166MOL0     C22342   1.870   5.215   3.042  0.0576  0.0387  0.1735
  166MOL0     H22343   1.438   5.156   2.969 -0.0738  0.5720  0.3052
  166MOL0     H22344   1.228   5.167   3.097 -2.7969  1.8851 -0.7639
  166MOL0     H22345   1.162   5.478   3.407  2.4448 -0.3675 -1.6417
  166MOL0     H22346   1.135   5.556   3.251 -0.1456 -0.8124 -0.6011
  166MOL0     H22347   0.912   5.462   3.223 -1.8093  0.1569  0.5590
  166MOL0     H22348   0.939   5.536   3.383  1.2622 -0.7766  1.9458
  166MOL0     H22349   1.002   5.289   3.447  0.4246  1.4042  0.2888
  166MOL0     H22350   0.922   5.242   3.290  0.7523 -1.2893  0.3660
  166MOL0     H22351   0.776   5.390   3.528 -2.1582 -0.8886  1.2385
  166MOL0     H22352   0.717   5.377   3.360  0.6222 -4.2314 -2.9667
  166MOL0     H22353   0.610   5.220   3.496  0.8462  2.8639  0.6769
  166MOL0     H22354   0.689   5.154   3.360 -0.9340 -3.3722 -0.1935
  166MOL0     H22355   0.711   5.013   3.532  1.9847 -1.2587 -2.5443
  166MOL0     H22356   0.871   5.073   3.505 -0.7432 -1.5592  0.0164
  166MOL0     H22357   0.698   5.152   3.740  0.3208 -2.1512  0.7366
  166MOL0     H22358   0.843   5.245   3.696 -0.9802  1.1501 -0.6483
  166MOL0     H22359   0.867   4.945   3.736 -2.8161 -0.0138 -1.0517
  166MOL0     H22360   1.000   5.069   3.738 -0.5992 -0.1880 -0.5948
  166MOL0     H22361   0.681   4.944   3.904 -1.9088 -0.8569  1.6516
  166MOL0     H22362   0.610   4.874   4.141  0.5591 -2.3669  1.5109
  166MOL0     H22363   0.757   4.814   4.219 -0.0111  0.9416  3.1693
  166MOL0     H22364   0.585   4.898   4.369 -0.1532  0.0446 -0.6494
  166MOL0     H22365   0.749   4.979   4.381 -1.3397  0.2281  1.5839
  166MOL0     H22366   0.622   5.172   4.268 -1.1268 -0.2005 -1.6208
  166MOL0     H22367   0.562   5.125   4.434 -0.1693  0.7703 -0.3124
  166MOL0     H22368   0.377   5.189   4.288 -0.0647  0.1469  0.3019
  166MOL0     H22369   0.383   5.023   4.344  1.5307 -1.6840 -1.7751
  166MOL0     H22370   0.595   5.204   4.043  1.4990 -0.6690 -0.5688
  166MOL0     H22371   0.581   5.346   3.836 -0.1793 -0.1348  0.1881
  166MOL0     H22372   0.359   5.378   3.428 -4.4228  2.6544  0.8445
  166MOL0     H22373   0.369   5.509   3.199 -2.4354 -0.4224  0.8266
  166MOL0     H22374   0.493   5.928   3.242 -0.0414  1.1674 -0.5264
  166MOL0     H22375   0.639   5.861   3.184  0.3971 -0.2994 -3.8977
  166MOL0     H22376   0.575   5.866   2.959  0.8139  0.1322  0.4856
  166MOL0     H22377   0.401   5.934   2.998 -0.4429 -1.5927 -1.7338
  166MOL0     H22378   0.492   6.143   3.037 -1.0318 -1.0548  0.1469
  166MOL0     H22379   0.651   6.085   3.090  0.6979 -0.8337 -0.2272
  166MOL0     H22380   0.537   6.107   2.799 -1.8192  2.2083  2.1913
  166MOL0     H22381   0.683   6.008   2.827  1.2810  0.9013  1.2391
  166MOL0     H22382   0.673   6.309   2.883 -2.3423 -0.7945 -1.3208
  166MOL0     H22383   0.741   6.229   2.743  2.9092  0.5933  1.0135
  166MOL0     H22384   0.847   6.172   3.031  0.6863  0.9054 -0.0181
  166MOL0     H22385   0.891   6.076   2.895  3.3424  0.9446  1.0199
  166MOL0     H22386   0.963   6.357   2.955 -0.8030  0.7511 -1.0503
  166MOL0     H22387   0.955   6.306   2.778 -2.6295  3.4221  0.5139
  166MOL0     H22388   1.130   6.157   2.799  2.9301  1.3611 -0.6939
  166MOL0     H22389   1.198   6.273   2.902  2.1076 -2.7770  0.5175
  166MOL0     H22390   0.623   5.796   3.392 -2.3547  1.4904 -0.5700
  166MOL0     H22391   0.625   5.664   3.588  2.6961 -1.1637  0.5106
  166MOL0     H22392   0.152   5.264   3.815  0.2494  0.1854  1.8115
  166MOL0     H22393   0.182   5.101   4.009  0.8539 -0.0437  0.7309
  166MOL0     H22394   1.368   5.537   3.269 -2.0042 -0.2893 -0.7576
  166MOL0     H22395   1.576   5.519   3.135 -0.9063  0.5183  1.2785
  166MOL0     H22396   1.860   5.603   2.791  0.3446  0.3937  0.8171
  166MOL0     H22397   2.094   5.606   2.752  0.5316 -1.4293 -1.2403
  166MOL0     H22398   2.324   5.211   2.857 -1.2906  0.2990  0.0969
  166MOL0     H22399   2.336   5.301   3.003 -0.6342  2.5032  0.5383
  166MOL0     H22400   2.514   5.301   2.758 -0.2180  0.1744  0.0205
  166MOL0     H22401   2.564   5.244   2.915  0.5269 -0.5054 -0.1628
  166MOL0     H22402   2.632   5.452   2.977 -2.6129  1.1063  1.9284
  166MOL0     H22403   2.505   5.543   2.896  2.5489  2.5825  0.8883
  166MOL0     H22404   2.605   5.482   2.662  0.3037 -0.4056 -0.8452
  166MOL0     H22405   2.702   5.596   2.760 -0.6123  0.2399  0.9902
  166MOL0     H22406   2.895   5.212   2.761 -2.0920 -0.0146 -0.4424
  166MOL0     H22407   2.124   5.223   2.946  1.5184  1.1762 -0.1010
  166MOL0     H22408   1.951   5.142   3.050  2.1101  1.4466 -4.3858
  166MOL0     H22409   1.822   5.248   3.135  0.1311 -1.3257  0.7205
  166MOL0     H22410   1.800   5.152   2.987  0.0761 -1.1255  1.4332
  167MOL0     O22411   1.759   6.663  10.319 -0.1237  0.4518 -0.1978
  167MOL0     C22412   1.825   6.606  10.229 -0.0015 -0.6548 -0.2137
  167MOL0     O22413   1.777   6.502  10.153  0.5862 -0.1244  0.3163
  167MOL0     C22414   1.664   6.446  10.193  0.6714 -0.6080  0.7170
  167MOL0     C22415   1.656   6.379  10.319  0.1068 -0.0440 -0.0242
  167MOL0     C22416   1.532   6.326  10.357  0.4032 -0.1595  0.2043
  167MOL0     C22417   1.426   6.311  10.268 -0.7107  0.5427 -0.6747
  167MOL0     O22418   1.323   6.237  10.322  0.4064 -0.0415  0.4119
  167MOL0     C22419   1.203   6.229  10.246 -0.1778 -0.3528  0.5051
  167MOL0     C22420   1.098   6.151  10.317  0.0847 -0.5826  0.2215
  167MOL0     C22421   0.981   6.114  10.223 -0.1032 -0.6361  0.3576
  167MOL0     C22422   0.864   6.048  10.302 -0.2567 -0.4538  0.3376
  167MOL0     C22423   0.735   6.059  10.234  0.8949 -0.2039 -0.0145
  167MOL0     C22424   0.729   6.003  10.088 -0.8107 -0.5270  0.0290
  167MOL0     C22425   0.759   5.848  10.085  0.1749 -0.0177  0.0593
  167MOL0     C22426   0.683   5.784   9.959  0.1389  0.1597  0.0013
  167MOL0     N22427   0.732   5.831   9.833  0.4296 -0.3816  0.4097
  167MOL0     C22428   0.838   5.777   9.771  0.7731  0.1003 -0.1710
  167MOL0     C22429   0.837   5.839   9.651  0.9725  0.0212  0.6575
  167MOL0     C22430   0.934   5.797   9.537 -0.0024 -0.1368 -0.2726
  167MOL0     C22431   1.050   5.891   9.566 -0.1019 -0.9185  0.6036
  167MOL0     C22432   1.147   5.882   9.448 -0.8517 -0.5313  0.4500
  167MOL0     C22433   1.281   5.931   9.491 -0.9036 -0.8141  0.2628
  167MOL0     O22434   1.286   6.070   9.511 -0.4436 -0.1027 -0.2094
  167MOL0     C22435   1.400   6.113   9.579  0.1969  0.1212 -0.0312
  167MOL0     C22436   1.523   6.048   9.573  0.0094  0.0008 -0.8467
  167MOL0     C22437   1.634   6.086   9.647  0.2381  0.3586  0.6894
  167MOL0     C22438   1.620   6.186   9.746  1.0024  0.7605  0.3857
  167MOL0     C22439   1.725   6.245   9.821 -0.4398  0.1220 -0.7919
  167MOL0     O22440   1.830   6.149   9.834 -0.0647 -0.1186 -0.0019
  167MOL0     C22441   1.952   6.200   9.875  0.5398  0.3443  0.1662
  167MOL0     C22442   2.061   6.209   9.785 -1.0419  0.0727 -0.9593
  167MOL0     C22443   2.185   6.257   9.835 -0.2710  0.5960  0.0983
  167MOL0     C22444   2.206   6.299   9.971 -0.0465 -0.7804  0.7119
  167MOL0     O22445   2.318   6.342  10.027  0.1926 -0.5158  0.3927
  167MOL0     C22446   2.416   6.395   9.936  0.8222 -0.0617 -0.2867
  167MOL0     C22447   2.522   6.467  10.027  0.5206  0.2654  0.3320
  167MOL0     C22448   2.630   6.551   9.960  0.4241 -0.0562 -0.3288
  167MOL0     C22449   2.704   6.478   9.847 -0.6898  0.4728  0.3192
  167MOL0     C22450   2.824   6.559   9.792 -0.1417  1.0097 -1.4062
  167MOL0     C22451   2.943   6.530   9.880 -0.1693  0.0970 -0.0545
  167MOL0     C22452   3.071   6.574   9.810  0.0777  0.5198 -0.3357
  167MOL0     C22453   3.069   6.700   9.717  0.5160  0.8308  0.6357
  167MOL0    Cl22454   3.008   6.849   9.790 -0.0751 -0.2430  0.1930
  167MOL0     C22455   2.097   6.277  10.050  0.1099 -0.3068  0.0480
  167MOL0     C22456   1.975   6.234  10.002  0.3327 -0.0249  0.3779
  167MOL0     O22457   1.724   6.362   9.839 -0.2908  0.0392  0.0589
  167MOL0     C22458   1.491   6.247   9.762 -0.2956  0.6282 -0.1468
  167MOL0     C22459   1.386   6.217   9.673  0.4845 -0.1869 -0.2377
  167MOL0     N22460   0.747   5.934   9.653  0.3385 -0.3932  0.2172
  167MOL0     N22461   0.693   5.931   9.761 -0.1072 -0.0467 -0.3254
  167MOL0     C22462   1.440   6.368  10.142  0.1981  0.0217  0.1503
  167MOL0     C22463   1.555   6.443  10.104  0.2116 -0.7475  0.1483
  167MOL0     C22464   1.953   6.652  10.183  0.2371 -0.4235 -0.6963
  167MOL0     C22465   2.001   6.627  10.047  0.4855  0.3147  0.1514
  167MOL0     C22466   2.123   6.664   9.999 -0.8324  0.0118 -0.1236
  167MOL0     C22467   2.204   6.753  10.075 -0.0521  0.4975  0.2115
  167MOL0     O22468   2.317   6.793  10.023 -0.5661 -0.3007 -0.1378
  167MOL0     C22469   2.407   6.871  10.114 -0.4432 -0.3475  0.2679
  167MOL0     C22470   2.542   6.905  10.047 -0.4328  1.7524  0.2719
  167MOL0     C22471   2.534   6.972   9.913  0.0373 -0.7131  0.2027
  167MOL0     C22472   2.660   6.945   9.838 -0.1400  0.0409 -0.0300
  167MOL0     C22473   2.693   7.037   9.726  0.1048  0.2946  0.4096
  167MOL0     C22474   2.718   7.125   9.649 -0.1007  0.3773  0.0049
  167MOL0     C22475   2.153   6.796  10.199  0.3515 -0.1478 -0.7937
  167MOL0     C22476   2.032   6.760  10.252 -0.3389 -0.8836 -0.7998
  167MOL0     C22477   1.990   6.811  10.386 -0.0443 -0.1458 -0.6084
  167MOL0     H22478   1.744   6.391  10.381 -0.4469 -0.9772  0.9695
  167MOL0     H22479   1.512   6.300  10.460 -0.0065  2.1758  0.7684
  167MOL0     H22480   1.160   6.326  10.219 -3.9358 -1.8535  0.4948
  167MOL0     H22481   1.233   6.185  10.150 -0.9132  2.8024 -1.3130
  167MOL0     H22482   1.065   6.225  10.391  2.3818  0.0892  0.6781
  167MOL0     H22483   1.150   6.060  10.348  0.3452 -1.8424 -3.4635
  167MOL0     H22484   1.013   6.045  10.145 -1.9093 -1.4478  0.2890
  167MOL0     H22485   0.955   6.213  10.185  2.0784  0.3239  1.1395
  167MOL0     H22486   0.894   5.945  10.322  1.3987 -0.4812 -1.8183
  167MOL0     H22487   0.872   6.109  10.392  1.4381  1.0161 -0.7364
  167MOL0     H22488   0.665   5.990  10.280  1.9028 -1.3754 -0.1706
  167MOL0     H22489   0.695   6.160  10.240  0.6390 -0.3312  0.4533
  167MOL0     H22490   0.628   6.021  10.051 -1.1159 -0.6010  0.8175
  167MOL0     H22491   0.799   6.058  10.025 -1.4711  2.6677  1.8984
  167MOL0     H22492   0.727   5.798  10.176 -0.4882 -1.9673 -1.1823
  167MOL0     H22493   0.867   5.832  10.087  0.4605  1.7726  0.6517
  167MOL0     H22494   0.696   5.678   9.983 -0.4581  0.4822  1.9798
  167MOL0     H22495   0.579   5.818   9.952  0.0094 -0.4032 -0.8935
  167MOL0     H22496   0.909   5.711   9.819  1.3322  2.3481  2.4003
  167MOL0     H22497   0.987   5.703   9.553  0.9783  0.7747  2.4173
  167MOL0     H22498   0.873   5.809   9.447  0.4491  0.9604 -0.4500
  167MOL0     H22499   1.023   5.997   9.576 -1.5851 -1.2877  0.8931
  167MOL0     H22500   1.099   5.861   9.659 -1.3371  0.8471  1.9090
  167MOL0     H22501   1.120   5.952   9.368  0.5302 -1.8169 -1.2394
  167MOL0     H22502   1.157   5.785   9.397  0.7477 -0.3790  0.3992
  167MOL0     H22503   1.345   5.918   9.403 -0.0942  0.0795  0.6997
  167MOL0     H22504   1.326   5.885   9.579  0.6916  2.9789  1.6647
  167MOL0     H22505   1.536   5.969   9.500 -3.2196 -2.7356  1.2296
  167MOL0     H22506   1.731   6.038   9.644 -0.4975 -1.1427 -0.1236
  167MOL0     H22507   2.060   6.182   9.680  1.0944  0.3436 -1.0897
  167MOL0     H22508   2.266   6.268   9.763 -1.7236  2.1510 -1.3721
  167MOL0     H22509   2.472   6.314   9.888  0.5997  2.3154 -5.0991
  167MOL0     H22510   2.378   6.467   9.863 -2.3393  0.7092  1.9047
  167MOL0     H22511   2.470   6.520  10.107  1.7386  1.0071  0.6722
  167MOL0     H22512   2.576   6.383  10.073 -0.4247 -0.9526 -0.7070
  167MOL0     H22513   2.584   6.633   9.903  0.8035 -0.7108 -1.6346
  167MOL0     H22514   2.694   6.599  10.034 -3.1418  0.9508  2.3935
  167MOL0     H22515   2.637   6.466   9.761 -1.1718 -4.1943  1.1017
  167MOL0     H22516   2.730   6.374   9.867 -1.0403  0.4600  0.7314
  167MOL0     H22517   2.796   6.664   9.787 -2.1748  0.5294 -0.7507
  167MOL0     H22518   2.849   6.515   9.695  3.0952  3.0894 -1.6985
  167MOL0     H22519   2.920   6.586   9.971 -0.0560 -0.9992  0.6782
  167MOL0     H22520   2.962   6.424   9.902  1.0443  0.5655  1.3176
  167MOL0     H22521   3.104   6.489   9.750 -0.9426 -1.0670  1.2805
  167MOL0     H22522   3.156   6.589   9.878 -1.2775  0.6956  1.3953
  167MOL0     H22523   3.173   6.716   9.685 -0.6053 -0.6870 -4.7869
  167MOL0     H22524   3.019   6.670   9.624  1.4196 -1.1236  0.7290
  167MOL0     H22525   2.090   6.314  10.152 -3.2560  0.1224 -0.2101
  167MOL0     H22526   1.886   6.236  10.064  1.0448  1.0842  1.4118
  167MOL0     H22527   1.483   6.304   9.855  2.5641  0.7290  0.1351
  167MOL0     H22528   1.291   6.269   9.669 -0.6197 -2.0341  1.1463
  167MOL0     H22529   1.361   6.362  10.067  1.0769  1.8111 -0.9971
  167MOL0     H22530   1.565   6.494  10.009 -1.9431 -1.7167 -0.6679
  167MOL0     H22531   1.955   6.559   9.976  0.2160  0.4387  0.2076
  167MOL0     H22532   2.160   6.626   9.904 -0.6073 -0.2423  0.0643
  167MOL0     H22533   2.435   6.819  10.206  0.1850 -0.2640  0.1285
  167MOL0     H22534   2.367   6.970  10.140 -3.3450 -1.5439  0.7670
  167MOL0     H22535   2.595   6.809  10.041 -2.1720  0.6837  1.0733
  167MOL0     H22536   2.611   6.960  10.111  1.1416  0.3484 -0.1332
  167MOL0     H22537   2.507   7.076   9.930  1.1566 -0.6251  1.5412
  167MOL0     H22538   2.447   6.939   9.855 -0.5569 -0.1537  0.7525
  167MOL0     H22539   2.741   6.949   9.911 -0.7927 -1.2116  0.8041
  167MOL0     H22540   2.666   6.841   9.807  0.5823 -1.1087  3.5054
  167MOL0     H22541   2.729   7.218   9.596  3.1499 -0.5209 -1.1029
  167MOL0     H22542   2.204   6.868  10.261 -0.6607  0.5028 -0.7029
  167MOL0     H22543   1.962   6.744  10.468  2.8530  2.5095  2.9055
  167MOL0     H22544   2.058   6.883  10.433 -1.2480 -0.1489  1.2260
  167MOL0     H22545   1.904   6.877  10.369 -0.0817  0.1065  0.4713
  168MOL0     O22546   9.811   5.390  11.130  1.0192 -0.3025 -0.0193
  168MOL0     C22547   9.868   5.452  11.219 -0.6413 -0.1142 -0.8232
  168MOL0     O22548   9.812   5.550  11.300  0.0724 -0.6315 -0.2652
  168MOL0     C22549   9.684   5.601  11.278 -0.6508  0.8225  0.2562
  168MOL0     C22550   9.597   5.616  11.380  0.0524 -0.3163  0.5855
  168MOL0     C22551   9.471   5.662  11.354 -0.1939  0.1586  0.4702
  168MOL0     C22552   9.432   5.708  11.237 -0.6127 -0.0642  0.2420
  168MOL0     O22553   9.314   5.770  11.224 -0.2252 -0.3032  0.1189
  168MOL0     C22554   9.283   5.848  11.106  0.3356  0.1263  0.4439
  168MOL0     C22555   9.161   5.936  11.138 -1.4075  0.5696 -0.0898
  168MOL0     C22556   9.092   5.979  11.016  0.2989  0.2879 -0.2456
  168MOL0     C22557   8.997   5.862  10.974  0.0371  1.8642  0.1780
  168MOL0     C22558   8.910   5.918  10.867  0.0234 -0.6411  0.2364
  168MOL0     C22559   8.794   5.818  10.839  0.0477  0.6730 -0.0841
  168MOL0     C22560   8.693   5.877  10.744 -0.1713  0.4133  0.7538
  168MOL0     C22561   8.596   5.768  10.703 -0.0576 -0.3067 -0.4433
  168MOL0     N22562   8.641   5.673  10.599 -0.4246 -0.5314  0.3375
  168MOL0     C22563   8.660   5.536  10.612  0.6936  0.4060 -0.0031
  168MOL0     C22564   8.745   5.507  10.511 -0.0525 -0.3943  0.4650
  168MOL0     C22565   8.797   5.368  10.478  0.0483  0.2480 -0.2208
  168MOL0     C22566   8.948   5.353  10.506  0.5621  0.3422  0.4138
  168MOL0     C22567   9.005   5.246  10.405  0.0190 -0.0391  0.5660
  168MOL0     C22568   9.156   5.248  10.407  1.1441 -0.5024 -0.5165
  168MOL0     O22569   9.193   5.375  10.344  0.2200  0.1696 -0.4099
  168MOL0     C22570   9.331   5.404  10.341  0.1835  0.1774 -0.6553
  168MOL0     C22571   9.424   5.338  10.418  1.1224  0.0097 -0.9011
  168MOL0     C22572   9.557   5.373  10.418 -0.3708 -0.0575  0.1677
  168MOL0     C22573   9.606   5.475  10.346  0.2642 -0.3900  0.2140
  168MOL0     C22574   9.753   5.502  10.337  0.6573  0.5757 -0.3555
  168MOL0     O22575   9.795   5.618  10.285 -0.1838 -0.3375  0.1345
  168MOL0     C22576   9.935   5.641  10.268  0.1550  0.4076  0.2554
  168MOL0     C22577  10.015   5.552  10.199 -0.6500  0.8248  0.1234
  168MOL0     C22578  10.154   5.585  10.182 -0.5792 -0.1271 -0.0254
  168MOL0     C22579  10.223   5.692  10.249 -0.5438  0.5687  0.7409
  168MOL0     O22580  10.358   5.711  10.221  0.1152  0.0899 -0.2162
  168MOL0     C22581  10.436   5.595  10.195  0.1296  0.6201  0.1874
  168MOL0     C22582  10.589   5.629  10.218  0.1992 -0.8323 -0.0238
  168MOL0     C22583  10.633   5.733  10.121 -0.2661  0.1497 -0.3220
  168MOL0     C22584  10.792   5.736  10.106 -0.5084  0.5089  0.0040
  168MOL0     C22585  10.809   5.868  10.029 -1.6595 -0.7130 -0.0418
  168MOL0     C22586  10.968   5.884   9.998  1.2992 -0.1481 -0.2348
  168MOL0     C22587  10.992   6.039   9.967 -0.4936 -0.2380  0.0373
  168MOL0     C22588  11.139   6.068   9.955 -0.3865 -0.3794  0.7414
  168MOL0    Cl22589  11.213   6.017  10.109  0.4461  0.1564 -0.3387
  168MOL0     C22590  10.142   5.776  10.323  0.8535  0.7118 -0.6978
  168MOL0     C22591   9.994   5.752  10.327  0.0426  0.2427  0.1406
  168MOL0     O22592   9.823   5.408  10.377 -0.0007  0.0276  0.5359
  168MOL0     C22593   9.508   5.549  10.276 -0.9055  0.3758  0.2601
  168MOL0     C22594   9.372   5.508  10.276 -0.4210 -0.7665 -0.0279
  168MOL0     N22595   8.772   5.618  10.437 -0.0347  0.5129  0.0668
  168MOL0     N22596   8.702   5.709  10.482  0.2722 -0.0750  0.3766
  168MOL0     C22597   9.524   5.714  11.131 -0.7495  0.8304 -0.2148
  168MOL0     C22598   9.645   5.646  11.146  0.3999 -0.1790  0.5690
  168MOL0     C22599  10.002   5.397  11.259 -0.5850  0.3522 -0.2149
  168MOL0     C22600  10.079   5.339  11.160 -0.3477  0.9446 -0.2590
  168MOL0     C22601  10.201   5.283  11.186  0.0145  0.9362  0.5095
  168MOL0     C22602  10.265   5.302  11.305 -0.3323 -0.1606 -0.0585
  168MOL0     O22603  10.391   5.248  11.318  0.1291  0.1327  0.3950
  168MOL0     C22604  10.460   5.240  11.442  0.5533  0.5950  0.2545
  168MOL0     C22605  10.518   5.375  11.470 -1.1298 -0.2037 -0.4866
  168MOL0     C22606  10.622   5.373  11.579  0.5934  0.1007 -0.5556
  168MOL0     C22607  10.559   5.347  11.724 -0.3425  0.1340 -0.2461
  168MOL0     C22608  10.530   5.462  11.796 -0.1814  0.2277 -0.0615
  168MOL0     C22609  10.512   5.567  11.854 -0.3539  0.3847 -0.1075
  168MOL0     C22610  10.194   5.363  11.410 -0.5580  0.5874  0.0989
  168MOL0     C22611  10.061   5.406  11.389 -0.2709  0.7961  1.1011
  168MOL0     C22612   9.986   5.452  11.506 -0.3524 -0.0252  0.5089
  168MOL0     H22613   9.604   5.583  11.483 -2.6208  4.1143  2.5095
  168MOL0     H22614   9.390   5.670  11.426 -2.3107 -1.6841 -1.5821
  168MOL0     H22615   9.363   5.920  11.087  0.1123 -0.0372 -1.2364
  168MOL0     H22616   9.264   5.780  11.022 -1.6456  0.4004  0.6162
  168MOL0     H22617   9.207   6.027  11.179 -1.6759  0.3333  0.7515
  168MOL0     H22618   9.089   5.898  11.211 -1.6250 -0.3059 -0.7542
  168MOL0     H22619   9.153   6.009  10.931 -0.9447  2.9467 -0.3032
  168MOL0     H22620   9.031   6.069  11.031 -3.2878 -1.4686 -2.8105
  168MOL0     H22621   9.053   5.786  10.919 -2.1639  2.1531 -2.6764
  168MOL0     H22622   8.942   5.810  11.053  0.1755 -0.0169 -0.8945
  168MOL0     H22623   8.854   5.999  10.915 -3.6091 -1.1554 -2.6657
  168MOL0     H22624   8.972   5.954  10.785  0.0396  4.6693  2.2087
  168MOL0     H22625   8.829   5.720  10.806  2.8999  1.1268  1.3186
  168MOL0     H22626   8.737   5.805  10.931 -2.0275 -2.5042 -1.6388
  168MOL0     H22627   8.734   5.922  10.653  0.6698 -0.6791  0.5760
  168MOL0     H22628   8.642   5.953  10.804  3.8303  1.0202  3.7700
  168MOL0     H22629   8.548   5.717  10.787 -0.6837  1.5259  0.3583
  168MOL0     H22630   8.511   5.818  10.656  1.6565  2.2340 -1.0535
  168MOL0     H22631   8.606   5.462  10.671  0.5815  0.3714 -0.1495
  168MOL0     H22632   8.743   5.296  10.539 -1.1048  3.1689  2.4875
  168MOL0     H22633   8.782   5.345  10.372 -1.0089  0.3981 -0.1208
  168MOL0     H22634   8.995   5.450  10.491  0.2861  1.0062  3.2999
  168MOL0     H22635   8.945   5.321  10.611  1.9451 -1.1998  0.0276
  168MOL0     H22636   8.972   5.263  10.303 -4.0919 -2.6962  1.2281
  168MOL0     H22637   8.971   5.151  10.447 -3.0144 -0.0343 -1.5678
  168MOL0     H22638   9.203   5.155  10.374  1.7880 -0.5077  0.3879
  168MOL0     H22639   9.182   5.256  10.513  1.3218 -0.9383 -0.5271
  168MOL0     H22640   9.391   5.258  10.484 -2.9706  0.8447 -1.7228
  168MOL0     H22641   9.625   5.310  10.475  1.8003  0.4280 -1.7336
  168MOL0     H22642   9.984   5.451  10.174 -0.2562  0.1300  2.2573
  168MOL0     H22643  10.204   5.509  10.123  0.1900  0.2211  0.1601
  168MOL0     H22644  10.408   5.514  10.262  0.4272 -1.5967 -2.1982
  168MOL0     H22645  10.406   5.558  10.097 -0.5654  1.4211  0.0936
  168MOL0     H22646  10.597   5.665  10.321 -2.6187  1.7860 -0.5933
  168MOL0     H22647  10.653   5.540  10.219  2.5916  0.7985  0.1071
  168MOL0     H22648  10.585   5.715  10.025 -0.6164 -0.2993 -0.0685
  168MOL0     H22649  10.594   5.824  10.169 -0.9488 -0.3129  0.0208
  168MOL0     H22650  10.832   5.653  10.048  1.9381 -0.9729  3.4221
  168MOL0     H22651  10.844   5.744  10.203 -0.0702  2.9588 -0.3688
  168MOL0     H22652  10.769   5.943  10.099 -2.0678 -0.8498 -0.1273
  168MOL0     H22653  10.754   5.874   9.935  1.4659  3.0470 -1.9250
  168MOL0     H22654  11.025   5.848  10.084 -0.2871  2.4394  2.0849
  168MOL0     H22655  10.987   5.827   9.907  0.0231  1.6789 -1.7168
  168MOL0     H22656  10.957   6.082  10.061  1.4876  0.6623  0.3967
  168MOL0     H22657  10.932   6.067   9.879 -0.2593 -3.6065 -1.3518
  168MOL0     H22658  11.187   6.008   9.876 -0.6340 -1.5841  1.4746
  168MOL0     H22659  11.170   6.171   9.937  3.2534 -1.0939  2.0675
  168MOL0     H22660  10.178   5.863  10.378  0.2415  1.0259 -0.7898
  168MOL0     H22661   9.924   5.821  10.374 -0.6832  0.8772 -1.7499
  168MOL0     H22662   9.536   5.620  10.200 -3.2863  2.5979  1.3243
  168MOL0     H22663   9.297   5.561  10.218 -0.9821  0.8276  2.0387
  168MOL0     H22664   9.512   5.755  11.031 -1.3941 -2.0300 -1.4145
  168MOL0     H22665   9.719   5.657  11.067  0.3342  3.0227  0.7906
  168MOL0     H22666  10.032   5.316  11.066  0.3167  2.8357 -1.1108
  168MOL0     H22667  10.240   5.217  11.109 -1.2655 -2.1039  2.3154
  168MOL0     H22668  10.536   5.161  11.444  1.0690  1.0899  0.5212
  168MOL0     H22669  10.382   5.213  11.513 -0.6080  1.4780 -0.6457
  168MOL0     H22670  10.445   5.450  11.501  1.3505  1.1689  2.5969
  168MOL0     H22671  10.571   5.409  11.381 -0.9949 -0.5584 -0.5409
  168MOL0     H22672  10.660   5.476  11.576 -1.2150  0.8928  1.3753
  168MOL0     H22673  10.702   5.302  11.554 -2.5429 -3.8682 -0.3230
  168MOL0     H22674  10.474   5.278  11.717 -0.0872 -0.0366 -2.0973
  168MOL0     H22675  10.630   5.288  11.783  1.2065  0.6523 -1.5043
  168MOL0     H22676  10.514   5.660  11.907 -4.2225  0.1757  0.6997
  168MOL0     H22677  10.243   5.353  11.506  0.7549 -1.3244 -0.7038
  168MOL0     H22678  10.034   5.416  11.597 -0.1698  0.1263  0.4741
  168MOL0     H22679   9.982   5.561  11.518  1.5483 -0.1065  2.3707
  168MOL0     H22680   9.879   5.426  11.509  0.3165 -3.0203  1.0761
  169MOL0     O22681  11.288   3.072   4.311 -0.3357  0.1160  0.6133
  169MOL0     C22682  11.249   3.194   4.316  0.6089  0.2944 -0.5535
  169MOL0     O22683  11.323   3.294   4.298  0.1751 -0.0057 -0.2532
  169MOL0     C22684  11.459   3.280   4.283  0.3653 -0.1425 -0.3143
  169MOL0     C22685  11.522   3.179   4.219 -0.2177  0.5557  0.2289
  169MOL0     C22686  11.657   3.174   4.208  0.4547 -0.9322 -0.4597
  169MOL0     C22687  11.736   3.282   4.244 -0.0978 -0.5895 -0.7822
  169MOL0     O22688  11.867   3.265   4.224  0.5644 -0.3255 -0.0849
  169MOL0     C22689  11.955   3.381   4.230  0.2038 -0.1912 -0.0908
  169MOL0     C22690  12.084   3.345   4.149  0.3013  0.3327  0.3355
  169MOL0     C22691  12.135   3.199   4.178  0.2566  0.1700 -0.4838
  169MOL0     C22692  12.277   3.180   4.116  0.3326  0.1773  0.1930
  169MOL0     C22693  12.311   3.023   4.106  0.4345  0.9078  0.4140
  169MOL0     C22694  12.448   3.004   4.028 -0.1183  0.4401  0.0883
  169MOL0     C22695  12.509   2.861   4.045 -0.8043  0.0311 -0.4930
  169MOL0     C22696  12.659   2.869   4.013  0.0985 -0.8015 -1.2154
  169MOL0     N22697  12.702   2.976   3.926 -0.1167 -0.2538  0.8660
  169MOL0     C22698  12.679   2.986   3.788 -0.4162  0.2974 -0.5691
  169MOL0     C22699  12.735   3.109   3.749  0.0932  0.0013 -0.2370
  169MOL0     C22700  12.730   3.183   3.617  0.1869 -0.8432  0.1727
  169MOL0     C22701  12.853   3.250   3.561 -0.1112  0.5189  0.4122
  169MOL0     C22702  12.966   3.144   3.550  0.6462 -0.7476 -0.5582
  169MOL0     C22703  13.090   3.217   3.503  0.4957 -0.4065  0.4430
  169MOL0     O22704  13.211   3.151   3.549  0.6892  0.0547  0.3716
  169MOL0     C22705  13.335   3.195   3.524  0.2620  0.3990  0.3207
  169MOL0     C22706  13.362   3.322   3.472 -0.4978  0.4177 -0.6751
  169MOL0     C22707  13.496   3.360   3.467  0.4651 -0.0668 -0.0817
  169MOL0     C22708  13.604   3.285   3.523 -0.0888 -0.0011  0.0913
  169MOL0     C22709  13.746   3.324   3.530 -0.6077  0.4254 -0.0275
  169MOL0     O22710  13.840   3.227   3.549  0.0787  0.9293  0.0557
  169MOL0     C22711  13.973   3.257   3.536  0.6378 -0.1666 -0.2955
  169MOL0     C22712  14.047   3.154   3.478  0.2214  0.4151  0.1543
  169MOL0     C22713  14.185   3.169   3.453 -0.4725  0.2546 -0.5789
  169MOL0     C22714  14.252   3.298   3.477  0.3758  0.3795  0.0244
  169MOL0     O22715  14.386   3.312   3.456 -0.1942  1.0461 -0.0692
  169MOL0     C22716  14.474   3.196   3.449 -0.5267  0.0441  0.5385
  169MOL0     C22717  14.619   3.240   3.411  1.2543  0.2948 -0.7389
  169MOL0     C22718  14.656   3.338   3.519  0.2491  0.1756  0.0882
  169MOL0     C22719  14.808   3.322   3.540 -0.0252  0.9750 -0.2801
  169MOL0     C22720  14.862   3.437   3.631 -0.4250  1.0082  0.4071
  169MOL0     C22721  15.018   3.432   3.613  0.0917  0.1443 -0.0435
  169MOL0     C22722  15.087   3.557   3.681  0.4658  1.3503  0.9454
  169MOL0     C22723  15.098   3.692   3.601  0.5757  0.4169 -0.0643
  169MOL0    Cl22724  15.225   3.691   3.470 -0.2610  0.2548  0.5521
  169MOL0     C22725  14.168   3.406   3.519 -0.6139  0.1916  0.2198
  169MOL0     C22726  14.031   3.378   3.547  0.1279 -0.3062  0.2902
  169MOL0     O22727  13.765   3.436   3.489 -0.5082  0.1792  0.8156
  169MOL0     C22728  13.575   3.161   3.573 -0.1071  0.0001 -0.6879
  169MOL0     C22729  13.440   3.122   3.579  0.1655  0.0503  0.1292
  169MOL0     N22730  12.787   3.167   3.864 -0.1038 -1.1218  0.8389
  169MOL0     N22731  12.769   3.090   3.969  0.0241  0.0425 -0.2761
  169MOL0     C22732  11.669   3.404   4.287  0.6402 -0.7452  0.0962
  169MOL0     C22733  11.527   3.400   4.308 -1.3026  0.0213 -0.8745
  169MOL0     C22734  11.108   3.211   4.346  0.7618 -0.4439 -0.2590
  169MOL0     C22735  11.015   3.101   4.369 -0.1244  0.2374  0.1678
  169MOL0     C22736  10.882   3.119   4.412 -0.0878  0.0574  0.6534
  169MOL0     C22737  10.831   3.243   4.414  0.6118  0.5365  0.1124
  169MOL0     O22738  10.697   3.251   4.453 -0.1310  0.2102 -0.9436
  169MOL0     C22739  10.652   3.377   4.501 -0.4542  0.3949  0.0802
  169MOL0     C22740  10.529   3.374   4.589  0.3365  0.7583 -0.1208
  169MOL0     C22741  10.476   3.520   4.599 -0.1468  0.1344 -0.2329
  169MOL0     C22742  10.379   3.526   4.722 -0.9189 -1.0152 -0.7540
  169MOL0     C22743  10.278   3.422   4.714  0.4784 -0.4411  0.4866
  169MOL0     C22744  10.193   3.336   4.691 -0.8093  0.2032  0.5254
  169MOL0     C22745  10.913   3.352   4.364  0.5217  0.3325 -1.1465
  169MOL0     C22746  11.042   3.344   4.336 -0.3812 -0.2121 -0.0632
  169MOL0     C22747  11.113   3.477   4.309 -0.6086 -0.4980 -0.1254
  169MOL0     H22748  11.477   3.094   4.169  0.3539  0.5872 -0.3683
  169MOL0     H22749  11.689   3.090   4.147 -1.4180 -1.4665 -0.7516
  169MOL0     H22750  11.906   3.469   4.188  1.7694  2.5112  3.2258
  169MOL0     H22751  11.984   3.399   4.334  1.6915 -0.5223 -0.4267
  169MOL0     H22752  12.168   3.414   4.162  2.3123 -0.4972 -5.4745
  169MOL0     H22753  12.071   3.361   4.041 -0.0216  0.1525  0.3440
  169MOL0     H22754  12.068   3.135   4.120 -1.2406  1.4125 -0.1732
  169MOL0     H22755  12.139   3.166   4.282  1.1860  0.1499 -0.5160
  169MOL0     H22756  12.275   3.212   4.012  0.3087 -0.7281 -0.0964
  169MOL0     H22757  12.356   3.233   4.171  0.3101 -1.1959  1.6073
  169MOL0     H22758  12.321   2.982   4.206  0.9065  1.5538  0.6413
  169MOL0     H22759  12.230   2.975   4.050  1.9783  0.3997 -1.5297
  169MOL0     H22760  12.427   3.002   3.920 -0.6512 -3.0387  0.1280
  169MOL0     H22761  12.515   3.084   4.061  1.5983 -0.3421 -1.3021
  169MOL0     H22762  12.468   2.795   3.969  0.0664 -0.2497 -0.7294
  169MOL0     H22763  12.491   2.816   4.144 -1.9945  0.1148 -0.6686
  169MOL0     H22764  12.718   2.880   4.104 -1.5002 -1.8069 -0.0112
  169MOL0     H22765  12.696   2.778   3.965 -1.1205 -1.0313 -1.7582
  169MOL0     H22766  12.633   2.901   3.738  0.3920 -1.5472  1.6409
  169MOL0     H22767  12.671   3.124   3.546 -1.5986  0.4905  0.4673
  169MOL0     H22768  12.653   3.260   3.618  0.6821 -0.3201 -0.7972
  169MOL0     H22769  12.829   3.298   3.466  0.1063 -1.4267 -0.6813
  169MOL0     H22770  12.889   3.328   3.629  1.8612  0.4025 -0.4304
  169MOL0     H22771  12.938   3.062   3.482  1.3740 -0.8081 -0.7966
  169MOL0     H22772  12.986   3.097   3.647  1.8491 -2.1429 -1.4410
  169MOL0     H22773  13.100   3.320   3.540  0.6173  0.3440 -1.5431
  169MOL0     H22774  13.086   3.215   3.394 -2.6764 -1.0995  0.4833
  169MOL0     H22775  13.288   3.384   3.423 -2.6484  0.2941  2.1986
  169MOL0     H22776  13.519   3.453   3.417  0.3951  0.4854  0.8816
  169MOL0     H22777  14.004   3.060   3.444 -1.4447  0.6554  1.4889
  169MOL0     H22778  14.244   3.094   3.401  1.9694  1.6001  0.1103
  169MOL0     H22779  14.481   3.138   3.542 -1.4001 -2.9050 -1.1132
  169MOL0     H22780  14.436   3.144   3.361  0.1641  0.0981  0.1970
  169MOL0     H22781  14.665   3.141   3.422 -0.8270 -0.8550 -1.6291
  169MOL0     H22782  14.633   3.265   3.306 -0.1530  2.3506 -0.4872
  169MOL0     H22783  14.643   3.442   3.488  0.1324  0.5589  1.3642
  169MOL0     H22784  14.606   3.323   3.616 -0.0953  0.6761 -0.0109
  169MOL0     H22785  14.852   3.330   3.441  0.7925  1.6049  0.1155
  169MOL0     H22786  14.830   3.223   3.582  1.7248  1.1958 -0.5826
  169MOL0     H22787  14.831   3.424   3.735 -4.0277 -2.5952 -0.8262
  169MOL0     H22788  14.822   3.534   3.603  0.7347  2.0637  2.2509
  169MOL0     H22789  15.056   3.346   3.669 -1.5539 -1.9893 -2.0010
  169MOL0     H22790  15.045   3.431   3.508  0.3281  0.8850  0.0062
  169MOL0     H22791  15.191   3.528   3.703 -0.5594 -2.3831  1.5183
  169MOL0     H22792  15.039   3.566   3.779 -4.0875 -0.2244 -0.8759
  169MOL0     H22793  15.001   3.727   3.565  0.5824 -0.0853 -0.5808
  169MOL0     H22794  15.124   3.773   3.670  1.8061  0.5834 -0.6950
  169MOL0     H22795  14.208   3.507   3.530  0.8504 -0.5314  2.1891
  169MOL0     H22796  13.986   3.466   3.591  1.7642  1.0282 -0.5712
  169MOL0     H22797  13.651   3.102   3.624  0.2552  1.5401  0.6428
  169MOL0     H22798  13.422   3.026   3.625  2.3432 -0.3760  0.1963
  169MOL0     H22799  11.724   3.495   4.309 -0.2996  0.6846 -2.9308
  169MOL0     H22800  11.469   3.483   4.347 -1.2881 -0.7987  1.0083
  169MOL0     H22801  11.046   2.997   4.363  0.9360  0.5057  0.7849
  169MOL0     H22802  10.821   3.040   4.454  0.2008  0.3294  1.5989
  169MOL0     H22803  10.633   3.434   4.409 -0.6733 -0.6552 -0.5366
  169MOL0     H22804  10.728   3.426   4.562 -3.1916  0.9666  3.2670
  169MOL0     H22805  10.558   3.335   4.687 -2.4379 -1.2969  0.0120
  169MOL0     H22806  10.454   3.307   4.547  0.8549 -0.8167  1.3276
  169MOL0     H22807  10.425   3.545   4.505  1.8054  1.2384 -1.0520
  169MOL0     H22808  10.555   3.594   4.614  0.6537 -0.1560 -2.5536
  169MOL0     H22809  10.430   3.535   4.819 -2.3134 -1.3239  0.0342
  169MOL0     H22810  10.321   3.619   4.724  1.0376  0.2647 -1.3162
  169MOL0     H22811  10.118   3.259   4.688  0.7501 -1.3823 -0.9117
  169MOL0     H22812  10.869   3.451   4.370  1.4089  0.6623  0.3477
  169MOL0     H22813  11.185   3.502   4.387 -1.0038 -0.5972  0.2748
  169MOL0     H22814  11.172   3.474   4.217 -0.3465 -2.1205  0.0535
  169MOL0     H22815  11.042   3.559   4.303  2.4790  2.3235 -0.8445
  170MOL0     O22816   0.502   6.102   5.887  0.6364  0.2912 -0.1862
  170MOL0     C22817   0.508   5.999   5.829 -0.5477  0.6838 -0.1409
  170MOL0     O22818   0.611   5.912   5.826 -0.6636 -1.4417  0.3763
  170MOL0     C22819   0.729   5.957   5.891 -0.0835 -0.2867 -0.2075
  170MOL0     C22820   0.738   5.965   6.031  0.0562  0.4200  0.5685
  170MOL0     C22821   0.867   6.006   6.080  0.0207 -0.3087  0.0478
  170MOL0     C22822   0.981   6.028   6.002  0.3899 -0.7175  0.4890
  170MOL0     O22823   1.085   6.095   6.061 -0.0228  0.2689  0.0709
  170MOL0     C22824   1.203   6.113   5.982  0.5983 -0.5691  0.3822
  170MOL0     C22825   1.290   6.221   6.044 -0.1446 -0.5330  0.6082
  170MOL0     C22826   1.439   6.215   5.988  0.8345  0.0072  0.0104
  170MOL0     C22827   1.517   6.094   6.018  0.3879  0.4716 -0.0414
  170MOL0     C22828   1.671   6.116   6.000  0.2437 -0.7730  0.3050
  170MOL0     C22829   1.734   5.973   5.996  0.5254 -0.7818  0.0932
  170MOL0     C22830   1.885   5.960   5.960 -0.4200  0.2906  0.5870
  170MOL0     C22831   1.936   6.011   5.823 -0.7803 -0.0709 -0.0327
  170MOL0     N22832   2.080   5.969   5.801 -0.0849  0.4532 -0.2258
  170MOL0     C22833   2.195   6.011   5.870  0.4523 -0.2804  1.9741
  170MOL0     C22834   2.296   5.954   5.808 -0.2182 -0.0471 -0.1337
  170MOL0     C22835   2.441   5.964   5.838 -0.2027  0.1055  0.4312
  170MOL0     C22836   2.536   5.936   5.719 -0.1225  0.6375 -0.3607
  170MOL0     C22837   2.535   6.052   5.622 -1.5240 -0.2610 -0.1519
  170MOL0     C22838   2.639   6.047   5.509 -0.2594 -0.5513 -0.6240
  170MOL0     O22839   2.761   5.993   5.568 -0.3412  0.9830  0.3844
  170MOL0     C22840   2.856   5.958   5.477 -0.2500  0.4325  1.0414
  170MOL0     C22841   2.981   5.918   5.525  0.1527  0.3472 -0.5132
  170MOL0     C22842   3.095   5.894   5.439  0.2176  0.1799 -0.4389
  170MOL0     C22843   3.085   5.903   5.299  0.1771  0.1546 -0.2292
  170MOL0     C22844   3.201   5.875   5.206  0.6022 -0.4291 -0.5328
  170MOL0     O22845   3.328   5.859   5.262 -0.4031  0.6676 -0.4655
  170MOL0     C22846   3.436   5.882   5.179 -1.3952 -0.5340 -0.5051
  170MOL0     C22847   3.478   6.018   5.166 -0.5689 -0.1078 -0.1836
  170MOL0     C22848   3.608   6.042   5.115  0.1113  0.2005 -0.0968
  170MOL0     C22849   3.687   5.941   5.058  0.4403 -0.1650  0.6440
  170MOL0     O22850   3.810   5.968   5.004  0.0794  0.1098  0.1706
  170MOL0     C22851   3.921   5.894   5.061  0.1046 -0.1612 -0.1257
  170MOL0     C22852   4.051   5.971   5.047 -0.2115  0.1754  0.4232
  170MOL0     C22853   4.173   5.899   5.109 -0.0721 -0.0982  0.0251
  170MOL0     C22854   4.289   5.993   5.075 -0.0567  1.0443  0.3298
  170MOL0     C22855   4.395   5.948   5.169  0.1884 -0.4211 -0.1637
  170MOL0     C22856   4.531   6.014   5.122 -0.7793 -0.1828 -0.7134
  170MOL0     C22857   4.648   5.932   5.177  0.5928  0.6250 -0.2088
  170MOL0     C22858   4.780   6.011   5.180 -0.7020  0.0617  1.0151
  170MOL0    Cl22859   4.823   6.048   5.011  0.0723 -0.2575  0.1946
  170MOL0     C22860   3.632   5.813   5.056 -0.1941  0.2391 -0.1555
  170MOL0     C22861   3.506   5.779   5.121 -0.1900  0.1960  0.5836
  170MOL0     O22862   3.167   5.853   5.086 -0.2503  0.4148 -0.4022
  170MOL0     C22863   2.956   5.916   5.248 -0.2601 -0.4535  0.2353
  170MOL0     C22864   2.850   5.953   5.329  0.0574 -0.6701  0.9348
  170MOL0     N22865   2.247   5.881   5.698 -0.0249 -0.8854  0.0823
  170MOL0     N22866   2.119   5.899   5.692 -0.5399 -0.2275  0.3665
  170MOL0     C22867   0.969   5.999   5.862 -0.5265  0.2567  0.3374
  170MOL0     C22868   0.846   5.953   5.817  0.4250  0.7800  0.0425
  170MOL0     C22869   0.372   5.959   5.763  0.4892 -0.0000 -0.1176
  170MOL0     C22870   0.255   6.028   5.804 -0.0601  0.3529 -0.5623
  170MOL0     C22871   0.127   5.987   5.776  0.2823  0.7480 -0.2428
  170MOL0     C22872   0.103   5.886   5.697 -0.5170  0.2562  0.4041
  170MOL0     O22873  -0.025   5.854   5.651 -0.0598 -0.7362 -0.1809
  170MOL0     C22874  -0.131   5.932   5.689  0.6971  0.9311 -0.0027
  170MOL0     C22875  -0.198   5.872   5.821  0.4628 -0.2631 -0.8430
  170MOL0     C22876  -0.302   5.769   5.791 -0.3066 -0.9586  0.0865
  170MOL0     C22877  -0.380   5.739   5.919 -0.4368 -0.1731 -0.2311
  170MOL0     C22878  -0.489   5.646   5.890  0.2721  0.4265  0.9345
  170MOL0     C22879  -0.568   5.559   5.863  0.1467  0.2674  0.5562
  170MOL0     C22880   0.216   5.817   5.641  0.9543 -0.2084 -0.8930
  170MOL0     C22881   0.354   5.852   5.675  0.2199 -0.4176 -0.0680
  170MOL0     C22882   0.470   5.760   5.634 -0.2894 -0.3425  0.0839
  170MOL0     H22883   0.647   5.949   6.088  1.0245  0.2959  2.1635
  170MOL0     H22884   0.881   6.023   6.186 -0.9146 -0.9008  0.2817
  170MOL0     H22885   1.254   6.023   5.947  0.7966  0.4372 -2.1002
  170MOL0     H22886   1.159   6.162   5.895 -3.1987 -1.3491  1.6453
  170MOL0     H22887   1.286   6.212   6.153  1.3130  1.5960  0.8976
  170MOL0     H22888   1.230   6.312   6.027 -0.7247 -0.6668  1.7951
  170MOL0     H22889   1.491   6.305   6.023  0.3876 -0.1317  1.0376
  170MOL0     H22890   1.437   6.214   5.878 -0.7695 -2.8598 -0.0395
  170MOL0     H22891   1.501   6.054   6.119  0.2092  0.9466  0.1231
  170MOL0     H22892   1.489   6.011   5.953  0.7012 -1.0784  1.6909
  170MOL0     H22893   1.685   6.177   5.911 -2.6841  1.7430  1.3707
  170MOL0     H22894   1.706   6.171   6.088  0.1839  2.8211 -1.7376
  170MOL0     H22895   1.716   5.924   6.093  1.3899 -0.7410  0.2790
  170MOL0     H22896   1.681   5.918   5.917  0.3563 -0.7904  0.2122
  170MOL0     H22897   1.911   5.854   5.972  0.4743  0.2101 -1.6149
  170MOL0     H22898   1.944   6.009   6.038  0.0541 -1.4026  1.3517
  170MOL0     H22899   1.878   5.963   5.743 -3.0299  0.7984  0.9873
  170MOL0     H22900   1.939   6.120   5.818  1.1989 -0.1127 -0.7622
  170MOL0     H22901   2.195   6.091   5.943 -1.4174  3.8204 -2.0422
  170MOL0     H22902   2.468   6.061   5.881  1.6723  0.5335 -1.5302
  170MOL0     H22903   2.473   5.894   5.915  0.6239 -2.5685 -2.1679
  170MOL0     H22904   2.638   5.923   5.757  0.7123  1.9285 -2.0272
  170MOL0     H22905   2.514   5.840   5.671  1.4111 -0.5768  1.2288
  170MOL0     H22906   2.549   6.134   5.693 -0.1425 -1.7457  1.3766
  170MOL0     H22907   2.435   6.059   5.576 -1.7231  0.3084  0.3640
  170MOL0     H22908   2.668   6.135   5.451  4.0629  0.1721  2.2052
  170MOL0     H22909   2.604   5.979   5.430  2.7923 -1.3500 -1.4221
  170MOL0     H22910   2.995   5.915   5.632  0.5227  0.4951 -0.5561
  170MOL0     H22911   3.191   5.868   5.483  0.0145 -0.5005 -0.3773
  170MOL0     H22912   3.422   6.100   5.209 -3.8058 -1.1079 -2.1678
  170MOL0     H22913   3.657   6.139   5.124  1.8131 -0.6749  0.5634
  170MOL0     H22914   3.906   5.872   5.168  2.7734 -1.6785  0.0310
  170MOL0     H22915   3.919   5.793   5.017 -1.7536 -0.3345  0.2476
  170MOL0     H22916   4.077   5.983   4.941  0.2032  1.2689  0.6431
  170MOL0     H22917   4.039   6.065   5.101 -0.2891 -0.7992  2.1650
  170MOL0     H22918   4.155   5.892   5.217 -0.3158  0.2938  0.0139
  170MOL0     H22919   4.187   5.798   5.070  2.1414  0.3378 -0.4373
  170MOL0     H22920   4.250   6.091   5.104 -0.7018  0.5940  1.0231
  170MOL0     H22921   4.314   5.987   4.969  1.4769 -2.9893  0.7172
  170MOL0     H22922   4.413   5.840   5.162  1.7293 -0.1119 -3.8249
  170MOL0     H22923   4.369   5.986   5.268  0.4786  3.2703 -1.3515
  170MOL0     H22924   4.539   6.016   5.013  2.1908  0.1776 -0.5650
  170MOL0     H22925   4.544   6.115   5.162 -2.6888  0.1583 -0.8141
  170MOL0     H22926   4.658   5.839   5.119 -1.2086  0.3844 -0.1901
  170MOL0     H22927   4.620   5.898   5.277 -0.1842 -0.4884 -0.7744
  170MOL0     H22928   4.759   6.096   5.246  3.0652  1.6022  0.4568
  170MOL0     H22929   4.857   5.947   5.223  1.2448  0.5231 -1.5498
  170MOL0     H22930   3.689   5.730   5.016  0.9068  0.2079  1.3623
  170MOL0     H22931   3.468   5.678   5.128 -0.6001  0.4195  1.9933
  170MOL0     H22932   2.951   5.909   5.139 -0.1028 -0.2762  0.2160
  170MOL0     H22933   2.758   5.976   5.277  0.9732  0.7975 -0.1323
  170MOL0     H22934   1.045   6.016   5.787 -1.4676 -2.5976 -1.4184
  170MOL0     H22935   0.836   5.926   5.713  0.0253 -1.3425  0.5890
  170MOL0     H22936   0.265   6.117   5.865  2.2484 -1.0637  1.3251
  170MOL0     H22937   0.054   6.048   5.828 -1.6414 -0.8859 -0.9129
  170MOL0     H22938  -0.206   5.932   5.609  2.2179 -2.7363 -1.6208
  170MOL0     H22939  -0.115   6.039   5.709  0.0055  0.6646  2.2669
  170MOL0     H22940  -0.250   5.961   5.858  0.2996 -0.5773 -0.3185
  170MOL0     H22941  -0.125   5.849   5.899 -0.2478  0.0735 -0.0718
  170MOL0     H22942  -0.241   5.685   5.757 -0.4182  0.2264 -3.5345
  170MOL0     H22943  -0.375   5.796   5.713  1.3105 -2.1879 -1.9628
  170MOL0     H22944  -0.308   5.691   5.986  0.0274  1.1529  0.2435
  170MOL0     H22945  -0.430   5.831   5.950  1.6795  0.8331  0.3605
  170MOL0     H22946  -0.627   5.476   5.828  1.5882 -0.2138 -0.8129
  170MOL0     H22947   0.210   5.727   5.581  2.7163  1.0888 -3.1860
  170MOL0     H22948   0.502   5.713   5.728  2.5994  2.0707  0.4539
  170MOL0     H22949   0.430   5.693   5.557 -1.5991 -0.9605  1.2352
  170MOL0     H22950   0.561   5.813   5.605 -0.5639  1.7736  2.7316
  171MOL0     O22951   0.463   4.448  10.734  0.4457 -0.0310  0.7797
  171MOL0     C22952   0.442   4.537  10.815  0.4399  0.1857 -0.6532
  171MOL0     O22953   0.514   4.647  10.841  0.4793  0.2106 -0.0200
  171MOL0     C22954   0.604   4.689  10.750  0.1337 -0.6236  0.3155
  171MOL0     C22955   0.562   4.681  10.615  0.5649  0.5483  0.6877
  171MOL0     C22956   0.642   4.726  10.514  0.1415 -0.1584 -0.1096
  171MOL0     C22957   0.761   4.787  10.529  0.1628  0.4267 -0.8734
  171MOL0     O22958   0.829   4.842  10.428 -0.3236 -0.2918  0.2537
  171MOL0     C22959   0.934   4.756  10.379 -0.5726 -0.4824 -0.1657
  171MOL0     C22960   1.023   4.818  10.272  0.1039  0.1576  0.0113
  171MOL0     C22961   1.130   4.898  10.353  0.6964  1.2902  0.4763
  171MOL0     C22962   1.236   4.947  10.259  0.2387  0.2671 -0.8816
  171MOL0     C22963   1.362   4.996  10.331 -0.0972 -0.7164  0.3243
  171MOL0     C22964   1.345   5.126  10.409 -0.0048  0.3499 -0.1006
  171MOL0     C22965   1.458   5.141  10.513  0.7361  0.3041 -0.2193
  171MOL0     C22966   1.610   5.139  10.457  0.5896  0.6612 -0.1783
  171MOL0     N22967   1.695   5.162  10.574 -0.3633 -0.6251  0.2798
  171MOL0     C22968   1.834   5.150  10.569  1.0105 -0.4594 -0.2170
  171MOL0     C22969   1.867   5.183  10.700  0.2142 -0.1212  0.1570
  171MOL0     C22970   2.001   5.152  10.753 -0.4820 -0.6535  0.4905
  171MOL0     C22971   1.993   5.041  10.863 -0.0862 -0.8395 -0.4142
  171MOL0     C22972   2.117   4.958  10.885 -0.0347  0.2313  0.7876
  171MOL0     C22973   2.233   5.050  10.931 -0.1430 -0.0677 -0.0970
  171MOL0     O22974   2.352   4.970  10.932  0.7315  0.0399 -0.4074
  171MOL0     C22975   2.462   5.012  10.999  0.3632 -0.2017 -0.2123
  171MOL0     C22976   2.559   4.918  11.013 -0.0293  1.3138 -0.1569
  171MOL0     C22977   2.679   4.960  11.059 -0.1507  0.9375  0.7940
  171MOL0     C22978   2.700   5.098  11.087  0.4697 -0.5744 -0.3906
  171MOL0     C22979   2.829   5.148  11.140 -0.5196  0.2653 -0.4010
  171MOL0     O22980   2.841   5.274  11.187  1.8018 -0.4270 -0.9821
  171MOL0     C22981   2.962   5.334  11.166  0.2254  0.7303 -0.1760
  171MOL0     C22982   2.977   5.447  11.249  0.5425 -0.9991  0.5009
  171MOL0     C22983   3.088   5.523  11.223 -0.2224 -0.1102 -0.5280
  171MOL0     C22984   3.194   5.488  11.130 -0.6372  0.4989  0.7281
  171MOL0     O22985   3.315   5.557  11.115  0.6707 -1.0866 -0.0749
  171MOL0     C22986   3.401   5.533  11.228 -0.2029 -0.0643 -0.5187
  171MOL0     C22987   3.538   5.597  11.228  0.4849  0.5072  0.1761
  171MOL0     C22988   3.614   5.559  11.099 -0.3468  0.2651  0.2753
  171MOL0     C22989   3.745   5.636  11.103 -0.9369  0.2837 -0.0874
  171MOL0     C22990   3.842   5.584  10.996 -0.5347  1.0146 -0.0775
  171MOL0     C22991   3.964   5.678  10.988  0.6847 -1.0668  0.2104
  171MOL0     C22992   4.035   5.658  10.854 -0.4884 -0.0524 -0.8277
  171MOL0     C22993   3.962   5.707  10.727 -0.0308  0.4426  0.3045
  171MOL0    Cl22994   3.889   5.870  10.762 -0.2200  0.0910 -0.1732
  171MOL0     C22995   3.181   5.374  11.047  0.6695 -0.4058  0.2482
  171MOL0     C22996   3.065   5.303  11.066 -0.5998 -0.7442 -1.2203
  171MOL0     O22997   2.917   5.061  11.151  0.1277  0.3544 -0.0122
  171MOL0     C22998   2.595   5.193  11.089 -0.8353 -0.2773 -0.2375
  171MOL0     C22999   2.474   5.148  11.048 -0.0639  0.1600 -0.1133
  171MOL0     N23000   1.756   5.227  10.760  0.0946 -0.0418  0.2594
  171MOL0     N23001   1.648   5.211  10.689 -0.6367  0.2545 -0.4051
  171MOL0     C23002   0.813   4.795  10.660  0.3465  0.2697  0.2252
  171MOL0     C23003   0.735   4.738  10.770 -0.5900  0.5993 -0.9260
  171MOL0     C23004   0.324   4.518  10.900  0.3964 -0.8579 -0.2641
  171MOL0     C23005   0.337   4.581  11.027 -0.2804 -0.1225 -1.2426
  171MOL0     C23006   0.230   4.591  11.109  0.0936  0.6636 -0.7336
  171MOL0     C23007   0.105   4.548  11.061 -0.4130 -0.1438 -0.6392
  171MOL0     O23008   0.008   4.588  11.143 -0.0574  0.0872  0.8324
  171MOL0     C23009  -0.095   4.490  11.178 -0.4483 -0.4131  0.3974
  171MOL0     C23010  -0.064   4.430  11.316  0.0193 -1.0108 -0.2389
  171MOL0     C23011  -0.192   4.402  11.396 -0.9073  0.0674 -0.2674
  171MOL0     C23012  -0.144   4.338  11.522 -0.1019 -0.0907 -0.1267
  171MOL0     C23013  -0.261   4.345  11.613  0.0196 -0.9059  0.7172
  171MOL0     C23014  -0.347   4.361  11.695 -1.0709 -0.0298 -0.9342
  171MOL0     C23015   0.087   4.495  10.933  0.9973  0.8077 -0.2113
  171MOL0     C23016   0.198   4.472  10.847 -0.3796 -0.6128 -1.1946
  171MOL0     C23017   0.176   4.424  10.711  0.1332  0.2319 -0.6120
  171MOL0     H23018   0.469   4.634  10.585  1.0827  0.3527 -0.6889
  171MOL0     H23019   0.600   4.720  10.414 -1.1522 -0.5817  0.4294
  171MOL0     H23020   0.990   4.721  10.466 -0.7999  3.1106  1.6041
  171MOL0     H23021   0.880   4.679  10.323 -4.9127  2.2392 -0.1965
  171MOL0     H23022   0.962   4.880  10.206  0.0892  0.1911  0.0570
  171MOL0     H23023   1.079   4.749  10.207  1.5775 -0.1915  1.5727
  171MOL0     H23024   1.186   4.848  10.433  1.0260  1.1330  0.1512
  171MOL0     H23025   1.073   4.981  10.396  2.4482  2.7232  0.1038
  171MOL0     H23026   1.284   4.881  10.186  2.9066  2.2333 -1.0849
  171MOL0     H23027   1.188   5.027  10.201  1.4986  1.9129  0.2631
  171MOL0     H23028   1.395   4.919  10.401 -0.3992 -0.2880  0.9462
  171MOL0     H23029   1.442   4.994  10.257  1.2472  0.2152  1.6904
  171MOL0     H23030   1.332   5.213  10.343  0.4131  1.2064  0.9099
  171MOL0     H23031   1.257   5.116  10.472  0.4462  0.9132  0.6348
  171MOL0     H23032   1.436   5.059  10.582  1.1882 -0.3635 -0.8625
  171MOL0     H23033   1.442   5.238  10.562  0.5766 -0.4468  1.2653
  171MOL0     H23034   1.633   5.044  10.406 -1.8506 -0.1025  0.0307
  171MOL0     H23035   1.605   5.210  10.373  0.1280  0.5287 -0.2658
  171MOL0     H23036   1.885   5.106  10.484  0.0223 -0.1454 -0.9906
  171MOL0     H23037   2.064   5.113  10.673 -0.6003  0.6295 -0.2502
  171MOL0     H23038   2.045   5.244  10.793  2.0863 -2.4093  2.0143
  171MOL0     H23039   1.959   5.097  10.950 -0.2445  2.0211 -2.1885
  171MOL0     H23040   1.909   4.978  10.830 -0.9413  0.2194 -0.3139
  171MOL0     H23041   2.135   4.893  10.799 -1.7972 -1.1987  1.4386
  171MOL0     H23042   2.099   4.881  10.961 -2.4647 -1.5620 -1.3986
  171MOL0     H23043   2.211   5.104  11.024  0.9137  1.7133 -0.8260
  171MOL0     H23044   2.249   5.125  10.853  0.9529  1.0707  1.1573
  171MOL0     H23045   2.531   4.817  10.984 -0.6049  1.6081 -0.6375
  171MOL0     H23046   2.765   4.895  11.072  0.3910  1.6990  1.0903
  171MOL0     H23047   2.912   5.487  11.326  2.2709  3.1281  0.0718
  171MOL0     H23048   3.113   5.619  11.267 -1.0440 -0.5897  1.0426
  171MOL0     H23049   3.344   5.573  11.313  0.0094  1.2193 -0.9530
  171MOL0     H23050   3.411   5.425  11.216  2.3678  0.0366  0.0249
  171MOL0     H23051   3.533   5.706  11.218  0.4323  0.3293 -2.5700
  171MOL0     H23052   3.598   5.578  11.317  0.8424  0.1249 -0.1431
  171MOL0     H23053   3.638   5.452  11.099 -2.6183 -0.3128 -0.2384
  171MOL0     H23054   3.559   5.587  11.008  1.8479  0.1808 -1.1685
  171MOL0     H23055   3.788   5.633  11.203 -1.6399  1.7161  0.2942
  171MOL0     H23056   3.726   5.742  11.079  0.0540  0.4620 -0.1485
  171MOL0     H23057   3.795   5.575  10.898  2.2636  1.2974 -1.5483
  171MOL0     H23058   3.866   5.480  11.022  1.6343  1.6701  0.8156
  171MOL0     H23059   3.932   5.783  10.997  1.9048 -0.3839 -2.4575
  171MOL0     H23060   4.029   5.658  11.073 -0.3734 -1.5262  0.9320
  171MOL0     H23061   4.053   5.550  10.854 -0.8324 -0.1464  0.9453
  171MOL0     H23062   4.137   5.698  10.853  0.7793 -2.9723 -2.6213
  171MOL0     H23063   4.039   5.717  10.650  1.9707 -0.2626  2.1054
  171MOL0     H23064   3.889   5.630  10.701  0.4241  0.2435 -0.4102
  171MOL0     H23065   3.246   5.329  10.972 -2.5978 -2.5104 -1.5868
  171MOL0     H23066   3.052   5.215  11.003  1.0299  0.7180 -3.8071
  171MOL0     H23067   2.600   5.295  11.124  0.0361 -0.6781  0.8534
  171MOL0     H23068   2.396   5.222  11.034  0.3290  0.3933 -1.2460
  171MOL0     H23069   0.910   4.839  10.684  0.9952 -0.6402 -0.6430
  171MOL0     H23070   0.782   4.737  10.868  0.0648  0.9559 -1.2323
  171MOL0     H23071   0.432   4.619  11.065 -0.0034  0.1192 -2.1559
  171MOL0     H23072   0.243   4.647  11.201 -1.3265 -2.3785  1.4884
  171MOL0     H23073  -0.102   4.405  11.109 -1.8775 -0.6211  0.7686
  171MOL0     H23074  -0.193   4.537  11.163  1.0606  2.4780 -1.1734
  171MOL0     H23075   0.002   4.498  11.372 -0.0327 -0.1400 -1.2044
  171MOL0     H23076  -0.019   4.331  11.304 -1.6151 -1.7910 -0.2146
  171MOL0     H23077  -0.256   4.335  11.337 -1.9036  0.0943  0.7445
  171MOL0     H23078  -0.242   4.498  11.412 -2.0962  0.2721 -4.1029
  171MOL0     H23079  -0.122   4.235  11.489  3.0025  0.7483 -1.0344
  171MOL0     H23080  -0.050   4.389  11.544 -0.6508  1.2973 -0.8827
  171MOL0     H23081  -0.428   4.382  11.762  0.3124  0.1515  0.7516
  171MOL0     H23082  -0.011   4.487  10.887  0.7845 -0.2253  0.3936
  171MOL0     H23083   0.205   4.510  10.650  1.0135  3.5634  3.9819
  171MOL0     H23084   0.228   4.327  10.708 -3.0509 -2.0268  4.4278
  171MOL0     H23085   0.075   4.389  10.686  1.2330 -4.0624  0.0517
  172MOL0     O23086   3.690   0.582   7.703  0.1400  0.2591 -0.9739
  172MOL0     C23087   3.627   0.685   7.697  0.7555 -1.0266 -0.8641
  172MOL0     O23088   3.673   0.810   7.743 -0.1362  0.0463 -0.3198
  172MOL0     C23089   3.801   0.812   7.802  0.9953 -0.5074  0.4574
  172MOL0     C23090   3.909   0.813   7.728  0.3512 -0.3920  0.9592
  172MOL0     C23091   4.036   0.824   7.779  0.1637  0.1101  0.6743
  172MOL0     C23092   4.059   0.839   7.919 -0.6661  0.1006 -0.0042
  172MOL0     O23093   4.190   0.827   7.959  0.3931 -0.1118 -0.5701
  172MOL0     C23094   4.216   0.889   8.085  0.9391  0.0697 -0.0208
  172MOL0     C23095   4.305   0.781   8.146 -1.1786  0.1146  0.7770
  172MOL0     C23096   4.448   0.779   8.080  0.3587  0.2578 -0.7114
  172MOL0     C23097   4.496   0.636   8.047  0.1731 -0.0040  0.6645
  172MOL0     C23098   4.647   0.604   8.076  0.3683 -0.4486  0.5215
  172MOL0     C23099   4.690   0.627   8.225  0.3958 -0.0343 -0.2839
  172MOL0     C23100   4.836   0.661   8.228 -0.1387  0.3324 -0.3884
  172MOL0     C23101   4.928   0.540   8.206 -0.0288  0.0493  0.6432
  172MOL0     N23102   5.061   0.580   8.174 -0.4058 -0.9372 -0.4644
  172MOL0     C23103   5.171   0.540   8.240  0.2445 -0.0861 -0.2901
  172MOL0     C23104   5.272   0.618   8.199  0.4182  0.6979 -0.7828
  172MOL0     C23105   5.415   0.628   8.262  0.0947 -0.7667 -0.2405
  172MOL0     C23106   5.520   0.554   8.190  0.5159 -0.7028 -0.6756
  172MOL0     C23107   5.516   0.400   8.212  0.1882  0.1859  0.9220
  172MOL0     C23108   5.622   0.340   8.123 -0.2497  0.7117  0.0163
  172MOL0     O23109   5.605   0.201   8.124 -0.2020 -0.2021  0.2388
  172MOL0     C23110   5.708   0.113   8.094 -0.2618  0.2306 -0.9266
  172MOL0     C23111   5.838   0.148   8.055  0.1819  0.2337  0.2934
  172MOL0     C23112   5.932   0.045   8.027  0.3110 -0.0491 -0.3885
  172MOL0     C23113   5.902  -0.090   8.039 -0.3283  0.2312  0.7650
  172MOL0     C23114   5.998  -0.195   8.009 -0.0426  0.5449 -0.1577
  172MOL0     O23115   5.958  -0.326   8.029 -0.7325  0.5277 -0.4227
  172MOL0     C23116   6.045  -0.433   8.009  0.6048 -0.0575 -0.6936
  172MOL0     C23117   5.978  -0.548   7.990 -0.1716 -0.7945  0.4611
  172MOL0     C23118   6.034  -0.672   7.955  0.1735 -0.5892  0.5961
  172MOL0     C23119   6.177  -0.677   7.954 -0.3291  0.1308 -0.1849
  172MOL0     O23120   6.248  -0.804   7.931 -0.3562 -0.3105 -0.3202
  172MOL0     C23121   6.194  -0.909   8.005 -0.2622  0.5415 -0.2159
  172MOL0     C23122   6.291  -1.019   7.961  0.5354  0.1400 -0.1501
  172MOL0     C23123   6.226  -1.159   7.986 -0.4257  0.1673 -0.0556
  172MOL0     C23124   6.316  -1.284   7.949 -0.0702 -0.3494 -0.0568
  172MOL0     C23125   6.276  -1.416   8.019  0.4022 -0.3243  0.5641
  172MOL0     C23126   6.124  -1.447   8.012 -0.8125  0.3472 -0.5876
  172MOL0     C23127   6.097  -1.584   8.080 -0.2408 -0.5459  0.5613
  172MOL0     C23128   5.945  -1.609   8.085  0.0457  0.0356 -0.7413
  172MOL0    Cl23129   5.874  -1.662   7.923 -0.7343  0.5064 -0.3001
  172MOL0     C23130   6.248  -0.555   7.968 -0.1507 -0.6577  0.1680
  172MOL0     C23131   6.187  -0.435   8.005  0.6650  0.6172  0.8009
  172MOL0     O23132   6.112  -0.158   7.981 -0.7959 -0.1123  0.1660
  172MOL0     C23133   5.771  -0.125   8.076  0.8946 -0.6248  0.3400
  172MOL0     C23134   5.673  -0.025   8.098 -0.0836 -0.9526 -0.8413
  172MOL0     N23135   5.228   0.710   8.104 -0.2211  0.5158 -0.3631
  172MOL0     N23136   5.095   0.684   8.086  0.2399  0.6155  0.8614
  172MOL0     C23137   3.941   0.837   7.999  0.1467 -0.9310 -0.1449
  172MOL0     C23138   3.812   0.829   7.940 -0.0626  0.4816  0.4989
  172MOL0     C23139   3.487   0.671   7.630 -0.4305 -0.7330  0.0802
  172MOL0     C23140   3.452   0.775   7.541 -0.8659  0.4622 -1.2645
  172MOL0     C23141   3.347   0.772   7.453  0.0198 -0.7117 -0.7189
  172MOL0     C23142   3.274   0.650   7.444  0.2505 -0.3009 -0.0904
  172MOL0     O23143   3.168   0.645   7.356  0.9296 -1.0976 -0.1968
  172MOL0     C23144   3.095   0.519   7.333  0.3006 -0.4022 -0.6528
  172MOL0     C23145   2.999   0.531   7.210 -0.8372  0.3923  0.1478
  172MOL0     C23146   2.876   0.612   7.234 -0.4191 -0.2518  0.5388
  172MOL0     C23147   2.796   0.630   7.106  0.3488 -0.1426  0.0393
  172MOL0     C23148   2.669   0.694   7.136 -0.5399  0.0524 -0.9415
  172MOL0     C23149   2.563   0.750   7.159 -0.6798 -0.3456 -0.5252
  172MOL0     C23150   3.299   0.553   7.541  0.5465 -0.3863  0.5040
  172MOL0     C23151   3.407   0.549   7.626 -0.6086  0.1590  0.0672
  172MOL0     C23152   3.446   0.432   7.709  0.5638  0.9120  0.0249
  172MOL0     H23153   3.904   0.814   7.619  2.6152 -2.3625  0.7662
  172MOL0     H23154   4.116   0.835   7.707 -2.7761 -0.1913 -2.9406
  172MOL0     H23155   4.261   0.988   8.084  1.9841 -0.3855 -0.2858
  172MOL0     H23156   4.127   0.895   8.148  1.1308 -1.0091  0.3827
  172MOL0     H23157   4.255   0.687   8.124  0.8287 -1.2272  1.7287
  172MOL0     H23158   4.318   0.794   8.254 -1.9547 -1.2300  1.0477
  172MOL0     H23159   4.523   0.838   8.135 -0.3954  0.2286  0.3706
  172MOL0     H23160   4.448   0.835   7.986  3.9977 -0.2635 -1.1957
  172MOL0     H23161   4.448   0.568   8.118 -2.8173 -1.2703 -2.3041
  172MOL0     H23162   4.469   0.610   7.944  1.1975  2.0323 -0.1711
  172MOL0     H23163   4.668   0.499   8.051 -1.6180 -0.4524 -1.5028
  172MOL0     H23164   4.706   0.661   8.004 -2.6886  0.9535 -1.0996
  172MOL0     H23165   4.630   0.705   8.272 -2.5123 -2.3786  0.1477
  172MOL0     H23166   4.667   0.532   8.274  0.4397  0.5695  0.9345
  172MOL0     H23167   4.877   0.712   8.316 -0.0212 -0.9176  0.3060
  172MOL0     H23168   4.843   0.723   8.139 -4.5085 -0.4070 -1.4602
  172MOL0     H23169   4.938   0.487   8.302  1.0482  0.2296  0.6387
  172MOL0     H23170   4.886   0.469   8.134  0.3250  0.4525  0.0376
  172MOL0     H23171   5.175   0.473   8.325  1.7122  2.0100  1.4091
  172MOL0     H23172   5.431   0.736   8.256  1.1418 -0.9935 -2.5135
  172MOL0     H23173   5.408   0.588   8.364  1.6384 -2.9479 -0.9193
  172MOL0     H23174   5.525   0.584   8.085  1.2811  5.6691  0.7637
  172MOL0     H23175   5.611   0.594   8.236 -0.5910  0.8012  0.3271
  172MOL0     H23176   5.414   0.364   8.196 -0.1513  0.5099  2.2249
  172MOL0     H23177   5.542   0.398   8.318  0.4797 -0.7893  0.8366
  172MOL0     H23178   5.722   0.375   8.151 -0.2889 -0.7491  2.2713
  172MOL0     H23179   5.602   0.371   8.020 -0.3226  0.1774 -0.1355
  172MOL0     H23180   5.869   0.250   8.038 -3.7117  1.1985 -2.5494
  172MOL0     H23181   6.030   0.081   7.997 -0.6316  2.0306 -1.2019
  172MOL0     H23182   5.870  -0.539   7.999 -0.9187 -0.8726 -4.7965
  172MOL0     H23183   5.955  -0.746   7.944  0.3522 -0.6404 -0.4101
  172MOL0     H23184   6.195  -0.898   8.114  1.1131 -1.7353  0.0621
  172MOL0     H23185   6.097  -0.941   7.966  1.9239 -2.1805 -3.9963
  172MOL0     H23186   6.314  -1.023   7.854 -2.6366 -4.8097 -1.0011
  172MOL0     H23187   6.375  -1.003   8.030 -1.9669 -1.0509  3.4565
  172MOL0     H23188   6.203  -1.171   8.093  0.1080  0.2603  0.0716
  172MOL0     H23189   6.135  -1.160   7.926  0.7650  2.8297 -2.1189
  172MOL0     H23190   6.421  -1.272   7.975  0.4626  0.1450 -2.2042
  172MOL0     H23191   6.309  -1.297   7.840  0.0490  5.2063 -1.0152
  172MOL0     H23192   6.302  -1.407   8.125 -0.5618  2.7856  0.6552
  172MOL0     H23193   6.330  -1.499   7.973  1.0599  0.8347 -0.8242
  172MOL0     H23194   6.069  -1.363   8.056 -1.4184  0.5479 -1.6843
  172MOL0     H23195   6.092  -1.441   7.908 -1.2420 -2.1141 -0.6492
  172MOL0     H23196   6.135  -1.578   8.183  3.9009 -2.1356 -0.6471
  172MOL0     H23197   6.140  -1.669   8.027 -0.9932  0.3724 -1.6336
  172MOL0     H23198   5.920  -1.680   8.165 -1.1916  2.2737  0.9849
  172MOL0     H23199   5.896  -1.514   8.112  1.4774  1.0562 -1.6109
  172MOL0     H23200   6.356  -0.546   7.973 -0.1785 -0.1128 -0.1731
  172MOL0     H23201   6.250  -0.347   8.018  0.4937  0.6598  1.3701
  172MOL0     H23202   5.735  -0.227   8.083 -1.9222  0.2431 -0.3845
  172MOL0     H23203   5.572  -0.057   8.123  0.4395 -0.3167  2.5136
  172MOL0     H23204   3.938   0.832   8.107  1.5738  2.5324  0.1739
  172MOL0     H23205   3.715   0.830   7.989  0.7310  1.7980  2.1322
  172MOL0     H23206   3.512   0.866   7.545 -1.9318  1.1828 -1.3134
  172MOL0     H23207   3.332   0.856   7.386  1.5227  2.7369  2.8483
  172MOL0     H23208   3.046   0.488   7.427  3.1217 -4.4598 -0.2570
  172MOL0     H23209   3.167   0.441   7.308  1.3697 -0.0160  1.0374
  172MOL0     H23210   2.970   0.430   7.178  3.9303 -0.8263 -1.0757
  172MOL0     H23211   3.051   0.578   7.126 -0.8659 -0.1348 -0.1674
  172MOL0     H23212   2.897   0.711   7.276 -0.2255  0.0745 -0.3004
  172MOL0     H23213   2.810   0.563   7.306 -2.1170 -0.5561 -1.1258
  172MOL0     H23214   2.853   0.690   7.035 -1.2175  0.2193 -0.9595
  172MOL0     H23215   2.764   0.539   7.055  2.7230 -0.5527 -0.8281
  172MOL0     H23216   2.471   0.797   7.188 -0.3176 -0.3998  0.7897
  172MOL0     H23217   3.235   0.466   7.553  2.2569 -1.7225  0.3086
  172MOL0     H23218   3.446   0.453   7.816  0.3692  0.1057  0.1916
  172MOL0     H23219   3.369   0.355   7.702 -0.1864  1.5143  1.2280
  172MOL0     H23220   3.543   0.394   7.675  0.0523  0.7147 -1.2663
  173MOL0     O23221   8.172   6.078   8.409  0.8503 -0.4178  0.7639
  173MOL0     C23222   8.151   5.970   8.364  0.0550  0.1521  0.3483
  173MOL0     O23223   8.210   5.931   8.247  1.3686  0.1885  0.7783
  173MOL0     C23224   8.277   6.021   8.172  0.1742  0.4174  0.4793
  173MOL0     C23225   8.226   6.087   8.060  0.4993  0.3185 -0.7675
  173MOL0     C23226   8.298   6.175   7.978  0.1078 -0.2356 -0.0149
  173MOL0     C23227   8.431   6.187   8.003 -0.6233 -0.5339 -0.4236
  173MOL0     O23228   8.519   6.278   7.942 -0.3435 -0.2454  0.7619
  173MOL0     C23229   8.466   6.371   7.848  0.3887 -0.5227 -0.2269
  173MOL0     C23230   8.582   6.445   7.776 -0.0181 -0.6778 -0.9917
  173MOL0     C23231   8.686   6.500   7.865 -0.4539  0.4829  1.0279
  173MOL0     C23232   8.630   6.582   7.982  0.4161 -0.0726 -0.0631
  173MOL0     C23233   8.747   6.648   8.055 -0.1539 -0.6011  0.1419
  173MOL0     C23234   8.858   6.717   7.975  0.1272 -0.0479  0.0024
  173MOL0     C23235   8.973   6.614   7.969  0.5704  0.5258  1.3175
  173MOL0     C23236   9.094   6.672   7.882  1.7435 -0.4120 -0.3817
  173MOL0     N23237   9.211   6.576   7.874 -0.5832  0.4017 -0.9782
  173MOL0     C23238   9.340   6.608   7.899  0.5995 -0.3612 -0.6654
  173MOL0     C23239   9.408   6.492   7.888  0.6401 -0.0157 -0.1421
  173MOL0     C23240   9.547   6.459   7.900 -0.5502  0.0446  0.0156
  173MOL0     C23241   9.641   6.521   7.793  0.2962 -0.2253  0.1026
  173MOL0     C23242   9.656   6.444   7.659 -0.3875  0.5327  0.9627
  173MOL0     C23243   9.795   6.455   7.611  0.5102  0.5466  0.2006
  173MOL0     O23244   9.855   6.586   7.590 -0.3563 -0.5783 -0.8786
  173MOL0     C23245   9.962   6.595   7.514 -0.1943  0.7936 -0.1344
  173MOL0     C23246  10.086   6.605   7.576  0.5141 -1.4363 -0.2523
  173MOL0     C23247  10.197   6.626   7.499 -0.0122  0.6364 -0.1429
  173MOL0     C23248  10.192   6.615   7.355 -0.3142 -0.1070  0.5518
  173MOL0     C23249  10.315   6.639   7.277 -0.5366 -0.5918 -0.2004
  173MOL0     O23250  10.431   6.668   7.348 -0.1285 -0.0552  0.7821
  173MOL0     C23251  10.547   6.673   7.271 -0.5379  0.4153  1.5726
  173MOL0     C23252  10.590   6.569   7.187 -0.2025 -0.7296 -0.0141
  173MOL0     C23253  10.720   6.571   7.125 -0.3098 -0.7603  0.6103
  173MOL0     C23254  10.801   6.685   7.156  0.4125  0.9357 -0.0955
  173MOL0     O23255  10.918   6.724   7.095  0.1191  0.1851 -0.2359
  173MOL0     C23256  10.968   6.647   6.989 -0.3251  0.2812 -0.1009
  173MOL0     C23257  11.123   6.645   6.991  0.7727  0.4583 -0.6516
  173MOL0     C23258  11.185   6.557   6.884  0.4309  0.4766 -0.3950
  173MOL0     C23259  11.334   6.601   6.872 -0.1259  0.5522 -0.0217
  173MOL0     C23260  11.421   6.488   6.824 -0.1622 -0.1915 -0.4772
  173MOL0     C23261  11.567   6.514   6.791 -0.3525  0.1749  0.6142
  173MOL0     C23262  11.621   6.383   6.731  0.1955  0.6670  0.0375
  173MOL0     C23263  11.776   6.406   6.707 -0.6121  0.6917  0.1823
  173MOL0    Cl23264  11.821   6.555   6.619 -0.3072 -0.3029 -0.2205
  173MOL0     C23265  10.759   6.767   7.254 -0.2703 -0.2480 -0.4982
  173MOL0     C23266  10.638   6.764   7.321 -0.8118 -0.6709  0.7265
  173MOL0     O23267  10.312   6.632   7.158 -0.6850 -0.3112  0.4674
  173MOL0     C23268  10.067   6.597   7.297 -0.4799  0.4096  0.2389
  173MOL0     C23269   9.953   6.592   7.375  0.2108 -0.0016  0.9964
  173MOL0     N23270   9.307   6.387   7.868 -0.0409 -0.1656  0.0408
  173MOL0     N23271   9.197   6.440   7.856 -0.7238  0.1479  0.2707
  173MOL0     C23272   8.484   6.120   8.117  0.2204 -1.1533 -0.0191
  173MOL0     C23273   8.414   6.032   8.192 -0.3270 -0.3889 -1.4601
  173MOL0     C23274   8.047   5.883   8.423 -0.4857  0.7484 -0.5156
  173MOL0     C23275   7.985   5.787   8.337 -1.4381  0.0494  0.2908
  173MOL0     C23276   7.902   5.691   8.383  0.5476  0.3411  0.0733
  173MOL0     C23277   7.869   5.700   8.521  0.7643  0.0734  0.1602
  173MOL0     O23278   7.775   5.610   8.578 -0.3489 -0.6287  0.2298
  173MOL0     C23279   7.642   5.660   8.595 -0.5171 -0.0051  0.6995
  173MOL0     C23280   7.607   5.689   8.736 -0.3953 -0.2107  0.1503
  173MOL0     C23281   7.636   5.573   8.823 -0.3026 -0.1305 -0.1465
  173MOL0     C23282   7.566   5.441   8.787 -0.8369 -0.3047 -0.4267
  173MOL0     C23283   7.444   5.453   8.721 -0.3777  0.2847  0.6666
  173MOL0     C23284   7.339   5.467   8.660  0.0074  0.7056 -0.2654
  173MOL0     C23285   7.911   5.791   8.610 -0.1422 -2.0519 -0.2389
  173MOL0     C23286   8.014   5.882   8.565  0.3125  0.3831  0.2342
  173MOL0     C23287   8.069   5.991   8.664  0.1902 -0.0348 -0.0284
  173MOL0     H23288   8.121   6.083   8.032  0.3983 -1.6746 -0.2632
  173MOL0     H23289   8.250   6.240   7.904 -2.4394  1.0343  2.5336
  173MOL0     H23290   8.409   6.324   7.767 -1.8957  1.3689  0.1853
  173MOL0     H23291   8.406   6.445   7.901  0.8387 -1.0161  1.0105
  173MOL0     H23292   8.545   6.520   7.706  1.9855 -1.1830 -2.6937
  173MOL0     H23293   8.637   6.377   7.711  1.6346  2.1310 -2.7707
  173MOL0     H23294   8.747   6.562   7.798  0.5595 -0.1597  1.3307
  173MOL0     H23295   8.751   6.423   7.907  0.1930  0.0444 -0.6803
  173MOL0     H23296   8.568   6.659   7.935 -0.6544 -0.1305  1.1906
  173MOL0     H23297   8.562   6.523   8.044 -0.0490  0.3087 -0.2059
  173MOL0     H23298   8.703   6.735   8.105  3.7980  1.5766  0.2090
  173MOL0     H23299   8.789   6.595   8.141  0.5724 -1.7646 -0.8876
  173MOL0     H23300   8.837   6.741   7.870 -0.5181  3.8626  0.8742
  173MOL0     H23301   8.876   6.813   8.023 -0.6766 -0.6125  1.5103
  173MOL0     H23302   8.934   6.530   7.912 -1.0319  1.1820  1.3942
  173MOL0     H23303   9.002   6.576   8.067  3.7215  1.9733  1.0782
  173MOL0     H23304   9.059   6.672   7.778 -2.1970 -2.2229  0.7266
  173MOL0     H23305   9.121   6.774   7.908 -0.3504 -0.2508  1.4345
  173MOL0     H23306   9.383   6.701   7.936  3.5665 -2.0060  0.3476
  173MOL0     H23307   9.580   6.481   8.002  1.5004 -0.8323 -0.4048
  173MOL0     H23308   9.561   6.351   7.891  1.5381  0.4272 -2.6370
  173MOL0     H23309   9.627   6.628   7.779  0.2795 -0.1620  0.5970
  173MOL0     H23310   9.737   6.515   7.846  0.1318 -0.2157  0.4026
  173MOL0     H23311   9.591   6.484   7.581 -0.7203  1.1704  1.5612
  173MOL0     H23312   9.630   6.341   7.683  0.5546  0.5925  2.3825
  173MOL0     H23313   9.805   6.404   7.515 -0.2649  2.4759 -0.9644
  173MOL0     H23314   9.854   6.398   7.683  0.0571  0.0872  0.2110
  173MOL0     H23315  10.103   6.614   7.683 -1.1827 -3.0458  0.2147
  173MOL0     H23316  10.291   6.642   7.550 -0.3812 -0.3134  0.8546
  173MOL0     H23317  10.529   6.483   7.162  1.8929 -3.0966  2.4279
  173MOL0     H23318  10.745   6.492   7.055  1.2197 -1.2232  1.6245
  173MOL0     H23319  10.946   6.540   6.987  1.8842 -0.3411  2.9096
  173MOL0     H23320  10.927   6.687   6.896  1.0970 -1.4847 -1.5874
  173MOL0     H23321  11.172   6.743   6.984  0.5073  0.8654  2.0062
  173MOL0     H23322  11.161   6.614   7.089 -0.6247  0.8281  0.0330
  173MOL0     H23323  11.181   6.454   6.920  0.3771  0.9083  0.8694
  173MOL0     H23324  11.136   6.570   6.787 -3.3163  1.6044  1.4761
  173MOL0     H23325  11.371   6.640   6.967 -0.9208  0.4655  0.3305
  173MOL0     H23326  11.337   6.675   6.791  0.9510  0.7362  0.1645
  173MOL0     H23327  11.370   6.462   6.730 -0.6907  0.8246 -0.4856
  173MOL0     H23328  11.416   6.398   6.886 -0.7211  0.0161 -0.2185
  173MOL0     H23329  11.591   6.603   6.731  1.0983 -0.9091 -0.4888
  173MOL0     H23330  11.620   6.538   6.883 -2.3403 -0.1458  1.8960
  173MOL0     H23331  11.574   6.365   6.634  1.8971 -0.1201 -0.6842
  173MOL0     H23332  11.602   6.304   6.804 -1.0771  1.8301  1.0084
  173MOL0     H23333  11.833   6.404   6.801 -0.0844  1.7465 -0.1004
  173MOL0     H23334  11.815   6.320   6.652 -3.4769 -0.2528 -0.5442
  173MOL0     H23335  10.837   6.835   7.286  2.0382 -1.2993 -3.4351
  173MOL0     H23336  10.608   6.831   7.400  0.9145  4.0385 -2.1773
  173MOL0     H23337  10.061   6.592   7.189 -2.3090 -1.0470  0.3388
  173MOL0     H23338   9.854   6.581   7.331  0.9543  0.2237 -0.8269
  173MOL0     H23339   8.589   6.141   8.135 -0.1003  1.6910 -1.0535
  173MOL0     H23340   8.456   5.995   8.285  0.2403  3.3300 -0.0705
  173MOL0     H23341   8.018   5.775   8.234 -0.9361  0.9894  0.3354
  173MOL0     H23342   7.860   5.612   8.321  0.0101 -0.2302  1.1308
  173MOL0     H23343   7.569   5.594   8.548  0.4360 -0.9402  0.4912
  173MOL0     H23344   7.637   5.747   8.529  0.3703 -0.2413  0.3032
  173MOL0     H23345   7.500   5.712   8.738 -0.6156 -1.2113  0.7663
  173MOL0     H23346   7.661   5.780   8.765  0.6881 -0.6179 -0.5405
  173MOL0     H23347   7.590   5.599   8.919 -2.4450  0.7679 -1.3494
  173MOL0     H23348   7.742   5.548   8.837 -0.4755 -0.1424  1.2791
  173MOL0     H23349   7.627   5.384   8.716  0.7785  0.7435  0.0523
  173MOL0     H23350   7.543   5.381   8.875 -0.5978 -0.0437 -0.1832
  173MOL0     H23351   7.242   5.466   8.616 -0.3970 -2.2852  0.5086
  173MOL0     H23352   7.881   5.786   8.715  0.2192 -1.8613 -0.1219
  173MOL0     H23353   8.167   6.031   8.636  0.4273 -0.0476  0.7774
  173MOL0     H23354   7.995   6.071   8.676  1.4466  0.9907  1.0764
  173MOL0     H23355   8.086   5.949   8.763 -0.4057  1.0080  0.5364
  174MOL0     O23356   2.609   8.656   9.052  0.3535 -0.2076 -0.1464
  174MOL0     C23357   2.610   8.723   9.158 -0.2115  0.2436  0.5147
  174MOL0     O23358   2.729   8.762   9.214  0.4541 -0.0756 -0.4238
  174MOL0     C23359   2.852   8.747   9.146  0.4313  0.6543 -0.3415
  174MOL0     C23360   2.897   8.627   9.092  0.1030  0.3767  0.5148
  174MOL0     C23361   3.012   8.621   9.019 -0.3785 -0.3146 -0.0365
  174MOL0     C23362   3.103   8.729   9.001 -0.5050 -0.6069 -0.8839
  174MOL0     O23363   3.229   8.724   8.938 -0.1897  0.3173  0.1593
  174MOL0     C23364   3.273   8.605   8.879  0.4196 -0.6089 -0.0863
  174MOL0     C23365   3.421   8.620   8.840 -0.3910 -0.4422  0.3129
  174MOL0     C23366   3.505   8.653   8.963  0.3900  0.3658  0.0192
  174MOL0     C23367   3.646   8.664   8.902 -0.5792  0.3209  0.6876
  174MOL0     C23368   3.756   8.672   9.004 -0.1331  0.6826  0.2343
  174MOL0     C23369   3.760   8.582   9.132 -0.6463 -0.0525  0.1530
  174MOL0     C23370   3.889   8.619   9.222  1.2897 -0.0303 -0.5457
  174MOL0     C23371   4.020   8.594   9.158 -0.2337 -0.9420 -0.0971
  174MOL0     N23372   4.127   8.582   9.258 -0.3995  0.4947 -0.2135
  174MOL0     C23373   4.149   8.467   9.336 -1.0438 -0.0414  0.0124
  174MOL0     C23374   4.261   8.498   9.406  0.8889 -1.0425 -0.5405
  174MOL0     C23375   4.338   8.428   9.507 -0.3074  0.1107  1.0000
  174MOL0     C23376   4.471   8.377   9.448 -0.4999 -0.3030  0.0595
  174MOL0     C23377   4.545   8.291   9.547  0.8897 -0.7043 -0.6089
  174MOL0     C23378   4.475   8.150   9.576 -1.1300  0.6135 -0.2423
  174MOL0     O23379   4.560   8.074   9.665 -0.5318  0.5904  0.3208
  174MOL0     C23380   4.549   7.940   9.685  0.4676 -0.3794  0.3587
  174MOL0     C23381   4.430   7.878   9.655 -0.4491  0.5605  0.7525
  174MOL0     C23382   4.406   7.745   9.691 -0.0859  0.0312  0.3451
  174MOL0     C23383   4.513   7.669   9.755  0.7926  0.0187 -0.1731
  174MOL0     C23384   4.478   7.538   9.813 -0.3459 -0.2574  0.1118
  174MOL0     O23385   4.342   7.502   9.826  0.1029  0.2217  0.3166
  174MOL0     C23386   4.314   7.388   9.890  0.6629  0.4267 -0.6514
  174MOL0     C23387   4.234   7.409  10.000  0.1375 -1.2562  1.1503
  174MOL0     C23388   4.192   7.308  10.092 -0.0871 -0.4617  0.2703
  174MOL0     C23389   4.236   7.180  10.070 -0.1997 -0.6719 -0.9962
  174MOL0     O23390   4.197   7.074  10.156 -0.1546 -0.1321  0.1347
  174MOL0     C23391   4.058   7.056  10.201  0.3235 -0.2759  0.2269
  174MOL0     C23392   4.058   6.933  10.294  0.8121 -0.2381  0.3255
  174MOL0     C23393   3.909   6.871  10.320 -0.8010  0.2823  0.0919
  174MOL0     C23394   3.900   6.749  10.418  0.0921 -0.3018 -0.0309
  174MOL0     C23395   3.962   6.780  10.558  0.0566 -0.0031 -0.0678
  174MOL0     C23396   3.878   6.888  10.628  0.3041  0.0988  0.6602
  174MOL0     C23397   3.728   6.854  10.644 -1.3251 -0.1890  0.5331
  174MOL0     C23398   3.668   6.925  10.763 -0.4459 -0.1177 -0.0957
  174MOL0    Cl23399   3.510   6.852  10.814 -0.2115 -0.3151  0.4662
  174MOL0     C23400   4.326   7.157   9.968  0.1581 -0.0782  0.0214
  174MOL0     C23401   4.364   7.264   9.877 -0.0956 -0.5482  0.3373
  174MOL0     O23402   4.575   7.479   9.859 -0.0935  0.5525 -0.7550
  174MOL0     C23403   4.638   7.730   9.781 -0.2630  0.8844 -0.4756
  174MOL0     C23404   4.656   7.869   9.748  0.8507 -0.3173  0.3823
  174MOL0     N23405   4.283   8.632   9.386 -0.2737 -0.1536 -0.1213
  174MOL0     N23406   4.210   8.683   9.296  0.7468  0.0971  0.7518
  174MOL0     C23407   3.061   8.849   9.069  0.4896 -0.0417  0.1478
  174MOL0     C23408   2.932   8.858   9.126 -0.0831 -0.1970  0.5854
  174MOL0     C23409   2.487   8.765   9.228  0.2746  0.1223  0.1633
  174MOL0     C23410   2.490   8.843   9.346 -0.0056  0.1498  0.7489
  174MOL0     C23411   2.372   8.890   9.403 -0.1544 -0.0401 -1.0620
  174MOL0     C23412   2.249   8.862   9.357 -0.1138  0.3702  0.5080
  174MOL0     O23413   2.132   8.912   9.417  0.7440 -0.0640  0.3684
  174MOL0     C23414   2.003   8.900   9.355  0.6377  0.3157  0.8121
  174MOL0     C23415   1.931   8.771   9.395 -0.0754 -0.0671 -0.0756
  174MOL0     C23416   1.800   8.749   9.321 -0.8396  0.5771 -0.0231
  174MOL0     C23417   1.727   8.625   9.361  0.9243  0.5286  0.5007
  174MOL0     C23418   1.579   8.651   9.358  0.3599 -0.1098  0.0356
  174MOL0     C23419   1.463   8.685   9.353  0.7677  0.7723 -1.3027
  174MOL0     C23420   2.244   8.778   9.248  0.6512 -0.5032  0.5846
  174MOL0     C23421   2.358   8.731   9.185 -0.0210 -0.2524 -0.1549
  174MOL0     C23422   2.334   8.659   9.053 -0.5745 -0.1458  0.1408
  174MOL0     H23423   2.842   8.534   9.093  3.1522 -1.5838 -0.3062
  174MOL0     H23424   3.040   8.521   8.985 -0.1531 -0.8832  1.7264
  174MOL0     H23425   3.258   8.514   8.938  1.5599  0.0763  1.3326
  174MOL0     H23426   3.211   8.589   8.790  0.1867  1.2461 -0.2910
  174MOL0     H23427   3.423   8.698   8.763 -3.0883 -2.1638 -1.6794
  174MOL0     H23428   3.461   8.526   8.800 -0.7505  0.2678 -1.8304
  174MOL0     H23429   3.483   8.582   9.044 -0.1233  0.9976  0.4436
  174MOL0     H23430   3.480   8.750   9.008 -1.4035  0.1506 -0.4376
  174MOL0     H23431   3.667   8.573   8.846 -0.3102  1.4713 -1.1875
  174MOL0     H23432   3.651   8.752   8.836  2.0051  0.3950  0.8683
  174MOL0     H23433   3.855   8.659   8.958 -0.6324  0.8795 -0.9290
  174MOL0     H23434   3.751   8.778   9.033 -0.3243  0.3572  1.4287
  174MOL0     H23435   3.665   8.590   9.186 -0.6010 -0.5910  0.3141
  174MOL0     H23436   3.769   8.479   9.097  0.2487  0.4812 -1.2763
  174MOL0     H23437   3.888   8.566   9.318  0.7247  0.2415 -0.3953
  174MOL0     H23438   3.880   8.725   9.248 -1.3820 -0.2225 -0.3468
  174MOL0     H23439   4.005   8.496   9.113 -1.7448 -1.0126  0.4875
  174MOL0     H23440   4.066   8.669   9.093  2.0723 -0.1216  2.2710
  174MOL0     H23441   4.098   8.372   9.331 -1.1878  0.0300  0.1243
  174MOL0     H23442   4.371   8.484   9.595 -0.6924 -0.3280  1.4271
  174MOL0     H23443   4.284   8.337   9.536  1.4145 -0.6398  2.0025
  174MOL0     H23444   4.457   8.310   9.362  2.6283 -2.9193  1.3319
  174MOL0     H23445   4.540   8.453   9.409  0.1249  0.0312  1.7598
  174MOL0     H23446   4.564   8.339   9.643  1.0190 -3.0915  0.6258
  174MOL0     H23447   4.645   8.268   9.509  1.8279  1.4887  0.3445
  174MOL0     H23448   4.458   8.094   9.483 -0.9843  0.9993 -0.5081
  174MOL0     H23449   4.377   8.172   9.618 -2.0359 -1.8626 -0.9198
  174MOL0     H23450   4.342   7.921   9.609 -0.0184 -2.4470 -3.4946
  174MOL0     H23451   4.306   7.704   9.686 -1.1140  2.3616  0.4041
  174MOL0     H23452   4.197   7.509  10.016  1.5489 -0.2850 -1.1329
  174MOL0     H23453   4.121   7.337  10.169  1.0375  0.3774  1.0350
  174MOL0     H23454   4.024   7.140  10.264 -0.8522 -1.1464  0.7941
  174MOL0     H23455   3.988   7.041  10.118 -1.6031  0.8733  1.5442
  174MOL0     H23456   4.109   6.851  10.242 -3.6164 -2.1136 -1.5762
  174MOL0     H23457   4.107   6.960  10.388 -3.4273  2.8058  1.9736
  174MOL0     H23458   3.839   6.945  10.360 -0.4192 -0.1531  1.6123
  174MOL0     H23459   3.867   6.844  10.222  1.2078  1.2578 -1.0991
  174MOL0     H23460   3.961   6.671  10.371 -0.8804 -1.2465  0.2391
  174MOL0     H23461   3.795   6.718  10.415 -0.4234  1.2673  0.6799
  174MOL0     H23462   4.064   6.817  10.541  0.2545 -1.3622 -2.2063
  174MOL0     H23463   3.962   6.689  10.618 -1.7199  1.1558  1.8317
  174MOL0     H23464   3.919   6.905  10.728  2.8715  1.1875 -0.4823
  174MOL0     H23465   3.896   6.982  10.576 -2.1732  0.7955  0.9453
  174MOL0     H23466   3.714   6.746  10.654 -0.0394 -0.4720 -0.4671
  174MOL0     H23467   3.680   6.894  10.555  0.8504  1.4152 -0.0009
  174MOL0     H23468   3.729   6.911  10.852 -1.1550  0.9086  0.5826
  174MOL0     H23469   3.661   7.034  10.761  0.9060  0.1482  3.5659
  174MOL0     H23470   4.379   7.063   9.956 -1.0227 -0.7811  0.1263
  174MOL0     H23471   4.440   7.252   9.800 -0.1837  2.1816 -0.2749
  174MOL0     H23472   4.714   7.673   9.833 -1.0737 -0.1376 -0.3842
  174MOL0     H23473   4.748   7.922   9.773 -0.0068  1.2010  0.4559
  174MOL0     H23474   3.119   8.941   9.062 -1.7904  1.3402 -2.3274
  174MOL0     H23475   2.904   8.950   9.177  1.8145 -0.2652  1.8466
  174MOL0     H23476   2.582   8.880   9.389  0.4479  1.4510 -1.2019
  174MOL0     H23477   2.379   8.935   9.502 -0.7122 -0.6948 -0.7170
  174MOL0     H23478   1.994   8.919   9.248  0.9661  2.5619  1.1191
  174MOL0     H23479   1.934   8.978   9.391 -2.1650 -0.1600 -2.9036
  174MOL0     H23480   1.901   8.772   9.500  1.3347 -0.8848  0.3553
  174MOL0     H23481   1.997   8.684   9.384  0.6587 -0.2985  4.2839
  174MOL0     H23482   1.824   8.735   9.216 -1.7479  0.5053 -0.2253
  174MOL0     H23483   1.732   8.835   9.328 -2.5751 -0.7233 -0.4230
  174MOL0     H23484   1.741   8.538   9.296  1.0743  0.2702  0.8790
  174MOL0     H23485   1.757   8.577   9.454 -2.2996 -0.2338  1.2702
  174MOL0     H23486   1.367   8.729   9.333 -0.0908 -0.2917  0.2301
  174MOL0     H23487   2.143   8.752   9.216  0.7907 -1.9294  1.2427
  174MOL0     H23488   2.228   8.653   9.028 -0.7254  2.6102 -0.1763
  174MOL0     H23489   2.397   8.700   8.973  2.8247 -1.9743  1.6685
  174MOL0     H23490   2.375   8.558   9.058  0.6813  0.3797  0.9418
  175MOL0     O23491  11.046   8.615   7.071  0.6539  0.0854 -0.1277
  175MOL0     C23492  11.019   8.730   7.024 -0.6255  1.2897 -0.4795
  175MOL0     O23493  11.110   8.820   6.975  0.7407 -0.7248 -0.4885
  175MOL0     C23494  11.245   8.779   6.965  0.4055  0.3530 -0.6278
  175MOL0     C23495  11.296   8.735   6.842 -0.5851  0.1815 -0.9004
  175MOL0     C23496  11.430   8.711   6.816 -0.5247 -0.1408 -0.5546
  175MOL0     C23497  11.518   8.713   6.923 -0.4277 -0.0291  0.0145
  175MOL0     O23498  11.641   8.675   6.909  0.1692 -0.0585  0.5829
  175MOL0     C23499  11.760   8.735   6.969 -0.0809  0.6718  0.3115
  175MOL0     C23500  11.865   8.759   6.859  0.0051  0.9351  0.3098
  175MOL0     C23501  12.001   8.811   6.909 -0.1599  0.1323  0.6905
  175MOL0     C23502  12.123   8.824   6.808 -0.0299 -0.2267 -0.5711
  175MOL0     C23503  12.104   8.835   6.663 -0.5989 -0.3912  0.2237
  175MOL0     C23504  12.013   8.942   6.605  0.4253  0.4704  0.6200
  175MOL0     C23505  12.058   8.980   6.458  0.0684 -1.2021 -0.2006
  175MOL0     C23506  12.039   8.874   6.347 -0.4818 -0.2145  0.9105
  175MOL0     N23507  12.106   8.917   6.222 -0.2323  0.3556 -0.0558
  175MOL0     C23508  12.245   8.908   6.211  0.3752 -0.2676  0.5316
  175MOL0     C23509  12.272   8.964   6.094 -0.0165 -0.6474 -0.2174
  175MOL0     C23510  12.419   8.999   6.042  0.2854 -0.3408 -0.8256
  175MOL0     C23511  12.432   8.991   5.893  0.2817  0.1448 -1.0943
  175MOL0     C23512  12.554   9.044   5.819  0.1982 -0.2358 -0.0757
  175MOL0     C23513  12.581   9.199   5.842 -0.5541  0.2559 -0.1576
  175MOL0     O23514  12.698   9.236   5.763  0.6504  0.7081 -0.0014
  175MOL0     C23515  12.746   9.359   5.775 -0.1986 -0.0544 -0.3005
  175MOL0     C23516  12.688   9.458   5.854  0.6724  0.0854  0.9088
  175MOL0     C23517  12.748   9.581   5.873 -0.0288  0.2181 -0.3531
  175MOL0     C23518  12.867   9.611   5.809  0.6612 -0.1168  0.3826
  175MOL0     C23519  12.947   9.733   5.827 -0.1295  0.0517  0.6294
  175MOL0     O23520  13.050   9.760   5.745  0.0843  0.4183  0.4758
  175MOL0     C23521  13.118   9.876   5.734  0.8701  0.4113  0.2641
  175MOL0     C23522  13.188   9.896   5.609 -0.1959 -0.4001  1.4171
  175MOL0     C23523  13.270  10.000   5.580 -0.3441 -0.4179  1.0937
  175MOL0     C23524  13.270  10.104   5.663 -0.1777 -0.5017 -0.2756
  175MOL0     O23525  13.355  10.209   5.624  0.6255  0.7317 -0.0997
  175MOL0     C23526  13.335  10.346   5.667 -0.3564 -0.4976  0.2975
  175MOL0     C23527  13.433  10.435   5.586 -0.4051 -0.1320  0.1834
  175MOL0     C23528  13.574  10.381   5.567 -0.6752  0.4696 -0.6701
  175MOL0     C23529  13.647  10.387   5.702 -0.1487 -0.6113 -0.3938
  175MOL0     C23530  13.713  10.528   5.727 -1.2456 -0.1875 -0.0352
  175MOL0     C23531  13.761  10.544   5.867  0.4917  0.3855 -0.7492
  175MOL0     C23532  13.797  10.699   5.888 -0.0513  0.1778  0.9741
  175MOL0     C23533  13.917  10.749   5.806 -0.5618 -0.4070 -0.3629
  175MOL0    Cl23534  13.913  10.934   5.809  0.1830 -0.1343 -0.1995
  175MOL0     C23535  13.211  10.092   5.782  0.6675 -0.7691 -0.3835
  175MOL0     C23536  13.141   9.975   5.821  0.2777 -0.5716 -0.3706
  175MOL0     O23537  12.903   9.815   5.913  0.5002  0.3548 -0.1965
  175MOL0     C23538  12.909   9.520   5.716  0.5454 -0.3102  0.6705
  175MOL0     C23539  12.853   9.389   5.697  0.2209  0.1443 -0.9011
  175MOL0     N23540  12.155   8.997   6.036 -0.4958 -0.8147  0.1766
  175MOL0     N23541  12.062   8.979   6.116 -0.0658  0.5955 -0.2843
  175MOL0     C23542  11.470   8.746   7.048  0.3056 -0.7168  0.5695
  175MOL0     C23543  11.339   8.789   7.070  1.2191 -0.7823 -0.0701
  175MOL0     C23544  10.883   8.792   7.031 -0.5639 -0.4898 -0.3491
  175MOL0     C23545  10.792   8.750   6.933  0.2039 -0.6347  0.5616
  175MOL0     C23546  10.664   8.810   6.930  0.3086 -0.4440 -0.3735
  175MOL0     C23547  10.618   8.915   7.024 -0.2262  0.5037  0.1872
  175MOL0     O23548  10.500   8.981   7.024 -0.1146 -0.0760  0.9029
  175MOL0     C23549  10.388   8.914   6.954  0.1463 -0.2591 -0.4558
  175MOL0     C23550  10.260   8.909   7.046  1.1624  0.4355 -0.4746
  175MOL0     C23551  10.187   9.040   7.044  0.7108  1.2723 -0.0798
  175MOL0     C23552  10.082   9.046   6.917  0.0907  0.3842 -0.4681
  175MOL0     C23553   9.960   8.971   6.928 -0.4608  0.0931  0.4531
  175MOL0     C23554   9.862   8.908   6.958  0.7578 -0.8553  0.5469
  175MOL0     C23555  10.718   8.952   7.115 -0.4138 -0.5056  0.3401
  175MOL0     C23556  10.847   8.888   7.123  0.4594 -1.2179  0.5260
  175MOL0     C23557  10.931   8.915   7.243 -0.6326 -0.5586 -0.4182
  175MOL0     H23558  11.230   8.738   6.755 -0.5334  2.6758 -0.9448
  175MOL0     H23559  11.464   8.690   6.715  0.8597  2.1845 -0.6585
  175MOL0     H23560  11.751   8.825   7.030  0.0529  0.1343  1.1340
  175MOL0     H23561  11.801   8.667   7.044 -0.6945  1.6050  1.5234
  175MOL0     H23562  11.816   8.834   6.798 -1.5693  0.3687  0.8264
  175MOL0     H23563  11.884   8.668   6.801 -0.8861 -1.0641  2.9585
  175MOL0     H23564  12.034   8.749   6.993 -0.2865  1.8140  2.0613
  175MOL0     H23565  11.976   8.912   6.943 -1.9154  0.5046 -1.5093
  175MOL0     H23566  12.179   8.912   6.841 -0.8437 -1.1597  3.9216
  175MOL0     H23567  12.184   8.736   6.827  0.1393 -0.7103 -3.0087
  175MOL0     H23568  12.203   8.852   6.620 -1.0414  1.6257 -0.0791
  175MOL0     H23569  12.059   8.743   6.625  1.7164 -1.5925  0.1842
  175MOL0     H23570  11.909   8.908   6.603  0.9214 -1.2494  1.6993
  175MOL0     H23571  12.033   9.032   6.664  3.7575 -0.4067  1.0092
  175MOL0     H23572  12.165   9.001   6.453 -0.1905 -0.1353 -2.0988
  175MOL0     H23573  12.001   9.069   6.429  1.3266 -0.1309  0.5210
  175MOL0     H23574  12.087   8.780   6.374  3.3481  1.1913 -0.2686
  175MOL0     H23575  11.935   8.855   6.320  0.8154 -0.0447 -6.2224
  175MOL0     H23576  12.314   8.876   6.288 -0.3797  0.7673  1.6702
  175MOL0     H23577  12.453   9.097   6.077  0.2273 -1.3114  2.2297
  175MOL0     H23578  12.481   8.919   6.086 -1.9100 -1.3975  0.5273
  175MOL0     H23579  12.419   8.887   5.863  1.9062 -0.1781 -0.7277
  175MOL0     H23580  12.355   9.054   5.846  2.9173  2.2435 -2.8834
  175MOL0     H23581  12.539   9.022   5.713  2.1415 -0.8135 -0.2808
  175MOL0     H23582  12.647   8.989   5.839  2.5148  2.2921 -2.7529
  175MOL0     H23583  12.594   9.210   5.950  1.2609  1.1121 -0.4177
  175MOL0     H23584  12.499   9.262   5.804  2.1386  2.4350 -2.9369
  175MOL0     H23585  12.597   9.453   5.912 -0.9809 -0.5222 -1.5636
  175MOL0     H23586  12.689   9.655   5.926 -3.2915 -2.3205 -0.1725
  175MOL0     H23587  13.177   9.817   5.535 -0.1088  0.6015  0.3166
  175MOL0     H23588  13.328  10.001   5.489 -2.8878  0.4831 -0.6437
  175MOL0     H23589  13.228  10.358   5.647 -0.2164  0.0296 -0.1443
  175MOL0     H23590  13.353  10.367   5.772 -2.2628  1.3423  0.3140
  175MOL0     H23591  13.391  10.459   5.488  1.6261  1.1809 -0.4422
  175MOL0     H23592  13.448  10.534   5.631 -0.4674 -0.5305  1.0976
  175MOL0     H23593  13.572  10.281   5.522  0.9072 -0.5545  1.3294
  175MOL0     H23594  13.629  10.446   5.499  1.0763  1.5386  1.6011
  175MOL0     H23595  13.731  10.321   5.680  0.4274  0.5076 -1.7389
  175MOL0     H23596  13.581  10.358   5.784 -0.7825  1.3061 -0.1675
  175MOL0     H23597  13.647  10.612   5.703 -2.3243 -1.1539 -0.5893
  175MOL0     H23598  13.804  10.530   5.667 -0.4965  1.7492  1.0834
  175MOL0     H23599  13.680  10.516   5.935  2.0703 -1.3253  0.5211
  175MOL0     H23600  13.845  10.477   5.891 -1.0685 -0.5848  2.6601
  175MOL0     H23601  13.831  10.701   5.992  3.6496 -1.9143  0.0111
  175MOL0     H23602  13.704  10.757   5.889 -0.3398 -0.2628  0.4757
  175MOL0     H23603  14.009  10.717   5.856  0.9142  1.4517 -1.7348
  175MOL0     H23604  13.928  10.711   5.705  5.1862  0.7811 -0.5334
  175MOL0     H23605  13.212  10.175   5.852  1.6697  0.3048 -1.6358
  175MOL0     H23606  13.101   9.978   5.922  1.6133  1.9596  0.1611
  175MOL0     H23607  12.995   9.536   5.652  0.5170  0.3499  0.7952
  175MOL0     H23608  12.901   9.323   5.626 -0.8402 -3.1700  1.2040
  175MOL0     H23609  11.537   8.754   7.133  3.0652 -0.2014 -1.5120
  175MOL0     H23610  11.313   8.825   7.169  4.1814  1.7865 -0.0732
  175MOL0     H23611  10.810   8.661   6.874  1.5375  0.7542 -1.2394
  175MOL0     H23612  10.593   8.788   6.851 -0.4495  1.2952 -0.2340
  175MOL0     H23613  10.402   8.809   6.926 -3.3860 -1.3355  1.3317
  175MOL0     H23614  10.373   8.975   6.864  2.1735 -0.6140 -1.1039
  175MOL0     H23615  10.303   8.889   7.145 -1.2699  3.4084  1.3434
  175MOL0     H23616  10.193   8.826   7.021 -0.6713  0.7247  2.9256
  175MOL0     H23617  10.256   9.126   7.040  0.2577  1.6558  0.2515
  175MOL0     H23618  10.136   9.056   7.139 -1.6597 -1.3850 -0.8008
  175MOL0     H23619  10.055   9.151   6.902  1.6583  0.8462 -0.2708
  175MOL0     H23620  10.132   9.020   6.823 -0.0475  0.8973 -0.6893
  175MOL0     H23621   9.778   8.849   6.987  2.2123 -2.7620  1.0726
  175MOL0     H23622  10.679   9.028   7.182 -0.7342  0.9144 -1.3720
  175MOL0     H23623  10.964   8.827   7.299 -0.9959  0.5164  1.5862
  175MOL0     H23624  11.021   8.969   7.211  1.1962 -1.0918  3.3304
  175MOL0     H23625  10.871   8.972   7.314 -2.2459  0.5525 -2.5436
  176MOL0     O23626   1.879   6.547   8.139 -0.6757  0.1593 -0.3649
  176MOL0     C23627   1.944   6.473   8.217 -0.7103  0.0118 -0.4435
  176MOL0     O23628   1.896   6.426   8.338 -0.4418  0.0271 -0.2290
  176MOL0     C23629   1.768   6.455   8.375  0.0440 -0.0125 -0.4566
  176MOL0     C23630   1.738   6.455   8.516  0.3991  0.4614 -0.0040
  176MOL0     C23631   1.610   6.448   8.575  0.1270  0.0365 -0.0074
  176MOL0     C23632   1.505   6.443   8.479  0.2022  0.1856 -0.0235
  176MOL0     O23633   1.378   6.434   8.517  0.5819  0.6221  0.0584
  176MOL0     C23634   1.355   6.345   8.639 -0.5166 -0.4647  0.6443
  176MOL0     C23635   1.226   6.387   8.710  1.0697 -0.1066  0.4795
  176MOL0     C23636   1.100   6.376   8.629 -1.0152  0.1456 -0.3504
  176MOL0     C23637   0.996   6.447   8.715  0.6679  0.6329  0.3983
  176MOL0     C23638   0.854   6.418   8.652 -0.2388  0.8744  0.8193
  176MOL0     C23639   0.746   6.493   8.732 -0.4065  0.4006 -0.0361
  176MOL0     C23640   0.749   6.645   8.710  0.2898  1.1786  0.0122
  176MOL0     C23641   0.651   6.705   8.812  0.3896 -0.3763  0.6459
  176MOL0     N23642   0.622   6.852   8.790  0.6341  0.4483 -0.3471
  176MOL0     C23643   0.716   6.952   8.780  1.0220  0.8572 -0.1966
  176MOL0     C23644   0.642   7.066   8.767  0.7626 -0.1176  0.7326
  176MOL0     C23645   0.699   7.203   8.748  0.5492 -0.2204 -0.0304
  176MOL0     C23646   0.822   7.234   8.833 -1.1724  0.0151 -0.7749
  176MOL0     C23647   0.876   7.381   8.794  0.4344  0.5132 -0.2106
  176MOL0     C23648   0.960   7.367   8.661 -0.6478  0.2562  0.0484
  176MOL0     O23649   1.080   7.282   8.669  0.7273 -0.2076  0.0603
  176MOL0     C23650   1.198   7.343   8.713  0.8377  1.2910  0.5071
  176MOL0     C23651   1.315   7.260   8.713 -0.9113 -0.2075 -0.3881
  176MOL0     C23652   1.442   7.311   8.737 -0.3070  0.4499  0.0144
  176MOL0     C23653   1.456   7.441   8.779 -0.6878  0.6308  0.5672
  176MOL0     C23654   1.599   7.491   8.810  0.1615 -0.1139  0.6246
  176MOL0     O23655   1.700   7.400   8.814  0.4398 -0.7582 -0.3535
  176MOL0     C23656   1.820   7.449   8.861 -0.0079  0.0675 -0.1262
  176MOL0     C23657   1.899   7.550   8.814 -0.6412  0.3511 -0.2587
  176MOL0     C23658   2.025   7.579   8.864  0.5362  0.3806 -0.0045
  176MOL0     C23659   2.081   7.520   8.979  0.1483  0.5603 -0.3048
  176MOL0     O23660   2.189   7.573   9.044 -0.0032  0.0950  0.2873
  176MOL0     C23661   2.241   7.701   8.997 -0.2899 -0.5080 -0.0771
  176MOL0     C23662   2.361   7.750   9.076  0.7925  0.3022  0.5139
  176MOL0     C23663   2.490   7.709   9.001 -0.0456 -0.7175  0.6645
  176MOL0     C23664   2.619   7.764   9.066 -0.1175  0.2969 -0.0461
  176MOL0     C23665   2.750   7.731   8.981 -0.0651 -0.0591 -0.0424
  176MOL0     C23666   2.865   7.816   9.021 -0.2319  0.7136  0.9438
  176MOL0     C23667   2.975   7.830   8.913 -0.1894 -1.1881  0.3632
  176MOL0     C23668   3.048   7.693   8.899 -1.4662 -0.7374 -0.6086
  176MOL0    Cl23669   3.110   7.675   8.739  0.1116 -0.1648  0.4929
  176MOL0     C23670   1.997   7.416   9.036 -0.0735  0.4966  0.3092
  176MOL0     C23671   1.866   7.386   8.979  0.9039 -0.2541 -0.2097
  176MOL0     O23672   1.613   7.614   8.828  0.4843 -0.1092 -0.9495
  176MOL0     C23673   1.341   7.518   8.793 -0.3404 -0.4381  0.0403
  176MOL0     C23674   1.206   7.470   8.760 -0.0432 -0.9468 -1.3182
  176MOL0     N23675   0.505   7.038   8.760  0.4687 -0.7637 -0.1962
  176MOL0     N23676   0.498   6.911   8.771 -0.2211 -0.0220  0.2132
  176MOL0     C23677   1.526   6.441   8.341  0.2255 -0.1353  0.4047
  176MOL0     C23678   1.659   6.446   8.288  0.5724 -0.3805  0.5013
  176MOL0     C23679   2.085   6.424   8.190  0.0432 -0.4407 -0.1831
  176MOL0     C23680   2.134   6.305   8.248  0.1844  0.2848  0.9268
  176MOL0     C23681   2.265   6.247   8.222 -0.0097 -0.0105  0.6347
  176MOL0     C23682   2.351   6.320   8.146  0.8480 -0.0710 -0.7312
  176MOL0     O23683   2.478   6.265   8.131 -0.2395 -0.5306 -0.1016
  176MOL0     C23684   2.512   6.188   8.005 -0.2831 -0.2776 -0.3773
  176MOL0     C23685   2.663   6.166   7.994 -0.1827 -1.1348  0.2861
  176MOL0     C23686   2.699   6.052   7.898  0.1979  0.1195  0.3814
  176MOL0     C23687   2.841   6.049   7.845 -1.2779 -0.2926 -0.5426
  176MOL0     C23688   2.931   6.026   7.958 -0.7404  0.4864  0.0808
  176MOL0     C23689   3.010   6.003   8.048  0.0606 -0.8470  0.2462
  176MOL0     C23690   2.307   6.446   8.085 -0.1731  0.2230  0.3441
  176MOL0     C23691   2.178   6.501   8.120 -0.2930  0.1958 -0.2241
  176MOL0     C23692   2.161   6.644   8.059  0.4075 -0.5789  0.2199
  176MOL0     H23693   1.824   6.447   8.583 -1.2086  0.0274  2.1194
  176MOL0     H23694   1.593   6.450   8.682 -0.2032  2.1302 -0.0488
  176MOL0     H23695   1.348   6.240   8.610 -1.1402 -0.2422 -0.0345
  176MOL0     H23696   1.437   6.349   8.712  1.2387  0.3147 -1.2692
  176MOL0     H23697   1.229   6.495   8.731  0.2520  0.5145 -2.2200
  176MOL0     H23698   1.206   6.330   8.801 -0.1509  0.0905  0.3426
  176MOL0     H23699   1.086   6.270   8.606  0.8338 -0.4061  0.8657
  176MOL0     H23700   1.114   6.436   8.539  0.9431 -0.1488 -0.2646
  176MOL0     H23701   0.997   6.400   8.814 -1.5322 -0.5160 -0.0620
  176MOL0     H23702   1.016   6.554   8.723  2.6217  0.1712  2.5928
  176MOL0     H23703   0.851   6.458   8.550 -2.3570 -1.1166  0.0061
  176MOL0     H23704   0.824   6.313   8.650 -1.8444  1.2870  1.2618
  176MOL0     H23705   0.650   6.451   8.701  0.4097 -2.4506  0.9616
  176MOL0     H23706   0.765   6.470   8.837 -2.4474 -2.4344 -0.1706
  176MOL0     H23707   0.701   6.656   8.612 -1.8311  2.6952  1.1399
  176MOL0     H23708   0.850   6.686   8.707  1.7183 -2.1133 -0.6694
  176MOL0     H23709   0.553   6.657   8.817  0.0350  0.3797  1.4135
  176MOL0     H23710   0.699   6.705   8.911 -2.0206  0.4028  1.9074
  176MOL0     H23711   0.824   6.947   8.777  1.0839  0.1543  1.5920
  176MOL0     H23712   0.722   7.203   8.641  0.8939 -1.5839  0.0217
  176MOL0     H23713   0.622   7.276   8.773 -0.2815 -1.1191  0.0749
  176MOL0     H23714   0.791   7.241   8.937  2.9927 -1.0549  0.7460
  176MOL0     H23715   0.904   7.163   8.817  0.4525  1.7955 -0.7991
  176MOL0     H23716   0.941   7.419   8.874 -1.2326  0.4659  1.2091
  176MOL0     H23717   0.793   7.451   8.784 -0.0711 -0.2868 -2.3173
  176MOL0     H23718   0.988   7.465   8.622 -2.1145 -0.6029 -3.5995
  176MOL0     H23719   0.892   7.323   8.586 -2.1569  1.6546  0.5597
  176MOL0     H23720   1.309   7.157   8.682 -0.6664 -0.1854 -0.5047
  176MOL0     H23721   1.535   7.254   8.737 -0.2907  0.4598  1.1658
  176MOL0     H23722   1.870   7.605   8.725  0.4600 -0.5603 -1.2228
  176MOL0     H23723   2.074   7.657   8.806  3.3000  0.3350  2.0944
  176MOL0     H23724   2.267   7.702   8.891  0.4583 -1.0026  0.0943
  176MOL0     H23725   2.161   7.772   9.021  0.3550 -0.5089  2.3697
  176MOL0     H23726   2.364   7.859   9.084  1.4831  0.2989  0.3390
  176MOL0     H23727   2.362   7.707   9.177 -0.0458  1.2403  0.9353
  176MOL0     H23728   2.504   7.601   8.997  2.0101 -0.4583 -3.1851
  176MOL0     H23729   2.477   7.759   8.905  0.6877  0.8202  1.3262
  176MOL0     H23730   2.629   7.716   9.163 -0.2582 -1.6572 -0.9504
  176MOL0     H23731   2.615   7.873   9.079 -1.0406  0.4101 -1.0770
  176MOL0     H23732   2.733   7.746   8.874  0.3954  1.2632  0.0471
  176MOL0     H23733   2.769   7.625   8.997 -1.5919 -1.0406 -3.7525
  176MOL0     H23734   2.834   7.916   9.054 -2.3935  0.3953  0.0296
  176MOL0     H23735   2.910   7.767   9.109  1.4290 -3.0964 -1.7673
  176MOL0     H23736   3.043   7.913   8.934 -1.9214  0.1084  1.1381
  176MOL0     H23737   2.928   7.851   8.816  1.5755 -0.7439 -0.4278
  176MOL0     H23738   3.120   7.678   8.980 -0.3404  1.3419 -1.1494
  176MOL0     H23739   2.969   7.618   8.909 -0.4946 -1.8078 -0.8244
  176MOL0     H23740   2.040   7.369   9.124 -0.2132  0.7483  0.5122
  176MOL0     H23741   1.801   7.311   9.022 -0.2227 -0.4421 -2.1205
  176MOL0     H23742   1.354   7.623   8.817  2.8836 -0.5210 -0.8462
  176MOL0     H23743   1.122   7.534   8.784  0.3008 -1.3349  1.2100
  176MOL0     H23744   1.442   6.432   8.274  0.4709  1.8992 -0.2578
  176MOL0     H23745   1.679   6.440   8.181 -1.7700  3.2675 -0.2939
  176MOL0     H23746   2.075   6.241   8.313  1.2331  0.2969  1.9284
  176MOL0     H23747   2.305   6.159   8.271  0.4255  0.1781  0.6307
  176MOL0     H23748   2.463   6.227   7.915  0.6542 -2.3722 -1.8800
  176MOL0     H23749   2.471   6.088   8.018 -0.5259 -0.2306 -0.7636
  176MOL0     H23750   2.701   6.154   8.096 -0.8785  0.8386  0.8140
  176MOL0     H23751   2.704   6.259   7.955 -1.3848 -1.6304 -2.3483
  176MOL0     H23752   2.642   6.061   7.805 -1.4045  0.7632  1.3850
  176MOL0     H23753   2.674   5.954   7.939  2.9329 -0.4261  0.9414
  176MOL0     H23754   2.839   5.962   7.779  0.5853 -0.3448 -0.5706
  176MOL0     H23755   2.870   6.144   7.798  0.2555 -1.3390 -1.8172
  176MOL0     H23756   3.069   5.976   8.133 -0.7291 -1.3200  0.6600
  176MOL0     H23757   2.377   6.502   8.025  1.5541 -0.8511  1.2894
  176MOL0     H23758   2.125   6.715   8.133  1.6125  2.8770 -2.2589
  176MOL0     H23759   2.255   6.668   8.008  1.6055 -1.4975  1.9105
  176MOL0     H23760   2.084   6.642   7.981  0.6970  2.5061 -0.2496
  177MOL0     O23761   3.542   3.490   0.441  0.3846  0.1924  0.2435
  177MOL0     C23762   3.464   3.500   0.539 -0.3397 -0.3162  0.3508
  177MOL0     O23763   3.437   3.614   0.612 -0.3025  0.6891  0.2732
  177MOL0     C23764   3.535   3.716   0.613  0.0386  0.4388  0.1778
  177MOL0     C23765   3.674   3.711   0.612 -1.1824 -1.1385 -0.2678
  177MOL0     C23766   3.750   3.827   0.611  0.3906  0.1628  0.8790
  177MOL0     C23767   3.689   3.955   0.596  0.2167 -0.3521  0.2481
  177MOL0     O23768   3.762   4.077   0.600 -0.8803  0.2041  0.6290
  177MOL0     C23769   3.901   4.065   0.563 -0.3827  0.4050 -0.1813
  177MOL0     C23770   3.956   4.194   0.512  0.1346  1.0078  0.0487
  177MOL0     C23771   4.115   4.165   0.500  0.2844  0.4354 -0.8935
  177MOL0     C23772   4.183   4.191   0.636  0.4926  0.0748 -0.6202
  177MOL0     C23773   4.335   4.202   0.611 -0.3973 -0.5974 -0.2003
  177MOL0     C23774   4.395   4.225   0.747 -1.2271  0.5103 -0.2415
  177MOL0     C23775   4.540   4.279   0.732  0.6230 -0.7247  0.4727
  177MOL0     C23776   4.545   4.427   0.677  0.0582  0.5805 -0.2967
  177MOL0     N23777   4.675   4.500   0.694  0.1250  0.1363  0.1541
  177MOL0     C23778   4.786   4.466   0.770 -0.0947 -0.5452 -0.0037
  177MOL0     C23779   4.880   4.556   0.732  0.2907 -0.1296 -0.2233
  177MOL0     C23780   5.019   4.561   0.793 -0.3800  0.5045 -0.0411
  177MOL0     C23781   5.096   4.433   0.813  0.7690 -0.1054  0.0653
  177MOL0     C23782   5.222   4.449   0.913  0.2216 -1.2789  0.8521
  177MOL0     C23783   5.339   4.510   0.833  0.3164  0.2005  0.0821
  177MOL0     O23784   5.442   4.535   0.930 -0.4862  0.5391 -0.7970
  177MOL0     C23785   5.561   4.594   0.897 -0.3658  0.3756  0.2039
  177MOL0     C23786   5.643   4.628   1.002  0.3753 -0.9387  0.1817
  177MOL0     C23787   5.763   4.697   0.983  0.1310 -0.5691 -0.6750
  177MOL0     C23788   5.808   4.723   0.852 -0.4114  0.2913  0.5204
  177MOL0     C23789   5.943   4.803   0.841  1.2904  0.2042  0.2005
  177MOL0     O23790   6.033   4.774   0.939  0.1024  0.4898  0.5640
  177MOL0     C23791   6.142   4.853   0.965 -0.2769  0.4560 -0.1961
  177MOL0     C23792   6.256   4.796   1.009 -0.3361 -0.2405  0.2608
  177MOL0     C23793   6.370   4.877   1.036  0.1271  0.1068  0.2380
  177MOL0     C23794   6.358   5.016   1.036 -0.0398 -0.7393  0.8968
  177MOL0     O23795   6.456   5.106   1.068  0.6110  0.5147  0.2663
  177MOL0     C23796   6.475   5.235   1.013  0.7701 -0.3015 -0.1781
  177MOL0     C23797   6.626   5.275   1.038  0.3755  0.1748 -0.1553
  177MOL0     C23798   6.651   5.286   1.188 -0.2481  0.2583 -0.5761
  177MOL0     C23799   6.782   5.357   1.217  0.2100  0.0072 -0.9291
  177MOL0     C23800   6.803   5.383   1.368 -0.3032  0.6673  0.0467
  177MOL0     C23801   6.879   5.503   1.408 -0.2195  0.8061 -0.0212
  177MOL0     C23802   7.020   5.500   1.360 -1.3342 -0.2519  0.0857
  177MOL0     C23803   7.114   5.401   1.433  0.4970 -0.1700 -0.0898
  177MOL0    Cl23804   7.259   5.399   1.339 -0.8079  0.1708 -0.4053
  177MOL0     C23805   6.241   5.074   0.986 -0.2282 -0.0401 -0.2670
  177MOL0     C23806   6.128   4.994   0.959 -0.0490  0.6368 -0.3365
  177MOL0     O23807   5.962   4.870   0.742 -0.9612 -0.3901  0.1423
  177MOL0     C23808   5.724   4.691   0.747 -0.2230  0.1083 -0.1382
  177MOL0     C23809   5.599   4.627   0.766  0.0835 -0.6935 -0.7206
  177MOL0     N23810   4.824   4.646   0.644 -0.9814  0.2172  0.4687
  177MOL0     N23811   4.707   4.606   0.619  1.2618 -0.0706 -0.3850
  177MOL0     C23812   3.548   3.955   0.594 -0.0173 -0.6851  0.2820
  177MOL0     C23813   3.467   3.834   0.600  0.0891 -0.9660 -0.1131
  177MOL0     C23814   3.408   3.378   0.586 -0.5788  0.3332  1.2281
  177MOL0     C23815   3.289   3.340   0.534 -0.0715  0.1783  0.3920
  177MOL0     C23816   3.230   3.210   0.564 -0.4585  0.1626  0.4788
  177MOL0     C23817   3.306   3.118   0.642  0.4323 -0.5796 -0.0874
  177MOL0     O23818   3.263   3.000   0.693  0.0809  0.0712 -0.1743
  177MOL0     C23819   3.133   2.958   0.643  0.5215 -0.5805 -0.2868
  177MOL0     C23820   3.068   2.838   0.714 -0.1341 -0.3106  0.7601
  177MOL0     C23821   3.147   2.705   0.696  0.3076  0.3635  0.2897
  177MOL0     C23822   3.054   2.594   0.749  0.5207  0.6717  0.0068
  177MOL0     C23823   3.014   2.599   0.890  0.8254  0.2806  0.3276
  177MOL0     C23824   2.967   2.586   1.001 -0.8121 -0.3586  0.0293
  177MOL0     C23825   3.436   3.149   0.681  0.5412 -0.7168  0.1541
  177MOL0     C23826   3.487   3.285   0.657 -0.3731 -0.4878 -1.1264
  177MOL0     C23827   3.630   3.328   0.702 -0.2358 -0.5898  0.1660
  177MOL0     H23828   3.726   3.615   0.613 -1.6747 -1.4178  0.9078
  177MOL0     H23829   3.857   3.810   0.620 -0.0322 -4.3689 -0.2537
  177MOL0     H23830   3.950   4.044   0.658 -0.8975 -2.1200 -0.4091
  177MOL0     H23831   3.914   3.987   0.487  2.5159 -1.3127  1.8733
  177MOL0     H23832   3.936   4.279   0.577 -0.5815  1.7576 -1.1066
  177MOL0     H23833   3.911   4.222   0.416 -2.4353 -0.3994  0.7256
  177MOL0     H23834   4.153   4.241   0.431  1.0729  1.5228  0.6811
  177MOL0     H23835   4.151   4.072   0.455  0.2276 -0.2111  0.3495
  177MOL0     H23836   4.149   4.285   0.681  0.0615 -1.3381  2.2047
  177MOL0     H23837   4.163   4.106   0.701  1.3473  0.9115  0.7926
  177MOL0     H23838   4.388   4.122   0.558  1.8553  0.5489  0.2182
  177MOL0     H23839   4.339   4.297   0.557 -0.2820 -1.2266 -1.3362
  177MOL0     H23840   4.340   4.292   0.814 -0.6269  0.0816  0.7049
  177MOL0     H23841   4.395   4.124   0.789  1.7987  0.4962 -0.0275
  177MOL0     H23842   4.598   4.215   0.665 -1.2448  0.6313 -2.6842
  177MOL0     H23843   4.594   4.283   0.827 -0.9467  0.3803  1.3656
  177MOL0     H23844   4.541   4.413   0.569  1.9703 -2.2204 -0.1094
  177MOL0     H23845   4.463   4.485   0.721  0.9134 -0.0052  2.2955
  177MOL0     H23846   4.802   4.384   0.839  0.7607 -0.0265  0.4245
  177MOL0     H23847   5.076   4.638   0.740 -0.6550  1.5329  1.0961
  177MOL0     H23848   4.991   4.592   0.894 -3.4725 -0.3085 -0.5532
  177MOL0     H23849   5.027   4.357   0.852 -2.9502  1.9903 -1.8955
  177MOL0     H23850   5.132   4.396   0.717 -1.8092 -0.5078 -0.8333
  177MOL0     H23851   5.255   4.346   0.933  1.4469 -1.2668 -0.9663
  177MOL0     H23852   5.182   4.505   0.998  0.8344 -1.4862  1.2821
  177MOL0     H23853   5.316   4.606   0.787 -0.1410 -0.4602 -1.1161
  177MOL0     H23854   5.361   4.433   0.758 -0.9911 -2.5075  2.2784
  177MOL0     H23855   5.609   4.610   1.104  3.0380 -1.2166  1.0995
  177MOL0     H23856   5.823   4.730   1.067 -1.8640 -0.2730  0.6951
  177MOL0     H23857   6.262   4.689   1.025 -0.1521 -0.0467  1.5344
  177MOL0     H23858   6.468   4.833   1.054  1.2082  1.9369 -0.7936
  177MOL0     H23859   6.458   5.232   0.905 -0.6510 -1.1085  0.0489
  177MOL0     H23860   6.399   5.305   1.049 -1.9592 -3.1794  0.1132
  177MOL0     H23861   6.681   5.192   0.994 -0.7901 -0.2144 -0.9444
  177MOL0     H23862   6.659   5.367   0.989 -0.1730 -0.9592 -2.8208
  177MOL0     H23863   6.577   5.340   1.248 -1.1004 -1.4010 -0.0655
  177MOL0     H23864   6.657   5.184   1.229  0.3627  0.3477 -0.4338
  177MOL0     H23865   6.781   5.451   1.161 -0.7464  0.7292  0.2534
  177MOL0     H23866   6.862   5.292   1.179  0.3844  0.4583 -1.3439
  177MOL0     H23867   6.841   5.291   1.414 -1.2599  0.3007  0.1311
  177MOL0     H23868   6.710   5.403   1.422  1.4215  0.2669  3.3952
  177MOL0     H23869   6.831   5.593   1.368 -1.5546 -0.4000 -1.2946
  177MOL0     H23870   6.877   5.517   1.516  2.8406  0.3039  0.1681
  177MOL0     H23871   7.067   5.596   1.381  0.3849 -0.8703 -0.7788
  177MOL0     H23872   7.017   5.474   1.253  0.4545  0.5259 -0.1924
  177MOL0     H23873   7.130   5.435   1.536 -0.1110 -2.0795  0.6849
  177MOL0     H23874   7.075   5.299   1.445 -1.0599  0.6995  3.8386
  177MOL0     H23875   6.226   5.181   0.979  1.1623  0.2945  1.1891
  177MOL0     H23876   6.041   5.038   0.910 -1.4310 -2.2611 -0.7257
  177MOL0     H23877   5.757   4.697   0.644  0.9881 -2.2423  0.0507
  177MOL0     H23878   5.534   4.614   0.681 -2.4800  2.1723  0.6223
  177MOL0     H23879   3.496   4.049   0.583  2.2785  0.7282  0.8179
  177MOL0     H23880   3.359   3.832   0.598  0.0873 -0.4081 -1.6634
  177MOL0     H23881   3.224   3.407   0.479  0.0634 -0.1227 -0.1434
  177MOL0     H23882   3.140   3.174   0.514  0.5060 -2.6111  0.6118
  177MOL0     H23883   3.153   2.938   0.538  1.7265  1.4054 -0.4754
  177MOL0     H23884   3.055   3.034   0.653 -0.4382 -1.6944  1.1341
  177MOL0     H23885   2.965   2.831   0.680  0.5071  2.2857 -2.1736
  177MOL0     H23886   3.064   2.853   0.822 -0.7800  2.5965  0.4188
  177MOL0     H23887   3.240   2.715   0.752 -0.8420  2.9405  1.9129
  177MOL0     H23888   3.166   2.707   0.588 -1.8046  0.3375 -0.1231
  177MOL0     H23889   2.963   2.589   0.688 -1.1374  0.0895  2.3705
  177MOL0     H23890   3.123   2.509   0.746 -0.0804  0.1914 -0.4545
  177MOL0     H23891   2.917   2.576   1.096 -0.5135  0.5767  0.2971
  177MOL0     H23892   3.490   3.070   0.732 -1.1141 -1.0862  1.4180
  177MOL0     H23893   3.652   3.432   0.730  0.3473  0.5399 -3.8824
  177MOL0     H23894   3.656   3.269   0.791  0.1726 -0.8804 -0.1436
  177MOL0     H23895   3.707   3.307   0.627  0.9218 -0.9930  1.4247
  178MOL0     O23896   0.191   0.391   9.143  0.3833  0.3435 -0.3159
  178MOL0     C23897   0.252   0.497   9.134  0.2472 -0.7452 -0.9162
  178MOL0     O23898   0.388   0.509   9.132 -0.6772  0.7245  0.7745
  178MOL0     C23899   0.470   0.409   9.090 -0.5303 -0.4407  0.1178
  178MOL0     C23900   0.599   0.438   9.132  0.2156  0.5842 -0.9625
  178MOL0     C23901   0.706   0.336   9.121 -0.1636 -0.4089 -0.5097
  178MOL0     C23902   0.671   0.220   9.052  0.1726  0.0157  0.5793
  178MOL0     O23903   0.766   0.131   9.008  0.0404 -1.7002  0.6251
  178MOL0     C23904   0.849   0.182   8.902 -0.8469 -0.1900 -0.4929
  178MOL0     C23905   0.992   0.146   8.931  0.2411 -0.2643  0.7324
  178MOL0     C23906   1.071   0.236   9.028 -0.5147  0.0196 -0.3100
  178MOL0     C23907   1.205   0.170   9.077 -0.4754 -0.0607  0.0694
  178MOL0     C23908   1.246   0.238   9.210 -0.6728 -0.2357  0.2572
  178MOL0     C23909   1.382   0.193   9.247  0.2531 -0.3942 -0.4620
  178MOL0     C23910   1.392   0.047   9.302  0.3804  0.0156  0.4008
  178MOL0     C23911   1.540   0.004   9.326 -0.3521 -0.2027 -0.2378
  178MOL0     N23912   1.631  -0.022   9.208 -0.1911  0.6521 -0.0930
  178MOL0     C23913   1.681  -0.145   9.170  0.0337 -0.2158  0.1551
  178MOL0     C23914   1.759  -0.106   9.064 -0.6203  0.0082  0.2741
  178MOL0     C23915   1.865  -0.208   9.010  0.7071  0.7876  0.1109
  178MOL0     C23916   1.925  -0.151   8.873  0.0188  0.1428 -0.6126
  178MOL0     C23917   2.016  -0.242   8.790 -0.6857 -0.2222 -1.1138
  178MOL0     C23918   2.167  -0.249   8.834  0.2448 -0.3647 -0.1142
  178MOL0     O23919   2.214  -0.112   8.821  0.3273  0.6954  0.3093
  178MOL0     C23920   2.352  -0.092   8.821  0.3867 -0.7291  0.5270
  178MOL0     C23921   2.443  -0.192   8.836  0.3144 -0.4662 -0.4904
  178MOL0     C23922   2.580  -0.173   8.825 -0.6915 -0.1016  0.2594
  178MOL0     C23923   2.633  -0.041   8.815  0.4239 -0.2180 -0.2327
  178MOL0     C23924   2.776  -0.008   8.813  0.0649  0.4813  0.6866
  178MOL0     O23925   2.850  -0.107   8.749  0.2459  0.7186 -0.2113
  178MOL0     C23926   2.986  -0.088   8.745  0.0402  0.0505 -0.1769
  178MOL0     C23927   3.063  -0.045   8.855  0.3456  0.0140  0.0497
  178MOL0     C23928   3.203  -0.034   8.843  0.0746  0.4288  0.7692
  178MOL0     C23929   3.269  -0.058   8.725  0.2915  0.3187 -0.8576
  178MOL0     O23930   3.404  -0.036   8.726  0.8793  0.2104 -0.3329
  178MOL0     C23931   3.487  -0.057   8.605 -0.3413  0.3311 -0.5462
  178MOL0     C23932   3.639  -0.025   8.618 -0.3288 -0.4516  0.0166
  178MOL0     C23933   3.715  -0.036   8.490  0.8756  0.8336  0.3935
  178MOL0     C23934   3.747  -0.176   8.445 -0.3961  0.0025  0.3200
  178MOL0     C23935   3.825  -0.169   8.312  0.7838  0.4443 -0.7402
  178MOL0     C23936   3.977  -0.156   8.337 -0.3638 -0.6203  0.1609
  178MOL0     C23937   4.048  -0.195   8.206  0.3660  0.0028 -0.8830
  178MOL0     C23938   4.193  -0.194   8.241  0.8534 -0.6201  0.8361
  178MOL0    Cl23939   4.264  -0.289   8.108  0.4491  0.3623 -0.2010
  178MOL0     C23940   3.190  -0.088   8.617 -0.0965  0.3293  0.8880
  178MOL0     C23941   3.052  -0.100   8.622 -0.8166  0.7554  0.3739
  178MOL0     O23942   2.821   0.097   8.860 -0.8672 -0.6700  0.6305
  178MOL0     C23943   2.540   0.063   8.805 -0.3858 -0.8075  0.4234
  178MOL0     C23944   2.406   0.034   8.800  0.0468  0.4565  0.0553
  178MOL0     N23945   1.761   0.032   9.047  0.2300  0.0517 -0.0492
  178MOL0     N23946   1.684   0.077   9.137  0.5842 -0.8092  0.1376
  178MOL0     C23947   0.545   0.189   9.010 -0.1181 -0.3997  0.0035
  178MOL0     C23948   0.449   0.283   9.031  0.3812 -0.4999 -0.8386
  178MOL0     C23949   0.167   0.615   9.113 -0.2742  0.4747  0.7604
  178MOL0     C23950   0.231   0.735   9.065  0.0900  0.1594  0.1311
  178MOL0     C23951   0.157   0.853   9.044 -0.5172  0.4644  0.1433
  178MOL0     C23952   0.019   0.848   9.060  0.0960  0.3057  0.5494
  178MOL0     O23953  -0.051   0.961   9.025 -0.6761 -0.2390  0.5505
  178MOL0     C23954  -0.114   0.956   8.906 -0.5278 -0.7888 -0.5749
  178MOL0     C23955  -0.258   0.913   8.919 -0.0168 -0.0989 -0.1990
  178MOL0     C23956  -0.344   1.021   8.984 -0.7211 -0.7288 -0.0752
  178MOL0     C23957  -0.484   0.982   8.958  0.0474 -1.0065  0.2367
  178MOL0     C23958  -0.573   1.075   9.023  0.7282  0.4146  0.6249
  178MOL0     C23959  -0.658   1.144   9.077 -0.0400 -0.1192 -0.0705
  178MOL0     C23960  -0.039   0.732   9.118 -0.5550 -0.2158 -0.7223
  178MOL0     C23961   0.031   0.622   9.156  0.4223  0.0441  0.6468
  178MOL0     C23962  -0.048   0.526   9.244 -0.8868  0.4917  0.1462
  178MOL0     H23963   0.628   0.529   9.185  3.5195 -1.4055  0.9763
  178MOL0     H23964   0.806   0.347   9.160 -1.0067  0.3102  1.6557
  178MOL0     H23965   0.821   0.141   8.804 -0.3497  1.2199 -1.2509
  178MOL0     H23966   0.846   0.291   8.889  1.1892  0.0291  0.4619
  178MOL0     H23967   1.042   0.132   8.835 -0.5883  0.0024  0.2509
  178MOL0     H23968   0.988   0.043   8.967 -2.0902 -0.1421  0.9657
  178MOL0     H23969   1.008   0.244   9.117  0.0510 -3.2484  0.5221
  178MOL0     H23970   1.090   0.341   9.004 -0.6751 -0.1048 -1.0014
  178MOL0     H23971   1.190   0.065   9.101  0.7340  0.4968  4.0156
  178MOL0     H23972   1.278   0.185   8.996 -0.5885  1.5641  0.2317
  178MOL0     H23973   1.249   0.347   9.214 -1.5035 -0.2486  2.1877
  178MOL0     H23974   1.174   0.212   9.287  0.6360  1.9994  2.3518
  178MOL0     H23975   1.456   0.206   9.168  1.2189  1.6061  0.6776
  178MOL0     H23976   1.422   0.265   9.319 -1.4335 -0.6189  0.7775
  178MOL0     H23977   1.358  -0.015   9.218 -0.6654  0.6243  0.3577
  178MOL0     H23978   1.341   0.034   9.398  0.5448  1.5493  0.7176
  178MOL0     H23979   1.575   0.095   9.376 -1.6794  0.7751 -1.0293
  178MOL0     H23980   1.544  -0.088   9.386 -1.7323 -1.2238 -1.6286
  178MOL0     H23981   1.659  -0.244   9.207 -0.8850 -0.6659 -1.4626
  178MOL0     H23982   1.946  -0.208   9.083 -0.4340  2.2481  1.4583
  178MOL0     H23983   1.816  -0.303   8.989  0.3098  1.2769 -1.3251
  178MOL0     H23984   1.849  -0.110   8.806 -1.1637 -0.5770  0.2650
  178MOL0     H23985   1.984  -0.064   8.905 -5.2142  3.4305  1.5204
  178MOL0     H23986   2.001  -0.221   8.684  0.4891  2.0458 -0.8778
  178MOL0     H23987   1.972  -0.336   8.826 -1.6770  0.9802  1.0466
  178MOL0     H23988   2.224  -0.320   8.774  1.7522  1.9999 -1.6768
  178MOL0     H23989   2.172  -0.285   8.937  1.7430  1.4498  0.5147
  178MOL0     H23990   2.407  -0.289   8.869  1.5697 -0.6142  0.5546
  178MOL0     H23991   2.647  -0.257   8.835 -1.1397 -0.1375  5.0299
  178MOL0     H23992   3.020  -0.037   8.954 -3.5977 -2.6707 -1.1858
  178MOL0     H23993   3.264  -0.003   8.927  0.5003  0.2152  0.5408
  178MOL0     H23994   3.477  -0.158   8.565  1.5654  0.1995 -0.8113
  178MOL0     H23995   3.463  -0.002   8.513 -2.5898 -0.6082 -0.5701
  178MOL0     H23996   3.654   0.078   8.654 -0.2347 -0.5917  0.3850
  178MOL0     H23997   3.674  -0.088   8.700 -1.6141  0.4495  1.3217
  178MOL0     H23998   3.659   0.013   8.410 -1.7825  0.3963  1.8755
  178MOL0     H23999   3.810   0.015   8.508  0.3639  2.2517 -0.7488
  178MOL0     H24000   3.652  -0.228   8.427 -0.6008  0.8768 -1.3448
  178MOL0     H24001   3.803  -0.228   8.523 -0.3378  1.9441  1.6339
  178MOL0     H24002   3.778  -0.099   8.243 -1.4863 -0.7897 -0.5466
  178MOL0     H24003   3.803  -0.267   8.268 -4.0941  0.6245  0.7242
  178MOL0     H24004   4.003  -0.053   8.364 -1.5013 -0.3906  0.4200
  178MOL0     H24005   3.994  -0.229   8.417 -0.3827 -0.1026  0.6489
  178MOL0     H24006   4.028  -0.140   8.113  0.7130 -2.5843 -2.6207
  178MOL0     H24007   4.015  -0.297   8.181  2.5021 -1.1265  0.6315
  178MOL0     H24008   4.243  -0.097   8.248  1.9602 -1.2155  1.5923
  178MOL0     H24009   4.211  -0.247   8.335  1.2586 -0.2672  0.9610
  178MOL0     H24010   3.246  -0.097   8.524  0.9691 -0.3763  1.5730
  178MOL0     H24011   2.999  -0.122   8.530  1.9283  0.5067 -1.2625
  178MOL0     H24012   2.570   0.167   8.801  1.5483 -1.3569 -0.8108
  178MOL0     H24013   2.330   0.111   8.789 -0.5456  0.3788  2.8568
  178MOL0     H24014   0.518   0.096   8.961  1.9046 -1.2893  0.5131
  178MOL0     H24015   0.343   0.262   9.020  0.7917 -1.9587 -2.3674
  178MOL0     H24016   0.337   0.732   9.044  0.4123  0.3440  1.6031
  178MOL0     H24017   0.199   0.947   9.008 -2.0270  1.2707  0.4239
  178MOL0     H24018  -0.053   0.890   8.844 -1.7640 -1.2193 -1.3575
  178MOL0     H24019  -0.096   1.054   8.861 -0.6231  0.2137  1.4532
  178MOL0     H24020  -0.261   0.817   8.971  1.5103  0.4056  0.8805
  178MOL0     H24021  -0.294   0.890   8.818  1.6036  0.2881 -0.8933
  178MOL0     H24022  -0.321   1.110   8.923 -0.3802 -1.2958 -0.7845
  178MOL0     H24023  -0.316   1.034   9.089  0.5392  2.2820 -0.6501
  178MOL0     H24024  -0.516   0.977   8.853 -2.4594  1.2633  0.7666
  178MOL0     H24025  -0.506   0.887   9.007 -0.3056 -0.7293  0.6155
  178MOL0     H24026  -0.724   1.211   9.130 -0.7762  1.2697 -2.5672
  178MOL0     H24027  -0.146   0.734   9.138 -0.9368 -1.3103 -2.3978
  178MOL0     H24028  -0.153   0.554   9.248 -1.0929 -0.3148  0.8347
  178MOL0     H24029  -0.044   0.418   9.224  0.6250 -0.0824  2.9803
  178MOL0     H24030  -0.007   0.534   9.346  2.7523  2.1859 -1.2464
  179MOL0     O24031  11.041   8.537   1.770 -0.1368 -0.8802  0.1766
  179MOL0     C24032  11.003   8.430   1.820 -0.0605  0.3451 -1.2045
  179MOL0     O24033  10.998   8.398   1.954 -0.3116 -0.0162  0.2341
  179MOL0     C24034  11.043   8.494   2.044 -0.1790 -0.2673 -0.1575
  179MOL0     C24035  10.945   8.555   2.120  0.0655  0.0669 -0.5184
  179MOL0     C24036  10.983   8.657   2.205  0.1266 -0.2704  0.0074
  179MOL0     C24037  11.118   8.700   2.223 -0.4712  1.1599  0.3039
  179MOL0     O24038  11.157   8.792   2.307 -0.6998 -0.1995 -1.1377
  179MOL0     C24039  11.166   8.929   2.263 -0.3550  0.0566  0.0850
  179MOL0     C24040  11.284   8.955   2.157 -0.1949  0.4527  1.0033
  179MOL0     C24041  11.417   8.939   2.218 -0.3169  0.1116 -0.5275
  179MOL0     C24042  11.518   8.906   2.110  0.2356  0.2416  0.0947
  179MOL0     C24043  11.659   8.923   2.153 -0.6740 -0.4105 -0.4170
  179MOL0     C24044  11.755   8.864   2.049  0.5222 -0.2886 -0.7545
  179MOL0     C24045  11.890   8.873   2.131  0.3472  0.3449 -0.1048
  179MOL0     C24046  12.014   8.817   2.056  0.0272  0.9924  0.8171
  179MOL0     N24047  12.072   8.913   1.965 -1.1783  0.2190 -0.7410
  179MOL0     C24048  12.187   8.891   1.900 -0.0223  0.0734  0.1951
  179MOL0     C24049  12.187   8.989   1.803 -0.1917  0.3472  0.3112
  179MOL0     C24050  12.291   9.006   1.701  0.0614 -0.3499 -0.0354
  179MOL0     C24051  12.254   8.908   1.597 -0.3351  0.4667 -0.1302
  179MOL0     C24052  12.312   8.954   1.457 -0.8910  0.4186  0.1427
  179MOL0     C24053  12.461   8.927   1.460 -0.1137 -0.3417  0.6036
  179MOL0     O24054  12.503   8.927   1.319 -0.4260 -0.1312 -0.6803
  179MOL0     C24055  12.635   8.914   1.309 -0.6406  0.0231 -0.1859
  179MOL0     C24056  12.710   9.026   1.342 -1.4750 -0.1448  0.7011
  179MOL0     C24057  12.855   9.008   1.344 -1.1248 -0.3794  0.3917
  179MOL0     C24058  12.919   8.892   1.308 -0.3300  0.2965  0.5600
  179MOL0     C24059  13.061   8.883   1.301 -0.0454 -0.1346  0.1658
  179MOL0     O24060  13.134   8.995   1.315  0.5158 -0.3857 -0.7079
  179MOL0     C24061  13.268   8.974   1.339  0.0249 -0.9806  0.3745
  179MOL0     C24062  13.334   8.918   1.444 -0.9533  0.5548 -0.7792
  179MOL0     C24063  13.474   8.919   1.461 -0.0997  0.2590  0.2274
  179MOL0     C24064  13.554   8.961   1.354  0.6883 -0.7064 -0.5926
  179MOL0     O24065  13.685   8.948   1.375  0.6088 -0.7695  0.0536
  179MOL0     C24066  13.760   9.068   1.347 -0.1974  0.8855  1.2034
  179MOL0     C24067  13.895   9.062   1.414 -0.2513 -0.4288 -0.1776
  179MOL0     C24068  13.974   9.183   1.363 -1.1984 -0.5103 -0.1575
  179MOL0     C24069  14.097   9.216   1.459  0.3660  0.2668 -1.0977
  179MOL0     C24070  14.061   9.302   1.587  0.5125  0.2961  0.2721
  179MOL0     C24071  14.057   9.449   1.570  0.0119  0.0492  0.0142
  179MOL0     C24072  14.189   9.514   1.543  0.2799  1.1197  0.3938
  179MOL0     C24073  14.181   9.666   1.557 -0.5767  0.4198 -0.5962
  179MOL0    Cl24074  14.052   9.740   1.449 -0.0426  0.2956 -0.4112
  179MOL0     C24075  13.488   9.020   1.243 -1.1126 -0.6361  0.7192
  179MOL0     C24076  13.355   9.038   1.242  0.6523  0.6780  0.1298
  179MOL0     O24077  13.107   8.773   1.305  0.1506  0.1223  0.1738
  179MOL0     C24078  12.840   8.782   1.270 -0.4410  0.1225  0.4737
  179MOL0     C24079  12.701   8.794   1.272 -0.2197 -1.3051  0.0318
  179MOL0     N24080  12.081   9.075   1.831  0.5950  0.3864  0.1684
  179MOL0     N24081  12.013   9.028   1.930  0.2361 -0.2000  0.1693
  179MOL0     C24082  11.214   8.640   2.142  1.0370 -0.1755  1.1933
  179MOL0     C24083  11.182   8.533   2.056  0.9336 -0.3460  0.5309
  179MOL0     C24084  10.978   8.329   1.719 -0.2886  0.7327 -0.0938
  179MOL0     C24085  10.860   8.252   1.730 -0.5146  1.2191  0.0301
  179MOL0     C24086  10.827   8.147   1.646 -0.1309 -0.0795 -0.2370
  179MOL0     C24087  10.910   8.116   1.539  0.6532  0.9001  0.5331
  179MOL0     O24088  10.886   8.020   1.443 -0.5585 -0.1714  0.4373
  179MOL0     C24089  10.780   7.932   1.445 -0.1570  0.4107  0.3977
  179MOL0     C24090  10.791   7.828   1.554  0.1812 -0.3242  0.5667
  179MOL0     C24091  10.661   7.769   1.605 -0.1490  0.7127  0.4591
  179MOL0     C24092  10.551   7.747   1.498  0.0587 -0.1596 -0.8492
  179MOL0     C24093  10.462   7.636   1.531  0.7627 -0.2363 -0.5175
  179MOL0     C24094  10.385   7.542   1.561  0.1026  0.0083  0.8482
  179MOL0     C24095  11.024   8.190   1.520  0.4292  0.1253 -0.0100
  179MOL0     C24096  11.056   8.296   1.607  0.4370  0.3494  0.3478
  179MOL0     C24097  11.178   8.366   1.566  0.7139  0.2044  0.2412
  179MOL0     H24098  10.839   8.532   2.113 -0.8186  2.6387  2.4738
  179MOL0     H24099  10.892   8.701   2.243 -1.8997 -2.6651 -1.6787
  179MOL0     H24100  11.068   8.967   2.231 -0.8241  0.3255  1.7236
  179MOL0     H24101  11.181   8.989   2.354 -2.2633  0.5164  0.1445
  179MOL0     H24102  11.275   9.045   2.096  1.8657 -0.3973 -0.6767
  179MOL0     H24103  11.282   8.882   2.075  0.6376  0.5188  0.9195
  179MOL0     H24104  11.422   8.862   2.295  2.1400  2.7279  2.2311
  179MOL0     H24105  11.445   9.027   2.277  0.9626 -0.2217 -0.5958
  179MOL0     H24106  11.499   8.805   2.073 -1.0778  0.7076 -0.5573
  179MOL0     H24107  11.496   8.965   2.020  1.9072 -4.1190 -3.5409
  179MOL0     H24108  11.678   9.027   2.177  2.0321 -1.0050  0.3335
  179MOL0     H24109  11.669   8.879   2.252 -0.7175  1.4952  0.4686
  179MOL0     H24110  11.737   8.759   2.025  0.2307 -0.9834  2.1175
  179MOL0     H24111  11.748   8.914   1.952  1.5895  0.6118 -0.3905
  179MOL0     H24112  11.874   8.803   2.213 -2.3672 -1.4405 -1.9879
  179MOL0     H24113  11.919   8.971   2.172 -2.6825  1.4048 -0.2370
  179MOL0     H24114  12.094   8.785   2.124  1.2894  2.2691  0.0051
  179MOL0     H24115  11.984   8.725   2.005  1.9563  0.8216 -0.1067
  179MOL0     H24116  12.262   8.813   1.914 -1.5177 -0.9132  3.6686
  179MOL0     H24117  12.301   9.102   1.649  0.6098 -0.8561 -0.8901
  179MOL0     H24118  12.388   8.997   1.752  1.6182  3.3528 -1.9558
  179MOL0     H24119  12.285   8.808   1.627  1.9058  0.1815 -2.9126
  179MOL0     H24120  12.145   8.903   1.592 -0.3404 -2.5916  1.2215
  179MOL0     H24121  12.295   9.061   1.442  1.3638  0.7136 -0.5327
  179MOL0     H24122  12.264   8.890   1.382  2.6674 -2.3141 -0.0322
  179MOL0     H24123  12.479   8.830   1.507 -0.2435  0.1046  1.5872
  179MOL0     H24124  12.511   9.000   1.523  0.6549 -2.4176  2.5274
  179MOL0     H24125  12.666   9.120   1.375 -0.8729  0.6547 -0.6841
  179MOL0     H24126  12.907   9.098   1.376 -0.3784 -1.2434  1.6780
  179MOL0     H24127  13.278   8.878   1.528 -0.5287  0.6605 -0.4466
  179MOL0     H24128  13.523   8.879   1.549 -2.3549  1.2500  2.0395
  179MOL0     H24129  13.766   9.085   1.239 -1.3741  1.1770  1.1739
  179MOL0     H24130  13.707   9.158   1.378  0.4303  1.9028 -0.5189
  179MOL0     H24131  13.876   9.058   1.522  3.0813 -0.3353  0.5069
  179MOL0     H24132  13.948   8.970   1.387 -0.0346 -1.3495  2.9749
  179MOL0     H24133  14.021   9.155   1.269  0.2686  0.7397  0.1613
  179MOL0     H24134  13.920   9.278   1.350  0.8663  0.7423 -0.0454
  179MOL0     H24135  14.176   9.268   1.404 -1.7597  3.1374 -1.7361
  179MOL0     H24136  14.135   9.119   1.491  2.0490  1.5230  1.0102
  179MOL0     H24137  14.135   9.276   1.664  1.8337  0.6821 -0.8348
  179MOL0     H24138  13.957   9.278   1.614  0.0775  1.9621  0.1918
  179MOL0     H24139  13.991   9.467   1.485 -1.3250  0.4680  1.1191
  179MOL0     H24140  14.000   9.496   1.650  0.9810  0.0762  0.7109
  179MOL0     H24141  14.214   9.487   1.440 -3.3637 -2.2039  0.1634
  179MOL0     H24142  14.259   9.465   1.611 -1.2797  0.8792  1.9089
  179MOL0     H24143  14.143   9.664   1.659 -0.3000 -0.2494 -0.4971
  179MOL0     H24144  14.280   9.713   1.553  0.1846 -1.0754 -0.2961
  179MOL0     H24145  13.545   9.046   1.155 -2.5967  1.0499  0.1855
  179MOL0     H24146  13.302   9.088   1.161 -1.7448 -0.7751  0.7025
  179MOL0     H24147  12.877   8.685   1.238  1.8538  0.5264  1.7076
  179MOL0     H24148  12.636   8.716   1.233  0.2777 -1.5932 -0.2371
  179MOL0     H24149  11.320   8.663   2.148  1.5687 -0.8791 -2.6330
  179MOL0     H24150  11.258   8.471   2.011  0.6506 -1.5471  1.6549
  179MOL0     H24151  10.784   8.267   1.807 -1.4403 -1.5950 -0.2289
  179MOL0     H24152  10.741   8.082   1.648  1.9276 -3.3462 -3.6848
  179MOL0     H24153  10.777   7.881   1.348  0.1511  0.0904  0.5553
  179MOL0     H24154  10.689   7.991   1.455 -0.6595 -0.0051 -1.3698
  179MOL0     H24155  10.846   7.866   1.640  0.6564 -0.0118  0.1321
  179MOL0     H24156  10.860   7.753   1.514 -0.1831 -1.4033  1.9100
  179MOL0     H24157  10.624   7.827   1.691 -1.0929  1.8671 -0.6808
  179MOL0     H24158  10.690   7.673   1.649  0.6617  0.5866 -0.3275
  179MOL0     H24159  10.486   7.835   1.500 -1.0557 -0.9740  1.6846
  179MOL0     H24160  10.598   7.732   1.400  0.6308 -0.8317 -0.4770
  179MOL0     H24161  10.313   7.465   1.582 -0.2751  0.7233  2.2971
  179MOL0     H24162  11.081   8.166   1.431  0.6057  0.2177  0.0781
  179MOL0     H24163  11.246   8.393   1.647 -0.8202  0.6972  1.4216
  179MOL0     H24164  11.236   8.318   1.487  0.4789 -0.5336  0.5136
  179MOL0     H24165  11.146   8.457   1.514 -1.5464 -0.3624  0.5233
  180MOL0     O24166   2.227  10.809   7.313 -0.6810  0.1908  0.2357
  180MOL0     C24167   2.192  10.909   7.364  0.8712 -0.1051 -0.0174
  180MOL0     O24168   2.276  11.007   7.405  0.5044  0.3390 -0.1968
  180MOL0     C24169   2.410  11.021   7.383 -0.7124 -0.5630  0.5985
  180MOL0     C24170   2.484  10.951   7.274  0.6156  0.4722 -0.8273
  180MOL0     C24171   2.624  10.976   7.257  0.3351 -0.3947  0.5057
  180MOL0     C24172   2.694  11.053   7.349  1.3450 -0.1476  0.4723
  180MOL0     O24173   2.831  11.067   7.349  0.2826  0.0279  0.1988
  180MOL0     C24174   2.905  10.973   7.271 -0.9207 -0.0249 -0.1396
  180MOL0     C24175   3.050  10.949   7.327 -0.7883  0.0241  0.8084
  180MOL0     C24176   3.158  11.028   7.255 -0.7715  0.1288 -0.2604
  180MOL0     C24177   3.296  11.009   7.319 -0.1166  0.0818  0.1029
  180MOL0     C24178   3.410  11.049   7.231 -0.8293  0.1438 -0.0530
  180MOL0     C24179   3.551  11.044   7.304 -0.7962  1.2101  0.0464
  180MOL0     C24180   3.672  11.080   7.209  0.0658 -0.8897  0.1726
  180MOL0     C24181   3.798  11.078   7.283  0.0746 -0.6312 -0.0305
  180MOL0     N24182   3.915  11.091   7.189  0.2173 -0.1105 -0.6528
  180MOL0     C24183   4.026  11.173   7.204 -0.1256  0.0462  0.1760
  180MOL0     C24184   4.103  11.140   7.096 -0.6592  0.3049 -0.1822
  180MOL0     C24185   4.240  11.202   7.064 -0.4552  0.0220  1.3885
  180MOL0     C24186   4.351  11.166   7.161 -0.3318  0.0593  0.1553
  180MOL0     C24187   4.479  11.260   7.153  0.2247 -0.2268  0.1488
  180MOL0     C24188   4.560  11.250   7.279  0.1351  0.6958 -0.7376
  180MOL0     O24189   4.611  11.113   7.303  0.1251 -0.6098 -0.3856
  180MOL0     C24190   4.745  11.090   7.266 -0.5397 -0.5220  0.8062
  180MOL0     C24191   4.805  10.981   7.331  0.2662  0.0244 -0.0787
  180MOL0     C24192   4.928  10.933   7.288  0.1605 -0.0132 -0.5264
  180MOL0     C24193   5.003  10.999   7.186  0.5712 -0.3579  0.2765
  180MOL0     C24194   5.140  10.961   7.157 -1.0521 -0.2063  0.2212
  180MOL0     O24195   5.222  11.053   7.094  0.2534 -0.2588 -0.6131
  180MOL0     C24196   5.361  11.053   7.102 -0.5287 -0.2216  0.9379
  180MOL0     C24197   5.436  11.013   7.215  0.6583  0.0872 -0.9698
  180MOL0     C24198   5.574  11.045   7.239  0.8725 -0.0754  0.3511
  180MOL0     C24199   5.648  11.113   7.141 -0.1624  0.5284  0.2228
  180MOL0     O24200   5.782  11.143   7.159  0.3728  0.4881  0.1041
  180MOL0     C24201   5.860  11.064   7.258 -1.1146 -0.3229  0.4943
  180MOL0     C24202   6.004  11.130   7.257 -0.1892  0.4997  0.3328
  180MOL0     C24203   6.002  11.290   7.263 -0.3463  0.7391 -0.4589
  180MOL0     C24204   6.144  11.348   7.249 -0.3918  0.2415 -0.1284
  180MOL0     C24205   6.140  11.499   7.274 -0.6820 -0.6320 -0.3247
  180MOL0     C24206   6.289  11.556   7.256  0.1191  0.2868 -0.2557
  180MOL0     C24207   6.291  11.702   7.298 -0.5676 -0.1091  0.4280
  180MOL0     C24208   6.424  11.771   7.298 -0.1107  0.0882  0.5687
  180MOL0    Cl24209   6.482  11.736   7.463  0.1691 -0.2849 -0.4082
  180MOL0     C24210   5.581  11.154   7.027  0.7513  0.4463 -0.3322
  180MOL0     C24211   5.439  11.134   7.013 -0.3746 -1.1641 -0.5854
  180MOL0     O24212   5.176  10.855   7.208 -1.3537  0.3219 -0.2188
  180MOL0     C24213   4.937  11.105   7.113 -0.4178  0.7589  0.2045
  180MOL0     C24214   4.812  11.151   7.155 -0.2520  0.2452  0.2324
  180MOL0     N24215   4.030  11.054   7.011  0.0214  0.8986 -0.1639
  180MOL0     N24216   3.922  11.018   7.072 -0.8491 -0.6881  0.2384
  180MOL0     C24217   2.619  11.125   7.449 -0.1940  0.0323  0.6873
  180MOL0     C24218   2.481  11.105   7.465 -0.1446 -0.2005 -0.0813
  180MOL0     C24219   2.044  10.929   7.385  0.8273  0.3097  0.1771
  180MOL0     C24220   1.950  10.856   7.302 -0.4582  0.5817 -0.0531
  180MOL0     C24221   1.812  10.859   7.319  0.2472  0.2076  0.0139
  180MOL0     C24222   1.754  10.957   7.395  0.2675 -0.2030  0.2833
  180MOL0     O24223   1.613  10.989   7.410 -0.3731  1.3640 -0.2059
  180MOL0     C24224   1.515  10.904   7.345  0.2553 -0.3277 -0.1889
  180MOL0     C24225   1.378  10.956   7.395  0.8158  0.2029 -0.1917
  180MOL0     C24226   1.348  10.946   7.543  0.5468 -0.2341  0.3294
  180MOL0     C24227   1.239  11.039   7.593  1.0718 -0.9078  0.5388
  180MOL0     C24228   1.104  11.006   7.537  0.1548 -0.6292 -0.6623
  180MOL0     C24229   1.011  10.980   7.473 -0.3001  0.5037 -0.2013
  180MOL0     C24230   1.839  11.031   7.476 -0.8695 -0.5001 -0.0115
  180MOL0     C24231   1.980  11.020   7.475 -0.4949  0.0724 -0.5099
  180MOL0     C24232   2.055  11.103   7.577 -0.5577  0.1846 -0.6997
  180MOL0     H24233   2.430  10.893   7.200  1.5991 -1.0497 -0.4081
  180MOL0     H24234   2.677  10.926   7.177  0.3058  0.6726 -0.1976
  180MOL0     H24235   2.867  10.874   7.297  0.1462 -0.4062  0.0181
  180MOL0     H24236   2.906  10.981   7.162  0.0668  3.0590  0.0112
  180MOL0     H24237   3.066  10.844   7.300  0.7795  1.0928 -3.1359
  180MOL0     H24238   3.057  10.970   7.433 -2.3040 -1.8604  1.3586
  180MOL0     H24239   3.142  11.135   7.274  1.8925  0.3049  1.4458
  180MOL0     H24240   3.158  11.011   7.147 -0.9158 -1.1798 -0.0728
  180MOL0     H24241   3.302  11.062   7.415  3.3955 -1.3098  0.7838
  180MOL0     H24242   3.300  10.902   7.343 -1.4264 -0.0235 -0.0604
  180MOL0     H24243   3.416  10.986   7.142  0.6469  1.6400 -1.0806
  180MOL0     H24244   3.394  11.149   7.191  0.9668 -0.0019 -1.2434
  180MOL0     H24245   3.542  11.112   7.389  0.4037  1.1812  0.2160
  180MOL0     H24246   3.557  10.941   7.340 -1.8494  1.9362  2.4788
  180MOL0     H24247   3.670  11.179   7.163  0.1346 -1.6142 -1.4483
  180MOL0     H24248   3.676  11.010   7.124 -1.2451 -1.6117  0.6761
  180MOL0     H24249   3.809  11.141   7.371 -0.5457 -2.8933  1.7547
  180MOL0     H24250   3.804  10.976   7.323  2.6707 -0.6487 -0.2687
  180MOL0     H24251   4.041  11.245   7.284 -0.0121 -1.0720  1.1925
  180MOL0     H24252   4.272  11.179   6.962 -0.1384  2.8687  0.7853
  180MOL0     H24253   4.237  11.311   7.060  1.2906  0.2369  3.7706
  180MOL0     H24254   4.301  11.188   7.256 -1.7214  1.8399 -0.9218
  180MOL0     H24255   4.369  11.059   7.152 -2.2270 -0.1882 -1.1264
  180MOL0     H24256   4.466  11.368   7.139  1.0135 -0.0105  1.0044
  180MOL0     H24257   4.547  11.233   7.071  0.7163 -1.1476  0.8451
  180MOL0     H24258   4.488  11.270   7.359 -0.5503  0.7308 -1.3497
  180MOL0     H24259   4.641  11.323   7.282  1.7303 -0.9889 -1.4420
  180MOL0     H24260   4.743  10.930   7.403  0.9999 -1.0339 -0.1775
  180MOL0     H24261   4.972  10.852   7.344 -1.8740 -0.8569 -0.0319
  180MOL0     H24262   5.369  10.981   7.295 -0.5276 -1.0398 -2.3615
  180MOL0     H24263   5.617  11.009   7.332  1.0712  3.8519  1.9530
  180MOL0     H24264   5.809  11.076   7.355  0.9670  1.4138  1.4462
  180MOL0     H24265   5.853  10.958   7.230  2.5169 -0.6375  0.4051
  180MOL0     H24266   6.057  11.081   7.339 -0.6786 -0.1114  0.2901
  180MOL0     H24267   6.046  11.092   7.164  0.2173  0.9526  0.3270
  180MOL0     H24268   5.933  11.326   7.187 -1.8960 -0.4025  0.3429
  180MOL0     H24269   5.961  11.314   7.362  1.2153  2.6723 -0.2268
  180MOL0     H24270   6.196  11.331   7.154  0.7262  1.4056  0.2459
  180MOL0     H24271   6.201  11.304   7.331  3.7268 -0.6733 -3.1438
  180MOL0     H24272   6.118  11.526   7.378  1.8341  2.1236 -0.3813
  180MOL0     H24273   6.082  11.556   7.200  0.6799  1.2272 -0.0397
  180MOL0     H24274   6.351  11.485   7.311 -2.8613 -1.1245  1.5620
  180MOL0     H24275   6.316  11.545   7.151 -3.2388 -1.0503 -1.1007
  180MOL0     H24276   6.248  11.719   7.398 -1.7043  1.6035 -0.2857
  180MOL0     H24277   6.235  11.756   7.221  1.8059  3.6625  1.0545
  180MOL0     H24278   6.490  11.733   7.220  1.1024  2.3535  0.4216
  180MOL0     H24279   6.421  11.873   7.260  0.0470 -1.2106 -3.3726
  180MOL0     H24280   5.637  11.211   6.953 -0.0575  2.8569  0.8007
  180MOL0     H24281   5.407  11.190   6.926  0.8991 -0.1214 -0.3947
  180MOL0     H24282   4.992  11.145   7.028  0.0872 -1.9880 -0.8756
  180MOL0     H24283   4.754  11.222   7.098 -0.1865 -0.1602 -0.3459
  180MOL0     H24284   2.669  11.189   7.522 -5.2825  0.7158  4.0526
  180MOL0     H24285   2.426  11.145   7.549 -1.6105  0.2982 -1.2331
  180MOL0     H24286   1.995  10.792   7.226  0.5098  1.4902 -0.2665
  180MOL0     H24287   1.761  10.782   7.263  0.2051  0.7319 -0.6870
  180MOL0     H24288   1.527  10.800   7.373  0.4406 -1.0278 -2.6470
  180MOL0     H24289   1.528  10.915   7.237  1.6347 -0.2941 -0.0284
  180MOL0     H24290   1.294  10.907   7.347 -2.7735  2.9296  2.7349
  180MOL0     H24291   1.372  11.059   7.358  1.9783  0.8433  1.2720
  180MOL0     H24292   1.433  10.985   7.601  0.5857  0.8229 -0.4141
  180MOL0     H24293   1.326  10.844   7.577  0.4424 -0.7061 -1.0660
  180MOL0     H24294   1.241  11.029   7.702 -1.7423 -0.0358  0.7395
  180MOL0     H24295   1.266  11.141   7.566 -0.3168 -1.1522 -2.2109
  180MOL0     H24296   0.936  10.962   7.399  0.4932 -1.6606 -0.5317
  180MOL0     H24297   1.800  11.094   7.556  0.6364 -0.0513  0.3908
  180MOL0     H24298   1.995  11.120   7.666 -1.9286 -3.2453 -0.8082
  180MOL0     H24299   2.141  11.046   7.611 -0.0570  1.5994  0.5155
  180MOL0     H24300   2.095  11.195   7.532 -1.7031  0.4974 -1.1221
  181MOL0     O24301  10.051   3.062   5.887 -0.6013 -0.2318  0.4628
  181MOL0     C24302  10.040   2.936   5.898  0.3433  0.7048 -0.3438
  181MOL0     O24303  10.131   2.850   5.854  0.2223 -0.6275 -0.5740
  181MOL0     C24304  10.240   2.890   5.781  0.0894  1.4457 -0.5053
  181MOL0     C24305  10.353   2.922   5.841  0.7878 -0.5896 -0.0638
  181MOL0     C24306  10.467   2.957   5.774 -0.6177 -0.2496 -0.4998
  181MOL0     C24307  10.472   2.954   5.636 -1.2846  0.0243 -1.7118
  181MOL0     O24308  10.593   2.995   5.573  0.7438  0.4185 -1.0364
  181MOL0     C24309  10.561   3.086   5.461  0.0168 -0.7295 -0.6242
  181MOL0     C24310  10.697   3.139   5.436  0.2884  0.5062 -0.1427
  181MOL0     C24311  10.802   3.029   5.419  0.0017 -0.1717  0.4844
  181MOL0     C24312  10.923   3.081   5.343  0.0252  0.1982 -0.4444
  181MOL0     C24313  11.043   2.991   5.356  0.2516 -0.1353 -0.2186
  181MOL0     C24314  11.147   3.029   5.250 -0.1333  0.8855 -0.3112
  181MOL0     C24315  11.252   2.924   5.257  0.2197  0.2081 -0.2270
  181MOL0     C24316  11.357   2.972   5.154 -0.0350 -0.0396 -0.4084
  181MOL0     N24317  11.493   2.931   5.183  0.3339  0.1890 -0.4643
  181MOL0     C24318  11.555   2.821   5.132 -0.7022  0.5454  0.2382
  181MOL0     C24319  11.671   2.812   5.208 -0.5860  0.0081  0.3002
  181MOL0     C24320  11.769   2.703   5.185  0.0992  0.4704  0.2859
  181MOL0     C24321  11.907   2.732   5.243  0.4489 -1.3233  0.5149
  181MOL0     C24322  11.995   2.611   5.212  0.3925 -0.6555 -0.5689
  181MOL0     C24323  12.123   2.642   5.298  0.1659 -0.6548  0.4150
  181MOL0     O24324  12.225   2.537   5.270 -0.3885 -0.2969 -0.2622
  181MOL0     C24325  12.356   2.580   5.282 -0.5524 -0.2414  0.2985
  181MOL0     C24326  12.447   2.527   5.183 -0.4065 -0.4443 -0.1382
  181MOL0     C24327  12.577   2.583   5.193  0.4438  0.6620 -0.7779
  181MOL0     C24328  12.619   2.670   5.295 -0.5468 -0.4456  0.1968
  181MOL0     C24329  12.753   2.722   5.313  0.7553  0.3507  0.4074
  181MOL0     O24330  12.776   2.786   5.431  0.3157  1.0640 -0.3809
  181MOL0     C24331  12.908   2.783   5.465  0.6173 -0.3472  0.2189
  181MOL0     C24332  12.957   2.916   5.491 -0.3757  0.5736  0.2834
  181MOL0     C24333  13.088   2.924   5.533  0.5530 -0.1524  0.8205
  181MOL0     C24334  13.169   2.818   5.552 -0.0001 -0.1567  0.2256
  181MOL0     O24335  13.304   2.825   5.579  0.5309 -0.3165  1.3191
  181MOL0     C24336  13.371   2.945   5.578 -0.1958  0.2179  0.2479
  181MOL0     C24337  13.516   2.927   5.612  0.3267  0.4331 -0.2812
  181MOL0     C24338  13.587   3.070   5.622  0.0301  2.0191  0.9035
  181MOL0     C24339  13.707   3.065   5.717 -0.2870  0.3774 -0.1806
  181MOL0     C24340  13.783   3.203   5.708 -0.6240  0.0376  0.5460
  181MOL0     C24341  13.925   3.181   5.775 -0.7569  0.1613  0.0053
  181MOL0     C24342  13.913   3.189   5.926 -0.1668 -0.7159 -0.4379
  181MOL0     C24343  14.042   3.127   5.988  0.1587  0.2573 -0.6208
  181MOL0    Cl24344  14.043   3.141   6.164 -0.2044 -0.3731  0.3055
  181MOL0     C24345  13.124   2.695   5.518  0.2300 -0.3817 -0.5778
  181MOL0     C24346  12.994   2.673   5.470  0.1368  0.5412 -0.1875
  181MOL0     O24347  12.842   2.699   5.229  0.1975 -0.1639  0.2537
  181MOL0     C24348  12.523   2.711   5.386 -0.1583  0.4707  0.5291
  181MOL0     C24349  12.392   2.665   5.387 -0.3387 -0.4421 -0.3693
  181MOL0     N24350  11.675   2.915   5.301  0.9994 -0.0210  0.3851
  181MOL0     N24351  11.575   2.991   5.279  0.4061 -0.4209 -1.0617
  181MOL0     C24352  10.354   2.911   5.570  0.1508 -0.7049 -0.1108
  181MOL0     C24353  10.238   2.880   5.640  0.3832  0.1337  0.5902
  181MOL0     C24354   9.908   2.880   5.941  0.5904 -0.9262 -0.2901
  181MOL0     C24355   9.791   2.955   5.903  0.5822 -0.7595 -0.6264
  181MOL0     C24356   9.664   2.906   5.930 -0.4571  0.2372  0.4530
  181MOL0     C24357   9.651   2.784   5.996 -0.0655 -0.7096 -1.0676
  181MOL0     O24358   9.528   2.725   6.009 -0.3647  0.2006 -0.0979
  181MOL0     C24359   9.401   2.798   6.006  0.1903 -0.2347 -0.2768
  181MOL0     C24360   9.372   2.857   6.146 -0.0242 -0.1564  0.0713
  181MOL0     C24361   9.347   2.743   6.246  0.0487 -0.1425  0.4542
  181MOL0     C24362   9.336   2.789   6.390 -0.7781 -0.7679  0.4826
  181MOL0     C24363   9.462   2.776   6.471 -0.9384  1.7189  0.2131
  181MOL0     C24364   9.564   2.736   6.529  0.3929 -0.8927  1.3750
  181MOL0     C24365   9.763   2.706   6.030 -0.3314  0.2467 -0.0979
  181MOL0     C24366   9.893   2.748   6.002 -1.0675  0.3653 -0.5461
  181MOL0     C24367  10.015   2.667   6.051  0.0073  0.6560  0.2640
  181MOL0     H24368  10.363   2.919   5.949  3.3857 -1.3029 -0.2453
  181MOL0     H24369  10.558   2.973   5.830 -2.4801 -0.6780  2.8934
  181MOL0     H24370  10.528   3.034   5.371  2.7684 -0.7253 -1.7137
  181MOL0     H24371  10.491   3.163   5.498 -0.2214 -1.0918 -0.3106
  181MOL0     H24372  10.722   3.197   5.526  1.7018 -1.2965  0.6695
  181MOL0     H24373  10.696   3.195   5.342  2.7199 -1.2614 -1.3289
  181MOL0     H24374  10.757   2.949   5.360 -1.4852 -0.1577  1.5510
  181MOL0     H24375  10.823   2.984   5.517 -2.1718 -2.1901  0.1065
  181MOL0     H24376  10.877   3.077   5.244 -2.0771  0.3487  0.4622
  181MOL0     H24377  10.931   3.186   5.373 -0.5389  0.0713  0.1953
  181MOL0     H24378  11.081   2.994   5.458 -0.6968  0.4551  0.1339
  181MOL0     H24379  11.015   2.889   5.327 -1.1553  0.0655  0.3682
  181MOL0     H24380  11.110   3.030   5.147  0.6731 -2.4952 -0.7535
  181MOL0     H24381  11.189   3.127   5.276 -3.8109  2.6506 -0.4421
  181MOL0     H24382  11.212   2.823   5.242 -0.2121  0.1819  0.9972
  181MOL0     H24383  11.310   2.920   5.350  2.0562 -0.5642 -1.3317
  181MOL0     H24384  11.331   2.939   5.053 -0.0063 -0.5752 -0.2460
  181MOL0     H24385  11.371   3.080   5.147  3.5492 -0.3228  0.1195
  181MOL0     H24386  11.513   2.745   5.066 -1.9863  0.3240  1.2777
  181MOL0     H24387  11.731   2.607   5.222  1.7205  0.1313  1.1596
  181MOL0     H24388  11.793   2.699   5.078 -0.5681  2.2711  0.0319
  181MOL0     H24389  11.949   2.824   5.201  2.3284 -1.8474  1.1254
  181MOL0     H24390  11.898   2.749   5.351 -1.3938 -0.1364  0.2154
  181MOL0     H24391  12.026   2.605   5.108  1.2430  0.7402 -0.4283
  181MOL0     H24392  11.936   2.524   5.242 -1.1454 -0.1245 -1.9259
  181MOL0     H24393  12.107   2.639   5.407  3.7456  0.4096  1.0809
  181MOL0     H24394  12.152   2.744   5.274  1.9276 -0.5285  2.6978
  181MOL0     H24395  12.413   2.457   5.107 -2.5494 -1.0132  1.2470
  181MOL0     H24396  12.647   2.540   5.123 -0.1445 -2.9135  0.5943
  181MOL0     H24397  12.900   3.005   5.467 -0.1790  0.6484  0.0846
  181MOL0     H24398  13.136   3.021   5.544  0.8427 -0.0444 -1.0613
  181MOL0     H24399  13.368   2.989   5.478  1.1100 -0.2497 -0.0123
  181MOL0     H24400  13.329   3.022   5.643 -0.3326  0.5804 -0.2608
  181MOL0     H24401  13.533   2.879   5.709  2.0399  3.1096  0.8786
  181MOL0     H24402  13.554   2.864   5.532  1.7181  2.0022 -0.9169
  181MOL0     H24403  13.613   3.092   5.518  1.1678 -0.6955  0.5464
  181MOL0     H24404  13.516   3.144   5.662 -2.1171 -0.3794  1.8401
  181MOL0     H24405  13.774   2.986   5.682  0.2564  1.4610 -1.6956
  181MOL0     H24406  13.674   3.057   5.821  4.6036 -1.7260  1.5279
  181MOL0     H24407  13.721   3.270   5.766 -0.8189  0.6589 -0.3587
  181MOL0     H24408  13.784   3.239   5.604 -1.6343  2.1487  1.2233
  181MOL0     H24409  13.966   3.087   5.737 -2.7002 -0.8761  0.3094
  181MOL0     H24410  13.992   3.261   5.745  0.0462 -0.7616 -0.7140
  181MOL0     H24411  13.821   3.138   5.958 -1.1039  1.8846  1.3189
  181MOL0     H24412  13.888   3.293   5.948  0.5094 -0.4386 -0.9327
  181MOL0     H24413  14.045   3.023   5.956 -1.7200 -0.3735  1.0022
  181MOL0     H24414  14.136   3.171   5.955  1.1245 -2.1250 -1.1959
  181MOL0     H24415  13.196   2.615   5.531  0.7993  0.5695  3.7664
  181MOL0     H24416  12.965   2.578   5.428  2.5762 -0.6665  0.6318
  181MOL0     H24417  12.549   2.768   5.474 -3.0198  3.7624 -0.5287
  181MOL0     H24418  12.331   2.692   5.473  3.0402 -0.2566  2.1945
  181MOL0     H24419  10.350   2.887   5.465  2.1015 -1.4501 -0.0525
  181MOL0     H24420  10.145   2.835   5.607 -0.6156  3.0762 -1.0431
  181MOL0     H24421   9.809   3.041   5.839  0.3263 -1.7598 -2.0872
  181MOL0     H24422   9.578   2.964   5.899  0.4523  1.6095  0.4023
  181MOL0     H24423   9.318   2.734   5.976 -0.6991  0.3215  0.9165
  181MOL0     H24424   9.386   2.877   5.933  0.2145 -0.2140 -0.2594
  181MOL0     H24425   9.284   2.921   6.155  1.0800  1.9246 -2.5580
  181MOL0     H24426   9.451   2.924   6.182 -1.9378  0.6364  3.1521
  181MOL0     H24427   9.421   2.664   6.232 -1.0893 -1.6216  2.2253
  181MOL0     H24428   9.250   2.706   6.210  0.5321 -0.1452 -0.8837
  181MOL0     H24429   9.302   2.893   6.395  0.0861 -0.3893 -1.0291
  181MOL0     H24430   9.254   2.740   6.443 -1.1789 -2.9191 -1.9217
  181MOL0     H24431   9.654   2.700   6.576  1.4786 -0.2431 -0.1391
  181MOL0     H24432   9.739   2.610   6.074  1.0250 -0.4891 -0.8895
  181MOL0     H24433  10.075   2.646   5.961 -2.6011  1.5855 -1.8380
  181MOL0     H24434  10.072   2.727   6.122 -1.4842  0.9648  1.2461
  181MOL0     H24435   9.986   2.575   6.103  1.5577 -1.3289 -2.1301
  182MOL0     O24436   2.334   0.096   5.616  0.0043  0.0610  0.2888
  182MOL0     C24437   2.375   0.025   5.708 -0.5681  1.0535 -0.5914
  182MOL0     O24438   2.492  -0.041   5.710 -0.6987  0.4272 -0.5148
  182MOL0     C24439   2.604  -0.022   5.638 -0.2395 -0.2567 -0.4147
  182MOL0     C24440   2.723  -0.066   5.691  0.7530 -0.9772  0.1168
  182MOL0     C24441   2.837  -0.042   5.617 -0.2914  0.7711 -0.0257
  182MOL0     C24442   2.841   0.030   5.498  0.3181  0.4718 -0.0236
  182MOL0     O24443   2.960   0.033   5.439 -0.8520 -0.1277 -0.9816
  182MOL0     C24444   2.983   0.140   5.345  0.3148 -0.3072 -0.5009
  182MOL0     C24445   3.127   0.163   5.306 -0.7721 -0.4198 -0.3346
  182MOL0     C24446   3.180   0.042   5.234  1.1216 -0.2253 -0.6039
  182MOL0     C24447   3.316   0.078   5.156  0.4906 -0.5404  0.2795
  182MOL0     C24448   3.356  -0.013   5.041 -0.3177  0.4457  0.3376
  182MOL0     C24449   3.359  -0.164   5.077 -0.2322  0.0816 -0.0488
  182MOL0     C24450   3.468  -0.245   4.993  0.3170 -0.0645 -0.6663
  182MOL0     C24451   3.448  -0.235   4.842  0.3856  0.1725  0.1231
  182MOL0     N24452   3.566  -0.289   4.777  0.4119 -0.3440 -0.8368
  182MOL0     C24453   3.590  -0.419   4.751  0.3681  0.9566  1.1323
  182MOL0     C24454   3.706  -0.416   4.677 -0.7190  0.7784 -0.7097
  182MOL0     C24455   3.765  -0.534   4.599  0.3475 -0.2334 -0.9160
  182MOL0     C24456   3.916  -0.529   4.618  0.3502 -0.0757 -1.0002
  182MOL0     C24457   3.964  -0.544   4.765  0.4910 -0.2162  0.0093
  182MOL0     C24458   4.106  -0.577   4.781 -0.9116 -0.3075 -0.3632
  182MOL0     O24459   4.167  -0.490   4.686 -0.2725 -0.4099  0.0731
  182MOL0     C24460   4.297  -0.514   4.651 -0.5261 -0.1964  0.9534
  182MOL0     C24461   4.393  -0.565   4.746 -0.0526  0.6142 -0.2629
  182MOL0     C24462   4.523  -0.580   4.708  0.1318  0.3849  0.5502
  182MOL0     C24463   4.558  -0.557   4.571  0.5661  0.6944 -0.1536
  182MOL0     C24464   4.700  -0.581   4.533 -0.3625  0.4776 -0.2583
  182MOL0     O24465   4.732  -0.529   4.415 -0.0523  0.6298 -0.0923
  182MOL0     C24466   4.868  -0.507   4.365 -1.0535 -0.1199  0.0704
  182MOL0     C24467   4.879  -0.449   4.232  0.2868 -1.0289 -0.0439
  182MOL0     C24468   5.003  -0.431   4.172  0.0543 -0.3117 -0.2352
  182MOL0     C24469   5.126  -0.473   4.239 -0.0501 -0.1031  0.5226
  182MOL0     O24470   5.249  -0.471   4.174  0.1501  0.6672 -0.2941
  182MOL0     C24471   5.286  -0.331   4.141  0.7248  0.7520 -0.3014
  182MOL0     C24472   5.389  -0.328   4.024 -0.1495  0.0878 -0.4073
  182MOL0     C24473   5.490  -0.448   4.017  0.4919 -1.6626  0.5748
  182MOL0     C24474   5.590  -0.449   4.141  0.6179  1.3087  0.2595
  182MOL0     C24475   5.679  -0.326   4.157  0.2585 -0.1267  0.0778
  182MOL0     C24476   5.789  -0.294   4.044 -0.3244  0.5124  0.1195
  182MOL0     C24477   5.863  -0.163   4.076 -0.4748  0.4089 -0.3520
  182MOL0     C24478   5.975  -0.139   3.976 -0.2264  0.1990 -0.6362
  182MOL0    Cl24479   6.129  -0.245   4.000 -0.3986 -0.1030 -0.0792
  182MOL0     C24480   5.109  -0.536   4.364 -0.2897 -0.5000 -0.1631
  182MOL0     C24481   4.984  -0.549   4.427 -0.4970 -0.1139 -0.3968
  182MOL0     O24482   4.775  -0.628   4.627  0.9031 -0.5164  0.4257
  182MOL0     C24483   4.465  -0.522   4.475 -0.3011 -0.1632  0.2662
  182MOL0     C24484   4.330  -0.490   4.515 -0.5596  0.2705 -0.6893
  182MOL0     N24485   3.753  -0.284   4.674  0.3260 -0.0409  0.6610
  182MOL0     N24486   3.665  -0.207   4.725 -0.2924 -0.3514 -0.2856
  182MOL0     C24487   2.719   0.069   5.445  0.1836  0.0316 -0.0180
  182MOL0     C24488   2.600   0.043   5.512  0.3802  0.4987 -0.4872
  182MOL0     C24489   2.277   0.012   5.833 -0.3503 -0.9207 -0.6049
  182MOL0     C24490   2.149  -0.036   5.817 -0.1492 -0.2928 -0.1775
  182MOL0     C24491   2.066  -0.065   5.926  0.0068 -0.6567 -0.1446
  182MOL0     C24492   2.119  -0.038   6.053  0.6528 -0.2140  1.1287
  182MOL0     O24493   2.038  -0.068   6.157 -0.2033 -0.0628  0.0686
  182MOL0     C24494   2.053  -0.017   6.287  0.4423  0.1917  0.8417
  182MOL0     C24495   1.943  -0.079   6.376 -0.5443  0.0737  0.5769
  182MOL0     C24496   1.942  -0.227   6.379 -1.2500  0.2775  0.2717
  182MOL0     C24497   1.838  -0.287   6.478 -0.4747  0.0936  0.2634
  182MOL0     C24498   1.701  -0.264   6.434 -0.2368 -0.6301 -0.5433
  182MOL0     C24499   1.588  -0.234   6.427 -0.0867  0.5340 -0.0466
  182MOL0     C24500   2.245   0.012   6.070 -0.6540  0.1993  0.4055
  182MOL0     C24501   2.331   0.025   5.965 -0.5328 -0.2104  0.0022
  182MOL0     C24502   2.468   0.067   5.989 -0.4719 -0.2980 -0.9619
  182MOL0     H24503   2.736  -0.105   5.791  3.6317 -0.9732 -0.1529
  182MOL0     H24504   2.932  -0.083   5.651 -1.5254 -1.8540  0.5403
  182MOL0     H24505   2.918   0.128   5.257 -0.7448  1.2313  0.0377
  182MOL0     H24506   2.961   0.237   5.391  2.4022  0.4755 -1.0530
  182MOL0     H24507   3.191   0.196   5.388  0.6471  0.9734 -1.9329
  182MOL0     H24508   3.135   0.243   5.231 -0.1338  0.6647  0.8509
  182MOL0     H24509   3.108   0.001   5.163  1.4656  0.4114 -1.3411
  182MOL0     H24510   3.190  -0.029   5.316  1.1708  0.5079  0.0369
  182MOL0     H24511   3.314   0.180   5.115  0.6033 -0.5028  0.3687
  182MOL0     H24512   3.391   0.074   5.236 -0.2918  1.8219  1.2347
  182MOL0     H24513   3.287   0.008   4.958 -0.9758  0.5416  0.8994
  182MOL0     H24514   3.449   0.028   5.002 -0.1581 -0.3187 -0.1154
  182MOL0     H24515   3.394  -0.169   5.180 -2.0420 -1.6740  0.5542
  182MOL0     H24516   3.259  -0.209   5.070 -0.3498  0.4843 -1.3875
  182MOL0     H24517   3.467  -0.352   5.015 -0.7269 -0.1938 -1.2482
  182MOL0     H24518   3.565  -0.202   5.019 -0.2215  1.9886 -1.7759
  182MOL0     H24519   3.357  -0.281   4.804  1.4881  0.1131 -2.7447
  182MOL0     H24520   3.437  -0.127   4.827 -1.1566  0.6437  3.6808
  182MOL0     H24521   3.512  -0.492   4.771 -1.9259  2.8546 -0.2323
  182MOL0     H24522   3.713  -0.626   4.625 -1.0451  0.9267  0.6040
  182MOL0     H24523   3.766  -0.524   4.490 -2.3650 -0.0648 -0.9889
  182MOL0     H24524   3.956  -0.608   4.554 -1.2874  0.2593 -2.5031
  182MOL0     H24525   3.949  -0.431   4.581 -2.1166  1.9407  1.6442
  182MOL0     H24526   3.902  -0.611   4.825 -0.2041  0.2755 -0.1410
  182MOL0     H24527   3.944  -0.442   4.800 -2.7862 -0.8704  0.4478
  182MOL0     H24528   4.118  -0.680   4.748 -1.5186  0.2287 -2.4177
  182MOL0     H24529   4.148  -0.558   4.880  2.7842  0.7014 -1.9285
  182MOL0     H24530   4.363  -0.590   4.847  1.2405  0.2256  0.0442
  182MOL0     H24531   4.597  -0.592   4.787  1.2062 -1.4072 -0.6597
  182MOL0     H24532   4.799  -0.397   4.180  0.5830  0.7530  1.1788
  182MOL0     H24533   4.997  -0.382   4.075 -2.1102  0.5166  0.2487
  182MOL0     H24534   5.204  -0.262   4.122  0.5768  1.6033  2.8528
  182MOL0     H24535   5.327  -0.286   4.232 -1.0021  2.2237 -0.1966
  182MOL0     H24536   5.335  -0.330   3.929  0.7491  1.8360 -1.0021
  182MOL0     H24537   5.456  -0.241   4.030 -1.4031  1.0173  0.7974
  182MOL0     H24538   5.446  -0.548   4.010  0.9215 -1.9052  1.2625
  182MOL0     H24539   5.542  -0.429   3.923  0.4669 -0.6939  0.7490
  182MOL0     H24540   5.652  -0.537   4.118 -0.3150  1.1600 -1.9114
  182MOL0     H24541   5.530  -0.461   4.231 -0.0621  0.9324 -0.2373
  182MOL0     H24542   5.741  -0.332   4.246  1.0705  0.7500 -0.4166
  182MOL0     H24543   5.618  -0.236   4.167  0.9225  0.4586 -0.9874
  182MOL0     H24544   5.862  -0.375   4.048  1.3999  1.6729 -3.7353
  182MOL0     H24545   5.746  -0.293   3.943 -0.3581 -2.4398  0.0152
  182MOL0     H24546   5.894  -0.154   4.180 -0.6767  2.5194 -0.4360
  182MOL0     H24547   5.788  -0.083   4.065 -4.0408 -2.3641  1.4988
  182MOL0     H24548   5.929  -0.151   3.878 -2.3122 -2.4082  0.5250
  182MOL0     H24549   6.007  -0.035   3.989  1.8969 -0.5578  0.9215
  182MOL0     H24550   5.199  -0.561   4.419  0.8488  0.0763 -1.6707
  182MOL0     H24551   4.981  -0.586   4.529  4.2894  0.6775  0.2414
  182MOL0     H24552   4.481  -0.528   4.368 -0.0762 -1.6112  0.3577
  182MOL0     H24553   4.272  -0.461   4.429  1.4227  0.4824 -2.0079
  182MOL0     H24554   2.717   0.117   5.348  2.9700  0.0179 -0.1473
  182MOL0     H24555   2.507   0.054   5.458  0.7485  0.2973 -1.1716
  182MOL0     H24556   2.105  -0.043   5.718 -1.8629  1.6911  0.3550
  182MOL0     H24557   1.965  -0.099   5.905  0.0427 -1.6411  1.1443
  182MOL0     H24558   2.047   0.092   6.282  1.0916  0.2229  0.6871
  182MOL0     H24559   2.149  -0.047   6.330  0.6424 -1.9106 -0.8748
  182MOL0     H24560   1.851  -0.042   6.329  0.5484 -0.8143 -2.4603
  182MOL0     H24561   1.951  -0.047   6.480  1.4183  1.4744  0.0591
  182MOL0     H24562   2.039  -0.260   6.416 -1.7775  0.7816  2.2146
  182MOL0     H24563   1.915  -0.264   6.279  0.6589 -1.0628  0.1871
  182MOL0     H24564   1.863  -0.393   6.492 -2.0461 -0.2088  1.0582
  182MOL0     H24565   1.854  -0.235   6.572  0.4279  1.8043 -0.7909
  182MOL0     H24566   1.488  -0.199   6.442  0.2960  1.4246  0.4765
  182MOL0     H24567   2.277   0.041   6.170 -3.7015  4.6177  0.3742
  182MOL0     H24568   2.544  -0.009   6.009  0.4615  1.0780  0.9898
  182MOL0     H24569   2.505   0.136   5.913  2.9903 -0.1940  0.6134
  182MOL0     H24570   2.472   0.114   6.088 -0.0552  0.0121 -1.1207
  183MOL0     O24571   9.157   3.860   3.102  0.4735  0.5142  0.0665
  183MOL0     C24572   9.073   3.935   3.053  0.2483 -1.0252 -0.2311
  183MOL0     O24573   9.082   4.069   3.043 -0.5041 -0.2533  0.2385
  183MOL0     C24574   9.206   4.130   3.030  0.7505  0.3401  0.7986
  183MOL0     C24575   9.225   4.254   3.090 -0.1582  0.5513 -0.5075
  183MOL0     C24576   9.345   4.318   3.073 -0.5139  0.4173 -0.4935
  183MOL0     C24577   9.451   4.259   3.008  0.6361 -0.4797 -0.2371
  183MOL0     O24578   9.573   4.329   3.010  0.2784  0.4491 -0.7330
  183MOL0     C24579   9.681   4.301   2.926  1.0920 -0.8080 -0.6901
  183MOL0     C24580   9.795   4.388   2.967  0.3213 -0.3260 -0.2916
  183MOL0     C24581   9.922   4.349   2.903  0.3808 -1.1424 -0.2578
  183MOL0     C24582  10.052   4.419   2.973  0.0978  0.4550  0.0924
  183MOL0     C24583  10.174   4.398   2.897 -0.1035  0.6416 -0.0047
  183MOL0     C24584  10.292   4.465   2.970 -0.1479  1.0992  0.0286
  183MOL0     C24585  10.420   4.461   2.885  0.1638 -0.2607  0.8691
  183MOL0     C24586  10.528   4.522   2.967  0.0086  0.3259 -0.2562
  183MOL0     N24587  10.633   4.596   2.886 -0.2422  0.2608 -0.0677
  183MOL0     C24588  10.631   4.731   2.850 -0.4723 -0.0617  0.1704
  183MOL0     C24589  10.760   4.749   2.803 -1.0066  0.2659  0.6549
  183MOL0     C24590  10.811   4.872   2.743 -0.1319  0.8220  0.6194
  183MOL0     C24591  10.802   4.879   2.589  1.1929 -0.6050  0.2740
  183MOL0     C24592  10.880   4.781   2.519 -0.4130  1.0035  0.0398
  183MOL0     C24593  10.898   4.809   2.372 -0.0129 -1.1215 -0.1664
  183MOL0     O24594  10.931   4.689   2.305  0.5593  0.0712  0.1974
  183MOL0     C24595  10.964   4.681   2.172 -0.7637  0.3728  0.5706
  183MOL0     C24596  11.040   4.776   2.107 -0.3814 -1.1269  0.3393
  183MOL0     C24597  11.078   4.766   1.977 -0.6412  0.1635 -0.4215
  183MOL0     C24598  11.041   4.644   1.908 -0.3666 -0.4696  0.1384
  183MOL0     C24599  11.055   4.634   1.761  0.3183  1.0840  0.1956
  183MOL0     O24600  11.148   4.718   1.696  0.4249  0.2662  0.4150
  183MOL0     C24601  11.151   4.708   1.562  0.1055 -0.4324 -0.0217
  183MOL0     C24602  11.209   4.593   1.497 -0.5434 -0.5400 -0.3370
  183MOL0     C24603  11.222   4.593   1.360 -0.1950 -0.1322  0.4818
  183MOL0     C24604  11.186   4.699   1.283 -0.2683 -0.7340  0.2431
  183MOL0     O24605  11.188   4.701   1.144  0.1694 -0.0049 -0.3336
  183MOL0     C24606  11.233   4.579   1.074  0.2266 -0.1538  0.1300
  183MOL0     C24607  11.239   4.617   0.924  0.1351 -0.4003  1.0733
  183MOL0     C24608  11.372   4.657   0.861  0.4844 -0.0463 -0.7264
  183MOL0     C24609  11.457   4.529   0.810  0.0637 -0.4878  0.2767
  183MOL0     C24610  11.585   4.526   0.893  0.4552 -0.9692 -0.0481
  183MOL0     C24611  11.692   4.623   0.834  0.3647  0.0908  1.0771
  183MOL0     C24612  11.834   4.594   0.872  0.0133  0.1031 -0.2666
  183MOL0     C24613  11.881   4.453   0.864 -0.3604 -0.3245  0.1611
  183MOL0    Cl24614  11.908   4.398   0.693 -0.2777  0.2667 -0.0145
  183MOL0     C24615  11.137   4.814   1.344 -0.7051  0.5346 -0.0903
  183MOL0     C24616  11.124   4.825   1.486  0.0664 -0.9509 -0.5657
  183MOL0     O24617  10.975   4.556   1.706  0.1892 -0.1796  0.8242
  183MOL0     C24618  10.966   4.545   1.975  0.5521 -0.2457  0.9117
  183MOL0     C24619  10.930   4.560   2.108 -0.2257 -0.6980 -0.6470
  183MOL0     N24620  10.825   4.626   2.809  0.1083 -0.3709 -0.1660
  183MOL0     N24621  10.754   4.540   2.868 -0.6382  0.0015 -0.1858
  183MOL0     C24622   9.429   4.140   2.935  0.4968 -0.0689  1.1666
  183MOL0     C24623   9.315   4.063   2.960 -0.9119 -0.0695 -0.2002
  183MOL0     C24624   8.937   3.877   3.036 -0.2253 -0.3909  0.8629
  183MOL0     C24625   8.879   3.806   3.138 -0.0972  0.5798  0.4605
  183MOL0     C24626   8.746   3.756   3.136  0.0885  0.9818 -0.1843
  183MOL0     C24627   8.665   3.775   3.027 -0.3037  0.1565  0.2239
  183MOL0     O24628   8.530   3.743   3.027  0.2213  0.4238  0.1735
  183MOL0     C24629   8.466   3.704   2.901 -0.6274 -0.1652 -0.4969
  183MOL0     C24630   8.513   3.569   2.846  0.2596  0.0343  0.6137
  183MOL0     C24631   8.509   3.448   2.937 -0.1693 -0.2972  0.1718
  183MOL0     C24632   8.368   3.416   2.987  0.4495 -0.0835 -0.1823
  183MOL0     C24633   8.293   3.353   2.880 -0.0024 -0.6141 -0.0409
  183MOL0     C24634   8.213   3.311   2.801  0.0538 -1.1749 -1.6065
  183MOL0     C24635   8.732   3.832   2.915 -0.3204 -0.1175 -0.6037
  183MOL0     C24636   8.858   3.895   2.921  1.0023  0.7823 -0.3580
  183MOL0     C24637   8.918   3.960   2.796 -0.6182 -0.4915 -0.1449
  183MOL0     H24638   9.147   4.312   3.138  1.9918  2.3750  1.0695
  183MOL0     H24639   9.375   4.399   3.138 -0.9245 -0.4485  0.8231
  183MOL0     H24640   9.707   4.196   2.939  0.2607 -1.2527 -2.3376
  183MOL0     H24641   9.655   4.307   2.820  1.4253 -0.4200 -0.7571
  183MOL0     H24642   9.808   4.368   3.074  1.0188 -0.6451 -0.4328
  183MOL0     H24643   9.760   4.491   2.960 -1.8300 -1.0339 -0.9378
  183MOL0     H24644   9.920   4.394   2.803 -3.7428 -0.1744  0.0781
  183MOL0     H24645   9.931   4.240   2.896 -0.2286 -1.1651 -0.8283
  183MOL0     H24646  10.050   4.528   2.961  3.0165  0.3179 -3.6600
  183MOL0     H24647  10.053   4.386   3.078  0.3269 -2.0187 -0.6181
  183MOL0     H24648  10.203   4.293   2.889  2.5588  1.2828  0.2082
  183MOL0     H24649  10.161   4.433   2.795  0.7064  1.2225  0.0773
  183MOL0     H24650  10.281   4.573   2.986  1.3529  1.0626  1.6218
  183MOL0     H24651  10.299   4.418   3.068 -0.4466  2.2932  0.6510
  183MOL0     H24652  10.418   4.512   2.789  1.1605 -2.0562 -0.1526
  183MOL0     H24653  10.452   4.358   2.868  1.2359 -0.0399  1.4231
  183MOL0     H24654  10.487   4.590   3.043 -0.1449 -1.9887  1.8568
  183MOL0     H24655  10.572   4.444   3.029 -1.7055 -2.2952 -2.1212
  183MOL0     H24656  10.549   4.802   2.857 -0.2599  0.3653 -1.2305
  183MOL0     H24657  10.754   4.958   2.779 -2.9922  0.6955 -3.0451
  183MOL0     H24658  10.914   4.892   2.776  0.1199  1.3054 -0.4268
  183MOL0     H24659  10.698   4.869   2.557  1.0024 -2.3089  1.2947
  183MOL0     H24660  10.836   4.978   2.557  3.9158 -1.2735  0.8438
  183MOL0     H24661  10.833   4.682   2.528  2.1611 -0.6369 -2.8529
  183MOL0     H24662  10.973   4.777   2.576 -0.9296 -0.7161  0.8309
  183MOL0     H24663  10.981   4.880   2.369  0.7807 -2.0105  0.1439
  183MOL0     H24664  10.812   4.862   2.330  0.9736  1.8004  1.2000
  183MOL0     H24665  11.064   4.864   2.165 -2.2660 -1.0546  1.1077
  183MOL0     H24666  11.125   4.852   1.930  0.4601  0.1035  0.5350
  183MOL0     H24667  11.261   4.521   1.559  1.9214  3.6007  2.8791
  183MOL0     H24668  11.289   4.516   1.322  0.8002  0.8600  0.1511
  183MOL0     H24669  11.326   4.533   1.110 -0.4105 -1.0191  0.7243
  183MOL0     H24670  11.148   4.511   1.089 -1.5736  2.2649  1.6173
  183MOL0     H24671  11.197   4.538   0.861 -2.2610  0.8800  0.9661
  183MOL0     H24672  11.171   4.701   0.911  0.9476  0.1900  0.5944
  183MOL0     H24673  11.372   4.728   0.778  1.2784  1.6333  0.6152
  183MOL0     H24674  11.434   4.703   0.940  2.0736 -1.7212 -0.9292
  183MOL0     H24675  11.468   4.535   0.701  1.2857 -1.1283  0.3511
  183MOL0     H24676  11.394   4.440   0.823 -1.2511  0.5207  1.1110
  183MOL0     H24677  11.626   4.426   0.873 -0.7543 -1.0612 -2.4827
  183MOL0     H24678  11.572   4.531   1.001 -0.4977  0.4394 -0.2037
  183MOL0     H24679  11.687   4.611   0.725  0.4323 -3.0116  1.3354
  183MOL0     H24680  11.659   4.723   0.862  0.2989  0.1180  0.9030
  183MOL0     H24681  11.847   4.619   0.978 -1.4036  2.0850 -0.4946
  183MOL0     H24682  11.891   4.670   0.816  0.5713  0.7240  1.1000
  183MOL0     H24683  11.984   4.453   0.901  0.0907 -5.1831 -0.5390
  183MOL0     H24684  11.822   4.377   0.915  1.5818 -0.9391  1.5869
  183MOL0     H24685  11.087   4.888   1.282  1.0009  1.2757 -0.6532
  183MOL0     H24686  11.087   4.906   1.547  2.5545 -1.8019  2.3082
  183MOL0     H24687  10.920   4.459   1.927  0.8078 -0.9672  1.9482
  183MOL0     H24688  10.886   4.482   2.170 -1.4654  1.2141  0.9778
  183MOL0     H24689   9.507   4.097   2.874 -1.3112 -0.6559 -0.8448
  183MOL0     H24690   9.303   3.972   2.901 -0.9762  0.8504 -1.6324
  183MOL0     H24691   8.938   3.790   3.227  0.3707 -4.3066 -0.4243
  183MOL0     H24692   8.704   3.702   3.221 -1.6109 -3.1317 -3.3208
  183MOL0     H24693   8.483   3.780   2.824  3.1296  0.8106  1.0872
  183MOL0     H24694   8.361   3.695   2.932 -0.7501  2.1248 -0.0819
  183MOL0     H24695   8.620   3.586   2.829  0.3738  2.0995  2.7656
  183MOL0     H24696   8.459   3.546   2.754  0.2750 -1.8349  1.0418
  183MOL0     H24697   8.574   3.480   3.019  0.8658  1.5838 -1.2825
  183MOL0     H24698   8.555   3.357   2.899 -0.5990 -1.4634  2.3010
  183MOL0     H24699   8.363   3.349   3.073  1.2678 -0.4056 -0.3781
  183MOL0     H24700   8.315   3.506   3.021 -1.9839 -1.9623  1.3101
  183MOL0     H24701   8.149   3.270   2.727  1.1517 -1.1790 -2.5924
  183MOL0     H24702   8.679   3.854   2.822  2.0146  1.6183 -1.6436
  183MOL0     H24703   9.003   3.901   2.760 -0.9214 -1.1358  0.1847
  183MOL0     H24704   8.843   3.957   2.717 -0.4599 -1.0672 -0.2762
  183MOL0     H24705   8.957   4.062   2.806 -1.0279 -0.3110 -0.3970
  184MOL0     O24706   8.456   7.698  10.919 -0.1201 -0.3127 -0.1981
  184MOL0     C24707   8.403   7.792  10.957  0.1736 -0.9659 -0.2199
  184MOL0     O24708   8.447   7.876  11.053 -0.8383 -0.4962  0.0727
  184MOL0     C24709   8.576   7.872  11.110 -0.1204  0.3718 -0.2165
  184MOL0     C24710   8.647   7.994  11.122 -0.1642 -0.0322 -0.2535
  184MOL0     C24711   8.771   7.988  11.187  0.2186  0.7586  0.3134
  184MOL0     C24712   8.830   7.870  11.234  0.3525 -0.3735  0.1745
  184MOL0     O24713   8.957   7.872  11.296 -0.0243 -0.4332  0.0445
  184MOL0     C24714   9.019   7.995  11.336 -0.0379 -0.4320  1.2542
  184MOL0     C24715   9.132   7.964  11.431  0.1836 -0.6927 -0.8829
  184MOL0     C24716   9.197   8.095  11.478 -0.0585 -0.0467  0.5517
  184MOL0     C24717   9.309   8.062  11.578 -0.4027  0.4206  0.0799
  184MOL0     C24718   9.332   8.195  11.657 -0.5280 -0.4723 -0.2997
  184MOL0     C24719   9.450   8.166  11.753  0.5639  0.0261  0.0661
  184MOL0     C24720   9.584   8.151  11.678 -0.1239  0.2539 -0.3651
  184MOL0     C24721   9.647   8.007  11.670 -0.7756 -0.4702 -0.6935
  184MOL0     N24722   9.696   7.984  11.806 -0.7780  0.2420  0.6111
  184MOL0     C24723   9.804   8.047  11.864 -0.3173 -0.0871 -0.0355
  184MOL0     C24724   9.803   7.995  11.989 -0.0783 -0.0049  0.1869
  184MOL0     C24725   9.909   8.054  12.078 -0.3194  0.3183  0.3828
  184MOL0     C24726  10.001   7.947  12.145 -0.5782  0.3478  0.0150
  184MOL0     C24727  10.131   8.017  12.186  0.3009 -0.1674 -0.1948
  184MOL0     C24728  10.223   7.917  12.239 -0.2010 -0.0759 -0.4309
  184MOL0     O24729  10.356   7.978  12.247  0.1957  0.2254 -0.0818
  184MOL0     C24730  10.459   7.897  12.277  0.6954  0.2071  0.2627
  184MOL0     C24731  10.582   7.959  12.267 -0.3651  0.3666  0.4886
  184MOL0     C24732  10.695   7.886  12.286  0.6207 -0.1934  0.7150
  184MOL0     C24733  10.693   7.757  12.336  0.5200  0.0554  0.3885
  184MOL0     C24734  10.820   7.682  12.368 -0.2965 -0.2601 -0.0111
  184MOL0     O24735  10.812   7.579  12.449  0.2932  0.3657  0.2947
  184MOL0     C24736  10.930   7.505  12.469  0.0169  0.0436 -0.1902
  184MOL0     C24737  10.926   7.372  12.433  0.2884  0.1554 -0.5699
  184MOL0     C24738  11.029   7.279  12.459 -0.2940  0.3496  0.0087
  184MOL0     C24739  11.141   7.311  12.529  0.0821  0.3131 -0.2893
  184MOL0     O24740  11.246   7.228  12.554  0.3956  0.4276 -0.8494
  184MOL0     C24741  11.224   7.093  12.588 -0.0832 -0.3222  0.5784
  184MOL0     C24742  11.348   7.012  12.566 -0.3473  0.5802 -0.2938
  184MOL0     C24743  11.327   6.867  12.580  0.3480 -0.0386  1.2076
  184MOL0     C24744  11.414   6.782  12.484 -0.3075  0.1866  0.0959
  184MOL0     C24745  11.551   6.752  12.539 -0.2706 -0.0936  0.1662
  184MOL0     C24746  11.553   6.631  12.639  0.3666 -1.3495 -0.5018
  184MOL0     C24747  11.534   6.498  12.555 -0.6496 -0.2361  0.2425
  184MOL0     C24748  11.449   6.404  12.640 -0.2354  1.0348 -0.7582
  184MOL0    Cl24749  11.424   6.256  12.536  0.2150  0.3855 -0.2786
  184MOL0     C24750  11.137   7.442  12.571 -0.4187  0.1609  0.7198
  184MOL0     C24751  11.039   7.543  12.545 -0.1156  0.4558  0.5322
  184MOL0     O24752  10.923   7.736  12.329 -0.8042 -0.3166 -0.5815
  184MOL0     C24753  10.569   7.698  12.357 -0.1328  0.1534  0.3277
  184MOL0     C24754  10.453   7.763  12.331  0.0987  0.2866 -0.3840
  184MOL0     N24755   9.701   7.908  12.004  0.0924 -0.1727 -0.0861
  184MOL0     N24756   9.636   7.905  11.897 -0.4237  0.2794 -0.5833
  184MOL0     C24757   8.762   7.750  11.228 -0.3177 -0.7038  0.3211
  184MOL0     C24758   8.630   7.755  11.177  0.9474  0.4895  0.5631
  184MOL0     C24759   8.274   7.823  10.896  0.0265  0.2599 -0.5702
  184MOL0     C24760   8.232   7.953  10.907 -0.2106 -0.3326  0.2834
  184MOL0     C24761   8.105   7.983  10.879 -0.2802 -1.0602 -0.5930
  184MOL0     C24762   8.008   7.899  10.822  0.5901 -0.2518  0.5067
  184MOL0     O24763   7.876   7.952  10.799  0.1080  0.1960 -0.2476
  184MOL0     C24764   7.799   7.898  10.692 -0.4803 -0.2922 -0.3428
  184MOL0     C24765   7.822   7.976  10.558  0.0328  0.5569  0.2556
  184MOL0     C24766   7.957   7.943  10.490  0.2088 -0.4212 -0.5228
  184MOL0     C24767   8.070   8.052  10.483  0.0014 -0.3447  0.3517
  184MOL0     C24768   8.147   8.038  10.355  0.5218 -0.5475 -0.4840
  184MOL0     C24769   8.195   8.006  10.247 -0.1317 -0.1094 -0.2162
  184MOL0     C24770   8.058   7.775  10.780 -0.2228 -0.7017 -1.2410
  184MOL0     C24771   8.188   7.740  10.820  0.4648 -0.2812  1.3931
  184MOL0     C24772   8.225   7.604  10.776 -0.7546  0.2499 -0.0243
  184MOL0     H24773   8.600   8.086  11.088 -1.5166 -0.2108  1.0215
  184MOL0     H24774   8.818   8.083  11.212  0.6484  0.4773  0.5686
  184MOL0     H24775   9.055   8.044  11.245  1.9660 -0.1082  2.1613
  184MOL0     H24776   8.941   8.057  11.382  0.5031  2.0420 -0.9459
  184MOL0     H24777   9.209   7.897  11.392  0.6064 -1.8594  1.7366
  184MOL0     H24778   9.094   7.918  11.523  1.4714  1.9728  1.1187
  184MOL0     H24779   9.134   8.171  11.524 -2.7101 -2.5826  1.3952
  184MOL0     H24780   9.237   8.151  11.393  1.1057  0.3234  1.3229
  184MOL0     H24781   9.282   7.984  11.649 -1.4295  0.8467  0.1807
  184MOL0     H24782   9.397   8.027  11.523 -1.5853 -0.9543 -0.9889
  184MOL0     H24783   9.379   8.268  11.590 -0.4999 -0.4476 -0.2542
  184MOL0     H24784   9.252   8.245  11.712  0.2403  0.7344 -0.2444
  184MOL0     H24785   9.463   8.236  11.836  1.0469  0.8925 -0.7128
  184MOL0     H24786   9.427   8.070  11.800 -3.6848 -0.1920 -1.9920
  184MOL0     H24787   9.653   8.215  11.734 -2.9756  1.1844  2.3569
  184MOL0     H24788   9.581   8.187  11.575  1.8757  0.3140 -0.4508
  184MOL0     H24789   9.581   7.929  11.631 -0.6230  0.2530 -2.5268
  184MOL0     H24790   9.728   8.003  11.596 -0.4792  0.0383 -0.4021
  184MOL0     H24791   9.867   8.125  11.823 -1.7316 -0.2732 -2.8291
  184MOL0     H24792   9.967   8.117  12.010 -1.8314 -0.4616 -1.7143
  184MOL0     H24793   9.866   8.119  12.155  1.0730 -0.1473  1.5894
  184MOL0     H24794   9.955   7.900  12.233 -1.0102 -1.4057 -1.1146
  184MOL0     H24795  10.019   7.869  12.072  0.0747  0.6307 -0.1316
  184MOL0     H24796  10.108   8.092  12.262 -1.2129 -0.1447 -0.6540
  184MOL0     H24797  10.178   8.062  12.098 -2.6559  0.6977 -1.4462
  184MOL0     H24798  10.223   7.832  12.169  3.5143 -0.8368  0.2462
  184MOL0     H24799  10.192   7.887  12.339  3.7086  2.4292  1.7805
  184MOL0     H24800  10.582   8.060  12.227 -1.4660  0.1925  0.0057
  184MOL0     H24801  10.790   7.932  12.264  1.2587 -1.1927  1.3277
  184MOL0     H24802  10.836   7.345  12.381  0.2171 -2.0749  0.6045
  184MOL0     H24803  11.017   7.183  12.411 -0.5456  0.1599  0.4481
  184MOL0     H24804  11.194   7.083  12.693 -3.6724 -1.2727 -0.4022
  184MOL0     H24805  11.149   7.046  12.523 -0.5140  1.4540 -0.2573
  184MOL0     H24806  11.394   7.034  12.468  0.9538 -0.3766  0.0744
  184MOL0     H24807  11.426   7.038  12.639  3.1741 -2.2726 -2.6549
  184MOL0     H24808  11.339   6.827  12.681  1.3858  0.2697  1.2138
  184MOL0     H24809  11.222   6.849  12.553  0.6868 -1.2784  0.6412
  184MOL0     H24810  11.418   6.834  12.388 -0.2116 -0.8624 -0.4862
  184MOL0     H24811  11.366   6.687  12.462 -1.3102  1.0706 -1.7504
  184MOL0     H24812  11.601   6.841  12.577  0.5174  0.2336 -1.5281
  184MOL0     H24813  11.602   6.720  12.448 -1.5491 -0.4545 -0.4557
  184MOL0     H24814  11.641   6.627  12.704 -0.5849 -1.1858  0.8545
  184MOL0     H24815  11.472   6.637  12.712 -0.9799  0.2612 -2.0529
  184MOL0     H24816  11.629   6.451  12.530 -1.3169 -2.3083  1.3855
  184MOL0     H24817  11.486   6.526  12.461  1.9113 -0.2956 -1.1600
  184MOL0     H24818  11.486   6.388  12.741 -1.2499  4.3511  0.2574
  184MOL0     H24819  11.349   6.445  12.656 -1.6781 -2.0017 -1.2661
  184MOL0     H24820  11.210   7.479  12.642 -0.5186  0.0477  0.8820
  184MOL0     H24821  11.037   7.643  12.588 -1.0354  0.1700  1.1827
  184MOL0     H24822  10.554   7.598  12.396  0.2698 -0.4179 -0.9485
  184MOL0     H24823  10.357   7.722  12.363  0.8037  0.4610  2.1665
  184MOL0     H24824   8.816   7.661  11.257  1.6429 -0.8648 -3.2319
  184MOL0     H24825   8.578   7.661  11.170  0.5056  0.8562 -3.3399
  184MOL0     H24826   8.281   8.030  10.966 -0.6193 -2.4726  3.6559
  184MOL0     H24827   8.081   8.089  10.889  1.9763 -0.7307  3.2022
  184MOL0     H24828   7.694   7.912  10.716 -0.8562 -0.0329 -2.0347
  184MOL0     H24829   7.815   7.791  10.672  0.3774 -0.1833 -0.2817
  184MOL0     H24830   7.813   8.082  10.581  0.1560  0.3590  1.2329
  184MOL0     H24831   7.739   7.949  10.492 -0.5664  0.8592  0.8721
  184MOL0     H24832   7.923   7.920  10.388 -1.3622 -0.2275 -0.0736
  184MOL0     H24833   8.010   7.854  10.524  1.7981  0.7464  0.1820
  184MOL0     H24834   8.023   8.150  10.491  0.9490  0.0847  0.9360
  184MOL0     H24835   8.147   8.035  10.559 -1.7414 -1.3860  1.9809
  184MOL0     H24836   8.249   7.961  10.167  2.2110  0.8008  0.7357
  184MOL0     H24837   7.992   7.704  10.730 -0.6932  0.2500 -1.9945
  184MOL0     H24838   8.301   7.609  10.698  0.1483 -1.3903  0.7020
  184MOL0     H24839   8.260   7.549  10.864 -1.8938  1.6968  1.4026
  184MOL0     H24840   8.140   7.555  10.728 -1.2260  0.2401  0.7931
  185MOL0     O24841   1.786   5.258   9.925 -0.1905  0.0589 -0.1240
  185MOL0     C24842   1.739   5.154   9.872  0.1254  0.2134  1.1994
  185MOL0     O24843   1.821   5.066   9.799 -0.4115 -0.5725 -0.2014
  185MOL0     C24844   1.939   5.118   9.755  0.0243  0.0563  0.4208
  185MOL0     C24845   1.952   5.203   9.641 -0.1578 -0.1441  0.0112
  185MOL0     C24846   2.084   5.236   9.604 -0.6703  1.4129  0.9109
  185MOL0     C24847   2.194   5.203   9.679 -0.7511 -0.0830 -0.6761
  185MOL0     O24848   2.321   5.240   9.656 -0.2270  0.2261 -0.1285
  185MOL0     C24849   2.323   5.359   9.582 -0.4335 -0.1509  0.1975
  185MOL0     C24850   2.454   5.442   9.597  0.1972 -0.3179 -0.1879
  185MOL0     C24851   2.507   5.436   9.734  0.2025  1.1507  0.0752
  185MOL0     C24852   2.639   5.523   9.764 -0.1278 -0.3103  0.3082
  185MOL0     C24853   2.701   5.493   9.901  0.2385  0.0070  0.9497
  185MOL0     C24854   2.849   5.548   9.890 -1.1021 -0.3298 -0.6349
  185MOL0     C24855   2.909   5.582  10.031  0.0420 -0.0750  0.4716
  185MOL0     C24856   3.015   5.691  10.030 -0.4420 -0.1376  0.0923
  185MOL0     N24857   3.137   5.635   9.969 -0.8343 -0.4452 -0.0275
  185MOL0     C24858   3.228   5.549  10.019 -0.5659  0.7325 -0.3409
  185MOL0     C24859   3.326   5.537   9.922 -0.3637  0.0518  0.2952
  185MOL0     C24860   3.446   5.451   9.907 -0.0628  0.0898 -0.1156
  185MOL0     C24861   3.565   5.520   9.851 -0.0074 -0.9033 -0.0455
  185MOL0     C24862   3.694   5.439   9.866  0.4012  1.2931  0.1349
  185MOL0     C24863   3.815   5.505   9.796 -0.2489 -0.8790 -0.2453
  185MOL0     O24864   3.923   5.423   9.830  0.0138 -0.6265  0.6957
  185MOL0     C24865   4.051   5.467   9.793  0.2394 -0.7763 -0.3150
  185MOL0     C24866   4.082   5.593   9.740 -0.7273 -0.0718  0.0211
  185MOL0     C24867   4.222   5.617   9.706  0.1610 -0.4890  0.7656
  185MOL0     C24868   4.324   5.529   9.742  0.6600  0.1692  0.5751
  185MOL0     C24869   4.461   5.562   9.687  0.4244 -0.1549 -0.6559
  185MOL0     O24870   4.566   5.502   9.747  0.3566  0.1432  0.0548
  185MOL0     C24871   4.695   5.506   9.697  0.4385 -0.9072  0.9125
  185MOL0     C24872   4.736   5.510   9.562 -0.2555 -0.1147  0.2939
  185MOL0     C24873   4.873   5.513   9.543 -0.0683 -0.1232  0.3539
  185MOL0     C24874   4.969   5.511   9.643 -0.8687  0.1417 -0.1522
  185MOL0     O24875   5.102   5.522   9.596 -0.1207  0.3960 -0.1975
  185MOL0     C24876   5.203   5.533   9.705  0.2005 -0.3666  0.8249
  185MOL0     C24877   5.328   5.532   9.625  0.6370  0.5207  0.3370
  185MOL0     C24878   5.458   5.536   9.708  0.5587 -1.0861 -0.3354
  185MOL0     C24879   5.490   5.428   9.806  0.1108  0.3210 -0.4439
  185MOL0     C24880   5.594   5.462   9.919  0.6195  1.1068 -0.0992
  185MOL0     C24881   5.731   5.516   9.874  0.1154  0.0625 -0.1099
  185MOL0     C24882   5.812   5.406   9.799 -0.4961  0.6736 -0.2946
  185MOL0     C24883   5.943   5.449   9.734 -0.7949 -0.6757 -0.0001
  185MOL0    Cl24884   5.966   5.405   9.558 -0.1949 -0.1145  0.5122
  185MOL0     C24885   4.921   5.490   9.770 -0.6117  1.2159 -0.5225
  185MOL0     C24886   4.782   5.492   9.798  0.3922  0.0091  0.6386
  185MOL0     O24887   4.474   5.639   9.593 -0.0977  0.2954 -0.6538
  185MOL0     C24888   4.287   5.402   9.800  0.0560  0.2803 -0.6099
  185MOL0     C24889   4.149   5.369   9.824 -0.3989  0.0112 -0.0195
  185MOL0     N24890   3.289   5.616   9.815  0.7955 -1.0961 -0.8816
  185MOL0     N24891   3.182   5.678   9.847  0.3211  0.6144 -0.0306
  185MOL0     C24892   2.182   5.122   9.793 -0.2102 -0.2116 -0.5600
  185MOL0     C24893   2.056   5.081   9.825  0.4609 -0.3077 -0.6382
  185MOL0     C24894   1.596   5.119   9.891  0.2236  0.3477 -0.1394
  185MOL0     C24895   1.540   5.024   9.798  0.5812 -0.6231 -0.9384
  185MOL0     C24896   1.395   5.001   9.792  0.5442 -0.0821 -0.0872
  185MOL0     C24897   1.314   5.071   9.882  0.1519  0.0146 -0.0257
  185MOL0     O24898   1.183   5.046   9.903  0.2196 -0.0773  0.0058
  185MOL0     C24899   1.112   4.987   9.791  0.9345  0.8227 -0.0456
  185MOL0     C24900   0.965   5.020   9.800  0.4094  0.0516 -0.4801
  185MOL0     C24901   0.898   4.954   9.923  0.9762  0.3542 -0.7955
  185MOL0     C24902   0.901   4.803   9.912  1.4052  0.0079  0.2360
  185MOL0     C24903   0.780   4.762   9.984  0.5255  0.3892 -0.4068
  185MOL0     C24904   0.666   4.746  10.031 -0.4712  0.1914 -0.7958
  185MOL0     C24905   1.370   5.159   9.971  0.4131  0.9614 -0.0359
  185MOL0     C24906   1.508   5.190   9.967  0.9971 -0.5485  0.1146
  185MOL0     C24907   1.548   5.285  10.079 -0.4393 -0.2484  1.1228
  185MOL0     H24908   1.872   5.239   9.576  1.1659 -0.3023 -1.7908
  185MOL0     H24909   2.100   5.286   9.509 -0.8098  0.4076  0.3461
  185MOL0     H24910   2.295   5.350   9.476 -0.0442  2.0217 -0.1315
  185MOL0     H24911   2.249   5.423   9.630 -1.7985 -2.5657  1.4893
  185MOL0     H24912   2.434   5.540   9.552 -2.5775 -0.2453  0.9992
  185MOL0     H24913   2.528   5.393   9.534  1.5288  1.4583 -0.0676
  185MOL0     H24914   2.541   5.335   9.761  3.3531  1.8454 -0.8124
  185MOL0     H24915   2.435   5.455   9.814  1.3964  1.3753  1.1315
  185MOL0     H24916   2.724   5.514   9.695  1.3926 -0.0719  2.0712
  185MOL0     H24917   2.607   5.628   9.762 -1.1956 -0.6340 -0.9972
  185MOL0     H24918   2.644   5.536   9.984 -2.7049 -0.1717 -0.8423
  185MOL0     H24919   2.705   5.385   9.916 -0.8261 -0.2067 -0.1182
  185MOL0     H24920   2.917   5.483   9.835  0.0423  1.5047 -1.4743
  185MOL0     H24921   2.857   5.650   9.852  2.5825 -0.3620 -0.3053
  185MOL0     H24922   2.963   5.492  10.062  1.7993  1.2135  1.3157
  185MOL0     H24923   2.832   5.604  10.106 -0.5130  0.2460 -0.1833
  185MOL0     H24924   2.977   5.780   9.979 -0.4670  0.5551  1.2766
  185MOL0     H24925   3.032   5.719  10.135  1.6172  2.9381 -0.9381
  185MOL0     H24926   3.241   5.495  10.113 -1.8343 -0.2972 -0.7307
  185MOL0     H24927   3.476   5.401  10.000  3.0829  0.0198 -1.0403
  185MOL0     H24928   3.417   5.369   9.840  1.3967 -1.0391  0.5789
  185MOL0     H24929   3.550   5.558   9.750  0.1318 -1.4011 -0.2588
  185MOL0     H24930   3.575   5.612   9.909 -0.2869 -2.0816  1.9701
  185MOL0     H24931   3.672   5.338   9.828  0.4222 -0.8915  5.1131
  185MOL0     H24932   3.703   5.422   9.974  1.7904 -1.9952 -0.3851
  185MOL0     H24933   3.822   5.606   9.835 -1.4193 -1.4898  1.6774
  185MOL0     H24934   3.807   5.502   9.686  1.4439  0.6786 -0.4488
  185MOL0     H24935   4.011   5.672   9.717  2.8969  3.8579  1.1590
  185MOL0     H24936   4.244   5.715   9.667  1.2253 -0.8031  0.5613
  185MOL0     H24937   4.678   5.514   9.470 -1.6404  1.1186  1.1830
  185MOL0     H24938   4.919   5.520   9.445  0.3861  1.7704  0.6626
  185MOL0     H24939   5.195   5.615   9.776  1.1993 -1.7966  2.6684
  185MOL0     H24940   5.193   5.443   9.766  1.4122  1.0744  3.2709
  185MOL0     H24941   5.339   5.441   9.565  1.3552  1.9963 -1.8742
  185MOL0     H24942   5.309   5.612   9.553 -1.7098 -0.3564 -0.1268
  185MOL0     H24943   5.548   5.542   9.647 -1.7381  0.5591 -3.8819
  185MOL0     H24944   5.446   5.624   9.772  0.1117 -0.4911 -1.2242
  185MOL0     H24945   5.512   5.331   9.762 -2.3131 -0.3346 -0.3891
  185MOL0     H24946   5.392   5.421   9.855 -0.6362 -3.5181 -2.0910
  185MOL0     H24947   5.613   5.375   9.983 -1.9354  0.9805  0.6073
  185MOL0     H24948   5.547   5.535   9.987 -0.4620  1.4438 -1.1730
  185MOL0     H24949   5.712   5.601   9.808 -0.0823  0.5592  0.5685
  185MOL0     H24950   5.786   5.553   9.960  0.8778  0.1655 -0.6344
  185MOL0     H24951   5.745   5.369   9.721 -0.0756 -2.5736  0.7358
  185MOL0     H24952   5.828   5.319   9.863  3.6007 -1.0391 -3.1834
  185MOL0     H24953   5.936   5.558   9.733 -2.1185 -0.7297  0.8385
  185MOL0     H24954   6.030   5.412   9.788  0.7818  1.7759 -0.7276
  185MOL0     H24955   4.976   5.462   9.859 -1.8791 -2.3772 -0.6978
  185MOL0     H24956   4.746   5.453   9.892 -0.6505  2.6239  1.4140
  185MOL0     H24957   4.369   5.334   9.822  1.9755  1.5153 -3.3897
  185MOL0     H24958   4.129   5.275   9.874 -0.2912 -0.6051 -1.0925
  185MOL0     H24959   2.257   5.103   9.869 -1.4730 -0.9389  0.5584
  185MOL0     H24960   2.054   5.033   9.922  1.1230  0.2573 -0.3441
  185MOL0     H24961   1.607   4.978   9.727  1.9839  1.1481 -0.8242
  185MOL0     H24962   1.350   4.933   9.720 -0.4030 -0.0817  0.4870
  185MOL0     H24963   1.116   4.879   9.805 -0.2131  0.7199 -0.4665
  185MOL0     H24964   1.140   5.018   9.690 -0.4519 -0.1614 -0.7564
  185MOL0     H24965   0.918   4.978   9.711  1.1492  0.4543 -1.0751
  185MOL0     H24966   0.962   5.127   9.822  0.6313 -0.3861  1.8766
  185MOL0     H24967   0.799   4.999   9.939  0.7721  0.1153 -1.3456
  185MOL0     H24968   0.953   4.978  10.014  0.3449  2.6470 -0.9610
  185MOL0     H24969   0.888   4.769   9.809  0.2070  1.2089 -0.0368
  185MOL0     H24970   0.991   4.761   9.958  0.8197 -0.7167  0.7457
  185MOL0     H24971   0.568   4.729  10.072  0.9370  0.4873  3.0407
  185MOL0     H24972   1.300   5.214  10.034 -3.9627 -2.5045 -1.3342
  185MOL0     H24973   1.566   5.381  10.029  2.2720 -0.4726  1.5310
  185MOL0     H24974   1.466   5.301  10.150  0.5810  1.8152  1.9078
  185MOL0     H24975   1.643   5.252  10.123  0.3413 -1.2182 -1.1555
  186MOL0     O24976   4.958   0.262   8.656  0.1689  0.2552 -0.5693
  186MOL0     C24977   4.862   0.179   8.661  0.1208 -0.2851 -0.2909
  186MOL0     O24978   4.861   0.052   8.707  0.3267 -0.6496 -0.5467
  186MOL0     C24979   4.974  -0.028   8.707 -0.0169  0.1778 -0.3201
  186MOL0     C24980   4.989  -0.113   8.604  0.3666  0.3565  0.1936
  186MOL0     C24981   5.093  -0.206   8.599 -0.5277  0.2167  0.4868
  186MOL0     C24982   5.188  -0.220   8.706  0.2054 -0.2998  0.6555
  186MOL0     O24983   5.302  -0.298   8.712 -1.1151 -0.2039  0.2522
  186MOL0     C24984   5.369  -0.322   8.582  0.1878 -0.4843  0.4438
  186MOL0     C24985   5.493  -0.400   8.610  0.3864 -0.2836 -0.7973
  186MOL0     C24986   5.569  -0.430   8.490  0.6300  0.4846  0.7180
  186MOL0     C24987   5.706  -0.482   8.519 -0.3642 -0.2514 -0.0999
  186MOL0     C24988   5.780  -0.513   8.395 -0.3700  0.3828  0.1457
  186MOL0     C24989   5.906  -0.603   8.429  1.0879 -0.1558  0.6873
  186MOL0     C24990   6.001  -0.616   8.310  0.1580  0.5700 -0.4350
  186MOL0     C24991   6.099  -0.731   8.327 -0.1330 -0.5834 -0.9529
  186MOL0     N24992   6.209  -0.698   8.423  0.2017 -0.0406  1.6619
  186MOL0     C24993   6.317  -0.619   8.384  0.5060  0.4955  0.2347
  186MOL0     C24994   6.388  -0.613   8.490  0.1168  0.7856  0.1670
  186MOL0     C24995   6.520  -0.540   8.503 -0.6112 -0.0501 -0.6928
  186MOL0     C24996   6.633  -0.629   8.573 -0.5732  0.2296 -0.1168
  186MOL0     C24997   6.640  -0.769   8.499 -0.3642 -0.1435 -0.5930
  186MOL0     C24998   6.776  -0.839   8.527 -0.1100 -0.4227 -0.1160
  186MOL0     O24999   6.885  -0.766   8.467  1.1199  0.2332 -0.2137
  186MOL0     C25000   7.012  -0.813   8.468  0.1439 -0.5505 -0.5454
  186MOL0     C25001   7.077  -0.879   8.572  0.8196  0.2752 -1.2355
  186MOL0     C25002   7.211  -0.925   8.555 -0.7816  0.4595  0.5822
  186MOL0     C25003   7.281  -0.912   8.434 -0.1867  0.2282  0.0749
  186MOL0     C25004   7.423  -0.963   8.429  0.2000  0.1277 -0.1316
  186MOL0     O25005   7.503  -0.990   8.542  0.5424 -0.1880 -0.4521
  186MOL0     C25006   7.631  -1.034   8.535 -0.3535 -0.8713  1.1090
  186MOL0     C25007   7.676  -1.144   8.457  0.2217 -0.0598  0.5958
  186MOL0     C25008   7.807  -1.170   8.450  0.2140  1.1861 -0.4275
  186MOL0     C25009   7.906  -1.102   8.522 -0.5534  0.7728  0.6824
  186MOL0     O25010   8.048  -1.125   8.514  0.2667  0.9082 -0.5588
  186MOL0     C25011   8.095  -1.220   8.419 -0.7030 -0.0782  0.5722
  186MOL0     C25012   8.248  -1.216   8.429  0.0290  0.1303  0.3060
  186MOL0     C25013   8.311  -1.080   8.417 -0.1798  0.7951 -0.1704
  186MOL0     C25014   8.467  -1.090   8.410 -0.0421 -0.8167  0.4320
  186MOL0     C25015   8.507  -0.944   8.430  0.1336 -0.3022  1.1050
  186MOL0     C25016   8.659  -0.911   8.432  0.4580  0.0400 -0.4874
  186MOL0     C25017   8.695  -0.767   8.409  0.3980 -0.1978 -0.0375
  186MOL0     C25018   8.832  -0.732   8.479 -0.1996  0.7732 -0.4548
  186MOL0    Cl25019   8.861  -0.555   8.465  0.1762 -0.0957 -0.5297
  186MOL0     C25020   7.866  -0.991   8.603 -0.3269 -0.0379 -0.5886
  186MOL0     C25021   7.730  -0.959   8.600  0.1437 -0.5461 -0.5187
  186MOL0     O25022   7.472  -0.963   8.318 -0.4869  0.0150  0.2616
  186MOL0     C25023   7.211  -0.846   8.327  0.1308  1.0335  0.4117
  186MOL0     C25024   7.077  -0.812   8.343 -0.6525 -0.5454 -0.3525
  186MOL0     N25025   6.331  -0.692   8.586  0.8191 -0.2701 -0.0206
  186MOL0     N25026   6.225  -0.744   8.542  0.0400  0.1271  0.2914
  186MOL0     C25027   5.175  -0.125   8.809  0.7901  0.0311 -0.6222
  186MOL0     C25028   5.066  -0.037   8.813  0.8942 -1.3016 -0.2577
  186MOL0     C25029   4.731   0.247   8.621  0.1885 -0.2895  0.4023
  186MOL0     C25030   4.623   0.153   8.615  0.3171  0.1179  0.0308
  186MOL0     C25031   4.493   0.190   8.576  0.7432 -0.2629 -0.1479
  186MOL0     C25032   4.468   0.323   8.531  0.1309  0.9136 -0.3204
  186MOL0     O25033   4.345   0.343   8.478 -0.0708  0.6382 -0.4537
  186MOL0     C25034   4.339   0.433   8.370 -0.9530  0.0540 -0.2267
  186MOL0     C25035   4.205   0.416   8.296 -0.0128  0.1650 -0.3861
  186MOL0     C25036   4.067   0.438   8.369 -0.4696  0.3448 -0.5875
  186MOL0     C25037   4.023   0.588   8.381  0.4808 -0.1317 -0.6315
  186MOL0     C25038   3.878   0.624   8.383 -0.5559 -0.1293  0.9610
  186MOL0     C25039   3.765   0.670   8.378  0.0421  0.3169 -0.1779
  186MOL0     C25040   4.570   0.412   8.536 -0.5833 -0.3510 -0.0094
  186MOL0     C25041   4.708   0.379   8.579 -0.0251 -0.6762 -0.1685
  186MOL0     C25042   4.805   0.499   8.585  0.6293  0.6007 -0.2502
  186MOL0     H25043   4.914  -0.116   8.525 -2.3448 -2.1526  2.6100
  186MOL0     H25044   5.097  -0.271   8.512  0.7962  1.3047 -0.2996
  186MOL0     H25045   5.312  -0.381   8.510  0.9874 -0.0904 -0.5241
  186MOL0     H25046   5.388  -0.228   8.529  0.2089 -0.4097  0.5812
  186MOL0     H25047   5.453  -0.491   8.658 -2.7697  1.5899  0.4842
  186MOL0     H25048   5.549  -0.335   8.678  0.2690 -0.4521 -0.5348
  186MOL0     H25049   5.573  -0.338   8.431  1.6718  0.6344  0.9900
  186MOL0     H25050   5.507  -0.503   8.439 -1.6245  0.6707  2.9797
  186MOL0     H25051   5.755  -0.414   8.589  1.6829 -1.3722 -0.3753
  186MOL0     H25052   5.691  -0.572   8.580 -2.2422 -0.6932 -1.1476
  186MOL0     H25053   5.714  -0.571   8.331  3.4711 -2.3776 -1.7310
  186MOL0     H25054   5.810  -0.422   8.341  1.4284  1.4755  2.7746
  186MOL0     H25055   5.961  -0.550   8.507  3.7375  0.7471 -1.6226
  186MOL0     H25056   5.879  -0.702   8.465 -0.9482  1.0861  2.8959
  186MOL0     H25057   6.051  -0.524   8.280 -1.2627  0.6440 -2.8159
  186MOL0     H25058   5.937  -0.647   8.227 -1.1217  2.1621 -0.1075
  186MOL0     H25059   6.053  -0.825   8.358  0.1858 -0.4467 -0.0510
  186MOL0     H25060   6.149  -0.755   8.232  1.2189  1.7439 -0.8888
  186MOL0     H25061   6.348  -0.579   8.288  3.8111 -2.2422 -0.0216
  186MOL0     H25062   6.569  -0.506   8.411  0.4605 -0.1038 -0.1684
  186MOL0     H25063   6.503  -0.451   8.563 -1.1729  0.2259 -1.2516
  186MOL0     H25064   6.731  -0.583   8.560 -1.1301  1.2863 -0.6979
  186MOL0     H25065   6.607  -0.651   8.677  1.9724 -2.9007  0.0175
  186MOL0     H25066   6.620  -0.752   8.392 -0.4831  0.6815 -0.4522
  186MOL0     H25067   6.560  -0.829   8.542  0.9206  0.5122  3.1257
  186MOL0     H25068   6.780  -0.943   8.493  0.1355 -0.6463  0.5731
  186MOL0     H25069   6.797  -0.853   8.633 -1.5186 -0.9246  0.1136
  186MOL0     H25070   7.024  -0.900   8.665  1.5622 -0.9724 -1.0754
  186MOL0     H25071   7.261  -0.982   8.633  0.7484 -1.4255 -1.6544
  186MOL0     H25072   7.611  -1.203   8.393  2.0299 -0.6844 -0.7397
  186MOL0     H25073   7.837  -1.262   8.401 -4.2766  0.4068 -2.1463
  186MOL0     H25074   8.074  -1.325   8.441 -0.9330 -0.2771 -0.5637
  186MOL0     H25075   8.078  -1.190   8.316  1.1826  2.5281  0.9206
  186MOL0     H25076   8.282  -1.264   8.521 -2.8035  0.5880  1.7011
  186MOL0     H25077   8.292  -1.281   8.353 -1.3578 -0.5385  0.0369
  186MOL0     H25078   8.282  -1.038   8.320 -0.7027  0.2622 -0.2433
  186MOL0     H25079   8.278  -1.016   8.499  1.4496 -1.5975  2.5035
  186MOL0     H25080   8.504  -1.134   8.317 -0.4928 -1.1178  0.3946
  186MOL0     H25081   8.509  -1.142   8.497  1.6468  0.0947  0.2000
  186MOL0     H25082   8.472  -0.902   8.524 -2.1853  0.8785 -0.1828
  186MOL0     H25083   8.461  -0.882   8.352  0.7052 -3.3508 -1.8662
  186MOL0     H25084   8.701  -0.960   8.520  3.9275  0.8712 -1.5343
  186MOL0     H25085   8.701  -0.974   8.353  0.0836  2.3259 -2.6298
  186MOL0     H25086   8.617  -0.709   8.459  0.0997  0.0911 -0.8236
  186MOL0     H25087   8.704  -0.733   8.306  2.1034 -0.0890  0.1286
  186MOL0     H25088   8.833  -0.765   8.584 -2.5548 -0.4186 -0.7382
  186MOL0     H25089   8.916  -0.777   8.425 -0.2439  0.0072  0.0922
  186MOL0     H25090   7.940  -0.935   8.659 -0.6209  0.1926 -0.4351
  186MOL0     H25091   7.697  -0.871   8.654  1.3774 -1.9629  2.7786
  186MOL0     H25092   7.262  -0.828   8.234 -3.3616  3.7499 -1.2392
  186MOL0     H25093   7.024  -0.748   8.274 -3.5575  2.4562  4.1273
  186MOL0     H25094   5.256  -0.116   8.880  0.0432  1.4488  0.0882
  186MOL0     H25095   5.062   0.038   8.890  2.3577 -3.1262  1.7357
  186MOL0     H25096   4.627   0.051   8.651  0.3409  0.2637  0.4411
  186MOL0     H25097   4.413   0.116   8.566 -0.3245  0.9568 -1.0749
  186MOL0     H25098   4.416   0.403   8.299 -0.4333 -0.8907  0.6998
  186MOL0     H25099   4.367   0.528   8.415  1.1494 -0.0191 -1.2927
  186MOL0     H25100   4.199   0.315   8.254  0.8905 -0.8765  1.8177
  186MOL0     H25101   4.206   0.493   8.218 -0.9113 -0.5984 -1.1686
  186MOL0     H25102   4.070   0.383   8.464  0.7605 -0.1475 -0.8841
  186MOL0     H25103   4.005   0.396   8.291  1.2093  0.2254 -1.9223
  186MOL0     H25104   4.076   0.639   8.462  3.0664 -1.5114 -1.3233
  186MOL0     H25105   4.070   0.636   8.294  0.8221  0.3293 -0.2004
  186MOL0     H25106   3.664   0.702   8.364  0.8038  1.7193 -3.2422
  186MOL0     H25107   4.554   0.516   8.511 -0.1333 -0.1719  0.4094
  186MOL0     H25108   4.754   0.593   8.607  1.0947  0.6129  0.8403
  186MOL0     H25109   4.870   0.500   8.673 -0.6038  2.4448  0.7087
  186MOL0     H25110   4.869   0.516   8.498  1.0035  2.1917  0.3055
  187MOL0     O25111   8.743   3.959  10.014  0.4843 -0.4275  0.4571
  187MOL0     C25112   8.674   3.890  10.087 -0.7344 -0.6228  0.1883
  187MOL0     O25113   8.598   3.782  10.038 -0.2945 -0.7818 -0.5405
  187MOL0     C25114   8.620   3.736   9.908  0.8231  1.0196 -0.9608
  187MOL0     C25115   8.506   3.727   9.832 -0.1324  0.6531 -0.2793
  187MOL0     C25116   8.516   3.697   9.701 -0.6979  0.8652 -0.1544
  187MOL0     C25117   8.644   3.677   9.642  0.1870  0.2000  0.5392
  187MOL0     O25118   8.674   3.646   9.513  0.0349  0.4457  0.1059
  187MOL0     C25119   8.571   3.593   9.431  0.4321  0.0782 -0.4050
  187MOL0     C25120   8.629   3.556   9.294 -1.3647 -0.1614 -0.1502
  187MOL0     C25121   8.688   3.675   9.215  0.2442 -0.1946 -0.1252
  187MOL0     C25122   8.581   3.773   9.164 -0.1840 -0.6690  0.1432
  187MOL0     C25123   8.648   3.890   9.087  0.3187 -0.3514  0.6909
  187MOL0     C25124   8.751   3.852   8.988  0.0953  0.2907  0.6525
  187MOL0     C25125   8.819   3.965   8.912  0.3003  0.4252 -0.6625
  187MOL0     C25126   8.925   3.912   8.811 -0.4949 -0.3028 -0.2727
  187MOL0     N25127   9.050   3.892   8.890 -0.7839  0.5417 -0.3891
  187MOL0     C25128   9.125   3.995   8.957  0.7714  0.8636  0.2213
  187MOL0     C25129   9.235   3.925   9.004 -0.4408  0.5639  0.3640
  187MOL0     C25130   9.351   3.968   9.093  0.0163  0.4641 -0.0380
  187MOL0     C25131   9.360   4.122   9.105 -0.7275 -0.0074  0.2415
  187MOL0     C25132   9.453   4.168   9.214 -0.3449  0.6778 -0.4097
  187MOL0     C25133   9.604   4.125   9.201 -0.7556 -0.7194 -0.4292
  187MOL0     O25134   9.691   4.185   9.297 -0.0334 -0.4462  0.6047
  187MOL0     C25135   9.825   4.169   9.256  0.2430 -0.1420  0.0892
  187MOL0     C25136   9.890   4.043   9.241  0.6981  0.2948  1.3010
  187MOL0     C25137  10.033   4.032   9.219  0.0232  0.5365  0.2830
  187MOL0     C25138  10.104   4.154   9.191  0.2448  0.2439 -0.5403
  187MOL0     C25139  10.245   4.144   9.134  0.3612 -0.3677 -0.3364
  187MOL0     O25140  10.312   4.035   9.177  0.8836 -0.0928 -0.4253
  187MOL0     C25141  10.436   4.043   9.131  0.4824 -0.1840 -0.0944
  187MOL0     C25142  10.478   3.960   9.032 -0.5032  0.5136  0.4184
  187MOL0     C25143  10.607   3.950   8.987 -0.4666 -0.3183  0.0755
  187MOL0     C25144  10.713   4.028   9.041  0.2549 -0.1194  0.7811
  187MOL0     O25145  10.832   4.010   8.987 -0.3051 -0.1418  0.0035
  187MOL0     C25146  10.891   4.123   8.917 -0.9441  0.8165  0.5151
  187MOL0     C25147  11.043   4.103   8.905  1.3849  0.7193  0.5662
  187MOL0     C25148  11.109   4.225   8.825 -0.4246  0.1327 -0.1487
  187MOL0     C25149  11.259   4.210   8.815 -0.0671 -0.3420  0.4564
  187MOL0     C25150  11.328   4.210   8.954 -0.1432  0.5460  0.9403
  187MOL0     C25151  11.482   4.206   8.933 -0.6068  0.8709 -0.1866
  187MOL0     C25152  11.534   4.087   8.843 -0.1636 -0.0070 -0.6802
  187MOL0     C25153  11.481   3.948   8.878  0.3283 -0.2381  0.5111
  187MOL0    Cl25154  11.583   3.834   8.782 -0.3674  0.1202 -0.0943
  187MOL0     C25155  10.670   4.104   9.149  0.1510 -1.0948  0.4911
  187MOL0     C25156  10.539   4.111   9.198 -0.5732 -0.7310  0.4010
  187MOL0     O25157  10.273   4.219   9.042  0.2661  0.4222  0.0778
  187MOL0     C25158  10.034   4.281   9.193  0.1490  0.3319  0.6770
  187MOL0     C25159   9.905   4.288   9.233  0.0009 -0.0168 -0.0732
  187MOL0     N25160   9.217   3.795   8.968 -0.0457  0.4244  0.5876
  187MOL0     N25161   9.116   3.769   8.900 -0.3923  0.8804  0.0382
  187MOL0     C25162   8.755   3.682   9.726 -0.4326 -0.7074 -0.3227
  187MOL0     C25163   8.741   3.713   9.857 -0.3265 -0.2065 -1.4306
  187MOL0     C25164   8.676   3.925  10.233  0.0117  0.3111 -0.1292
  187MOL0     C25165   8.794   3.975  10.290 -0.0969  0.3544  1.0526
  187MOL0     C25166   8.787   4.013  10.425  0.1298 -0.5869 -0.7700
  187MOL0     C25167   8.682   3.994  10.506  0.0569  0.4159 -0.3937
  187MOL0     O25168   8.685   4.045  10.628 -0.4563  0.8662 -0.3171
  187MOL0     C25169   8.634   3.956  10.741  0.3328  0.2652  0.5689
  187MOL0     C25170   8.487   3.982  10.782 -0.4715  0.2446  0.2213
  187MOL0     C25171   8.459   4.120  10.831 -0.0706 -0.3544 -0.0226
  187MOL0     C25172   8.406   4.126  10.976 -0.6112 -0.3082  0.8969
  187MOL0     C25173   8.347   4.261  10.993  0.5035 -0.3059 -0.3233
  187MOL0     C25174   8.287   4.365  11.010  0.3599 -0.4701 -0.0015
  187MOL0     C25175   8.564   3.939  10.448  0.1030 -0.2356  0.4770
  187MOL0     C25176   8.558   3.907  10.310 -0.5062 -0.3825 -0.5620
  187MOL0     C25177   8.429   3.856  10.257 -0.0741  0.7452  0.2097
  187MOL0     H25178   8.408   3.756   9.867  0.0931  0.3130  0.6525
  187MOL0     H25179   8.427   3.696   9.638 -1.2600 -0.3266  0.6156
  187MOL0     H25180   8.525   3.510   9.484  1.6072 -0.0019  0.5292
  187MOL0     H25181   8.500   3.675   9.415  2.8629  2.3602 -0.2259
  187MOL0     H25182   8.545   3.516   9.237  0.7561 -1.5438 -2.4931
  187MOL0     H25183   8.717   3.492   9.308 -0.3229  1.5183  1.4371
  187MOL0     H25184   8.729   3.624   9.128  0.8932  0.0957  0.0014
  187MOL0     H25185   8.770   3.720   9.271  0.3936 -0.3896 -0.1888
  187MOL0     H25186   8.506   3.729   9.097  0.9350 -2.2121 -0.1597
  187MOL0     H25187   8.531   3.813   9.253 -0.7558  1.4954 -1.0731
  187MOL0     H25188   8.568   3.947   9.038  0.6212 -0.1355  0.4472
  187MOL0     H25189   8.693   3.964   9.154  4.5486  1.1755 -3.3559
  187MOL0     H25190   8.834   3.793   9.027  0.9767  0.8292 -0.3577
  187MOL0     H25191   8.697   3.783   8.923  0.9610 -1.8419  2.1048
  187MOL0     H25192   8.855   4.046   8.975  0.6962  0.1962 -0.5864
  187MOL0     H25193   8.744   4.011   8.846  0.0448 -0.2499 -0.8527
  187MOL0     H25194   8.898   3.821   8.757  3.0006 -0.2271 -2.4565
  187MOL0     H25195   8.949   3.984   8.732  0.2631  0.6946  0.8348
  187MOL0     H25196   9.089   4.098   8.956  0.1201  0.6886 -2.2342
  187MOL0     H25197   9.349   3.918   9.190 -2.1800 -0.6174 -0.5836
  187MOL0     H25198   9.443   3.931   9.047 -1.9679 -2.2811 -2.1436
  187MOL0     H25199   9.393   4.146   9.003 -2.6983  0.4530 -0.3184
  187MOL0     H25200   9.268   4.179   9.122  1.0358  2.8984  0.7596
  187MOL0     H25201   9.416   4.140   9.313 -0.3153  0.8633 -0.3452
  187MOL0     H25202   9.454   4.277   9.202  0.6459  0.9288  1.4489
  187MOL0     H25203   9.633   4.152   9.099 -2.3723  2.9506 -0.1106
  187MOL0     H25204   9.599   4.016   9.202 -1.8772 -0.6765  0.2979
  187MOL0     H25205   9.834   3.953   9.263 -1.7640  1.3770 -0.0197
  187MOL0     H25206  10.084   3.936   9.221  0.0169  0.4200 -2.2118
  187MOL0     H25207  10.410   3.897   8.975 -0.4726  1.7168 -1.0053
  187MOL0     H25208  10.632   3.877   8.911 -0.3700  0.7708 -0.9715
  187MOL0     H25209  10.854   4.127   8.814 -0.0371  0.5754  0.1709
  187MOL0     H25210  10.872   4.218   8.968 -1.1726 -0.2404  2.4718
  187MOL0     H25211  11.077   4.110   9.009 -1.1576  0.1974  1.5151
  187MOL0     H25212  11.061   4.010   8.852  0.8677  1.0331 -0.1772
  187MOL0     H25213  11.057   4.234   8.729  0.9550 -0.1445 -0.9448
  187MOL0     H25214  11.087   4.324   8.868 -0.9264  0.4567 -1.1178
  187MOL0     H25215  11.296   4.296   8.759  0.7794 -1.8545 -1.4404
  187MOL0     H25216  11.280   4.128   8.745  1.5111  0.8635 -0.5550
  187MOL0     H25217  11.305   4.120   9.012  0.8210  0.4420  1.1780
  187MOL0     H25218  11.290   4.299   9.003 -1.5619 -0.0485  0.9679
  187MOL0     H25219  11.497   4.298   8.874 -3.3654  0.6553 -1.3699
  187MOL0     H25220  11.537   4.206   9.027 -2.8968 -1.1380  1.2727
  187MOL0     H25221  11.643   4.081   8.844 -0.1776 -0.2516  0.2306
  187MOL0     H25222  11.514   4.112   8.738  2.6877  2.7806 -0.7309
  187MOL0     H25223  11.479   3.928   8.985  1.3047 -1.4504  0.3293
  187MOL0     H25224  11.376   3.948   8.849  1.1919  0.3124 -3.1429
  187MOL0     H25225  10.753   4.155   9.196  0.0609 -2.5558  2.3601
  187MOL0     H25226  10.537   4.170   9.290  1.0234 -1.4083  0.8989
  187MOL0     H25227  10.086   4.369   9.159  0.3292 -0.4538 -1.2101
  187MOL0     H25228   9.850   4.382   9.239  1.7171  0.9659  1.4305
  187MOL0     H25229   8.852   3.670   9.680 -1.0991 -0.8259 -1.7423
  187MOL0     H25230   8.826   3.710   9.925 -0.9786 -2.1125 -0.6468
  187MOL0     H25231   8.883   3.986  10.230 -0.0396 -1.9401  0.6224
  187MOL0     H25232   8.874   4.055  10.474 -0.5129 -0.8872  0.6676
  187MOL0     H25233   8.696   3.984  10.826 -1.5599 -0.8956  2.4287
  187MOL0     H25234   8.645   3.853  10.705  3.4422 -0.6344  3.6480
  187MOL0     H25235   8.462   3.914  10.865  1.6650  1.6357  2.1120
  187MOL0     H25236   8.417   3.954  10.702 -0.6128  0.8306  0.1406
  187MOL0     H25237   8.383   4.169  10.769 -2.4965 -0.5926  2.5474
  187MOL0     H25238   8.551   4.180  10.831  0.2242 -0.7216 -2.4998
  187MOL0     H25239   8.318   4.061  10.982 -1.8268  1.2449  0.7297
  187MOL0     H25240   8.490   4.094  11.038 -0.3446 -2.0138 -0.2600
  187MOL0     H25241   8.246   4.460  11.036  1.3835  0.2340 -0.8725
  187MOL0     H25242   8.476   3.917  10.507  1.2139 -1.0038  1.9102
  187MOL0     H25243   8.403   3.893  10.157 -0.7183  1.1654  0.5286
  187MOL0     H25244   8.436   3.747  10.261  0.8322  0.8265  2.0591
  187MOL0     H25245   8.343   3.868  10.323 -1.3639 -2.4702 -0.7090
  188MOL0     O25246   4.911   7.549   9.106  0.2825 -0.0531  0.0451
  188MOL0     C25247   4.895   7.540   9.231  0.7195 -0.2171 -0.3666
  188MOL0     O25248   4.992   7.564   9.321  0.5817 -0.7040 -0.5917
  188MOL0     C25249   5.128   7.585   9.294 -0.4364 -0.1335  0.4391
  188MOL0     C25250   5.209   7.671   9.371  0.7845 -0.0374  0.7388
  188MOL0     C25251   5.347   7.678   9.353  0.4049  0.6453  1.5869
  188MOL0     C25252   5.407   7.606   9.238 -0.8648 -0.2082 -0.4633
  188MOL0     O25253   5.536   7.602   9.198  0.2150  0.5586 -0.1192
  188MOL0     C25254   5.629   7.613   9.307  0.5430 -0.3830  0.2464
  188MOL0     C25255   5.776   7.600   9.258  0.0354 -0.1061  0.7300
  188MOL0     C25256   5.803   7.473   9.177  0.0548  0.5526 -0.4227
  188MOL0     C25257   5.928   7.490   9.092 -0.2331  0.4418  0.7144
  188MOL0     C25258   6.044   7.567   9.161  0.5218  0.8277 -0.1258
  188MOL0     C25259   6.173   7.553   9.087  0.7425 -0.4709  0.1401
  188MOL0     C25260   6.285   7.634   9.144 -0.7063  0.3504 -0.2348
  188MOL0     C25261   6.274   7.789   9.125  0.7351  0.1559  0.0491
  188MOL0     N25262   6.394   7.861   9.090  0.1507 -0.2994 -0.2416
  188MOL0     C25263   6.439   7.854   8.960 -0.6065  0.0293 -0.0933
  188MOL0     C25264   6.563   7.912   8.969 -0.0303  0.2900  0.0879
  188MOL0     C25265   6.652   7.935   8.852 -0.4457 -0.6029  1.4941
  188MOL0     C25266   6.728   7.806   8.830 -0.1633 -0.1856 -0.2571
  188MOL0     C25267   6.835   7.815   8.720  0.6229 -0.2412  0.5514
  188MOL0     C25268   6.944   7.917   8.733  1.3174 -0.4213  0.3926
  188MOL0     O25269   6.972   7.930   8.874 -0.4600 -0.0118  0.3451
  188MOL0     C25270   7.078   8.013   8.904  0.5379  0.1015  0.1987
  188MOL0     C25271   7.110   8.010   9.038 -0.4045 -1.2398  0.0647
  188MOL0     C25272   7.221   8.078   9.088  0.6999 -0.5204  0.1321
  188MOL0     C25273   7.301   8.153   8.999  0.4068 -0.7603  0.4281
  188MOL0     C25274   7.414   8.238   9.048  0.3111  0.4542 -0.6633
  188MOL0     O25275   7.456   8.213   9.175 -0.0115 -0.6593  1.0821
  188MOL0     C25276   7.565   8.281   9.218  0.2867  1.0388 -0.8061
  188MOL0     C25277   7.561   8.398   9.294 -1.4783 -0.4220  0.3716
  188MOL0     C25278   7.690   8.445   9.341 -0.6620  0.2843  0.1798
  188MOL0     C25279   7.805   8.374   9.312  0.2532  0.1481 -0.3714
  188MOL0     O25280   7.928   8.403   9.360 -0.3255 -0.5476  0.3505
  188MOL0     C25281   7.975   8.542   9.344 -1.4968  1.1978 -1.2742
  188MOL0     C25282   8.083   8.585   9.432  0.2019 -0.3221 -0.7392
  188MOL0     C25283   8.198   8.477   9.436  0.0910 -0.6865  0.0528
  188MOL0     C25284   8.307   8.525   9.532 -0.2153  0.1236 -0.3248
  188MOL0     C25285   8.386   8.644   9.486 -0.1399  0.1049  0.4486
  188MOL0     C25286   8.455   8.599   9.346 -0.5180 -0.6320 -0.5324
  188MOL0     C25287   8.584   8.673   9.316  0.2901 -1.0877 -0.6323
  188MOL0     C25288   8.618   8.682   9.168 -0.0043 -0.0205  1.3344
  188MOL0    Cl25289   8.668   8.516   9.113  0.5522 -0.1622  0.0743
  188MOL0     C25290   7.805   8.265   9.235 -0.2632 -0.7636  0.1396
  188MOL0     C25291   7.683   8.217   9.189  0.3979  0.4556 -0.5056
  188MOL0     O25292   7.460   8.323   8.978 -0.0387  0.1569  0.2658
  188MOL0     C25293   7.276   8.145   8.860  0.0421  0.0231 -0.1269
  188MOL0     C25294   7.167   8.069   8.816  0.7670  0.4440 -0.3699
  188MOL0     N25295   6.588   7.959   9.093 -0.1626  0.3377  0.1589
  188MOL0     N25296   6.488   7.926   9.169  1.1102  0.0780 -0.3434
  188MOL0     C25297   5.326   7.530   9.163  0.2090 -0.0890  0.5896
  188MOL0     C25298   5.194   7.509   9.194  0.4069 -0.5844  0.3871
  188MOL0     C25299   4.756   7.504   9.283 -0.1108  0.2040  0.4629
  188MOL0     C25300   4.745   7.498   9.421  0.1207 -0.6935 -0.3932
  188MOL0     C25301   4.625   7.454   9.482 -0.3972 -0.0928 -0.9169
  188MOL0     C25302   4.521   7.395   9.407  0.3385  0.1400 -0.5114
  188MOL0     O25303   4.415   7.354   9.477  0.9954 -0.2698 -0.2536
  188MOL0     C25304   4.355   7.224   9.452  0.0836 -0.4547  0.2367
  188MOL0     C25305   4.204   7.222   9.414 -0.2999  0.4025 -0.5171
  188MOL0     C25306   4.162   7.097   9.337 -0.7707 -0.7461 -0.0134
  188MOL0     C25307   4.175   6.972   9.416  0.1113 -0.4760 -0.4797
  188MOL0     C25308   4.081   6.984   9.530 -0.1833  0.7074 -1.3622
  188MOL0     C25309   4.001   6.981   9.620 -0.0197  1.3522 -0.9630
  188MOL0     C25310   4.526   7.383   9.268 -0.2362 -0.4392  0.1954
  188MOL0     C25311   4.646   7.443   9.210 -0.2297 -0.5754  0.2654
  188MOL0     C25312   4.650   7.445   9.057 -0.1418 -0.8683 -0.9003
  188MOL0     H25313   5.163   7.724   9.455  2.7080  1.2054  1.0675
  188MOL0     H25314   5.398   7.745   9.421  1.5266  2.4831 -0.8955
  188MOL0     H25315   5.621   7.709   9.359  0.6139 -1.0969  1.6196
  188MOL0     H25316   5.603   7.537   9.381 -0.6602  0.4917  0.7569
  188MOL0     H25317   5.844   7.603   9.343  1.9944  0.8770 -0.7879
  188MOL0     H25318   5.794   7.693   9.203  0.6102  0.9946  2.6790
  188MOL0     H25319   5.724   7.453   9.104  1.1201  1.9690 -2.0704
  188MOL0     H25320   5.810   7.381   9.235 -1.1252  0.4960 -0.3498
  188MOL0     H25321   5.964   7.392   9.061 -1.1296 -0.0862  1.2898
  188MOL0     H25322   5.904   7.542   8.999  0.8467 -2.0505 -1.0853
  188MOL0     H25323   6.008   7.670   9.161 -0.8962  0.3616 -0.6630
  188MOL0     H25324   6.053   7.530   9.264 -1.0750 -1.5758 -0.7604
  188MOL0     H25325   6.201   7.448   9.096  0.7904 -0.4222  0.6090
  188MOL0     H25326   6.152   7.580   8.983  1.1069 -0.9963 -0.0721
  188MOL0     H25327   6.374   7.611   9.084 -0.1853  0.6666  0.4103
  188MOL0     H25328   6.314   7.611   9.247  2.0486  1.7245 -0.5936
  188MOL0     H25329   6.209   7.818   9.042  2.4116  3.0296 -0.4149
  188MOL0     H25330   6.233   7.831   9.217  0.7400  0.8181 -0.2418
  188MOL0     H25331   6.379   7.807   8.883 -4.3394  3.6911  0.1978
  188MOL0     H25332   6.592   7.947   8.762  1.9590  2.8431  0.1410
  188MOL0     H25333   6.715   8.023   8.861  0.9926 -1.6207  1.6884
  188MOL0     H25334   6.785   7.782   8.920 -1.4985  0.4756  0.8000
  188MOL0     H25335   6.653   7.729   8.804  0.6189 -1.3237  0.7544
  188MOL0     H25336   6.793   7.828   8.619 -1.1598  5.4172  1.6780
  188MOL0     H25337   6.879   7.715   8.720 -2.4624 -1.7495  1.5027
  188MOL0     H25338   6.924   8.014   8.687 -2.4548  0.6010  3.6331
  188MOL0     H25339   7.026   7.876   8.673  0.9550 -0.9105  0.2288
  188MOL0     H25340   7.053   7.948   9.107 -0.3304 -2.2077 -0.7294
  188MOL0     H25341   7.232   8.078   9.196 -0.4379  0.5494  0.2630
  188MOL0     H25342   7.464   8.444   9.313 -0.2897  2.5778 -0.3818
  188MOL0     H25343   7.687   8.539   9.394 -1.0961  1.1271 -1.2773
  188MOL0     H25344   7.996   8.566   9.239  0.0132  0.8125 -1.0798
  188MOL0     H25345   7.891   8.606   9.374 -1.0271  0.6972  1.3127
  188MOL0     H25346   8.110   8.684   9.396  0.0013 -0.3089 -0.8534
  188MOL0     H25347   8.042   8.600   9.532 -0.1370  0.6400 -1.0145
  188MOL0     H25348   8.147   8.389   9.476 -2.9420  0.7733 -0.2830
  188MOL0     H25349   8.231   8.465   9.333 -1.5115  2.5357 -0.9675
  188MOL0     H25350   8.378   8.443   9.548 -0.1486  0.5551  1.9484
  188MOL0     H25351   8.257   8.540   9.628 -1.0792 -1.4794 -0.4864
  188MOL0     H25352   8.460   8.666   9.564  0.9683  0.3824 -0.6557
  188MOL0     H25353   8.312   8.722   9.466 -0.4715 -0.9379 -2.9987
  188MOL0     H25354   8.471   8.491   9.355 -1.5544 -0.7189  0.4887
  188MOL0     H25355   8.384   8.609   9.264 -1.4587  0.3071  0.3720
  188MOL0     H25356   8.666   8.627   9.371  0.1946  1.1276  1.5240
  188MOL0     H25357   8.578   8.773   9.358  1.1226 -0.9651 -0.7897
  188MOL0     H25358   8.525   8.711   9.118  0.9163  0.9068  0.1003
  188MOL0     H25359   8.704   8.743   9.141  2.0720 -3.5951 -0.8938
  188MOL0     H25360   7.897   8.209   9.219  0.6969  0.3777  1.5041
  188MOL0     H25361   7.691   8.128   9.128  1.9170 -0.6000  1.1450
  188MOL0     H25362   7.333   8.208   8.792  3.1977 -0.2854  2.0025
  188MOL0     H25363   7.148   8.077   8.710 -1.5446 -0.0739 -0.0496
  188MOL0     H25364   5.366   7.480   9.076 -0.2560  0.4597  0.0500
  188MOL0     H25365   5.134   7.441   9.133 -2.3795  1.2334  0.9124
  188MOL0     H25366   4.825   7.532   9.486 -0.9608 -1.1114  1.2041
  188MOL0     H25367   4.596   7.468   9.586  0.9958 -1.7699 -0.2621
  188MOL0     H25368   4.368   7.159   9.539 -2.6674 -0.9121  0.4086
  188MOL0     H25369   4.413   7.164   9.382  0.8804 -1.1628  1.4625
  188MOL0     H25370   4.200   7.304   9.342  1.3699 -0.9434 -2.2331
  188MOL0     H25371   4.148   7.250   9.504  0.7474 -0.0096  0.2841
  188MOL0     H25372   4.224   7.087   9.248 -2.9297 -2.4468 -1.4263
  188MOL0     H25373   4.059   7.125   9.310 -0.5727 -0.4005 -0.4124
  188MOL0     H25374   4.144   6.879   9.366  1.2896 -2.2512  1.8821
  188MOL0     H25375   4.283   6.969   9.438  0.8177 -1.4208 -3.5328
  188MOL0     H25376   3.912   6.981   9.680 -0.3649 -1.5988 -1.3172
  188MOL0     H25377   4.454   7.324   9.212  0.1956 -3.0012  2.1597
  188MOL0     H25378   4.549   7.436   9.018 -1.6587 -1.3184  2.7403
  188MOL0     H25379   4.689   7.544   9.033  0.3039 -0.4727  1.2412
  188MOL0     H25380   4.708   7.358   9.023 -0.1527 -1.5921  0.8070
  189MOL0     O25381   1.700   1.490  10.923 -0.4706 -0.6262 -0.3864
  189MOL0     C25382   1.683   1.376  10.924  0.2193  0.7841  0.2775
  189MOL0     O25383   1.786   1.281  10.928 -0.1616  0.7186  0.3005
  189MOL0     C25384   1.908   1.336  10.931 -0.3104 -0.1616 -0.9498
  189MOL0     C25385   1.991   1.298  10.829  1.2025  0.3154  1.0533
  189MOL0     C25386   2.124   1.335  10.832 -0.8134  0.0921 -0.2076
  189MOL0     C25387   2.183   1.400  10.939  0.2294  0.8496 -0.3948
  189MOL0     O25388   2.321   1.427  10.938  0.1310 -0.2255 -0.1045
  189MOL0     C25389   2.417   1.363  10.847 -0.1411 -0.3720  0.6852
  189MOL0     C25390   2.430   1.432  10.710  0.3592  0.2970 -0.8645
  189MOL0     C25391   2.555   1.401  10.630  0.0828 -0.5580 -0.0351
  189MOL0     C25392   2.570   1.504  10.515  0.5812  0.1573 -0.6296
  189MOL0     C25393   2.676   1.449  10.416 -0.1254  0.4286 -1.0942
  189MOL0     C25394   2.748   1.559  10.334 -0.9371 -0.1532 -0.5340
  189MOL0     C25395   2.863   1.499  10.264 -0.6295 -0.3618  0.2971
  189MOL0     C25396   2.997   1.499  10.338  0.3339 -0.4407  0.5488
  189MOL0     N25397   3.098   1.436  10.249 -0.0385  0.1473  0.3896
  189MOL0     C25398   3.152   1.489  10.138 -0.0909  0.7704 -0.1766
  189MOL0     C25399   3.234   1.394  10.090  0.3453 -0.2065  0.0981
  189MOL0     C25400   3.301   1.413   9.960  0.6016  0.2717 -0.2402
  189MOL0     C25401   3.413   1.521   9.976  0.4525  0.0348 -0.9674
  189MOL0     C25402   3.525   1.510   9.863 -0.7391  0.1509 -0.8865
  189MOL0     C25403   3.594   1.637   9.834  0.9621 -0.5041 -0.2099
  189MOL0     O25404   3.682   1.625   9.717 -0.0128  0.5405  0.1918
  189MOL0     C25405   3.812   1.625   9.730 -0.4851  0.6579  0.1362
  189MOL0     C25406   3.883   1.684   9.618 -0.5473 -0.6262 -0.5210
  189MOL0     C25407   4.018   1.701   9.635  0.0368 -0.1240  1.3151
  189MOL0     C25408   4.092   1.669   9.746 -0.5856  0.4559  0.5112
  189MOL0     C25409   4.233   1.693   9.739  0.6906  0.5449 -0.9325
  189MOL0     O25410   4.286   1.758   9.630  0.5479  0.7732  0.2725
  189MOL0     C25411   4.410   1.809   9.638  0.0697 -0.7175 -1.4091
  189MOL0     C25412   4.440   1.903   9.738 -0.0659 -0.6240 -0.3459
  189MOL0     C25413   4.571   1.954   9.763 -0.4185  0.7079 -0.2348
  189MOL0     C25414   4.671   1.901   9.683  0.5763 -0.3935  0.2661
  189MOL0     O25415   4.805   1.938   9.695  0.8057 -0.4148 -0.3185
  189MOL0     C25416   4.843   2.078   9.726 -0.4460  0.7942 -0.3038
  189MOL0     C25417   4.986   2.103   9.681 -0.0917  0.1445 -0.3518
  189MOL0     C25418   5.092   2.048   9.776  0.3817  0.0259 -0.3848
  189MOL0     C25419   5.230   2.064   9.715 -0.2448 -0.3936 -0.0459
  189MOL0     C25420   5.340   2.013   9.806  0.0404  0.1428  0.2891
  189MOL0     C25421   5.476   2.038   9.744  0.2992  0.0263 -0.4664
  189MOL0     C25422   5.583   2.060   9.854 -0.4302  0.2304  0.1154
  189MOL0     C25423   5.723   2.094   9.783  1.0521 -1.1072  0.0379
  189MOL0    Cl25424   5.824   2.161   9.910 -0.2668  0.8199  0.1740
  189MOL0     C25425   4.644   1.815   9.566  0.2759  0.9395 -0.2580
  189MOL0     C25426   4.508   1.777   9.551  0.4102 -0.5804  0.1374
  189MOL0     O25427   4.303   1.640   9.830  0.4078 -0.7370 -0.1119
  189MOL0     C25428   4.024   1.606   9.848 -0.1977  0.8176 -0.4620
  189MOL0     C25429   3.887   1.583   9.838  0.0371 -0.7261  0.1999
  189MOL0     N25430   3.248   1.297  10.185  0.6243 -0.6436  0.1506
  189MOL0     N25431   3.161   1.324  10.274  0.1782  0.2431  0.6396
  189MOL0     C25432   2.096   1.427  11.051  0.0954  0.5181 -0.2970
  189MOL0     C25433   1.961   1.396  11.046  0.1400  0.6934  0.3609
  189MOL0     C25434   1.542   1.334  10.921  0.5249 -0.9023  0.8826
  189MOL0     C25435   1.525   1.194  10.953  0.2247 -0.5477  0.3602
  189MOL0     C25436   1.394   1.135  10.955  0.7371  0.8235  0.6343
  189MOL0     C25437   1.283   1.217  10.916 -0.5976 -0.1314 -0.4170
  189MOL0     O25438   1.169   1.143  10.920  0.4539 -0.3523  0.6135
  189MOL0     C25439   1.041   1.208  10.929 -1.2219 -0.6730 -0.5387
  189MOL0     C25440   0.945   1.095  10.947  0.8871 -0.3164 -0.2094
  189MOL0     C25441   0.953   1.034  11.081 -0.6396 -0.5167 -0.4948
  189MOL0     C25442   0.859   0.912  11.100  0.9051  0.7717  0.9702
  189MOL0     C25443   0.719   0.946  11.077  0.1150 -0.0867  0.0020
  189MOL0     C25444   0.599   0.980  11.076  0.0682  0.3624 -0.2675
  189MOL0     C25445   1.294   1.349  10.892 -0.3213 -0.4978 -0.5282
  189MOL0     C25446   1.421   1.413  10.884 -0.2799  0.7084  0.4286
  189MOL0     C25447   1.426   1.556  10.842  0.1394 -0.2790  0.5082
  189MOL0     H25448   1.958   1.255  10.735 -0.5064 -0.0167  1.7676
  189MOL0     H25449   2.177   1.313  10.740  0.7435  2.3655  0.0578
  189MOL0     H25450   2.514   1.369  10.898  0.4659  0.5789 -0.5252
  189MOL0     H25451   2.399   1.257  10.828 -1.8570  0.1873 -1.0226
  189MOL0     H25452   2.427   1.540  10.729  2.1810  0.3266 -0.5353
  189MOL0     H25453   2.352   1.397  10.641  1.0559 -1.7089 -0.6820
  189MOL0     H25454   2.535   1.305  10.583  0.1497  1.2184 -4.1445
  189MOL0     H25455   2.645   1.404  10.692 -0.0540  2.3874  0.1703
  189MOL0     H25456   2.472   1.514  10.467  0.9036  0.1984 -1.2860
  189MOL0     H25457   2.601   1.603  10.548  1.6941  0.7648 -3.2428
  189MOL0     H25458   2.739   1.381  10.474 -3.5430 -2.0721 -0.0048
  189MOL0     H25459   2.626   1.371  10.357  1.8289 -1.2147 -0.7106
  189MOL0     H25460   2.671   1.602  10.269 -0.0180 -0.5691 -1.9286
  189MOL0     H25461   2.779   1.635  10.407  0.2429 -0.3457 -0.8231
  189MOL0     H25462   2.883   1.565  10.180  2.3415 -1.2291  0.2342
  189MOL0     H25463   2.834   1.400  10.225  0.4576 -0.6350  0.1614
  189MOL0     H25464   3.019   1.606  10.351 -3.3218  0.3366  1.3925
  189MOL0     H25465   2.985   1.444  10.432  0.6252 -3.6477 -1.1402
  189MOL0     H25466   3.128   1.583  10.091  0.4470  1.1967  0.3903
  189MOL0     H25467   3.339   1.314   9.933 -1.7578 -0.3955 -1.3263
  189MOL0     H25468   3.218   1.440   9.894  0.5466 -0.3480 -0.4374
  189MOL0     H25469   3.372   1.622   9.982  1.8177  0.5383  0.8283
  189MOL0     H25470   3.471   1.508  10.068  0.8236  0.4068 -1.1431
  189MOL0     H25471   3.471   1.491   9.769 -1.7245  0.6466 -0.4356
  189MOL0     H25472   3.599   1.434   9.888  0.9570  1.6507 -1.1310
  189MOL0     H25473   3.656   1.659   9.921 -0.6995  0.4806  0.7950
  189MOL0     H25474   3.520   1.716   9.816  0.2882 -1.7816 -3.9589
  189MOL0     H25475   3.846   1.716   9.521  0.3844  0.7351 -0.4565
  189MOL0     H25476   4.074   1.747   9.553  3.8549 -0.3521  3.5643
  189MOL0     H25477   4.357   1.946   9.793  1.1875  1.1656  0.2239
  189MOL0     H25478   4.596   2.022   9.844 -1.9662  0.0494  0.8563
  189MOL0     H25479   4.776   2.155   9.687 -1.8871 -0.5382 -0.5353
  189MOL0     H25480   4.832   2.086   9.835 -2.7882 -2.9812 -0.0846
  189MOL0     H25481   4.997   2.057   9.583  0.8252  1.2174 -0.7853
  189MOL0     H25482   4.996   2.212   9.693  1.3989 -0.1249  1.2479
  189MOL0     H25483   5.079   2.102   9.870  1.1147  0.4430 -0.5175
  189MOL0     H25484   5.078   1.939   9.783  0.7226 -0.0114 -0.2155
  189MOL0     H25485   5.238   2.169   9.683 -1.2663 -0.9110 -2.1945
  189MOL0     H25486   5.233   2.008   9.621 -3.1591 -0.7416 -0.0063
  189MOL0     H25487   5.315   1.911   9.837 -3.7192  1.2208  1.3580
  189MOL0     H25488   5.340   2.066   9.902  2.8425  3.2932 -1.2194
  189MOL0     H25489   5.499   1.960   9.671 -0.9799  1.0867 -2.0754
  189MOL0     H25490   5.464   2.130   9.686  0.1814  0.5010  0.3050
  189MOL0     H25491   5.602   1.967   9.909  1.3128 -0.6350 -1.8042
  189MOL0     H25492   5.558   2.145   9.917  1.3538 -1.8724  3.9744
  189MOL0     H25493   5.777   2.007   9.745  3.4217 -0.5243  1.8307
  189MOL0     H25494   5.717   2.168   9.703 -0.4059 -1.6083 -0.3375
  189MOL0     H25495   4.719   1.767   9.503  0.1376  3.1311 -2.2159
  189MOL0     H25496   4.488   1.712   9.467  4.3790  0.4237 -1.8026
  189MOL0     H25497   4.077   1.570   9.935 -3.2122 -0.8834  0.8225
  189MOL0     H25498   3.828   1.540   9.919  0.2728  2.0389  1.9637
  189MOL0     H25499   2.158   1.466  11.131  4.9181 -1.5895 -2.6070
  189MOL0     H25500   1.891   1.388  11.128 -2.5940 -2.8007 -1.9717
  189MOL0     H25501   1.615   1.136  10.974  1.0131 -0.0685 -1.4625
  189MOL0     H25502   1.362   1.032  10.962 -1.2525  1.1338 -2.2384
  189MOL0     H25503   1.015   1.261  10.837 -0.9704  2.5320  1.1094
  189MOL0     H25504   1.039   1.289  11.002 -3.2843 -2.9961  2.2574
  189MOL0     H25505   0.966   1.021  10.870  0.7978  0.2828 -0.8203
  189MOL0     H25506   0.845   1.138  10.954 -0.2423 -3.0146  3.9028
  189MOL0     H25507   0.929   1.108  11.159  2.2367 -0.7569  0.7375
  189MOL0     H25508   1.052   0.992  11.099  0.7118  0.8491 -4.0267
  189MOL0     H25509   0.875   0.838  11.021 -2.0556  1.5207 -0.4705
  189MOL0     H25510   0.875   0.873  11.200  0.5597 -2.1142 -0.0198
  189MOL0     H25511   0.494   0.999  11.069 -0.4611 -2.1793 -0.1295
  189MOL0     H25512   1.199   1.401  10.887 -1.3101 -2.2166 -0.3097
  189MOL0     H25513   1.336   1.577  10.784 -1.4128  0.6947  3.1050
  189MOL0     H25514   1.424   1.616  10.933 -3.3153 -0.5131  0.7329
  189MOL0     H25515   1.505   1.576  10.769 -0.4479  1.8346  0.3992
  190MOL0     O25516   1.441   2.249   3.734  0.2890 -0.4166 -0.4376
  190MOL0     C25517   1.404   2.153   3.801  0.1691 -0.1034  0.4039
  190MOL0     O25518   1.486   2.066   3.864  0.6742 -0.3216 -0.1228
  190MOL0     C25519   1.617   2.105   3.868 -0.1159 -0.7141 -1.1144
  190MOL0     C25520   1.655   2.216   3.946  0.2211  0.0101  0.4538
  190MOL0     C25521   1.785   2.264   3.960 -0.2552  0.6535 -0.4696
  190MOL0     C25522   1.880   2.196   3.894  0.0459 -0.8094 -0.2284
  190MOL0     O25523   2.006   2.255   3.895 -0.7103 -0.1804 -1.2791
  190MOL0     C25524   2.025   2.381   3.826  0.6320  0.2245  0.8001
  190MOL0     C25525   1.999   2.504   3.905  0.2655  0.1637  0.5290
  190MOL0     C25526   2.086   2.522   4.027  0.0085  0.1975  0.9028
  190MOL0     C25527   2.239   2.527   3.992  0.6266 -0.1444  0.1568
  190MOL0     C25528   2.328   2.568   4.112 -0.5432 -0.2350 -0.3130
  190MOL0     C25529   2.320   2.459   4.222 -0.6547  0.4100  0.6808
  190MOL0     C25530   2.419   2.476   4.334  0.1287 -0.5313  0.3909
  190MOL0     C25531   2.407   2.365   4.435 -0.0619  0.7832  0.5512
  190MOL0     N25532   2.519   2.377   4.524  0.0361  0.1990  0.0571
  190MOL0     C25533   2.534   2.477   4.616 -0.0013  0.1184  0.5202
  190MOL0     C25534   2.669   2.480   4.642  0.1042 -0.3164 -0.6337
  190MOL0     C25535   2.734   2.584   4.726 -1.0312 -0.5056 -0.9474
  190MOL0     C25536   2.739   2.535   4.877 -0.4479 -0.2018  0.1925
  190MOL0     C25537   2.864   2.445   4.880  0.9334  0.3712 -0.4423
  190MOL0     C25538   2.889   2.429   5.036  0.3310  0.0090  0.7077
  190MOL0     O25539   3.013   2.373   5.056  0.0603 -0.6505  0.3944
  190MOL0     C25540   3.127   2.453   5.057  0.2614 -0.1824  0.1862
  190MOL0     C25541   3.244   2.392   5.092  0.0480 -0.7256 -1.0220
  190MOL0     C25542   3.371   2.448   5.092  0.7548 -0.1013 -1.5466
  190MOL0     C25543   3.377   2.579   5.041 -0.3808  0.3791  0.1250
  190MOL0     C25544   3.502   2.649   5.036 -0.5931 -0.1167 -0.6946
  190MOL0     O25545   3.509   2.733   4.927  0.0751 -0.0838 -0.2748
  190MOL0     C25546   3.610   2.826   4.931 -0.9538  0.4211  1.2309
  190MOL0     C25547   3.641   2.905   5.041 -0.5677 -0.0583 -0.4824
  190MOL0     C25548   3.733   3.007   5.034 -0.2259  0.3530  0.4447
  190MOL0     C25549   3.809   3.022   4.916  0.3135 -0.3122  0.7584
  190MOL0     O25550   3.898   3.125   4.893  0.5689  0.8849  0.1700
  190MOL0     C25551   3.897   3.236   4.979 -0.4653 -0.2951 -0.0078
  190MOL0     C25552   3.972   3.356   4.916 -0.5428 -0.2931  1.1287
  190MOL0     C25553   4.121   3.338   4.921 -0.2308 -0.7350 -0.4120
  190MOL0     C25554   4.196   3.471   4.885  0.2520 -0.1653 -0.7474
  190MOL0     C25555   4.339   3.463   4.936  0.2992 -0.2107  0.2721
  190MOL0     C25556   4.406   3.592   4.902  0.3609  0.9964 -0.2168
  190MOL0     C25557   4.545   3.595   4.950 -0.3583  0.0712  0.4623
  190MOL0     C25558   4.633   3.496   4.877 -0.1987  0.9532 -0.0239
  190MOL0    Cl25559   4.794   3.525   4.945 -0.1858  0.2162  0.1740
  190MOL0     C25560   3.782   2.938   4.808  0.2718  0.2588  0.8708
  190MOL0     C25561   3.682   2.841   4.813 -0.3781 -0.2901 -0.3375
  190MOL0     O25562   3.593   2.621   5.113 -0.8641  0.6908  0.4814
  190MOL0     C25563   3.262   2.652   5.002 -0.2364 -0.1877 -0.1740
  190MOL0     C25564   3.135   2.587   5.010  1.0108 -0.0043 -0.6172
  190MOL0     N25565   2.729   2.370   4.580 -0.0655 -0.3866 -0.1393
  190MOL0     N25566   2.640   2.315   4.503 -0.4000  1.1929 -1.0540
  190MOL0     C25567   1.856   2.084   3.807  0.3169 -0.1208  0.3373
  190MOL0     C25568   1.721   2.042   3.798  0.7862 -0.0949 -0.3311
  190MOL0     C25569   1.263   2.115   3.798 -0.4305  0.0213 -0.9167
  190MOL0     C25570   1.213   2.039   3.688 -0.0889  0.2591 -0.1131
  190MOL0     C25571   1.079   2.013   3.667 -0.2278 -0.1948 -0.2313
  190MOL0     C25572   0.989   2.040   3.771 -0.5604  0.1834  0.6784
  190MOL0     O25573   0.866   1.981   3.761 -0.4153 -0.4519  0.5018
  190MOL0     C25574   0.793   1.943   3.881  0.5257  0.1924  0.0307
  190MOL0     C25575   0.664   1.858   3.868 -0.0342  0.0706 -0.2571
  190MOL0     C25576   0.655   1.759   3.983  0.4014  1.4540 -0.6435
  190MOL0     C25577   0.632   1.837   4.115 -0.8422 -0.4106 -0.0020
  190MOL0     C25578   0.603   1.738   4.221 -0.1604 -0.2993  0.4699
  190MOL0     C25579   0.548   1.663   4.299 -0.1060 -0.6158  0.1388
  190MOL0     C25580   1.034   2.112   3.884 -0.7233  0.2434  0.0673
  190MOL0     C25581   1.174   2.152   3.902 -0.1159  0.0060  0.3663
  190MOL0     C25582   1.219   2.230   4.024  0.1642  1.3833  0.0006
  190MOL0     H25583   1.580   2.279   3.993  1.3017  1.6489  0.0729
  190MOL0     H25584   1.804   2.349   4.025 -0.3816 -0.8870  1.7018
  190MOL0     H25585   2.125   2.380   3.781 -0.2450  0.5077 -1.2530
  190MOL0     H25586   1.960   2.381   3.739  1.4958  2.9770  0.0409
  190MOL0     H25587   1.893   2.516   3.926  0.8781  0.3211  4.1403
  190MOL0     H25588   2.022   2.587   3.837  0.8024 -0.2622  0.1721
  190MOL0     H25589   2.064   2.440   4.095 -0.7285 -1.0982 -0.8012
  190MOL0     H25590   2.068   2.618   4.076  4.8234  1.1976  1.1824
  190MOL0     H25591   2.260   2.429   3.947 -1.3594  0.6527 -2.8206
  190MOL0     H25592   2.242   2.594   3.906  0.6791 -1.2639 -0.7482
  190MOL0     H25593   2.431   2.581   4.079 -1.1544 -0.8989 -2.6931
  190MOL0     H25594   2.286   2.662   4.150 -0.2712  0.8741 -2.5884
  190MOL0     H25595   2.221   2.432   4.262 -0.3855  0.2103  1.2237
  190MOL0     H25596   2.362   2.374   4.168  1.1509  0.7108  1.5535
  190MOL0     H25597   2.392   2.572   4.379 -1.4863  0.0123 -1.5938
  190MOL0     H25598   2.523   2.489   4.302 -0.2287 -0.7012 -0.9021
  190MOL0     H25599   2.306   2.372   4.477 -1.7610 -0.3176 -2.9355
  190MOL0     H25600   2.400   2.267   4.388  0.4338  1.0290 -0.0589
  190MOL0     H25601   2.459   2.550   4.645  1.7541  1.6474  1.4037
  190MOL0     H25602   2.836   2.597   4.689 -0.6583 -1.4962 -0.3037
  190MOL0     H25603   2.678   2.678   4.730 -0.0382  0.0567  0.3760
  190MOL0     H25604   2.740   2.627   4.936  2.8188  0.6869 -1.0180
  190MOL0     H25605   2.647   2.481   4.900 -0.4783 -0.4739 -0.5142
  190MOL0     H25606   2.954   2.481   4.830  2.3357 -2.4536 -0.1814
  190MOL0     H25607   2.837   2.349   4.835  0.6520 -0.3901  1.2602
  190MOL0     H25608   2.807   2.363   5.066 -2.0151 -0.0161 -4.6179
  190MOL0     H25609   2.892   2.526   5.087  0.7949  1.1990 -1.4443
  190MOL0     H25610   3.232   2.287   5.119  0.0681 -1.2880 -3.0045
  190MOL0     H25611   3.454   2.393   5.134  0.2674 -0.2761 -0.7904
  190MOL0     H25612   3.593   2.885   5.136 -2.4293  1.7108 -0.9725
  190MOL0     H25613   3.754   3.044   5.133  1.0237  1.2794 -0.1366
  190MOL0     H25614   3.798   3.280   4.987  0.2126  1.5100 -0.9809
  190MOL0     H25615   3.943   3.215   5.076  1.0392  1.1031 -0.3728
  190MOL0     H25616   3.923   3.379   4.821  0.9260  0.3319  0.4946
  190MOL0     H25617   3.954   3.447   4.974 -1.2220 -0.0624  0.5678
  190MOL0     H25618   4.154   3.293   5.015  0.3975  0.1276 -0.2152
  190MOL0     H25619   4.140   3.266   4.841 -0.8284  0.1892 -1.4192
  190MOL0     H25620   4.154   3.555   4.941 -0.1584 -0.2921 -0.8669
  190MOL0     H25621   4.187   3.488   4.778 -1.0949 -1.5759 -0.8953
  190MOL0     H25622   4.384   3.380   4.881 -0.7167 -0.8542  0.3927
  190MOL0     H25623   4.344   3.450   5.045  1.9517  2.6307  0.6548
  190MOL0     H25624   4.398   3.606   4.794  2.5123  0.9588 -0.4256
  190MOL0     H25625   4.349   3.669   4.954 -0.9109 -0.6209  0.9113
  190MOL0     H25626   4.557   3.582   5.058 -0.2642  1.3286  0.6167
  190MOL0     H25627   4.576   3.698   4.926 -0.3782 -0.0586 -0.1279
  190MOL0     H25628   4.615   3.393   4.909  1.7338  0.7740  0.6196
  190MOL0     H25629   4.636   3.513   4.769  0.2534  0.1739 -0.1406
  190MOL0     H25630   3.849   2.954   4.724  0.7493  0.5786  1.3069
  190MOL0     H25631   3.657   2.782   4.725 -3.7837  0.4089  0.0121
  190MOL0     H25632   3.254   2.751   4.958 -1.5565  1.3572  3.1965
  190MOL0     H25633   3.053   2.634   4.957 -1.1979 -0.3450  2.2466
  190MOL0     H25634   1.935   2.039   3.748  0.0567  0.6949 -0.6696
  190MOL0     H25635   1.687   1.961   3.734 -0.0418  0.7223 -0.9603
  190MOL0     H25636   1.283   2.003   3.614  0.6315  2.0066 -0.3196
  190MOL0     H25637   1.056   1.965   3.573  2.2820  0.5254 -1.2802
  190MOL0     H25638   0.770   2.030   3.943  0.9107 -0.8514  1.7038
  190MOL0     H25639   0.867   1.900   3.950 -1.8582 -0.3060  2.4546
  190MOL0     H25640   0.672   1.810   3.770  0.5916  0.4900 -0.4225
  190MOL0     H25641   0.576   1.920   3.849 -0.8369 -1.5895 -2.4749
  190MOL0     H25642   0.743   1.696   3.989  1.6061  3.2304  1.7981
  190MOL0     H25643   0.571   1.697   3.951 -0.3576  2.7968 -1.3584
  190MOL0     H25644   0.721   1.892   4.145 -1.7756  1.8819 -1.1720
  190MOL0     H25645   0.550   1.909   4.108 -0.8518 -0.3123  0.9952
  190MOL0     H25646   0.482   1.608   4.363 -0.6525  1.3149  1.3293
  190MOL0     H25647   0.968   2.119   3.970  1.5566  1.3431  1.8183
  190MOL0     H25648   1.246   2.334   4.001  0.1739  1.6296  1.0894
  190MOL0     H25649   1.136   2.235   4.095  0.1298 -1.6886  0.2873
  190MOL0     H25650   1.299   2.175   4.074  0.8635  2.1756 -0.2158
  191MOL0     O25651  11.046   6.305   1.925  0.1174  0.3178  0.7051
  191MOL0     C25652  10.975   6.238   2.001  0.1796 -0.1876  0.1887
  191MOL0     O25653  11.014   6.196   2.127 -0.3069  0.2966 -0.1245
  191MOL0     C25654  11.139   6.218   2.171 -0.0505  0.4633 -0.2161
  191MOL0     C25655  11.253   6.155   2.115 -0.2481 -0.1647  0.2278
  191MOL0     C25656  11.379   6.178   2.181 -0.1664 -0.3598  0.0238
  191MOL0     C25657  11.396   6.278   2.277  0.5446 -0.2379 -0.4303
  191MOL0     O25658  11.523   6.296   2.319  0.1687  0.8442  0.5421
  191MOL0     C25659  11.561   6.252   2.458  0.6486 -0.8911  0.4899
  191MOL0     C25660  11.701   6.300   2.478 -1.1441 -0.3040  0.5360
  191MOL0     C25661  11.743   6.300   2.622 -0.3421  1.0879 -0.7327
  191MOL0     C25662  11.693   6.430   2.683 -0.4260  0.2647 -0.8824
  191MOL0     C25663  11.723   6.438   2.835  1.2861  0.6176  0.2610
  191MOL0     C25664  11.610   6.348   2.914 -0.0691  0.4404 -0.6136
  191MOL0     C25665  11.616   6.362   3.059  0.2308 -0.6534 -0.0374
  191MOL0     C25666  11.474   6.329   3.122  0.3517  0.2645  0.0706
  191MOL0     N25667  11.422   6.196   3.092 -0.8128 -0.5925  0.2770
  191MOL0     C25668  11.468   6.076   3.127  0.3961  0.6556 -0.8998
  191MOL0     C25669  11.390   5.984   3.073 -0.1976  0.4346 -0.6763
  191MOL0     C25670  11.392   5.831   3.063 -0.1531 -0.3592  0.7775
  191MOL0     C25671  11.347   5.754   3.182  0.0626  0.4189 -0.6592
  191MOL0     C25672  11.447   5.743   3.295  0.5231 -0.6558  0.3368
  191MOL0     C25673  11.371   5.682   3.411 -0.2424  0.6196  0.1475
  191MOL0     O25674  11.320   5.784   3.487 -0.2777 -0.0009 -0.1590
  191MOL0     C25675  11.246   5.737   3.588  1.2945  0.7287 -1.0296
  191MOL0     C25676  11.104   5.768   3.591  0.1065  0.3448  0.9698
  191MOL0     C25677  11.023   5.706   3.689  0.0710 -1.1545 -0.4009
  191MOL0     C25678  11.072   5.624   3.794 -0.3698 -0.1102 -0.3397
  191MOL0     C25679  10.986   5.574   3.898  0.2655  0.4099 -0.1192
  191MOL0     O25680  10.851   5.550   3.857 -0.1822  0.3685  0.0111
  191MOL0     C25681  10.750   5.533   3.949  1.5009  0.5520 -0.0822
  191MOL0     C25682  10.759   5.452   4.063  0.0362  0.1045 -0.6544
  191MOL0     C25683  10.652   5.419   4.145  0.0163 -0.1785 -0.2627
  191MOL0     C25684  10.524   5.463   4.111  0.2207 -0.2699 -0.0349
  191MOL0     O25685  10.427   5.425   4.189  0.1707 -0.3776  0.1988
  191MOL0     C25686  10.433   5.491   4.317 -0.9759 -0.0556  0.0820
  191MOL0     C25687  10.327   5.432   4.412 -0.8158 -0.3246 -0.3993
  191MOL0     C25688  10.193   5.470   4.360 -0.0304  0.1049  0.3321
  191MOL0     C25689  10.093   5.442   4.474 -0.6059 -0.2913  0.3731
  191MOL0     C25690   9.951   5.509   4.452  0.4930  0.0742 -0.1578
  191MOL0     C25691   9.870   5.504   4.584  0.2858  0.3024  0.4959
  191MOL0     C25692   9.751   5.600   4.571  0.0213  0.8810 -0.3247
  191MOL0     C25693   9.694   5.614   4.709  0.1415 -0.4993 -0.8322
  191MOL0    Cl25694   9.531   5.693   4.705  0.1565 -0.4959  0.0023
  191MOL0     C25695  10.512   5.536   3.992 -0.2071 -0.3618  0.3967
  191MOL0     C25696  10.625   5.576   3.918  0.6878  0.0529  0.4375
  191MOL0     O25697  11.033   5.581   4.009 -0.6189  0.6877 -0.4812
  191MOL0     C25698  11.211   5.591   3.787  0.1985 -0.8381 -0.4647
  191MOL0     C25699  11.297   5.647   3.688 -0.9442  0.2521  0.8192
  191MOL0     N25700  11.306   6.050   2.988  0.0577 -0.2529  0.0827
  191MOL0     N25701  11.330   6.178   2.996 -0.2766  0.0635 -0.0022
  191MOL0     C25702  11.281   6.332   2.327 -0.0809  0.0407  0.0806
  191MOL0     C25703  11.158   6.298   2.279  1.3218 -0.5286 -0.0324
  191MOL0     C25704  10.839   6.204   1.965  1.1606 -0.4850 -0.5254
  191MOL0     C25705  10.801   6.065   1.960 -0.1971 -0.6193 -0.1516
  191MOL0     C25706  10.668   6.020   1.940 -0.1542  0.1886  0.3433
  191MOL0     C25707  10.578   6.119   1.898  0.3728  0.0970 -0.6177
  191MOL0     O25708  10.448   6.073   1.874  0.4403 -0.1031  0.8149
  191MOL0     C25709  10.338   6.155   1.851 -0.0258 -0.8678  0.6141
  191MOL0     C25710  10.314   6.185   1.702 -0.1552  0.2335  0.1314
  191MOL0     C25711  10.243   6.068   1.630 -0.0671 -0.5264 -0.1964
  191MOL0     C25712  10.334   5.944   1.601 -0.6391 -0.7811 -0.0987
  191MOL0     C25713  10.267   5.843   1.517 -0.1779  0.3934  0.1480
  191MOL0     C25714  10.209   5.748   1.472  0.0367 -1.1386  0.2634
  191MOL0     C25715  10.609   6.259   1.907  0.0483  0.8015  0.8388
  191MOL0     C25716  10.740   6.298   1.947  0.3095 -1.1388  0.2210
  191MOL0     C25717  10.770   6.437   1.983 -0.3132 -0.4320 -0.5033
  191MOL0     H25718  11.257   6.072   2.044  1.2851  0.0688 -0.0093
  191MOL0     H25719  11.467   6.122   2.152  0.7155  0.3488  1.2288
  191MOL0     H25720  11.490   6.292   2.532 -0.2833 -4.3261  1.6611
  191MOL0     H25721  11.556   6.143   2.457  0.0962 -0.8774 -0.9157
  191MOL0     H25722  11.714   6.398   2.431 -0.2100 -1.2011 -1.1971
  191MOL0     H25723  11.774   6.237   2.426 -0.6853 -1.4951  2.5082
  191MOL0     H25724  11.853   6.296   2.624 -0.3896 -0.8129 -0.3495
  191MOL0     H25725  11.697   6.217   2.676  1.7095  2.9524  4.5363
  191MOL0     H25726  11.758   6.504   2.634  0.0975 -0.6482 -1.5859
  191MOL0     H25727  11.586   6.444   2.666 -0.4254  1.9060  0.1644
  191MOL0     H25728  11.824   6.396   2.843  1.1508 -0.1267 -1.4671
  191MOL0     H25729  11.723   6.541   2.872 -2.5702  0.3217  1.4538
  191MOL0     H25730  11.514   6.396   2.890 -0.1062 -0.1490 -1.7197
  191MOL0     H25731  11.621   6.241   2.891  1.3937  0.1816  1.1247
  191MOL0     H25732  11.643   6.464   3.087  1.4220 -1.5745  2.5310
  191MOL0     H25733  11.683   6.284   3.097 -1.9948 -1.6004  2.2498
  191MOL0     H25734  11.475   6.340   3.231 -0.4517 -2.3393  0.4096
  191MOL0     H25735  11.399   6.399   3.085  1.2619  0.6067 -1.2160
  191MOL0     H25736  11.544   6.058   3.202  0.8646  1.5891 -1.1317
  191MOL0     H25737  11.327   5.790   2.985 -0.0246 -2.0987  1.5333
  191MOL0     H25738  11.492   5.799   3.032 -1.3775 -3.4496 -0.4205
  191MOL0     H25739  11.266   5.814   3.226 -0.2561 -0.7084  0.3593
  191MOL0     H25740  11.312   5.654   3.155 -0.4199  0.3563  0.1544
  191MOL0     H25741  11.493   5.841   3.312  0.2018 -0.3771 -0.3731
  191MOL0     H25742  11.532   5.677   3.274  0.5246 -0.9022  1.0959
  191MOL0     H25743  11.440   5.625   3.475  2.0052  3.4850  0.4621
  191MOL0     H25744  11.282   5.626   3.381 -1.7869  3.7888 -1.6322
  191MOL0     H25745  11.052   5.815   3.509 -1.7845 -0.3425  1.6937
  191MOL0     H25746  10.921   5.739   3.675  1.1391  2.5696 -0.6342
  191MOL0     H25747  10.853   5.400   4.080  0.5498  1.6748  1.8711
  191MOL0     H25748  10.668   5.354   4.230  0.6355  0.2265 -0.0583
  191MOL0     H25749  10.527   5.467   4.366 -1.1905 -1.2607 -0.0762
  191MOL0     H25750  10.408   5.597   4.303  0.1876  0.1005 -1.0402
  191MOL0     H25751  10.338   5.324   4.408  1.2653 -0.1937  0.4104
  191MOL0     H25752  10.349   5.469   4.513 -0.7615  1.9071 -1.1566
  191MOL0     H25753  10.180   5.575   4.331 -1.0035  0.6209  2.4144
  191MOL0     H25754  10.164   5.408   4.274  1.1321 -0.2363  0.1718
  191MOL0     H25755  10.127   5.460   4.576 -3.2175  1.0373  1.1174
  191MOL0     H25756  10.071   5.336   4.462  1.1696 -0.5095 -1.4978
  191MOL0     H25757   9.911   5.456   4.365 -1.3464 -2.0921  1.8876
  191MOL0     H25758   9.969   5.614   4.426 -0.2045  0.5338  1.1426
  191MOL0     H25759   9.824   5.409   4.613  0.6456  0.9705  3.4957
  191MOL0     H25760   9.931   5.523   4.672  0.8251 -2.0341  0.6825
  191MOL0     H25761   9.677   5.549   4.508 -0.2840 -1.3517  1.6951
  191MOL0     H25762   9.780   5.700   4.538  1.8156  0.3937 -0.2936
  191MOL0     H25763   9.685   5.514   4.752 -0.8289  0.0686  0.3736
  191MOL0     H25764   9.766   5.673   4.767  1.3413 -0.2741 -2.4959
  191MOL0     H25765  10.418   5.564   3.946  1.1430  0.6584 -1.9144
  191MOL0     H25766  10.615   5.632   3.825 -1.8648  1.7014  1.6003
  191MOL0     H25767  11.261   5.534   3.865  0.9846  0.1573 -0.2198
  191MOL0     H25768  11.402   5.619   3.690 -1.1965 -1.4265 -2.3237
  191MOL0     H25769  11.298   6.406   2.405  1.4405 -0.1998 -0.0025
  191MOL0     H25770  11.072   6.348   2.323  2.3763 -1.2150  3.0609
  191MOL0     H25771  10.875   5.986   1.970  0.5707  0.2867  1.5750
  191MOL0     H25772  10.646   5.915   1.957 -0.7299 -0.1708 -2.1419
  191MOL0     H25773  10.358   6.249   1.903 -1.7620 -0.8693  1.3507
  191MOL0     H25774  10.238   6.131   1.887 -1.1875  2.1069 -0.2789
  191MOL0     H25775  10.408   6.207   1.651 -0.3400  1.6266  0.3285
  191MOL0     H25776  10.250   6.274   1.694  1.2994  1.2382 -0.9108
  191MOL0     H25777  10.203   6.093   1.532 -0.8501  1.0361  0.4922
  191MOL0     H25778  10.157   6.036   1.690  0.0015 -1.5458 -0.6167
  191MOL0     H25779  10.414   5.974   1.533 -3.3373 -0.6785 -3.4491
  191MOL0     H25780  10.349   5.901   1.701 -2.8842  1.0754  1.1258
  191MOL0     H25781  10.143   5.677   1.425  0.5856 -0.5873 -1.4207
  191MOL0     H25782  10.539   6.340   1.890 -1.4178 -0.1596  2.0194
  191MOL0     H25783  10.796   6.433   2.090  1.3878 -1.0089 -0.8998
  191MOL0     H25784  10.851   6.474   1.919 -0.9632 -2.1347 -2.4244
  191MOL0     H25785  10.685   6.503   1.970 -0.3920 -0.6617 -1.1953
  192MOL0     O25786   5.264  11.235  10.629  0.3862 -0.0435  0.5691
  192MOL0     C25787   5.264  11.189  10.515 -0.0439  0.5874 -0.1647
  192MOL0     O25788   5.380  11.141  10.451 -0.2918  1.0554  0.3862
  192MOL0     C25789   5.487  11.143  10.528 -0.4078  0.0215  0.6358
  192MOL0     C25790   5.506  11.049  10.626  0.5281 -0.2596 -0.6271
  192MOL0     C25791   5.619  11.056  10.701  0.3443  0.9657  0.0927
  192MOL0     C25792   5.717  11.155  10.677  0.4604  0.0332  0.2929
  192MOL0     O25793   5.823  11.169  10.756 -0.3391  0.1744  0.5302
  192MOL0     C25794   5.906  11.055  10.781  0.3649  0.7320 -0.0623
  192MOL0     C25795   6.050  11.083  10.781 -0.3341 -0.7039  0.4596
  192MOL0     C25796   6.114  11.124  10.651  1.0149 -1.7409 -0.0404
  192MOL0     C25797   6.086  11.273  10.616 -0.0577  0.4037 -0.2189
  192MOL0     C25798   6.170  11.328  10.495 -0.1424  0.5552 -0.5200
  192MOL0     C25799   6.155  11.479  10.484 -0.0915  0.2119 -0.7486
  192MOL0     C25800   6.294  11.551  10.448  0.3629  0.9018  0.1851
  192MOL0     C25801   6.380  11.575  10.578  0.5814  0.4055  0.6013
  192MOL0     N25802   6.481  11.680  10.529 -0.0614 -0.2002 -0.5663
  192MOL0     C25803   6.572  11.666  10.431  0.7543  0.6106 -0.3688
  192MOL0     C25804   6.640  11.784  10.436  0.5623  0.0585  0.0233
  192MOL0     C25805   6.750  11.835  10.356  0.4000 -0.5576 -0.2172
  192MOL0     C25806   6.886  11.761  10.368  0.7794 -0.2209  0.1411
  192MOL0     C25807   6.990  11.802  10.276  0.4571  0.1519 -0.0667
  192MOL0     C25808   7.102  11.698  10.284  0.1666 -0.4172  0.1458
  192MOL0     O25809   7.183  11.688  10.170  0.1835  0.6271 -0.1059
  192MOL0     C25810   7.298  11.760  10.167 -0.5968  0.0569 -0.2879
  192MOL0     C25811   7.314  11.881  10.225  0.6848  0.3002 -0.3759
  192MOL0     C25812   7.432  11.951  10.201  1.1199 -0.0357 -0.9972
  192MOL0     C25813   7.537  11.893  10.128  0.2621  0.2742  0.3931
  192MOL0     C25814   7.670  11.966  10.110  0.3669  0.5546 -0.1198
  192MOL0     O25815   7.777  11.895  10.069  0.0762 -0.6436 -0.4618
  192MOL0     C25816   7.896  11.955  10.067  0.3864  0.5843 -0.8368
  192MOL0     C25817   7.955  12.017  10.182  0.1975  0.9647 -0.6823
  192MOL0     C25818   8.094  12.057  10.175  0.4254 -0.3247  0.2903
  192MOL0     C25819   8.170  12.039  10.057 -0.3498 -0.6798  0.3404
  192MOL0     O25820   8.309  12.077  10.065  0.2157  0.0388 -0.0861
  192MOL0     C25821   8.397  12.029   9.958  0.6777  0.5086 -0.1367
  192MOL0     C25822   8.539  12.070  10.002  0.8314  0.2592  0.0447
  192MOL0     C25823   8.650  12.018   9.908 -0.9827  0.2320 -0.2051
  192MOL0     C25824   8.796  12.073   9.932 -0.3226  0.4965 -0.6162
  192MOL0     C25825   8.855  11.976  10.033  0.3458 -0.1794 -0.0519
  192MOL0     C25826   9.010  12.024  10.056  0.2582 -0.0490  0.4598
  192MOL0     C25827   9.079  11.905  10.128  0.0704 -0.3503  0.8365
  192MOL0     C25828   9.212  11.949  10.181 -0.4861  0.1184  0.6263
  192MOL0    Cl25829   9.170  12.077  10.305  0.2133  0.2380  0.1825
  192MOL0     C25830   8.101  11.990   9.939  0.4160  0.1492 -0.1994
  192MOL0     C25831   7.969  11.945   9.949 -0.0496  0.2739 -0.5068
  192MOL0     O25832   7.674  12.086  10.140  0.3446 -0.0869  0.5596
  192MOL0     C25833   7.526  11.759  10.083  0.3827 -0.2134  0.2047
  192MOL0     C25834   7.401  11.701  10.106 -0.0679  0.5452  0.5896
  192MOL0     N25835   6.579  11.859  10.538 -0.1533 -0.0376 -0.1644
  192MOL0     N25836   6.483  11.804  10.591 -0.2157  0.3465  0.9562
  192MOL0     C25837   5.700  11.243  10.570  0.0414 -0.2386 -0.2368
  192MOL0     C25838   5.589  11.244  10.502  0.8507  0.3731 -0.6858
  192MOL0     C25839   5.132  11.178  10.448 -0.2061 -0.3052  0.6611
  192MOL0     C25840   5.100  11.265  10.336  0.6213  0.2858  0.1070
  192MOL0     C25841   4.977  11.247  10.266 -0.0410  0.8934  0.7647
  192MOL0     C25842   4.882  11.162  10.306  0.0292  0.9290  0.4872
  192MOL0     O25843   4.760  11.165  10.241  0.7416  0.3293 -0.2771
  192MOL0     C25844   4.659  11.093  10.307  0.1577  0.2827  0.1296
  192MOL0     C25845   4.527  11.117  10.232  1.2159 -0.3081  0.2764
  192MOL0     C25846   4.431  11.004  10.269  0.2092 -0.4804  0.3403
  192MOL0     C25847   4.296  11.013  10.184  0.5869 -0.0910  0.3342
  192MOL0     C25848   4.200  11.109  10.239 -0.1581  0.3715  0.6362
  192MOL0     C25849   4.120  11.171  10.305  0.6006  0.3635 -0.1525
  192MOL0     C25850   4.920  11.063  10.409 -0.8854 -0.7532 -0.9754
  192MOL0     C25851   5.045  11.074  10.475  0.3191  0.0874  0.1690
  192MOL0     C25852   5.087  10.978  10.584 -0.1850 -0.2315 -0.1373
  192MOL0     H25853   5.432  10.972  10.645  2.0272 -1.5936  0.1292
  192MOL0     H25854   5.634  10.979  10.776 -0.2616 -0.5608 -1.2693
  192MOL0     H25855   5.871  11.018  10.878  0.0760  0.2819 -0.3357
  192MOL0     H25856   5.888  10.969  10.716 -1.3601  1.5507 -0.7501
  192MOL0     H25857   6.104  11.000  10.828  3.3854  0.9457 -0.5560
  192MOL0     H25858   6.078  11.162  10.852  1.1484 -0.7033 -0.1143
  192MOL0     H25859   6.099  11.066  10.560 -1.4387 -0.3209 -0.6502
  192MOL0     H25860   6.221  11.111  10.670  1.0565  0.7304  2.0171
  192MOL0     H25861   5.978  11.287  10.603  0.2000  2.5175 -0.2888
  192MOL0     H25862   6.109  11.332  10.705 -2.4451  3.7259 -1.6248
  192MOL0     H25863   6.274  11.310  10.524 -0.4553  0.0200  0.3199
  192MOL0     H25864   6.143  11.274  10.404  3.0346  0.2429 -1.3863
  192MOL0     H25865   6.085  11.479  10.400 -1.5206 -1.4939  0.3882
  192MOL0     H25866   6.107  11.522  10.573 -1.3710  0.4441 -1.5310
  192MOL0     H25867   6.264  11.649  10.409 -1.5531  1.5393  2.9235
  192MOL0     H25868   6.347  11.495  10.370 -0.9917  0.5997 -0.5585
  192MOL0     H25869   6.317  11.611  10.659  0.7742 -2.0487  1.9577
  192MOL0     H25870   6.424  11.483  10.620  2.5269  1.3490  0.7365
  192MOL0     H25871   6.595  11.586  10.360  0.4501 -0.6693  0.9244
  192MOL0     H25872   6.725  11.822  10.250 -3.6552  0.4257  0.4377
  192MOL0     H25873   6.758  11.943  10.371 -1.4998 -0.2935 -0.7890
  192MOL0     H25874   6.921  11.776  10.471 -1.7647  2.8070  0.7303
  192MOL0     H25875   6.861  11.656  10.354  0.3111 -0.0447 -0.3637
  192MOL0     H25876   7.018  11.905  10.300 -3.1339  0.7345  2.4119
  192MOL0     H25877   6.955  11.799  10.172  1.4975 -0.0946 -0.4215
  192MOL0     H25878   7.062  11.598  10.303  1.7144 -0.8969  1.0946
  192MOL0     H25879   7.160  11.728  10.372 -0.1010 -1.1893  0.5934
  192MOL0     H25880   7.236  11.931  10.282  0.8673  0.8510 -0.6012
  192MOL0     H25881   7.448  12.045  10.251  1.9362 -1.5581  1.8155
  192MOL0     H25882   7.895  12.019  10.272  0.8111 -0.0056 -0.2314
  192MOL0     H25883   8.135  12.109  10.262  3.7275 -0.7138 -0.8773
  192MOL0     H25884   8.392  11.920   9.950  0.5716  0.3584  1.6022
  192MOL0     H25885   8.360  12.079   9.868  0.4325  1.8012  0.6605
  192MOL0     H25886   8.551  12.179  10.007 -2.9085  0.7754  1.1662
  192MOL0     H25887   8.557  12.035  10.104  0.6535  2.0409  0.7327
  192MOL0     H25888   8.650  11.909   9.906 -0.6614  0.2384 -2.0320
  192MOL0     H25889   8.625  12.032   9.802  0.0739 -2.5859 -0.9292
  192MOL0     H25890   8.795  12.176   9.969 -1.5452 -0.1557  1.3292
  192MOL0     H25891   8.856  12.068   9.841  1.4512  1.9883  0.4177
  192MOL0     H25892   8.861  11.882   9.979 -1.4996  1.4371 -3.3564
  192MOL0     H25893   8.792  11.973  10.123 -1.6091  0.4694 -1.3337
  192MOL0     H25894   9.056  12.030   9.957 -0.6745 -1.4663 -0.0963
  192MOL0     H25895   9.027  12.119  10.108  1.7917  1.1343 -2.0059
  192MOL0     H25896   9.091  11.827  10.052 -4.0451  0.3167 -0.7224
  192MOL0     H25897   9.013  11.867  10.207 -1.2855  1.1245  0.4549
  192MOL0     H25898   9.254  11.866  10.239  2.2933  0.4373 -0.7640
  192MOL0     H25899   9.278  11.981  10.100 -0.6637 -1.7139 -0.2832
  192MOL0     H25900   8.152  11.962   9.847  3.9912 -0.3875  1.7483
  192MOL0     H25901   7.927  11.888   9.867  2.2246  0.3088 -1.7749
  192MOL0     H25902   7.605  11.712  10.025  0.4086  1.5230 -1.2630
  192MOL0     H25903   7.383  11.596  10.082  0.4587  0.9992 -2.0737
  192MOL0     H25904   5.771  11.323  10.549 -1.8077  1.2610 -1.0468
  192MOL0     H25905   5.569  11.330  10.440 -1.0270  1.4610  1.2729
  192MOL0     H25906   5.171  11.345  10.317  2.4828 -0.7589  2.1705
  192MOL0     H25907   4.943  11.302  10.178 -0.0370  0.7407  0.6676
  192MOL0     H25908   4.642  11.132  10.408 -0.7879  0.0200  0.0877
  192MOL0     H25909   4.683  10.987  10.314  0.1401  0.2637 -0.0849
  192MOL0     H25910   4.537  11.124  10.123  0.6792 -0.5104  0.2087
  192MOL0     H25911   4.478  11.207  10.270  1.1331 -0.7767  1.3073
  192MOL0     H25912   4.406  11.002  10.375 -0.8956  0.6328  0.1312
  192MOL0     H25913   4.475  10.904  10.264 -3.2716 -2.3599  3.0414
  192MOL0     H25914   4.308  11.017  10.076  0.6926 -1.6342  0.2664
  192MOL0     H25915   4.253  10.914  10.202  1.7096 -0.6109  0.2432
  192MOL0     H25916   4.068  11.240  10.368 -2.3748 -1.0235 -0.9035
  192MOL0     H25917   4.857  10.978  10.435 -0.8988 -0.2617  0.6803
  192MOL0     H25918   5.181  10.934  10.548  0.0502 -1.3122  1.7062
  192MOL0     H25919   5.099  11.028  10.680  0.0830 -1.2865  0.3965
  192MOL0     H25920   5.016  10.898  10.603 -0.7456  0.1206 -0.7225
  193MOL0     O25921   7.595   5.553   7.855  0.2644 -0.1300 -0.8142
  193MOL0     C25922   7.623   5.564   7.734 -0.0913 -0.9664  0.0745
  193MOL0     O25923   7.659   5.680   7.671  0.5811  0.0672  0.0596
  193MOL0     C25924   7.695   5.787   7.733 -0.1328 -0.6480 -0.1091
  193MOL0     C25925   7.692   5.912   7.658  0.0274 -0.3914  0.4802
  193MOL0     C25926   7.736   6.033   7.718  0.0517  0.3620  0.1297
  193MOL0     C25927   7.777   6.043   7.854  0.4494  0.8459  0.0936
  193MOL0     O25928   7.823   6.159   7.912  0.1397 -0.0497  0.0959
  193MOL0     C25929   7.815   6.283   7.841  0.2643  0.7003  0.4376
  193MOL0     C25930   7.861   6.398   7.930  0.6096 -0.1261 -0.2223
  193MOL0     C25931   8.012   6.414   7.928  0.4453  0.3861 -0.4428
  193MOL0     C25932   8.038   6.534   8.012 -0.1598 -0.5296  0.5860
  193MOL0     C25933   8.189   6.558   8.039  0.6217  0.5009  0.2063
  193MOL0     C25934   8.206   6.693   8.113 -0.2789 -0.4399 -0.0547
  193MOL0     C25935   8.356   6.709   8.137 -0.4407 -1.0254 -0.6013
  193MOL0     C25936   8.376   6.835   8.230  0.1834  1.1619  0.2387
  193MOL0     N25937   8.511   6.859   8.266 -0.8927 -0.4946 -0.2959
  193MOL0     C25938   8.594   6.815   8.368  0.2323 -0.0313 -0.1550
  193MOL0     C25939   8.707   6.884   8.371  0.0105 -1.2436  0.6004
  193MOL0     C25940   8.811   6.885   8.475  0.3253  0.2412 -0.5264
  193MOL0     C25941   8.947   6.825   8.440 -0.0216  0.6852  0.6205
  193MOL0     C25942   9.017   6.900   8.322 -0.1988  0.0449  0.3634
  193MOL0     C25943   9.167   6.859   8.311  0.2076 -0.0791 -0.0432
  193MOL0     O25944   9.230   6.954   8.229  0.2517  0.3256  0.9721
  193MOL0     C25945   9.345   6.926   8.155 -0.4513 -0.0917  1.1151
  193MOL0     C25946   9.384   7.019   8.058  0.2029  0.4659 -0.5571
  193MOL0     C25947   9.509   7.003   7.994 -0.7333 -0.6324  0.7829
  193MOL0     C25948   9.585   6.889   8.016  0.3997 -0.3180  0.2428
  193MOL0     C25949   9.724   6.875   7.953 -0.1423  0.0625 -0.7223
  193MOL0     O25950   9.734   6.939   7.833 -0.2672  0.1572  0.2856
  193MOL0     C25951   9.853   6.969   7.782 -1.2696  0.4238  0.3339
  193MOL0     C25952   9.877   7.104   7.745 -0.1406 -0.5221  0.5354
  193MOL0     C25953  10.000   7.152   7.689  0.1536  0.0646 -0.7055
  193MOL0     C25954  10.097   7.058   7.662 -0.5346 -1.0730 -0.7292
  193MOL0     O25955  10.206   7.100   7.588 -0.0003 -0.1923 -0.5270
  193MOL0     C25956  10.325   7.030   7.592 -0.1539 -0.1992  0.5630
  193MOL0     C25957  10.429   7.128   7.554  0.6090 -0.4643  1.2695
  193MOL0     C25958  10.573   7.086   7.592  0.2700 -0.0905 -0.0285
  193MOL0     C25959  10.670   7.197   7.544 -0.2080 -0.3841  0.5497
  193MOL0     C25960  10.809   7.138   7.582 -0.4392  0.1017 -0.0562
  193MOL0     C25961  10.926   7.242   7.577 -0.3075  0.8009  1.2577
  193MOL0     C25962  10.920   7.342   7.694  0.7671  0.1161  0.5204
  193MOL0     C25963  11.031   7.310   7.797 -0.7719 -0.3666 -0.3499
  193MOL0    Cl25964  11.048   7.147   7.861 -0.0010  0.1088  0.5635
  193MOL0     C25965  10.076   6.926   7.698 -0.7063 -0.3586 -0.2825
  193MOL0     C25966   9.959   6.876   7.756 -0.1499  0.2700 -0.0871
  193MOL0     O25967   9.809   6.806   8.009  0.4003  0.2934 -0.0858
  193MOL0     C25968   9.540   6.793   8.112  0.1994  0.2986  0.7179
  193MOL0     C25969   9.417   6.813   8.178  0.0245 -0.4550  0.6939
  193MOL0     N25970   8.701   6.972   8.265 -0.1237  0.0598  0.0169
  193MOL0     N25971   8.582   6.962   8.212 -0.5387  0.0087  0.3181
  193MOL0     C25972   7.786   5.919   7.919 -0.7564 -0.5565 -1.0681
  193MOL0     C25973   7.734   5.803   7.870 -0.3465  0.8784  0.5911
  193MOL0     C25974   7.606   5.445   7.649 -0.6613 -0.0884  0.7645
  193MOL0     C25975   7.682   5.436   7.535  0.2583 -0.9548 -0.7019
  193MOL0     C25976   7.680   5.331   7.461 -0.8079  0.4430 -0.5529
  193MOL0     C25977   7.610   5.216   7.492 -0.2534 -0.1811  0.1768
  193MOL0     O25978   7.611   5.129   7.391  0.5353 -0.0442  0.2074
  193MOL0     C25979   7.560   5.000   7.418 -0.5288  0.3168 -0.9278
  193MOL0     C25980   7.600   4.895   7.309 -0.0071  0.2679  0.5131
  193MOL0     C25981   7.564   4.948   7.168 -0.2124  0.5087  1.1070
  193MOL0     C25982   7.511   4.838   7.070 -0.3884 -0.9662  0.4654
  193MOL0     C25983   7.526   4.901   6.933 -0.1109 -0.5742 -0.1932
  193MOL0     C25984   7.540   4.947   6.822  0.3706 -0.5151  0.4011
  193MOL0     C25985   7.524   5.225   7.605 -0.1899  0.2230 -0.6293
  193MOL0     C25986   7.518   5.340   7.677  0.0166 -0.4486 -0.5233
  193MOL0     C25987   7.408   5.349   7.780  0.5058 -0.4055 -0.1568
  193MOL0     H25988   7.651   5.908   7.557 -2.9981  1.3615  1.4971
  193MOL0     H25989   7.744   6.121   7.656 -0.7576  0.3604  0.0111
  193MOL0     H25990   7.874   6.276   7.749  3.7528  2.8431  2.3164
  193MOL0     H25991   7.708   6.295   7.821  0.4522 -0.6763 -1.8180
  193MOL0     H25992   7.820   6.413   8.030  0.2829  3.8213 -0.8065
  193MOL0     H25993   7.810   6.485   7.889 -2.2562 -1.5373  0.0886
  193MOL0     H25994   8.062   6.448   7.837 -1.1755 -0.2630 -1.6292
  193MOL0     H25995   8.052   6.322   7.972  1.2352  0.2114 -1.4984
  193MOL0     H25996   7.997   6.621   7.959 -0.2374 -1.6982 -1.3818
  193MOL0     H25997   7.983   6.516   8.104 -0.0008  1.5067  1.1186
  193MOL0     H25998   8.238   6.479   8.094  0.9301  0.0298 -0.7232
  193MOL0     H25999   8.230   6.550   7.938 -0.3480 -1.3886 -0.0798
  193MOL0     H26000   8.172   6.770   8.043  0.1777 -2.0001 -2.0624
  193MOL0     H26001   8.147   6.700   8.205  0.6822  1.3095  0.4672
  193MOL0     H26002   8.410   6.731   8.044  1.6280 -1.7953  0.3576
  193MOL0     H26003   8.392   6.625   8.197 -2.2812  0.5345  2.9941
  193MOL0     H26004   8.326   6.927   8.197  1.5903  1.2375 -1.9007
  193MOL0     H26005   8.325   6.805   8.322 -4.1545 -0.3399 -2.4064
  193MOL0     H26006   8.576   6.736   8.441  1.1390 -1.6825 -1.6326
  193MOL0     H26007   8.815   6.991   8.503  2.8381 -0.3795  1.9162
  193MOL0     H26008   8.763   6.832   8.558 -1.5420  0.1221 -1.6076
  193MOL0     H26009   9.012   6.823   8.528 -0.7496 -1.1738  1.1624
  193MOL0     H26010   8.928   6.721   8.413  1.0467  0.7669 -0.5550
  193MOL0     H26011   9.007   7.006   8.343 -2.4437 -0.1191  0.3584
  193MOL0     H26012   8.966   6.879   8.227  1.7843  0.2260 -0.7982
  193MOL0     H26013   9.168   6.757   8.269 -0.8261 -0.4997  0.9173
  193MOL0     H26014   9.199   6.859   8.416 -0.1687  0.9465  0.0796
  193MOL0     H26015   9.317   7.103   8.050 -3.6524 -2.2711 -0.0525
  193MOL0     H26016   9.541   7.073   7.918 -0.2981  1.4628  2.7665
  193MOL0     H26017   9.792   7.171   7.750 -0.9742 -1.5590  0.4469
  193MOL0     H26018  10.009   7.251   7.645 -0.7293  0.3664 -0.2318
  193MOL0     H26019  10.355   6.979   7.684  2.5828 -1.4915 -0.9150
  193MOL0     H26020  10.322   6.961   7.507  1.4958 -1.2328  1.2908
  193MOL0     H26021  10.421   7.151   7.448 -1.5428  3.3267  2.0526
  193MOL0     H26022  10.413   7.225   7.602  0.2435  0.4435 -0.6216
  193MOL0     H26023  10.566   7.094   7.700  0.7438  2.7294 -0.1400
  193MOL0     H26024  10.597   6.983   7.565 -3.4463 -1.7248  2.0870
  193MOL0     H26025  10.659   7.284   7.610  4.0607 -1.7261  3.3961
  193MOL0     H26026  10.656   7.218   7.438 -1.7364  0.5237  0.8983
  193MOL0     H26027  10.831   7.049   7.522 -0.3857 -1.7839  2.5795
  193MOL0     H26028  10.810   7.097   7.683  1.5038 -0.8066 -0.4060
  193MOL0     H26029  11.021   7.188   7.580 -1.8397 -2.1364  0.7401
  193MOL0     H26030  10.919   7.289   7.479 -0.3365 -2.2058 -0.2874
  193MOL0     H26031  10.826   7.322   7.748 -0.5055 -1.4553 -2.0913
  193MOL0     H26032  10.948   7.443   7.663  3.2087 -1.2623 -2.2629
  193MOL0     H26033  11.125   7.339   7.747 -1.2117 -0.2942 -1.1604
  193MOL0     H26034  11.011   7.376   7.881  0.4028  1.5016 -1.4620
  193MOL0     H26035  10.158   6.857   7.679  1.8002  2.5341 -0.7596
  193MOL0     H26036   9.944   6.769   7.765 -4.1967  0.6539 -0.4330
  193MOL0     H26037   9.595   6.703   8.138 -1.3221  0.0130  3.2192
  193MOL0     H26038   9.382   6.750   8.259  0.3384 -0.1478  1.0722
  193MOL0     H26039   7.832   5.918   8.017 -0.9988 -0.2793 -0.9498
  193MOL0     H26040   7.728   5.717   7.936 -0.4269  0.6529  0.2862
  193MOL0     H26041   7.751   5.507   7.492  2.4212 -2.6201 -0.1391
  193MOL0     H26042   7.735   5.327   7.367  1.1697  0.3331  0.5540
  193MOL0     H26043   7.450   5.001   7.419 -0.5835  3.2487  0.7458
  193MOL0     H26044   7.601   4.961   7.512  3.2192  0.2823 -2.4078
  193MOL0     H26045   7.556   4.797   7.327  0.0145 -0.2158 -1.7688
  193MOL0     H26046   7.709   4.883   7.311  0.1967  1.8437  0.2917
  193MOL0     H26047   7.657   4.984   7.122 -0.8991 -1.5744 -2.2460
  193MOL0     H26048   7.495   5.032   7.172 -0.0168  0.7725 -0.3869
  193MOL0     H26049   7.550   4.737   7.081  2.8966 -0.2236 -2.5573
  193MOL0     H26050   7.404   4.814   7.078 -1.2789  1.5858 -2.0350
  193MOL0     H26051   7.546   4.974   6.718  1.6425  4.1229  1.4318
  193MOL0     H26052   7.473   5.134   7.635 -0.2668  1.3853  3.4337
  193MOL0     H26053   7.365   5.450   7.783  0.2911 -0.5157  0.4390
  193MOL0     H26054   7.328   5.275   7.771 -1.3118  0.6879  4.1657
  193MOL0     H26055   7.459   5.337   7.876  0.6414  0.9188 -0.0442
  194MOL0     O26056   9.656   0.341   6.389  0.1696 -0.5943  0.2777
  194MOL0     C26057   9.610   0.392   6.492 -0.9556 -0.2263 -0.1798
  194MOL0     O26058   9.683   0.411   6.616  0.4933  0.8414 -0.0459
  194MOL0     C26059   9.812   0.437   6.600  0.0123  0.4229  0.2995
  194MOL0     C26060   9.858   0.529   6.501  0.2260  0.1542  0.0396
  194MOL0     C26061   9.997   0.560   6.492  0.0263 -0.7648  0.2075
  194MOL0     C26062  10.080   0.507   6.587 -0.1578  0.0306 -0.1269
  194MOL0     O26063  10.211   0.528   6.590  0.8115 -0.2511  0.1943
  194MOL0     C26064  10.289   0.490   6.473 -0.6535 -0.5004  1.3543
  194MOL0     C26065  10.436   0.531   6.491  0.4981  0.2510 -0.3437
  194MOL0     C26066  10.519   0.540   6.362 -0.1361  0.2112  0.7045
  194MOL0     C26067  10.670   0.557   6.389  0.6006  0.5863 -0.4912
  194MOL0     C26068  10.750   0.543   6.258  0.1361  0.2180  0.1548
  194MOL0     C26069  10.891   0.591   6.288 -0.6001 -0.5654  0.1040
  194MOL0     C26070  10.982   0.610   6.170  0.7724  0.7202  0.7953
  194MOL0     C26071  11.117   0.660   6.226  0.4572 -0.2677 -0.0393
  194MOL0     N26072  11.215   0.642   6.118  1.3031  0.5375  0.1901
  194MOL0     C26073  11.250   0.738   6.025 -0.0183 -0.1194 -0.1990
  194MOL0     C26074  11.365   0.689   5.965 -0.4371  0.3096 -0.6424
  194MOL0     C26075  11.453   0.759   5.866  0.2022 -0.4143 -0.0687
  194MOL0     C26076  11.598   0.734   5.897  0.0093 -0.1073  0.5780
  194MOL0     C26077  11.690   0.821   5.803 -0.7754  0.2409 -0.6911
  194MOL0     C26078  11.836   0.801   5.829 -0.4591 -0.2818 -0.6197
  194MOL0     O26079  11.860   0.817   5.976 -0.4048 -0.2145 -0.2338
  194MOL0     C26080  11.977   0.754   6.024 -0.1192  0.2227  0.6262
  194MOL0     C26081  12.016   0.778   6.148 -0.3940 -0.1019  0.5916
  194MOL0     C26082  12.135   0.732   6.205  0.4531  0.3886 -0.1742
  194MOL0     C26083  12.226   0.657   6.123 -0.4685  0.3043  0.2595
  194MOL0     C26084  12.354   0.606   6.184  1.6789 -0.9866 -0.1513
  194MOL0     O26085  12.379   0.647   6.312 -0.8602  0.1556  0.6676
  194MOL0     C26086  12.503   0.613   6.363  0.0557 -0.1475 -0.0977
  194MOL0     C26087  12.603   0.716   6.371 -0.0122  0.2242  0.0202
  194MOL0     C26088  12.736   0.683   6.404  0.1892  0.4686  0.4760
  194MOL0     C26089  12.767   0.553   6.451  0.4572 -0.4285 -0.1383
  194MOL0     O26090  12.897   0.532   6.491 -0.3292 -0.4198 -0.4513
  194MOL0     C26091  12.943   0.547   6.624 -0.0856 -0.7564  0.1428
  194MOL0     C26092  12.951   0.699   6.659  0.8398  0.0892 -0.5870
  194MOL0     C26093  13.027   0.724   6.788  0.0173  0.5844 -0.5797
  194MOL0     C26094  13.053   0.875   6.813 -0.4319 -0.3268 -0.0505
  194MOL0     C26095  13.165   0.895   6.919  0.1021 -0.3193  0.0722
  194MOL0     C26096  13.161   1.040   6.974  0.0111 -0.0830 -0.1391
  194MOL0     C26097  13.247   1.047   7.107  0.2427  0.4329  0.2611
  194MOL0     C26098  13.244   1.194   7.152 -1.4724 -0.6175 -0.6444
  194MOL0    Cl26099  13.347   1.200   7.305  0.2371 -0.3518 -0.2870
  194MOL0     C26100  12.666   0.453   6.432 -0.4666  0.1134  0.1159
  194MOL0     C26101  12.539   0.482   6.385  0.5096  0.4803  0.2715
  194MOL0     O26102  12.422   0.539   6.110  0.4136  0.1170 -0.2893
  194MOL0     C26103  12.183   0.625   5.995  0.1597  0.2257 -0.2457
  194MOL0     C26104  12.060   0.671   5.944 -0.0492  0.7557  0.0958
  194MOL0     N26105  11.398   0.566   6.026 -0.5811  1.0477 -0.3180
  194MOL0     N26106  11.303   0.539   6.113 -0.4167  0.8975 -0.0332
  194MOL0     C26107  10.030   0.417   6.682  0.0760 -0.3943 -1.2677
  194MOL0     C26108   9.898   0.392   6.701  0.8234  0.8655 -0.5586
  194MOL0     C26109   9.465   0.414   6.506  0.0285 -0.6422  0.5975
  194MOL0     C26110   9.372   0.334   6.443 -0.7073 -0.2939 -0.0382
  194MOL0     C26111   9.234   0.346   6.463 -0.3198  0.0899  0.5789
  194MOL0     C26112   9.181   0.448   6.548  0.6951 -0.1610  0.3838
  194MOL0     O26113   9.045   0.472   6.564  0.1343 -1.0764 -0.5190
  194MOL0     C26114   8.945   0.408   6.485  0.4893  0.9849  0.1429
  194MOL0     C26115   8.932   0.267   6.548  0.1796  0.4000 -0.1047
  194MOL0     C26116   8.858   0.184   6.439  0.2157  0.0933  0.0379
  194MOL0     C26117   8.956   0.100   6.354  0.5339  0.4628  0.6968
  194MOL0     C26118   9.025   0.003   6.437  0.2911  0.6041 -0.0898
  194MOL0     C26119   9.077  -0.076   6.512  0.2933  0.5135  0.3889
  194MOL0     C26120   9.274   0.530   6.611  0.1712 -0.1243 -0.0246
  194MOL0     C26121   9.411   0.509   6.603 -0.1395 -0.8234  0.8771
  194MOL0     C26122   9.498   0.611   6.672 -0.4653  0.0957  0.0783
  194MOL0     H26123   9.795   0.588   6.436 -0.9516 -0.8901  0.2084
  194MOL0     H26124  10.028   0.630   6.415 -2.6565  0.1061 -0.2038
  194MOL0     H26125  10.291   0.382   6.460 -0.8819 -0.1597 -3.1154
  194MOL0     H26126  10.260   0.540   6.380  0.9314  0.6502  1.4306
  194MOL0     H26127  10.483   0.465   6.564 -1.1664 -0.7083 -0.0918
  194MOL0     H26128  10.435   0.630   6.538  0.0466  0.4412 -0.7496
  194MOL0     H26129  10.480   0.623   6.304  3.6926  0.4220 -1.9582
  194MOL0     H26130  10.506   0.446   6.307 -2.5476 -0.1198  1.7188
  194MOL0     H26131  10.693   0.652   6.437  1.2868 -0.5507  1.5242
  194MOL0     H26132  10.701   0.474   6.452  0.2450 -0.5649 -1.7739
  194MOL0     H26133  10.748   0.437   6.232  0.0446 -0.8418  3.9090
  194MOL0     H26134  10.692   0.594   6.180 -1.3987 -3.4162 -1.3405
  194MOL0     H26135  10.894   0.691   6.332  2.0016 -0.1165 -0.8939
  194MOL0     H26136  10.934   0.513   6.351 -0.0223 -0.8614 -0.6335
  194MOL0     H26137  10.943   0.683   6.099  2.3233 -0.4920 -1.4383
  194MOL0     H26138  10.983   0.514   6.118 -2.0182 -0.1363  2.1196
  194MOL0     H26139  11.124   0.767   6.246  1.4146 -0.0280 -1.4594
  194MOL0     H26140  11.140   0.604   6.318 -1.7495 -0.4108  0.4763
  194MOL0     H26141  11.203   0.832   5.997  1.7618  0.6650 -0.7469
  194MOL0     H26142  11.432   0.718   5.767  1.6544  1.1821 -1.1101
  194MOL0     H26143  11.436   0.867   5.866 -0.3689 -0.4924  0.9217
  194MOL0     H26144  11.615   0.770   5.998 -2.8459 -0.2390  1.1788
  194MOL0     H26145  11.611   0.626   5.885 -0.9916 -0.1580 -0.1690
  194MOL0     H26146  11.665   0.928   5.810 -2.3749 -0.1572  0.0628
  194MOL0     H26147  11.661   0.803   5.700  0.6994 -0.8957 -0.9379
  194MOL0     H26148  11.892   0.881   5.779  0.3617  0.9109  2.0321
  194MOL0     H26149  11.866   0.698   5.808  2.6465  0.3732  0.1136
  194MOL0     H26150  11.947   0.832   6.213 -1.3439  0.2337 -0.6616
  194MOL0     H26151  12.154   0.757   6.309  2.1451  0.6763 -0.5304
  194MOL0     H26152  12.585   0.818   6.339 -0.2341 -0.2346 -1.3849
  194MOL0     H26153  12.813   0.758   6.389  1.1336 -0.3245  1.2559
  194MOL0     H26154  12.891   0.486   6.698  3.0293 -1.8239  1.6239
  194MOL0     H26155  13.043   0.507   6.611 -0.4669 -1.1393 -1.8440
  194MOL0     H26156  12.999   0.759   6.581  1.5703  0.5800  0.2240
  194MOL0     H26157  12.849   0.736   6.669  0.1176 -1.8894 -0.2029
  194MOL0     H26158  12.973   0.682   6.873 -3.1959 -4.6682 -4.6249
  194MOL0     H26159  13.129   0.683   6.781 -0.4516 -1.0503  1.3120
  194MOL0     H26160  12.964   0.925   6.853  0.0644  0.0370  0.6252
  194MOL0     H26161  13.087   0.929   6.724 -3.1215 -0.4803 -1.2709
  194MOL0     H26162  13.259   0.874   6.868 -0.6588 -1.6810 -0.8538
  194MOL0     H26163  13.158   0.821   7.000  1.3280  0.7058  1.1464
  194MOL0     H26164  13.208   1.108   6.903  0.8580  2.0213  2.2638
  194MOL0     H26165  13.059   1.074   6.992 -1.4588 -2.1020 -3.6435
  194MOL0     H26166  13.347   1.008   7.090 -0.7904 -1.5757 -1.8455
  194MOL0     H26167  13.206   0.994   7.194  0.7389  1.0437  0.8738
  194MOL0     H26168  13.289   1.256   7.074  0.9670  0.5754  1.5413
  194MOL0     H26169  13.145   1.231   7.181 -0.1043  1.3696  1.9135
  194MOL0     H26170  12.691   0.348   6.444  0.0156  0.1587 -0.4560
  194MOL0     H26171  12.473   0.396   6.378  1.1422 -0.1836  1.9033
  194MOL0     H26172  12.252   0.576   5.927  1.1216 -1.2602  1.7020
  194MOL0     H26173  12.041   0.646   5.840  0.2731  0.7702  0.0344
  194MOL0     H26174  10.097   0.362   6.747 -1.1387 -2.6756 -1.8403
  194MOL0     H26175   9.843   0.333   6.773 -2.1612 -2.6385 -5.1250
  194MOL0     H26176   9.409   0.270   6.363  0.9011  0.6323 -0.0883
  194MOL0     H26177   9.169   0.281   6.405 -1.3817 -0.4070  2.2331
  194MOL0     H26178   8.979   0.398   6.382  0.9131  0.3307  0.3398
  194MOL0     H26179   8.849   0.461   6.484 -1.5499 -2.4303  0.7118
  194MOL0     H26180   8.871   0.270   6.638  1.5809  0.8267  0.8675
  194MOL0     H26181   9.026   0.220   6.580  0.2247  1.0348  0.7378
  194MOL0     H26182   8.798   0.251   6.375 -0.1468  1.6705  1.9383
  194MOL0     H26183   8.789   0.115   6.487  0.0428  0.1215 -0.1672
  194MOL0     H26184   8.895   0.037   6.288  3.5804 -0.4521 -1.4698
  194MOL0     H26185   9.020   0.152   6.282 -1.2861  2.3583  0.3436
  194MOL0     H26186   9.117  -0.141   6.587 -0.0175 -0.4987 -0.3081
  194MOL0     H26187   9.228   0.609   6.669 -1.0188 -1.8857  1.5517
  194MOL0     H26188   9.436   0.699   6.687 -2.1211 -1.2071  1.2012
  194MOL0     H26189   9.537   0.570   6.766  1.0870  0.3893 -0.4055
  194MOL0     H26190   9.582   0.642   6.608 -1.7931 -0.5456 -2.0537
  195MOL0     O26191   7.886  10.868   7.019  0.6040  0.1498  0.3173
  195MOL0     C26192   7.840  10.972   6.966 -0.7098  0.3118  0.8032
  195MOL0     O26193   7.915  11.083   6.934  0.4379  0.4227  0.1859
  195MOL0     C26194   8.048  11.062   6.951  0.3647  0.2671 -0.1909
  195MOL0     C26195   8.105  11.105   7.070 -0.9799  1.1054 -0.6188
  195MOL0     C26196   8.240  11.073   7.099 -0.6435 -0.1254 -0.4611
  195MOL0     C26197   8.326  11.018   7.002 -0.3932  0.4969  0.6888
  195MOL0     O26198   8.452  10.977   7.035  0.5917 -0.1735  0.2470
  195MOL0     C26199   8.543  11.092   7.059  0.5270  0.4737  0.3478
  195MOL0     C26200   8.666  11.043   7.133 -0.0326 -0.0069  0.1431
  195MOL0     C26201   8.777  10.973   7.041  0.4040 -0.0061 -0.1492
  195MOL0     C26202   8.909  10.976   7.119  0.1799 -1.1534  0.2529
  195MOL0     C26203   9.027  10.916   7.043 -0.0495  0.8996  0.5366
  195MOL0     C26204   9.015  10.774   6.984 -0.3973 -1.0637 -0.5135
  195MOL0     C26205   9.138  10.727   6.903 -0.1433  0.2521  0.2353
  195MOL0     C26206   9.113  10.588   6.838 -0.2211 -0.1538  0.6538
  195MOL0     N26207   9.230  10.544   6.760  0.3590  0.1566 -0.3477
  195MOL0     C26208   9.306  10.429   6.768  0.1955  0.7168  0.4978
  195MOL0     C26209   9.384  10.418   6.656  0.8224  0.2999 -0.6108
  195MOL0     C26210   9.459  10.306   6.606 -0.7372  0.1017 -0.2973
  195MOL0     C26211   9.572  10.346   6.509 -0.5672 -0.2300 -0.1685
  195MOL0     C26212   9.692  10.433   6.549  0.3931 -0.9683 -1.3076
  195MOL0     C26213   9.792  10.444   6.441 -1.1139 -0.6391  0.1685
  195MOL0     O26214   9.905  10.495   6.506  0.1114  0.2918  0.1044
  195MOL0     C26215  10.008  10.529   6.425 -0.5486 -0.2866  0.1101
  195MOL0     C26216  10.110  10.595   6.480  0.5998  0.4179 -0.8825
  195MOL0     C26217  10.222  10.631   6.410 -0.2851 -0.4143  0.3307
  195MOL0     C26218  10.237  10.608   6.271  0.5606 -0.7607 -0.3970
  195MOL0     C26219  10.374  10.647   6.208  0.8067  0.8538  0.4492
  195MOL0     O26220  10.409  10.588   6.090  0.6356  0.6723  0.2026
  195MOL0     C26221  10.543  10.587   6.050  0.4567  0.3016  0.8678
  195MOL0     C26222  10.570  10.565   5.916  0.1572  0.7787  0.0197
  195MOL0     C26223  10.699  10.553   5.868  1.1419 -1.3588 -0.0641
  195MOL0     C26224  10.809  10.567   5.953  0.8377  0.4850 -0.7153
  195MOL0     O26225  10.927  10.537   5.897  0.1469 -0.2185 -0.2591
  195MOL0     C26226  11.033  10.473   5.981  0.0339 -0.6375 -0.1229
  195MOL0     C26227  11.025  10.320   6.001 -0.6412 -0.5364 -0.0302
  195MOL0     C26228  10.888  10.265   6.043  0.4564 -0.4398 -0.2616
  195MOL0     C26229  10.890  10.111   6.037 -0.8331 -0.4008  0.3329
  195MOL0     C26230  10.756  10.035   6.058  0.1989 -0.4110 -0.4913
  195MOL0     C26231  10.667  10.062   5.935  0.4314 -0.0915  0.1245
  195MOL0     C26232  10.524   9.999   5.943  0.3556 -0.2151 -0.7456
  195MOL0     C26233  10.419  10.105   6.001 -0.6107 -0.3283 -0.4340
  195MOL0    Cl26234  10.251  10.055   5.946  0.2700  0.3731  0.3174
  195MOL0     C26235  10.778  10.581   6.092  0.2764  0.2656 -0.5641
  195MOL0     C26236  10.652  10.602   6.136  0.3415  0.0300 -0.1640
  195MOL0     O26237  10.431  10.746   6.261 -0.2458 -1.0120 -0.7391
  195MOL0     C26238  10.129  10.533   6.208 -0.2310  0.7888  0.1182
  195MOL0     C26239  10.018  10.492   6.288  0.4897 -0.2462 -0.3608
  195MOL0     N26240   9.366  10.540   6.590 -0.0381  0.4547  0.1306
  195MOL0     N26241   9.261  10.606   6.646  0.1557  0.6761  0.3916
  195MOL0     C26242   8.268  10.983   6.879 -1.0029 -0.1364  0.0781
  195MOL0     C26243   8.129  10.995   6.857  0.5490  0.5058 -0.3361
  195MOL0     C26244   7.694  10.989   6.948 -0.5632  0.0349 -0.0956
  195MOL0     C26245   7.637  11.109   6.972 -0.2252  0.2137  0.6989
  195MOL0     C26246   7.500  11.129   6.953  0.2437  0.7983 -0.3036
  195MOL0     C26247   7.414  11.026   6.904  0.2629 -0.1535 -0.1200
  195MOL0     O26248   7.286  11.061   6.899  0.2371 -0.0835 -0.2996
  195MOL0     C26249   7.188  10.971   6.851 -0.2767  0.0094 -0.3424
  195MOL0     C26250   7.055  11.037   6.862 -0.4759  0.1897  0.6966
  195MOL0     C26251   7.011  11.070   7.001  0.2888 -0.5240 -0.4726
  195MOL0     C26252   6.862  11.111   7.001 -0.6751  0.4276  0.2952
  195MOL0     C26253   6.785  11.015   7.090  0.3991 -0.5110  0.8715
  195MOL0     C26254   6.720  10.916   7.130 -0.7624  0.1878  0.2744
  195MOL0     C26255   7.471  10.900   6.870 -0.7438 -0.6278  0.0362
  195MOL0     C26256   7.613  10.885   6.894  1.8781  0.5735  0.2295
  195MOL0     C26257   7.673  10.759   6.851 -0.2652  0.0532 -0.3765
  195MOL0     H26258   8.045  11.154   7.146 -0.6887  1.7647 -0.8091
  195MOL0     H26259   8.274  11.102   7.197 -3.4780 -2.9677  1.5815
  195MOL0     H26260   8.576  11.143   6.968  0.5155 -1.3040 -0.6996
  195MOL0     H26261   8.498  11.159   7.132 -1.2178 -0.4455  0.1652
  195MOL0     H26262   8.637  10.972   7.211 -0.8613  0.0709 -0.0818
  195MOL0     H26263   8.706  11.133   7.181  0.2366 -0.2385  0.3494
  195MOL0     H26264   8.801  11.017   6.944  1.0094 -1.3086 -0.6086
  195MOL0     H26265   8.743  10.871   7.020  1.4931 -0.8112  1.7413
  195MOL0     H26266   8.928  11.084   7.128 -1.0431 -0.9004 -0.1083
  195MOL0     H26267   8.899  10.934   7.219 -0.8706 -1.3032  0.0892
  195MOL0     H26268   9.053  10.982   6.960 -0.4912  0.1350 -0.2186
  195MOL0     H26269   9.113  10.917   7.112  0.3009  2.1087  0.1170
  195MOL0     H26270   9.004  10.699   7.063  1.0806 -1.5016 -0.7022
  195MOL0     H26271   8.927  10.778   6.919  0.6156  1.2626 -1.8577
  195MOL0     H26272   9.220  10.716   6.975  1.4810  0.0354 -1.5774
  195MOL0     H26273   9.164  10.806   6.833 -0.3723  2.5499  2.5768
  195MOL0     H26274   9.099  10.517   6.920 -0.3652 -0.1147  0.6633
  195MOL0     H26275   9.023  10.581   6.777  0.4915 -0.8692 -0.3733
  195MOL0     H26276   9.284  10.339   6.825 -1.7202 -3.1485 -5.4458
  195MOL0     H26277   9.494  10.252   6.694  1.1669  0.1300 -0.9872
  195MOL0     H26278   9.392  10.230   6.562  0.7599 -0.2441 -2.1043
  195MOL0     H26279   9.608  10.257   6.456  1.5939  1.3540 -1.5647
  195MOL0     H26280   9.520  10.395   6.426  0.5470 -2.8629 -2.5936
  195MOL0     H26281   9.734  10.409   6.647 -2.7142 -2.4949 -0.2355
  195MOL0     H26282   9.644  10.531   6.558  0.9872 -0.6974 -1.0613
  195MOL0     H26283   9.759  10.510   6.360 -1.6336 -2.3730 -1.0784
  195MOL0     H26284   9.821  10.348   6.398  1.5123  0.4686 -0.7612
  195MOL0     H26285  10.111  10.613   6.587 -2.0405  0.9650 -0.8846
  195MOL0     H26286  10.304  10.678   6.464 -1.3077 -0.0599  1.6364
  195MOL0     H26287  10.486  10.565   5.848  1.9988  1.7462 -2.4506
  195MOL0     H26288  10.718  10.523   5.765 -0.4565  0.0610 -0.8313
  195MOL0     H26289  11.124  10.497   5.925  0.5960 -3.9368 -0.7870
  195MOL0     H26290  11.036  10.539   6.069 -0.4901  1.8548 -1.8632
  195MOL0     H26291  11.053  10.273   5.906 -1.8301  1.0218 -1.2187
  195MOL0     H26292  11.106  10.297   6.070  1.1079 -1.7666 -2.3553
  195MOL0     H26293  10.867  10.298   6.145 -0.9732  0.7217 -0.8936
  195MOL0     H26294  10.803  10.296   5.980 -0.3224  0.0335  0.9929
  195MOL0     H26295  10.963  10.065   6.104 -0.0780  1.6538  0.9952
  195MOL0     H26296  10.930  10.097   5.935 -3.4014  0.6991 -0.9117
  195MOL0     H26297  10.721  10.079   6.151  1.6312 -0.8474  0.2832
  195MOL0     H26298  10.776   9.928   6.065  0.7733 -0.3110 -0.5376
  195MOL0     H26299  10.651  10.167   5.908 -1.6125 -1.0873 -2.9504
  195MOL0     H26300  10.713  10.009   5.851 -2.5519  1.1607 -2.4758
  195MOL0     H26301  10.527   9.919   6.018  0.7469  1.6456  1.3505
  195MOL0     H26302  10.490   9.957   5.849  1.0703 -0.7307 -0.7824
  195MOL0     H26303  10.419  10.099   6.110  1.7882 -2.0347 -0.4309
  195MOL0     H26304  10.448  10.208   5.977  0.5262 -0.1357  1.5070
  195MOL0     H26305  10.862  10.580   6.161 -0.6675 -0.8899  0.5889
  195MOL0     H26306  10.632  10.615   6.241 -0.3973  0.3645 -0.3392
  195MOL0     H26307  10.123  10.508   6.103 -1.3067  0.0929  0.3258
  195MOL0     H26308   9.932  10.446   6.241  1.0255 -2.4414  0.7091
  195MOL0     H26309   8.340  10.957   6.802 -0.1993  1.9774  0.0455
  195MOL0     H26310   8.096  10.969   6.757  3.9974 -1.4241 -1.1566
  195MOL0     H26311   7.690  11.195   7.011  0.8524  0.0289 -0.3030
  195MOL0     H26312   7.451  11.220   6.984  0.1957  0.0562  1.9915
  195MOL0     H26313   7.183  10.882   6.914  0.7937  0.6610  0.7074
  195MOL0     H26314   7.191  10.931   6.749 -5.6431 -0.4289 -0.6091
  195MOL0     H26315   6.977  10.972   6.820 -2.1099  1.0399  2.3276
  195MOL0     H26316   7.057  11.125   6.797  0.7613 -0.6298 -0.4492
  195MOL0     H26317   7.063  11.155   7.046 -1.6315  0.9315 -0.8955
  195MOL0     H26318   7.032  10.980   7.060 -1.0370 -1.1198 -0.8618
  195MOL0     H26319   6.866  11.216   7.029 -0.4897  0.5131 -0.0486
  195MOL0     H26320   6.805  11.107   6.908 -2.8447  0.2526  1.5612
  195MOL0     H26321   6.661  10.837   7.172  1.1638 -1.7975 -0.5366
  195MOL0     H26322   7.418  10.816   6.827  2.2390 -1.4688 -2.3225
  195MOL0     H26323   7.605  10.690   6.800 -1.8686 -1.3804  3.2978
  195MOL0     H26324   7.767  10.780   6.800  0.2747 -1.9238 -0.3089
  195MOL0     H26325   7.715  10.712   6.941  0.5817  0.9604 -0.2843
  196MOL0     O26326   7.550   9.864   8.532  0.0538  0.0536 -0.1081
  196MOL0     C26327   7.483   9.948   8.591 -0.0516 -0.0228  0.0945
  196MOL0     O26328   7.489   9.966   8.724  0.2291 -0.6981  0.8587
  196MOL0     C26329   7.602   9.920   8.797  1.0729  0.6514 -0.4378
  196MOL0     C26330   7.605   9.797   8.864 -0.7749  0.0702  0.4420
  196MOL0     C26331   7.710   9.756   8.944 -0.3643 -0.3996  0.3794
  196MOL0     C26332   7.822   9.844   8.964 -0.0013 -0.4569 -0.1729
  196MOL0     O26333   7.924   9.818   9.044  0.1924 -0.1533 -0.6437
  196MOL0     C26334   7.926   9.697   9.126  0.6580  0.3709  0.3095
  196MOL0     C26335   8.022   9.712   9.246  0.4374  1.0229 -0.6908
  196MOL0     C26336   8.167   9.690   9.202 -0.5856 -0.1190  0.7342
  196MOL0     C26337   8.263   9.732   9.307 -0.2680 -0.1801 -0.2075
  196MOL0     C26338   8.408   9.753   9.256  0.6214 -0.4990 -0.5179
  196MOL0     C26339   8.485   9.807   9.374  0.2399 -1.1410  0.8966
  196MOL0     C26340   8.630   9.846   9.328 -0.3405  0.2179  0.2321
  196MOL0     C26341   8.707   9.893   9.451  0.0009  0.6889  0.1756
  196MOL0     N26342   8.848   9.899   9.421  0.4373  0.0971  0.4006
  196MOL0     C26343   8.936   9.799   9.444  0.3233  0.3236 -0.0232
  196MOL0     C26344   9.054   9.868   9.454 -0.7578 -0.3439  0.9244
  196MOL0     C26345   9.187   9.803   9.479 -0.4312 -0.5744  0.2593
  196MOL0     C26346   9.279   9.891   9.566 -0.5356  0.5470 -0.2373
  196MOL0     C26347   9.412   9.817   9.586 -0.1625 -0.6552 -0.0289
  196MOL0     C26348   9.501   9.893   9.679  0.1998 -0.1003  0.5092
  196MOL0     O26349   9.558  10.004   9.613 -0.0857  0.0241 -0.0805
  196MOL0     C26350   9.660  10.072   9.670  0.1601  0.6010 -0.2347
  196MOL0     C26351   9.737  10.149   9.587 -0.3248 -0.2368 -0.0573
  196MOL0     C26352   9.855  10.207   9.644 -0.1130  0.2880 -0.2345
  196MOL0     C26353   9.886  10.194   9.785  0.1791 -0.1344  0.3878
  196MOL0     C26354   9.996  10.282   9.850  0.7611 -0.5157  0.0439
  196MOL0     O26355  10.034  10.396   9.784 -0.0876 -0.9417  0.1206
  196MOL0     C26356  10.152  10.455   9.804 -0.3447 -0.0007  0.3628
  196MOL0     C26357  10.181  10.532   9.914  0.1958  0.0087 -0.2787
  196MOL0     C26358  10.305  10.595   9.919 -0.6147 -0.3021  0.4720
  196MOL0     C26359  10.405  10.578   9.819  0.4867  0.4434 -0.3027
  196MOL0     O26360  10.535  10.625   9.823 -0.2644  0.6868  0.6955
  196MOL0     C26361  10.578  10.717   9.926 -0.9053  0.3194 -0.1821
  196MOL0     C26362  10.675  10.659  10.026  0.2739  0.0292 -0.0175
  196MOL0     C26363  10.814  10.630   9.961  0.7635 -0.4811  0.0231
  196MOL0     C26364  10.937  10.633  10.054 -0.7396 -0.3638  0.2067
  196MOL0     C26365  11.066  10.624   9.972 -0.0499  0.1023  0.1066
  196MOL0     C26366  11.119  10.766   9.936  0.4771  0.3308 -0.5329
  196MOL0     C26367  11.264  10.746   9.894  0.1827  1.2139  0.7467
  196MOL0     C26368  11.333  10.879   9.854  0.5674 -0.0328  0.7645
  196MOL0    Cl26369  11.500  10.849   9.813  0.1065 -0.1088  0.2992
  196MOL0     C26370  10.378  10.496   9.709 -1.1054  0.6052 -0.0859
  196MOL0     C26371  10.249  10.441   9.705 -0.1491  0.5477 -0.1460
  196MOL0     O26372  10.036  10.250   9.963  0.1635 -1.0904  0.8401
  196MOL0     C26373   9.801  10.114   9.869 -0.2096  0.0177 -0.5254
  196MOL0     C26374   9.694  10.056   9.811  0.0458  1.3160  0.3778
  196MOL0     N26375   9.028  10.012   9.445  0.6849  0.1723 -0.1696
  196MOL0     N26376   8.902  10.025   9.427 -0.0352  0.1091 -0.3020
  196MOL0     C26377   7.828   9.966   8.900  0.4948 -1.1385 -0.2558
  196MOL0     C26378   7.715  10.002   8.824 -0.1555 -0.8856  0.6150
  196MOL0     C26379   7.383  10.016   8.512  0.3479 -0.1038  0.2450
  196MOL0     C26380   7.394  10.012   8.371 -1.0963  1.4756  0.3417
  196MOL0     C26381   7.294  10.058   8.285  0.8746  0.5367 -0.4809
  196MOL0     C26382   7.175  10.109   8.347 -0.2693 -0.0997 -0.4901
  196MOL0     O26383   7.053  10.130   8.287  0.5537  0.1155 -0.1914
  196MOL0     C26384   7.059  10.148   8.146 -0.4494  0.0048 -0.2951
  196MOL0     C26385   6.926  10.191   8.088  0.7300  0.6473  0.5730
  196MOL0     C26386   6.812  10.096   8.119 -0.0892  0.1456  0.2966
  196MOL0     C26387   6.683  10.131   8.066 -0.5222 -0.1884  0.5071
  196MOL0     C26388   6.596  10.214   8.148 -0.4379 -0.3945  0.5749
  196MOL0     C26389   6.528  10.285   8.218 -0.2796 -0.0423  0.8685
  196MOL0     C26390   7.165  10.116   8.480  0.2222  0.7560 -0.2344
  196MOL0     C26391   7.265  10.075   8.566 -0.3920 -0.4705 -0.1546
  196MOL0     C26392   7.246  10.096   8.721 -0.3689  0.7097  0.2702
  196MOL0     H26393   7.535   9.718   8.840  1.5756 -3.1987  3.3120
  196MOL0     H26394   7.703   9.653   8.979  1.6500 -0.3983  0.9337
  196MOL0     H26395   7.830   9.681   9.177  1.7366 -1.5337  1.8990
  196MOL0     H26396   7.949   9.607   9.070 -0.0067  0.2394  0.2387
  196MOL0     H26397   8.007   9.641   9.328  2.8791  1.9240  0.6660
  196MOL0     H26398   8.003   9.809   9.293 -3.2060  0.8233 -1.4560
  196MOL0     H26399   8.182   9.760   9.120 -4.9610  1.6699  1.1938
  196MOL0     H26400   8.174   9.582   9.180 -3.9799 -0.0322 -1.5501
  196MOL0     H26401   8.231   9.821   9.361  2.8210 -0.3728  2.2282
  196MOL0     H26402   8.267   9.652   9.381  0.9084 -0.2563 -0.3233
  196MOL0     H26403   8.452   9.660   9.221 -0.6235 -1.1922 -0.2997
  196MOL0     H26404   8.397   9.827   9.176 -0.3175  1.4310  1.2963
  196MOL0     H26405   8.436   9.893   9.422 -0.3963 -0.4443 -0.9251
  196MOL0     H26406   8.493   9.729   9.450 -0.1427  1.6413  4.0292
  196MOL0     H26407   8.627   9.934   9.264  1.3326 -0.0120 -0.2160
  196MOL0     H26408   8.685   9.768   9.275 -1.3455 -0.9264  0.8211
  196MOL0     H26409   8.673   9.996   9.463 -0.0775  0.6024  0.7523
  196MOL0     H26410   8.682   9.837   9.542 -0.8417 -1.0430 -1.0449
  196MOL0     H26411   8.908   9.694   9.451 -0.1692  0.4507 -0.0615
  196MOL0     H26412   9.169   9.710   9.535 -1.0348  0.1092  1.2375
  196MOL0     H26413   9.238   9.784   9.385  3.7547 -0.6597  2.3140
  196MOL0     H26414   9.300   9.988   9.520 -1.5744  0.5238 -0.7681
  196MOL0     H26415   9.245   9.913   9.668  1.4634  0.9386  0.3902
  196MOL0     H26416   9.466   9.818   9.491 -0.3754 -1.3518 -0.1627
  196MOL0     H26417   9.398   9.711   9.613 -0.0677 -0.5738  0.3546
  196MOL0     H26418   9.584   9.829   9.711  2.7762  0.6616 -3.8321
  196MOL0     H26419   9.439   9.926   9.764 -2.1500 -4.1920  0.6511
  196MOL0     H26420   9.717  10.165   9.481  3.8129  0.5582 -0.8808
  196MOL0     H26421   9.909  10.263   9.569  1.4259 -0.1287  0.5170
  196MOL0     H26422  10.109  10.539   9.995  0.2060  2.8958 -0.4074
  196MOL0     H26423  10.342  10.644  10.009 -0.2158 -0.1369  0.2217
  196MOL0     H26424  10.638  10.800   9.887  0.4046 -0.3830  0.2789
  196MOL0     H26425  10.502  10.772   9.983 -0.7382  0.8032 -0.4224
  196MOL0     H26426  10.677  10.725  10.113  0.1309  0.6835 -0.5011
  196MOL0     H26427  10.637  10.561  10.059  4.3221 -1.3964  0.9982
  196MOL0     H26428  10.808  10.530   9.917  2.0932 -0.5551 -0.0392
  196MOL0     H26429  10.839  10.701   9.881 -0.7794 -0.3908 -0.4133
  196MOL0     H26430  10.931  10.565  10.140  1.4931  0.3682  1.0394
  196MOL0     H26431  10.948  10.720  10.119  0.2091  0.1122 -0.5560
  196MOL0     H26432  11.054  10.568   9.879 -0.5922 -1.3969  1.0348
  196MOL0     H26433  11.146  10.580  10.032 -0.1694 -0.4918 -0.1614
  196MOL0     H26434  11.061  10.817   9.859  1.4603  3.0869  0.4263
  196MOL0     H26435  11.111  10.834  10.021  2.7909 -1.0424  0.8837
  196MOL0     H26436  11.271  10.676   9.811  0.0269  2.7391 -0.6146
  196MOL0     H26437  11.328  10.696   9.966 -0.8744 -0.6232  0.4696
  196MOL0     H26438  11.285  10.924   9.768  1.8037  1.9812  1.0589
  196MOL0     H26439  11.335  10.956   9.932  1.2859  0.4365  0.2992
  196MOL0     H26440  10.442  10.468   9.626 -1.2261  1.2631 -0.4069
  196MOL0     H26441  10.229  10.399   9.607  1.4634  1.4092 -0.8884
  196MOL0     H26442   9.820  10.103   9.975 -3.0343 -1.5754 -0.1047
  196MOL0     H26443   9.630  10.001   9.880 -0.2486  1.8746  0.5509
  196MOL0     H26444   7.919  10.025   8.908  0.5978 -0.0641 -5.7067
  196MOL0     H26445   7.727  10.092   8.765 -1.9664 -0.8783  0.1836
  196MOL0     H26446   7.470   9.954   8.320  0.0280  1.8035  1.5849
  196MOL0     H26447   7.277  10.036   8.180 -2.4446 -2.1700  0.4356
  196MOL0     H26448   7.096  10.055   8.101  0.0249  1.1776 -2.4854
  196MOL0     H26449   7.139  10.221   8.130 -0.1672 -0.6582 -2.2906
  196MOL0     H26450   6.931  10.206   7.980  2.5611 -0.0695  0.5190
  196MOL0     H26451   6.899  10.286   8.136  2.3006  1.3523  0.1065
  196MOL0     H26452   6.800  10.090   8.228 -1.8464  0.9289  0.1779
  196MOL0     H26453   6.857  10.000   8.092  1.5107  0.7824  0.6316
  196MOL0     H26454   6.683  10.166   7.962 -4.0047  2.6632  1.2644
  196MOL0     H26455   6.645  10.029   8.057  0.2854 -0.3374 -2.3396
  196MOL0     H26456   6.462  10.345   8.278 -0.1712  1.1461 -0.1797
  196MOL0     H26457   7.067  10.147   8.515 -0.6276  2.6396 -3.8521
  196MOL0     H26458   7.334  10.143   8.766  0.3314 -0.4409  0.1212
  196MOL0     H26459   7.165  10.167   8.743 -2.4486 -0.9922 -1.4757
  196MOL0     H26460   7.226  10.003   8.775  0.9095 -0.8014 -1.7577
  197MOL0     O26461   7.607   9.300   4.358  0.2961 -0.1748 -0.2424
  197MOL0     C26462   7.577   9.357   4.465 -0.3381  1.1613  0.2764
  197MOL0     O26463   7.634   9.463   4.518  0.0711  0.1717 -0.4914
  197MOL0     C26464   7.742   9.517   4.468 -0.4727  0.1556  0.5778
  197MOL0     C26465   7.868   9.476   4.520  0.3370 -0.4521 -0.5458
  197MOL0     C26466   7.987   9.522   4.457 -0.0211 -0.7061 -0.1897
  197MOL0     C26467   7.985   9.609   4.345  0.1560  0.1607 -0.1631
  197MOL0     O26468   8.104   9.643   4.286  0.4264 -0.2802 -0.3936
  197MOL0     C26469   8.109   9.755   4.193  0.2899  0.3899  0.7105
  197MOL0     C26470   8.255   9.798   4.152 -0.3266 -0.6742 -0.6184
  197MOL0     C26471   8.255   9.921   4.066 -0.2878 -0.4104  0.4686
  197MOL0     C26472   8.403   9.947   4.017  0.2432  0.2047  0.3093
  197MOL0     C26473   8.416  10.055   3.919 -0.9893  0.2392  0.4681
  197MOL0     C26474   8.564  10.060   3.866 -1.0317  0.5924  0.8350
  197MOL0     C26475   8.661  10.146   3.944  0.1527 -0.6919 -0.7774
  197MOL0     C26476   8.780  10.176   3.850  1.3318  0.6434  0.7549
  197MOL0     N26477   8.888  10.252   3.912 -0.4110 -0.9945  0.4406
  197MOL0     C26478   9.008  10.192   3.942 -0.6742  0.1173  0.2180
  197MOL0     C26479   9.077  10.299   4.002 -0.0734 -0.3552  0.1613
  197MOL0     C26480   9.215  10.287   4.057 -0.9269  0.4591  0.5355
  197MOL0     C26481   9.237  10.348   4.198  0.7712  0.0304  0.6646
  197MOL0     C26482   9.381  10.331   4.230  0.4969  0.4016  0.1946
  197MOL0     C26483   9.472  10.444   4.182  0.0695 -1.1107  0.1986
  197MOL0     O26484   9.589  10.449   4.264 -0.3471 -0.5162 -0.3500
  197MOL0     C26485   9.693  10.366   4.250 -0.9022  1.3943  0.1141
  197MOL0     C26486   9.713  10.278   4.139 -0.4244 -0.4624 -0.1999
  197MOL0     C26487   9.833  10.201   4.117 -0.0718  0.3006  0.3170
  197MOL0     C26488   9.937  10.207   4.207  0.0888 -1.7485  0.2937
  197MOL0     C26489  10.065  10.135   4.189 -0.4272 -0.4136 -0.1041
  197MOL0     O26490  10.091  10.085   4.063  0.0531  0.4453  0.0033
  197MOL0     C26491  10.198  10.003   4.034 -0.0847 -0.5603  0.0649
  197MOL0     C26492  10.191   9.940   3.907  1.0847 -0.1293 -0.1300
  197MOL0     C26493  10.295   9.857   3.875  0.0026  0.2877 -0.9224
  197MOL0     C26494  10.410   9.842   3.948  0.1075 -0.2043 -0.3609
  197MOL0     O26495  10.505   9.751   3.911 -0.5911  0.3089 -0.1601
  197MOL0     C26496  10.649   9.784   3.929 -0.4542 -0.4167  0.5940
  197MOL0     C26497  10.733   9.674   3.856 -0.0578  0.4559  0.7808
  197MOL0     C26498  10.880   9.717   3.837 -1.3151 -0.0081 -0.3791
  197MOL0     C26499  10.971   9.590   3.822  0.6865  0.2422  0.3480
  197MOL0     C26500  11.121   9.628   3.813  0.8192  0.2935 -0.0195
  197MOL0     C26501  11.229   9.520   3.778  0.6886  0.9336 -1.0354
  197MOL0     C26502  11.359   9.583   3.782 -0.1436  0.3902  0.0389
  197MOL0     C26503  11.480   9.518   3.716  0.4715  0.7927  1.3300
  197MOL0    Cl26504  11.505   9.349   3.762 -0.1737 -0.1541 -0.0271
  197MOL0     C26505  10.412   9.901   4.074  0.5166 -0.3455 -0.5239
  197MOL0     C26506  10.315   9.976   4.116  0.4571 -0.1940 -0.5066
  197MOL0     O26507  10.132  10.121   4.289 -0.0090 -0.2705  0.1838
  197MOL0     C26508   9.912  10.289   4.322  0.8239 -0.7502 -0.9050
  197MOL0     C26509   9.796  10.361   4.338 -0.2076  0.2253 -0.8601
  197MOL0     N26510   8.999  10.406   4.014  0.1161 -0.0310  0.0474
  197MOL0     N26511   8.890  10.383   3.948  0.1099 -0.5266  0.0577
  197MOL0     C26512   7.852   9.652   4.298  0.3595  0.1845 -0.4861
  197MOL0     C26513   7.730   9.600   4.360 -0.1035  0.3934 -0.0621
  197MOL0     C26514   7.463   9.299   4.538  0.3948 -1.0131 -0.0953
  197MOL0     C26515   7.367   9.226   4.469  0.5395 -0.5709  0.3833
  197MOL0     C26516   7.251   9.174   4.521  0.3646 -0.6100  0.0624
  197MOL0     C26517   7.232   9.185   4.660  0.1586  0.1137  0.3201
  197MOL0     O26518   7.123   9.126   4.725  0.2203  1.1395 -0.2092
  197MOL0     C26519   7.008   9.195   4.735 -0.0571  0.0759  0.4264
  197MOL0     C26520   6.921   9.124   4.843 -1.0075  0.1225  0.5756
  197MOL0     C26521   6.778   9.181   4.858 -0.0575  0.0470 -0.4077
  197MOL0     C26522   6.711   9.100   4.972  0.2093  0.4624 -0.4881
  197MOL0     C26523   6.562   9.101   4.963  0.0921  0.7327 -0.8376
  197MOL0     C26524   6.437   9.092   4.966  0.4234 -0.5216 -0.6270
  197MOL0     C26525   7.336   9.243   4.735 -0.0985  0.5041 -0.1154
  197MOL0     C26526   7.446   9.301   4.678  0.1338  0.2250 -0.6316
  197MOL0     C26527   7.558   9.343   4.777  0.5247 -0.1662  0.2298
  197MOL0     H26528   7.871   9.417   4.611 -0.7657  0.4592  0.1046
  197MOL0     H26529   8.079   9.504   4.510  0.1975 -0.1963 -0.3890
  197MOL0     H26530   8.060   9.723   4.100 -0.5067 -0.3605  1.3719
  197MOL0     H26531   8.056   9.844   4.228  1.6680  1.3016  0.5972
  197MOL0     H26532   8.297   9.715   4.094  0.6504  0.9012 -2.2673
  197MOL0     H26533   8.318   9.807   4.240  0.4245 -3.7692 -0.7296
  197MOL0     H26534   8.230  10.016   4.114  2.5793 -0.5673  2.4677
  197MOL0     H26535   8.196   9.905   3.975  0.9977 -1.5895 -0.1985
  197MOL0     H26536   8.461   9.976   4.105  0.6577  0.9127 -0.1987
  197MOL0     H26537   8.443   9.857   3.970  0.7436  1.2398 -1.3028
  197MOL0     H26538   8.351  10.027   3.836 -1.1056 -0.3656  0.7612
  197MOL0     H26539   8.390  10.158   3.945  2.6741  1.6702 -0.9538
  197MOL0     H26540   8.603   9.958   3.863  3.0374  1.9927 -0.0874
  197MOL0     H26541   8.554  10.081   3.759 -0.3354  0.0497  0.6600
  197MOL0     H26542   8.706  10.092   4.028 -2.4812  0.5963  1.6232
  197MOL0     H26543   8.617  10.241   3.974  1.9461  0.9401 -3.0094
  197MOL0     H26544   8.820  10.084   3.808  2.5262  0.2254  2.6639
  197MOL0     H26545   8.737  10.241   3.773  0.0024 -0.0340  0.8934
  197MOL0     H26546   9.053  10.096   3.920 -1.9759  0.1519 -3.0099
  197MOL0     H26547   9.241  10.182   4.070  0.4771  0.9764  2.2366
  197MOL0     H26548   9.287  10.335   3.990  0.9118 -0.0831  2.0508
  197MOL0     H26549   9.205  10.453   4.200  0.2394 -0.1350  1.0764
  197MOL0     H26550   9.171  10.293   4.265 -0.9703 -0.1503 -1.1201
  197MOL0     H26551   9.411  10.242   4.175  0.9538  1.3543 -1.1636
  197MOL0     H26552   9.391  10.315   4.338 -0.8786 -1.4481  0.0931
  197MOL0     H26553   9.420  10.540   4.190  0.3685 -0.8330 -1.0389
  197MOL0     H26554   9.499  10.437   4.076  3.4593  1.2974  0.7422
  197MOL0     H26555   9.632  10.262   4.068  0.5364 -1.7392 -1.0653
  197MOL0     H26556   9.843  10.145   4.024 -1.8272  1.1873 -0.4617
  197MOL0     H26557  10.123   9.937   3.823  1.1442 -0.9005 -0.1601
  197MOL0     H26558  10.272   9.807   3.781 -0.1210 -0.9765 -0.2487
  197MOL0     H26559  10.675   9.871   3.869 -3.6413  1.1616  1.2582
  197MOL0     H26560  10.685   9.784   4.032 -2.4281  1.4597  1.3723
  197MOL0     H26561  10.736   9.589   3.925  0.4821 -0.0477  0.1536
  197MOL0     H26562  10.690   9.655   3.758  0.4626 -1.0003  0.7983
  197MOL0     H26563  10.884   9.768   3.741  1.7037 -1.1121 -0.9449
  197MOL0     H26564  10.915   9.784   3.917 -3.4921 -0.3545  0.9428
  197MOL0     H26565  10.941   9.532   3.735  0.4324 -1.9877  1.8548
  197MOL0     H26566  10.961   9.521   3.906 -2.2621 -0.1770 -0.2492
  197MOL0     H26567  11.145   9.676   3.909 -1.8140  4.4314 -1.1483
  197MOL0     H26568  11.122   9.710   3.741 -0.5095  1.7189  1.4919
  197MOL0     H26569  11.222   9.434   3.844 -0.5817  1.7769 -0.0075
  197MOL0     H26570  11.210   9.492   3.674  1.0775 -3.6765 -0.0650
  197MOL0     H26571  11.385   9.590   3.888 -1.0148  0.6268  0.2384
  197MOL0     H26572  11.348   9.682   3.736  1.8668  1.3775  1.5111
  197MOL0     H26573  11.458   9.522   3.609  0.1996  0.6757  1.3822
  197MOL0     H26574  11.570   9.581   3.716 -1.1069  3.2422 -0.4521
  197MOL0     H26575  10.502   9.903   4.134 -0.8215  3.3665  1.7050
  197MOL0     H26576  10.332  10.033   4.208 -1.5458  1.8988 -1.3159
  197MOL0     H26577   9.976  10.302   4.409 -0.8102  0.4447  0.1643
  197MOL0     H26578   9.779  10.411   4.432 -2.5330 -2.8192  0.5325
  197MOL0     H26579   7.841   9.726   4.220 -0.0886 -0.3153 -0.9100
  197MOL0     H26580   7.634   9.634   4.322  0.0210  0.0243 -0.7383
  197MOL0     H26581   7.375   9.208   4.362  0.6418 -4.2278  0.8791
  197MOL0     H26582   7.179   9.110   4.473  0.1132 -1.8934  2.0205
  197MOL0     H26583   6.951   9.201   4.641 -1.3950  2.3262  1.3022
  197MOL0     H26584   7.027   9.299   4.761  1.3782  0.3868 -1.5863
  197MOL0     H26585   6.970   9.130   4.941  1.0287 -0.7559 -0.3513
  197MOL0     H26586   6.911   9.019   4.817  0.1740 -0.0127  0.6267
  197MOL0     H26587   6.720   9.164   4.767 -0.7823 -0.0467  0.0678
  197MOL0     H26588   6.779   9.284   4.896  1.3620 -0.9971  2.6927
  197MOL0     H26589   6.738   8.994   4.965 -2.5221 -0.2332 -2.1563
  197MOL0     H26590   6.740   9.131   5.072  1.7237 -3.8006  0.6040
  197MOL0     H26591   6.332   9.091   4.990  1.1304 -1.7931  2.9717
  197MOL0     H26592   7.333   9.232   4.843  2.1379 -1.5605 -0.1700
  197MOL0     H26593   7.536   9.448   4.796  1.3602  0.3520 -1.4909
  197MOL0     H26594   7.551   9.285   4.870 -2.8598 -0.1457  0.1075
  197MOL0     H26595   7.657   9.335   4.731  1.0054  1.3767  0.9283
  198MOL0     O26596   1.251   2.824   7.587  0.5442 -0.0527 -0.4652
  198MOL0     C26597   1.222   2.815   7.468  0.9116 -0.5530  0.4898
  198MOL0     O26598   1.318   2.824   7.366  0.0786  0.0207  0.0214
  198MOL0     C26599   1.446   2.831   7.412  0.2121  0.3052  0.7006
  198MOL0     C26600   1.517   2.954   7.415 -0.5835  0.2078 -0.2030
  198MOL0     C26601   1.654   2.956   7.445  0.1674  0.4439  0.2447
  198MOL0     C26602   1.724   2.837   7.444  0.6478 -0.6252 -0.1174
  198MOL0     O26603   1.859   2.849   7.449  0.2888  0.5649  0.2146
  198MOL0     C26604   1.936   2.723   7.420  0.1545 -0.4999 -0.0602
  198MOL0     C26605   2.083   2.760   7.399 -0.4246 -0.2597  0.3117
  198MOL0     C26606   2.142   2.806   7.523 -0.2831  0.9223 -0.3027
  198MOL0     C26607   2.286   2.840   7.505 -0.8478 -0.5207 -0.2052
  198MOL0     C26608   2.329   2.926   7.617 -0.5913 -0.1713  0.2350
  198MOL0     C26609   2.472   2.989   7.609  0.5768 -0.1182  0.1803
  198MOL0     C26610   2.480   3.092   7.497 -0.4170  0.0492 -0.0378
  198MOL0     C26611   2.615   3.164   7.516  0.3235 -0.3755  0.2067
  198MOL0     N26612   2.703   3.156   7.406  0.4592 -0.5733 -0.0194
  198MOL0     C26613   2.694   3.207   7.275  0.1021 -0.4850 -0.7366
  198MOL0     C26614   2.811   3.181   7.201  0.1083  0.2167  0.1789
  198MOL0     C26615   2.849   3.220   7.062  0.0242 -0.2183  1.4103
  198MOL0     C26616   2.940   3.346   7.034  0.8262 -0.0097  0.3615
  198MOL0     C26617   2.990   3.339   6.897 -0.9227  0.1726  0.1679
  198MOL0     C26618   3.070   3.470   6.853  0.5362 -0.0361  0.2315
  198MOL0     O26619   3.169   3.502   6.954  0.2601 -1.2102  0.5535
  198MOL0     C26620   3.294   3.450   6.946 -0.4499 -0.0807  0.3796
  198MOL0     C26621   3.386   3.492   7.047  1.5681 -0.0355  0.9861
  198MOL0     C26622   3.515   3.443   7.053 -0.3228 -0.6763  0.9023
  198MOL0     C26623   3.559   3.341   6.960  0.9315 -0.1693  0.3779
  198MOL0     C26624   3.688   3.282   6.984 -0.0493 -0.1574  0.7721
  198MOL0     O26625   3.754   3.240   6.868 -0.4576 -0.3023 -0.0558
  198MOL0     C26626   3.891   3.228   6.858 -0.2962  0.5018  0.8770
  198MOL0     C26627   3.982   3.283   6.950  0.1308 -0.0432 -0.5316
  198MOL0     C26628   4.121   3.288   6.926 -0.6706  0.1403  0.9932
  198MOL0     C26629   4.166   3.228   6.800 -0.4416 -0.0690  0.6867
  198MOL0     O26630   4.301   3.226   6.764  0.1314  0.3554 -0.1550
  198MOL0     C26631   4.347   3.211   6.629 -0.2812  0.6851  0.3434
  198MOL0     C26632   4.499   3.184   6.642  0.0448  0.0433 -0.9103
  198MOL0     C26633   4.574   3.196   6.508  0.6445 -0.5617  0.6109
  198MOL0     C26634   4.642   3.327   6.489 -0.1180  0.1895  0.1377
  198MOL0     C26635   4.640   3.362   6.340 -0.0228 -0.4108  0.2490
  198MOL0     C26636   4.675   3.506   6.316  0.3297 -0.2134  0.1230
  198MOL0     C26637   4.590   3.603   6.395 -0.0645 -0.2947 -0.3592
  198MOL0     C26638   4.590   3.735   6.328 -0.8119 -0.2724  0.1781
  198MOL0    Cl26639   4.754   3.790   6.308  0.4789  0.1145  0.1787
  198MOL0     C26640   4.075   3.166   6.707  0.9967 -0.2567 -0.0383
  198MOL0     C26641   3.940   3.168   6.739  0.2690 -0.3162  0.5709
  198MOL0     O26642   3.728   3.265   7.094 -0.4788 -0.2842  0.1475
  198MOL0     C26643   3.478   3.305   6.852  0.4409  0.4672 -0.1951
  198MOL0     C26644   3.348   3.365   6.842  0.1639  0.3992  0.4968
  198MOL0     N26645   2.888   3.105   7.279  0.0213  0.4423 -0.2897
  198MOL0     N26646   2.827   3.089   7.398  0.1480  0.6600  0.1611
  198MOL0     C26647   1.647   2.717   7.444  0.1604 -0.6498  0.3705
  198MOL0     C26648   1.514   2.710   7.432 -1.5541 -0.0084 -0.2738
  198MOL0     C26649   1.077   2.795   7.430  0.5673 -0.0736  0.8136
  198MOL0     C26650   1.012   2.900   7.361  0.4141 -0.0848 -1.0118
  198MOL0     C26651   0.874   2.878   7.330 -0.5779 -0.2026 -0.7616
  198MOL0     C26652   0.805   2.761   7.365 -0.6250  0.0096  1.5090
  198MOL0     O26653   0.684   2.732   7.320 -0.3694 -0.3276 -0.1021
  198MOL0     C26654   0.587   2.843   7.298 -1.0894 -0.0661  0.2576
  198MOL0     C26655   0.525   2.865   7.439 -0.2495 -0.4599  0.6824
  198MOL0     C26656   0.421   2.748   7.473 -0.8236 -0.7132  0.8842
  198MOL0     C26657   0.284   2.795   7.421  0.2212 -0.5076 -0.5446
  198MOL0     C26658   0.188   2.679   7.446  0.2655 -0.0818 -0.9487
  198MOL0     C26659   0.137   2.580   7.476  0.5353 -0.3306 -0.7957
  198MOL0     C26660   0.875   2.664   7.435  0.6221  0.3207 -0.2249
  198MOL0     C26661   1.008   2.682   7.471  0.4683 -0.1807 -0.1485
  198MOL0     C26662   1.076   2.572   7.550  0.7104 -0.1608  0.1558
  198MOL0     H26663   1.477   3.052   7.389  1.6321  0.8628 -1.3711
  198MOL0     H26664   1.709   3.049   7.454 -1.6149  1.4071  1.6284
  198MOL0     H26665   1.917   2.658   7.506 -1.7652 -0.0700 -0.1027
  198MOL0     H26666   1.906   2.672   7.328  2.8637 -0.8606 -0.8298
  198MOL0     H26667   2.095   2.841   7.326  1.7827 -1.2355 -0.5103
  198MOL0     H26668   2.138   2.673   7.362  0.3164 -0.1442  1.1180
  198MOL0     H26669   2.130   2.730   7.601 -1.6857 -0.4156 -1.7327
  198MOL0     H26670   2.083   2.895   7.544 -0.6324  0.7682 -0.6201
  198MOL0     H26671   2.353   2.754   7.511  0.1912  0.3383  1.3150
  198MOL0     H26672   2.295   2.890   7.408  0.7984  0.0431  0.1962
  198MOL0     H26673   2.253   3.003   7.635 -2.5277 -2.7254  4.3991
  198MOL0     H26674   2.328   2.868   7.710  0.6124  1.8440  1.6055
  198MOL0     H26675   2.484   3.033   7.708  1.0160 -0.1142  0.1275
  198MOL0     H26676   2.549   2.911   7.604 -1.2822 -2.0010 -0.7695
  198MOL0     H26677   2.407   3.173   7.509 -2.3417 -1.6561  0.3282
  198MOL0     H26678   2.474   3.044   7.399  4.2331  1.4519 -1.2326
  198MOL0     H26679   2.593   3.269   7.537  2.1149  0.0019  0.3907
  198MOL0     H26680   2.670   3.121   7.601 -0.3687  0.1608  0.9374
  198MOL0     H26681   2.607   3.257   7.234 -0.9535 -2.3043 -0.8075
  198MOL0     H26682   2.896   3.130   7.023 -0.3330 -0.0852  0.6560
  198MOL0     H26683   2.753   3.227   7.011  0.5068  1.8668  0.6833
  198MOL0     H26684   2.881   3.437   7.046  1.9525  0.4956  2.5334
  198MOL0     H26685   3.021   3.364   7.106  0.4875  0.9063  0.5204
  198MOL0     H26686   2.914   3.317   6.821  0.3649  1.0570 -1.4541
  198MOL0     H26687   3.063   3.258   6.882  0.1908  1.4583 -1.8079
  198MOL0     H26688   3.003   3.556   6.839  1.4382  0.3103 -2.4298
  198MOL0     H26689   3.105   3.451   6.751  0.0104 -2.7230  0.4685
  198MOL0     H26690   3.357   3.570   7.117 -1.1813 -0.4158  0.4136
  198MOL0     H26691   3.586   3.479   7.126  0.5148 -2.7592  1.1909
  198MOL0     H26692   3.946   3.331   7.041 -0.8891 -1.6247 -0.0676
  198MOL0     H26693   4.196   3.319   6.998  0.4377  0.2007 -0.1599
  198MOL0     H26694   4.308   3.122   6.579  0.9391 -0.9014  2.0831
  198MOL0     H26695   4.322   3.303   6.574  0.1073  1.3302  1.2137
  198MOL0     H26696   4.549   3.247   6.716 -1.9673  0.1691  0.4154
  198MOL0     H26697   4.514   3.080   6.673 -3.1877 -0.9229 -2.2131
  198MOL0     H26698   4.648   3.117   6.495  1.4440  0.2232  0.3164
  198MOL0     H26699   4.500   3.184   6.428 -1.2182 -0.1718  2.1784
  198MOL0     H26700   4.744   3.324   6.526 -0.4308  1.2985  1.1564
  198MOL0     H26701   4.591   3.404   6.548 -1.6439  0.2246 -1.1578
  198MOL0     H26702   4.547   3.331   6.293  0.2593 -0.5809 -0.2057
  198MOL0     H26703   4.709   3.299   6.284  1.5659 -1.5358  3.2410
  198MOL0     H26704   4.782   3.519   6.334  0.6369 -2.0319 -0.1962
  198MOL0     H26705   4.662   3.521   6.209 -0.0831  0.1520  0.2206
  198MOL0     H26706   4.626   3.611   6.499  1.8289  0.2952 -1.0096
  198MOL0     H26707   4.493   3.552   6.391  0.0680 -0.8533  1.9798
  198MOL0     H26708   4.528   3.738   6.238 -3.3725 -1.8140  1.7745
  198MOL0     H26709   4.542   3.812   6.389 -0.2784  2.9570 -3.0826
  198MOL0     H26710   4.108   3.126   6.612 -0.4584 -0.8072 -0.3321
  198MOL0     H26711   3.864   3.137   6.668 -0.7998 -0.8357  1.8941
  198MOL0     H26712   3.502   3.235   6.772 -2.0966 -0.2646 -0.4087
  198MOL0     H26713   3.299   3.329   6.752  0.8297 -0.3146  0.4030
  198MOL0     H26714   1.709   2.631   7.468  1.2591 -0.5660 -1.8734
  198MOL0     H26715   1.477   2.609   7.417  0.7341 -0.7642 -1.2500
  198MOL0     H26716   1.065   2.989   7.328 -2.3993  2.1012 -0.0366
  198MOL0     H26717   0.826   2.950   7.265 -2.7593 -0.6755  0.2256
  198MOL0     H26718   0.506   2.819   7.228 -0.4182  0.9807 -0.9100
  198MOL0     H26719   0.632   2.939   7.271 -1.3233  0.8137  2.7166
  198MOL0     H26720   0.471   2.960   7.434  1.3042  0.4146  0.1940
  198MOL0     H26721   0.596   2.871   7.522 -0.8516 -0.4720  1.2127
  198MOL0     H26722   0.423   2.736   7.582  0.8931 -0.3620  0.9216
  198MOL0     H26723   0.447   2.658   7.417 -4.5690 -0.4758 -1.5655
  198MOL0     H26724   0.261   2.891   7.469 -0.2317 -1.0215  0.2846
  198MOL0     H26725   0.281   2.817   7.314 -0.3078  0.6603 -0.3059
  198MOL0     H26726   0.079   2.491   7.493  1.3930 -0.6368  0.6514
  198MOL0     H26727   0.818   2.585   7.484 -0.8082  1.5684  0.2146
  198MOL0     H26728   1.128   2.620   7.634 -1.5831 -0.1948  1.6942
  198MOL0     H26729   1.007   2.495   7.585  1.2246 -1.3724 -1.3674
  198MOL0     H26730   1.159   2.527   7.495  0.2660 -0.8600  0.0565
  199MOL0     O26731   7.773   0.252   0.375 -0.4720  0.0639 -0.0802
  199MOL0     C26732   7.707   0.147   0.379 -1.0719  0.6262  0.2101
  199MOL0     O26733   7.744   0.028   0.316  0.4036 -0.4290  0.0245
  199MOL0     C26734   7.833   0.042   0.216  0.0543  0.1081 -0.9095
  199MOL0     C26735   7.779   0.053   0.090 -0.4902 -0.0138 -1.1203
  199MOL0     C26736   7.870   0.064  -0.013 -0.8158 -0.1330 -0.5455
  199MOL0     C26737   8.006   0.064   0.004 -0.7482  0.1275  0.5824
  199MOL0     O26738   8.084   0.087  -0.106 -0.6731  0.8475  0.2678
  199MOL0     C26739   8.229   0.071  -0.117 -0.0522  0.1610 -0.1935
  199MOL0     C26740   8.259  -0.078  -0.108 -0.2800  0.8817 -0.2037
  199MOL0     C26741   8.410  -0.113  -0.079  0.4022  0.1729  0.0102
  199MOL0     C26742   8.508  -0.078  -0.182  0.0308  0.4538 -0.2480
  199MOL0     C26743   8.467  -0.106  -0.332 -0.3047  0.2918  0.8752
  199MOL0     C26744   8.586  -0.133  -0.429  0.2551  0.4128  0.7408
  199MOL0     C26745   8.544  -0.136  -0.577  1.2269  0.0484  0.3915
  199MOL0     C26746   8.673  -0.153  -0.653  0.4405 -0.0292  0.0147
  199MOL0     N26747   8.720  -0.291  -0.657  0.5403  1.1574  0.0236
  199MOL0     C26748   8.827  -0.355  -0.596  0.1120  0.4690  0.5042
  199MOL0     C26749   8.809  -0.485  -0.646 -0.2853  0.4367  0.4739
  199MOL0     C26750   8.916  -0.592  -0.645 -0.6532 -0.4625  0.8860
  199MOL0     C26751   9.042  -0.546  -0.720  0.4287  0.1326  0.6182
  199MOL0     C26752   9.017  -0.553  -0.870  0.7098 -0.0740  0.1869
  199MOL0     C26753   9.128  -0.486  -0.953  0.5886 -0.4922 -0.2666
  199MOL0     O26754   9.246  -0.562  -0.955 -0.5222  0.2495 -0.5270
  199MOL0     C26755   9.333  -0.520  -1.045  0.8334 -0.3008  0.2735
  199MOL0     C26756   9.355  -0.386  -1.104  0.4426 -0.3481  0.0276
  199MOL0     C26757   9.462  -0.375  -1.195  0.8861  1.2309  0.4049
  199MOL0     C26758   9.550  -0.480  -1.231 -0.0666  0.4208  0.2167
  199MOL0     C26759   9.662  -0.451  -1.323 -0.2055  0.1625 -0.1107
  199MOL0     O26760   9.773  -0.520  -1.297 -0.0002  0.3070 -0.4205
  199MOL0     C26761   9.884  -0.484  -1.368 -1.2172 -0.0939 -0.5273
  199MOL0     C26762   9.969  -0.379  -1.326 -0.0451  0.0064 -0.1297
  199MOL0     C26763  10.081  -0.340  -1.404 -0.3844 -0.1407  0.3231
  199MOL0     C26764  10.118  -0.424  -1.518  0.5160  0.2994 -0.0251
  199MOL0     O26765  10.222  -0.372  -1.583  0.2014  0.3272  0.3120
  199MOL0     C26766  10.250  -0.428  -1.715  0.1650 -0.3431 -0.2049
  199MOL0     C26767  10.340  -0.331  -1.798  0.4778 -0.3130 -0.0275
  199MOL0     C26768  10.484  -0.323  -1.749  0.8604  0.1147 -0.9001
  199MOL0     C26769  10.573  -0.257  -1.857 -1.4338  0.0276 -0.4761
  199MOL0     C26770  10.720  -0.258  -1.809  0.3064 -0.4976 -0.6418
  199MOL0     C26771  10.814  -0.210  -1.918  0.0585  0.0701  0.3440
  199MOL0     C26772  10.961  -0.249  -1.885  0.8978 -0.1253 -0.5664
  199MOL0     C26773  11.065  -0.158  -1.956 -0.1803 -1.1234  1.0340
  199MOL0    Cl26774  11.218  -0.255  -1.978 -0.0878 -0.3514 -0.2780
  199MOL0     C26775  10.042  -0.537  -1.558  0.7344  0.4771  0.4544
  199MOL0     C26776   9.921  -0.558  -1.484 -0.5411  0.5191  0.0396
  199MOL0     O26777   9.643  -0.372  -1.418  0.2299  0.4772 -0.5962
  199MOL0     C26778   9.525  -0.606  -1.169 -0.0434 -0.0166 -0.2215
  199MOL0     C26779   9.423  -0.624  -1.074  0.5755 -0.9407  0.0664
  199MOL0     N26780   8.688  -0.486  -0.721  0.2890 -0.0146 -0.3782
  199MOL0     N26781   8.639  -0.371  -0.734 -0.5659  0.0750 -0.1442
  199MOL0     C26782   8.056   0.051   0.130 -0.0269  0.4231  0.1554
  199MOL0     C26783   7.970   0.041   0.238  0.1347  0.2282  0.1392
  199MOL0     C26784   7.581   0.152   0.457 -0.1685 -0.3242  0.1114
  199MOL0     C26785   7.584   0.215   0.583  0.0659 -0.9093 -0.1442
  199MOL0     C26786   7.461   0.236   0.647 -0.2314  0.7541  0.1275
  199MOL0     C26787   7.341   0.186   0.589  0.0857  0.3063  0.2792
  199MOL0     O26788   7.225   0.204   0.667 -0.5131 -0.0867  1.1799
  199MOL0     C26789   7.099   0.148   0.622 -1.1020  0.2683 -0.4671
  199MOL0     C26790   6.991   0.181   0.716 -0.2824 -0.9808  0.7556
  199MOL0     C26791   6.862   0.120   0.691 -0.3262 -0.7602 -0.0144
  199MOL0     C26792   6.752   0.189   0.770  0.1319  0.0784  0.8360
  199MOL0     C26793   6.772   0.191   0.917 -0.4242  0.4436 -0.4821
  199MOL0     C26794   6.805   0.207   1.033  0.1051  0.3346 -0.0365
  199MOL0     C26795   7.343   0.119   0.468 -0.0173  1.4557 -0.1567
  199MOL0     C26796   7.465   0.103   0.399 -0.7577 -0.1323 -0.2834
  199MOL0     C26797   7.447   0.042   0.261 -0.0295 -0.6210  0.3381
  199MOL0     H26798   7.672   0.064   0.077 -0.7553  1.3894  1.4310
  199MOL0     H26799   7.839   0.078  -0.116  1.2631 -1.4628 -1.4176
  199MOL0     H26800   8.279   0.109  -0.207  0.2732 -0.5669 -0.3323
  199MOL0     H26801   8.279   0.124  -0.035  0.0378 -1.7748  1.0801
  199MOL0     H26802   8.236  -0.119  -0.207  0.2181 -0.8408  0.3600
  199MOL0     H26803   8.191  -0.128  -0.038  0.2768 -0.5138 -0.6223
  199MOL0     H26804   8.414  -0.221  -0.062  1.2446 -0.2117 -2.3487
  199MOL0     H26805   8.434  -0.062   0.015  1.9172 -1.9013  0.8178
  199MOL0     H26806   8.539   0.025  -0.162  0.7428 -0.4227  4.3191
  199MOL0     H26807   8.600  -0.130  -0.155  0.2805  1.3447  0.6842
  199MOL0     H26808   8.396  -0.189  -0.343  2.2116 -1.7319 -1.7635
  199MOL0     H26809   8.419  -0.019  -0.377  1.0039  0.0086 -1.2167
  199MOL0     H26810   8.660  -0.052  -0.430 -0.8659  1.4865 -1.2724
  199MOL0     H26811   8.645  -0.220  -0.399  1.1370  0.7763  0.1233
  199MOL0     H26812   8.482  -0.048  -0.596 -1.0721 -0.9348  2.6768
  199MOL0     H26813   8.475  -0.219  -0.595 -0.3310  0.1413  4.7606
  199MOL0     H26814   8.645  -0.124  -0.755 -3.6432  0.3800  1.0777
  199MOL0     H26815   8.756  -0.089  -0.619  1.5292 -0.7988 -1.1191
  199MOL0     H26816   8.894  -0.308  -0.525  2.4771 -3.0792  0.8996
  199MOL0     H26817   8.934  -0.607  -0.538 -3.1988 -2.5666  1.1226
  199MOL0     H26818   8.869  -0.682  -0.686 -1.9871  1.6488 -2.5818
  199MOL0     H26819   9.077  -0.447  -0.691 -1.2643  1.2450 -0.9307
  199MOL0     H26820   9.124  -0.616  -0.700 -1.0554 -1.4209  1.5542
  199MOL0     H26821   8.932  -0.493  -0.905  1.0325  0.5966  0.5518
  199MOL0     H26822   9.006  -0.659  -0.895 -2.2546  0.0856  0.3768
  199MOL0     H26823   9.150  -0.390  -0.907  0.6682 -0.8175  0.3865
  199MOL0     H26824   9.089  -0.474  -1.055 -2.5604  0.4768  0.9056
  199MOL0     H26825   9.297  -0.302  -1.068 -0.3149 -1.2226  0.8877
  199MOL0     H26826   9.471  -0.277  -1.241 -2.6176  1.6955  0.4863
  199MOL0     H26827   9.942  -0.323  -1.237  1.5937  0.1807  0.2768
  199MOL0     H26828  10.143  -0.256  -1.376 -1.3950  2.0302 -3.2577
  199MOL0     H26829  10.309  -0.517  -1.696 -0.2952 -0.2297  2.0694
  199MOL0     H26830  10.157  -0.450  -1.768  0.5646 -0.8059 -0.7307
  199MOL0     H26831  10.338  -0.371  -1.900  2.4827 -0.7842  0.0708
  199MOL0     H26832  10.305  -0.227  -1.799 -1.9845 -1.0892 -0.4236
  199MOL0     H26833  10.497  -0.281  -1.649  3.4090  1.7323 -1.8253
  199MOL0     H26834  10.504  -0.430  -1.737 -3.3173 -0.5984  1.9561
  199MOL0     H26835  10.544  -0.152  -1.867  0.2376  0.7217  1.3607
  199MOL0     H26836  10.569  -0.306  -1.955 -2.3207  0.4706 -0.6727
  199MOL0     H26837  10.748  -0.356  -1.771  2.4699 -0.2334 -1.3934
  199MOL0     H26838  10.724  -0.188  -1.725  0.7670 -0.1722 -0.9277
  199MOL0     H26839  10.777  -0.236  -2.018  3.0931  1.2707 -1.2297
  199MOL0     H26840  10.808  -0.101  -1.919  1.0863  0.1428  1.0507
  199MOL0     H26841  10.968  -0.355  -1.912  1.3076 -0.0597 -0.7233
  199MOL0     H26842  10.967  -0.239  -1.776  1.3470  3.1660 -0.7837
  199MOL0     H26843  11.035  -0.130  -2.058  0.1648 -2.1993  0.6238
  199MOL0     H26844  11.085  -0.068  -1.898 -3.0615 -0.5067  1.2279
  199MOL0     H26845  10.074  -0.607  -1.634  3.0330  0.3781  1.4360
  199MOL0     H26846   9.863  -0.647  -1.504  0.0505 -0.0459  0.7774
  199MOL0     H26847   9.584  -0.697  -1.178  0.7506 -0.1408  4.1313
  199MOL0     H26848   9.414  -0.725  -1.036 -2.9298 -1.2428 -1.2096
  199MOL0     H26849   8.162   0.030   0.130 -0.0253  0.4309  0.6333
  199MOL0     H26850   8.012   0.035   0.338  2.5792  0.2897 -0.8057
  199MOL0     H26851   7.673   0.268   0.615 -1.9530  2.0977  0.8972
  199MOL0     H26852   7.448   0.294   0.738 -1.1960 -0.7626  1.0126
  199MOL0     H26853   7.093   0.039   0.619 -1.9467  0.3236 -0.9661
  199MOL0     H26854   7.078   0.189   0.523  1.7939 -1.8588 -2.1343
  199MOL0     H26855   6.978   0.290   0.713  1.1305 -0.6200  3.7485
  199MOL0     H26856   7.023   0.146   0.815  1.2183 -0.9557  0.2918
  199MOL0     H26857   6.871   0.019   0.732  0.1293 -0.4176  0.7592
  199MOL0     H26858   6.848   0.114   0.583  1.2970 -0.5454 -0.2591
  199MOL0     H26859   6.733   0.289   0.729 -3.3540 -1.2125 -1.0821
  199MOL0     H26860   6.664   0.129   0.745  0.7469 -0.0684 -1.1548
  199MOL0     H26861   6.835   0.224   1.135 -3.6646 -0.8412  1.4132
  199MOL0     H26862   7.248   0.084   0.429  0.4180 -0.3086  0.3067
  199MOL0     H26863   7.511  -0.045   0.248 -0.1871 -0.7190  0.2113
  199MOL0     H26864   7.344   0.016   0.236  0.0688 -0.8572  0.1782
  199MOL0     H26865   7.480   0.116   0.188 -0.0864  2.0308  2.8149
  200MOL0     O26866  10.214   1.328  10.416  0.4227 -0.4429 -0.2466
  200MOL0     C26867  10.142   1.313  10.514  0.1858  0.4124  0.4644
  200MOL0     O26868  10.187   1.287  10.641  0.0504 -0.2586  0.5963
  200MOL0     C26869  10.316   1.309  10.670  0.1092 -0.1433 -0.1449
  200MOL0     C26870  10.397   1.419  10.626  0.3043  0.2524 -0.2434
  200MOL0     C26871  10.535   1.425  10.663 -0.4812  0.1621  0.2430
  200MOL0     C26872  10.595   1.325  10.752  0.3462  0.2191 -0.5453
  200MOL0     O26873  10.720   1.356  10.801  0.4291 -0.2573 -0.2516
  200MOL0     C26874  10.758   1.300  10.922 -0.0599 -0.3966  0.6062
  200MOL0     C26875  10.881   1.387  10.970 -0.1832  0.2638 -0.1174
  200MOL0     C26876  10.850   1.539  10.982  0.4279  1.0018 -0.2606
  200MOL0     C26877  10.764   1.562  11.110 -0.1188  0.2432 -0.1680
  200MOL0     C26878  10.738   1.712  11.135 -0.1423  0.1889  0.2319
  200MOL0     C26879  10.664   1.734  11.265 -0.2218 -0.7207  0.0346
  200MOL0     C26880  10.641   1.882  11.268  0.0079 -0.0239 -0.3689
  200MOL0     C26881  10.560   1.920  11.399  0.0001  0.3149 -0.2996
  200MOL0     N26882  10.651   1.962  11.511  0.2614  0.5479  0.0724
  200MOL0     C26883  10.734   2.070  11.505  1.0210  0.4925 -1.1884
  200MOL0     C26884  10.797   2.069  11.619 -0.4903  0.8366  0.0246
  200MOL0     C26885  10.889   2.181  11.663  0.3504  0.3693 -0.1007
  200MOL0     C26886  10.814   2.287  11.746 -0.3408  0.1079  0.4870
  200MOL0     C26887  10.769   2.241  11.888  1.0306  0.5282 -0.1461
  200MOL0     C26888  10.617   2.206  11.896  0.4163 -0.9212  0.5873
  200MOL0     O26889  10.524   2.315  11.916 -0.8753 -0.2478 -0.1515
  200MOL0     C26890  10.394   2.285  11.934  0.4144 -0.3928  0.3878
  200MOL0     C26891  10.336   2.152  11.948 -0.2455  0.3415 -0.2982
  200MOL0     C26892  10.199   2.145  11.975  0.5998 -0.2078  1.1325
  200MOL0     C26893  10.116   2.260  11.978  0.0979  0.0872 -0.1168
  200MOL0     C26894   9.972   2.260  12.007 -0.2937 -0.3550  0.2297
  200MOL0     O26895   9.919   2.143  12.025  0.0556  0.1361  0.1467
  200MOL0     C26896   9.795   2.123  12.060  0.6372  1.0021  0.0103
  200MOL0     C26897   9.734   2.002  12.007  0.7105 -0.8392 -1.1299
  200MOL0     C26898   9.603   1.973  12.035 -0.2290  0.5664 -1.2988
  200MOL0     C26899   9.532   2.063  12.114  0.2384 -0.4801  0.1568
  200MOL0     O26900   9.406   2.031  12.148 -0.1141  0.6426 -0.2206
  200MOL0     C26901   9.314   2.124  12.094 -0.0934 -1.3261  0.4054
  200MOL0     C26902   9.192   2.049  12.053 -0.5562 -0.0960  0.2008
  200MOL0     C26903   9.079   2.141  11.992 -0.5610 -0.4219  1.2874
  200MOL0     C26904   8.968   2.167  12.092 -0.5656 -0.3282  0.6365
  200MOL0     C26905   8.874   2.277  12.048  0.8205 -0.4191 -0.2393
  200MOL0     C26906   8.750   2.282  12.142  0.3283  0.2277 -0.1236
  200MOL0     C26907   8.776   2.332  12.283  0.7566 -0.9910 -0.1158
  200MOL0     C26908   8.633   2.355  12.346  0.2939  0.6613  0.0390
  200MOL0    Cl26909   8.663   2.419  12.510 -0.4619  0.1020 -0.2201
  200MOL0     C26910   9.590   2.175  12.170 -0.0736  0.0030 -0.2844
  200MOL0     C26911   9.722   2.214  12.140  0.1308  0.4431  0.2286
  200MOL0     O26912   9.913   2.373  12.012 -0.4161  0.3151  0.5554
  200MOL0     C26913  10.178   2.386  11.946 -0.3177  0.2006  0.2121
  200MOL0     C26914  10.316   2.393  11.923 -0.3157  0.3496  1.3300
  200MOL0     N26915  10.768   1.947  11.682 -0.0217  0.6745 -0.5346
  200MOL0     N26916  10.672   1.886  11.621 -0.1804 -0.4901  0.7768
  200MOL0     C26917  10.504   1.227  10.804  0.5252  0.8408  0.0789
  200MOL0     C26918  10.375   1.211  10.754 -0.6581  0.0882 -0.5813
  200MOL0     C26919   9.994   1.303  10.483  0.8340 -0.3849  0.5243
  200MOL0     C26920   9.943   1.332  10.354 -0.0279 -0.3049  0.3807
  200MOL0     C26921   9.812   1.317  10.320 -0.1429  0.2190 -1.2193
  200MOL0     C26922   9.719   1.263  10.405  0.5797 -0.0155 -0.4838
  200MOL0     O26923   9.591   1.232  10.371  0.4556 -0.3052  0.2413
  200MOL0     C26924   9.572   1.130  10.270  0.7201  0.3859 -0.2150
  200MOL0     C26925   9.580   0.992  10.338  0.0632  0.3151  0.1444
  200MOL0     C26926   9.639   0.887  10.237  0.6123 -0.0058 -0.4878
  200MOL0     C26927   9.523   0.838  10.136 -0.0097 -0.6642  0.3475
  200MOL0     C26928   9.559   0.704  10.096  0.2490 -0.1797 -0.8970
  200MOL0     C26929   9.580   0.584  10.068  0.6982 -0.3457  0.4172
  200MOL0     C26930   9.762   1.243  10.533  0.9051  0.1131  0.1176
  200MOL0     C26931   9.895   1.259  10.570 -0.2656  0.2977  0.3936
  200MOL0     C26932   9.920   1.246  10.718  0.2431  0.0087  0.5461
  200MOL0     H26933  10.346   1.499  10.574  1.7592  0.8574 -0.7761
  200MOL0     H26934  10.606   1.504  10.638 -0.0918  0.0419  0.9394
  200MOL0     H26935  10.681   1.302  11.000 -1.5498  1.6530 -0.8139
  200MOL0     H26936  10.779   1.195  10.900 -1.5078 -0.5357 -0.2254
  200MOL0     H26937  10.957   1.374  10.892 -0.4228 -1.7226 -0.0622
  200MOL0     H26938  10.916   1.342  11.063 -0.7265 -1.1643 -0.5761
  200MOL0     H26939  10.785   1.584  10.906 -1.0453 -0.9281 -0.2208
  200MOL0     H26940  10.941   1.598  10.989 -0.3484  2.5384 -2.2052
  200MOL0     H26941  10.669   1.509  11.103  0.0269 -0.3845  1.9266
  200MOL0     H26942  10.806   1.508  11.195 -3.8980  0.9161  2.3567
  200MOL0     H26943  10.834   1.764  11.135  0.7957 -1.4626  1.4025
  200MOL0     H26944  10.689   1.756  11.047 -1.4068  1.1198  1.3654
  200MOL0     H26945  10.569   1.680  11.263 -2.0052  1.9825 -4.5186
  200MOL0     H26946  10.728   1.702  11.348 -1.1352  1.8377  1.8063
  200MOL0     H26947  10.574   1.906  11.185 -2.7725  0.4663  1.8513
  200MOL0     H26948  10.734   1.939  11.257  0.3184 -0.5658 -0.5692
  200MOL0     H26949  10.503   2.012  11.383  0.7555  0.6827 -0.9683
  200MOL0     H26950  10.484   1.844  11.420 -1.0735  1.4832  0.1856
  200MOL0     H26951  10.737   2.153  11.434  0.9014 -0.4213 -2.2923
  200MOL0     H26952  10.979   2.141  11.712  0.1627 -2.0631 -1.5747
  200MOL0     H26953  10.932   2.237  11.580  1.2647  0.6458  0.5390
  200MOL0     H26954  10.888   2.367  11.758  0.8106 -0.9843  0.8056
  200MOL0     H26955  10.732   2.322  11.682 -1.2162 -2.9895 -0.2741
  200MOL0     H26956  10.783   2.306  11.975 -0.6044 -2.3953  2.5162
  200MOL0     H26957  10.834   2.155  11.904 -0.0937 -0.2317  0.4752
  200MOL0     H26958  10.612   2.144  11.987  0.3780  0.2303  1.3828
  200MOL0     H26959  10.585   2.150  11.807  1.1521  0.1872 -0.3908
  200MOL0     H26960  10.394   2.061  11.936  0.2009  0.9054 -3.3732
  200MOL0     H26961  10.153   2.048  11.983  1.3996 -0.6310  0.7632
  200MOL0     H26962   9.790   1.933  11.944  0.3738 -1.0634 -1.1825
  200MOL0     H26963   9.558   1.884  11.991 -0.6765  0.4473 -0.6111
  200MOL0     H26964   9.283   2.208  12.157  0.1368 -2.1377  1.6441
  200MOL0     H26965   9.357   2.172  12.006 -2.4714 -0.8317 -0.5731
  200MOL0     H26966   9.228   1.971  11.985  2.7730  0.1795  1.4882
  200MOL0     H26967   9.153   1.997  12.141  1.9180  0.7323  1.9044
  200MOL0     H26968   9.122   2.235  11.955  2.3187 -2.3811 -0.7280
  200MOL0     H26969   9.046   2.078  11.909 -0.5270 -0.0528  0.9916
  200MOL0     H26970   9.007   2.191  12.191  0.8071 -2.9228  0.7994
  200MOL0     H26971   8.909   2.078  12.112 -0.5255 -0.6555 -0.6400
  200MOL0     H26972   8.835   2.251  11.949 -3.1328 -1.0489  1.2882
  200MOL0     H26973   8.934   2.369  12.045 -1.1024  1.2959  4.6128
  200MOL0     H26974   8.666   2.340  12.104 -3.4184 -3.6895  1.3256
  200MOL0     H26975   8.704   2.183  12.147  2.2718 -0.6818  1.2975
  200MOL0     H26976   8.838   2.422  12.276 -0.3924 -0.1116  0.7418
  200MOL0     H26977   8.833   2.258  12.338  2.0046 -0.2648 -0.3953
  200MOL0     H26978   8.564   2.421  12.291 -0.9554 -0.2665  0.4498
  200MOL0     H26979   8.581   2.259  12.343  0.9761  0.3065 -1.3926
  200MOL0     H26980   9.531   2.246  12.227 -0.6093 -1.9748  1.7564
  200MOL0     H26981   9.750   2.304  12.193  0.6456 -1.0071  2.5793
  200MOL0     H26982  10.123   2.479  11.957 -0.1786 -0.0161  5.1109
  200MOL0     H26983  10.368   2.488  11.920 -1.0187  0.7220  0.6393
  200MOL0     H26984  10.534   1.149  10.873 -1.7771 -1.1864 -1.0951
  200MOL0     H26985  10.320   1.123  10.785  0.3589  0.1663  1.6830
  200MOL0     H26986  10.016   1.380  10.289 -0.8572  1.5690  0.7672
  200MOL0     H26987   9.783   1.354  10.221 -0.6220  1.8236 -0.5208
  200MOL0     H26988   9.647   1.142  10.191 -1.0439  1.2347 -1.8537
  200MOL0     H26989   9.475   1.139  10.220  1.6088  0.4452 -2.0254
  200MOL0     H26990   9.480   0.976  10.380 -0.0602  2.7753  0.9769
  200MOL0     H26991   9.641   0.988  10.429 -0.7911 -1.8150  0.6873
  200MOL0     H26992   9.673   0.801  10.296 -2.2965 -1.1138 -0.2558
  200MOL0     H26993   9.726   0.927  10.186 -0.3621 -0.0903 -2.3158
  200MOL0     H26994   9.425   0.844  10.185  0.2669 -1.7166  1.0572
  200MOL0     H26995   9.509   0.907  10.052  1.4902  0.2319  0.7956
  200MOL0     H26996   9.622   0.488  10.045  3.0723  0.4504  1.1451
  200MOL0     H26997   9.682   1.211  10.598  0.7989  0.9501  0.4100
  200MOL0     H26998   9.830   1.260  10.778  0.6285  1.2775  0.8495
  200MOL0     H26999   9.979   1.157  10.742 -0.7217 -0.6012  0.7186
  200MOL0     H27000   9.979   1.327  10.763  1.4484 -1.2696  1.3635
  201MOL0     O27001   7.428   1.360   6.772 -0.3075  0.2040 -0.0542
  201MOL0     C27002   7.441   1.470   6.831  0.5060  0.7282 -0.8178
  201MOL0     O27003   7.552   1.512   6.897 -0.9482  0.4894 -0.1737
  201MOL0     C27004   7.669   1.456   6.865 -0.7953 -0.0199  0.2171
  201MOL0     C27005   7.767   1.543   6.823 -1.0622  0.2380 -0.1219
  201MOL0     C27006   7.901   1.490   6.799 -0.4827  0.2763 -0.4260
  201MOL0     C27007   7.931   1.354   6.830 -0.7356  0.2282 -0.0942
  201MOL0     O27008   8.060   1.301   6.814 -0.4798  0.0435 -0.0058
  201MOL0     C27009   8.163   1.401   6.789 -0.0072  0.3265  0.2118
  201MOL0     C27010   8.291   1.329   6.746 -0.3513 -0.7148  0.4900
  201MOL0     C27011   8.393   1.439   6.682  0.5353 -0.6773 -0.1198
  201MOL0     C27012   8.516   1.369   6.624  0.4153 -0.4659  0.8861
  201MOL0     C27013   8.649   1.433   6.658  0.1538 -0.0549 -0.1876
  201MOL0     C27014   8.768   1.366   6.608  0.1651  0.2411  0.8749
  201MOL0     C27015   8.886   1.402   6.697 -0.0371 -0.5920  0.0948
  201MOL0     C27016   9.004   1.311   6.661 -0.2767 -0.0183 -0.1559
  201MOL0     N27017   9.108   1.321   6.759  0.1347 -0.3847  0.2422
  201MOL0     C27018   9.097   1.277   6.888 -0.4975  0.1775  0.5330
  201MOL0     C27019   9.200   1.333   6.955 -0.0363 -0.2461  1.2370
  201MOL0     C27020   9.236   1.319   7.106  0.1793  0.4726  0.5810
  201MOL0     C27021   9.130   1.351   7.209  0.1200 -0.4917 -0.2953
  201MOL0     C27022   9.083   1.504   7.201  0.2278  0.5724  0.3678
  201MOL0     C27023   8.944   1.517   7.260 -0.5649 -0.1745 -0.1862
  201MOL0     O27024   8.854   1.445   7.170  0.3270 -0.1931  0.3276
  201MOL0     C27025   8.727   1.445   7.215  0.2828  0.5673  0.0079
  201MOL0     C27026   8.638   1.400   7.116  0.5842 -0.5714 -0.5964
  201MOL0     C27027   8.501   1.403   7.143  0.8120 -0.7440 -0.0942
  201MOL0     C27028   8.455   1.448   7.268 -0.6061  0.2002 -0.8497
  201MOL0     C27029   8.312   1.457   7.286  0.6532 -0.1252 -1.0753
  201MOL0     O27030   8.237   1.387   7.194 -0.1827  0.0676  0.6702
  201MOL0     C27031   8.102   1.411   7.196  0.6130  0.7424  0.5345
  201MOL0     C27032   8.015   1.300   7.191 -0.6032  0.5511  0.2992
  201MOL0     C27033   7.880   1.319   7.187  0.0331  0.3603  0.5937
  201MOL0     C27034   7.822   1.448   7.175 -0.1251  0.0253  0.1374
  201MOL0     O27035   7.688   1.470   7.183 -0.0615 -0.3589  0.2105
  201MOL0     C27036   7.658   1.609   7.221 -0.1742  0.2727  0.1982
  201MOL0     C27037   7.506   1.633   7.235 -0.3994  0.4247 -0.0081
  201MOL0     C27038   7.454   1.773   7.266 -0.9638  0.1268 -0.1654
  201MOL0     C27039   7.302   1.782   7.283  0.5700  1.1031 -0.6473
  201MOL0     C27040   7.253   1.933   7.265 -0.4976  1.0647 -0.1130
  201MOL0     C27041   7.243   2.019   7.399  0.7746 -0.3975  0.9334
  201MOL0     C27042   7.141   1.963   7.502  0.1202  0.0303  0.0299
  201MOL0     C27043   6.988   1.953   7.472  0.1286 -0.2908  0.0753
  201MOL0    Cl27044   6.894   1.904   7.613  0.0822 -0.4720 -0.2391
  201MOL0     C27045   7.921   1.553   7.171  0.7095 -0.1915  0.4508
  201MOL0     C27046   8.047   1.536   7.181 -0.8707 -0.0115  0.5257
  201MOL0     O27047   8.264   1.528   7.382 -0.1455  0.8344 -0.6826
  201MOL0     C27048   8.539   1.506   7.364  0.4125  0.8942 -0.3692
  201MOL0     C27049   8.677   1.490   7.340 -0.1098  0.2834  0.5699
  201MOL0     N27050   9.264   1.415   6.863 -0.5700 -0.0929 -0.5382
  201MOL0     N27051   9.206   1.412   6.744  0.2349  0.0346  0.4890
  201MOL0     C27052   7.830   1.265   6.876 -0.2431  0.7599  0.4882
  201MOL0     C27053   7.706   1.321   6.891 -0.0764 -0.6185  0.6067
  201MOL0     C27054   7.324   1.558   6.831 -0.3535  0.1583  0.2254
  201MOL0     C27055   7.331   1.687   6.906  0.3303 -0.8333  0.5386
  201MOL0     C27056   7.224   1.770   6.913  0.2014 -0.2929  0.0290
  201MOL0     C27057   7.096   1.737   6.855 -0.7641 -0.0526 -0.8984
  201MOL0     O27058   6.998   1.833   6.864  0.5202 -0.6707 -0.6085
  201MOL0     C27059   6.920   1.844   6.743  0.0202  0.3623 -0.6216
  201MOL0     C27060   6.837   1.969   6.774  0.1273  0.1645  0.4645
  201MOL0     C27061   6.729   1.998   6.662 -0.2754  0.1838  0.5826
  201MOL0     C27062   6.602   1.907   6.662  0.0293  0.8635  0.1919
  201MOL0     C27063   6.529   1.927   6.535  0.4456 -0.3913 -0.5097
  201MOL0     C27064   6.472   1.955   6.436 -0.0577 -0.1677 -0.0715
  201MOL0     C27065   7.088   1.621   6.785 -0.2261  0.0553 -1.1115
  201MOL0     C27066   7.198   1.528   6.777  0.1056  0.2553 -0.2185
  201MOL0     C27067   7.166   1.403   6.706 -0.2086  0.2114  0.2568
  201MOL0     H27068   7.756   1.648   6.798 -0.4603  0.1496 -0.7847
  201MOL0     H27069   7.966   1.566   6.756 -0.1707  0.5835  0.5461
  201MOL0     H27070   8.138   1.459   6.699  0.5080  0.8810  0.4152
  201MOL0     H27071   8.191   1.462   6.876 -2.7793  1.0485  0.6776
  201MOL0     H27072   8.281   1.254   6.668  2.6440  0.4415 -1.1702
  201MOL0     H27073   8.348   1.278   6.825 -0.1453  0.4788  1.1385
  201MOL0     H27074   8.421   1.512   6.758 -0.3390 -0.0496 -0.3799
  201MOL0     H27075   8.339   1.499   6.608 -2.2842 -1.2927  1.2806
  201MOL0     H27076   8.518   1.266   6.662  0.4801 -0.4148  1.0194
  201MOL0     H27077   8.508   1.344   6.518  1.0180  2.1536  0.1574
  201MOL0     H27078   8.645   1.541   6.645  0.5997  0.2121  1.5910
  201MOL0     H27079   8.647   1.405   6.764 -4.8249 -1.4157 -0.4052
  201MOL0     H27080   8.749   1.260   6.628 -0.5949 -0.1346 -1.5222
  201MOL0     H27081   8.784   1.388   6.502 -2.0632  0.3660  0.5134
  201MOL0     H27082   8.851   1.391   6.800  1.1539  1.6611  0.8154
  201MOL0     H27083   8.927   1.499   6.667  0.8618 -1.3870 -1.3509
  201MOL0     H27084   8.966   1.208   6.657  3.1241 -1.5894  2.3586
  201MOL0     H27085   9.055   1.339   6.569 -1.3192  0.7305 -0.5224
  201MOL0     H27086   9.022   1.208   6.925 -2.8867  1.4138 -1.6364
  201MOL0     H27087   9.257   1.212   7.114  1.3449  0.6117 -0.3384
  201MOL0     H27088   9.334   1.363   7.121  0.0059  1.2012 -0.3494
  201MOL0     H27089   9.047   1.287   7.180 -0.8959  0.7732 -0.2534
  201MOL0     H27090   9.160   1.330   7.313  1.4279  3.7753  0.3885
  201MOL0     H27091   9.089   1.551   7.103  2.7561  0.9878  0.6495
  201MOL0     H27092   9.164   1.555   7.255  2.0661  1.4514 -2.9348
  201MOL0     H27093   8.918   1.623   7.273 -0.7767 -0.5191  3.2276
  201MOL0     H27094   8.945   1.477   7.362 -1.9585  2.7888  1.1328
  201MOL0     H27095   8.674   1.381   7.016  4.6588 -0.8802  0.7429
  201MOL0     H27096   8.443   1.356   7.064  0.5858  1.2763 -1.1986
  201MOL0     H27097   8.069   1.206   7.200 -0.7621  0.5611  1.6864
  201MOL0     H27098   7.820   1.229   7.197 -1.4083  1.2444  0.2382
  201MOL0     H27099   7.705   1.636   7.316 -0.3001 -1.2796  0.7312
  201MOL0     H27100   7.683   1.682   7.144  0.3883  1.5271  1.5234
  201MOL0     H27101   7.461   1.597   7.142  2.2683 -2.0064 -0.4991
  201MOL0     H27102   7.470   1.572   7.319 -0.2790  0.1725 -0.1366
  201MOL0     H27103   7.504   1.819   7.351 -0.2476  2.2128 -1.6175
  201MOL0     H27104   7.476   1.832   7.176  2.8793  0.2772  0.6732
  201MOL0     H27105   7.268   1.737   7.377 -0.7012  1.0997 -1.0909
  201MOL0     H27106   7.247   1.727   7.205  2.5690 -0.3806 -1.0920
  201MOL0     H27107   7.158   1.929   7.211 -0.4200 -1.0933 -0.1903
  201MOL0     H27108   7.320   1.986   7.196 -0.3801 -0.5796 -1.3422
  201MOL0     H27109   7.338   2.028   7.452 -0.4474 -0.0834  3.2110
  201MOL0     H27110   7.228   2.125   7.378  1.6550 -0.5478 -0.5614
  201MOL0     H27111   7.158   2.009   7.600 -1.9026 -1.9793  1.4188
  201MOL0     H27112   7.180   1.864   7.528 -0.1615 -0.3968 -1.0973
  201MOL0     H27113   6.948   2.051   7.441 -1.7535 -1.2938 -0.8468
  201MOL0     H27114   6.968   1.876   7.397 -0.0261  0.3279 -0.5281
  201MOL0     H27115   7.898   1.658   7.160 -0.2753 -0.4234  0.1615
  201MOL0     H27116   8.110   1.624   7.172  1.1620 -1.1922  2.2035
  201MOL0     H27117   8.488   1.537   7.455 -4.3588 -2.0386 -1.6746
  201MOL0     H27118   8.744   1.515   7.422 -2.1365 -0.3332  2.4860
  201MOL0     H27119   7.835   1.160   6.905 -2.9228  0.6635  0.8454
  201MOL0     H27120   7.628   1.257   6.931  0.3640 -2.7565 -1.7329
  201MOL0     H27121   7.418   1.717   6.962  2.1024 -0.4754 -2.2128
  201MOL0     H27122   7.231   1.867   6.962 -0.4176 -1.0513  1.6816
  201MOL0     H27123   6.851   1.760   6.747 -0.5594  0.6159 -3.2997
  201MOL0     H27124   6.971   1.855   6.647 -0.0281 -2.5441 -1.0570
  201MOL0     H27125   6.895   2.062   6.775 -1.5073  1.3187 -1.8207
  201MOL0     H27126   6.786   1.954   6.870 -1.1308 -0.6934 -0.2988
  201MOL0     H27127   6.775   1.991   6.563 -1.7769 -2.4832 -0.0281
  201MOL0     H27128   6.706   2.101   6.690  1.2311  0.8897 -0.6827
  201MOL0     H27129   6.633   1.803   6.677 -1.0143  0.6554  1.0497
  201MOL0     H27130   6.534   1.938   6.742  0.2446 -0.5255  0.9488
  201MOL0     H27131   6.423   1.992   6.348 -0.3443 -0.5767 -0.0863
  201MOL0     H27132   6.990   1.599   6.744 -1.7892  2.0463  1.3129
  201MOL0     H27133   7.237   1.380   6.627  3.0771 -2.3219  3.5661
  201MOL0     H27134   7.169   1.317   6.773  1.4059 -0.5662 -0.7490
  201MOL0     H27135   7.064   1.406   6.667 -0.3901  1.3059  0.7581
  202MOL0     O27136   7.956   9.521   5.294 -0.3244  0.4384  0.2140
  202MOL0     C27137   7.991   9.405   5.267 -0.6232  0.0019  0.5750
  202MOL0     O27138   8.117   9.376   5.218  0.3215 -0.5325  0.2102
  202MOL0     C27139   8.219   9.453   5.272 -0.7786 -0.4787 -1.2755
  202MOL0     C27140   8.243   9.461   5.413  0.4270 -0.6508 -0.9537
  202MOL0     C27141   8.354   9.532   5.453 -0.4917  0.4830  0.4503
  202MOL0     C27142   8.447   9.561   5.355 -1.4032 -0.2582 -0.1643
  202MOL0     O27143   8.570   9.601   5.407  0.3620  0.0428  0.2878
  202MOL0     C27144   8.644   9.703   5.344  0.3580  0.4435  0.4893
  202MOL0     C27145   8.787   9.664   5.315 -0.2939 -0.1205  0.2205
  202MOL0     C27146   8.898   9.781   5.330  1.6140  0.1603  0.1736
  202MOL0     C27147   9.024   9.751   5.245 -0.0745 -0.1485  0.1692
  202MOL0     C27148   9.135   9.860   5.249  0.2516 -0.4994 -0.2222
  202MOL0     C27149   9.255   9.829   5.156 -0.6339 -0.5729  0.2127
  202MOL0     C27150   9.378   9.926   5.166  0.5933  0.3194 -0.3355
  202MOL0     C27151   9.448   9.953   5.032  0.5926 -0.0543 -0.3010
  202MOL0     N27152   9.526   9.842   4.976 -0.1510  1.1103 -0.1696
  202MOL0     C27153   9.658   9.849   4.951 -0.2655 -0.5005 -0.4302
  202MOL0     C27154   9.682   9.745   4.865 -0.1234 -0.2806 -0.4083
  202MOL0     C27155   9.815   9.721   4.816 -0.3614  0.2439  1.0115
  202MOL0     C27156   9.880   9.620   4.909  0.6492 -0.1917 -0.9708
  202MOL0     C27157  10.027   9.600   4.871 -0.3320 -0.2386  0.5120
  202MOL0     C27158  10.094   9.507   4.973 -0.7585  0.1146  0.0316
  202MOL0     O27159  10.238   9.497   4.941 -0.7254  0.5353  0.5059
  202MOL0     C27160  10.322   9.421   5.024  0.6674  0.5029  0.2442
  202MOL0     C27161  10.440   9.391   4.965  0.7658  0.5414  1.2472
  202MOL0     C27162  10.541   9.338   5.039 -0.1884 -1.0591 -0.0889
  202MOL0     C27163  10.534   9.330   5.176 -0.2526 -0.4275 -0.1039
  202MOL0     C27164  10.650   9.291   5.257  0.0584  0.0995 -1.1828
  202MOL0     O27165  10.622   9.245   5.390 -0.0959  0.2702  0.6073
  202MOL0     C27166  10.732   9.214   5.465  0.5699  0.3424 -0.0526
  202MOL0     C27167  10.843   9.298   5.493  0.7298 -0.2593  1.5355
  202MOL0     C27168  10.955   9.248   5.545  0.6524  0.7858  0.2177
  202MOL0     C27169  10.970   9.112   5.570  0.3448 -0.3635 -0.4607
  202MOL0     O27170  11.096   9.082   5.633  0.2496 -1.2265 -0.2324
  202MOL0     C27171  11.103   8.951   5.685 -0.3494  0.3522 -0.0553
  202MOL0     C27172  11.231   8.922   5.764 -0.2693  0.0497  0.3232
  202MOL0     C27173  11.349   8.937   5.658  0.6657 -0.2020 -0.0617
  202MOL0     C27174  11.442   8.834   5.696  0.7197  1.7948 -1.1063
  202MOL0     C27175  11.569   8.847   5.615 -0.5703 -0.3858  0.1509
  202MOL0     C27176  11.670   8.729   5.633 -0.9799  0.1121 -0.4162
  202MOL0     C27177  11.785   8.740   5.532  0.0031  0.2086 -0.1685
  202MOL0     C27178  11.839   8.598   5.518 -0.3970  0.3326 -0.3520
  202MOL0    Cl27179  11.942   8.606   5.372  0.2072  0.1549 -0.2305
  202MOL0     C27180  10.860   9.026   5.539 -1.3998 -0.2367 -0.1343
  202MOL0     C27181  10.740   9.079   5.495  0.3613  0.1200  0.2456
  202MOL0     O27182  10.751   9.263   5.196 -0.0334 -0.2866  1.0845
  202MOL0     C27183  10.408   9.363   5.237 -0.2289  0.8574  0.1691
  202MOL0     C27184  10.300   9.399   5.161  0.6580 -0.7653  0.5067
  202MOL0     N27185   9.565   9.685   4.834 -0.2683  0.5272 -0.6714
  202MOL0     N27186   9.476   9.730   4.910 -0.8022 -0.0890 -0.3345
  202MOL0     C27187   8.433   9.546   5.214  0.2074 -0.4219  0.1116
  202MOL0     C27188   8.310   9.493   5.176 -0.6508 -0.1258 -0.2444
  202MOL0     C27189   7.892   9.301   5.255 -0.6809  0.6292  0.1669
  202MOL0     C27190   7.900   9.196   5.159 -0.1225  0.4888  0.3295
  202MOL0     C27191   7.795   9.106   5.138 -0.8654 -0.1528  0.4735
  202MOL0     C27192   7.680   9.117   5.216  0.8091 -0.5099  0.3248
  202MOL0     O27193   7.584   9.020   5.233  0.5323  0.3396 -0.7989
  202MOL0     C27194   7.566   8.923   5.136 -0.2434  1.4999  0.2255
  202MOL0     C27195   7.461   8.814   5.200 -0.1237 -0.6030 -0.2917
  202MOL0     C27196   7.330   8.874   5.248 -0.5933  0.6960  0.5115
  202MOL0     C27197   7.277   8.985   5.153  0.0835  0.3749  0.7170
  202MOL0     C27198   7.150   9.040   5.202  0.2488 -0.1615 -0.3788
  202MOL0     C27199   7.039   9.080   5.229  0.3217  0.8492 -0.2484
  202MOL0     C27200   7.666   9.213   5.315  0.4946 -0.2958  0.3840
  202MOL0     C27201   7.783   9.295   5.337  0.0156  0.5416  0.0990
  202MOL0     C27202   7.776   9.386   5.459  0.4358 -0.0006 -0.9693
  202MOL0     H27203   8.173   9.428   5.488  3.5157 -0.4966  2.2510
  202MOL0     H27204   8.380   9.536   5.558  0.6417  1.2142  0.1576
  202MOL0     H27205   8.598   9.742   5.253 -0.4807 -1.0148  0.2446
  202MOL0     H27206   8.650   9.775   5.427 -2.1794  1.6637 -0.2714
  202MOL0     H27207   8.799   9.615   5.218  1.8777  2.1978 -0.8244
  202MOL0     H27208   8.816   9.592   5.392 -1.2344  0.5263  1.2068
  202MOL0     H27209   8.926   9.787   5.435 -0.7634 -0.7738  0.9054
  202MOL0     H27210   8.856   9.880   5.310 -0.6938 -0.3089  2.2408
  202MOL0     H27211   9.063   9.656   5.283 -3.1892 -0.7472  2.2172
  202MOL0     H27212   8.994   9.722   5.144 -0.6352 -3.3541  1.1428
  202MOL0     H27213   9.088   9.954   5.220 -1.2847 -1.4864 -1.1333
  202MOL0     H27214   9.175   9.873   5.350 -1.2011 -0.1415  0.3365
  202MOL0     H27215   9.292   9.726   5.156 -2.3891 -1.2481  1.0989
  202MOL0     H27216   9.206   9.846   5.059 -0.8768 -2.3579 -0.0120
  202MOL0     H27217   9.455   9.884   5.232  0.3199 -1.2514 -0.9722
  202MOL0     H27218   9.335  10.021   5.196 -3.0970 -0.8011 -1.5788
  202MOL0     H27219   9.368   9.982   4.963 -2.6259 -2.6853  2.0164
  202MOL0     H27220   9.513  10.039   5.050 -1.4813  1.1617  1.8416
  202MOL0     H27221   9.728   9.926   4.983  0.6489 -1.5729  0.1946
  202MOL0     H27222   9.812   9.675   4.717 -2.2284  0.6099  0.8473
  202MOL0     H27223   9.875   9.811   4.822  0.8732 -0.5840  1.4953
  202MOL0     H27224   9.876   9.651   5.014 -1.1343  1.7658 -1.5516
  202MOL0     H27225   9.830   9.523   4.898 -0.3845  0.3161 -0.8342
  202MOL0     H27226  10.068   9.701   4.877 -3.7243  1.1789  3.9956
  202MOL0     H27227  10.022   9.560   4.769  0.1277 -0.7355  0.6832
  202MOL0     H27228  10.050   9.407   4.965 -0.3064 -0.0695 -0.2090
  202MOL0     H27229  10.082   9.541   5.077 -0.4128 -0.6890  0.3472
  202MOL0     H27230  10.444   9.401   4.857 -1.9454  0.2723  1.0412
  202MOL0     H27231  10.633   9.316   4.986  0.5600  3.6818 -1.2491
  202MOL0     H27232  10.840   9.401   5.462 -0.8442 -1.1166 -1.5218
  202MOL0     H27233  11.035   9.316   5.573 -0.2983  0.7280  3.4229
  202MOL0     H27234  11.011   8.924   5.738 -0.3571  0.6609  0.0928
  202MOL0     H27235  11.118   8.891   5.595  0.6412 -0.1599  0.4310
  202MOL0     H27236  11.245   8.979   5.856  1.9032  2.1517 -1.1458
  202MOL0     H27237  11.222   8.819   5.799 -1.1744  0.2972  0.8278
  202MOL0     H27238  11.315   8.932   5.554  0.0864  0.1997  0.1067
  202MOL0     H27239  11.400   9.033   5.672 -2.4943  1.4074  1.3696
  202MOL0     H27240  11.390   8.740   5.676  1.3764  1.4651 -1.3068
  202MOL0     H27241  11.460   8.842   5.803 -3.2573  0.8360 -0.2272
  202MOL0     H27242  11.627   8.930   5.658  0.1888 -2.1387  2.6901
  202MOL0     H27243  11.559   8.870   5.508  1.4362 -0.4115 -0.0729
  202MOL0     H27244  11.714   8.719   5.733  0.9476 -1.1004 -1.3133
  202MOL0     H27245  11.612   8.637   5.626 -1.3620 -0.7214  6.4593
  202MOL0     H27246  11.858   8.810   5.575  0.4557 -0.3633 -0.0004
  202MOL0     H27247  11.754   8.770   5.431  0.6009  0.6812 -0.2206
  202MOL0     H27248  11.894   8.576   5.610 -0.4602 -0.2143 -0.4420
  202MOL0     H27249  11.764   8.520   5.500  2.1854 -2.0382 -1.5564
  202MOL0     H27250  10.874   8.919   5.554 -2.3230 -0.3598 -0.0597
  202MOL0     H27251  10.654   9.016   5.475 -0.4393  0.0827  3.2431
  202MOL0     H27252  10.404   9.374   5.345  1.5697 -2.8953  0.8108
  202MOL0     H27253  10.210   9.435   5.211  0.8113  0.5215 -0.1012
  202MOL0     H27254   8.507   9.563   5.137 -2.3186  0.5803 -2.2906
  202MOL0     H27255   8.292   9.475   5.070  2.3233  2.5795 -1.3534
  202MOL0     H27256   7.985   9.198   5.092 -0.0758  1.6188  0.3992
  202MOL0     H27257   7.818   9.035   5.059 -1.5338  2.6016 -2.4011
  202MOL0     H27258   7.661   8.877   5.109 -0.6033  0.9729 -0.1826
  202MOL0     H27259   7.532   8.957   5.037 -0.4572 -2.0521 -1.0910
  202MOL0     H27260   7.507   8.766   5.287 -2.1003 -1.6680  0.2252
  202MOL0     H27261   7.447   8.732   5.128 -0.8356 -0.7108 -0.0354
  202MOL0     H27262   7.338   8.909   5.351 -0.7368  0.1862  0.6997
  202MOL0     H27263   7.256   8.794   5.250 -0.2922  0.4093  0.3571
  202MOL0     H27264   7.355   9.061   5.157  2.2330 -1.7011  0.7093
  202MOL0     H27265   7.258   8.956   5.049  2.4704 -2.5267  0.9629
  202MOL0     H27266   6.938   9.111   5.246  0.4961  0.3418  1.9995
  202MOL0     H27267   7.581   9.217   5.382  0.5858  0.6075  0.4571
  202MOL0     H27268   7.859   9.387   5.530  1.1202 -2.1597 -1.6555
  202MOL0     H27269   7.750   9.488   5.428  2.3268  0.6414 -0.5586
  202MOL0     H27270   7.690   9.356   5.519 -0.0412 -0.7713 -2.0148
  203MOL0     O27271   3.044   2.315   5.453 -0.6892 -0.8601 -0.0115
  203MOL0     C27272   3.000   2.226   5.527 -0.1601 -0.5572 -0.1667
  203MOL0     O27273   3.075   2.145   5.611 -0.0609  0.1515  0.1890
  203MOL0     C27274   3.166   2.210   5.690 -0.2443  0.0131 -0.2372
  203MOL0     C27275   3.290   2.247   5.637  0.3200  0.7256 -0.1741
  203MOL0     C27276   3.389   2.307   5.709  0.4353 -0.0307  0.3816
  203MOL0     C27277   3.377   2.339   5.842 -0.2880  0.4870 -0.3578
  203MOL0     O27278   3.478   2.386   5.923  0.4636  0.6572 -0.3547
  203MOL0     C27279   3.607   2.335   5.892  0.1562  0.5016  0.5248
  203MOL0     C27280   3.719   2.418   5.953  0.4132  0.2575  1.5931
  203MOL0     C27281   3.854   2.349   5.907  1.0500  0.5090 -0.3552
  203MOL0     C27282   3.973   2.437   5.945  0.7438  0.1154  0.2725
  203MOL0     C27283   4.105   2.350   5.960 -0.5930 -0.1846 -0.1887
  203MOL0     C27284   4.142   2.268   5.824  0.4023 -0.2570  0.5483
  203MOL0     C27285   4.295   2.223   5.796 -0.5036 -0.1851 -0.1992
  203MOL0     C27286   4.337   2.167   5.662  0.1420 -0.2147 -0.6814
  203MOL0     N27287   4.480   2.197   5.622  0.0051  0.0705 -0.8791
  203MOL0     C27288   4.522   2.255   5.504 -0.1580 -0.2068 -1.0397
  203MOL0     C27289   4.655   2.229   5.507 -0.6507 -0.5936 -0.2194
  203MOL0     C27290   4.767   2.285   5.424 -0.2253  0.6547  0.7531
  203MOL0     C27291   4.781   2.202   5.305 -0.1430 -0.3832  0.4893
  203MOL0     C27292   4.888   2.240   5.195  0.2977 -0.4067 -0.5966
  203MOL0     C27293   5.033   2.275   5.249 -1.3721 -0.8462  1.5590
  203MOL0     O27294   5.110   2.160   5.271  0.1333  0.1883  0.9567
  203MOL0     C27295   5.239   2.170   5.320 -0.7290 -0.2032  0.6591
  203MOL0     C27296   5.285   2.293   5.379 -0.2229  0.5199 -0.4130
  203MOL0     C27297   5.413   2.296   5.438 -0.0970  0.2143  0.3933
  203MOL0     C27298   5.494   2.187   5.449 -0.2509 -0.3466  0.6217
  203MOL0     C27299   5.620   2.194   5.511 -0.7812  0.3093  0.0506
  203MOL0     O27300   5.652   2.291   5.606  0.1027  1.0335  0.8186
  203MOL0     C27301   5.771   2.279   5.669  0.1753  0.8598  0.9064
  203MOL0     C27302   5.861   2.381   5.645 -0.1345 -0.5789 -0.1547
  203MOL0     C27303   5.985   2.383   5.709  0.3676 -0.8677 -0.4403
  203MOL0     C27304   6.027   2.276   5.786  0.1062  0.6311  0.0290
  203MOL0     O27305   6.147   2.265   5.842  0.4004  0.4198 -0.2899
  203MOL0     C27306   6.224   2.386   5.860  0.2817 -0.2565 -0.2649
  203MOL0     C27307   6.167   2.476   5.966  0.6113 -0.0192  0.3461
  203MOL0     C27308   6.165   2.403   6.104 -0.5576 -0.8273 -0.0803
  203MOL0     C27309   6.183   2.489   6.229  0.1630 -0.7675 -0.0799
  203MOL0     C27310   6.200   2.414   6.359 -0.3907  0.1515  0.6493
  203MOL0     C27311   6.245   2.502   6.478 -0.1838 -0.1662 -0.0350
  203MOL0     C27312   6.365   2.593   6.467  0.6878 -0.1352 -0.1174
  203MOL0     C27313   6.490   2.504   6.438  0.4051 -0.3967  0.7298
  203MOL0    Cl27314   6.641   2.597   6.435  0.4559 -0.0416 -0.2683
  203MOL0     C27315   5.932   2.177   5.805  0.3275 -0.2481 -0.4548
  203MOL0     C27316   5.799   2.181   5.758 -0.1509  0.3971 -0.9722
  203MOL0     O27317   5.695   2.110   5.464 -0.2407  0.3707  0.1069
  203MOL0     C27318   5.444   2.068   5.389  0.5907 -1.0530 -0.2360
  203MOL0     C27319   5.321   2.062   5.333  1.0061  0.2835  0.0924
  203MOL0     N27320   4.691   2.161   5.621 -0.3849  0.7583 -0.0209
  203MOL0     N27321   4.584   2.140   5.688 -0.2960 -0.5784 -0.7871
  203MOL0     C27322   3.253   2.320   5.900  0.9607 -0.7221 -0.3829
  203MOL0     C27323   3.152   2.253   5.823  1.0061 -0.5528 -0.2257
  203MOL0     C27324   2.849   2.209   5.515  0.4777 -0.5827 -0.8509
  203MOL0     C27325   2.777   2.309   5.449 -0.6664 -0.5378  0.1695
  203MOL0     C27326   2.641   2.314   5.430 -0.4227  0.3194  0.5667
  203MOL0     C27327   2.560   2.210   5.480 -0.0027  0.4528  0.1212
  203MOL0     O27328   2.428   2.209   5.459  0.0643 -0.6072 -0.4514
  203MOL0     C27329   2.373   2.078   5.431  0.4223 -0.2004 -0.2944
  203MOL0     C27330   2.247   2.101   5.359 -0.1556  0.3004  0.0645
  203MOL0     C27331   2.170   1.969   5.331  0.2097  0.3214  0.1860
  203MOL0     C27332   2.051   1.991   5.234 -0.4701  0.4371 -0.0719
  203MOL0     C27333   1.986   1.861   5.223 -0.6248  0.6809 -0.6381
  203MOL0     C27334   1.941   1.750   5.196 -0.6510  0.2492 -0.0830
  203MOL0     C27335   2.628   2.107   5.550  0.6550  0.1595  0.3008
  203MOL0     C27336   2.767   2.108   5.572 -0.1299 -0.8645 -0.0446
  203MOL0     C27337   2.835   2.017   5.672  0.4520  1.3601  0.0958
  203MOL0     H27338   3.311   2.220   5.534 -1.5752  1.2863 -0.7454
  203MOL0     H27339   3.483   2.328   5.658  0.8961 -0.9686  0.8219
  203MOL0     H27340   3.600   2.229   5.917  0.2498  0.9254  2.4877
  203MOL0     H27341   3.636   2.343   5.787  2.9245  1.2828  1.2611
  203MOL0     H27342   3.712   2.426   6.062  0.1358 -0.1434  1.6054
  203MOL0     H27343   3.720   2.520   5.912  0.3840 -0.5625 -0.5391
  203MOL0     H27344   3.847   2.332   5.799 -0.4055  1.4225 -0.4287
  203MOL0     H27345   3.867   2.253   5.957 -1.1545  1.8452  3.1765
  203MOL0     H27346   3.983   2.529   5.887  0.1388  0.2023  0.2994
  203MOL0     H27347   3.943   2.477   6.043 -0.9582  0.9300 -0.5414
  203MOL0     H27348   4.183   2.422   5.986 -0.1523 -1.6164  2.9368
  203MOL0     H27349   4.104   2.283   6.046  2.8307 -1.5948 -1.0456
  203MOL0     H27350   4.084   2.176   5.813  1.0935 -0.7225  0.7128
  203MOL0     H27351   4.104   2.340   5.752 -4.9440  2.0027  4.8765
  203MOL0     H27352   4.315   2.158   5.882 -0.5528  0.6123  0.4223
  203MOL0     H27353   4.345   2.320   5.802  0.2149 -0.5526 -0.1136
  203MOL0     H27354   4.335   2.058   5.666 -1.4227 -0.1733  0.7428
  203MOL0     H27355   4.267   2.215   5.593  0.9796 -0.4068 -1.6949
  203MOL0     H27356   4.467   2.314   5.431 -3.1466 -2.1699 -0.5426
  203MOL0     H27357   4.748   2.390   5.398 -0.3062  1.0368  2.2787
  203MOL0     H27358   4.859   2.265   5.479  0.0708  2.0891  0.8312
  203MOL0     H27359   4.816   2.103   5.338 -0.8867 -0.9457 -0.3752
  203MOL0     H27360   4.685   2.186   5.257 -0.4519  0.7165  0.7092
  203MOL0     H27361   4.846   2.331   5.149 -1.6201 -0.8086  0.2425
  203MOL0     H27362   4.882   2.150   5.133  1.0402 -1.8007  1.2736
  203MOL0     H27363   5.037   2.341   5.336  2.6855 -0.1675  1.0799
  203MOL0     H27364   5.083   2.328   5.167 -0.4009  1.6495  3.6511
  203MOL0     H27365   5.219   2.379   5.372 -2.6321 -1.2680 -1.1621
  203MOL0     H27366   5.463   2.385   5.474  0.1082  1.6151 -3.0325
  203MOL0     H27367   5.815   2.461   5.587 -0.4732 -0.2964  0.4956
  203MOL0     H27368   6.057   2.463   5.692  1.0566 -1.0038  1.5425
  203MOL0     H27369   6.323   2.353   5.889 -0.2020 -2.8525 -1.3187
  203MOL0     H27370   6.234   2.446   5.769 -0.8492  0.1118 -0.1690
  203MOL0     H27371   6.210   2.576   5.973 -2.3428  1.3153  1.1565
  203MOL0     H27372   6.063   2.504   5.943  0.3739 -0.7721  0.4898
  203MOL0     H27373   6.070   2.349   6.107 -0.7171 -0.6973 -1.7489
  203MOL0     H27374   6.245   2.328   6.107 -1.4295 -2.0548 -3.3870
  203MOL0     H27375   6.096   2.556   6.225  1.1221  0.4781 -1.3165
  203MOL0     H27376   6.277   2.545   6.217 -0.5141  0.5616  0.5335
  203MOL0     H27377   6.286   2.353   6.329 -1.1437 -0.2418 -0.8047
  203MOL0     H27378   6.116   2.347   6.380  1.1987 -1.6539  1.6183
  203MOL0     H27379   6.157   2.556   6.515 -0.3083 -1.1411  1.1404
  203MOL0     H27380   6.274   2.425   6.550  1.2902  0.7596  0.4220
  203MOL0     H27381   6.379   2.644   6.563  0.1369  0.9342 -0.5956
  203MOL0     H27382   6.348   2.665   6.386  6.0143 -0.6091 -2.0383
  203MOL0     H27383   6.498   2.416   6.503 -1.0884 -0.6113  0.6544
  203MOL0     H27384   6.478   2.459   6.339  1.4623  1.0947 -0.1127
  203MOL0     H27385   5.949   2.098   5.876  1.1352 -0.8830 -1.3247
  203MOL0     H27386   5.735   2.096   5.780  0.6453  0.0407  0.0060
  203MOL0     H27387   5.505   1.978   5.388 -1.0882 -2.3259  1.9706
  203MOL0     H27388   5.289   1.966   5.295  1.6939  0.1551 -0.1715
  203MOL0     H27389   3.226   2.339   6.003  0.5074 -1.3155 -0.3859
  203MOL0     H27390   3.056   2.238   5.873  1.3869  0.8203  0.9723
  203MOL0     H27391   2.827   2.399   5.413  0.3724 -0.3943  1.8317
  203MOL0     H27392   2.584   2.388   5.375  1.3575  0.9642 -0.5050
  203MOL0     H27393   2.358   2.030   5.529  0.2766  3.0190  1.3843
  203MOL0     H27394   2.434   2.015   5.366  0.0245  0.3877 -1.2551
  203MOL0     H27395   2.263   2.158   5.267  0.8573  0.1456  0.1392
  203MOL0     H27396   2.182   2.166   5.418 -0.3452  1.5628 -1.4576
  203MOL0     H27397   2.131   1.916   5.419  0.6388 -1.0921 -0.4317
  203MOL0     H27398   2.237   1.896   5.285 -0.3801 -0.7951  1.0276
  203MOL0     H27399   1.989   2.061   5.291 -2.0103  0.1819 -1.3744
  203MOL0     H27400   2.101   2.039   5.150  0.6662 -0.6045 -0.0213
  203MOL0     H27401   1.890   1.669   5.147 -1.4331 -0.1484  1.3083
  203MOL0     H27402   2.579   2.026   5.604  0.0291  0.1416 -0.2867
  203MOL0     H27403   2.762   1.948   5.717 -1.0172  3.9774  2.0519
  203MOL0     H27404   2.917   1.962   5.627  0.3798  0.8047  0.6284
  203MOL0     H27405   2.887   2.068   5.755  2.7616  0.2189 -0.5743
  204MOL0     O27406  10.929   2.433   6.223  0.1777 -0.6097 -0.0993
  204MOL0     C27407  10.908   2.541   6.287 -0.3014  0.1733 -0.0868
  204MOL0     O27408  10.990   2.653   6.276  0.6349  0.0592 -0.7416
  204MOL0     C27409  11.066   2.667   6.165 -0.0310 -0.0243 -0.1920
  204MOL0     C27410  11.054   2.789   6.092 -0.3106  0.0328  0.7966
  204MOL0     C27411  11.116   2.814   5.966  0.0946  0.2388  0.2422
  204MOL0     C27412  11.215   2.725   5.923  0.0592 -0.4832 -0.4335
  204MOL0     O27413  11.276   2.753   5.807 -0.3669 -0.5978  0.2656
  204MOL0     C27414  11.401   2.800   5.827 -0.2979 -0.5359  0.8375
  204MOL0     C27415  11.479   2.824   5.701  0.5903 -0.7413  0.8809
  204MOL0     C27416  11.612   2.873   5.745 -0.2315  0.6925 -0.6317
  204MOL0     C27417  11.715   2.889   5.629 -0.0249 -0.5755  0.5647
  204MOL0     C27418  11.863   2.920   5.680 -0.4763  0.2115  1.0955
  204MOL0     C27419  11.948   3.009   5.592  0.9356  0.0245  0.1314
  204MOL0     C27420  12.076   3.062   5.662  0.1208 -0.7460  0.1957
  204MOL0     C27421  12.166   3.153   5.575 -0.0281  0.2977 -0.0243
  204MOL0     N27422  12.184   3.101   5.428 -0.1329 -0.5135 -0.3421
  204MOL0     C27423  12.105   3.139   5.327  0.5149 -0.4586  0.7270
  204MOL0     C27424  12.148   3.073   5.215  0.1581  0.1956 -0.2853
  204MOL0     C27425  12.110   3.062   5.074  0.3700  0.4976  0.1211
  204MOL0     C27426  12.155   3.183   4.992 -0.1049 -0.6939 -0.3012
  204MOL0     C27427  12.096   3.318   5.045 -0.3127  0.8753 -0.6761
  204MOL0     C27428  11.942   3.334   5.032  0.4241  0.1785  0.0252
  204MOL0     O27429  11.866   3.278   5.138 -0.3161 -0.4017 -0.2434
  204MOL0     C27430  11.736   3.323   5.145  0.0416 -0.5405  0.0453
  204MOL0     C27431  11.661   3.273   5.246 -0.1020  0.6039 -0.7272
  204MOL0     C27432  11.527   3.292   5.266 -0.9220 -0.4276 -1.1723
  204MOL0     C27433  11.469   3.388   5.173 -0.8447  0.4698  0.3642
  204MOL0     C27434  11.326   3.433   5.199  0.2310  0.0191 -0.3751
  204MOL0     O27435  11.241   3.375   5.290  0.6291 -0.1945 -0.1568
  204MOL0     C27436  11.116   3.424   5.307 -0.2608 -0.4666 -0.5343
  204MOL0     C27437  11.071   3.434   5.435  0.2192  0.9245  0.1918
  204MOL0     C27438  10.935   3.453   5.447 -0.4707 -0.8690 -0.5896
  204MOL0     C27439  10.845   3.481   5.343  0.0434 -0.2840 -0.5442
  204MOL0     O27440  10.705   3.482   5.370  0.1125  0.6997  0.9076
  204MOL0     C27441  10.612   3.527   5.278 -0.5613  0.2710  0.1966
  204MOL0     C27442  10.476   3.552   5.337 -0.1191 -0.0672  1.3097
  204MOL0     C27443  10.427   3.434   5.401 -0.0394  0.7407  0.3596
  204MOL0     C27444  10.286   3.457   5.437 -0.0719  0.4534 -0.7457
  204MOL0     C27445  10.226   3.338   5.521 -0.3962  0.5757  0.0684
  204MOL0     C27446  10.070   3.335   5.522  0.3420 -0.0552  0.5879
  204MOL0     C27447  10.004   3.221   5.603 -0.4013  0.8862 -1.0130
  204MOL0     C27448   9.880   3.159   5.543 -0.3094 -0.4644  0.8902
  204MOL0    Cl27449   9.743   3.273   5.548  0.0122 -0.3980 -0.0998
  204MOL0     C27450  10.898   3.478   5.217 -0.1631 -0.2890  0.3845
  204MOL0     C27451  11.036   3.443   5.198  0.0826 -0.9517 -0.1448
  204MOL0     O27452  11.299   3.532   5.138  1.1520  0.6814 -0.6923
  204MOL0     C27453  11.544   3.448   5.075 -0.4039  0.3424  0.2421
  204MOL0     C27454  11.676   3.412   5.054 -0.7603  0.0198 -0.4112
  204MOL0     N27455  12.258   2.999   5.262  0.0171  0.1358 -0.4867
  204MOL0     N27456  12.282   3.010   5.383  0.5271 -0.3222 -0.9762
  204MOL0     C27457  11.225   2.597   5.989  1.0319 -0.4444  0.3448
  204MOL0     C27458  11.168   2.575   6.116 -0.6667 -0.5815  0.6817
  204MOL0     C27459  10.786   2.566   6.374  0.4570  0.3604  0.3620
  204MOL0     C27460  10.743   2.698   6.394 -0.7118 -0.0571 -0.5250
  204MOL0     C27461  10.651   2.729   6.496 -0.3841  0.2868 -0.7227
  204MOL0     C27462  10.569   2.636   6.549  0.3659  0.1962  0.2443
  204MOL0     O27463  10.483   2.673   6.650  0.0092 -0.1555  0.6467
  204MOL0     C27464  10.382   2.580   6.690  0.1962 -0.8042 -0.7504
  204MOL0     C27465  10.273   2.552   6.591  1.3635  0.0636  0.8133
  204MOL0     C27466  10.178   2.671   6.559  0.1378 -0.0817  0.0676
  204MOL0     C27467  10.053   2.608   6.483  0.3081  0.7091 -0.8755
  204MOL0     C27468   9.956   2.544   6.579 -0.7555  0.2005 -0.4574
  204MOL0     C27469   9.880   2.497   6.664 -0.6013 -0.3359  0.4521
  204MOL0     C27470  10.604   2.502   6.513 -0.2973  0.5878 -0.1268
  204MOL0     C27471  10.714   2.457   6.433 -1.0463  0.0606  0.3533
  204MOL0     C27472  10.755   2.311   6.431 -0.4251 -0.5461  0.0582
  204MOL0     H27473  10.980   2.862   6.123 -2.2492 -1.4162 -0.2224
  204MOL0     H27474  11.101   2.914   5.926  2.4614  0.2858 -0.6456
  204MOL0     H27475  11.395   2.890   5.888  0.9641 -1.2672  2.1035
  204MOL0     H27476  11.450   2.726   5.891 -1.0395 -3.1105 -1.3921
  204MOL0     H27477  11.425   2.894   5.637  1.3862 -2.5676 -1.9700
  204MOL0     H27478  11.486   2.735   5.638 -4.2772  0.7032 -2.2628
  204MOL0     H27479  11.667   2.811   5.817 -0.0302  1.6959  0.0859
  204MOL0     H27480  11.611   2.970   5.795 -1.3253  1.1764 -1.5731
  204MOL0     H27481  11.719   2.801   5.565 -0.2268 -0.5418  0.5051
  204MOL0     H27482  11.679   2.979   5.579  2.2542  0.1492  0.1015
  204MOL0     H27483  11.854   2.978   5.772 -0.8929  1.3830  0.3383
  204MOL0     H27484  11.920   2.827   5.688  0.4514  0.4981 -1.4284
  204MOL0     H27485  11.974   2.955   5.500  1.2906 -0.3189  0.4289
  204MOL0     H27486  11.886   3.094   5.561  2.1795  0.2797 -1.8527
  204MOL0     H27487  12.136   2.976   5.693 -0.2379 -0.3630  2.1412
  204MOL0     H27488  12.044   3.111   5.755  0.7996 -0.0920  0.0924
  204MOL0     H27489  12.101   3.241   5.570 -2.5100 -1.1436  3.0766
  204MOL0     H27490  12.261   3.175   5.625 -0.2310  0.8938  0.1083
  204MOL0     H27491  12.027   3.213   5.320  3.7348  3.0354 -2.1876
  204MOL0     H27492  12.142   2.962   5.044 -0.4578 -0.1889  1.4427
  204MOL0     H27493  12.001   3.057   5.068  0.3033 -0.8502  1.7828
  204MOL0     H27494  12.263   3.187   5.005 -0.0733 -1.3013 -0.3492
  204MOL0     H27495  12.126   3.173   4.887  1.7869 -0.0299 -0.9231
  204MOL0     H27496  12.150   3.400   4.997  2.0606 -1.3825 -2.1052
  204MOL0     H27497  12.118   3.327   5.152  0.9917 -0.5586 -0.7813
  204MOL0     H27498  11.905   3.309   4.932 -0.7016  2.4847 -0.2063
  204MOL0     H27499  11.937   3.443   5.040 -0.6934  0.2817 -1.5493
  204MOL0     H27500  11.715   3.212   5.318 -0.4679 -0.5074 -1.3791
  204MOL0     H27501  11.467   3.252   5.347  1.8115 -2.1922  0.1131
  204MOL0     H27502  11.135   3.415   5.520  2.4329 -0.8900 -1.7355
  204MOL0     H27503  10.904   3.438   5.550  3.9636  1.0699  1.2837
  204MOL0     H27504  10.648   3.616   5.224 -1.5468  0.7797  0.3571
  204MOL0     H27505  10.595   3.451   5.201 -1.2823  2.0691 -1.5267
  204MOL0     H27506  10.470   3.631   5.412 -0.2135  1.6780 -0.4682
  204MOL0     H27507  10.407   3.581   5.258  2.4172 -0.2343 -1.1255
  204MOL0     H27508  10.432   3.352   5.329 -4.8182 -0.6733  1.3023
  204MOL0     H27509  10.485   3.408   5.491 -1.2320  3.3319  1.9921
  204MOL0     H27510  10.226   3.455   5.346  0.0086  0.1630 -0.7955
  204MOL0     H27511  10.267   3.554   5.484  0.7935  0.0248  0.5427
  204MOL0     H27512  10.251   3.351   5.627 -2.9083 -2.4470  1.2058
  204MOL0     H27513  10.281   3.247   5.498  2.0113  2.0934 -0.5091
  204MOL0     H27514  10.035   3.437   5.541 -0.2798  1.0722 -4.8248
  204MOL0     H27515  10.044   3.331   5.415  0.9877  2.2910  0.2645
  204MOL0     H27516   9.982   3.255   5.704 -1.0739  0.8532 -1.1412
  204MOL0     H27517  10.080   3.143   5.607  1.1061  2.3282  1.6705
  204MOL0     H27518   9.896   3.140   5.436  0.1868 -0.7480  1.0147
  204MOL0     H27519   9.842   3.072   5.596 -2.0810  0.5804  1.4002
  204MOL0     H27520  10.838   3.485   5.127  0.4677  0.7707  0.0283
  204MOL0     H27521  11.078   3.439   5.098 -3.0509  2.2608 -1.7971
  204MOL0     H27522  11.501   3.511   4.998  1.2923  1.3394  0.0669
  204MOL0     H27523  11.724   3.443   4.962 -2.0738  0.7925 -0.8581
  204MOL0     H27524  11.281   2.519   5.939 -0.4938 -1.0323 -0.5128
  204MOL0     H27525  11.182   2.487   6.179 -0.4115 -0.9460  0.1246
  204MOL0     H27526  10.789   2.781   6.341 -1.5584 -1.4858 -3.7386
  204MOL0     H27527  10.624   2.828   6.530  4.4760  1.1409  1.4199
  204MOL0     H27528  10.334   2.625   6.777  0.5364  2.2791 -2.0291
  204MOL0     H27529  10.417   2.481   6.722 -3.4467 -1.7379  0.8674
  204MOL0     H27530  10.222   2.464   6.632  1.4068 -1.5196 -2.2467
  204MOL0     H27531  10.319   2.515   6.499 -1.4153 -2.1249  0.1565
  204MOL0     H27532  10.235   2.743   6.501  0.3035 -0.9330 -0.8532
  204MOL0     H27533  10.136   2.725   6.645  0.2405 -0.5069  0.3912
  204MOL0     H27534  10.000   2.700   6.456 -0.1291  0.9412  0.6449
  204MOL0     H27535  10.068   2.543   6.397 -1.3201 -1.9673  0.7407
  204MOL0     H27536   9.809   2.447   6.728  1.4477  0.0147  3.1848
  204MOL0     H27537  10.550   2.420   6.558 -0.1441  0.3957 -0.2929
  204MOL0     H27538  10.864   2.305   6.442 -0.3142 -1.3255 -1.2578
  204MOL0     H27539  10.708   2.257   6.513  1.3473 -2.8348 -0.3321
  204MOL0     H27540  10.724   2.269   6.335  0.7848  1.1329 -1.1423
  205MOL0     O27541   4.747  10.917  10.694 -0.4961  0.3379  0.2047
  205MOL0     C27542   4.642  10.976  10.700  0.6987  0.5323  0.4023
  205MOL0     O27543   4.616  11.091  10.754  0.2074  0.1100 -0.0698
  205MOL0     C27544   4.710  11.153  10.825 -0.9584  0.2653 -0.3054
  205MOL0     C27545   4.730  11.151  10.970  0.1918 -0.5398  0.3828
  205MOL0     C27546   4.832  11.230  11.027  0.3460  0.1799 -0.4140
  205MOL0     C27547   4.931  11.287  10.948 -1.5874  0.2355  0.5556
  205MOL0     O27548   5.046  11.349  11.005  0.3999  0.7565 -0.0064
  205MOL0     C27549   5.115  11.445  10.919 -0.1304 -0.0013  0.2007
  205MOL0     C27550   5.200  11.550  10.984  0.3395  0.1003  0.1850
  205MOL0     C27551   5.316  11.493  11.061  0.0225 -0.4020  0.0156
  205MOL0     C27552   5.422  11.422  10.973  0.6583 -0.3454  0.3096
  205MOL0     C27553   5.528  11.409  11.075 -0.5090  0.0245 -0.4053
  205MOL0     C27554   5.656  11.350  11.011 -0.3316 -0.4196  1.0309
  205MOL0     C27555   5.781  11.400  11.073  0.6034  0.1322 -0.1930
  205MOL0     C27556   5.914  11.345  11.012 -0.3312  0.9181  0.2764
  205MOL0     N27557   6.027  11.415  11.069 -1.3276 -0.6885 -0.0678
  205MOL0     C27558   6.061  11.442  11.201 -0.1425  0.5628  0.5169
  205MOL0     C27559   6.182  11.506  11.201  0.1102  0.3422 -0.6776
  205MOL0     C27560   6.257  11.546  11.327  0.2642 -0.3285 -0.6227
  205MOL0     C27561   6.278  11.419  11.416  0.0331 -0.1262 -0.3975
  205MOL0     C27562   6.373  11.451  11.534 -0.6625 -0.8641 -0.0755
  205MOL0     C27563   6.410  11.315  11.594  0.0824 -0.0171  1.1884
  205MOL0     O27564   6.478  11.346  11.717  0.1120  0.2985 -0.3017
  205MOL0     C27565   6.607  11.305  11.718 -0.2249 -0.1207 -0.6780
  205MOL0     C27566   6.646  11.175  11.732  0.2048 -0.8169  0.3046
  205MOL0     C27567   6.772  11.133  11.711  0.3121  0.7097 -0.1401
  205MOL0     C27568   6.868  11.229  11.681  0.3521  0.0523 -0.3308
  205MOL0     C27569   7.009  11.184  11.666  1.0541  0.6566 -0.0397
  205MOL0     O27570   7.036  11.044  11.656  0.2433 -0.2992  0.2528
  205MOL0     C27571   7.165  10.997  11.625  0.2683  0.8660  0.0248
  205MOL0     C27572   7.187  10.893  11.539 -0.9763  0.6401 -0.3001
  205MOL0     C27573   7.317  10.835  11.529  0.5993  0.6227 -0.7913
  205MOL0     C27574   7.428  10.879  11.600  0.9256  0.0667 -0.3210
  205MOL0     O27575   7.539  10.808  11.571  0.3474  0.8868  0.0805
  205MOL0     C27576   7.664  10.837  11.627 -0.7422  0.3391 -0.2288
  205MOL0     C27577   7.720  10.689  11.633 -0.7323 -0.5660 -1.3709
  205MOL0     C27578   7.871  10.686  11.656  0.7656 -0.2338 -0.7654
  205MOL0     C27579   7.942  10.549  11.651 -0.0920 -0.1648  0.0382
  205MOL0     C27580   8.094  10.582  11.632 -0.9839  1.0055 -1.0375
  205MOL0     C27581   8.173  10.453  11.652 -0.3609 -0.9642  0.2781
  205MOL0     C27582   8.335  10.472  11.631  0.6631 -0.3538  0.0041
  205MOL0     C27583   8.369  10.578  11.521 -0.5561  0.1709  0.4463
  205MOL0    Cl27584   8.536  10.548  11.456 -0.0033 -0.7949  0.0165
  205MOL0     C27585   7.402  10.987  11.685 -0.4469 -0.5048  0.4886
  205MOL0     C27586   7.276  11.034  11.705 -0.0521  0.0880  0.5123
  205MOL0     O27587   7.087  11.273  11.638  0.6674 -0.1083 -0.1119
  205MOL0     C27588   6.835  11.366  11.666 -0.8950  0.1456  0.6335
  205MOL0     C27589   6.705  11.401  11.693 -0.3967  0.1998  0.1459
  205MOL0     N27590   6.218  11.512  11.068 -0.0752 -0.0193  0.2148
  205MOL0     N27591   6.126  11.467  10.991 -0.7639 -0.4420 -0.3194
  205MOL0     C27592   4.925  11.268  10.808  0.1960  0.9999  0.2168
  205MOL0     C27593   4.812  11.209  10.751  0.1163  1.2258 -0.9823
  205MOL0     C27594   4.521  10.911  10.636 -0.4891  0.7434  0.1829
  205MOL0     C27595   4.396  10.968  10.656  0.2838 -0.6132  0.0664
  205MOL0     C27596   4.282  10.909  10.618  0.5161  0.5591  1.2276
  205MOL0     C27597   4.274  10.798  10.536  0.1089  0.9040  0.3923
  205MOL0     O27598   4.171  10.747  10.470  0.1818  0.5844  1.2300
  205MOL0     C27599   4.037  10.776  10.520 -0.7462 -0.1490 -0.1959
  205MOL0     C27600   3.957  10.912  10.473 -0.0144  0.0997 -0.1991
  205MOL0     C27601   3.808  10.898  10.514  0.6892 -0.3857 -0.0448
  205MOL0     C27602   3.720  10.979  10.414  0.5442  0.2487  0.8643
  205MOL0     C27603   3.609  11.035  10.484 -0.6211 -0.4780 -0.4651
  205MOL0     C27604   3.512  11.077  10.551 -0.0327  0.7193  0.0128
  205MOL0     C27605   4.395  10.740  10.493  0.2716 -0.2206 -0.4892
  205MOL0     C27606   4.516  10.791  10.545 -0.3402  0.3668 -0.5195
  205MOL0     C27607   4.647  10.721  10.511  0.2933  0.0784 -0.2557
  205MOL0     H27608   4.666  11.107  11.046 -0.5426  0.3224  0.2785
  205MOL0     H27609   4.837  11.249  11.134  0.2939  0.7054 -0.5025
  205MOL0     H27610   5.167  11.407  10.832  0.9275 -0.1007  0.8582
  205MOL0     H27611   5.030  11.499  10.876  0.6261  1.2145  0.1726
  205MOL0     H27612   5.136  11.616  11.043 -1.5287 -1.6816  0.2591
  205MOL0     H27613   5.241  11.620  10.910 -1.7949 -0.8731 -2.0609
  205MOL0     H27614   5.290  11.421  11.139  1.1033  1.5201  2.2485
  205MOL0     H27615   5.361  11.582  11.107  1.9316 -0.3775 -1.7218
  205MOL0     H27616   5.394  11.324  10.933 -3.0052  1.3899 -1.9475
  205MOL0     H27617   5.465  11.484  10.893  0.8988  1.7994  2.0068
  205MOL0     H27618   5.569  11.507  11.103  0.9953  0.0408 -2.4780
  205MOL0     H27619   5.503  11.349  11.163 -1.4495 -1.5781 -1.7053
  205MOL0     H27620   5.638  11.242  11.018  1.3472 -0.6914  1.4306
  205MOL0     H27621   5.663  11.371  10.904 -0.1343 -0.6931  0.9886
  205MOL0     H27622   5.774  11.382  11.181  0.4820 -1.6964 -0.4575
  205MOL0     H27623   5.781  11.507  11.056  1.3181 -0.0782 -1.6008
  205MOL0     H27624   5.944  11.242  11.033  1.0648  1.4092  0.7892
  205MOL0     H27625   5.909  11.368  10.905  1.2949  1.1935  0.2365
  205MOL0     H27626   6.019  11.404  11.293 -0.0521  1.2347  0.8430
  205MOL0     H27627   6.351  11.595  11.304 -1.2068  3.0227 -0.1664
  205MOL0     H27628   6.181  11.608  11.377 -0.4428 -1.8202  0.2069
  205MOL0     H27629   6.179  11.384  11.446 -0.5112 -1.0915 -3.0651
  205MOL0     H27630   6.319  11.344  11.348 -0.4833 -0.5482 -0.2553
  205MOL0     H27631   6.324  11.509  11.613 -0.0285 -2.6578  1.6964
  205MOL0     H27632   6.469  11.498  11.509  0.2842 -0.1999  4.1125
  205MOL0     H27633   6.477  11.259  11.528 -0.7189 -0.5705  0.8272
  205MOL0     H27634   6.320  11.254  11.606 -3.6439  3.2505 -4.9262
  205MOL0     H27635   6.565  11.105  11.755 -1.3441 -0.0737 -2.3926
  205MOL0     H27636   6.805  11.030  11.723  2.7144  1.6119  2.3306
  205MOL0     H27637   7.103  10.847  11.487 -1.0739  1.0462 -0.5034
  205MOL0     H27638   7.327  10.743  11.473 -0.3190  0.0282 -0.0239
  205MOL0     H27639   7.728  10.889  11.556 -1.7815  1.6861 -0.2065
  205MOL0     H27640   7.654  10.890  11.721  1.0213 -0.3148  0.3861
  205MOL0     H27641   7.675  10.638  11.719  0.3323  4.0441  2.3143
  205MOL0     H27642   7.700  10.624  11.548  1.8950 -2.0327 -1.0012
  205MOL0     H27643   7.919  10.755  11.586 -0.4564  3.0102  1.3544
  205MOL0     H27644   7.892  10.731  11.753  2.0158  2.2536 -2.0963
  205MOL0     H27645   7.899  10.494  11.567  0.5568 -0.1463 -0.3104
  205MOL0     H27646   7.922  10.496  11.745  1.1169  2.3064  1.8111
  205MOL0     H27647   8.124  10.647  11.715  0.6293 -1.0460  0.0826
  205MOL0     H27648   8.105  10.625  11.532  1.7600  0.0679 -1.2333
  205MOL0     H27649   8.149  10.407  11.749  3.2559 -3.3685  0.2087
  205MOL0     H27650   8.147  10.379  11.576 -0.6174  1.4166 -2.1121
  205MOL0     H27651   8.381  10.376  11.608  1.0476 -0.7691  2.2535
  205MOL0     H27652   8.373  10.518  11.723 -1.5925  1.0189  0.3189
  205MOL0     H27653   8.310  10.556  11.432  0.3421 -1.1290  0.1412
  205MOL0     H27654   8.353  10.680  11.556  0.9306  0.7301 -0.4051
  205MOL0     H27655   7.482  11.036  11.740 -0.0097  0.2432 -0.7683
  205MOL0     H27656   7.253  11.103  11.786 -1.3120 -2.0419  2.0978
  205MOL0     H27657   6.912  11.443  11.658 -0.5040 -0.3897 -1.2215
  205MOL0     H27658   6.660  11.500  11.691  1.7251  1.2184 -1.4739
  205MOL0     H27659   5.008  11.302  10.747  1.8912 -0.4030  1.6320
  205MOL0     H27660   4.806  11.196  10.644  2.2157 -2.3682 -0.8080
  205MOL0     H27661   4.379  11.052  10.722  1.5555 -0.9668  0.8834
  205MOL0     H27662   4.187  10.956  10.643  0.0917 -1.0996  2.9762
  205MOL0     H27663   4.053  10.785  10.627  1.2024  3.5148 -0.6270
  205MOL0     H27664   3.969  10.693  10.499 -1.5927  0.4162  0.2265
  205MOL0     H27665   3.967  10.923  10.364  4.5064  2.9400  0.2653
  205MOL0     H27666   4.001  10.999  10.523  1.8919  0.6620 -2.6500
  205MOL0     H27667   3.811  10.946  10.612  0.3787  1.2261 -0.7876
  205MOL0     H27668   3.771  10.795  10.521 -0.1707 -0.0267  0.9707
  205MOL0     H27669   3.780  11.061  10.371 -1.1551 -0.3241 -3.0768
  205MOL0     H27670   3.691  10.914  10.331 -0.5561  1.9569 -0.1681
  205MOL0     H27671   3.430  11.104  10.615 -1.3734 -1.8108 -0.5308
  205MOL0     H27672   4.403  10.653  10.429  1.9481 -1.0117  0.7169
  205MOL0     H27673   4.697  10.689  10.603 -1.5639 -1.8665  0.1865
  205MOL0     H27674   4.616  10.626  10.466 -0.9700 -0.0857  0.8892
  205MOL0     H27675   4.710  10.783  10.447  0.9349  1.3240  1.5032
  206MOL0     O27676   1.464   0.103   5.584  0.6273  0.2719  0.2764
  206MOL0     C27677   1.516  -0.009   5.568  0.6843 -0.7133  0.7322
  206MOL0     O27678   1.649  -0.020   5.541  0.3452  0.0896 -0.6365
  206MOL0     C27679   1.752   0.067   5.567  1.2464  0.0564  0.6150
  206MOL0     C27680   1.742   0.173   5.664  0.2175  0.5855 -0.1434
  206MOL0     C27681   1.856   0.243   5.699  0.3212 -0.6743  0.4158
  206MOL0     C27682   1.982   0.219   5.644  0.2137  0.4007 -0.1296
  206MOL0     O27683   2.101   0.283   5.677 -0.3887 -0.2645  0.2374
  206MOL0     C27684   2.100   0.348   5.812  0.0350  0.2909  0.4095
  206MOL0     C27685   2.239   0.363   5.875  0.1197 -0.4016  0.1254
  206MOL0     C27686   2.330   0.470   5.809 -0.3809 -0.3903 -0.8761
  206MOL0     C27687   2.468   0.469   5.872  1.0532 -0.3157 -0.1086
  206MOL0     C27688   2.568   0.576   5.809 -0.0590  0.7952  0.4034
  206MOL0     C27689   2.706   0.579   5.888 -0.3380 -0.1827 -0.2523
  206MOL0     C27690   2.783   0.693   5.827  0.4516 -0.5816  0.6072
  206MOL0     C27691   2.925   0.717   5.876 -0.0874 -0.7201 -0.2845
  206MOL0     N27692   2.992   0.825   5.806  0.5024  0.1962  0.3543
  206MOL0     C27693   3.100   0.807   5.732  0.1200 -0.1261  0.3569
  206MOL0     C27694   3.112   0.929   5.670  0.4355 -0.0220 -0.1491
  206MOL0     C27695   3.221   0.971   5.569 -0.0601 -0.0997 -0.6330
  206MOL0     C27696   3.350   1.041   5.625  0.5789  0.1977  0.1746
  206MOL0     C27697   3.317   1.174   5.688 -0.0195  0.1331  0.7338
  206MOL0     C27698   3.438   1.260   5.734  0.3033  0.1892 -0.8084
  206MOL0     O27699   3.478   1.333   5.616 -0.1549 -0.5984  0.6955
  206MOL0     C27700   3.598   1.402   5.617  0.0288  0.2321 -0.1263
  206MOL0     C27701   3.656   1.445   5.733 -0.1217  0.6311 -1.1319
  206MOL0     C27702   3.774   1.513   5.750  0.1443  0.2983  0.1286
  206MOL0     C27703   3.846   1.548   5.642 -0.1527  0.3193  1.0521
  206MOL0     C27704   3.976   1.614   5.652  0.8157 -0.4501  0.2807
  206MOL0     O27705   4.027   1.619   5.772  0.4367  0.9236 -0.2874
  206MOL0     C27706   4.161   1.642   5.779 -0.4427  0.3689  0.4621
  206MOL0     C27707   4.230   1.752   5.736 -0.0308 -0.1849  0.1186
  206MOL0     C27708   4.372   1.760   5.773 -0.2669 -1.0376 -0.2663
  206MOL0     C27709   4.448   1.645   5.813  0.6621 -0.3845 -0.2694
  206MOL0     O27710   4.588   1.648   5.816 -0.3615  0.0122 -0.1324
  206MOL0     C27711   4.647   1.720   5.704 -0.0540  0.0411 -0.2993
  206MOL0     C27712   4.782   1.648   5.703  0.9669 -0.1359 -0.5257
  206MOL0     C27713   4.878   1.686   5.576  0.3031 -0.0102  0.3037
  206MOL0     C27714   5.010   1.611   5.585 -1.1403 -0.5207 -0.0124
  206MOL0     C27715   5.117   1.662   5.490 -0.0279 -0.1243 -1.4501
  206MOL0     C27716   5.237   1.569   5.488 -0.1072 -0.4133  0.5064
  206MOL0     C27717   5.360   1.620   5.412 -0.1177  0.0001 -0.8488
  206MOL0     C27718   5.469   1.509   5.402  0.7863  0.1440  0.4640
  206MOL0    Cl27719   5.594   1.560   5.287  0.3190  0.0977  0.3799
  206MOL0     C27720   4.378   1.530   5.843 -0.5207 -0.7421  0.0085
  206MOL0     C27721   4.239   1.533   5.832 -0.2516 -0.0931  0.3696
  206MOL0     O27722   4.036   1.634   5.545  0.0405 -0.0256  0.4596
  206MOL0     C27723   3.780   1.523   5.515  0.1693 -0.2860 -0.2169
  206MOL0     C27724   3.653   1.451   5.500  0.0011 -1.5565  0.1687
  206MOL0     N27725   3.021   1.018   5.719  0.1117 -0.1664  0.1587
  206MOL0     N27726   2.963   0.955   5.814 -0.9806  0.0380  0.6508
  206MOL0     C27727   1.984   0.117   5.544 -0.3220  0.2165  0.5823
  206MOL0     C27728   1.872   0.037   5.510 -0.2162 -0.5168 -0.9441
  206MOL0     C27729   1.429  -0.124   5.589  0.1321  0.2067  0.7203
  206MOL0     C27730   1.484  -0.249   5.548  0.6371 -0.5034 -0.4282
  206MOL0     C27731   1.419  -0.372   5.571  0.7628 -0.5108  0.1021
  206MOL0     C27732   1.280  -0.369   5.621 -0.2106  0.3793  0.2232
  206MOL0     O27733   1.202  -0.482   5.642 -0.4009 -0.2791 -0.4193
  206MOL0     C27734   1.258  -0.610   5.645 -0.5942 -0.4141  0.0510
  206MOL0     C27735   1.153  -0.714   5.646 -0.8178  0.6781  0.4800
  206MOL0     C27736   1.068  -0.726   5.528  1.1912  0.1346  0.2773
  206MOL0     C27737   1.120  -0.834   5.429  0.3345 -0.0882 -0.5897
  206MOL0     C27738   1.016  -0.846   5.328 -1.3427  0.2587 -0.9959
  206MOL0     C27739   0.934  -0.862   5.241  0.1556  0.0234  0.4134
  206MOL0     C27740   1.227  -0.249   5.646  0.2049 -0.0535 -0.3450
  206MOL0     C27741   1.297  -0.122   5.630 -0.3432  0.8417 -0.6147
  206MOL0     C27742   1.222  -0.000   5.667 -0.3252 -0.5623 -0.7958
  206MOL0     H27743   1.649   0.180   5.720 -0.9215 -1.6327 -1.6124
  206MOL0     H27744   1.836   0.309   5.783 -2.9923 -0.9771 -0.0030
  206MOL0     H27745   2.043   0.441   5.799  0.0259 -0.0432 -2.3970
  206MOL0     H27746   2.039   0.285   5.878 -0.4364  0.9173  0.5853
  206MOL0     H27747   2.278   0.261   5.879 -0.9916 -0.7987  2.1419
  206MOL0     H27748   2.237   0.408   5.974  1.1868  2.3336 -0.9776
  206MOL0     H27749   2.297   0.570   5.837  0.8271 -0.8433  2.7085
  206MOL0     H27750   2.331   0.468   5.700 -1.1646  1.0357 -0.9248
  206MOL0     H27751   2.457   0.490   5.979 -1.2749  1.1092 -0.5433
  206MOL0     H27752   2.518   0.372   5.869  2.4459  0.3813 -0.6650
  206MOL0     H27753   2.589   0.546   5.705 -0.2848  0.9592  0.3095
  206MOL0     H27754   2.515   0.671   5.803 -2.0865 -0.2774  0.3904
  206MOL0     H27755   2.675   0.596   5.992 -0.6040 -1.1480 -0.1545
  206MOL0     H27756   2.768   0.489   5.882  0.6810  0.4407  0.6120
  206MOL0     H27757   2.727   0.787   5.832 -0.6061 -1.1790  0.3474
  206MOL0     H27758   2.790   0.684   5.718  0.7508  0.1194  0.5578
  206MOL0     H27759   2.920   0.734   5.984 -0.2506 -0.4442 -0.3357
  206MOL0     H27760   2.985   0.627   5.857  1.8220  0.8904 -2.5421
  206MOL0     H27761   3.151   0.717   5.699  1.6801  0.4690  1.0501
  206MOL0     H27762   3.257   0.881   5.518 -1.5521 -0.7056 -0.6760
  206MOL0     H27763   3.168   1.037   5.499 -1.8635 -0.8854 -0.0620
  206MOL0     H27764   3.403   0.975   5.694 -0.0778 -0.0040  0.4928
  206MOL0     H27765   3.415   1.061   5.540  0.9005 -1.8328 -0.1075
  206MOL0     H27766   3.262   1.152   5.780  0.5716 -0.9017  0.8500
  206MOL0     H27767   3.236   1.226   5.635 -3.3981 -1.0543  4.2427
  206MOL0     H27768   3.499   1.185   5.785 -2.5012 -1.5803  0.2318
  206MOL0     H27769   3.419   1.338   5.807  3.1396  0.6045 -0.4017
  206MOL0     H27770   3.610   1.426   5.830 -0.6252 -2.1963 -1.8321
  206MOL0     H27771   3.798   1.539   5.853  1.6296  4.8780 -1.1338
  206MOL0     H27772   4.175   1.828   5.681 -0.8932 -1.4827 -0.8765
  206MOL0     H27773   4.419   1.855   5.753  0.6339 -1.8006 -2.0584
  206MOL0     H27774   4.584   1.714   5.615 -0.5532 -0.4540  0.0758
  206MOL0     H27775   4.661   1.827   5.721 -1.9656  0.3587 -0.5227
  206MOL0     H27776   4.838   1.671   5.795  0.1262 -0.3628  0.0581
  206MOL0     H27777   4.762   1.541   5.700 -0.0731  0.0447 -0.3892
  206MOL0     H27778   4.834   1.653   5.482  2.2717  2.3732 -1.5748
  206MOL0     H27779   4.881   1.794   5.562 -2.2738 -0.0513 -1.1523
  206MOL0     H27780   4.995   1.506   5.555 -0.7069 -1.7111  3.4415
  206MOL0     H27781   5.047   1.613   5.688  1.3050 -1.8925 -0.7802
  206MOL0     H27782   5.143   1.760   5.534 -2.1390 -1.2897  3.0169
  206MOL0     H27783   5.083   1.675   5.387  1.0979  1.0309 -1.7071
  206MOL0     H27784   5.269   1.551   5.591  1.9308  1.5322  0.2876
  206MOL0     H27785   5.202   1.479   5.436 -1.6170  0.1548  0.4808
  206MOL0     H27786   5.409   1.707   5.456 -0.3129 -0.8530  1.1290
  206MOL0     H27787   5.331   1.633   5.307 -1.6580 -2.5097 -0.8145
  206MOL0     H27788   5.515   1.492   5.500  0.3759  0.5205  0.7277
  206MOL0     H27789   5.429   1.413   5.368  1.6585 -0.2562  0.5459
  206MOL0     H27790   4.433   1.442   5.873  1.8767 -0.2707 -2.5328
  206MOL0     H27791   4.185   1.444   5.861 -0.1317  0.1328  1.3234
  206MOL0     H27792   3.828   1.569   5.429  1.0812  1.3308  1.1038
  206MOL0     H27793   3.599   1.445   5.407 -2.3654  0.6014  1.3065
  206MOL0     H27794   2.079   0.090   5.499 -0.0027  0.3704  1.1517
  206MOL0     H27795   1.891  -0.054   5.455 -0.9334 -0.6892 -0.9110
  206MOL0     H27796   1.585  -0.258   5.511  0.4776 -3.7282 -0.3358
  206MOL0     H27797   1.466  -0.470   5.564 -0.7196 -1.4704  2.3955
  206MOL0     H27798   1.322  -0.624   5.732  2.6162  2.8688 -1.5002
  206MOL0     H27799   1.331  -0.619   5.564  1.4490  2.8768  1.3440
  206MOL0     H27800   1.096  -0.696   5.738  0.5764 -0.7409  1.6871
  206MOL0     H27801   1.201  -0.812   5.658 -1.2778 -0.1283 -3.2101
  206MOL0     H27802   1.065  -0.633   5.470 -0.2903  1.3513  2.1849
  206MOL0     H27803   0.964  -0.748   5.552  0.3270  2.7092 -0.7741
  206MOL0     H27804   1.210  -0.803   5.374 -1.5655  1.8807 -2.7926
  206MOL0     H27805   1.142  -0.922   5.491  0.8307  0.0160 -0.6156
  206MOL0     H27806   0.861  -0.887   5.166 -1.9445  2.0391  1.6377
  206MOL0     H27807   1.124  -0.256   5.679  0.6581 -1.5511  0.9035
  206MOL0     H27808   1.280   0.054   5.742 -0.5806  0.7238 -1.5064
  206MOL0     H27809   1.225   0.055   5.573  0.9693 -1.2086 -1.1555
  206MOL0     H27810   1.117  -0.015   5.692 -0.0294 -0.8481  0.3167
  207MOL0     O27811   0.396  10.502  11.134 -0.1673  0.5777  0.0574
  207MOL0     C27812   0.359  10.619  11.129 -0.3601  0.6459  0.0291
  207MOL0     O27813   0.226  10.654  11.099 -0.0741  0.1949  1.1423
  207MOL0     C27814   0.116  10.573  11.113  1.2245  0.5264  0.1295
  207MOL0     C27815   0.090  10.456  11.039  0.2992  0.7398 -0.1015
  207MOL0     C27816  -0.036  10.394  11.053  0.3324 -0.0677 -0.0591
  207MOL0     C27817  -0.133  10.439  11.142 -0.0680 -0.6737 -0.0728
  207MOL0     O27818  -0.250  10.362  11.149  0.1992 -0.1805 -0.3458
  207MOL0     C27819  -0.370  10.437  11.154 -0.3646 -0.0890 -0.2766
  207MOL0     C27820  -0.485  10.352  11.094  0.4546  0.2466  0.2295
  207MOL0     C27821  -0.465  10.297  10.952  0.2308 -0.1402 -0.5770
  207MOL0     C27822  -0.428  10.406  10.854 -0.9163 -0.0560 -0.0759
  207MOL0     C27823  -0.385  10.337  10.727 -0.0290 -0.3624  0.3770
  207MOL0     C27824  -0.390  10.438  10.608 -0.7866 -0.9062 -0.2472
  207MOL0     C27825  -0.532  10.454  10.562  0.2574  0.0515  0.0920
  207MOL0     C27826  -0.546  10.544  10.431  0.2905  0.1094 -0.7703
  207MOL0     N27827  -0.475  10.675  10.454  0.1263 -0.4876  0.3325
  207MOL0     C27828  -0.498  10.755  10.560  0.1901  0.4391 -1.1056
  207MOL0     C27829  -0.411  10.854  10.542 -0.3365 -0.5811  0.6419
  207MOL0     C27830  -0.423  10.982  10.629 -0.4034 -0.1684  0.4149
  207MOL0     C27831  -0.353  11.110  10.575 -0.9766  0.6382  1.1666
  207MOL0     C27832  -0.392  11.234  10.659 -0.0659 -0.4070  0.8664
  207MOL0     C27833  -0.319  11.356  10.609 -0.1286  0.1555 -0.1674
  207MOL0     O27834  -0.178  11.329  10.614  0.5568  0.3484 -0.7695
  207MOL0     C27835  -0.088  11.418  10.560  0.7001  0.9022 -0.6106
  207MOL0     C27836  -0.112  11.553  10.529  0.2019  0.3008  0.1958
  207MOL0     C27837  -0.004  11.618  10.469 -0.8698 -1.3448 -0.9151
  207MOL0     C27838   0.126  11.571  10.454  0.1663  0.2981 -0.5687
  207MOL0     C27839   0.231  11.658  10.404  0.0753 -0.1590 -0.3840
  207MOL0     O27840   0.207  11.788  10.382 -0.3728  0.3844 -0.3649
  207MOL0     C27841   0.298  11.875  10.328 -0.8756 -0.8627 -0.4795
  207MOL0     C27842   0.257  12.008  10.323  0.4153 -0.0360  0.3988
  207MOL0     C27843   0.328  12.120  10.282  0.5131 -0.0164 -0.5803
  207MOL0     C27844   0.463  12.101  10.254  0.4086  0.9282 -0.2577
  207MOL0     O27845   0.540  12.216  10.238  0.9102  0.1950 -0.3360
  207MOL0     C27846   0.674  12.195  10.217  0.2433  0.4128 -1.1188
  207MOL0     C27847   0.752  12.327  10.208 -0.0259 -0.8169  0.1898
  207MOL0     C27848   0.884  12.289  10.138 -0.4044 -0.0707  1.1315
  207MOL0     C27849   1.003  12.311  10.221  0.1388  0.0010 -1.2100
  207MOL0     C27850   1.140  12.263  10.143  0.1788  0.7178  0.0481
  207MOL0     C27851   1.262  12.302  10.229 -0.8768 -0.4574  0.1921
  207MOL0     C27852   1.394  12.250  10.162 -0.9133  0.4077 -0.7546
  207MOL0     C27853   1.519  12.288  10.245 -0.5186  0.4476 -0.2109
  207MOL0    Cl27854   1.566  12.452  10.193  0.3781  0.2285  0.3879
  207MOL0     C27855   0.515  11.968  10.259 -0.6872  0.5575  0.1684
  207MOL0     C27856   0.434  11.859  10.301  0.2949 -0.3103  0.2872
  207MOL0     O27857   0.337  11.597  10.390  0.4981  1.0418 -0.3277
  207MOL0     C27858   0.143  11.438  10.480  0.8708  0.3527 -0.0945
  207MOL0     C27859   0.039  11.361  10.542  0.0544  0.0053  0.1190
  207MOL0     N27860  -0.340  10.828  10.429 -1.4597 -0.1648  0.4414
  207MOL0     N27861  -0.380  10.724  10.372  0.4322 -0.4108 -0.9246
  207MOL0     C27862  -0.107  10.558  11.219  1.6604  0.2658  0.6432
  207MOL0     C27863   0.017  10.623  11.204 -0.4436  1.0421 -0.2019
  207MOL0     C27864   0.451  10.731  11.145  0.5654 -0.1204  0.0856
  207MOL0     C27865   0.404  10.850  11.079  0.4013  0.6292 -0.2491
  207MOL0     C27866   0.488  10.960  11.090 -0.1919  0.2889 -0.1572
  207MOL0     C27867   0.611  10.963  11.148 -0.1478 -0.7285  0.3218
  207MOL0     O27868   0.685  11.076  11.165 -0.1335  0.5095  0.4942
  207MOL0     C27869   0.820  11.071  11.099  0.5026  0.5451 -0.1040
  207MOL0     C27870   0.811  11.004  10.962  0.3079 -0.4458 -0.7272
  207MOL0     C27871   0.931  11.033  10.864 -0.1350  0.3258 -0.3569
  207MOL0     C27872   0.994  10.907  10.799  0.3443 -0.1306 -0.1380
  207MOL0     C27873   1.126  10.939  10.743 -0.3469  0.6073 -0.6458
  207MOL0     C27874   1.236  10.942  10.698  0.2138 -0.0423  0.0184
  207MOL0     C27875   0.656  10.847  11.202  0.5831 -0.3492 -0.0045
  207MOL0     C27876   0.571  10.728  11.213  0.0718  0.2848 -0.6920
  207MOL0     C27877   0.628  10.602  11.283  0.0039 -0.9317 -0.0506
  207MOL0     H27878   0.156  10.432  10.957 -0.1432  0.2679 -0.3246
  207MOL0     H27879  -0.063  10.301  11.004 -0.3584 -2.3146  4.0695
  207MOL0     H27880  -0.390  10.447  11.261  0.8936 -0.0888 -0.0274
  207MOL0     H27881  -0.372  10.536  11.106 -1.2738 -1.1466 -2.6036
  207MOL0     H27882  -0.575  10.413  11.110  1.2566  0.9199  2.4402
  207MOL0     H27883  -0.504  10.271  11.165 -1.3207  1.9031  1.7667
  207MOL0     H27884  -0.553  10.245  10.915  1.1354 -0.9885 -1.6361
  207MOL0     H27885  -0.389  10.219  10.964 -1.2865 -1.2651  3.1028
  207MOL0     H27886  -0.512  10.476  10.855 -1.7607 -0.8404  4.2927
  207MOL0     H27887  -0.339  10.453  10.898 -1.7838  0.5819  1.0388
  207MOL0     H27888  -0.290  10.283  10.728 -0.1450 -0.7245 -2.0528
  207MOL0     H27889  -0.454  10.258  10.697 -0.2887 -0.5316  1.3878
  207MOL0     H27890  -0.346  10.532  10.642  0.9993 -0.4931 -3.2868
  207MOL0     H27891  -0.330  10.388  10.531  0.4773 -0.8278  0.6585
  207MOL0     H27892  -0.587  10.500  10.645 -1.9311 -1.8997 -0.2048
  207MOL0     H27893  -0.574  10.354  10.550  0.3792 -0.3034  2.1832
  207MOL0     H27894  -0.492  10.486  10.356  0.7723  2.8224 -2.6509
  207MOL0     H27895  -0.650  10.546  10.398 -0.2984 -3.6846  0.3567
  207MOL0     H27896  -0.576  10.750  10.635  3.7155  0.3005  2.9843
  207MOL0     H27897  -0.529  11.006  10.642 -1.0389 -1.8225 -1.2385
  207MOL0     H27898  -0.372  10.966  10.725  0.3105 -0.9000 -0.0780
  207MOL0     H27899  -0.244  11.095  10.573 -0.6693  2.6698  1.1427
  207MOL0     H27900  -0.383  11.124  10.471  3.7288  0.6900 -0.4338
  207MOL0     H27901  -0.357  11.210  10.760  2.1625  1.2714  0.5742
  207MOL0     H27902  -0.500  11.244  10.653 -0.0280  0.2169  1.1282
  207MOL0     H27903  -0.330  11.439  10.680  1.8975 -0.3115  0.7680
  207MOL0     H27904  -0.350  11.392  10.511 -0.2973  1.5710  0.3705
  207MOL0     H27905  -0.208  11.603  10.536  0.8837  1.6502  0.2994
  207MOL0     H27906  -0.026  11.723  10.451 -0.4670 -1.2105 -0.6362
  207MOL0     H27907   0.154  12.028  10.351  1.0292  2.9435  0.8770
  207MOL0     H27908   0.276  12.215  10.284 -2.2122 -1.4088  1.6086
  207MOL0     H27909   0.715  12.136  10.300  2.1375 -1.2408 -3.1078
  207MOL0     H27910   0.683  12.133  10.127 -1.3804 -1.4039 -0.0955
  207MOL0     H27911   0.694  12.401  10.152 -2.5828 -2.2187  0.8256
  207MOL0     H27912   0.769  12.366  10.308  1.6850  0.1111 -0.4293
  207MOL0     H27913   0.883  12.181  10.117 -3.0541 -0.2980  1.9745
  207MOL0     H27914   0.894  12.346  10.045  0.4821 -3.0142 -0.7287
  207MOL0     H27915   0.998  12.251  10.312  3.8589 -1.1630 -1.5812
  207MOL0     H27916   1.015  12.418  10.242  1.3665 -0.5441  1.3266
  207MOL0     H27917   1.138  12.308  10.043  0.4192 -1.0252 -0.7840
  207MOL0     H27918   1.135  12.156  10.122 -2.4980 -0.0686  3.6787
  207MOL0     H27919   1.272  12.411  10.225  1.4538 -0.6398 -0.9541
  207MOL0     H27920   1.246  12.280  10.335 -0.4121 -2.0562 -0.0411
  207MOL0     H27921   1.399  12.308  10.069  0.3623  1.2834 -0.1572
  207MOL0     H27922   1.386  12.142  10.144  2.0298 -0.3686  1.8445
  207MOL0     H27923   1.511  12.270  10.353 -1.9131  1.9949 -0.0077
  207MOL0     H27924   1.606  12.226  10.222  0.5843 -0.9401  5.8101
  207MOL0     H27925   0.622  11.955  10.257 -0.5537  1.0771  2.1417
  207MOL0     H27926   0.481  11.763  10.322  3.4037  1.2360  1.0658
  207MOL0     H27927   0.240  11.390  10.476  0.1810 -1.0211 -0.7656
  207MOL0     H27928   0.043  11.253  10.552  1.1334 -0.0508 -0.6233
  207MOL0     H27929  -0.181  10.575  11.297  3.4213 -1.0386  2.7197
  207MOL0     H27930   0.044  10.716  11.254  1.7466 -0.7983  2.3439
  207MOL0     H27931   0.307  10.839  11.033 -0.6129 -0.1029  1.9424
  207MOL0     H27932   0.467  11.059  11.051  0.1106  0.9967  1.4150
  207MOL0     H27933   0.884  11.010  11.164 -0.7538  0.8022  1.4630
  207MOL0     H27934   0.864  11.170  11.092 -0.2806  0.7939 -2.1774
  207MOL0     H27935   0.721  11.036  10.908  1.1592  2.9770 -0.3794
  207MOL0     H27936   0.798  10.895  10.966 -1.0713 -0.2633  2.3812
  207MOL0     H27937   1.009  11.083  10.922  1.1876 -0.2193 -1.6051
  207MOL0     H27938   0.897  11.098  10.783 -1.8461 -1.4830 -1.1888
  207MOL0     H27939   1.009  10.844  10.888 -2.3641  3.8818  3.5930
  207MOL0     H27940   0.937  10.857  10.720  2.0277 -0.0182 -1.4833
  207MOL0     H27941   1.339  10.939  10.669 -0.0271 -0.7398 -0.8151
  207MOL0     H27942   0.754  10.838  11.248  0.4110 -0.3446  0.3708
  207MOL0     H27943   0.697  10.639  11.359 -1.8265  0.2018  1.1488
  207MOL0     H27944   0.556  10.541  11.338  0.4959 -1.4394  0.0397
  207MOL0     H27945   0.671  10.533  11.210  1.1638 -0.6708  0.3744
  208MOL0     O27946   8.470   4.224   4.233  0.0961  0.2278 -0.1006
  208MOL0     C27947   8.469   4.203   4.112  0.5524  0.0478  0.3107
  208MOL0     O27948   8.360   4.224   4.027  0.0103 -0.3733  0.2490
  208MOL0     C27949   8.236   4.224   4.084  0.6663  0.0789  0.2400
  208MOL0     C27950   8.173   4.108   4.128 -0.0327  0.2527  0.4462
  208MOL0     C27951   8.040   4.112   4.175  0.1353 -0.0263  0.1634
  208MOL0     C27952   7.968   4.228   4.178  0.2234  0.4730  0.5562
  208MOL0     O27953   7.848   4.219   4.243  0.1480  0.5785  0.8242
  208MOL0     C27954   7.788   4.337   4.281  0.8096 -0.3171 -1.0373
  208MOL0     C27955   7.676   4.318   4.388  0.8019 -0.3882  0.2162
  208MOL0     C27956   7.725   4.244   4.507 -0.4339 -0.1374  0.2409
  208MOL0     C27957   7.637   4.248   4.638  0.2389  0.4901  0.1773
  208MOL0     C27958   7.719   4.171   4.750 -0.1888  0.2593  0.9245
  208MOL0     C27959   7.806   4.271   4.837  0.6228  1.1107 -0.0968
  208MOL0     C27960   7.901   4.178   4.917  0.4996  0.9467  0.3477
  208MOL0     C27961   7.988   4.263   5.012 -0.2810 -0.6691  0.1792
  208MOL0     N27962   8.055   4.179   5.113 -0.1046 -0.0173  0.6244
  208MOL0     C27963   8.059   4.193   5.250  0.4982 -0.1206  0.7971
  208MOL0     C27964   8.163   4.121   5.302 -0.3172  0.6482 -0.0398
  208MOL0     C27965   8.209   4.121   5.444  0.5725 -0.5048  0.0149
  208MOL0     C27966   8.364   4.153   5.453  0.1844  0.7574 -0.7855
  208MOL0     C27967   8.410   4.165   5.601  0.5179 -0.1132 -1.0337
  208MOL0     C27968   8.546   4.241   5.612  0.5929  0.6227  1.4035
  208MOL0     O27969   8.584   4.252   5.749  0.5340  0.1407 -0.6350
  208MOL0     C27970   8.706   4.308   5.771 -0.4103 -0.6542 -0.4115
  208MOL0     C27971   8.814   4.314   5.672 -0.4748  0.2215 -0.2363
  208MOL0     C27972   8.942   4.354   5.723  1.1458  0.2189 -0.0488
  208MOL0     C27973   8.962   4.409   5.853 -0.1258  0.0314  0.5589
  208MOL0     C27974   9.088   4.481   5.893  0.1510  0.9109 -0.8395
  208MOL0     O27975   9.154   4.527   5.785 -0.0056  0.2495  0.8208
  208MOL0     C27976   9.265   4.606   5.786 -0.8314  0.1512  0.0186
  208MOL0     C27977   9.311   4.621   5.657  0.0253  0.2430 -0.1623
  208MOL0     C27978   9.435   4.686   5.633 -0.3382  0.3554 -0.1769
  208MOL0     C27979   9.509   4.742   5.738 -0.1239 -0.5917  0.1146
  208MOL0     O27980   9.624   4.823   5.708 -0.0896  0.3103  0.2103
  208MOL0     C27981   9.716   4.854   5.810  0.8697 -0.3649 -0.6762
  208MOL0     C27982   9.856   4.894   5.762 -0.9593 -0.3188 -0.4933
  208MOL0     C27983   9.945   4.936   5.878  1.5370 -0.3307  0.4704
  208MOL0     C27984   9.975   4.830   5.989 -0.8072  0.0877 -0.6782
  208MOL0     C27985  10.108   4.860   6.056 -0.0699 -0.2449  0.5087
  208MOL0     C27986  10.129   4.998   6.111  0.3059  0.1120 -0.0736
  208MOL0     C27987  10.055   5.001   6.246  0.4029 -0.2605 -0.2464
  208MOL0     C27988  10.124   5.111   6.326  0.6406  0.7006  0.0018
  208MOL0    Cl27989  10.283   5.093   6.392 -0.6714  0.1697  0.1063
  208MOL0     C27990   9.456   4.725   5.872  0.9362  0.3667  0.4149
  208MOL0     C27991   9.342   4.648   5.891 -0.3241 -0.1048  0.1824
  208MOL0     O27992   9.118   4.509   6.010  0.6314 -0.0616  0.3586
  208MOL0     C27993   8.850   4.419   5.935 -0.3842  0.2973  0.3492
  208MOL0     C27994   8.728   4.361   5.902 -0.8331 -0.2668 -0.0528
  208MOL0     N27995   8.223   4.063   5.190  0.5682  0.3817 -0.1859
  208MOL0     N27996   8.153   4.095   5.073 -0.3631 -0.9640 -0.3226
  208MOL0     C27997   8.026   4.343   4.124 -0.2531 -0.2364  0.2709
  208MOL0     C27998   8.162   4.342   4.083 -0.4960 -0.0639  0.3058
  208MOL0     C27999   8.603   4.173   4.050 -0.0948  0.5772 -0.9524
  208MOL0     C28000   8.628   4.228   3.919 -0.9184 -0.3772  0.1627
  208MOL0     C28001   8.744   4.195   3.850 -1.0115  1.0176  0.0580
  208MOL0     C28002   8.852   4.123   3.913 -0.7573 -0.2936  0.2123
  208MOL0     O28003   8.962   4.099   3.829  0.8768 -0.4671  0.1130
  208MOL0     C28004   9.072   4.026   3.890 -0.2099 -0.0462  0.1786
  208MOL0     C28005   9.083   3.885   3.846 -0.2278  0.0953 -0.2698
  208MOL0     C28006   9.196   3.820   3.923 -0.7369 -0.3304  0.3830
  208MOL0     C28007   9.224   3.670   3.898 -0.0709  0.0597 -0.5199
  208MOL0     C28008   9.275   3.599   4.016  0.0526  0.3289  0.0328
  208MOL0     C28009   9.301   3.536   4.119 -0.0338 -0.0773 -0.3885
  208MOL0     C28010   8.824   4.080   4.044 -0.2569 -0.8942 -0.7906
  208MOL0     C28011   8.709   4.108   4.122  0.1870  0.1606 -0.2859
  208MOL0     C28012   8.701   4.050   4.256  0.1487 -0.3521 -0.2098
  208MOL0     H28013   8.228   4.015   4.119 -1.9570 -0.7134 -3.8716
  208MOL0     H28014   7.990   4.030   4.226  0.5343  1.3668  2.9698
  208MOL0     H28015   7.862   4.397   4.334 -0.3741  1.4942 -1.3440
  208MOL0     H28016   7.747   4.396   4.199  1.5607  3.3521  1.0419
  208MOL0     H28017   7.587   4.267   4.349  0.7766 -0.4973  0.4192
  208MOL0     H28018   7.633   4.414   4.418  0.5742 -0.9254  1.6960
  208MOL0     H28019   7.829   4.268   4.533 -0.4671 -0.5753  0.8313
  208MOL0     H28020   7.744   4.139   4.482  1.5456 -0.4086  2.4244
  208MOL0     H28021   7.616   4.351   4.670  0.7137  1.3515 -2.0828
  208MOL0     H28022   7.543   4.194   4.624 -0.7953  1.7744  1.7735
  208MOL0     H28023   7.650   4.120   4.817 -1.3654  1.6279  0.8119
  208MOL0     H28024   7.785   4.099   4.702 -2.1267 -0.4868 -0.7901
  208MOL0     H28025   7.871   4.336   4.778  0.5552 -0.0697 -1.5409
  208MOL0     H28026   7.746   4.326   4.909  0.5287  0.5892  0.2288
  208MOL0     H28027   7.960   4.111   4.854  0.3774  0.9313  0.2481
  208MOL0     H28028   7.836   4.115   4.979 -0.0672  1.3475  0.1740
  208MOL0     H28029   8.064   4.309   4.948 -0.4937 -0.8889 -0.2427
  208MOL0     H28030   7.930   4.341   5.061  0.2000 -0.1273 -0.0971
  208MOL0     H28031   7.984   4.252   5.301 -0.7513 -1.0399  0.1072
  208MOL0     H28032   8.149   4.199   5.492 -1.6220 -1.1171 -1.6100
  208MOL0     H28033   8.173   4.022   5.472 -1.7793 -0.2998 -1.9529
  208MOL0     H28034   8.422   4.072   5.408 -0.3915  0.5893 -1.2395
  208MOL0     H28035   8.384   4.245   5.397  4.1587  0.3685 -0.3002
  208MOL0     H28036   8.404   4.069   5.653 -2.9787  1.2527  1.5015
  208MOL0     H28037   8.337   4.220   5.662  1.1074  2.1425 -2.2407
  208MOL0     H28038   8.534   4.336   5.559 -2.7443 -0.7547 -0.6165
  208MOL0     H28039   8.611   4.177   5.552  1.0957  0.9075  1.6405
  208MOL0     H28040   8.810   4.268   5.574  1.6918  1.0210 -0.7577
  208MOL0     H28041   9.022   4.358   5.649  2.3242 -2.3026  0.9733
  208MOL0     H28042   9.258   4.578   5.573 -1.9691  0.2628  1.0238
  208MOL0     H28043   9.462   4.669   5.529  0.1127  0.6714 -0.1128
  208MOL0     H28044   9.673   4.937   5.866  2.7126 -0.1483  0.5198
  208MOL0     H28045   9.730   4.765   5.872 -0.3936 -1.6172 -2.1280
  208MOL0     H28046   9.910   4.808   5.721  0.6098 -0.8171  2.3105
  208MOL0     H28047   9.832   4.984   5.705  0.3965 -0.0802 -0.7163
  208MOL0     H28048  10.037   4.968   5.827  0.0827  0.1508 -2.0069
  208MOL0     H28049   9.900   5.026   5.920 -0.2168 -1.9605  2.2770
  208MOL0     H28050   9.974   4.732   5.941  0.4127 -0.5172  0.4811
  208MOL0     H28051   9.897   4.831   6.066  1.2305 -0.8146  1.5212
  208MOL0     H28052  10.184   4.852   5.978  0.5198  0.3976  1.0058
  208MOL0     H28053  10.127   4.780   6.128 -3.3294 -0.3341  1.4221
  208MOL0     H28054  10.237   5.011   6.120  0.3966  0.6213 -1.5946
  208MOL0     H28055  10.096   5.080   6.047 -0.4876  0.8231  1.2221
  208MOL0     H28056  10.071   4.909   6.304 -1.5367  0.3908  1.4337
  208MOL0     H28057   9.948   5.021   6.242  0.8300  2.1600 -1.2700
  208MOL0     H28058  10.132   5.207   6.275 -1.6978  0.4914 -0.8857
  208MOL0     H28059  10.056   5.129   6.410  1.4864  0.6725  0.7141
  208MOL0     H28060   9.516   4.756   5.957  0.1719  0.8535  0.7900
  208MOL0     H28061   9.329   4.621   5.995  2.7714  0.8345  0.8963
  208MOL0     H28062   8.883   4.451   6.033  0.0408 -1.8944  0.9858
  208MOL0     H28063   8.647   4.366   5.974  0.1940  2.0515  1.0444
  208MOL0     H28064   7.981   4.442   4.127  0.1651 -0.0456  0.4273
  208MOL0     H28065   8.213   4.433   4.056 -0.6020 -0.1138 -0.0717
  208MOL0     H28066   8.554   4.297   3.880  0.9042  2.0420  0.7772
  208MOL0     H28067   8.764   4.223   3.747 -0.5935  1.3637  0.2307
  208MOL0     H28068   9.076   4.024   3.999  0.8402 -2.9492  0.1693
  208MOL0     H28069   9.164   4.078   3.862 -0.6656 -0.1198 -1.5676
  208MOL0     H28070   9.102   3.885   3.739  2.3071 -0.5551  0.1179
  208MOL0     H28071   8.984   3.838   3.854 -1.3681  2.1838 -1.2675
  208MOL0     H28072   9.178   3.837   4.029 -3.8482 -1.3289  0.1147
  208MOL0     H28073   9.292   3.868   3.902 -2.5221  4.7498  2.4017
  208MOL0     H28074   9.124   3.632   3.872  0.3121 -0.1611 -1.7154
  208MOL0     H28075   9.283   3.652   3.808 -3.2822 -4.9154 -2.0403
  208MOL0     H28076   9.323   3.483   4.209 -0.0962  0.0540 -0.2955
  208MOL0     H28077   8.899   4.021   4.097 -1.2070 -2.4221 -1.1046
  208MOL0     H28078   8.607   3.997   4.269 -0.6843  0.6724 -1.7297
  208MOL0     H28079   8.777   3.971   4.260 -0.7948 -1.4905 -2.7174
  208MOL0     H28080   8.723   4.131   4.326  2.0070  1.1825 -2.3989
  209MOL0     O28081   2.423   8.005   4.751 -0.8043  0.3863 -0.4216
  209MOL0     C28082   2.455   7.924   4.836  0.1586 -0.0149  0.3066
  209MOL0     O28083   2.565   7.852   4.830 -0.0388  0.4668 -0.2451
  209MOL0     C28084   2.653   7.877   4.724 -0.3703 -0.3155  0.0579
  209MOL0     C28085   2.642   7.791   4.612  0.0383 -0.6885 -0.5870
  209MOL0     C28086   2.725   7.804   4.508  0.8482 -0.5346  0.1747
  209MOL0     C28087   2.835   7.887   4.515 -0.6190 -0.8556  0.6039
  209MOL0     O28088   2.917   7.906   4.401 -0.0837 -0.1676  0.1047
  209MOL0     C28089   2.993   8.026   4.387  0.3892  0.6489 -0.5358
  209MOL0     C28090   3.073   8.023   4.256  0.2015  0.4548  0.3266
  209MOL0     C28091   3.185   7.919   4.268 -1.3807 -0.1825 -0.4388
  209MOL0     C28092   3.261   7.888   4.137 -0.0032  0.0110  0.5951
  209MOL0     C28093   3.417   7.916   4.145  0.1251 -0.3524 -0.7901
  209MOL0     C28094   3.497   7.846   4.033 -0.2887 -0.3998  0.1007
  209MOL0     C28095   3.647   7.877   4.044 -0.6616 -0.5546  0.5684
  209MOL0     C28096   3.723   7.835   3.918 -0.0727 -0.7014 -0.4048
  209MOL0     N28097   3.868   7.872   3.927  0.1351 -0.0727  0.3759
  209MOL0     C28098   3.956   7.831   4.027  0.3586  0.5593  0.0347
  209MOL0     C28099   4.079   7.885   3.998  0.2462 -0.2957 -0.3803
  209MOL0     C28100   4.201   7.867   4.086 -1.1327  0.6781  0.0283
  209MOL0     C28101   4.316   7.961   4.058 -0.1129 -0.3029  0.7811
  209MOL0     C28102   4.437   7.943   4.144  0.3788  0.2246 -0.3307
  209MOL0     C28103   4.559   8.010   4.093  0.3738 -0.9751 -0.0136
  209MOL0     O28104   4.616   7.947   3.979  0.2812  0.2450  0.1468
  209MOL0     C28105   4.752   7.952   3.967  0.1883  0.5943  0.8537
  209MOL0     C28106   4.816   7.857   3.881  0.1202  0.7689 -0.2676
  209MOL0     C28107   4.945   7.862   3.836 -0.6485  0.1779  0.8833
  209MOL0     C28108   5.028   7.966   3.885  0.0243  0.7181  0.4082
  209MOL0     C28109   5.168   7.980   3.840 -0.7127 -0.9056 -0.6490
  209MOL0     O28110   5.206   7.904   3.732 -0.9696  0.0131 -0.0266
  209MOL0     C28111   5.336   7.912   3.677 -0.4841  0.4557  0.0953
  209MOL0     C28112   5.440   7.862   3.756  0.3670  0.1791  0.3233
  209MOL0     C28113   5.574   7.849   3.718  0.7435 -0.6817 -0.2795
  209MOL0     C28114   5.618   7.910   3.598  0.4255  0.1588 -0.7460
  209MOL0     O28115   5.736   7.887   3.539  0.1100  0.4790  0.1412
  209MOL0     C28116   5.850   7.894   3.621 -0.1408 -0.1890 -0.0450
  209MOL0     C28117   5.958   7.937   3.522  0.4934  0.6179 -0.2842
  209MOL0     C28118   6.076   7.990   3.615 -0.2660  0.1053  0.5628
  209MOL0     C28119   6.174   8.043   3.510  0.1131 -0.0637  0.6169
  209MOL0     C28120   6.302   8.083   3.576  0.6049  0.0632 -0.4771
  209MOL0     C28121   6.400   8.148   3.476  0.9633  0.6711 -0.0756
  209MOL0     C28122   6.526   8.201   3.554 -0.1737 -0.1715  0.3540
  209MOL0     C28123   6.645   8.223   3.465 -0.3740  0.3439  0.2747
  209MOL0    Cl28124   6.709   8.067   3.402 -0.0242  0.2360 -0.0835
  209MOL0     C28125   5.517   7.970   3.516  0.0135  0.5925  0.0428
  209MOL0     C28126   5.374   7.967   3.558  0.2518 -1.1637 -0.0624
  209MOL0     O28127   5.241   8.056   3.909 -0.0013 -1.0130  0.6237
  209MOL0     C28128   4.971   8.059   3.974  0.4577  0.1732 -0.3547
  209MOL0     C28129   4.833   8.053   4.015 -0.5308  0.1088  0.6290
  209MOL0     N28130   4.069   7.949   3.874 -0.4708  0.5922  0.3496
  209MOL0     N28131   3.947   7.937   3.839 -0.0107  0.3388  0.3203
  209MOL0     C28132   2.849   7.977   4.626 -0.4930  0.1521 -0.2909
  209MOL0     C28133   2.761   7.966   4.735 -0.5541 -0.0860 -0.0805
  209MOL0     C28134   2.366   7.891   4.947 -0.8702 -0.0901  0.6498
  209MOL0     C28135   2.228   7.938   4.942 -0.4767 -0.0129 -0.2182
  209MOL0     C28136   2.134   7.911   5.051  0.6465  0.1016 -0.8376
  209MOL0     C28137   2.172   7.835   5.162 -0.7687  0.3239  0.9160
  209MOL0     O28138   2.096   7.779   5.263  0.8018 -0.5456 -0.2180
  209MOL0     C28139   1.989   7.866   5.316 -0.4414 -0.4172  0.1685
  209MOL0     C28140   1.977   7.856   5.470  0.0948 -0.2723  0.4625
  209MOL0     C28141   2.081   7.947   5.541 -0.0300 -0.4896  0.2542
  209MOL0     C28142   2.077   7.930   5.695 -0.2218 -0.3632 -0.6638
  209MOL0     C28143   2.066   8.060   5.759 -0.6578  0.6658 -0.0195
  209MOL0     C28144   2.067   8.172   5.807 -0.4604 -0.1674 -0.0305
  209MOL0     C28145   2.305   7.785   5.161  0.8500 -0.0102 -0.1691
  209MOL0     C28146   2.403   7.809   5.063 -0.0836 -0.8695  0.9009
  209MOL0     C28147   2.546   7.767   5.102 -0.0085  0.3097 -0.3590
  209MOL0     H28148   2.562   7.718   4.604 -0.8740  0.2649 -0.4794
  209MOL0     H28149   2.713   7.739   4.421  0.5946 -1.5822  0.9709
  209MOL0     H28150   2.939   8.120   4.372  3.2264  2.4719 -0.1660
  209MOL0     H28151   3.067   8.029   4.468  1.4206  3.4681 -1.4627
  209MOL0     H28152   3.105   8.122   4.224  1.2379  0.1139  0.2525
  209MOL0     H28153   3.009   7.984   4.176  0.0003 -1.4311  1.3291
  209MOL0     H28154   3.150   7.822   4.305 -0.2944 -0.5065 -0.2300
  209MOL0     H28155   3.258   7.953   4.341 -2.6236  0.4166  0.5775
  209MOL0     H28156   3.251   7.782   4.114  3.0956 -0.0849 -0.8811
  209MOL0     H28157   3.223   7.947   4.053  1.2847  2.4840  1.6387
  209MOL0     H28158   3.434   8.024   4.136  0.7923 -0.0018  3.1407
  209MOL0     H28159   3.454   7.883   4.242  1.9236 -2.1806 -2.0017
  209MOL0     H28160   3.477   7.739   4.038  2.3105 -1.0172 -1.0997
  209MOL0     H28161   3.466   7.886   3.936 -0.2960 -0.3821  0.1100
  209MOL0     H28162   3.693   7.834   4.134  0.2409 -0.9013 -0.0459
  209MOL0     H28163   3.643   7.987   4.044  0.3333 -0.4950 -0.9252
  209MOL0     H28164   3.714   7.726   3.907 -0.8404 -0.5255 -1.7681
  209MOL0     H28165   3.685   7.879   3.825  1.2587  2.1206  0.2826
  209MOL0     H28166   3.945   7.777   4.121  1.3126  0.0147 -0.1632
  209MOL0     H28167   4.173   7.863   4.191 -1.8268  1.4161 -0.1112
  209MOL0     H28168   4.231   7.765   4.064 -1.7761  0.2889  0.9015
  209MOL0     H28169   4.342   7.942   3.954  5.3144  1.6470  1.5144
  209MOL0     H28170   4.279   8.064   4.066  0.3817 -0.2531  3.0208
  209MOL0     H28171   4.458   7.837   4.165  1.2410  0.9358  2.9421
  209MOL0     H28172   4.415   7.984   4.243 -1.9819  1.5770 -1.3497
  209MOL0     H28173   4.638   8.012   4.169 -0.4443  1.1944  0.8583
  209MOL0     H28174   4.542   8.117   4.078 -0.8728 -0.8919  1.6818
  209MOL0     H28175   4.748   7.778   3.849  0.3694 -0.1917  1.4601
  209MOL0     H28176   4.992   7.785   3.776  0.5667  2.4459 -1.2967
  209MOL0     H28177   5.411   7.829   3.855 -1.0556  1.6343  0.4284
  209MOL0     H28178   5.641   7.793   3.783  0.3119 -0.4838  0.3435
  209MOL0     H28179   5.842   7.958   3.709  1.0440  0.5731 -0.4788
  209MOL0     H28180   5.876   7.792   3.651  5.6953  1.2972  1.1305
  209MOL0     H28181   5.972   7.840   3.474 -1.2715  0.6650 -0.9554
  209MOL0     H28182   5.920   8.012   3.453  0.4740  1.7512  0.9053
  209MOL0     H28183   6.047   8.053   3.699  3.8199  0.8399  1.6568
  209MOL0     H28184   6.124   7.907   3.668 -1.2673 -0.6135  0.3603
  209MOL0     H28185   6.123   8.130   3.468 -1.5593 -1.7437 -1.0507
  209MOL0     H28186   6.191   7.966   3.434 -1.5106 -1.8449  1.9349
  209MOL0     H28187   6.360   7.993   3.596 -0.2139 -0.3026  0.3281
  209MOL0     H28188   6.284   8.130   3.673  2.0627  0.3145 -0.3043
  209MOL0     H28189   6.437   8.084   3.395  2.1087 -1.2322  1.8459
  209MOL0     H28190   6.354   8.234   3.427 -1.0260  0.2436  0.9463
  209MOL0     H28191   6.548   8.138   3.641  2.2832 -1.2450 -0.9307
  209MOL0     H28192   6.507   8.300   3.597 -1.9515 -0.9205  1.4275
  209MOL0     H28193   6.618   8.293   3.385 -1.0689  1.2318  1.2678
  209MOL0     H28194   6.722   8.271   3.526  2.1230 -0.4752 -2.0156
  209MOL0     H28195   5.543   8.003   3.416 -1.0937  0.2139 -0.3769
  209MOL0     H28196   5.296   8.006   3.495  0.4056  2.3857  1.6833
  209MOL0     H28197   5.038   8.140   4.001 -1.0169  2.1417 -2.2490
  209MOL0     H28198   4.792   8.137   4.070 -1.6146  1.0931 -1.5452
  209MOL0     H28199   2.924   8.056   4.634 -0.2509 -0.0887 -0.1711
  209MOL0     H28200   2.776   8.041   4.812 -0.6812  2.3721 -2.2947
  209MOL0     H28201   2.180   7.983   4.856 -1.3203  1.8338  1.1148
  209MOL0     H28202   2.028   7.930   5.039  0.4600 -0.9036 -0.8719
  209MOL0     H28203   1.894   7.837   5.269 -0.6902  1.6307 -0.7178
  209MOL0     H28204   1.995   7.971   5.284 -3.5439 -0.6655 -1.6550
  209MOL0     H28205   1.990   7.750   5.491 -2.3496 -0.8788 -0.6662
  209MOL0     H28206   1.874   7.885   5.491  0.0499  0.5503 -0.7845
  209MOL0     H28207   2.067   8.051   5.510 -0.7300 -0.1191  1.7418
  209MOL0     H28208   2.182   7.919   5.511  0.4992  0.1118  1.4050
  209MOL0     H28209   2.003   7.857   5.730 -0.5397  1.7186  3.6298
  209MOL0     H28210   2.174   7.884   5.719  0.1396 -0.5274 -2.2676
  209MOL0     H28211   2.065   8.270   5.850 -2.0880  1.2853 -3.0612
  209MOL0     H28212   2.334   7.723   5.245 -0.1050 -1.5987 -0.9575
  209MOL0     H28213   2.578   7.690   5.030  0.8247 -0.1446  0.4664
  209MOL0     H28214   2.614   7.853   5.103  1.3164 -0.6188  3.2782
  209MOL0     H28215   2.543   7.718   5.199 -0.8649 -0.3893 -0.7244
  210MOL0     O28216   7.425   4.364   4.205 -0.9852 -0.3990  0.9634
  210MOL0     C28217   7.374   4.475   4.206 -0.7229 -0.0075 -1.3612
  210MOL0     O28218   7.442   4.593   4.187  0.6354 -0.1769 -0.1461
  210MOL0     C28219   7.563   4.616   4.133 -0.8320  0.3291 -0.8111
  210MOL0     C28220   7.616   4.543   4.026 -0.0116  0.3325  1.0055
  210MOL0     C28221   7.741   4.574   3.955 -0.5376 -0.1739  0.1226
  210MOL0     C28222   7.818   4.672   4.016 -0.0796  0.4365 -0.1627
  210MOL0     O28223   7.929   4.716   3.947 -0.3548  0.5110 -0.7650
  210MOL0     C28224   7.967   4.686   3.810  0.3153  0.3746  0.7329
  210MOL0     C28225   8.116   4.726   3.785 -0.0333 -1.1491  0.0528
  210MOL0     C28226   8.202   4.611   3.751 -0.7124  0.7921 -0.9773
  210MOL0     C28227   8.167   4.536   3.617 -0.0073  0.5614 -0.0953
  210MOL0     C28228   8.266   4.436   3.576 -0.8390 -0.7990 -0.0255
  210MOL0     C28229   8.391   4.504   3.517  0.2800 -0.9059  0.8292
  210MOL0     C28230   8.477   4.387   3.462 -1.1393 -0.9552  0.0122
  210MOL0     C28231   8.616   4.450   3.422 -0.3808 -0.1228  0.0212
  210MOL0     N28232   8.702   4.344   3.368 -0.1370 -0.0424 -0.5691
  210MOL0     C28233   8.760   4.248   3.441  0.3875 -0.7204 -0.1351
  210MOL0     C28234   8.842   4.186   3.354  0.4180  0.7198  0.4394
  210MOL0     C28235   8.934   4.078   3.394 -0.5996  0.2387 -0.5904
  210MOL0     C28236   9.065   4.133   3.439  0.3229  0.3681  0.4907
  210MOL0     C28237   9.165   4.037   3.492  0.0273 -0.5030 -1.0480
  210MOL0     C28238   9.298   4.042   3.404 -0.2961  0.0817  0.2068
  210MOL0     O28239   9.385   3.929   3.442 -0.0475  0.0282 -0.4973
  210MOL0     C28240   9.513   3.931   3.386  0.2558  0.0921 -1.1779
  210MOL0     C28241   9.605   3.833   3.432 -0.6648  0.0853  0.2386
  210MOL0     C28242   9.732   3.829   3.371 -0.3879  0.0982  0.4269
  210MOL0     C28243   9.766   3.920   3.269 -0.8462 -0.9756  0.1326
  210MOL0     C28244   9.910   3.918   3.208 -1.3481 -0.1404 -0.2049
  210MOL0     O28245   9.939   3.981   3.099 -0.4504 -0.1238  0.2746
  210MOL0     C28246  10.065   3.997   3.048  0.3871  0.1269  0.3059
  210MOL0     C28247  10.176   4.024   3.122 -0.7652  0.0312 -0.1632
  210MOL0     C28248  10.301   4.042   3.063  1.2485  0.5394  0.2154
  210MOL0     C28249  10.305   4.041   2.915 -0.2312  0.4877 -0.3177
  210MOL0     O28250  10.420   4.054   2.840  0.1402 -0.2775 -0.1731
  210MOL0     C28251  10.543   4.040   2.903 -0.4464 -0.0211 -0.0669
  210MOL0     C28252  10.650   3.984   2.805  0.5015 -0.2318  0.1630
  210MOL0     C28253  10.784   3.965   2.870  0.5065 -1.0045 -1.0318
  210MOL0     C28254  10.856   4.104   2.880  0.1282  0.2509  0.2914
  210MOL0     C28255  10.977   4.092   2.977 -0.4127  0.1977 -0.5498
  210MOL0     C28256  11.064   4.213   2.947  0.6277 -0.3205 -0.2055
  210MOL0     C28257  11.186   4.215   3.033  0.2115 -0.5311  0.8314
  210MOL0     C28258  11.163   4.244   3.177  0.3491  0.1273 -0.1756
  210MOL0    Cl28259  11.302   4.226   3.287 -0.2905 -0.5487  0.0011
  210MOL0     C28260  10.188   4.024   2.844  0.1342  1.1432 -0.8174
  210MOL0     C28261  10.065   4.009   2.913 -0.5317  0.3834  0.1538
  210MOL0     O28262   9.994   3.860   3.279 -0.2645  0.4759  0.0913
  210MOL0     C28263   9.674   4.008   3.217  0.2487 -0.4040 -0.5003
  210MOL0     C28264   9.547   4.011   3.282  0.1054 -0.6986  0.4397
  210MOL0     N28265   8.818   4.233   3.230 -0.1570 -0.2045 -0.6708
  210MOL0     N28266   8.739   4.336   3.239  0.6008  0.0220 -0.0428
  210MOL0     C28267   7.783   4.740   4.133 -0.0799 -0.0901 -1.0174
  210MOL0     C28268   7.650   4.720   4.185 -0.1238 -0.0724  0.3080
  210MOL0     C28269   7.225   4.486   4.204 -0.2500  1.5369 -1.1266
  210MOL0     C28270   7.168   4.585   4.126  0.2461  0.1069 -0.7434
  210MOL0     C28271   7.031   4.611   4.120 -0.0334 -0.8444  0.5616
  210MOL0     C28272   6.946   4.525   4.201  0.3870 -0.0648  0.2315
  210MOL0     O28273   6.808   4.533   4.214 -0.0678 -0.0605  0.4587
  210MOL0     C28274   6.729   4.633   4.137  0.7017  0.0622 -0.5255
  210MOL0     C28275   6.577   4.611   4.155  0.8459 -0.1062 -0.4975
  210MOL0     C28276   6.521   4.487   4.089  0.1933  0.2262 -0.2020
  210MOL0     C28277   6.375   4.485   4.117 -0.5411  0.5165 -0.6041
  210MOL0     C28278   6.299   4.603   4.071 -0.1254 -0.3002  0.9638
  210MOL0     C28279   6.242   4.720   4.045 -0.1464  0.2159 -0.5553
  210MOL0     C28280   6.995   4.431   4.286  0.2733  0.1869  0.5472
  210MOL0     C28281   7.137   4.405   4.284  0.7828  0.3802 -0.2845
  210MOL0     C28282   7.202   4.304   4.385  0.6755  0.1421  0.7568
  210MOL0     H28283   7.552   4.469   3.978  0.1543  1.5777 -1.2657
  210MOL0     H28284   7.764   4.526   3.860  0.3046  0.2231  0.1145
  210MOL0     H28285   7.945   4.582   3.785 -2.0234  0.6607  1.3678
  210MOL0     H28286   7.910   4.755   3.746 -1.7116  0.1617  2.2156
  210MOL0     H28287   8.158   4.779   3.870  2.4792 -1.0217 -1.1706
  210MOL0     H28288   8.120   4.799   3.704 -2.0315  0.3816  1.2626
  210MOL0     H28289   8.204   4.540   3.835 -1.2293 -2.1558 -3.2686
  210MOL0     H28290   8.302   4.652   3.735 -0.1262 -0.0429  0.3686
  210MOL0     H28291   8.076   4.478   3.632 -0.4268  0.8689 -1.3357
  210MOL0     H28292   8.154   4.608   3.536 -0.3219  1.2261  0.5241
  210MOL0     H28293   8.305   4.379   3.660 -0.1187 -0.2352  0.0346
  210MOL0     H28294   8.224   4.365   3.504  0.2571  0.8645 -2.4354
  210MOL0     H28295   8.359   4.575   3.441  1.8489 -0.5628  0.4423
  210MOL0     H28296   8.453   4.559   3.590  2.4963  0.7424 -2.0870
  210MOL0     H28297   8.435   4.333   3.376  0.5965 -2.6168  0.1423
  210MOL0     H28298   8.498   4.312   3.538  0.5996 -0.9237 -0.3994
  210MOL0     H28299   8.611   4.538   3.357  1.3949 -0.8002 -1.0987
  210MOL0     H28300   8.664   4.490   3.511 -0.8698 -0.5741  0.4973
  210MOL0     H28301   8.741   4.233   3.546 -1.4855  2.0299  0.0185
  210MOL0     H28302   8.886   4.019   3.473 -1.7715 -0.2897 -1.6639
  210MOL0     H28303   8.959   4.014   3.309 -0.9552  2.4739 -2.4730
  210MOL0     H28304   9.104   4.193   3.357  0.3841 -1.1065 -0.6054
  210MOL0     H28305   9.045   4.198   3.524 -0.8603 -0.1982  0.6700
  210MOL0     H28306   9.136   3.933   3.478  2.9836 -1.1346 -3.5969
  210MOL0     H28307   9.187   4.058   3.597  1.8896 -2.0851 -1.0750
  210MOL0     H28308   9.335   4.144   3.415  4.3212 -1.5234  1.8427
  210MOL0     H28309   9.285   4.023   3.297 -0.2778 -0.3166  0.2719
  210MOL0     H28310   9.580   3.755   3.504  1.6035  1.2796  2.4691
  210MOL0     H28311   9.801   3.750   3.399  1.0947  0.6772 -1.3817
  210MOL0     H28312  10.172   4.020   3.231  1.2531  0.9700 -0.0133
  210MOL0     H28313  10.390   4.046   3.125  0.0870 -0.1175  2.0205
  210MOL0     H28314  10.574   4.139   2.939 -3.8344  0.9226  0.6914
  210MOL0     H28315  10.548   3.967   2.984  0.7942 -0.0578 -0.1604
  210MOL0     H28316  10.620   3.889   2.761 -0.8508  1.3963 -2.7764
  210MOL0     H28317  10.662   4.053   2.721 -2.4713 -0.3086 -0.4584
  210MOL0     H28318  10.773   3.920   2.969 -2.1263 -1.0629 -1.2789
  210MOL0     H28319  10.853   3.898   2.817  1.0431 -0.4051 -1.1127
  210MOL0     H28320  10.796   4.190   2.910  0.4577  0.7834 -0.5655
  210MOL0     H28321  10.903   4.121   2.783  0.5768  1.6220  0.7218
  210MOL0     H28322  11.036   4.003   2.956 -2.7663 -1.5387 -0.1695
  210MOL0     H28323  10.931   4.093   3.076 -1.1655  0.5246 -0.8968
  210MOL0     H28324  11.107   4.197   2.847  0.9906 -0.2572 -0.0611
  210MOL0     H28325  11.002   4.304   2.952  1.4690  0.2033  1.6998
  210MOL0     H28326  11.253   4.295   3.002 -0.4341  0.2043  1.2986
  210MOL0     H28327  11.235   4.121   3.007 -1.4797 -0.4496 -3.3699
  210MOL0     H28328  11.141   4.351   3.186  2.5324  0.5552  0.5668
  210MOL0     H28329  11.081   4.184   3.219  0.4237 -1.1982 -1.8148
  210MOL0     H28330  10.183   4.008   2.737 -2.0890 -2.0307 -0.3655
  210MOL0     H28331   9.973   3.976   2.866 -2.1050  0.8854  2.6698
  210MOL0     H28332   9.708   4.079   3.142  0.7196 -2.5298 -2.3880
  210MOL0     H28333   9.482   4.091   3.248 -1.1812 -1.4807  0.9741
  210MOL0     H28334   7.855   4.812   4.169  1.7557 -2.2588 -0.1231
  210MOL0     H28335   7.630   4.775   4.276 -2.1468 -0.2446  0.0323
  210MOL0     H28336   7.230   4.652   4.067  1.6343 -1.3082 -0.9859
  210MOL0     H28337   6.985   4.682   4.052  2.1516  1.1582  1.0488
  210MOL0     H28338   6.755   4.625   4.031  0.6537 -1.6123 -0.4446
  210MOL0     H28339   6.772   4.727   4.172 -0.4481  1.3166 -2.3127
  210MOL0     H28340   6.538   4.704   4.112  1.7817 -0.3092 -1.8135
  210MOL0     H28341   6.552   4.598   4.261  0.4155  1.6181 -0.3529
  210MOL0     H28342   6.560   4.399   4.140 -2.6868 -1.4538 -0.6963
  210MOL0     H28343   6.555   4.474   3.985  1.4040  0.1365  0.1865
  210MOL0     H28344   6.333   4.401   4.060 -1.7524 -1.2500  2.5792
  210MOL0     H28345   6.357   4.467   4.223 -1.5859  0.7865 -0.7207
  210MOL0     H28346   6.191   4.812   4.024 -0.9540 -0.3265 -1.0369
  210MOL0     H28347   6.917   4.370   4.330 -2.3021  1.8738 -1.3995
  210MOL0     H28348   7.275   4.355   4.449  0.5473 -0.6121  1.5197
  210MOL0     H28349   7.125   4.259   4.448  1.3714 -1.6201  0.3940
  210MOL0     H28350   7.250   4.225   4.328  1.4044 -0.4475  2.1308
  211MOL0     O28351   3.467   6.611   7.488 -0.4568  0.5742 -0.3302
  211MOL0     C28352   3.485   6.498   7.536 -0.2436 -0.1773 -0.8220
  211MOL0     O28353   3.591   6.467   7.607 -0.4465  0.2222 -0.1459
  211MOL0     C28354   3.689   6.554   7.644 -0.5441  0.5837 -0.2801
  211MOL0     C28355   3.674   6.687   7.684  0.2553  0.0809 -0.0558
  211MOL0     C28356   3.788   6.758   7.725  1.2671 -0.9862 -0.5778
  211MOL0     C28357   3.922   6.701   7.710  0.0002  0.3525  0.2005
  211MOL0     O28358   4.044   6.764   7.727 -0.3273  0.2602  0.2091
  211MOL0     C28359   4.048   6.862   7.825 -0.1687  0.7021  0.3482
  211MOL0     C28360   4.181   6.851   7.902  0.1733 -0.6668  0.3228
  211MOL0     C28361   4.213   6.981   7.974 -0.3167 -0.7088  1.1041
  211MOL0     C28362   4.343   6.983   8.063  0.5158 -0.3094  0.1874
  211MOL0     C28363   4.467   6.949   7.993 -0.6974  0.7993  0.1288
  211MOL0     C28364   4.581   6.932   8.097  0.3955 -0.4502  0.6507
  211MOL0     C28365   4.716   6.909   8.031  0.0634  0.2488 -0.0382
  211MOL0     C28366   4.808   6.858   8.143  0.3458  1.3787  0.4510
  211MOL0     N28367   4.940   6.886   8.093 -0.6838  0.1808 -0.0495
  211MOL0     C28368   5.043   6.791   8.088  0.7646 -0.2042 -0.0651
  211MOL0     C28369   5.151   6.871   8.057  0.2649  0.3226  0.8331
  211MOL0     C28370   5.289   6.839   8.028 -0.6092  0.7629 -0.2999
  211MOL0     C28371   5.386   6.901   8.129 -0.5444  0.0889 -0.2290
  211MOL0     C28372   5.512   6.960   8.059  0.6582  0.3620  0.5896
  211MOL0     C28373   5.599   7.029   8.156  0.4866  0.1339  0.4956
  211MOL0     O28374   5.726   7.061   8.100 -0.2718  0.7127 -0.2681
  211MOL0     C28375   5.828   7.094   8.185 -0.3980  0.2656  0.8347
  211MOL0     C28376   5.962   7.103   8.138  0.3605 -0.3936  0.0154
  211MOL0     C28377   6.062   7.139   8.219 -0.8030  0.2851 -0.4536
  211MOL0     C28378   6.049   7.163   8.352 -0.1437 -0.2686 -0.3950
  211MOL0     C28379   6.155   7.171   8.449 -0.9086  0.8316 -0.1661
  211MOL0     O28380   6.128   7.135   8.571  0.2539  0.4158  0.0627
  211MOL0     C28381   6.209   7.070   8.662  0.9450 -0.7978 -0.1506
  211MOL0     C28382   6.152   7.042   8.785  0.3713  0.5485 -0.7491
  211MOL0     C28383   6.226   6.982   8.888  1.0051  0.5105  0.3165
  211MOL0     C28384   6.349   6.921   8.864 -0.3328  0.9139 -0.0220
  211MOL0     O28385   6.390   6.859   8.972  0.5478  0.0201 -0.8265
  211MOL0     C28386   6.532   6.867   8.999  0.4616 -0.6406 -0.0466
  211MOL0     C28387   6.576   6.832   9.140  0.9942 -0.4952 -0.2903
  211MOL0     C28388   6.714   6.883   9.187 -0.6979  0.2523 -0.2102
  211MOL0     C28389   6.800   6.764   9.231 -0.3052 -0.0773 -0.8871
  211MOL0     C28390   6.922   6.814   9.314 -0.4347  0.6963  0.1518
  211MOL0     C28391   7.021   6.704   9.331  0.4925  0.8447 -0.5197
  211MOL0     C28392   7.155   6.750   9.377 -0.4482  0.0471 -0.0016
  211MOL0     C28393   7.248   6.628   9.391  0.5560  0.3317  0.0765
  211MOL0    Cl28394   7.304   6.574   9.224  0.0937 -0.1431 -0.7215
  211MOL0     C28395   6.407   6.934   8.736  0.9736 -0.0780 -0.2950
  211MOL0     C28396   6.335   7.009   8.634  0.1156  0.4408 -0.5464
  211MOL0     O28397   6.273   7.189   8.409 -0.1767 -0.4174  0.2062
  211MOL0     C28398   5.915   7.163   8.399 -0.0407 -0.1247 -0.2195
  211MOL0     C28399   5.807   7.132   8.314 -0.3363 -0.1068 -0.6414
  211MOL0     N28400   5.110   7.008   8.053 -0.8168  0.8904  0.2828
  211MOL0     N28401   4.985   7.015   8.078  0.1743  0.7913  0.2579
  211MOL0     C28402   3.930   6.564   7.680 -0.0102  0.1273  0.3887
  211MOL0     C28403   3.811   6.491   7.652 -0.6550 -0.1346  0.0433
  211MOL0     C28404   3.371   6.400   7.543 -0.0478 -0.6537  0.1225
  211MOL0     C28405   3.244   6.456   7.516 -0.1361 -0.3517 -0.2430
  211MOL0     C28406   3.133   6.379   7.520 -0.4811 -0.3323  0.3587
  211MOL0     C28407   3.144   6.245   7.538  0.6219  0.5456 -0.0532
  211MOL0     O28408   3.030   6.175   7.534  0.0698  0.1547  0.3165
  211MOL0     C28409   3.037   6.043   7.473  0.5096  0.0129  0.1389
  211MOL0     C28410   2.924   6.048   7.360  0.4367 -1.4246 -0.0622
  211MOL0     C28411   2.781   6.033   7.407 -0.1746  0.3877 -0.6435
  211MOL0     C28412   2.713   6.172   7.449 -0.7838  0.0875 -0.1140
  211MOL0     C28413   2.577   6.148   7.491  1.0161 -0.2030  0.0017
  211MOL0     C28414   2.463   6.122   7.519  0.2946 -0.0037  0.2719
  211MOL0     C28415   3.262   6.186   7.558 -0.5061 -0.5521  0.6112
  211MOL0     C28416   3.384   6.260   7.559  0.1827 -0.0722  0.2744
  211MOL0     C28417   3.518   6.191   7.568  0.4073  1.0124  0.6343
  211MOL0     H28418   3.578   6.735   7.701 -0.2131 -0.2258 -1.6185
  211MOL0     H28419   3.773   6.850   7.781 -0.6896  0.2864 -2.9681
  211MOL0     H28420   4.035   6.957   7.772 -0.1207 -0.9662 -2.8859
  211MOL0     H28421   3.971   6.846   7.900  0.0748  0.1536  0.4847
  211MOL0     H28422   4.263   6.842   7.830 -0.0909 -0.9473  0.0535
  211MOL0     H28423   4.186   6.766   7.970  0.3995 -0.6080  0.3830
  211MOL0     H28424   4.130   7.022   8.033  0.7548  3.3428  0.1464
  211MOL0     H28425   4.221   7.061   7.899  0.8768 -1.4632  0.3976
  211MOL0     H28426   4.354   7.083   8.105 -0.5361  0.3473 -1.0174
  211MOL0     H28427   4.330   6.922   8.153  0.4019  0.0328  0.4048
  211MOL0     H28428   4.448   6.858   7.935 -4.9949  2.8389 -2.1000
  211MOL0     H28429   4.485   7.028   7.921 -2.0890  2.2237  1.2684
  211MOL0     H28430   4.601   7.025   8.150  1.7920  2.2189 -4.0099
  211MOL0     H28431   4.553   6.851   8.166 -2.7444  0.2865  0.4034
  211MOL0     H28432   4.754   7.006   7.996  0.0239  1.2275  2.4022
  211MOL0     H28433   4.724   6.831   7.956  0.3145 -0.0076  0.2547
  211MOL0     H28434   4.793   6.918   8.233  0.7393  3.7313 -0.9537
  211MOL0     H28435   4.794   6.751   8.160 -1.6789  1.8242  1.8856
  211MOL0     H28436   5.051   6.683   8.095  0.5312 -0.2653 -0.6952
  211MOL0     H28437   5.312   6.732   8.033  1.9715  1.2272 -0.8523
  211MOL0     H28438   5.320   6.868   7.928 -0.0873  2.2031  0.2605
  211MOL0     H28439   5.343   6.995   8.164 -1.3772  0.0533 -1.1236
  211MOL0     H28440   5.413   6.840   8.216 -0.4389  0.6827  0.1607
  211MOL0     H28441   5.475   7.024   7.978  0.1403 -2.9498 -2.0589
  211MOL0     H28442   5.573   6.880   8.015  1.1252  0.8482  0.3415
  211MOL0     H28443   5.614   6.971   8.247  1.5392 -0.9110 -0.3186
  211MOL0     H28444   5.552   7.126   8.177  3.1558  1.9546 -1.2502
  211MOL0     H28445   5.994   7.086   8.035  4.8161  1.7425  0.7975
  211MOL0     H28446   6.164   7.152   8.182  0.6910  0.4743  3.2795
  211MOL0     H28447   6.052   7.073   8.816  0.6955  0.3727  0.5445
  211MOL0     H28448   6.173   6.972   8.982  1.4149 -0.5515  0.4429
  211MOL0     H28449   6.572   6.791   8.931  0.0035 -0.0081 -1.0458
  211MOL0     H28450   6.568   6.965   8.964 -0.2034 -0.1572  0.6048
  211MOL0     H28451   6.501   6.878   9.205 -0.1117 -0.4433 -1.5690
  211MOL0     H28452   6.563   6.724   9.147 -0.8269 -0.6652 -4.1436
  211MOL0     H28453   6.765   6.933   9.104  1.8928 -2.2624 -0.2868
  211MOL0     H28454   6.711   6.963   9.262 -1.6741 -1.8390  2.1387
  211MOL0     H28455   6.816   6.698   9.146  0.8918 -0.8923 -0.0689
  211MOL0     H28456   6.740   6.707   9.303  1.8330 -0.4135  0.7324
  211MOL0     H28457   6.905   6.859   9.412  1.3078 -2.3459  1.9917
  211MOL0     H28458   6.970   6.895   9.257  3.2444 -2.8969 -2.4223
  211MOL0     H28459   6.978   6.636   9.406  1.0149  0.2892 -0.7196
  211MOL0     H28460   7.028   6.655   9.233  0.1627  3.3775 -1.8842
  211MOL0     H28461   7.164   6.798   9.475  0.4574 -0.4051  0.1502
  211MOL0     H28462   7.198   6.822   9.308 -0.7079 -0.4465 -0.6859
  211MOL0     H28463   7.335   6.663   9.448 -0.1689  2.7756 -0.1923
  211MOL0     H28464   7.199   6.544   9.441 -1.5525 -0.8958 -3.6856
  211MOL0     H28465   6.513   6.916   8.721  1.7612  2.6621  1.2521
  211MOL0     H28466   6.377   7.029   8.536 -0.9777 -0.5508 -1.2594
  211MOL0     H28467   5.884   7.187   8.500  0.7265 -0.8814  0.2054
  211MOL0     H28468   5.704   7.144   8.348 -0.2654 -0.5833 -0.2499
  211MOL0     H28469   4.032   6.529   7.679  0.3895  1.1904  1.7672
  211MOL0     H28470   3.823   6.388   7.622  0.6198 -0.6937  2.2562
  211MOL0     H28471   3.223   6.562   7.530  2.2898  0.2933 -1.0275
  211MOL0     H28472   3.030   6.413   7.523 -1.3464 -2.7973  1.2846
  211MOL0     H28473   3.016   5.967   7.549 -0.1656  3.8396  4.1834
  211MOL0     H28474   3.127   6.016   7.418 -0.8594  0.1542 -2.2972
  211MOL0     H28475   2.940   5.952   7.309  1.9571 -0.6312 -1.1635
  211MOL0     H28476   2.933   6.131   7.290  1.6502 -0.8789  0.6986
  211MOL0     H28477   2.789   5.960   7.489  1.7625  1.6647  0.3899
  211MOL0     H28478   2.721   5.983   7.330 -0.1830  0.4628 -0.6860
  211MOL0     H28479   2.751   6.212   7.543 -0.3855  1.0160 -0.6673
  211MOL0     H28480   2.732   6.241   7.367  1.3388  0.0100  0.2593
  211MOL0     H28481   2.358   6.102   7.533 -0.1461  1.0415 -1.2554
  211MOL0     H28482   3.257   6.077   7.557  1.5969 -0.7218 -1.7193
  211MOL0     H28483   3.563   6.205   7.469  0.0818 -2.8461 -0.2369
  211MOL0     H28484   3.572   6.229   7.655  1.6782  2.0505 -0.5601
  211MOL0     H28485   3.503   6.082   7.572 -0.3459  1.0359 -0.8967
  212MOL0     O28486   0.757   1.048   2.422  0.5287 -0.0023 -0.1335
  212MOL0     C28487   0.709   1.006   2.316  0.1532 -0.5011  0.2657
  212MOL0     O28488   0.757   0.914   2.225  0.9039  0.0334 -0.0737
  212MOL0     C28489   0.879   0.851   2.236 -0.2433 -0.0016 -0.4375
  212MOL0     C28490   0.899   0.768   2.135 -0.0820  0.6140  0.0756
  212MOL0     C28491   1.017   0.690   2.113 -0.2029 -0.0509  0.3597
  212MOL0     C28492   1.125   0.694   2.208  0.9955 -0.7333  0.2829
  212MOL0     O28493   1.245   0.629   2.204  0.7174  0.6373  0.0519
  212MOL0     C28494   1.367   0.689   2.248 -0.5263  0.5813 -0.5176
  212MOL0     C28495   1.483   0.602   2.193  0.3075  0.0182  0.1028
  212MOL0     C28496   1.625   0.652   2.212  0.6080  0.4967  0.6078
  212MOL0     C28497   1.730   0.536   2.221  0.1639 -0.2822 -0.5800
  212MOL0     C28498   1.879   0.582   2.195  0.7574  0.0750 -0.3628
  212MOL0     C28499   1.927   0.675   2.311  0.2148 -0.2019  0.7182
  212MOL0     C28500   2.070   0.711   2.282  0.3122 -0.1177 -0.1617
  212MOL0     C28501   2.144   0.791   2.397 -0.0847 -0.1488  0.9613
  212MOL0     N28502   2.287   0.760   2.405  0.8074 -0.4397  0.1008
  212MOL0     C28503   2.356   0.646   2.389  0.1210 -0.6059  0.2942
  212MOL0     C28504   2.477   0.681   2.451  0.0587  0.9909  0.2223
  212MOL0     C28505   2.591   0.592   2.471 -0.1206 -0.2651  0.1933
  212MOL0     C28506   2.681   0.580   2.349 -0.1023 -0.2857  0.1428
  212MOL0     C28507   2.807   0.497   2.365  0.1779 -0.6974  0.1744
  212MOL0     C28508   2.918   0.575   2.439  0.5606  1.2646  0.3794
  212MOL0     O28509   2.969   0.666   2.340 -0.4344 -0.3986  0.2709
  212MOL0     C28510   3.098   0.683   2.355 -0.6431  0.2720  0.5560
  212MOL0     C28511   3.181   0.591   2.284  0.4534 -0.8648  0.0660
  212MOL0     C28512   3.319   0.621   2.289  0.1430 -0.6195  0.4135
  212MOL0     C28513   3.373   0.695   2.385  0.0963 -0.5492  1.0023
  212MOL0     C28514   3.519   0.682   2.408 -0.0863 -0.0490  0.3319
  212MOL0     O28515   3.593   0.591   2.337 -1.1047  0.0658 -0.0618
  212MOL0     C28516   3.723   0.578   2.372 -0.0788 -0.4675  0.4682
  212MOL0     C28517   3.816   0.612   2.265 -0.0529 -0.8388 -1.2705
  212MOL0     C28518   3.953   0.625   2.310 -0.3158 -0.4587 -0.1407
  212MOL0     C28519   4.003   0.585   2.437  0.3612 -0.2322  0.0859
  212MOL0     O28520   4.137   0.584   2.456  0.4230  0.3914 -0.5216
  212MOL0     C28521   4.195   0.625   2.577 -0.5903  0.4378  0.3315
  212MOL0     C28522   4.162   0.774   2.611  0.0823  0.6239  0.0228
  212MOL0     C28523   4.209   0.806   2.754 -0.7197 -0.3037  0.1275
  212MOL0     C28524   4.185   0.953   2.788 -0.2254  0.3564  0.1788
  212MOL0     C28525   4.206   0.982   2.936 -0.2246 -0.7311  1.5927
  212MOL0     C28526   4.187   1.122   2.967  0.7578 -0.2964 -0.6470
  212MOL0     C28527   4.236   1.158   3.105  0.0679 -0.2667 -0.1499
  212MOL0     C28528   4.145   1.117   3.222  0.2690 -0.2127  0.8767
  212MOL0    Cl28529   4.164   1.234   3.349 -0.0927  0.1046 -0.0821
  212MOL0     C28530   3.910   0.531   2.521  0.0726 -0.1652 -0.2700
  212MOL0     C28531   3.775   0.535   2.496  0.3367 -0.3628 -0.1818
  212MOL0     O28532   3.562   0.750   2.500  0.4362  0.0380 -0.0102
  212MOL0     C28533   3.294   0.780   2.464  0.6127 -0.3301  0.2063
  212MOL0     C28534   3.152   0.782   2.439  0.0463  0.9114  0.9227
  212MOL0     N28535   2.493   0.808   2.467 -0.8742  0.0163  1.1793
  212MOL0     N28536   2.376   0.864   2.439  0.2809 -1.6039  0.5902
  212MOL0     C28537   1.101   0.793   2.304  0.1617 -0.4046 -1.0254
  212MOL0     C28538   0.982   0.868   2.327 -0.0975 -0.4680  0.2192
  212MOL0     C28539   0.566   1.054   2.290  0.3331  0.6617  0.4423
  212MOL0     C28540   0.495   0.991   2.175 -1.2138  0.1612 -0.8201
  212MOL0     C28541   0.373   1.017   2.142  0.0665  0.8687  0.3326
  212MOL0     C28542   0.309   1.121   2.201 -0.1274 -0.2573 -0.4472
  212MOL0     O28543   0.187   1.157   2.154  0.4197 -1.1911  0.3297
  212MOL0     C28544   0.106   1.255   2.226 -0.4930 -0.1016 -0.0515
  212MOL0     C28545  -0.017   1.265   2.143 -1.0451  0.3830 -0.2778
  212MOL0     C28546   0.022   1.286   1.996  0.2021 -0.3428  1.1109
  212MOL0     C28547  -0.098   1.318   1.905  0.1984 -0.6050 -0.1556
  212MOL0     C28548  -0.189   1.212   1.898  0.3861 -0.1648 -0.1168
  212MOL0     C28549  -0.276   1.122   1.884  0.2271 -0.7226 -0.8225
  212MOL0     C28550   0.367   1.185   2.316  0.5620  1.4550  0.3971
  212MOL0     C28551   0.495   1.150   2.363  0.5548  0.5607 -1.4729
  212MOL0     C28552   0.554   1.226   2.481  0.1530 -0.5630  0.7110
  212MOL0     H28553   0.822   0.761   2.060  0.9020 -0.4642 -0.8919
  212MOL0     H28554   1.027   0.615   2.035 -1.4434 -2.0605  2.0214
  212MOL0     H28555   1.370   0.790   2.206 -0.6287  0.0597 -1.8172
  212MOL0     H28556   1.386   0.693   2.356  0.8422 -0.7128 -0.6829
  212MOL0     H28557   1.462   0.603   2.085 -2.5197 -2.0664  0.5021
  212MOL0     H28558   1.477   0.500   2.232 -1.1521  1.2193  3.3792
  212MOL0     H28559   1.637   0.724   2.294  0.2607  1.4446 -0.1513
  212MOL0     H28560   1.643   0.698   2.115 -0.1974 -2.0528 -0.8373
  212MOL0     H28561   1.727   0.489   2.319  3.0777  1.1045  0.2991
  212MOL0     H28562   1.711   0.460   2.144  0.3155  0.3479 -1.2549
  212MOL0     H28563   1.942   0.494   2.190 -0.1660 -0.5185 -3.1640
  212MOL0     H28564   1.892   0.622   2.094  0.1135 -2.5116 -1.5445
  212MOL0     H28565   1.864   0.764   2.309  2.2560  1.3189 -2.2830
  212MOL0     H28566   1.923   0.616   2.404  0.1219  0.1134  0.9166
  212MOL0     H28567   2.076   0.767   2.188 -0.7464  0.1622 -0.0711
  212MOL0     H28568   2.117   0.614   2.262 -0.0167  0.3634 -3.9866
  212MOL0     H28569   2.127   0.898   2.381  1.6151 -0.0794 -0.6962
  212MOL0     H28570   2.109   0.756   2.495  2.5023 -2.8174  1.0600
  212MOL0     H28571   2.309   0.549   2.377  3.3998 -2.1836 -1.0395
  212MOL0     H28572   2.648   0.627   2.557 -1.9680  0.5182  1.1442
  212MOL0     H28573   2.552   0.493   2.497 -0.7040  0.5343  2.5718
  212MOL0     H28574   2.621   0.540   2.267 -0.3083  1.0455 -0.3828
  212MOL0     H28575   2.724   0.674   2.314  1.1253 -0.1613  1.8588
  212MOL0     H28576   2.850   0.470   2.268  1.0626  1.3983 -0.0772
  212MOL0     H28577   2.775   0.403   2.409 -2.7407 -0.0649 -0.3691
  212MOL0     H28578   2.989   0.501   2.477 -1.4368 -0.4194  1.0016
  212MOL0     H28579   2.875   0.625   2.526 -1.0760 -0.1677  0.4375
  212MOL0     H28580   3.126   0.521   2.222 -1.8771  1.8444 -1.1971
  212MOL0     H28581   3.379   0.555   2.227  0.7736  1.1659 -0.9447
  212MOL0     H28582   3.779   0.648   2.170  3.2916  1.3078 -1.9202
  212MOL0     H28583   4.032   0.664   2.246  1.9734 -0.6101  2.4058
  212MOL0     H28584   4.175   0.553   2.657  1.5159  0.6786  1.1452
  212MOL0     H28585   4.302   0.609   2.561 -1.0339 -2.1373 -0.5033
  212MOL0     H28586   4.202   0.839   2.532 -3.1810  0.3610 -2.0290
  212MOL0     H28587   4.055   0.791   2.596  0.0851  0.0918 -0.6758
  212MOL0     H28588   4.158   0.744   2.829 -1.1960  0.7150  0.6675
  212MOL0     H28589   4.316   0.783   2.755 -0.5608  0.0765 -2.3643
  212MOL0     H28590   4.082   0.979   2.765 -0.0665  2.2268  1.3559
  212MOL0     H28591   4.238   1.024   2.725  1.0486  0.5046  1.3758
  212MOL0     H28592   4.312   0.960   2.954 -0.0530 -1.1689  0.1323
  212MOL0     H28593   4.134   0.926   2.995 -3.2697  1.7200  0.4963
  212MOL0     H28594   4.232   1.189   2.893  1.9488 -2.6742 -2.1771
  212MOL0     H28595   4.081   1.142   2.949  0.8982  0.9436 -0.2092
  212MOL0     H28596   4.263   1.263   3.123  2.4082 -1.1136  1.7205
  212MOL0     H28597   4.324   1.105   3.140 -0.6932  0.5565  3.4215
  212MOL0     H28598   4.040   1.101   3.196 -0.3394  0.6484  2.7131
  212MOL0     H28599   4.191   1.021   3.247 -1.5697 -1.6541 -0.9370
  212MOL0     H28600   3.923   0.487   2.620 -2.1469  1.1148  0.6642
  212MOL0     H28601   3.694   0.500   2.560  0.7969 -4.0267 -1.3457
  212MOL0     H28602   3.339   0.847   2.537  0.0124  0.1174  0.1707
  212MOL0     H28603   3.077   0.837   2.495 -0.1480  0.2788  1.2970
  212MOL0     H28604   1.172   0.813   2.383 -0.0407 -1.4379 -0.5604
  212MOL0     H28605   0.980   0.936   2.412 -0.1516  6.4538 -4.5038
  212MOL0     H28606   0.556   0.926   2.113  0.8657  4.3169 -3.5334
  212MOL0     H28607   0.334   0.958   2.059  0.7952 -2.7326  2.3562
  212MOL0     H28608   0.159   1.351   2.237 -0.4809 -0.0418 -0.6228
  212MOL0     H28609   0.087   1.221   2.328 -0.5217 -3.0319 -0.9637
  212MOL0     H28610  -0.071   1.352   2.182 -1.6649 -0.2069  0.2102
  212MOL0     H28611  -0.081   1.179   2.165  0.1919 -0.7515 -0.9495
  212MOL0     H28612   0.066   1.199   1.946  1.6932  2.0660 -2.1626
  212MOL0     H28613   0.092   1.369   1.978 -1.2176  0.8093  0.7048
  212MOL0     H28614  -0.145   1.407   1.949 -1.1739 -1.2087 -0.3409
  212MOL0     H28615  -0.064   1.341   1.804  1.6009 -0.3181  0.3625
  212MOL0     H28616  -0.328   1.036   1.846  0.2270 -1.1334  0.0787
  212MOL0     H28617   0.310   1.256   2.375  0.9991  1.1758  1.1697
  212MOL0     H28618   0.475   1.285   2.528 -1.1868 -2.4995  1.0213
  212MOL0     H28619   0.590   1.157   2.558  0.8043  0.9811  1.8366
  212MOL0     H28620   0.632   1.294   2.444 -0.0870  0.2059  1.5933
  213MOL0     O28621   6.697   2.643   4.015 -0.5421 -0.1692  0.1915
  213MOL0     C28622   6.671   2.531   4.060  0.1037  0.4035 -0.2289
  213MOL0     O28623   6.731   2.477   4.170  0.3022  0.1239 -0.2181
  213MOL0     C28624   6.844   2.540   4.211 -0.2497 -0.3897  0.0254
  213MOL0     C28625   6.859   2.585   4.342  0.3481 -0.4299  0.4954
  213MOL0     C28626   6.970   2.655   4.390 -0.0895 -1.0846  1.2786
  213MOL0     C28627   7.081   2.662   4.301  0.3377  0.3499 -0.1667
  213MOL0     O28628   7.195   2.723   4.355 -0.3202 -0.4809 -0.1248
  213MOL0     C28629   7.316   2.679   4.298  0.1090  0.0267 -1.1338
  213MOL0     C28630   7.423   2.718   4.405  0.5610  0.1348 -0.8104
  213MOL0     C28631   7.567   2.685   4.355 -0.6839 -0.3009 -0.0390
  213MOL0     C28632   7.667   2.713   4.469 -0.0404  0.1760  0.4985
  213MOL0     C28633   7.803   2.664   4.430  0.3118  0.3134  0.2453
  213MOL0     C28634   7.916   2.694   4.538  0.2460  1.0188  0.3795
  213MOL0     C28635   8.039   2.616   4.478  0.0940  1.0036  0.1402
  213MOL0     C28636   8.147   2.598   4.595 -0.1143 -0.7119 -0.2077
  213MOL0     N28637   8.255   2.515   4.538 -0.7417  0.2017  0.3125
  213MOL0     C28638   8.258   2.388   4.480  0.3287  0.2891 -0.4711
  213MOL0     C28639   8.376   2.386   4.422 -0.5177  0.5382 -0.1232
  213MOL0     C28640   8.442   2.272   4.345 -0.3761  0.7056  0.4404
  213MOL0     C28641   8.538   2.194   4.431 -0.7795 -0.7410  0.0058
  213MOL0     C28642   8.690   2.232   4.408  0.3487  0.4147 -0.2911
  213MOL0     C28643   8.742   2.228   4.267 -0.2350 -0.0569 -0.1737
  213MOL0     O28644   8.881   2.254   4.284 -0.3247 -0.4531  0.5687
  213MOL0     C28645   8.972   2.209   4.192  0.0606  0.2614 -0.6607
  213MOL0     C28646   8.934   2.161   4.064  0.4969 -0.3481 -0.3466
  213MOL0     C28647   9.024   2.093   3.987 -0.3040 -0.5145 -0.1671
  213MOL0     C28648   9.155   2.068   4.035 -0.2373 -0.3027  0.4061
  213MOL0     C28649   9.252   2.008   3.937 -0.3792 -0.6134  0.4638
  213MOL0     O28650   9.386   2.036   3.963  0.3489  0.1960 -0.5573
  213MOL0     C28651   9.483   1.957   3.900  0.3908  0.2003 -0.8620
  213MOL0     C28652   9.596   2.008   3.833  0.6248 -0.4822 -0.2435
  213MOL0     C28653   9.685   1.923   3.774 -0.3024  0.2225 -0.3127
  213MOL0     C28654   9.677   1.787   3.796 -0.3159  0.1877 -0.1794
  213MOL0     O28655   9.769   1.697   3.750 -0.2230  0.4568 -0.1334
  213MOL0     C28656   9.904   1.738   3.735  0.5608 -0.7530  1.6987
  213MOL0     C28657   9.988   1.604   3.749 -0.2544 -0.8349 -0.1270
  213MOL0     C28658  10.145   1.617   3.729 -0.5718  0.8631 -0.4237
  213MOL0     C28659  10.210   1.700   3.844  0.1770 -1.2007 -0.0265
  213MOL0     C28660  10.362   1.748   3.831  0.4010 -0.6484  0.3039
  213MOL0     C28661  10.451   1.668   3.734  0.5209  0.3511 -0.9528
  213MOL0     C28662  10.483   1.527   3.793  0.3655 -0.0988 -0.3773
  213MOL0     C28663  10.587   1.457   3.719 -0.3540  0.4917  1.1655
  213MOL0    Cl28664  10.576   1.278   3.766  0.4143  0.1294 -0.2729
  213MOL0     C28665   9.572   1.733   3.868 -0.7276 -0.1129 -0.2421
  213MOL0     C28666   9.473   1.818   3.916  0.3210  0.1709  0.0910
  213MOL0     O28667   9.217   1.958   3.834 -0.8631  0.6310 -0.0314
  213MOL0     C28668   9.191   2.118   4.159  0.6040  0.1442 -0.1490
  213MOL0     C28669   9.102   2.202   4.231  0.0540  0.3065 -0.9201
  213MOL0     N28670   8.447   2.496   4.446  0.8058 -0.5969  0.0364
  213MOL0     N28671   8.372   2.574   4.511  0.6693 -0.3498 -0.0762
  213MOL0     C28672   7.072   2.603   4.181  0.3462  0.2207  0.2541
  213MOL0     C28673   6.953   2.552   4.130  0.1477 -0.6583  0.3899
  213MOL0     C28674   6.559   2.451   4.001 -0.2482  0.4162 -0.1004
  213MOL0     C28675   6.526   2.332   4.066  0.1647 -0.3738  0.2686
  213MOL0     C28676   6.409   2.257   4.031 -0.4155 -0.5010  0.3559
  213MOL0     C28677   6.327   2.298   3.923 -1.0617 -1.1963 -0.4923
  213MOL0     O28678   6.218   2.215   3.889  0.2832  0.5425  0.1932
  213MOL0     C28679   6.195   2.085   3.951 -0.2731  0.6982 -0.1663
  213MOL0     C28680   6.092   2.007   3.883  0.0863  0.2219 -0.9311
  213MOL0     C28681   6.123   1.959   3.741 -0.0611 -0.1305  0.0618
  213MOL0     C28682   5.994   1.905   3.661 -0.3375 -0.8894  0.0705
  213MOL0     C28683   6.015   1.897   3.509  0.1245  0.6994 -0.9305
  213MOL0     C28684   6.035   1.880   3.394 -0.5289 -0.6090 -0.5551
  213MOL0     C28685   6.368   2.416   3.852  0.9719  0.7445  0.5253
  213MOL0     C28686   6.481   2.487   3.888 -0.4097  0.5731  0.5666
  213MOL0     C28687   6.502   2.614   3.809 -0.2595 -0.7671 -0.1332
  213MOL0     H28688   6.776   2.569   4.410 -1.7523 -2.0432 -2.2619
  213MOL0     H28689   6.966   2.688   4.494  1.5807 -4.2812  2.5102
  213MOL0     H28690   7.305   2.571   4.280  2.1652 -0.4264  0.0068
  213MOL0     H28691   7.341   2.737   4.209 -0.6774 -0.1567 -1.4798
  213MOL0     H28692   7.387   2.663   4.492 -0.5630  2.5287  0.3458
  213MOL0     H28693   7.410   2.826   4.420 -0.8928 -0.0497 -0.6228
  213MOL0     H28694   7.592   2.741   4.265 -4.3838  0.8371 -0.4914
  213MOL0     H28695   7.565   2.580   4.325 -2.9882  0.1687 -1.8057
  213MOL0     H28696   7.674   2.821   4.484 -1.6550  0.1653  1.5039
  213MOL0     H28697   7.634   2.666   4.561 -0.0340 -2.1200 -0.6003
  213MOL0     H28698   7.799   2.560   4.397 -1.5639  1.0895 -2.2060
  213MOL0     H28699   7.830   2.729   4.347  2.1455 -1.4439 -0.6302
  213MOL0     H28700   7.918   2.803   4.548 -1.1003  0.9419  1.7184
  213MOL0     H28701   7.895   2.655   4.638  1.1730  1.5102  0.7869
  213MOL0     H28702   8.079   2.666   4.389 -2.4149  1.7874 -0.6373
  213MOL0     H28703   8.014   2.515   4.446  1.9327  0.5776 -0.0849
  213MOL0     H28704   8.182   2.700   4.613 -0.8940 -0.8695  2.5937
  213MOL0     H28705   8.111   2.544   4.682  1.2695  0.1188  0.9401
  213MOL0     H28706   8.189   2.305   4.469  0.5243 -0.2739  1.8955
  213MOL0     H28707   8.364   2.207   4.305 -1.6616  1.4776  1.5823
  213MOL0     H28708   8.489   2.316   4.257  1.7470 -0.2352  1.0339
  213MOL0     H28709   8.515   2.212   4.537 -2.4588 -1.2040 -0.2374
  213MOL0     H28710   8.522   2.087   4.416  0.5349 -1.4932  3.1508
  213MOL0     H28711   8.755   2.162   4.461 -0.5771  0.1142  0.4666
  213MOL0     H28712   8.709   2.332   4.449  0.4467 -1.0696  3.6836
  213MOL0     H28713   8.688   2.303   4.208 -3.0460 -0.9086  1.1133
  213MOL0     H28714   8.727   2.135   4.211  1.7737  0.4592 -1.6532
  213MOL0     H28715   8.832   2.173   4.028 -0.8607  4.3506  3.9049
  213MOL0     H28716   8.989   2.065   3.889 -1.1209 -0.2881  0.0540
  213MOL0     H28717   9.610   2.114   3.814 -1.8784  0.1209  0.7584
  213MOL0     H28718   9.763   1.967   3.713  2.3462 -2.2764  1.0198
  213MOL0     H28719   9.930   1.769   3.633  0.4283  1.1158  2.2002
  213MOL0     H28720   9.936   1.816   3.804  1.0119  0.0277  0.6312
  213MOL0     H28721   9.973   1.565   3.850 -1.9552  0.1843  0.0461
  213MOL0     H28722   9.944   1.537   3.674 -0.3966 -2.4492  1.3422
  213MOL0     H28723  10.179   1.514   3.743  0.0827  1.3670  2.2347
  213MOL0     H28724  10.169   1.665   3.633  0.4940 -0.1823 -0.6992
  213MOL0     H28725  10.201   1.633   3.930  3.1263 -0.1703  1.2227
  213MOL0     H28726  10.146   1.789   3.853  0.4250 -1.0576  0.3679
  213MOL0     H28727  10.416   1.753   3.926  2.2359 -0.6837 -0.6876
  213MOL0     H28728  10.362   1.849   3.790 -1.8669 -0.1889  1.2831
  213MOL0     H28729  10.421   1.665   3.629  0.7452  0.0719 -1.0106
  213MOL0     H28730  10.543   1.726   3.731 -0.9242  2.8200 -0.4418
  213MOL0     H28731  10.396   1.462   3.785  0.0789  0.2154  0.1283
  213MOL0     H28732  10.511   1.541   3.898  1.4457 -0.0946 -0.6534
  213MOL0     H28733  10.567   1.463   3.611 -3.0361 -0.5328  1.5206
  213MOL0     H28734  10.688   1.494   3.737 -0.3004  0.2536  1.3420
  213MOL0     H28735   9.568   1.626   3.880  0.8562 -0.3277 -1.2649
  213MOL0     H28736   9.386   1.766   3.954  0.4465 -1.4640 -1.7218
  213MOL0     H28737   9.295   2.114   4.190  1.4342  0.1406 -2.6699
  213MOL0     H28738   9.148   2.256   4.313 -2.0324 -2.5154  2.3460
  213MOL0     H28739   7.162   2.590   4.121 -1.6206 -1.9249 -2.5564
  213MOL0     H28740   6.954   2.510   4.030  1.2751 -0.9600  0.5155
  213MOL0     H28741   6.588   2.296   4.147 -1.9498 -2.7783  0.9569
  213MOL0     H28742   6.386   2.178   4.102 -0.6765 -1.1507 -0.4380
  213MOL0     H28743   6.177   2.110   4.056  0.9685 -1.2971  0.5769
  213MOL0     H28744   6.293   2.036   3.954  0.0370  1.2541 -0.8933
  213MOL0     H28745   6.008   2.077   3.878 -0.8621 -0.6770  1.1880
  213MOL0     H28746   6.064   1.926   3.951 -1.5076  0.4364 -1.2965
  213MOL0     H28747   6.186   1.869   3.748  0.3978  0.1089 -0.8022
  213MOL0     H28748   6.172   2.042   3.690 -1.8025  1.5459  0.9805
  213MOL0     H28749   5.960   1.808   3.699  0.3317 -0.8178  0.8781
  213MOL0     H28750   5.911   1.974   3.681  0.4516  1.2697 -3.2325
  213MOL0     H28751   6.054   1.870   3.289 -1.1991  1.4093 -0.9008
  213MOL0     H28752   6.310   2.459   3.771 -0.5683 -1.1027  0.5775
  213MOL0     H28753   6.432   2.644   3.730  0.4323  0.3589 -0.3511
  213MOL0     H28754   6.507   2.695   3.882 -0.3770 -2.1324  1.4246
  213MOL0     H28755   6.596   2.613   3.752  0.8991  0.0175  1.6743
  214MOL0     O28756   1.494   9.616   9.469 -0.7439  0.2156  0.0246
  214MOL0     C28757   1.421   9.581   9.563 -0.0019  0.3929  0.0262
  214MOL0     O28758   1.462   9.546   9.691 -0.4395  0.4700 -0.1966
  214MOL0     C28759   1.594   9.554   9.724  0.6691 -0.5724  0.1234
  214MOL0     C28760   1.668   9.661   9.685 -1.0458 -0.8145 -0.0034
  214MOL0     C28761   1.799   9.680   9.740 -0.9615  0.2907  0.0921
  214MOL0     C28762   1.862   9.573   9.818 -0.1152  0.4964 -0.5433
  214MOL0     O28763   1.983   9.576   9.884  0.5526 -0.1120 -0.2457
  214MOL0     C28764   2.090   9.642   9.810  1.0151  0.4020 -0.7296
  214MOL0     C28765   2.224   9.620   9.866 -0.1548 -0.0625  0.1703
  214MOL0     C28766   2.325   9.696   9.784  0.1079  0.3739 -0.3931
  214MOL0     C28767   2.462   9.676   9.846  0.8402 -0.2852  0.4756
  214MOL0     C28768   2.566   9.752   9.775 -0.6357  0.6615 -0.1106
  214MOL0     C28769   2.577   9.714   9.627  0.5462 -0.2699  0.3646
  214MOL0     C28770   2.693   9.793   9.571  0.2410  0.7796  0.2659
  214MOL0     C28771   2.830   9.731   9.596  0.2678 -0.4668  0.1374
  214MOL0     N28772   2.946   9.826   9.557  0.1456 -0.2834  0.3224
  214MOL0     C28773   3.036   9.785   9.451 -0.1577 -0.1287  0.7377
  214MOL0     C28774   3.144   9.869   9.467  0.4584  0.1628 -0.7580
  214MOL0     C28775   3.271   9.857   9.379  0.3527  1.0032  0.3134
  214MOL0     C28776   3.393   9.900   9.457 -0.6107 -0.6966 -0.9435
  214MOL0     C28777   3.533   9.885   9.382 -0.7126  0.6282 -0.1081
  214MOL0     C28778   3.651   9.945   9.458  0.2385  0.4918  0.3853
  214MOL0     O28779   3.624  10.072   9.528 -0.0616  0.3962  0.3020
  214MOL0     C28780   3.735  10.150   9.539 -0.5085 -0.2245  0.1488
  214MOL0     C28781   3.715  10.288   9.527 -0.6995 -0.3693  0.1015
  214MOL0     C28782   3.823  10.381   9.538  0.9044 -0.0384 -0.1666
  214MOL0     C28783   3.950  10.331   9.564 -0.2086  0.7579  0.1389
  214MOL0     C28784   4.064  10.428   9.570  0.5712  0.0589 -1.1040
  214MOL0     O28785   4.044  10.544   9.503 -0.1631 -0.3556  0.3424
  214MOL0     C28786   4.137  10.641   9.544  0.1927  1.0333 -0.6166
  214MOL0     C28787   4.268  10.624   9.500 -0.3288 -0.1477  0.3572
  214MOL0     C28788   4.364  10.716   9.533 -0.2593 -0.1256  0.4967
  214MOL0     C28789   4.327  10.836   9.604 -0.2534  0.2416 -0.1117
  214MOL0     O28790   4.413  10.933   9.643 -0.0857 -0.3332 -0.7209
  214MOL0     C28791   4.548  10.921   9.625  0.0342 -0.3015  0.1269
  214MOL0     C28792   4.602  11.043   9.707  0.9286 -0.3683 -0.3852
  214MOL0     C28793   4.752  11.044   9.697 -0.2169 -0.2059  0.1854
  214MOL0     C28794   4.813  11.143   9.802 -0.0920  0.3188 -0.1393
  214MOL0     C28795   4.963  11.143   9.807  0.4812  0.1611  0.1337
  214MOL0     C28796   5.031  11.230   9.908  0.5047  0.0569 -0.9087
  214MOL0     C28797   5.172  11.268   9.854  0.1839  0.1271 -0.1909
  214MOL0     C28798   5.276  11.307   9.968 -0.2838 -0.1536 -0.0164
  214MOL0    Cl28799   5.419  11.366   9.871 -0.1083 -0.0177 -0.1232
  214MOL0     C28800   4.191  10.849   9.635  0.7660 -0.1243  0.6185
  214MOL0     C28801   4.097  10.756   9.599 -0.9527  0.6405  0.0239
  214MOL0     O28802   4.152  10.408   9.655 -0.2499  0.0003 -0.0219
  214MOL0     C28803   3.968  10.192   9.566 -0.3414  0.6587 -1.0717
  214MOL0     C28804   3.862  10.102   9.559  0.2943  0.1396  0.0807
  214MOL0     N28805   3.121   9.943   9.576  0.7224 -0.3697  0.7238
  214MOL0     N28806   3.005   9.924   9.632 -0.0980 -0.1355 -0.3433
  214MOL0     C28807   1.785   9.457   9.850 -0.7234 -0.6616 -1.1483
  214MOL0     C28808   1.663   9.453   9.797  0.6265 -0.0850  0.3804
  214MOL0     C28809   1.273   9.602   9.538 -0.4250  0.2366 -0.1067
  214MOL0     C28810   1.189   9.495   9.586  0.2186  0.4354  0.1708
  214MOL0     C28811   1.054   9.516   9.577  0.2222  0.4011  0.1715
  214MOL0     C28812   0.995   9.623   9.504 -1.0617 -0.0085 -0.7697
  214MOL0     O28813   0.855   9.618   9.484 -0.0889 -0.3956 -0.6198
  214MOL0     C28814   0.792   9.720   9.397  0.2829  0.2351 -0.7748
  214MOL0     C28815   0.769   9.854   9.475 -0.5444 -0.1028 -0.6383
  214MOL0     C28816   0.664   9.836   9.581  0.2693 -0.4591 -0.8284
  214MOL0     C28817   0.666   9.964   9.671 -0.3805 -0.2875 -0.1473
  214MOL0     C28818   0.550   9.955   9.761  0.7094  0.0036  0.4850
  214MOL0     C28819   0.457   9.952   9.842 -0.5896 -0.4017 -0.8784
  214MOL0     C28820   1.085   9.719   9.449  0.5056  1.1002 -0.0682
  214MOL0     C28821   1.220   9.710   9.462  0.0391 -0.3892  0.2720
  214MOL0     C28822   1.304   9.808   9.386  0.0821 -0.1378 -0.1994
  214MOL0     H28823   1.622   9.749   9.640 -1.4813 -0.1597  1.6489
  214MOL0     H28824   1.851   9.768   9.704  1.3324 -0.9478  0.1796
  214MOL0     H28825   2.088   9.596   9.712 -3.9486 -4.0601  0.9971
  214MOL0     H28826   2.070   9.750   9.805 -1.9989 -0.0542 -0.7823
  214MOL0     H28827   2.233   9.511   9.866 -1.9961 -0.2598  1.3046
  214MOL0     H28828   2.222   9.661   9.968 -1.7872  1.8125 -0.5504
  214MOL0     H28829   2.298   9.801   9.794 -1.3805  0.0681 -0.8948
  214MOL0     H28830   2.317   9.667   9.679 -1.4361  0.1329 -0.2374
  214MOL0     H28831   2.462   9.710   9.949  0.4217 -0.2644  0.4703
  214MOL0     H28832   2.491   9.570   9.846  0.1705 -0.5300 -1.8621
  214MOL0     H28833   2.540   9.858   9.777 -1.6152  0.4265  1.4078
  214MOL0     H28834   2.660   9.749   9.831  0.6070  0.8168 -2.0988
  214MOL0     H28835   2.585   9.606   9.617 -1.8374 -0.5914  1.1597
  214MOL0     H28836   2.479   9.728   9.580  0.6727 -3.3195 -0.9998
  214MOL0     H28837   2.691   9.895   9.610  0.7482  0.5059  1.0282
  214MOL0     H28838   2.675   9.810   9.464 -1.0882  1.5188  0.5829
  214MOL0     H28839   2.842   9.700   9.700 -1.2260  3.1924  1.6036
  214MOL0     H28840   2.836   9.643   9.532 -1.4188 -1.1221  0.7966
  214MOL0     H28841   3.012   9.708   9.378  1.1582 -0.9563  1.1423
  214MOL0     H28842   3.287   9.752   9.354 -1.4915  0.5584  0.8813
  214MOL0     H28843   3.254   9.914   9.287  1.0348 -0.8729 -1.0348
  214MOL0     H28844   3.376  10.005   9.485  0.9085 -1.0102  1.4542
  214MOL0     H28845   3.402   9.845   9.551 -0.1453 -1.5872 -1.4993
  214MOL0     H28846   3.530   9.922   9.280  1.1620 -0.7095 -0.7057
  214MOL0     H28847   3.551   9.779   9.361 -2.1369 -0.5413  3.7451
  214MOL0     H28848   3.732   9.952   9.384 -0.4046 -1.7258 -0.6404
  214MOL0     H28849   3.682   9.870   9.532  0.5619 -1.5021 -1.6371
  214MOL0     H28850   3.612  10.311   9.503 -1.3841 -0.6254  2.5236
  214MOL0     H28851   3.803  10.485   9.515 -2.6949  0.3066  3.4447
  214MOL0     H28852   4.295  10.533   9.448  0.2167 -1.7302  3.2145
  214MOL0     H28853   4.470  10.711   9.508 -0.0498 -1.9803  1.5186
  214MOL0     H28854   4.575  10.823   9.663  1.6807  0.4198  0.9379
  214MOL0     H28855   4.591  10.934   9.525  2.7913 -0.3243  1.2267
  214MOL0     H28856   4.570  11.137   9.662  1.9002  2.0149  3.4234
  214MOL0     H28857   4.570  11.030   9.810 -0.7856  0.3325 -0.7960
  214MOL0     H28858   4.789  10.944   9.721  0.2304 -0.4109 -1.2758
  214MOL0     H28859   4.796  11.056   9.598  3.0461 -2.5920  1.1713
  214MOL0     H28860   4.783  11.100   9.898  2.4887  0.1773  0.6981
  214MOL0     H28861   4.772  11.245   9.799 -0.7154  0.0865  0.3426
  214MOL0     H28862   4.978  11.202   9.716 -0.0802 -0.0536 -0.1030
  214MOL0     H28863   5.013  11.045   9.802  0.7444  0.3092 -0.2322
  214MOL0     H28864   4.957  11.308   9.929  2.0093  2.2702 -3.2234
  214MOL0     H28865   5.028  11.177  10.004 -0.2755  0.9906 -0.4027
  214MOL0     H28866   5.158  11.355   9.789 -0.6052 -0.0313 -0.2459
  214MOL0     H28867   5.215  11.190   9.790  0.5072 -1.9811  2.4381
  214MOL0     H28868   5.245  11.383  10.040  1.2883 -0.8589  1.4756
  214MOL0     H28869   5.297  11.221  10.032 -2.0342 -0.0547  0.7299
  214MOL0     H28870   4.158  10.943   9.678  1.7654  0.5414  0.0064
  214MOL0     H28871   3.991  10.770   9.619 -0.8374  1.0223  0.3828
  214MOL0     H28872   4.063  10.146   9.588 -0.9201 -0.0230  0.0708
  214MOL0     H28873   3.893   9.999   9.569 -1.4926 -0.4393 -0.0796
  214MOL0     H28874   1.825   9.391   9.927  2.9559  2.4927 -0.0103
  214MOL0     H28875   1.614   9.359   9.822  1.7565 -1.2608 -1.6254
  214MOL0     H28876   1.223   9.404   9.633 -2.0675  1.7964  5.0844
  214MOL0     H28877   0.990   9.433   9.606  0.3931  0.3578  0.4331
  214MOL0     H28878   0.694   9.677   9.371  0.5763 -2.3861  1.8875
  214MOL0     H28879   0.842   9.728   9.301 -0.9606  2.6440 -1.3014
  214MOL0     H28880   0.724   9.932   9.412 -3.6285  1.0803  2.6540
  214MOL0     H28881   0.866   9.877   9.521  1.3149 -3.5688 -2.4482
  214MOL0     H28882   0.676   9.746   9.642 -0.5944  0.1780  0.3286
  214MOL0     H28883   0.565   9.830   9.535 -0.3061  1.2396  0.1058
  214MOL0     H28884   0.767   9.973   9.714 -0.1881 -1.7162 -0.2280
  214MOL0     H28885   0.647  10.046   9.602 -1.1373 -0.2787  0.0652
  214MOL0     H28886   0.371   9.956   9.906 -1.4108  4.4860 -1.8972
  214MOL0     H28887   1.040   9.803   9.397 -0.8122  0.9609  0.7871
  214MOL0     H28888   1.398   9.841   9.432 -1.5583  1.7238  2.0879
  214MOL0     H28889   1.336   9.768   9.289 -1.6090 -1.9189 -0.0700
  214MOL0     H28890   1.242   9.895   9.362  1.3369  1.0186  0.6028
  215MOL0     O28891   2.309   1.845   7.489 -0.3590  0.2754  0.0244
  215MOL0     C28892   2.324   1.833   7.369  0.1017 -0.4884 -0.0491
  215MOL0     O28893   2.420   1.891   7.289 -0.3577 -0.9506 -0.4824
  215MOL0     C28894   2.520   1.963   7.353 -0.0187  0.2011  0.2151
  215MOL0     C28895   2.482   2.071   7.433 -0.8742 -0.2619  0.9440
  215MOL0     C28896   2.573   2.145   7.503 -0.0317  0.2825  0.6492
  215MOL0     C28897   2.710   2.099   7.491  0.4280  0.3625 -0.6047
  215MOL0     O28898   2.815   2.153   7.562  0.5527  0.0328  0.3684
  215MOL0     C28899   2.799   2.209   7.691 -0.6879  0.0885  0.5055
  215MOL0     C28900   2.930   2.179   7.777 -0.2873  0.1464 -0.0668
  215MOL0     C28901   2.924   2.028   7.819  0.4020 -0.4629 -0.7597
  215MOL0     C28902   3.033   1.996   7.921  0.3557 -0.3612  0.2592
  215MOL0     C28903   3.025   1.862   7.990 -0.2081  0.1012 -0.9148
  215MOL0     C28904   3.154   1.815   8.063 -0.5733 -0.6873 -0.3811
  215MOL0     C28905   3.282   1.798   7.979 -0.7399 -0.9470  0.1285
  215MOL0     C28906   3.410   1.769   8.064 -0.1796  0.1255  0.7694
  215MOL0     N28907   3.406   1.630   8.119 -1.3993 -0.3636  0.5935
  215MOL0     C28908   3.353   1.584   8.225  0.5442  1.1066 -0.2142
  215MOL0     C28909   3.364   1.447   8.220 -0.5369  0.0619 -0.4412
  215MOL0     C28910   3.336   1.363   8.342 -0.2524 -0.0357 -0.5167
  215MOL0     C28911   3.207   1.279   8.317 -0.1382  0.6659  0.0302
  215MOL0     C28912   3.077   1.365   8.311  0.3060  0.3700 -0.7638
  215MOL0     C28913   2.945   1.287   8.329  0.1212  0.9181  0.1210
  215MOL0     O28914   2.950   1.172   8.241 -0.1620 -0.8417 -0.3138
  215MOL0     C28915   2.842   1.102   8.216  1.1497  0.2496 -0.4945
  215MOL0     C28916   2.841   0.999   8.124 -0.7535 -0.3689  0.0144
  215MOL0     C28917   2.724   0.922   8.090 -0.5589  0.0189 -0.0611
  215MOL0     C28918   2.602   0.956   8.160 -0.2492  0.2753 -0.2573
  215MOL0     C28919   2.479   0.880   8.125 -0.4799  0.1390 -0.3845
  215MOL0     O28920   2.367   0.921   8.181 -0.2257 -0.4948 -0.4093
  215MOL0     C28921   2.244   0.896   8.126  0.1449 -1.0146  0.3999
  215MOL0     C28922   2.192   0.941   7.998  0.0297 -0.8769  0.6613
  215MOL0     C28923   2.066   0.907   7.947 -0.1881 -0.7277  0.2697
  215MOL0     C28924   1.985   0.821   8.014 -0.3703 -0.2781 -0.2040
  215MOL0     O28925   1.863   0.782   7.984 -0.8692  0.3586 -0.5324
  215MOL0     C28926   1.820   0.786   7.847 -0.5532 -0.1683  0.2132
  215MOL0     C28927   1.712   0.683   7.832  0.4465  0.1216 -0.6218
  215MOL0     C28928   1.627   0.726   7.713 -0.5443 -0.2841 -0.1681
  215MOL0     C28929   1.483   0.697   7.736  0.0453  0.7420 -0.4633
  215MOL0     C28930   1.414   0.710   7.607  0.5017 -0.2221 -0.3335
  215MOL0     C28931   1.257   0.712   7.624 -0.8525 -0.1271  0.7363
  215MOL0     C28932   1.194   0.738   7.487  0.8473  0.5373  0.2241
  215MOL0     C28933   1.040   0.744   7.516  0.3446  0.8003  0.0659
  215MOL0    Cl28934   0.952   0.754   7.363 -0.1545 -0.3311 -0.5865
  215MOL0     C28935   2.033   0.772   8.136 -0.2957 -0.4872  0.6406
  215MOL0     C28936   2.161   0.803   8.185  0.3236 -0.1178  0.0975
  215MOL0     O28937   2.482   0.795   8.037  0.5156  0.0998 -0.1583
  215MOL0     C28938   2.602   1.057   8.254  0.4239 -0.1259  0.5318
  215MOL0     C28939   2.717   1.134   8.277  0.2267  0.7324 -0.3550
  215MOL0     N28940   3.440   1.420   8.115  0.1310  0.3744 -0.2328
  215MOL0     N28941   3.468   1.527   8.053 -0.1357  0.3366  0.5221
  215MOL0     C28942   2.748   1.996   7.406  0.5782 -0.8545 -0.1497
  215MOL0     C28943   2.653   1.935   7.324 -0.5404 -0.3310 -0.1193
  215MOL0     C28944   2.227   1.739   7.297 -0.6844 -0.4201  0.0977
  215MOL0     C28945   2.184   1.787   7.180 -0.4794 -0.1173 -0.5282
  215MOL0     C28946   2.089   1.712   7.111 -0.0543 -0.1240  0.0131
  215MOL0     C28947   2.036   1.590   7.154 -0.4675 -0.3289  0.0102
  215MOL0     O28948   1.948   1.513   7.088 -0.4429  0.1011  0.4786
  215MOL0     C28949   1.872   1.568   6.988 -0.2946  1.0689  0.0575
  215MOL0     C28950   1.775   1.457   6.945  0.5869  0.2681 -0.3692
  215MOL0     C28951   1.711   1.488   6.808  0.5067 -0.2518  0.8814
  215MOL0     C28952   1.800   1.478   6.683 -0.2581  0.0515 -0.5013
  215MOL0     C28953   1.717   1.463   6.560 -0.1099 -0.1249 -0.7441
  215MOL0     C28954   1.662   1.446   6.459  0.5777  0.8577  0.7114
  215MOL0     C28955   2.079   1.546   7.275  0.1543 -0.4781  0.6017
  215MOL0     C28956   2.169   1.618   7.349  0.5834 -0.1717 -0.1091
  215MOL0     C28957   2.197   1.556   7.481 -0.4590 -0.0477 -0.2096
  215MOL0     H28958   2.374   2.082   7.444 -1.0822 -2.0334  1.0203
  215MOL0     H28959   2.547   2.225   7.570 -1.9335 -0.1369  0.4699
  215MOL0     H28960   2.790   2.318   7.683  2.4190  0.4028  0.3244
  215MOL0     H28961   2.718   2.159   7.745  0.7559 -0.2877  2.4217
  215MOL0     H28962   2.930   2.238   7.868 -1.2064  0.3656 -0.1952
  215MOL0     H28963   3.023   2.204   7.726  0.5745 -0.5393  1.1202
  215MOL0     H28964   2.929   1.962   7.732 -1.3815 -1.5829 -0.0671
  215MOL0     H28965   2.825   2.002   7.857  1.1391 -1.3523  0.6369
  215MOL0     H28966   3.119   1.998   7.854  0.1593 -2.7511 -0.1352
  215MOL0     H28967   3.040   2.076   7.996 -2.2652  0.1846  0.0131
  215MOL0     H28968   2.952   1.869   8.071 -0.4765  1.2804 -1.2354
  215MOL0     H28969   2.996   1.786   7.916  1.7842 -1.9044  0.2321
  215MOL0     H28970   3.180   1.893   8.136 -0.9970 -0.1646 -0.7758
  215MOL0     H28971   3.132   1.734   8.133 -0.3212  0.4594  1.0804
  215MOL0     H28972   3.294   1.889   7.919  1.2298 -1.0327  0.3013
  215MOL0     H28973   3.278   1.716   7.907  1.5291 -0.9976 -0.0264
  215MOL0     H28974   3.496   1.774   7.997 -0.3670  1.1814  0.5807
  215MOL0     H28975   3.408   1.842   8.146  1.2651 -0.2940  1.2110
  215MOL0     H28976   3.306   1.644   8.301 -0.4725 -0.8671  0.8104
  215MOL0     H28977   3.424   1.299   8.354 -0.2641  0.2073  0.9745
  215MOL0     H28978   3.315   1.433   8.423 -0.8441 -0.5182 -0.2460
  215MOL0     H28979   3.223   1.227   8.222 -1.5263 -3.6126  1.8902
  215MOL0     H28980   3.192   1.202   8.393 -0.9449  0.1069 -0.6768
  215MOL0     H28981   3.091   1.424   8.220  0.5529  2.6545  0.6971
  215MOL0     H28982   3.080   1.435   8.394  0.6976 -1.7595  1.1324
  215MOL0     H28983   2.859   1.353   8.316 -1.1724 -0.3858  1.6490
  215MOL0     H28984   2.941   1.244   8.429  2.2448 -1.2655 -0.6157
  215MOL0     H28985   2.931   0.983   8.064 -0.1377  1.5045  0.3568
  215MOL0     H28986   2.724   0.837   8.023 -0.4135 -1.7804  2.0732
  215MOL0     H28987   2.254   1.009   7.942  0.5659 -2.5232 -0.8292
  215MOL0     H28988   2.039   0.952   7.852  0.5973 -1.3084 -0.2367
  215MOL0     H28989   1.785   0.888   7.828  0.9341  0.4246  0.5557
  215MOL0     H28990   1.900   0.757   7.778  0.5477 -0.6032  1.6197
  215MOL0     H28991   1.756   0.584   7.819 -1.6368 -1.3146  2.2443
  215MOL0     H28992   1.646   0.662   7.917 -0.1160 -1.1718 -1.3683
  215MOL0     H28993   1.634   0.835   7.711  1.5539 -0.4090 -1.8449
  215MOL0     H28994   1.661   0.691   7.616 -0.1596 -0.4140  0.0132
  215MOL0     H28995   1.447   0.764   7.815 -0.7644 -0.5742  0.3226
  215MOL0     H28996   1.469   0.596   7.776  1.2763  0.4699 -0.6467
  215MOL0     H28997   1.437   0.628   7.539  0.6806 -1.5795  1.2779
  215MOL0     H28998   1.451   0.806   7.570  0.6517 -0.7353 -1.5361
  215MOL0     H28999   1.223   0.617   7.664  0.8256 -0.9110  0.3626
  215MOL0     H29000   1.239   0.795   7.693  0.0098  0.9966 -0.3406
  215MOL0     H29001   1.233   0.666   7.414  1.2308 -0.4713  1.3833
  215MOL0     H29002   1.218   0.838   7.449  1.3281  0.4601  0.3185
  215MOL0     H29003   1.007   0.661   7.579  2.3028  0.4746  0.7318
  215MOL0     H29004   1.020   0.836   7.572  0.1562 -1.1160  3.3878
  215MOL0     H29005   1.973   0.693   8.179 -1.2028 -1.8749 -2.7953
  215MOL0     H29006   2.180   0.762   8.284  2.6429  1.0803  0.2141
  215MOL0     H29007   2.513   1.083   8.310 -0.4260  0.6089 -1.1114
  215MOL0     H29008   2.721   1.195   8.366  0.8142 -1.7002  1.3864
  215MOL0     H29009   2.854   1.973   7.397  0.6634 -0.9624  0.9874
  215MOL0     H29010   2.673   1.856   7.251  0.1777  0.1855 -0.4873
  215MOL0     H29011   2.225   1.879   7.141  1.7356 -0.0509  1.6769
  215MOL0     H29012   2.064   1.752   7.013  1.1845 -0.1903 -0.3530
  215MOL0     H29013   1.929   1.600   6.901  0.2640  0.2595  0.1166
  215MOL0     H29014   1.814   1.651   7.030 -3.7062 -1.1429  0.1011
  215MOL0     H29015   1.702   1.446   7.026  0.1201  1.9950 -0.5311
  215MOL0     H29016   1.827   1.362   6.926  0.1431  0.1330 -0.9095
  215MOL0     H29017   1.667   1.587   6.816  0.2250 -0.4552  2.1959
  215MOL0     H29018   1.625   1.427   6.779  0.2857  0.2796  0.4195
  215MOL0     H29019   1.864   1.567   6.685 -0.6117  0.3020 -0.0517
  215MOL0     H29020   1.852   1.382   6.683 -0.5189 -0.0952  0.4009
  215MOL0     H29021   1.599   1.422   6.376  1.4689  3.4407 -0.8214
  215MOL0     H29022   2.035   1.452   7.308 -0.9063 -1.6777 -3.6947
  215MOL0     H29023   2.301   1.526   7.496 -1.0220 -1.8195  0.4520
  215MOL0     H29024   2.172   1.623   7.564  1.2563  0.4974 -0.0944
  215MOL0     H29025   2.144   1.463   7.503 -1.3746  0.8132  1.4391
  216MOL0     O29026   1.286   0.054   4.336  0.5254 -0.1602  0.4234
  216MOL0     C29027   1.236  -0.052   4.294  0.3326  0.4489  0.1593
  216MOL0     O29028   1.313  -0.159   4.255  0.5609  0.3864  0.4545
  216MOL0     C29029   1.454  -0.153   4.254 -0.3572  1.0480 -0.4127
  216MOL0     C29030   1.532  -0.146   4.373  0.1002  0.7418  0.6430
  216MOL0     C29031   1.675  -0.148   4.370  0.6156  0.2527  0.3182
  216MOL0     C29032   1.745  -0.146   4.251 -0.3460  0.8625  0.8194
  216MOL0     O29033   1.882  -0.147   4.257 -0.4219  0.1784  0.2938
  216MOL0     C29034   1.958  -0.100   4.141 -0.5815  0.3179 -1.2695
  216MOL0     C29035   2.103  -0.070   4.197 -0.0798  0.1024 -0.1526
  216MOL0     C29036   2.209  -0.032   4.086  0.6334  0.5778 -0.7626
  216MOL0     C29037   2.347  -0.043   4.147  0.1093  0.2185 -1.1975
  216MOL0     C29038   2.454  -0.001   4.050  0.0464  0.3085 -0.1785
  216MOL0     C29039   2.590  -0.041   4.076 -0.4772  0.6235  0.2501
  216MOL0     C29040   2.680   0.027   3.973  0.4122 -0.0047 -0.6543
  216MOL0     C29041   2.817  -0.033   3.988 -0.5316 -0.3241  0.6351
  216MOL0     N29042   2.881  -0.014   4.121 -0.0884  0.1483 -0.0854
  216MOL0     C29043   2.872   0.091   4.213 -1.3240 -0.2393  0.0986
  216MOL0     C29044   2.956   0.050   4.316 -0.2921 -0.2514 -0.5457
  216MOL0     C29045   2.995   0.120   4.447  1.0681  0.1200  0.1856
  216MOL0     C29046   2.873   0.115   4.545  0.5330  0.2367 -0.1858
  216MOL0     C29047   2.828  -0.028   4.590  0.8063  0.1191  0.1885
  216MOL0     C29048   2.714  -0.033   4.687 -0.8734  0.6238 -0.1575
  216MOL0     O29049   2.603   0.019   4.614 -0.6000 -0.1197  0.2721
  216MOL0     C29050   2.474  -0.027   4.648  0.0759  0.3910 -0.7609
  216MOL0     C29051   2.450  -0.109   4.759 -0.2465 -0.3634  0.2293
  216MOL0     C29052   2.318  -0.147   4.801 -0.0878  0.0758 -0.5304
  216MOL0     C29053   2.207  -0.103   4.724  0.3456  0.3300 -0.3749
  216MOL0     C29054   2.073  -0.138   4.775 -0.3445  1.0625 -0.1390
  216MOL0     O29055   1.980  -0.137   4.679  0.1837 -0.0012 -0.5625
  216MOL0     C29056   1.846  -0.144   4.719 -0.4878 -0.2853 -0.4027
  216MOL0     C29057   1.796  -0.266   4.759 -1.0049  0.0947  0.2447
  216MOL0     C29058   1.662  -0.273   4.788  0.5027 -0.2817  0.2365
  216MOL0     C29059   1.570  -0.168   4.763 -0.6305  1.0700  0.0642
  216MOL0     O29060   1.430  -0.183   4.787 -0.2473  0.0620 -0.3372
  216MOL0     C29061   1.330  -0.102   4.724 -0.1604 -0.3906  0.4163
  216MOL0     C29062   1.188  -0.153   4.754 -0.0437  0.0253 -0.4805
  216MOL0     C29063   1.081  -0.040   4.779  0.9113  0.0532 -0.0323
  216MOL0     C29064   0.945  -0.116   4.809  0.1628 -0.2432  0.0754
  216MOL0     C29065   0.834  -0.003   4.814 -0.1470  0.4611 -0.2435
  216MOL0     C29066   0.700  -0.070   4.841 -0.3853  0.6613 -0.1596
  216MOL0     C29067   0.596   0.034   4.893  0.3025  0.5993 -0.1064
  216MOL0     C29068   0.454  -0.036   4.922 -0.1805 -0.0426  0.1092
  216MOL0    Cl29069   0.367  -0.072   4.763  0.3589 -0.2178 -0.4000
  216MOL0     C29070   1.621  -0.049   4.715 -0.6464 -0.0211  0.1685
  216MOL0     C29071   1.760  -0.038   4.710 -0.8294  0.5153  0.3160
  216MOL0     O29072   2.055  -0.171   4.887 -0.7873 -0.2300 -0.0507
  216MOL0     C29073   2.233  -0.021   4.613 -0.2472 -0.0550 -0.1051
  216MOL0     C29074   2.360   0.021   4.585 -0.7780 -0.5064  0.1205
  216MOL0     N29075   2.997  -0.081   4.284 -0.0427 -0.2351  0.6603
  216MOL0     N29076   2.953  -0.117   4.169 -0.0689 -0.8889 -0.5459
  216MOL0     C29077   1.665  -0.145   4.133 -0.6381 -0.3146  0.1741
  216MOL0     C29078   1.529  -0.157   4.135 -0.2165 -1.1911  0.2181
  216MOL0     C29079   1.089  -0.079   4.308 -0.6851  0.2610  0.0976
  216MOL0     C29080   1.035  -0.201   4.251  0.2843 -0.4200 -1.1398
  216MOL0     C29081   0.902  -0.240   4.264 -1.1809  1.1279  0.5081
  216MOL0     C29082   0.817  -0.158   4.328 -0.1447  0.5486 -0.2169
  216MOL0     O29083   0.686  -0.181   4.346  0.1763 -0.2739  0.6504
  216MOL0     C29084   0.623  -0.304   4.298 -0.0218 -0.0030 -0.1909
  216MOL0     C29085   0.469  -0.315   4.332  0.2663  0.6682  0.1771
  216MOL0     C29086   0.442  -0.290   4.481  0.6810 -0.0762 -0.2121
  216MOL0     C29087   0.464  -0.416   4.565 -0.5816  0.9807 -0.7808
  216MOL0     C29088   0.409  -0.416   4.697 -0.1088 -0.5327 -0.4311
  216MOL0     C29089   0.368  -0.426   4.809 -0.0179  0.6342 -0.2941
  216MOL0     C29090   0.865  -0.040   4.383  0.4683  0.2106 -0.2458
  216MOL0     C29091   0.998   0.005   4.373 -0.2562  0.4952 -0.5601
  216MOL0     C29092   1.031   0.142   4.440 -0.4457  0.7460  0.4105
  216MOL0     H29093   1.484  -0.154   4.469 -3.5230  0.7396 -0.9997
  216MOL0     H29094   1.731  -0.163   4.462 -0.5908 -1.7513  0.7937
  216MOL0     H29095   1.963  -0.179   4.065 -1.7167 -0.4111 -0.6200
  216MOL0     H29096   1.916  -0.010   4.095 -0.2554  0.7370 -0.7490
  216MOL0     H29097   2.147  -0.161   4.239  1.7576  0.9911 -0.0304
  216MOL0     H29098   2.108   0.009   4.272  2.4701 -0.7181  0.6461
  216MOL0     H29099   2.190   0.070   4.053 -0.1327 -0.1924 -2.8203
  216MOL0     H29100   2.206  -0.104   4.004  0.4428 -1.2254  0.7708
  216MOL0     H29101   2.353   0.016   4.238 -0.3152 -0.3161 -0.8132
  216MOL0     H29102   2.375  -0.142   4.183  2.8272  0.1219 -3.2675
  216MOL0     H29103   2.421  -0.036   3.951 -0.8859 -2.3502  0.9636
  216MOL0     H29104   2.438   0.103   4.019  1.1547 -0.1108 -2.3599
  216MOL0     H29105   2.610  -0.009   4.178  1.8454 -1.4000  0.5327
  216MOL0     H29106   2.597  -0.150   4.080  2.0481  0.7089 -0.1514
  216MOL0     H29107   2.675   0.135   3.987 -1.8378 -0.2571  1.0875
  216MOL0     H29108   2.646  -0.001   3.873 -1.7376 -0.8974  0.2609
  216MOL0     H29109   2.821  -0.139   3.964  0.3126 -0.4669  1.3524
  216MOL0     H29110   2.879   0.024   3.917 -3.9264 -1.2808 -3.5523
  216MOL0     H29111   2.822   0.187   4.207 -0.0880  0.4334  0.2618
  216MOL0     H29112   3.087   0.084   4.493  0.0469 -0.8822  1.5412
  216MOL0     H29113   3.008   0.226   4.423 -0.2906  1.0538  3.0223
  216MOL0     H29114   2.901   0.175   4.632 -1.7227  0.2615  0.5838
  216MOL0     H29115   2.791   0.174   4.504  0.6686  0.3237 -0.3338
  216MOL0     H29116   2.909  -0.077   4.644 -1.2803 -2.0689  1.5566
  216MOL0     H29117   2.795  -0.089   4.505 -2.1779  0.8068  0.7400
  216MOL0     H29118   2.727   0.012   4.786 -1.5095 -2.6844  1.5850
  216MOL0     H29119   2.700  -0.139   4.711 -0.8604  0.9377  1.3152
  216MOL0     H29120   2.532  -0.153   4.816  1.8025  1.5684 -1.0537
  216MOL0     H29121   2.308  -0.217   4.883 -2.1577  1.3809  0.4005
  216MOL0     H29122   1.860  -0.351   4.782  1.3676  2.2343  2.0993
  216MOL0     H29123   1.630  -0.369   4.829  0.2394  0.6553  2.3524
  216MOL0     H29124   1.334  -0.003   4.771  1.4937 -0.2158 -0.0238
  216MOL0     H29125   1.338  -0.091   4.616 -0.8509 -1.2680  0.2653
  216MOL0     H29126   1.161  -0.207   4.663  0.4556 -1.0564  0.0049
  216MOL0     H29127   1.197  -0.225   4.836 -1.1065  1.3249  0.8521
  216MOL0     H29128   1.117   0.013   4.868 -1.2350  2.1511 -0.3294
  216MOL0     H29129   1.069   0.018   4.687  0.6931 -1.0710 -0.7302
  216MOL0     H29130   0.955  -0.170   4.904 -1.4770 -1.8442 -0.6123
  216MOL0     H29131   0.936  -0.194   4.733 -2.1338 -0.3505  0.4027
  216MOL0     H29132   0.824   0.029   4.710 -0.3968 -0.3712 -0.4838
  216MOL0     H29133   0.855   0.075   4.887 -3.3187 -0.5105  1.8967
  216MOL0     H29134   0.664  -0.113   4.747 -0.9810 -0.2256  0.4629
  216MOL0     H29135   0.711  -0.153   4.911  1.7852 -0.6074 -1.8842
  216MOL0     H29136   0.573   0.125   4.837 -0.9117  0.6066  0.3532
  216MOL0     H29137   0.634   0.061   4.992 -0.2463 -2.6807  1.1504
  216MOL0     H29138   0.475  -0.125   4.983  1.2247 -2.3307 -3.3414
  216MOL0     H29139   0.390   0.028   4.983 -1.5886  1.3536 -2.6704
  216MOL0     H29140   1.552   0.034   4.703 -1.2166 -0.1833  1.9681
  216MOL0     H29141   1.792   0.060   4.676 -0.9811 -0.2883 -2.3656
  216MOL0     H29142   2.141   0.009   4.563 -0.8599 -0.8147  0.5210
  216MOL0     H29143   2.373   0.078   4.493 -0.8285 -0.8559 -0.1054
  216MOL0     H29144   1.722  -0.147   4.041 -0.0379  3.4335  0.3095
  216MOL0     H29145   1.483  -0.172   4.038  1.9476 -3.3202 -0.5802
  216MOL0     H29146   1.100  -0.265   4.193 -1.5894 -2.2965 -1.2918
  216MOL0     H29147   0.866  -0.326   4.210  0.7922 -0.0468  0.9675
  216MOL0     H29148   0.674  -0.381   4.355 -0.5034 -1.8475 -2.0966
  216MOL0     H29149   0.639  -0.329   4.192 -2.3307 -0.1846 -0.5677
  216MOL0     H29150   0.428  -0.409   4.294  2.6120 -0.7200  0.8871
  216MOL0     H29151   0.420  -0.236   4.274  2.5528  3.2631  1.5822
  216MOL0     H29152   0.334  -0.275   4.485  0.5570 -0.9078 -0.2841
  216MOL0     H29153   0.501  -0.211   4.527 -0.5292 -0.3916  2.0057
  216MOL0     H29154   0.418  -0.499   4.511 -2.1452  0.3464  1.3771
  216MOL0     H29155   0.570  -0.431   4.583 -0.4453  2.2530 -0.3962
  216MOL0     H29156   0.327  -0.427   4.908 -2.2181  0.2709 -1.1530
  216MOL0     H29157   0.803   0.032   4.437  2.6609  2.5378 -0.6314
  216MOL0     H29158   1.097   0.134   4.527 -1.4614 -0.5005  1.1084
  216MOL0     H29159   1.081   0.203   4.365 -2.1026  2.4879  0.6320
  216MOL0     H29160   0.936   0.194   4.458 -1.0916 -0.0231 -0.6776
  217MOL0     O29161  10.418   4.017   5.783  0.5229 -0.4410 -0.0513
  217MOL0     C29162  10.366   3.970   5.680 -0.4385 -0.3412 -0.5028
  217MOL0     O29163  10.432   3.966   5.554  0.1389  0.3002 -0.0504
  217MOL0     C29164  10.524   4.064   5.511  0.1562 -0.0358 -0.6382
  217MOL0     C29165  10.592   4.046   5.391  0.3308  0.0497  0.4011
  217MOL0     C29166  10.694   4.130   5.352  0.1742  0.0204  0.0097
  217MOL0     C29167  10.722   4.245   5.424 -0.1829  0.1305 -1.1925
  217MOL0     O29168  10.825   4.325   5.390 -0.5576  0.2845  0.1242
  217MOL0     C29169  10.903   4.370   5.498  0.9751 -0.5443 -0.9372
  217MOL0     C29170  11.055   4.377   5.470 -0.8807  0.5015 -0.3848
  217MOL0     C29171  11.125   4.424   5.601 -0.7941  0.5256 -0.6001
  217MOL0     C29172  11.282   4.390   5.590  1.0056  0.4594  0.8310
  217MOL0     C29173  11.353   4.490   5.496 -0.2462 -0.3500  0.6021
  217MOL0     C29174  11.502   4.508   5.520 -0.4948 -1.6184  0.2644
  217MOL0     C29175  11.548   4.628   5.436 -0.1725 -0.2789 -0.4891
  217MOL0     C29176  11.693   4.682   5.440  0.2132 -0.3356  0.6512
  217MOL0     N29177  11.799   4.577   5.466  0.1008 -0.2569  0.3518
  217MOL0     C29178  11.879   4.509   5.371 -0.7392  0.7097 -0.0717
  217MOL0     C29179  11.956   4.423   5.451  0.0177 -0.6603  0.8214
  217MOL0     C29180  12.070   4.339   5.402  0.6590 -0.6927 -0.3382
  217MOL0     C29181  12.082   4.188   5.463 -0.4737  0.4413 -0.7862
  217MOL0     C29182  12.124   4.092   5.361 -0.2428 -0.8289  0.1074
  217MOL0     C29183  12.149   3.946   5.383  0.7008  0.8390  0.1151
  217MOL0     O29184  12.241   3.922   5.495 -0.3267 -0.8283 -0.8318
  217MOL0     C29185  12.375   3.939   5.477 -0.1001 -0.3321  0.7068
  217MOL0     C29186  12.461   3.952   5.584  0.5954 -0.8446  0.0546
  217MOL0     C29187  12.599   3.978   5.577  0.2377 -0.1192 -0.1884
  217MOL0     C29188  12.659   4.012   5.457  0.1711 -0.3434 -0.3396
  217MOL0     C29189  12.799   4.058   5.460 -0.5249  0.2446  0.2534
  217MOL0     O29190  12.881   4.047   5.351  0.4743  0.7684  0.3531
  217MOL0     C29191  13.018   4.054   5.347  0.0719  0.4887  1.1007
  217MOL0     C29192  13.098   4.114   5.442 -0.3839  0.1510 -0.4353
  217MOL0     C29193  13.240   4.108   5.439 -0.1792  1.4317 -0.1431
  217MOL0     C29194  13.305   4.033   5.331 -0.5642 -0.0513 -0.2374
  217MOL0     O29195  13.439   4.022   5.317 -0.2336  0.8761  0.3421
  217MOL0     C29196  13.512   3.984   5.426  0.0048 -0.1620  0.4421
  217MOL0     C29197  13.658   4.042   5.403  1.0420  0.1650 -1.1688
  217MOL0     C29198  13.762   3.981   5.498 -0.0205 -0.1266  0.0092
  217MOL0     C29199  13.815   4.071   5.605  0.5477 -0.2996  0.0885
  217MOL0     C29200  13.918   4.003   5.692 -0.1566  0.0861  0.2678
  217MOL0     C29201  14.049   3.980   5.613 -0.3820  0.0057  0.2694
  217MOL0     C29202  14.160   3.952   5.714  0.4425 -0.0585  0.0277
  217MOL0     C29203  14.282   3.902   5.640  0.5686 -0.2447 -0.6070
  217MOL0    Cl29204  14.359   4.037   5.559 -0.2088 -0.2545  0.2368
  217MOL0     C29205  13.223   3.979   5.235 -0.4333  1.1051 -0.8075
  217MOL0     C29206  13.084   3.989   5.238 -0.3053  0.9501  0.4360
  217MOL0     O29207  12.836   4.106   5.569  0.4667  1.0869 -0.0270
  217MOL0     C29208  12.581   3.996   5.340 -0.0720  0.0162  0.1802
  217MOL0     C29209  12.446   3.958   5.353  0.2609 -0.2661  0.6194
  217MOL0     N29210  11.921   4.438   5.582 -0.6803 -0.3711 -0.4909
  217MOL0     N29211  11.823   4.520   5.587  0.0266 -0.6783 -0.3690
  217MOL0     C29212  10.649   4.276   5.540  0.4648  0.2284  0.3890
  217MOL0     C29213  10.552   4.179   5.583  0.4346 -0.1561  0.9798
  217MOL0     C29214  10.233   3.898   5.684 -0.1763 -1.0346 -0.8253
  217MOL0     C29215  10.143   3.907   5.577 -0.6990 -0.4045  0.6663
  217MOL0     C29216  10.018   3.845   5.585  0.4514 -0.4225  0.2053
  217MOL0     C29217   9.977   3.766   5.695  0.4455 -0.5130 -0.0039
  217MOL0     O29218   9.851   3.712   5.689 -0.4059 -0.3876  0.2531
  217MOL0     C29219   9.815   3.634   5.804 -0.5428 -0.7769 -0.2192
  217MOL0     C29220   9.665   3.616   5.790 -0.5465 -0.7553  0.5183
  217MOL0     C29221   9.621   3.514   5.897 -0.0069  0.0066 -0.0161
  217MOL0     C29222   9.480   3.457   5.870 -0.0963 -1.0470 -0.1223
  217MOL0     C29223   9.384   3.567   5.855 -0.1840  0.6629  0.8337
  217MOL0     C29224   9.302   3.653   5.833 -0.5021  0.7817  0.3170
  217MOL0     C29225  10.067   3.762   5.805 -0.3453 -0.9434 -0.1719
  217MOL0     C29226  10.192   3.825   5.800 -0.5538  0.7704 -0.3970
  217MOL0     C29227  10.262   3.824   5.928  0.3801  0.3256 -0.5058
  217MOL0     H29228  10.571   3.966   5.321  1.9769  0.1651 -0.2831
  217MOL0     H29229  10.762   4.097   5.273 -0.9981 -0.7114 -0.7202
  217MOL0     H29230  10.866   4.467   5.529  1.8394 -1.1486  2.4328
  217MOL0     H29231  10.891   4.313   5.591  1.5950 -2.7694 -2.1313
  217MOL0     H29232  11.071   4.429   5.376 -0.3494 -2.5981 -2.1320
  217MOL0     H29233  11.090   4.275   5.455  0.3754  0.3276  2.8601
  217MOL0     H29234  11.094   4.366   5.689  0.9930 -0.4505 -0.5498
  217MOL0     H29235  11.104   4.528   5.627 -1.0113 -0.0872  2.0460
  217MOL0     H29236  11.330   4.405   5.686  2.4883 -0.1548  0.2166
  217MOL0     H29237  11.300   4.287   5.557 -1.7436  1.1325 -3.5612
  217MOL0     H29238  11.340   4.454   5.394 -3.4052 -1.8032  1.4048
  217MOL0     H29239  11.308   4.587   5.516  1.1438  1.1375 -2.8270
  217MOL0     H29240  11.533   4.519   5.625  1.0960  0.1963 -0.3509
  217MOL0     H29241  11.552   4.422   5.473  1.1897 -0.9304  0.7350
  217MOL0     H29242  11.479   4.706   5.472 -2.5411 -2.0192 -1.0214
  217MOL0     H29243  11.533   4.598   5.333  1.6144 -0.2334 -0.8002
  217MOL0     H29244  11.719   4.724   5.342  3.8518 -2.3881  0.5576
  217MOL0     H29245  11.717   4.759   5.514 -0.4720 -0.2245  0.7615
  217MOL0     H29246  11.887   4.523   5.263  1.2598  0.4264 -0.0118
  217MOL0     H29247  12.066   4.333   5.293  1.7330  3.3411 -0.7592
  217MOL0     H29248  12.165   4.389   5.423  0.6183 -0.2840 -1.0806
  217MOL0     H29249  12.155   4.196   5.543 -2.8252  0.5860  1.4688
  217MOL0     H29250  11.991   4.156   5.513  0.9635 -0.1940  1.5729
  217MOL0     H29251  12.212   4.130   5.307 -0.8122 -1.3815 -1.2524
  217MOL0     H29252  12.045   4.084   5.286 -0.7688 -1.5721  0.7365
  217MOL0     H29253  12.176   3.898   5.288  0.5704  2.6919 -0.8926
  217MOL0     H29254  12.049   3.908   5.409  1.7644 -1.2925  1.4652
  217MOL0     H29255  12.426   3.950   5.687  2.1451 -0.2232  0.6268
  217MOL0     H29256  12.652   3.969   5.671  3.1818 -0.4581 -1.7740
  217MOL0     H29257  13.050   4.148   5.534  0.3143  1.1355 -0.4178
  217MOL0     H29258  13.303   4.148   5.518 -0.1144 -2.5727  2.0943
  217MOL0     H29259  13.474   4.027   5.519  2.9342 -0.2519  1.8050
  217MOL0     H29260  13.517   3.876   5.438 -0.5711 -0.1906  0.4136
  217MOL0     H29261  13.691   4.022   5.300 -0.5922  1.6714 -2.0410
  217MOL0     H29262  13.652   4.151   5.414 -1.4314 -0.0029 -0.4351
  217MOL0     H29263  13.717   3.904   5.560  1.2197 -0.0251  1.0712
  217MOL0     H29264  13.846   3.942   5.440  1.3377 -0.7500  2.2598
  217MOL0     H29265  13.730   4.094   5.669  2.2123  0.3542  2.1731
  217MOL0     H29266  13.851   4.166   5.564  3.8785 -1.5022 -0.1006
  217MOL0     H29267  13.879   3.909   5.732 -1.4262  0.0287 -1.0172
  217MOL0     H29268  13.938   4.076   5.770  1.6312 -0.9002  0.7949
  217MOL0     H29269  14.037   3.897   5.543 -3.5453  0.4603  0.1050
  217MOL0     H29270  14.069   4.065   5.547 -1.2098 -1.8850 -2.6246
  217MOL0     H29271  14.130   3.862   5.770 -0.6880 -0.7689 -1.6177
  217MOL0     H29272  14.190   4.033   5.781  3.7004 -0.9834 -0.1546
  217MOL0     H29273  14.355   3.847   5.700  1.8727  0.6342 -1.3331
  217MOL0     H29274  14.251   3.825   5.569  2.3889 -1.5309 -0.0873
  217MOL0     H29275  13.263   3.930   5.146  0.3422  0.8670 -0.3358
  217MOL0     H29276  13.036   3.941   5.153 -0.5068  0.5740  0.7620
  217MOL0     H29277  12.633   4.038   5.254  1.9299  2.3279  2.3311
  217MOL0     H29278  12.390   3.955   5.260 -1.5001  0.2100  1.6115
  217MOL0     H29279  10.660   4.368   5.596 -1.3057 -0.3717  1.8203
  217MOL0     H29280  10.495   4.211   5.670 -1.1428 -0.1318 -0.0213
  217MOL0     H29281  10.173   3.963   5.489  0.3573 -1.1168  0.5491
  217MOL0     H29282   9.953   3.846   5.498  2.8076 -1.1755 -1.6995
  217MOL0     H29283   9.825   3.672   5.906 -2.2659 -0.8777  0.0262
  217MOL0     H29284   9.880   3.547   5.795 -0.4901 -0.7018 -0.6127
  217MOL0     H29285   9.653   3.567   5.693 -4.1876  2.8055 -1.1482
  217MOL0     H29286   9.610   3.711   5.789 -1.7719 -1.4472 -0.1440
  217MOL0     H29287   9.644   3.546   5.999  0.1360  1.4807 -0.4853
  217MOL0     H29288   9.682   3.423   5.892 -1.0387 -0.6351 -1.8813
  217MOL0     H29289   9.492   3.401   5.777 -1.4372  0.2115 -1.0987
  217MOL0     H29290   9.438   3.387   5.943 -3.4090  0.1189 -0.7183
  217MOL0     H29291   9.251   3.742   5.803  0.5101  2.3923  2.9605
  217MOL0     H29292  10.021   3.725   5.897 -0.3483  1.8209  1.0429
  217MOL0     H29293  10.217   3.764   6.008  0.4470  2.2860  1.0848
  217MOL0     H29294  10.369   3.804   5.925 -0.1545 -3.0214 -1.3478
  217MOL0     H29295  10.253   3.922   5.975 -1.2011  0.0561 -0.1950
  218MOL0     O29296   3.984   1.835   4.385  0.5413  0.1382 -0.4653
  218MOL0     C29297   4.008   1.902   4.487 -0.0801 -0.3776 -0.3534
  218MOL0     O29298   3.913   1.990   4.538  0.0648  0.2533 -0.4241
  218MOL0     C29299   3.780   1.991   4.498 -0.8308  0.2368 -0.0384
  218MOL0     C29300   3.706   1.877   4.504 -0.1321 -0.0081  0.2136
  218MOL0     C29301   3.565   1.890   4.482  0.0259  0.2898 -0.0518
  218MOL0     C29302   3.506   2.013   4.450  0.7145 -0.6155  0.1837
  218MOL0     O29303   3.374   2.009   4.421  0.0833  0.8270 -0.2365
  218MOL0     C29304   3.329   2.102   4.322 -0.5015  0.3821 -0.2519
  218MOL0     C29305   3.185   2.067   4.281  0.6722 -0.4578 -0.5125
  218MOL0     C29306   3.125   2.170   4.184  0.5392 -0.8455  0.0926
  218MOL0     C29307   3.079   2.302   4.248 -0.1076 -0.0090  0.2434
  218MOL0     C29308   3.009   2.394   4.144  0.1091 -0.2304 -0.2412
  218MOL0     C29309   2.969   2.536   4.184  1.1050  0.3078 -0.1454
  218MOL0     C29310   2.855   2.532   4.290  0.3932 -0.3370 -0.1483
  218MOL0     C29311   2.779   2.666   4.307 -0.4450  0.4932  0.5195
  218MOL0     N29312   2.869   2.752   4.382 -0.6387  0.4164 -0.0545
  218MOL0     C29313   2.978   2.825   4.334  0.0019 -0.1157 -0.6477
  218MOL0     C29314   3.025   2.899   4.435 -0.0737 -0.5871 -0.7713
  218MOL0     C29315   3.143   2.998   4.422  0.2094  0.5819  0.0053
  218MOL0     C29316   3.278   2.951   4.479  0.2032 -0.7343 -0.0881
  218MOL0     C29317   3.372   3.067   4.471  0.3032 -0.2332 -0.7701
  218MOL0     C29318   3.507   3.019   4.461  0.0262 -0.2706  1.6506
  218MOL0     O29319   3.582   3.144   4.454  0.3418  0.0849 -0.0337
  218MOL0     C29320   3.709   3.118   4.431 -0.4105  0.2401  0.2541
  218MOL0     C29321   3.741   3.103   4.292  0.1597 -0.1468  0.4525
  218MOL0     C29322   3.880   3.090   4.261  1.4479  0.1269 -0.3404
  218MOL0     C29323   3.979   3.096   4.362 -1.3383  0.3269  0.3504
  218MOL0     C29324   4.121   3.070   4.320 -0.0692 -0.3087  0.1875
  218MOL0     O29325   4.131   3.003   4.198 -1.1838  0.2153 -0.0277
  218MOL0     C29326   4.257   2.977   4.154  0.0176  0.2859 -0.0880
  218MOL0     C29327   4.327   3.064   4.075 -0.2063  0.6625 -0.6291
  218MOL0     C29328   4.460   3.037   4.036  0.4262  0.6441  0.9265
  218MOL0     C29329   4.523   2.919   4.071 -0.5573 -0.0919 -0.7891
  218MOL0     O29330   4.653   2.886   4.030  0.7854 -0.1830 -0.1716
  218MOL0     C29331   4.735   2.820   4.129  0.3701  0.3312 -0.6897
  218MOL0     C29332   4.883   2.824   4.099  0.2885  0.0940 -0.1659
  218MOL0     C29333   4.949   2.689   4.112  0.0328  0.4163  0.2366
  218MOL0     C29334   5.109   2.699   4.102 -0.7376  0.1785  0.1086
  218MOL0     C29335   5.186   2.562   4.097 -0.4474  0.2277  0.7745
  218MOL0     C29336   5.333   2.606   4.049  0.5961 -0.1034  0.1234
  218MOL0     C29337   5.428   2.488   4.037 -0.3860  0.2708 -0.2580
  218MOL0     C29338   5.579   2.515   4.019 -1.1399 -1.0175 -0.2182
  218MOL0    Cl29339   5.620   2.645   3.899  0.0865  0.5224 -0.0250
  218MOL0     C29340   4.456   2.834   4.156 -0.8190 -0.0489  0.3310
  218MOL0     C29341   4.326   2.865   4.195 -0.2221 -0.4758 -1.2132
  218MOL0     O29342   4.202   3.113   4.402  0.5706  0.3823  0.1161
  218MOL0     C29343   3.946   3.110   4.498  1.0727 -0.2989  0.7698
  218MOL0     C29344   3.807   3.128   4.528 -0.7788  0.1501  0.0397
  218MOL0     N29345   2.931   2.884   4.540  0.1861 -0.2220 -0.4183
  218MOL0     N29346   2.840   2.791   4.510 -0.5685  0.3746  0.0324
  218MOL0     C29347   3.589   2.124   4.439  0.5516 -0.6950 -0.0734
  218MOL0     C29348   3.725   2.111   4.461 -0.8681 -0.3580 -0.7456
  218MOL0     C29349   4.129   1.887   4.572  0.5825  0.7075 -0.2879
  218MOL0     C29350   4.116   1.926   4.700  0.6171  0.3689  0.3178
  218MOL0     C29351   4.227   1.906   4.788 -1.5273 -0.6871  0.5491
  218MOL0     C29352   4.346   1.846   4.744 -0.8517 -0.0790  0.1109
  218MOL0     O29353   4.440   1.831   4.836 -0.8940 -0.0497 -0.4232
  218MOL0     C29354   4.584   1.847   4.806 -0.4958 -0.1569  0.0857
  218MOL0     C29355   4.666   1.868   4.936  0.0188  0.4136  0.6983
  218MOL0     C29356   4.639   1.762   5.043 -0.0866 -0.9883  0.0045
  218MOL0     C29357   4.708   1.794   5.178  0.2715 -0.3671  0.2264
  218MOL0     C29358   4.853   1.818   5.168  0.2261  0.2788 -0.0540
  218MOL0     C29359   4.964   1.852   5.140  0.7668 -0.5625  0.2878
  218MOL0     C29360   4.361   1.823   4.612 -0.3302 -0.1098  0.4746
  218MOL0     C29361   4.251   1.843   4.519 -0.5309  0.0205 -0.2401
  218MOL0     C29362   4.273   1.817   4.375 -0.3171  0.4153 -0.4205
  218MOL0     H29363   3.738   1.779   4.538  0.6765 -0.4365 -1.6644
  218MOL0     H29364   3.502   1.802   4.486  4.6761 -3.4735 -0.6838
  218MOL0     H29365   3.341   2.201   4.366  2.7034  0.7742 -1.6620
  218MOL0     H29366   3.391   2.091   4.232 -0.2361  1.6076 -0.2373
  218MOL0     H29367   3.122   2.063   4.370 -0.6326  0.8455 -1.3410
  218MOL0     H29368   3.181   1.966   4.238  1.4983 -0.7007 -0.0476
  218MOL0     H29369   3.042   2.112   4.141  1.3622 -1.0430 -1.2677
  218MOL0     H29370   3.206   2.191   4.114  1.0969  0.0372  0.9832
  218MOL0     H29371   3.017   2.266   4.330  2.2147 -1.9860  1.2628
  218MOL0     H29372   3.159   2.360   4.293  0.7342  0.3003 -1.5633
  218MOL0     H29373   3.073   2.404   4.056  3.5397  1.3508  2.1862
  218MOL0     H29374   2.916   2.350   4.108 -1.1190  1.4728  0.7161
  218MOL0     H29375   3.053   2.573   4.243  1.5586  0.3979 -0.8410
  218MOL0     H29376   2.942   2.596   4.097 -1.6095  0.9914  1.0320
  218MOL0     H29377   2.899   2.492   4.382  1.4569  0.7437 -0.1693
  218MOL0     H29378   2.780   2.468   4.243  0.7411 -1.8394  1.2584
  218MOL0     H29379   2.748   2.710   4.212 -2.5744 -0.6577  0.6302
  218MOL0     H29380   2.685   2.640   4.357  0.3343 -1.9229  0.9116
  218MOL0     H29381   3.016   2.804   4.235  1.2288 -3.3878  0.3535
  218MOL0     H29382   3.157   3.019   4.315  0.0760 -0.5562 -0.2534
  218MOL0     H29383   3.112   3.093   4.466 -0.3766  0.5184 -0.2554
  218MOL0     H29384   3.272   2.920   4.583  0.9965  2.2298  0.9428
  218MOL0     H29385   3.311   2.866   4.418  1.1711  0.4706 -1.3237
  218MOL0     H29386   3.370   3.139   4.553  2.1251 -0.9862 -0.0278
  218MOL0     H29387   3.347   3.125   4.381 -1.8421 -1.8991 -1.3290
  218MOL0     H29388   3.517   2.956   4.371 -0.7327  2.6412 -0.6110
  218MOL0     H29389   3.524   2.949   4.543 -2.7318 -2.5041  0.4908
  218MOL0     H29390   3.667   3.087   4.214  1.5014 -0.0817 -0.8774
  218MOL0     H29391   3.920   3.084   4.161  0.9508  1.3554 -0.6303
  218MOL0     H29392   4.279   3.155   4.041 -1.2468  0.1167 -0.6460
  218MOL0     H29393   4.519   3.098   3.968  2.0546 -1.8822 -0.0634
  218MOL0     H29394   4.710   2.859   4.228 -0.3794 -0.6142 -0.4892
  218MOL0     H29395   4.700   2.717   4.125 -1.9364  1.0494 -0.6129
  218MOL0     H29396   4.900   2.865   4.000  1.9299  1.7519  0.7479
  218MOL0     H29397   4.926   2.901   4.163 -1.0603  2.3843 -1.8889
  218MOL0     H29398   4.922   2.657   4.213 -0.9843  2.4874  0.6659
  218MOL0     H29399   4.912   2.613   4.043  1.0757 -0.4807  0.6466
  218MOL0     H29400   5.142   2.756   4.190 -1.0590 -0.5742  0.7385
  218MOL0     H29401   5.131   2.751   4.009 -0.7516  0.5745  0.3270
  218MOL0     H29402   5.142   2.502   4.017 -0.0177  2.0069 -0.8845
  218MOL0     H29403   5.182   2.510   4.193 -0.3597 -0.0729  0.6160
  218MOL0     H29404   5.323   2.662   3.956  1.2049  0.2801  0.2814
  218MOL0     H29405   5.374   2.669   4.129  3.2130  1.6024 -2.3542
  218MOL0     H29406   5.382   2.438   3.951  0.1812 -1.0752  0.1977
  218MOL0     H29407   5.418   2.421   4.123 -0.1309 -2.0767 -1.9655
  218MOL0     H29408   5.608   2.542   4.121 -0.0907  0.7274 -0.9446
  218MOL0     H29409   5.636   2.424   3.997 -0.3875 -0.6534  0.2035
  218MOL0     H29410   4.505   2.741   4.185 -0.6042  0.5058  1.8650
  218MOL0     H29411   4.281   2.784   4.251  1.6340 -1.3447 -0.8966
  218MOL0     H29412   4.009   3.112   4.587  0.2499 -1.5872  1.4265
  218MOL0     H29413   3.781   3.138   4.633 -2.3041  0.4545 -0.3514
  218MOL0     H29414   3.544   2.218   4.407  0.8398 -0.5951 -0.1858
  218MOL0     H29415   3.785   2.202   4.469 -0.9600 -0.4352  2.1673
  218MOL0     H29416   4.023   1.960   4.746 -0.0103  1.0852 -1.3858
  218MOL0     H29417   4.228   1.928   4.895  0.7534  1.2549  0.2178
  218MOL0     H29418   4.602   1.937   4.747 -1.0534 -0.0081  0.1393
  218MOL0     H29419   4.628   1.761   4.754  0.7420  1.0113 -0.8693
  218MOL0     H29420   4.640   1.966   4.977 -1.2717 -0.3238  1.7178
  218MOL0     H29421   4.772   1.848   4.914 -0.3404 -2.0216  0.9163
  218MOL0     H29422   4.676   1.670   4.997 -0.0721 -1.4877  1.0054
  218MOL0     H29423   4.533   1.747   5.065 -0.0225 -0.6675  0.5399
  218MOL0     H29424   4.659   1.879   5.227  0.9226 -0.3909  0.9419
  218MOL0     H29425   4.680   1.710   5.241 -0.7388  1.6442  2.6069
  218MOL0     H29426   5.062   1.888   5.115  0.2074  1.6211  1.0257
  218MOL0     H29427   4.454   1.776   4.580 -0.5645 -1.4169  1.6318
  218MOL0     H29428   4.207   1.736   4.342  0.7770 -0.4938 -0.4152
  218MOL0     H29429   4.257   1.905   4.312 -0.7835 -0.1037 -1.0427
  218MOL0     H29430   4.372   1.781   4.346 -1.1876 -0.8317 -2.0182
  219MOL0     O29431   9.204   9.904   7.491  0.2310 -0.7132  0.7814
  219MOL0     C29432   9.149   9.973   7.404  0.1798 -0.2287  0.7029
  219MOL0     O29433   9.192  10.097   7.360  0.1930  0.0158 -0.1916
  219MOL0     C29434   9.310  10.154   7.398 -0.0795 -0.5807  0.1564
  219MOL0     C29435   9.429  10.080   7.433  1.1104 -0.6861 -0.5119
  219MOL0     C29436   9.549  10.148   7.463  0.6487  0.4650 -0.4128
  219MOL0     C29437   9.549  10.287   7.479 -0.1771 -0.4487 -0.3213
  219MOL0     O29438   9.663  10.359   7.498 -0.2187  0.4493 -0.0486
  219MOL0     C29439   9.682  10.458   7.395  0.3720 -0.0155  0.1749
  219MOL0     C29440   9.825  10.466   7.340  0.8087  0.2383  0.6870
  219MOL0     C29441   9.939  10.485   7.436 -0.8833  0.1270  1.3118
  219MOL0     C29442   9.958  10.608   7.527 -0.2104 -0.1751 -0.5564
  219MOL0     C29443   9.926  10.740   7.466 -0.8412 -0.5292 -0.7758
  219MOL0     C29444  10.029  10.778   7.363  0.0198  0.6928 -0.1918
  219MOL0     C29445  10.000  10.916   7.298  0.2095 -0.5064 -0.1196
  219MOL0     C29446  10.084  10.950   7.177 -0.4372 -0.5046  0.9834
  219MOL0     N29447  10.220  10.909   7.196  0.9268  0.3566  0.9027
  219MOL0     C29448  10.308  10.964   7.275  0.4458  0.6608 -0.5180
  219MOL0     C29449  10.427  10.908   7.237  0.7194 -0.1909 -0.4475
  219MOL0     C29450  10.554  10.909   7.310 -1.1030 -0.0772 -0.0668
  219MOL0     C29451  10.640  11.018   7.256 -0.2829 -0.0359 -0.3057
  219MOL0     C29452  10.778  11.019   7.329  0.5076 -0.1866  0.0363
  219MOL0     C29453  10.846  11.150   7.315  0.2308  1.1096  0.2720
  219MOL0     O29454  10.976  11.155   7.371  0.0773  0.1903 -0.0474
  219MOL0     C29455  11.059  11.258   7.338  0.4539 -0.4321 -0.8828
  219MOL0     C29456  11.010  11.383   7.284  0.2650  1.0587 -0.7768
  219MOL0     C29457  11.101  11.472   7.230  0.3388 -0.7081  1.0925
  219MOL0     C29458  11.241  11.455   7.243  0.1715  0.4360  0.2991
  219MOL0     C29459  11.341  11.556   7.195 -0.2279  0.1044  0.2528
  219MOL0     O29460  11.465  11.556   7.251 -0.1185 -0.1727 -0.1250
  219MOL0     C29461  11.531  11.674   7.230 -0.6459  0.3910  0.1507
  219MOL0     C29462  11.665  11.651   7.183  0.5429  0.3274 -0.1436
  219MOL0     C29463  11.756  11.755   7.164 -0.2648 -0.0438  0.2301
  219MOL0     C29464  11.719  11.882   7.181  0.3378 -0.1569 -0.5584
  219MOL0     O29465  11.807  11.988   7.167  0.0638 -0.0147 -0.1486
  219MOL0     C29466  11.904  11.995   7.067 -0.2388  0.1547 -0.4683
  219MOL0     C29467  11.967  12.139   7.063 -0.7555  0.2294  0.5335
  219MOL0     C29468  12.108  12.135   7.015 -0.8432  0.0257 -0.4657
  219MOL0     C29469  12.136  12.284   6.989  0.6890  0.3748 -0.2330
  219MOL0     C29470  12.285  12.302   6.945  0.0343  0.6541  0.0047
  219MOL0     C29471  12.314  12.284   6.792  0.4953 -0.0425  0.3887
  219MOL0     C29472  12.457  12.305   6.746 -0.2771  0.5839 -0.5681
  219MOL0     C29473  12.453  12.324   6.602  0.0373  0.2273  0.7281
  219MOL0    Cl29474  12.623  12.363   6.521  0.2541 -0.0032 -0.2626
  219MOL0     C29475  11.596  11.903   7.240 -0.4000  0.2966 -0.4199
  219MOL0     C29476  11.497  11.806   7.262  0.1302 -0.1614 -0.4090
  219MOL0     O29477  11.292  11.641   7.112  0.0688  0.1351  0.4976
  219MOL0     C29478  11.287  11.337   7.310  0.7215  0.1493  0.8997
  219MOL0     C29479  11.201  11.238   7.356  0.6103 -0.5109 -0.0776
  219MOL0     N29480  10.405  10.827   7.129  0.3084  0.7214  0.4271
  219MOL0     N29481  10.275  10.815   7.109 -0.2593  0.1623  0.3099
  219MOL0     C29482   9.422  10.354   7.465 -0.1236  0.8082  0.1741
  219MOL0     C29483   9.307  10.291   7.417 -0.3837 -0.0321  1.1076
  219MOL0     C29484   9.024   9.925   7.338  1.2416 -0.0943 -0.0361
  219MOL0     C29485   8.998   9.985   7.207 -0.2627 -0.3563 -0.4671
  219MOL0     C29486   8.877   9.957   7.142  0.0362 -0.6980  0.2037
  219MOL0     C29487   8.779   9.879   7.195 -0.6533  0.5114 -0.6354
  219MOL0     O29488   8.645   9.878   7.157 -0.8478 -1.0530 -0.5941
  219MOL0     C29489   8.603   9.965   7.052 -0.1565 -0.0009 -0.2201
  219MOL0     C29490   8.624   9.903   6.910  0.0342  0.0882 -0.2384
  219MOL0     C29491   8.543   9.978   6.802  0.3399  0.1853 -0.0354
  219MOL0     C29492   8.614  10.102   6.758 -0.2560  0.1282  0.4652
  219MOL0     C29493   8.568  10.155   6.632 -0.1321 -0.1709  0.0457
  219MOL0     C29494   8.525  10.183   6.518  0.4697 -0.6695 -0.1904
  219MOL0     C29495   8.818   9.798   7.311  0.0755  0.0164 -0.7604
  219MOL0     C29496   8.941   9.824   7.377  0.1650 -0.7310  0.1624
  219MOL0     C29497   8.960   9.738   7.499 -0.0409 -0.0642  0.4247
  219MOL0     H29498   9.411   9.975   7.413 -1.5648 -0.1601 -1.3530
  219MOL0     H29499   9.644  10.096   7.470  1.4782  1.9139 -0.5395
  219MOL0     H29500   9.615  10.444   7.309 -0.2185 -1.1088  0.7793
  219MOL0     H29501   9.652  10.553   7.440  0.1364  1.3191 -2.5757
  219MOL0     H29502   9.816  10.548   7.269 -0.9003 -1.2935 -1.0112
  219MOL0     H29503   9.846  10.379   7.277  0.2781 -1.6653  2.9936
  219MOL0     H29504  10.028  10.473   7.374 -2.4487 -0.8000 -0.8684
  219MOL0     H29505   9.953  10.395   7.497  3.1114 -1.0130 -0.9291
  219MOL0     H29506   9.883  10.601   7.606  1.6850 -1.5419  1.2047
  219MOL0     H29507  10.057  10.610   7.574 -0.0087  1.7700 -0.9773
  219MOL0     H29508   9.826  10.736   7.422 -1.9553 -1.3869  1.6146
  219MOL0     H29509   9.919  10.822   7.539  0.3287 -0.0120 -1.2219
  219MOL0     H29510  10.129  10.785   7.408  0.3950 -0.0014 -0.8847
  219MOL0     H29511  10.036  10.697   7.290  1.5083 -1.6660  2.3540
  219MOL0     H29512  10.008  11.001   7.368 -2.4489 -0.3859  0.1172
  219MOL0     H29513   9.899  10.907   7.259  0.2402  0.5900 -0.4859
  219MOL0     H29514  10.049  10.911   7.081  0.8795  1.0134 -0.1712
  219MOL0     H29515  10.091  11.059   7.167 -0.6536 -0.6406 -1.2458
  219MOL0     H29516  10.284  11.033   7.355  1.9200 -0.9322  1.4165
  219MOL0     H29517  10.535  10.912   7.417  2.2480 -3.5119  0.8737
  219MOL0     H29518  10.595  10.809   7.288 -0.7367 -0.1135  0.7379
  219MOL0     H29519  10.663  11.003   7.150 -3.8949 -3.1995 -0.8829
  219MOL0     H29520  10.591  11.116   7.267 -0.6471 -0.4016  1.7247
  219MOL0     H29521  10.834  10.932   7.293 -0.2516 -0.5797 -0.2075
  219MOL0     H29522  10.744  11.003   7.432  1.7361 -0.3709  0.4346
  219MOL0     H29523  10.770  11.221   7.350 -0.0598  0.9889 -0.1044
  219MOL0     H29524  10.856  11.167   7.207  0.1583  2.0088  0.3993
  219MOL0     H29525  10.905  11.402   7.264 -0.2713 -2.4585 -2.0637
  219MOL0     H29526  11.068  11.556   7.170 -0.2845 -3.2423 -2.4305
  219MOL0     H29527  11.678  11.548   7.148 -0.6469 -0.1816  0.8593
  219MOL0     H29528  11.857  11.733   7.133 -0.3662 -1.0920  0.6097
  219MOL0     H29529  11.976  11.916   7.090 -2.8954 -2.1967  0.3986
  219MOL0     H29530  11.859  11.963   6.973 -0.9776  0.3611 -0.1939
  219MOL0     H29531  11.904  12.210   7.010 -0.7773  0.9681  1.5169
  219MOL0     H29532  11.963  12.167   7.169  1.0545  0.8077  0.4662
  219MOL0     H29533  12.169  12.091   7.093 -0.3373  1.2826 -0.1284
  219MOL0     H29534  12.123  12.088   6.917 -1.3137 -0.7326 -0.1828
  219MOL0     H29535  12.108  12.351   7.071 -2.6134 -1.1122  0.0172
  219MOL0     H29536  12.076  12.319   6.904 -0.5564 -0.4285  0.2795
  219MOL0     H29537  12.358  12.238   6.994 -0.9955 -0.7280 -0.2087
  219MOL0     H29538  12.310  12.406   6.970 -1.0933  1.2817 -1.3454
  219MOL0     H29539  12.279  12.184   6.766 -1.4369  0.8405 -0.5934
  219MOL0     H29540  12.251  12.354   6.737  1.5016  1.1834  0.7200
  219MOL0     H29541  12.520  12.217   6.764 -2.0961 -0.1739  3.3019
  219MOL0     H29542  12.497  12.396   6.792  1.4076  0.2658 -1.3240
  219MOL0     H29543  12.424  12.228   6.558 -0.6702  1.1260 -0.8725
  219MOL0     H29544  12.387  12.403   6.566 -0.3171  0.3442  1.6144
  219MOL0     H29545  11.570  12.008   7.247  2.1733  1.1461 -2.3724
  219MOL0     H29546  11.410  11.828   7.323  0.1287 -0.1942 -0.3996
  219MOL0     H29547  11.393  11.320   7.327  1.3489  1.3827 -1.3105
  219MOL0     H29548  11.248  11.150   7.400 -0.8132 -1.0282  0.4628
  219MOL0     H29549   9.407  10.462   7.464 -1.0639  0.7026 -1.8332
  219MOL0     H29550   9.221  10.352   7.392 -0.4319 -0.3677  0.4359
  219MOL0     H29551   9.081  10.044   7.168  2.2050 -0.9472  3.3398
  219MOL0     H29552   8.874   9.996   7.041 -0.7443 -0.8057  0.1815
  219MOL0     H29553   8.654  10.061   7.050 -1.5911  0.8597  1.8593
  219MOL0     H29554   8.498   9.983   7.078 -0.2722  0.0820 -0.7288
  219MOL0     H29555   8.593   9.798   6.913 -1.8208  0.6111  3.1152
  219MOL0     H29556   8.732   9.908   6.894  0.2432  0.6302  1.2087
  219MOL0     H29557   8.447  10.004   6.847  0.9626  0.4210  1.1979
  219MOL0     H29558   8.523   9.915   6.715  0.9552 -0.6432  0.4097
  219MOL0     H29559   8.601  10.185   6.828 -0.3971  3.0366 -2.7508
  219MOL0     H29560   8.718  10.079   6.735 -0.9174 -2.0291 -0.6111
  219MOL0     H29561   8.474  10.205   6.426 -2.1889  0.6828  1.4748
  219MOL0     H29562   8.746   9.722   7.338  3.1389 -2.4850  0.9764
  219MOL0     H29563   8.974   9.811   7.580  0.4846  1.9171 -1.3428
  219MOL0     H29564   8.868   9.681   7.514  0.1984 -0.4683  0.3651
  219MOL0     H29565   9.044   9.671   7.481 -0.3157 -1.2125  2.9771
  220MOL0     O29566  10.741   1.729   4.780 -0.3482  0.6936  0.4879
  220MOL0     C29567  10.698   1.779   4.678 -0.2187  1.1264 -0.7416
  220MOL0     O29568  10.724   1.737   4.551  0.3421  0.4175 -0.7272
  220MOL0     C29569  10.849   1.687   4.542  0.0429 -0.1656 -0.3638
  220MOL0     C29570  10.964   1.769   4.572 -0.0516 -0.2038 -0.5460
  220MOL0     C29571  11.094   1.707   4.565 -0.0335 -0.1066 -0.5760
  220MOL0     C29572  11.106   1.567   4.525  0.5471 -0.0273  0.1625
  220MOL0     O29573  11.231   1.518   4.539 -0.5010  0.5266  0.2079
  220MOL0     C29574  11.234   1.371   4.539  0.3213 -0.1424  0.1313
  220MOL0     C29575  11.374   1.318   4.595  0.0287  0.1892 -0.2822
  220MOL0     C29576  11.501   1.393   4.544 -1.2926  0.0479  0.2181
  220MOL0     C29577  11.552   1.493   4.647 -0.2645  0.2254 -0.3007
  220MOL0     C29578  11.685   1.557   4.597 -0.5573 -0.4219 -0.2698
  220MOL0     C29579  11.753   1.643   4.701  0.0679  1.2899 -0.5754
  220MOL0     C29580  11.866   1.727   4.644  0.3027  0.2429  0.0674
  220MOL0     C29581  11.819   1.858   4.588 -0.2620 -0.1327  0.2302
  220MOL0     N29582  11.920   1.962   4.582 -0.0523  0.0952  0.0499
  220MOL0     C29583  12.043   1.950   4.528 -0.6026 -0.0493  0.2308
  220MOL0     C29584  12.107   2.070   4.551  1.0091 -0.3883  0.4031
  220MOL0     C29585  12.249   2.122   4.515 -0.4657 -0.2658 -0.2581
  220MOL0     C29586  12.324   2.204   4.631 -0.2574 -0.5491 -0.7470
  220MOL0     C29587  12.467   2.233   4.586  0.3850 -0.2832  0.6742
  220MOL0     C29588  12.564   2.281   4.700  0.0418 -0.6968 -0.3288
  220MOL0     O29589  12.702   2.243   4.694  0.4554 -0.4605 -0.0145
  220MOL0     C29590  12.791   2.323   4.758  0.1343  0.5000 -0.0136
  220MOL0     C29591  12.779   2.416   4.859  1.0354 -0.8287 -0.0262
  220MOL0     C29592  12.885   2.487   4.912  0.5363  0.0437 -0.1174
  220MOL0     C29593  13.014   2.460   4.864  0.5275 -0.1413  0.0461
  220MOL0     C29594  13.128   2.540   4.907 -0.3013 -0.3530 -0.7535
  220MOL0     O29595  13.102   2.644   4.983  0.1306 -0.1826 -0.6621
  220MOL0     C29596  13.200   2.727   5.023  0.2877 -0.2844  0.5765
  220MOL0     C29597  13.197   2.764   5.155  1.1920  0.4102  0.7071
  220MOL0     C29598  13.288   2.862   5.197  0.1629  0.7884 -0.8834
  220MOL0     C29599  13.387   2.921   5.113 -0.4618  0.0223  0.1836
  220MOL0     O29600  13.471   3.017   5.163  0.4659 -0.3986 -0.4467
  220MOL0     C29601  13.440   3.156   5.126  0.4005  0.3347  0.0814
  220MOL0     C29602  13.528   3.221   5.022 -0.2117 -0.0602  0.2832
  220MOL0     C29603  13.678   3.207   5.047 -0.6637  1.1290  0.5938
  220MOL0     C29604  13.750   3.339   5.023  0.2513 -0.5102  0.1176
  220MOL0     C29605  13.899   3.325   5.003 -0.2394  0.9760 -0.2251
  220MOL0     C29606  13.970   3.451   4.967 -0.3071 -0.0786  0.2970
  220MOL0     C29607  14.123   3.446   4.977  0.5450 -0.8339 -0.3272
  220MOL0     C29608  14.196   3.575   4.931  1.1823  0.7931 -0.6238
  220MOL0    Cl29609  14.379   3.552   4.915 -0.1660  0.6489 -0.2883
  220MOL0     C29610  13.389   2.880   4.982 -0.0266 -0.1436  0.2681
  220MOL0     C29611  13.300   2.783   4.937  0.0811  0.2985 -0.0009
  220MOL0     O29612  13.241   2.507   4.873 -0.2321  0.4491  0.0307
  220MOL0     C29613  13.029   2.363   4.766 -0.1941 -0.8650 -0.7328
  220MOL0     C29614  12.925   2.297   4.711 -0.0871 -0.2893  0.2067
  220MOL0     N29615  12.014   2.153   4.605 -0.7757  0.0182  0.9400
  220MOL0     N29616  11.902   2.087   4.628 -0.1712  0.0152 -0.4020
  220MOL0     C29617  10.994   1.502   4.482  0.5188  0.5130  0.7213
  220MOL0     C29618  10.865   1.562   4.493  0.9974  0.0725 -0.1221
  220MOL0     C29619  10.598   1.893   4.679  0.3033 -0.3300  0.1345
  220MOL0     C29620  10.560   1.952   4.560 -0.3830 -1.0885  0.3562
  220MOL0     C29621  10.468   2.057   4.551 -0.7206  0.8654  0.4890
  220MOL0     C29622  10.394   2.098   4.667 -0.4454 -1.1616  0.0483
  220MOL0     O29623  10.285   2.186   4.646  0.5889  0.5477  0.9406
  220MOL0     C29624  10.215   2.229   4.758 -0.3535 -0.3557  0.0567
  220MOL0     C29625  10.148   2.360   4.717  0.8031  0.5726  0.6125
  220MOL0     C29626  10.032   2.327   4.615  0.7093  1.0398  0.3613
  220MOL0     C29627   9.964   2.456   4.548 -0.0681 -0.9722  1.0319
  220MOL0     C29628  10.066   2.534   4.467 -0.4416  0.4949 -0.3977
  220MOL0     C29629  10.138   2.601   4.394  0.3185  0.1419  1.0406
  220MOL0     C29630  10.431   2.037   4.789 -0.5287 -0.7683  0.7004
  220MOL0     C29631  10.535   1.941   4.797 -0.0112  0.0299  0.1368
  220MOL0     C29632  10.545   1.893   4.937  0.4320  0.4508 -0.4681
  220MOL0     H29633  10.965   1.871   4.608 -1.9419  0.6259 -2.6189
  220MOL0     H29634  11.182   1.762   4.594  1.1455 -1.3162 -1.7124
  220MOL0     H29635  11.154   1.333   4.604  1.9042 -2.9732  0.5969
  220MOL0     H29636  11.224   1.327   4.440  2.4718  2.1552 -1.2176
  220MOL0     H29637  11.369   1.211   4.572 -2.4573  0.3858 -0.8749
  220MOL0     H29638  11.368   1.336   4.702  0.6327  2.5210 -0.6019
  220MOL0     H29639  11.499   1.437   4.444  3.2003  1.8902  0.6828
  220MOL0     H29640  11.582   1.319   4.543 -1.5473 -0.2332 -0.3269
  220MOL0     H29641  11.480   1.572   4.674  1.2729  1.5348  0.1369
  220MOL0     H29642  11.580   1.428   4.730  1.9698 -0.5374 -1.5658
  220MOL0     H29643  11.751   1.475   4.567 -2.1117 -1.6362 -0.4985
  220MOL0     H29644  11.654   1.618   4.512 -2.4580 -0.5322  0.3071
  220MOL0     H29645  11.677   1.702   4.752 -0.7306 -0.5208  0.4066
  220MOL0     H29646  11.803   1.584   4.778 -1.7932  2.0857  1.3525
  220MOL0     H29647  11.925   1.675   4.568  0.6545  3.7525 -2.3070
  220MOL0     H29648  11.944   1.753   4.716  1.6954  2.5059 -2.1044
  220MOL0     H29649  11.795   1.835   4.484 -1.5220 -2.8669  1.0289
  220MOL0     H29650  11.735   1.906   4.640  0.0463 -1.6659  2.2682
  220MOL0     H29651  12.097   1.869   4.480 -0.5334 -0.2560  0.6455
  220MOL0     H29652  12.312   2.040   4.480  0.5790  1.5851 -3.1090
  220MOL0     H29653  12.234   2.198   4.437 -0.5225  2.2869  2.0978
  220MOL0     H29654  12.272   2.294   4.666  0.3283 -0.3702 -0.3194
  220MOL0     H29655  12.341   2.133   4.712 -0.6310 -1.1342 -1.1810
  220MOL0     H29656  12.470   2.302   4.501  0.1518 -2.1968 -0.9555
  220MOL0     H29657  12.528   2.154   4.542  1.7294  0.1473  1.7162
  220MOL0     H29658  12.539   2.254   4.803 -1.0661 -0.2559 -0.4662
  220MOL0     H29659  12.550   2.389   4.710  3.0253 -0.1254 -1.4122
  220MOL0     H29660  12.683   2.431   4.906  1.6940  2.8963  0.4384
  220MOL0     H29661  12.871   2.567   4.984 -4.0785 -1.9623  1.5885
  220MOL0     H29662  13.113   2.737   5.219  0.6757 -2.0388 -0.8606
  220MOL0     H29663  13.280   2.897   5.300 -2.5076 -0.0925 -0.7058
  220MOL0     H29664  13.334   3.177   5.106  0.1272  1.0644  2.0692
  220MOL0     H29665  13.473   3.212   5.214  0.5905 -3.2149  2.4555
  220MOL0     H29666  13.502   3.188   4.921 -0.0632  0.7122 -0.0186
  220MOL0     H29667  13.493   3.325   5.017  0.4581  0.1216 -0.9902
  220MOL0     H29668  13.691   3.156   5.143  0.8405 -2.7921 -1.4579
  220MOL0     H29669  13.723   3.143   4.970 -2.1600  0.0996  0.5481
  220MOL0     H29670  13.736   3.402   5.112 -0.1897 -0.8506  0.2960
  220MOL0     H29671  13.697   3.389   4.941 -0.2667  1.7185  1.7277
  220MOL0     H29672  13.913   3.251   4.923 -0.0895  0.5964  0.1459
  220MOL0     H29673  13.941   3.279   5.094 -0.6874 -0.7665 -0.8586
  220MOL0     H29674  13.951   3.491   4.867 -0.8912 -0.6520  0.1716
  220MOL0     H29675  13.923   3.522   5.036 -1.5031 -1.9529  1.5107
  220MOL0     H29676  14.168   3.360   4.928 -0.5307 -0.2560 -2.4686
  220MOL0     H29677  14.160   3.430   5.078  2.8020  1.1649 -0.7365
  220MOL0     H29678  14.167   3.605   4.829  2.1550 -0.8340 -1.4205
  220MOL0     H29679  14.166   3.643   5.011  5.1026  0.2742  1.5754
  220MOL0     H29680  13.464   2.915   4.912  0.8155 -2.5747 -0.1523
  220MOL0     H29681  13.305   2.747   4.835  2.7788 -0.1369  0.2116
  220MOL0     H29682  13.130   2.337   4.734 -1.0373 -3.2164 -1.6586
  220MOL0     H29683  12.946   2.211   4.649 -0.6250 -0.1877 -0.1152
  220MOL0     H29684  11.002   1.405   4.434  1.1371  1.5255 -1.3576
  220MOL0     H29685  10.772   1.508   4.479  0.9495 -0.2667  1.3669
  220MOL0     H29686  10.598   1.918   4.464 -0.7165 -1.1930  0.2613
  220MOL0     H29687  10.449   2.106   4.456 -1.1289 -0.2564 -0.0349
  220MOL0     H29688  10.286   2.252   4.837 -2.1826  1.0266  1.3680
  220MOL0     H29689  10.143   2.153   4.791  0.2381 -0.3136  1.4805
  220MOL0     H29690  10.224   2.421   4.668  1.8037 -0.6237  0.6477
  220MOL0     H29691  10.105   2.421   4.798  1.0680  0.2878  0.9665
  220MOL0     H29692   9.955   2.279   4.675  1.2029 -0.9778 -0.5233
  220MOL0     H29693  10.067   2.254   4.540 -2.3072  1.9436 -2.1569
  220MOL0     H29694   9.885   2.426   4.479  1.4296 -0.9839 -0.7696
  220MOL0     H29695   9.918   2.521   4.623 -3.1090 -0.6110 -0.9782
  220MOL0     H29696  10.190   2.665   4.326  1.0219 -0.5993  0.8607
  220MOL0     H29697  10.373   2.056   4.879  0.3067 -2.6696  1.7005
  220MOL0     H29698  10.593   1.796   4.951  0.8448  1.0024  2.7760
  220MOL0     H29699  10.602   1.964   4.997  0.9004 -0.0778 -0.2728
  220MOL0     H29700  10.445   1.887   4.982  0.7857 -0.1329  0.2587
  221MOL0     O29701   3.004   1.542   9.716 -0.3012  0.2404  0.2512
  221MOL0     C29702   2.998   1.455   9.628  0.4263  0.6333 -0.2313
  221MOL0     O29703   3.072   1.460   9.513 -0.3800 -0.2071 -0.0633
  221MOL0     C29704   3.172   1.560   9.504  1.2150 -0.6498  0.1141
  221MOL0     C29705   3.177   1.619   9.375  0.7183 -0.2956  1.0167
  221MOL0     C29706   3.273   1.712   9.345  0.3908 -0.4854 -0.8465
  221MOL0     C29707   3.377   1.747   9.435  0.3543 -0.1956  0.2587
  221MOL0     O29708   3.475   1.839   9.420  0.5277 -0.7883  0.1830
  221MOL0     C29709   3.477   1.896   9.292 -0.3112 -0.4904  0.2428
  221MOL0     C29710   3.581   2.009   9.274 -0.2223  0.0514  0.8503
  221MOL0     C29711   3.721   1.943   9.292 -0.7370 -0.6827 -0.4858
  221MOL0     C29712   3.843   2.045   9.272 -0.1093  0.4270 -0.5433
  221MOL0     C29713   3.978   1.968   9.309 -0.2765 -0.0870 -0.7684
  221MOL0     C29714   4.062   2.072   9.391  0.6508 -0.5061 -0.3898
  221MOL0     C29715   4.183   2.024   9.466  0.1972  0.6929  0.4530
  221MOL0     C29716   4.263   2.136   9.507 -0.1198  0.7151 -0.9826
  221MOL0     N29717   4.374   2.175   9.415 -1.3200  0.1084 -0.5500
  221MOL0     C29718   4.505   2.143   9.443  0.3747  0.2371 -0.0539
  221MOL0     C29719   4.568   2.180   9.334 -0.9871  0.9592  0.5559
  221MOL0     C29720   4.713   2.144   9.311  0.5757  0.1138 -0.6309
  221MOL0     C29721   4.727   2.014   9.237 -0.2705 -0.0156  0.1596
  221MOL0     C29722   4.859   2.008   9.151 -0.6051 -0.6479  0.6361
  221MOL0     C29723   4.995   2.021   9.229  0.1709 -0.4332  0.2594
  221MOL0     O29724   5.069   2.129   9.175 -0.3918  0.6061 -0.1471
  221MOL0     C29725   5.200   2.135   9.223 -0.0576  0.1843  0.5272
  221MOL0     C29726   5.283   2.234   9.163  0.0849  0.4725 -1.2590
  221MOL0     C29727   5.411   2.256   9.210 -0.0165  0.0825  0.2876
  221MOL0     C29728   5.471   2.187   9.320 -0.1090 -0.8868  0.4549
  221MOL0     C29729   5.617   2.208   9.348  0.2788  0.1630 -0.3056
  221MOL0     O29730   5.679   2.303   9.271  0.2290 -0.1595  0.3923
  221MOL0     C29731   5.802   2.345   9.323 -0.0102 -1.0619  0.2258
  221MOL0     C29732   5.905   2.263   9.357 -0.1238 -0.2843  0.3365
  221MOL0     C29733   6.037   2.316   9.407 -0.1782  0.1264 -0.6409
  221MOL0     C29734   6.057   2.452   9.401 -0.1627 -0.3005 -0.4594
  221MOL0     O29735   6.177   2.490   9.455  0.3028  0.0019 -1.0478
  221MOL0     C29736   6.175   2.628   9.521  0.0143  0.3905 -0.0834
  221MOL0     C29737   6.241   2.737   9.432 -0.2951 -0.9066 -0.6539
  221MOL0     C29738   6.381   2.693   9.380 -0.2967 -0.3078  0.2462
  221MOL0     C29739   6.449   2.818   9.315 -0.0634  0.1532 -0.5963
  221MOL0     C29740   6.600   2.782   9.308 -0.5494 -0.1026  0.4705
  221MOL0     C29741   6.681   2.904   9.241 -0.4000 -0.0992  0.4004
  221MOL0     C29742   6.835   2.872   9.245 -0.2037  0.2994 -0.4917
  221MOL0     C29743   6.875   2.761   9.149 -0.0484  0.3712  0.1762
  221MOL0    Cl29744   6.809   2.774   8.979 -0.4457  0.2099 -0.2890
  221MOL0     C29745   5.956   2.543   9.373  0.0439  0.4703  0.1694
  221MOL0     C29746   5.828   2.487   9.340 -1.8870 -0.0796 -0.1647
  221MOL0     O29747   5.657   2.159   9.449  0.2603 -0.1541 -0.0596
  221MOL0     C29748   5.392   2.087   9.368 -0.1343 -0.7647  0.1300
  221MOL0     C29749   5.257   2.071   9.328  0.2873 -0.0603  0.9864
  221MOL0     N29750   4.480   2.227   9.249 -0.2525 -0.9409  0.0063
  221MOL0     N29751   4.357   2.229   9.294  0.1395  0.1160  0.3566
  221MOL0     C29752   3.379   1.675   9.556 -0.3695  0.4043 -0.6437
  221MOL0     C29753   3.282   1.582   9.591  0.3052  0.1035  0.0221
  221MOL0     C29754   2.890   1.351   9.634 -1.0069  0.2223  0.1226
  221MOL0     C29755   2.831   1.294   9.518 -0.6616 -0.3920 -0.0152
  221MOL0     C29756   2.726   1.212   9.527 -0.1370  0.1502 -0.4606
  221MOL0     C29757   2.650   1.189   9.641 -0.0627  0.2382  0.4960
  221MOL0     O29758   2.541   1.116   9.643 -0.3782 -0.6312 -0.0777
  221MOL0     C29759   2.416   1.175   9.612  0.5582  0.4304 -0.8124
  221MOL0     C29760   2.362   1.263   9.729  0.3013 -0.3742 -0.2093
  221MOL0     C29761   2.267   1.185   9.815 -0.4889  0.1647  0.7030
  221MOL0     C29762   2.232   1.240   9.959  0.0918 -1.0581 -0.3544
  221MOL0     C29763   2.101   1.193  10.000  0.2192 -0.3314  0.4515
  221MOL0     C29764   1.984   1.155  10.031 -1.0372 -0.4349 -0.6676
  221MOL0     C29765   2.708   1.242   9.754 -0.6251  0.0999  0.5974
  221MOL0     C29766   2.827   1.314   9.758 -0.6017 -0.0002 -0.8664
  221MOL0     C29767   2.890   1.354   9.885 -0.6187 -0.1862 -0.0590
  221MOL0     H29768   3.099   1.604   9.301 -0.4620 -0.4495  2.2389
  221MOL0     H29769   3.270   1.761   9.248  0.3074  0.8457 -0.1943
  221MOL0     H29770   3.494   1.819   9.216  3.5820  2.2331 -1.9845
  221MOL0     H29771   3.379   1.938   9.268 -0.1685  0.2102  0.8669
  221MOL0     H29772   3.561   2.086   9.349 -0.8168  1.5666 -0.8100
  221MOL0     H29773   3.575   2.056   9.176 -1.0687  0.8377  1.2617
  221MOL0     H29774   3.732   1.865   9.216  2.6460  0.9823 -1.9208
  221MOL0     H29775   3.722   1.908   9.396 -3.8742  3.2784  1.1374
  221MOL0     H29776   3.854   2.079   9.169  0.8361  1.1344 -0.2316
  221MOL0     H29777   3.830   2.132   9.338  3.3740  1.7551 -1.3567
  221MOL0     H29778   3.953   1.874   9.357  1.9573  0.4489  1.6840
  221MOL0     H29779   4.037   1.960   9.217 -0.2975  1.7918 -0.9914
  221MOL0     H29780   4.083   2.160   9.330 -2.8712 -0.0497 -1.1981
  221MOL0     H29781   3.990   2.112   9.464  0.4737  0.2873 -0.9909
  221MOL0     H29782   4.241   1.946   9.416 -1.2821 -0.0342 -0.2191
  221MOL0     H29783   4.146   1.981   9.559  0.9250  1.8288  1.2896
  221MOL0     H29784   4.206   2.221   9.545 -2.8760 -2.1661  1.8999
  221MOL0     H29785   4.320   2.101   9.594 -2.2207 -2.4901 -0.7517
  221MOL0     H29786   4.541   2.075   9.520  1.8609 -0.3939 -1.2437
  221MOL0     H29787   4.761   2.235   9.275  1.5960  1.9124  4.4711
  221MOL0     H29788   4.755   2.133   9.411 -2.0621  0.0392  0.5370
  221MOL0     H29789   4.741   1.936   9.312  2.6005 -0.3929 -0.6334
  221MOL0     H29790   4.635   1.992   9.181 -0.3544  0.0321  0.2791
  221MOL0     H29791   4.842   2.080   9.070  0.5135 -0.2418  0.7366
  221MOL0     H29792   4.863   1.909   9.104 -2.8101 -0.5911  0.2358
  221MOL0     H29793   5.051   1.927   9.221  1.9063  0.6357 -0.8394
  221MOL0     H29794   4.979   2.032   9.337  0.9620  3.5034  0.1213
  221MOL0     H29795   5.240   2.290   9.080 -0.7029 -0.6360 -1.6140
  221MOL0     H29796   5.466   2.327   9.148 -0.1361 -0.3831 -0.3668
  221MOL0     H29797   5.890   2.155   9.359 -1.2570 -0.1984 -1.8030
  221MOL0     H29798   6.112   2.243   9.438  1.1208  1.3707 -0.7806
  221MOL0     H29799   6.076   2.651   9.560  0.0398 -2.2704  1.9267
  221MOL0     H29800   6.238   2.608   9.609 -2.0364 -1.2023  1.1261
  221MOL0     H29801   6.182   2.771   9.346 -0.3851 -3.2765 -1.6241
  221MOL0     H29802   6.238   2.822   9.500  0.9177  0.3482 -2.0884
  221MOL0     H29803   6.441   2.655   9.463  1.9524 -1.5159 -1.8063
  221MOL0     H29804   6.367   2.616   9.304 -0.3451 -0.3960  0.3437
  221MOL0     H29805   6.433   2.909   9.373 -1.4952  0.6087 -1.6381
  221MOL0     H29806   6.409   2.830   9.214 -0.2056  0.6746 -0.4788
  221MOL0     H29807   6.594   2.697   9.239 -2.2829  0.2988  0.0749
  221MOL0     H29808   6.638   2.753   9.406 -1.8581  0.2214  1.1024
  221MOL0     H29809   6.654   2.910   9.136 -1.5020 -0.1166  0.6705
  221MOL0     H29810   6.661   3.003   9.284  0.5532  1.2956 -2.1663
  221MOL0     H29811   6.866   2.828   9.340 -0.4713  0.0291 -0.5273
  221MOL0     H29812   6.890   2.959   9.207 -2.5655  0.7915 -3.1511
  221MOL0     H29813   6.984   2.755   9.159  0.0654  2.4305  0.4528
  221MOL0     H29814   6.849   2.666   9.198 -2.0294  1.9781  2.4842
  221MOL0     H29815   5.967   2.651   9.376 -4.0204  1.0592 -0.5228
  221MOL0     H29816   5.749   2.561   9.330 -1.3415  0.8849  1.9821
  221MOL0     H29817   5.425   2.021   9.448 -0.1964 -0.2846  0.5546
  221MOL0     H29818   5.203   1.988   9.373 -2.6219  1.5489  0.7250
  221MOL0     H29819   3.448   1.712   9.631 -0.0370  1.6611 -1.5473
  221MOL0     H29820   3.282   1.519   9.679 -2.1416 -0.3155 -0.2006
  221MOL0     H29821   2.870   1.315   9.419 -6.1080  0.5976 -2.2956
  221MOL0     H29822   2.706   1.149   9.440  0.1133  0.7056 -0.9297
  221MOL0     H29823   2.337   1.110   9.574 -0.3895  0.9557  0.2240
  221MOL0     H29824   2.441   1.241   9.528  1.4148  1.3855  0.1697
  221MOL0     H29825   2.302   1.345   9.687 -0.8962 -1.8741 -1.5516
  221MOL0     H29826   2.440   1.314   9.786 -0.8165 -0.1579  1.1864
  221MOL0     H29827   2.309   1.085   9.830  0.9420  0.3279 -1.6664
  221MOL0     H29828   2.178   1.187   9.752 -0.6859 -2.7720  0.7562
  221MOL0     H29829   2.303   1.197  10.029  0.3102  0.8914  0.6957
  221MOL0     H29830   2.235   1.350   9.959 -2.5753 -0.9069 -1.7680
  221MOL0     H29831   1.886   1.134  10.070 -0.1141 -1.2335  1.3613
  221MOL0     H29832   2.664   1.215   9.849 -1.7552  0.6173  0.2351
  221MOL0     H29833   2.859   1.457   9.906  1.7124  0.1762  2.0413
  221MOL0     H29834   2.860   1.296   9.972  0.9357  0.5604  1.0310
  221MOL0     H29835   2.999   1.349   9.880 -0.3819 -1.5323  3.6656
  222MOL0     O29836   4.583   5.984  10.791  0.6955 -0.3364 -0.6231
  222MOL0     C29837   4.563   6.057  10.878 -0.2914 -0.4688 -0.7872
  222MOL0     O29838   4.670   6.105  10.957  0.3329 -0.9184 -0.3746
  222MOL0     C29839   4.793   6.083  10.910  1.1356  1.0128 -0.4822
  222MOL0     C29840   4.839   6.139  10.791 -0.9354 -0.3658 -0.2034
  222MOL0     C29841   4.968   6.114  10.757 -1.5661  0.0214  0.8926
  222MOL0     C29842   5.060   6.040  10.843 -0.8639  0.4311  0.0289
  222MOL0     O29843   5.194   6.049  10.827 -1.0078 -0.4003 -0.4695
  222MOL0     C29844   5.242   6.048  10.691  0.4868  0.1443  0.6538
  222MOL0     C29845   5.388   6.003  10.690  0.4011 -0.5181 -0.1309
  222MOL0     C29846   5.477   6.102  10.769  0.5966  0.0202 -0.4173
  222MOL0     C29847   5.622   6.054  10.766 -0.8738 -0.4951 -0.3562
  222MOL0     C29848   5.710   6.161  10.842 -0.1028  0.1257  0.3471
  222MOL0     C29849   5.862   6.139  10.822  0.0488  0.1887  0.1547
  222MOL0     C29850   5.913   6.012  10.898 -0.8237 -0.1038  0.2138
  222MOL0     C29851   6.058   6.002  10.911 -1.1951  0.2301 -0.3157
  222MOL0     N29852   6.131   6.080  11.009 -0.2504  0.0825 -0.2255
  222MOL0     C29853   6.174   6.028  11.136 -0.0978  0.4304  0.8871
  222MOL0     C29854   6.264   6.123  11.182 -0.3302 -0.3696  0.1137
  222MOL0     C29855   6.338   6.115  11.318 -0.4915 -0.7076 -0.0582
  222MOL0     C29856   6.481   6.040  11.305  0.5420 -0.3361  0.0434
  222MOL0     C29857   6.556   6.031  11.431 -0.2361 -0.5398 -0.1353
  222MOL0     C29858   6.691   5.955  11.419 -0.0147  0.5588 -0.0311
  222MOL0     O29859   6.789   6.040  11.355  0.9851 -0.8469 -0.7252
  222MOL0     C29860   6.895   5.964  11.314 -1.1969  0.2754  0.3973
  222MOL0     C29861   6.966   5.868  11.377  0.1603 -0.3846  0.3834
  222MOL0     C29862   7.089   5.820  11.326  0.4119  0.1017  0.1824
  222MOL0     C29863   7.144   5.873  11.206 -0.3188  0.3698 -0.9229
  222MOL0     C29864   7.278   5.830  11.160  0.7905 -1.0277  0.5071
  222MOL0     O29865   7.325   5.885  11.035 -1.2698 -0.1575 -0.6386
  222MOL0     C29866   7.440   5.836  10.987  1.0192  0.5269 -1.1526
  222MOL0     C29867   7.529   5.933  10.943 -0.3313  0.1261  0.3402
  222MOL0     C29868   7.639   5.889  10.861  0.8087 -0.2622 -0.0410
  222MOL0     C29869   7.663   5.758  10.838 -0.4938  0.6773  0.3546
  222MOL0     O29870   7.774   5.729  10.754 -0.9021 -0.0690  0.4590
  222MOL0     C29871   7.869   5.649  10.831 -0.6029  0.5032  0.4499
  222MOL0     C29872   8.005   5.665  10.755  1.0870  0.7589  0.0277
  222MOL0     C29873   8.007   5.569  10.640 -0.6796  0.1056 -0.8562
  222MOL0     C29874   8.131   5.615  10.550  0.6372  0.4031 -0.8235
  222MOL0     C29875   8.140   5.539  10.420  0.0099 -0.8140 -0.3431
  222MOL0     C29876   8.270   5.604  10.362 -0.4001  0.4579  0.2093
  222MOL0     C29877   8.313   5.537  10.230  0.1356 -0.7507  0.3943
  222MOL0     C29878   8.466   5.552  10.202 -0.2139 -0.0684  0.0916
  222MOL0    Cl29879   8.498   5.511  10.032  0.2798  0.0659 -0.3186
  222MOL0     C29880   7.581   5.655  10.900  0.1035  0.0231 -0.6181
  222MOL0     C29881   7.467   5.700  10.975 -0.0055  0.3399 -0.4637
  222MOL0     O29882   7.331   5.748  11.228  0.5501 -0.2034 -0.1568
  222MOL0     C29883   7.067   5.968  11.136 -0.5528 -0.0329 -0.6155
  222MOL0     C29884   6.955   6.015  11.191 -0.0830  0.3510  0.0339
  222MOL0     N29885   6.266   6.226  11.092 -0.4483  0.1914  0.1466
  222MOL0     N29886   6.199   6.191  10.985  0.0181  0.3180 -0.4228
  222MOL0     C29887   5.009   5.988  10.963 -0.3932 -0.8041  0.2422
  222MOL0     C29888   4.878   6.014  10.997  0.2617 -0.6143  0.5654
  222MOL0     C29889   4.435   6.107  10.919 -0.0543 -0.2720 -0.0418
  222MOL0     C29890   4.428   6.202  11.028  0.0092 -0.3266 -0.8807
  222MOL0     C29891   4.304   6.238  11.079  0.1092 -0.0336 -0.0457
  222MOL0     C29892   4.185   6.192  11.029  0.6766 -0.6188  0.8178
  222MOL0     O29893   4.081   6.237  11.111 -0.7620 -0.2936  0.5938
  222MOL0     C29894   3.951   6.182  11.096  1.0944  0.0441 -0.3398
  222MOL0     C29895   3.851   6.279  11.043 -0.9238 -0.1845 -0.0559
  222MOL0     C29896   3.815   6.368  11.159  0.8327  0.2703  0.4843
  222MOL0     C29897   3.689   6.453  11.135  0.8463  0.0579  0.0270
  222MOL0     C29898   3.729   6.560  11.046 -0.1523  0.4731 -0.4959
  222MOL0     C29899   3.767   6.654  10.986  0.2552  0.1557 -0.0040
  222MOL0     C29900   4.182   6.097  10.925 -0.0626  0.7986 -0.1423
  222MOL0     C29901   4.310   6.054  10.867 -0.2445  0.1355 -0.0621
  222MOL0     C29902   4.300   5.975  10.738  0.0714  0.3996  0.1716
  222MOL0     H29903   4.768   6.199  10.735  0.6698  0.3525 -1.5522
  222MOL0     H29904   5.010   6.162  10.669  1.2071 -3.1993  0.2801
  222MOL0     H29905   5.176   5.982  10.634  0.1573  2.7947 -2.3583
  222MOL0     H29906   5.238   6.141  10.633  0.7315 -0.0755  0.2843
  222MOL0     H29907   5.418   5.998  10.585  2.1792  0.5022  0.2900
  222MOL0     H29908   5.396   5.906  10.739  1.2101  0.5898  2.0230
  222MOL0     H29909   5.441   6.110  10.871  3.2359  0.3488  0.5642
  222MOL0     H29910   5.472   6.202  10.724  0.2327 -0.5039 -1.5997
  222MOL0     H29911   5.633   5.957  10.815  1.3330  1.1358  2.6977
  222MOL0     H29912   5.659   6.045  10.663 -0.1425  2.4500 -0.4318
  222MOL0     H29913   5.684   6.256  10.794  0.1635  2.7588  4.8504
  222MOL0     H29914   5.696   6.173  10.950  2.3719 -0.8538  0.8492
  222MOL0     H29915   5.881   6.123  10.715 -0.6824 -1.8444  0.2945
  222MOL0     H29916   5.908   6.228  10.866  1.9366 -0.0498 -1.2132
  222MOL0     H29917   5.887   5.926  10.836 -0.9520 -0.1180  0.2874
  222MOL0     H29918   5.876   6.012  11.001  0.3230 -1.3130  0.6449
  222MOL0     H29919   6.072   5.896  10.934 -1.9127  0.2168  0.0681
  222MOL0     H29920   6.098   6.021  10.810  4.1037 -2.3774  0.9207
  222MOL0     H29921   6.151   5.936  11.190 -1.3284  0.1981  0.0141
  222MOL0     H29922   6.358   6.215  11.358  0.5670  0.1224 -2.4868
  222MOL0     H29923   6.275   6.057  11.387  0.0460 -0.4406  0.6793
  222MOL0     H29924   6.462   5.936  11.277  1.6826 -0.2277 -1.2217
  222MOL0     H29925   6.544   6.090  11.231 -0.5820  0.8887 -0.1280
  222MOL0     H29926   6.489   5.977  11.499 -0.0027 -1.0494 -0.3031
  222MOL0     H29927   6.567   6.133  11.468  0.6176 -0.7141  0.1347
  222MOL0     H29928   6.685   5.865  11.357  0.3286 -0.7991  1.8267
  222MOL0     H29929   6.718   5.923  11.520  0.5938  0.2054 -0.3031
  222MOL0     H29930   6.932   5.837  11.476 -0.6336  1.8853  0.8734
  222MOL0     H29931   7.147   5.749  11.384  0.9940 -1.0204 -1.6593
  222MOL0     H29932   7.498   6.036  10.926 -0.7374 -0.1802 -0.8331
  222MOL0     H29933   7.705   5.962  10.815 -1.0629  1.9300  0.5748
  222MOL0     H29934   7.865   5.693  10.932  0.1851  0.8417  0.3461
  222MOL0     H29935   7.848   5.543  10.844  1.7580  0.2731  4.2159
  222MOL0     H29936   8.015   5.770  10.726  0.2867  0.0053 -3.3506
  222MOL0     H29937   8.080   5.630  10.827  0.8538 -3.1903 -1.3908
  222MOL0     H29938   8.021   5.465  10.672 -0.9742 -0.8227 -3.4814
  222MOL0     H29939   7.918   5.566  10.577 -1.5952 -2.4341  0.4400
  222MOL0     H29940   8.221   5.610  10.611  0.9080  1.8079 -1.0670
  222MOL0     H29941   8.106   5.716  10.515  1.4402  0.9434  0.1049
  222MOL0     H29942   8.056   5.561  10.353  0.4591  1.5174 -0.1985
  222MOL0     H29943   8.149   5.430  10.434  2.2858 -0.6820 -0.3158
  222MOL0     H29944   8.257   5.711  10.345  1.5069  0.4681 -1.5065
  222MOL0     H29945   8.350   5.601  10.437 -0.1909  1.7124  0.0624
  222MOL0     H29946   8.262   5.603  10.159 -1.5198  1.3489  3.3036
  222MOL0     H29947   8.279   5.433  10.225 -0.6794 -0.5086  0.6913
  222MOL0     H29948   8.508   5.647  10.237 -1.8473 -0.3776  3.2641
  222MOL0     H29949   8.514   5.484  10.272  0.0246  0.8337  0.8154
  222MOL0     H29950   7.602   5.548  10.892 -0.2721 -0.1609  0.5634
  222MOL0     H29951   7.400   5.637  11.032 -0.0449  1.1714  0.4500
  222MOL0     H29952   7.104   6.009  11.043  2.0379  1.1537  0.8219
  222MOL0     H29953   6.903   6.097  11.142 -0.7704  2.8484  4.4017
  222MOL0     H29954   5.073   5.938  11.033 -1.3180  0.1731  1.8501
  222MOL0     H29955   4.842   5.977  11.093 -2.4644  0.7095  0.1615
  222MOL0     H29956   4.512   6.242  11.083 -1.6300  0.4696  1.1781
  222MOL0     H29957   4.318   6.309  11.160  3.2121 -0.5968  0.0367
  222MOL0     H29958   3.917   6.153  11.196 -0.7069  3.1760  0.0591
  222MOL0     H29959   3.939   6.091  11.037  1.1603  1.0709 -1.9892
  222MOL0     H29960   3.766   6.222  11.004 -1.5886  0.2827  0.6941
  222MOL0     H29961   3.899   6.345  10.969  0.3469 -0.1799  0.7400
  222MOL0     H29962   3.904   6.429  11.173  1.9671 -1.3988  0.8675
  222MOL0     H29963   3.781   6.319  11.250 -0.4045  1.2102  0.5522
  222MOL0     H29964   3.606   6.399  11.089  0.4119  1.6417 -1.1075
  222MOL0     H29965   3.664   6.492  11.234 -0.2233  0.4078 -0.3659
  222MOL0     H29966   3.810   6.723  10.916  0.7827 -1.8351 -1.7325
  222MOL0     H29967   4.088   6.068  10.880  0.2800 -0.3840 -0.1329
  222MOL0     H29968   4.324   5.869  10.754 -1.1630 -0.2610 -1.9293
  222MOL0     H29969   4.200   5.968  10.694 -0.3776  1.9170  0.9145
  222MOL0     H29970   4.360   6.027  10.662  1.1796 -0.2393  0.5891
  223MOL0     O29971   1.981   2.229   3.339  0.2749  0.1055 -0.2376
  223MOL0     C29972   1.981   2.143   3.422 -0.0772  0.3599 -0.1309
  223MOL0     O29973   2.061   2.126   3.527 -0.2925  0.2803  0.5438
  223MOL0     C29974   2.198   2.146   3.512  0.3672  0.0763 -0.4906
  223MOL0     C29975   2.274   2.173   3.630  0.5603 -0.3398  0.3215
  223MOL0     C29976   2.411   2.187   3.618  0.5734 -0.3676 -0.0256
  223MOL0     C29977   2.491   2.175   3.501  0.3390 -0.7770 -0.9749
  223MOL0     O29978   2.629   2.175   3.496  1.0909 -0.2800  0.7499
  223MOL0     C29979   2.690   2.293   3.435  0.2172 -0.6074 -0.7587
  223MOL0     C29980   2.815   2.253   3.362  0.0948 -0.3527  0.1575
  223MOL0     C29981   2.896   2.355   3.277 -0.1730 -0.7945 -1.0786
  223MOL0     C29982   3.013   2.282   3.205 -0.3371  0.3432 -0.4353
  223MOL0     C29983   3.140   2.354   3.150 -0.3004  0.2031 -0.8098
  223MOL0     C29984   3.117   2.415   3.010 -0.2698 -0.2591 -0.2540
  223MOL0     C29985   3.242   2.509   2.971 -0.1730  0.1453 -0.4999
  223MOL0     C29986   3.225   2.645   3.031  0.3741  0.2505 -0.5472
  223MOL0     N29987   3.124   2.719   2.947 -0.3582 -0.2839  0.2174
  223MOL0     C29988   2.991   2.730   2.955  0.3461  0.1187  0.4955
  223MOL0     C29989   2.968   2.804   2.846 -0.6438 -0.2652  0.6514
  223MOL0     C29990   2.821   2.842   2.808  0.4056 -0.1638  0.1151
  223MOL0     C29991   2.795   2.999   2.804 -0.0018  0.5327 -0.4316
  223MOL0     C29992   2.646   3.033   2.772  0.2187  0.4141  0.2253
  223MOL0     C29993   2.636   3.011   2.616  0.0089 -0.2391 -0.4215
  223MOL0     O29994   2.601   2.870   2.595 -0.1336 -0.0196  0.2807
  223MOL0     C29995   2.471   2.819   2.616  0.7739  0.1538  0.8353
  223MOL0     C29996   2.361   2.888   2.660  0.1187  0.4688  0.5390
  223MOL0     C29997   2.242   2.821   2.681  0.2583 -0.1002 -0.3974
  223MOL0     C29998   2.213   2.689   2.640 -0.0599 -1.2484 -0.2130
  223MOL0     C29999   2.092   2.630   2.678  0.4309 -0.3346  0.1992
  223MOL0     O30000   2.087   2.499   2.632  0.2416  0.8843 -0.4273
  223MOL0     C30001   1.965   2.438   2.635 -0.0166 -0.8387 -0.1506
  223MOL0     C30002   1.887   2.448   2.519  0.3670  0.4207  0.9474
  223MOL0     C30003   1.766   2.400   2.499 -0.4296 -0.0038 -0.6317
  223MOL0     C30004   1.718   2.328   2.610  0.4718 -0.1758 -0.4062
  223MOL0     O30005   1.603   2.256   2.608 -0.3077 -0.1124  0.2491
  223MOL0     C30006   1.499   2.318   2.529  0.2021 -0.1245 -0.0692
  223MOL0     C30007   1.363   2.232   2.553 -0.8709  0.6120 -0.0372
  223MOL0     C30008   1.307   2.230   2.689 -0.0421 -0.0178 -0.5052
  223MOL0     C30009   1.158   2.181   2.700  0.1289  0.7144  0.4541
  223MOL0     C30010   1.115   2.181   2.850  0.0468 -0.2734  0.7359
  223MOL0     C30011   0.981   2.101   2.874 -0.2322 -0.0543  0.4859
  223MOL0     C30012   0.907   2.147   3.001  0.6388  0.3000  0.8526
  223MOL0     C30013   0.769   2.080   3.018 -0.5696  1.1055  0.1915
  223MOL0    Cl30014   0.650   2.121   2.889 -0.1066 -0.3566 -0.0669
  223MOL0     C30015   1.797   2.311   2.726  0.0464 -0.3463 -0.1190
  223MOL0     C30016   1.924   2.366   2.739 -0.2232 -0.8232 -0.3130
  223MOL0     O30017   2.007   2.691   2.738  0.5652 -0.5436  0.4133
  223MOL0     C30018   2.327   2.616   2.603 -0.3322 -0.3694 -0.5797
  223MOL0     C30019   2.454   2.676   2.598 -0.0505 -0.2687 -0.3496
  223MOL0     N30020   3.075   2.825   2.762  0.0699 -1.5458 -0.1545
  223MOL0     N30021   3.165   2.783   2.835 -0.1965  0.0699 -0.1410
  223MOL0     C30022   2.416   2.157   3.385  0.1972  0.6682  0.1885
  223MOL0     C30023   2.273   2.142   3.390  0.5511  0.9346 -0.3841
  223MOL0     C30024   1.864   2.050   3.425 -0.0809 -0.7772 -0.3641
  223MOL0     C30025   1.895   1.912   3.417  0.0779 -0.5673  0.1859
  223MOL0     C30026   1.796   1.809   3.404 -0.1116  0.2456  0.0777
  223MOL0     C30027   1.659   1.851   3.412 -0.6475 -0.1474  0.1343
  223MOL0     O30028   1.552   1.766   3.393 -0.0026  0.1644 -0.0788
  223MOL0     C30029   1.561   1.628   3.421 -1.1232 -0.9841 -0.2305
  223MOL0     C30030   1.445   1.543   3.374 -0.1455 -1.1069  0.3724
  223MOL0     C30031   1.320   1.549   3.467  0.1227 -0.8506 -0.7697
  223MOL0     C30032   1.267   1.688   3.477  0.9267 -0.7561 -0.6774
  223MOL0     C30033   1.124   1.681   3.516  0.4918  0.4003  0.0516
  223MOL0     C30034   1.013   1.656   3.560  0.4382 -0.0674 -0.0989
  223MOL0     C30035   1.635   1.985   3.441  0.0553  0.2077 -0.1428
  223MOL0     C30036   1.726   2.091   3.438  0.7767  0.3824  0.4759
  223MOL0     C30037   1.666   2.232   3.435 -0.1242 -1.2567 -0.3982
  223MOL0     H30038   2.225   2.177   3.727  1.4843  0.4207  0.7789
  223MOL0     H30039   2.471   2.190   3.708 -1.6568 -0.8621  1.5528
  223MOL0     H30040   2.621   2.346   3.369  0.3327  1.9808  1.0778
  223MOL0     H30041   2.717   2.367   3.510 -0.0407  0.2152 -1.4629
  223MOL0     H30042   2.763   2.172   3.309 -2.7259  2.1429 -1.1847
  223MOL0     H30043   2.888   2.212   3.433 -1.4588 -1.2921  1.2689
  223MOL0     H30044   2.937   2.428   3.347 -0.1988 -0.6018 -1.2641
  223MOL0     H30045   2.836   2.398   3.197 -0.6638 -2.2595 -1.5352
  223MOL0     H30046   3.046   2.212   3.283  1.4574 -0.7753 -2.1134
  223MOL0     H30047   2.978   2.206   3.135 -1.0786  0.9509 -0.7314
  223MOL0     H30048   3.157   2.433   3.224 -0.2724 -0.9590  0.4648
  223MOL0     H30049   3.227   2.287   3.150  0.4077  1.0914 -0.5969
  223MOL0     H30050   3.109   2.338   2.932 -2.5103  1.1487 -1.5443
  223MOL0     H30051   3.021   2.466   2.997  0.0697  0.4140 -0.1406
  223MOL0     H30052   3.249   2.527   2.863  4.9227  1.3534 -0.2391
  223MOL0     H30053   3.339   2.464   2.996 -0.6841 -1.4085 -1.1796
  223MOL0     H30054   3.198   2.653   3.136  0.4022  1.0458 -0.5959
  223MOL0     H30055   3.321   2.698   3.027  0.7730 -0.5002 -1.1957
  223MOL0     H30056   2.930   2.688   3.034  0.0700  1.3107  0.9239
  223MOL0     H30057   2.810   2.790   2.713  0.6108 -0.8684  0.4742
  223MOL0     H30058   2.757   2.792   2.881 -0.5293 -4.0496 -3.0186
  223MOL0     H30059   2.814   3.034   2.906  1.7424 -0.5887 -0.3112
  223MOL0     H30060   2.859   3.058   2.738 -0.8257  2.5074  0.4720
  223MOL0     H30061   2.617   3.137   2.790  0.1736  0.2732  1.0164
  223MOL0     H30062   2.578   2.966   2.825 -0.8697  2.2117  1.1906
  223MOL0     H30063   2.729   3.026   2.562 -0.6854 -0.5723 -1.7549
  223MOL0     H30064   2.554   3.072   2.576  0.4144  1.6634  1.4554
  223MOL0     H30065   2.365   2.990   2.697 -0.1096  0.5781  0.2672
  223MOL0     H30066   2.167   2.888   2.723  1.0508  1.5487 -1.4928
  223MOL0     H30067   1.928   2.491   2.428 -0.3802 -0.2588  0.2737
  223MOL0     H30068   1.716   2.424   2.406 -1.0830 -1.6593 -0.7501
  223MOL0     H30069   1.485   2.426   2.539 -2.2608 -0.4533  0.7644
  223MOL0     H30070   1.538   2.310   2.428 -0.9897 -0.2700 -0.5305
  223MOL0     H30071   1.288   2.277   2.488 -1.5288  0.8560  0.8861
  223MOL0     H30072   1.377   2.129   2.519 -1.5017 -0.3816  2.4762
  223MOL0     H30073   1.373   2.159   2.741  0.7536  0.3456 -0.9881
  223MOL0     H30074   1.322   2.329   2.735  1.2278  0.5230 -1.9888
  223MOL0     H30075   1.140   2.077   2.674  2.0971 -0.5174  3.4448
  223MOL0     H30076   1.108   2.241   2.623  0.8466  0.4789 -0.2200
  223MOL0     H30077   1.110   2.283   2.889 -0.0498 -0.3244  0.8595
  223MOL0     H30078   1.192   2.125   2.906 -1.8061 -2.2359  1.4749
  223MOL0     H30079   0.925   2.128   2.784  4.9191 -0.0609 -3.1408
  223MOL0     H30080   0.994   1.993   2.882  1.4238  0.2446  2.7290
  223MOL0     H30081   0.881   2.253   2.997 -3.1894 -0.3283  3.1697
  223MOL0     H30082   0.975   2.126   3.084 -0.9757 -4.0375  1.3723
  223MOL0     H30083   0.783   1.971   3.013 -0.3208  1.1861 -1.4005
  223MOL0     H30084   0.726   2.112   3.113 -1.8074  2.7533 -0.8796
  223MOL0     H30085   1.759   2.252   2.808 -0.2520  0.4046  0.2937
  223MOL0     H30086   1.976   2.351   2.833 -2.5045 -1.0943  0.9669
  223MOL0     H30087   2.321   2.507   2.597  1.9159 -1.0879  4.6372
  223MOL0     H30088   2.531   2.615   2.552 -1.5813 -1.6125 -1.2281
  223MOL0     H30089   2.474   2.139   3.295 -1.9018 -2.8678 -0.6583
  223MOL0     H30090   2.236   2.122   3.290  2.4001  0.2166 -0.9771
  223MOL0     H30091   1.999   1.880   3.417 -0.1763 -1.4165  0.5335
  223MOL0     H30092   1.834   1.708   3.393  0.6378  0.4898  0.3379
  223MOL0     H30093   1.559   1.625   3.531  4.6671 -2.3400  0.1743
  223MOL0     H30094   1.659   1.590   3.391 -2.3062 -2.9682 -1.8836
  223MOL0     H30095   1.483   1.441   3.362  0.7703 -0.9163  1.5855
  223MOL0     H30096   1.409   1.587   3.280  1.5965  0.0108  0.1960
  223MOL0     H30097   1.351   1.529   3.570 -0.0056  0.6648 -0.4158
  223MOL0     H30098   1.250   1.470   3.439  0.3881 -0.0700 -4.1140
  223MOL0     H30099   1.314   1.735   3.565 -2.3770  2.1831 -0.2820
  223MOL0     H30100   1.291   1.749   3.390 -0.5078  3.5014  1.6066
  223MOL0     H30101   0.914   1.631   3.591  0.9468 -1.5581  0.3939
  223MOL0     H30102   1.533   2.020   3.451  0.1711  0.2237  1.0758
  223MOL0     H30103   1.609   2.256   3.526  2.7140  2.4213  0.6377
  223MOL0     H30104   1.749   2.303   3.427  0.3479 -1.6047  1.1005
  223MOL0     H30105   1.596   2.244   3.351 -0.4118  0.0406  0.0112
  224MOL0     O30106   2.465   7.184  10.228 -0.0340  0.3178  0.0233
  224MOL0     C30107   2.571   7.248  10.234  0.2443  0.4050 -0.6055
  224MOL0     O30108   2.620   7.304  10.344  0.1025 -1.1106  0.2541
  224MOL0     C30109   2.550   7.316  10.462  0.2994 -1.2073  0.3409
  224MOL0     C30110   2.432   7.392  10.464 -0.8753 -0.1837 -0.6351
  224MOL0     C30111   2.364   7.407  10.579 -0.5866  1.3842 -0.0395
  224MOL0     C30112   2.409   7.345  10.692 -0.3480 -0.0785 -0.0158
  224MOL0     O30113   2.336   7.383  10.797  0.1965  0.3228 -0.4674
  224MOL0     C30114   2.371   7.355  10.933 -0.4392  0.2911  0.1712
  224MOL0     C30115   2.243   7.321  11.005 -0.1482  0.9066 -0.1329
  224MOL0     C30116   2.166   7.443  11.062 -0.0383  0.4701  0.2487
  224MOL0     C30117   2.028   7.403  11.109  0.1536 -0.1129 -0.5938
  224MOL0     C30118   2.034   7.312  11.232 -0.5317 -0.7623  0.0179
  224MOL0     C30119   1.898   7.282  11.288 -0.3802 -0.2004 -0.1768
  224MOL0     C30120   1.910   7.200  11.413 -0.4250 -0.2220  0.3592
  224MOL0     C30121   1.785   7.196  11.497  1.2110 -0.3143 -0.2864
  224MOL0     N30122   1.778   7.309  11.602 -0.3386 -0.2213  0.7649
  224MOL0     C30123   1.739   7.433  11.563  0.0817 -0.9990 -0.0215
  224MOL0     C30124   1.790   7.518  11.653  0.2177  0.0076 -0.4354
  224MOL0     C30125   1.768   7.662  11.655  0.1493  0.0500  0.0878
  224MOL0     C30126   1.898   7.735  11.620  0.6090  0.3462 -0.0450
  224MOL0     C30127   1.944   7.711  11.481 -0.2474  0.7591 -0.7550
  224MOL0     C30128   2.070   7.789  11.445  0.7909 -0.1426  0.0961
  224MOL0     O30129   2.168   7.771  11.549  0.5234 -0.1714  0.1719
  224MOL0     C30130   2.298   7.738  11.515 -0.4065 -1.4233 -1.1031
  224MOL0     C30131   2.333   7.642  11.417 -0.0171  0.4163 -1.3078
  224MOL0     C30132   2.467   7.612  11.394  0.1433 -0.2420  0.2133
  224MOL0     C30133   2.574   7.669  11.464 -0.1380  0.3645  1.0148
  224MOL0     C30134   2.718   7.646  11.430 -0.3010 -0.4323 -0.3487
  224MOL0     O30135   2.746   7.609  11.301  0.3086  0.1157  0.7387
  224MOL0     C30136   2.876   7.565  11.283 -0.4042 -0.3984  0.1611
  224MOL0     C30137   2.967   7.502  11.370  0.0849  0.7722  0.2267
  224MOL0     C30138   3.102   7.464  11.331  0.2243 -0.1855 -0.6967
  224MOL0     C30139   3.147   7.488  11.198 -0.7868 -0.3162 -0.1846
  224MOL0     O30140   3.279   7.457  11.176 -0.2492 -0.2983 -1.0453
  224MOL0     C30141   3.344   7.538  11.076  0.1569  0.2444  0.6093
  224MOL0     C30142   3.503   7.508  11.077 -0.5180  0.1378 -0.6715
  224MOL0     C30143   3.546   7.520  11.226  0.2481 -0.2052 -0.5351
  224MOL0     C30144   3.695   7.489  11.241  0.3711  1.3927  0.3517
  224MOL0     C30145   3.731   7.340  11.215  0.7147 -0.9245 -0.3944
  224MOL0     C30146   3.885   7.321  11.201  0.6410  0.4761  0.2854
  224MOL0     C30147   3.927   7.172  11.216 -0.1753 -0.7756 -0.3474
  224MOL0     C30148   3.871   7.085  11.106  0.3312 -0.2953  0.9659
  224MOL0    Cl30149   3.898   6.908  11.153 -0.4049  0.1856  0.0225
  224MOL0     C30150   3.064   7.560  11.111 -0.0989  0.9215  0.8830
  224MOL0     C30151   2.935   7.595  11.159 -0.6250  0.3624  0.6005
  224MOL0     O30152   2.799   7.682  11.506 -0.5718 -0.5010 -0.4246
  224MOL0     C30153   2.532   7.761  11.568 -0.3423  0.0414  0.0570
  224MOL0     C30154   2.396   7.796  11.592 -0.2961  0.0958 -0.8904
  224MOL0     N30155   1.865   7.443  11.745 -0.0900  0.4578 -0.0951
  224MOL0     N30156   1.854   7.316  11.711 -0.0702 -0.1226 -0.5040
  224MOL0     C30157   2.521   7.260  10.687 -0.1998  0.2511 -0.0858
  224MOL0     C30158   2.597   7.251  10.573  0.4451  0.2148  0.4598
  224MOL0     C30159   2.640   7.272  10.105  0.3670  0.4523 -0.8569
  224MOL0     C30160   2.560   7.331  10.002 -0.3764  0.2236 -0.6776
  224MOL0     C30161   2.622   7.383   9.886  0.2485 -0.0022  0.7886
  224MOL0     C30162   2.759   7.375   9.871  0.3195 -0.7317  0.0717
  224MOL0     O30163   2.823   7.405   9.752  0.4833  0.2932 -0.5271
  224MOL0     C30164   2.911   7.515   9.754 -0.2705 -0.5093 -0.2978
  224MOL0     C30165   2.902   7.567   9.606  0.0858 -0.2717  0.7180
  224MOL0     C30166   3.005   7.679   9.581 -0.4047  0.6493 -0.5144
  224MOL0     C30167   3.011   7.726   9.431  0.9457  0.6995 -0.3398
  224MOL0     C30168   3.047   7.615   9.343  0.4778 -0.6003  0.4425
  224MOL0     C30169   3.068   7.547   9.245  0.9878 -0.4395 -0.1690
  224MOL0     C30170   2.831   7.306   9.969 -0.9863  0.2501 -0.8448
  224MOL0     C30171   2.772   7.257  10.080  0.4452  0.6527  0.0056
  224MOL0     C30172   2.861   7.175  10.174  0.2679  0.5744  0.1716
  224MOL0     H30173   2.400   7.433  10.368  1.5754  1.2488 -0.9018
  224MOL0     H30174   2.272   7.464  10.591 -1.8784 -0.4365 -0.7457
  224MOL0     H30175   2.450   7.280  10.946 -0.3442  0.4191  0.3418
  224MOL0     H30176   2.422   7.443  10.975 -2.1682 -0.0185  3.1765
  224MOL0     H30177   2.263   7.248  11.083 -0.7316 -0.7747 -1.4767
  224MOL0     H30178   2.170   7.277  10.936 -2.2736 -0.6608  2.8608
  224MOL0     H30179   2.157   7.512  10.978  0.4683 -1.1324 -1.1773
  224MOL0     H30180   2.236   7.479  11.138 -0.7850  0.5544  0.9144
  224MOL0     H30181   1.969   7.496  11.107  2.5570  1.5220 -0.0362
  224MOL0     H30182   1.983   7.342  11.029 -1.4403 -0.5906  0.6083
  224MOL0     H30183   2.082   7.215  11.213 -0.0397 -0.7297  1.0634
  224MOL0     H30184   2.091   7.364  11.309  3.4632 -2.1577 -1.7240
  224MOL0     H30185   1.834   7.366  11.315  1.9534  0.9884  2.1518
  224MOL0     H30186   1.838   7.221  11.220  0.4737  0.5811 -1.6943
  224MOL0     H30187   2.004   7.214  11.466  0.2779  0.6077 -1.0423
  224MOL0     H30188   1.912   7.098  11.372  1.4851 -0.0460 -0.0677
  224MOL0     H30189   1.699   7.204  11.430 -0.6773  0.9197  2.1248
  224MOL0     H30190   1.788   7.104  11.557 -0.1617  0.7313  1.4909
  224MOL0     H30191   1.674   7.459  11.480  0.2512  1.1002  0.4355
  224MOL0     H30192   1.697   7.689  11.576 -0.8668 -1.8834  0.2686
  224MOL0     H30193   1.729   7.689  11.753 -0.5317 -0.2052 -0.1088
  224MOL0     H30194   1.895   7.842  11.645  1.4522 -0.1794  2.6268
  224MOL0     H30195   1.980   7.700  11.684 -0.3824  1.9957  2.3086
  224MOL0     H30196   1.868   7.731  11.405  1.4965  0.4480 -2.6685
  224MOL0     H30197   1.979   7.608  11.472 -2.1071  0.0933 -0.7837
  224MOL0     H30198   2.060   7.896  11.426  3.0856  0.3892  1.4479
  224MOL0     H30199   2.109   7.746  11.352  0.0538 -0.0336 -0.2726
  224MOL0     H30200   2.265   7.580  11.360 -0.1060 -0.8599  0.1517
  224MOL0     H30201   2.493   7.539  11.319 -0.7793 -1.7621  1.3136
  224MOL0     H30202   2.942   7.470  11.471 -1.7414 -1.3870 -0.8356
  224MOL0     H30203   3.172   7.428  11.405 -1.1327 -0.5558  0.4604
  224MOL0     H30204   3.300   7.504  10.981 -1.8955 -0.0896  1.6120
  224MOL0     H30205   3.315   7.643  11.088 -0.7672  0.3176 -1.6434
  224MOL0     H30206   3.510   7.409  11.031 -3.1644  0.7225 -2.6136
  224MOL0     H30207   3.553   7.579  11.010 -2.8371  1.9281 -0.6253
  224MOL0     H30208   3.542   7.629  11.234  0.6621 -0.0882 -1.7271
  224MOL0     H30209   3.474   7.466  11.289  2.1577  0.5294  2.4354
  224MOL0     H30210   3.726   7.516  11.343 -0.1616  0.9231  0.6411
  224MOL0     H30211   3.754   7.558  11.181  1.0251  3.0183  2.6909
  224MOL0     H30212   3.680   7.303  11.126 -0.4733  1.0543 -0.6027
  224MOL0     H30213   3.692   7.280  11.297 -0.7025 -1.3628 -1.3617
  224MOL0     H30214   3.907   7.373  11.106 -1.6201  0.0228 -0.5465
  224MOL0     H30215   3.936   7.369  11.285  2.4606 -0.4138 -0.2466
  224MOL0     H30216   3.884   7.127  11.307 -0.2509 -0.5615 -0.2778
  224MOL0     H30217   4.036   7.177  11.224 -0.1974 -0.5660 -0.1792
  224MOL0     H30218   3.767   7.095  11.074 -0.1690  0.9686  2.8006
  224MOL0     H30219   3.934   7.096  11.017  2.8137 -1.6074  2.4465
  224MOL0     H30220   3.092   7.576  11.007 -2.3058 -2.4228 -0.3892
  224MOL0     H30221   2.869   7.635  11.082  1.4316 -2.2461 -2.7934
  224MOL0     H30222   2.600   7.829  11.619 -1.6406  0.8779  0.7589
  224MOL0     H30223   2.359   7.852  11.677  2.3601 -0.9421  1.0677
  224MOL0     H30224   2.548   7.196  10.771  4.8606  2.1718  0.1395
  224MOL0     H30225   2.675   7.176  10.572 -0.9997 -1.4247  2.4746
  224MOL0     H30226   2.455   7.359  10.008 -0.0334  2.3917 -3.0383
  224MOL0     H30227   2.560   7.432   9.812 -1.5475 -0.8734  1.6664
  224MOL0     H30228   3.015   7.491   9.777 -0.1541 -0.8721 -1.1706
  224MOL0     H30229   2.881   7.596   9.821 -2.5238 -1.2505 -0.2950
  224MOL0     H30230   2.801   7.589   9.570  0.3714 -2.1082 -1.4335
  224MOL0     H30231   2.938   7.489   9.539 -1.3900 -0.4713  0.1342
  224MOL0     H30232   3.107   7.660   9.614 -0.1175  0.8533 -1.2645
  224MOL0     H30233   2.966   7.771   9.627 -0.6462  0.0636  0.4692
  224MOL0     H30234   2.912   7.760   9.400  0.1491 -0.6497  0.6200
  224MOL0     H30235   3.069   7.816   9.409 -1.3351  2.3381 -0.0659
  224MOL0     H30236   3.082   7.489   9.155 -1.6198  0.8477 -1.5103
  224MOL0     H30237   2.927   7.263   9.942 -2.3652 -2.6285 -1.5636
  224MOL0     H30238   2.963   7.168  10.135 -0.6523  0.0992 -2.3726
  224MOL0     H30239   2.872   7.226  10.270  0.2195 -0.0228  0.4991
  224MOL0     H30240   2.821   7.073  10.178 -0.3813  0.7071 -1.7343
  225MOL0     O30241   6.588   9.293   7.949  0.7383  0.1293 -0.9698
  225MOL0     C30242   6.481   9.342   7.979  0.3415 -0.3604  0.2838
  225MOL0     O30243   6.464   9.442   8.073  0.3780 -0.0639  0.1124
  225MOL0     C30244   6.557   9.496   8.148 -0.6658 -0.1405  0.5211
  225MOL0     C30245   6.665   9.424   8.201  0.9551 -0.1545 -0.4576
  225MOL0     C30246   6.763   9.481   8.285 -0.6958  0.7147  0.2476
  225MOL0     C30247   6.756   9.613   8.316  0.4790 -0.4826 -1.0957
  225MOL0     O30248   6.831   9.684   8.409  0.7889 -0.0915  0.0630
  225MOL0     C30249   6.928   9.597   8.474 -0.2101  0.0190 -0.2874
  225MOL0     C30250   7.025   9.690   8.541 -0.3438  1.0668 -0.4409
  225MOL0     C30251   7.129   9.629   8.634  0.4170 -0.0125  0.1362
  225MOL0     C30252   7.102   9.687   8.779  0.0064  0.2377  0.6309
  225MOL0     C30253   7.199   9.646   8.891 -0.4624 -0.0526  0.0144
  225MOL0     C30254   7.206   9.492   8.898 -0.4385 -0.2331  0.4072
  225MOL0     C30255   7.347   9.428   8.870  0.1539  0.4173  0.4388
  225MOL0     C30256   7.400   9.440   8.726  0.1062 -0.5496  0.1776
  225MOL0     N30257   7.533   9.390   8.721 -0.2131  0.6312 -0.1741
  225MOL0     C30258   7.646   9.463   8.717 -0.3299 -0.0710  0.2716
  225MOL0     C30259   7.739   9.373   8.730 -0.3592  0.6241  0.5327
  225MOL0     C30260   7.880   9.384   8.713 -0.8228 -0.2082  0.4569
  225MOL0     C30261   7.944   9.337   8.573  0.6385  0.6785  0.9120
  225MOL0     C30262   8.092   9.323   8.583  1.2473 -0.2239 -0.6722
  225MOL0     C30263   8.148   9.308   8.441  0.7699  0.2294  0.0064
  225MOL0     O30264   8.154   9.427   8.375  0.7959  0.0746  0.8359
  225MOL0     C30265   8.256   9.515   8.388 -0.2637 -0.6621  0.6665
  225MOL0     C30266   8.243   9.631   8.320 -0.8013  0.5683  0.1286
  225MOL0     C30267   8.343   9.729   8.337 -0.0973  0.0804 -0.4631
  225MOL0     C30268   8.444   9.718   8.430  0.0785 -0.5271  0.0543
  225MOL0     C30269   8.549   9.819   8.455  0.9293 -0.6343  0.4749
  225MOL0     O30270   8.673   9.777   8.493 -0.1825  0.4824  0.1624
  225MOL0     C30271   8.764   9.872   8.530 -0.4687  0.4808  0.5428
  225MOL0     C30272   8.790   9.885   8.663  0.7103 -0.6905  0.6781
  225MOL0     C30273   8.880   9.981   8.720  0.6405  0.0951 -0.7730
  225MOL0     C30274   8.953  10.061   8.630  1.2937 -0.2994  0.0878
  225MOL0     O30275   9.044  10.145   8.682  0.0519 -0.1395  0.4989
  225MOL0     C30276   9.009  10.237   8.794  0.8515 -0.2500 -0.6783
  225MOL0     C30277   9.132  10.320   8.823  0.9049 -0.0514  0.1716
  225MOL0     C30278   9.159  10.421   8.702  0.3609  0.2299 -0.3455
  225MOL0     C30279   9.198  10.555   8.752 -0.1618  0.2534 -0.2320
  225MOL0     C30280   9.199  10.668   8.647  0.8866 -0.3992  0.1418
  225MOL0     C30281   9.300  10.649   8.535  0.6101 -1.3861  0.5300
  225MOL0     C30282   9.275  10.732   8.411  1.3567 -0.6148 -0.3942
  225MOL0     C30283   9.393  10.753   8.326 -0.4042 -0.0792 -0.5521
  225MOL0    Cl30284   9.335  10.858   8.196  0.3272 -0.3107 -0.1062
  225MOL0     C30285   8.921  10.048   8.487 -0.5189  0.1932 -0.3457
  225MOL0     C30286   8.829   9.958   8.444  0.8366 -0.5678  0.5956
  225MOL0     O30287   8.511   9.934   8.454  0.3298 -0.2763  1.1694
  225MOL0     C30288   8.458   9.596   8.496 -0.0975 -0.5908  0.9541
  225MOL0     C30289   8.367   9.497   8.474 -0.3611  0.1260  0.1393
  225MOL0     N30290   7.685   9.251   8.752 -1.0269  0.3460  0.4495
  225MOL0     N30291   7.557   9.258   8.743 -0.0629 -0.6851  0.2042
  225MOL0     C30292   6.654   9.693   8.261  0.0550  0.7214 -0.2326
  225MOL0     C30293   6.562   9.635   8.176  0.9252 -0.1804  0.2273
  225MOL0     C30294   6.359   9.308   7.911  0.0186 -0.2615  0.3382
  225MOL0     C30295   6.240   9.369   7.954 -0.3615 -0.4851 -0.3634
  225MOL0     C30296   6.120   9.345   7.897  0.5522  0.3234 -0.1801
  225MOL0     C30297   6.101   9.262   7.786  0.4632 -0.0920  0.6114
  225MOL0     O30298   5.968   9.238   7.751 -0.2017  0.3073 -0.4701
  225MOL0     C30299   5.933   9.136   7.653 -1.2093 -0.2255 -0.0317
  225MOL0     C30300   5.780   9.144   7.619 -0.1560  0.1356 -0.5916
  225MOL0     C30301   5.749   9.266   7.540  0.1006  0.0638 -0.5064
  225MOL0     C30302   5.599   9.291   7.502 -1.2051  0.1097  0.3124
  225MOL0     C30303   5.519   9.331   7.612 -0.1349 -0.2243  0.6095
  225MOL0     C30304   5.458   9.360   7.711  0.1904 -1.3927 -0.1288
  225MOL0     C30305   6.221   9.200   7.731  0.0697 -1.2441  0.1001
  225MOL0     C30306   6.352   9.232   7.787 -0.1664  0.1591 -0.9948
  225MOL0     C30307   6.475   9.169   7.728  0.7890  0.0781  0.8679
  225MOL0     H30308   6.682   9.317   8.197  0.5503 -0.3402  1.6806
  225MOL0     H30309   6.836   9.416   8.333  0.3907  0.2109 -1.9549
  225MOL0     H30310   6.887   9.536   8.555  2.0455  0.0687  0.9623
  225MOL0     H30311   6.986   9.545   8.398  1.1942  1.2901 -0.1332
  225MOL0     H30312   6.963   9.762   8.595 -0.8789 -0.4328  1.0186
  225MOL0     H30313   7.073   9.745   8.460 -0.3600 -0.8001 -1.7754
  225MOL0     H30314   7.232   9.664   8.622  0.0614  1.2642  0.6201
  225MOL0     H30315   7.107   9.522   8.635 -0.7006  0.1794 -1.4493
  225MOL0     H30316   7.096   9.796   8.777 -0.5656  0.2163 -1.8025
  225MOL0     H30317   7.000   9.649   8.790  0.3650 -1.3309 -1.0681
  225MOL0     H30318   7.302   9.680   8.876 -1.1537  2.3375  0.2007
  225MOL0     H30319   7.159   9.681   8.987  0.9707 -0.1605  0.6805
  225MOL0     H30320   7.167   9.458   8.994 -0.0846 -2.4571 -0.1844
  225MOL0     H30321   7.147   9.454   8.814  1.5771  2.2253 -2.3462
  225MOL0     H30322   7.328   9.322   8.886  0.9284  0.4608  1.8227
  225MOL0     H30323   7.422   9.475   8.935 -0.7000 -0.6795  2.3331
  225MOL0     H30324   7.352   9.391   8.642  0.6363  0.5094 -0.7648
  225MOL0     H30325   7.411   9.547   8.705 -1.0165 -0.2873  0.8350
  225MOL0     H30326   7.660   9.570   8.704  0.6680  0.1351  2.5705
  225MOL0     H30327   7.908   9.489   8.726  1.6605 -0.8369  0.8286
  225MOL0     H30328   7.929   9.322   8.789  0.1375 -0.5899 -0.4387
  225MOL0     H30329   7.894   9.242   8.553 -0.4172  0.9762  1.9874
  225MOL0     H30330   7.916   9.406   8.493  0.0733  0.6683  1.0917
  225MOL0     H30331   8.114   9.233   8.642 -0.7102  0.5787  1.4052
  225MOL0     H30332   8.130   9.406   8.643  1.4667 -0.4203 -0.5325
  225MOL0     H30333   8.085   9.238   8.385 -1.0014  1.7855 -0.0192
  225MOL0     H30334   8.250   9.267   8.441  1.0929  0.9445  1.8111
  225MOL0     H30335   8.160   9.646   8.251  0.4540  1.4161 -1.2558
  225MOL0     H30336   8.357   9.813   8.270  1.7117 -1.5016 -2.2217
  225MOL0     H30337   8.730   9.825   8.731 -3.5589  0.8300 -1.3832
  225MOL0     H30338   8.877  10.004   8.826  2.8076  0.2631 -0.7152
  225MOL0     H30339   8.920  10.300   8.788  1.3384  0.6299  0.7044
  225MOL0     H30340   8.992  10.172   8.881  1.0904 -0.8426 -1.0700
  225MOL0     H30341   9.112  10.375   8.915 -0.6916  1.5562 -1.0569
  225MOL0     H30342   9.218  10.254   8.840 -0.5009 -1.2953  3.0388
  225MOL0     H30343   9.230  10.386   8.627  0.3273 -0.4969 -0.0460
  225MOL0     H30344   9.060  10.438   8.658 -0.0291 -0.4331  0.2682
  225MOL0     H30345   9.302  10.541   8.782  0.7422  0.3756 -3.0376
  225MOL0     H30346   9.136  10.580   8.839 -0.0089  1.0227 -0.3419
  225MOL0     H30347   9.211  10.767   8.691 -2.4972  1.4159 -2.5274
  225MOL0     H30348   9.099  10.684   8.606  1.9808  1.0114 -2.2027
  225MOL0     H30349   9.400  10.667   8.576  0.3381  1.0169  0.2659
  225MOL0     H30350   9.298  10.542   8.510 -1.3067 -1.0973 -0.7931
  225MOL0     H30351   9.224  10.826   8.433 -0.2665 -1.2672 -1.2190
  225MOL0     H30352   9.196  10.680   8.356  1.9886  0.7662 -2.7389
  225MOL0     H30353   9.477  10.795   8.381  0.5294 -1.7197 -0.6590
  225MOL0     H30354   9.436  10.663   8.282  3.8237  1.2828  0.3651
  225MOL0     H30355   8.969  10.103   8.407 -0.7678 -1.3187 -1.5551
  225MOL0     H30356   8.804   9.938   8.340  2.8033 -1.6806  0.3033
  225MOL0     H30357   8.549   9.581   8.554  1.6499 -1.8614 -1.8954
  225MOL0     H30358   8.389   9.406   8.529 -1.5235  0.8331  1.8394
  225MOL0     H30359   6.639   9.796   8.291 -0.0465  0.6934 -0.1855
  225MOL0     H30360   6.479   9.700   8.150  4.1723  2.9390 -3.6814
  225MOL0     H30361   6.232   9.432   8.042 -1.6503 -1.9525  0.6115
  225MOL0     H30362   6.031   9.389   7.941 -1.2741 -3.3166  0.1698
  225MOL0     H30363   5.967   9.039   7.691  2.0033 -0.4014 -2.9170
  225MOL0     H30364   5.993   9.142   7.562 -0.3990 -0.2187  0.4923
  225MOL0     H30365   5.715   9.139   7.707 -1.7150  1.7155 -1.6038
  225MOL0     H30366   5.748   9.055   7.565  2.9510 -1.5057  0.0109
  225MOL0     H30367   5.811   9.277   7.451 -0.3567  2.2523 -0.6041
  225MOL0     H30368   5.784   9.347   7.603 -1.0053 -0.1642  0.4414
  225MOL0     H30369   5.598   9.370   7.426  1.0596  0.2339  0.3400
  225MOL0     H30370   5.553   9.211   7.444  0.4578 -0.1966 -0.6481
  225MOL0     H30371   5.408   9.389   7.801 -2.4294  2.2746 -2.4536
  225MOL0     H30372   6.228   9.142   7.640 -1.3987 -2.0229  0.4487
  225MOL0     H30373   6.540   9.252   7.700 -2.6061  2.0681 -2.0066
  225MOL0     H30374   6.516   9.098   7.800  1.9042 -3.2106 -2.6895
  225MOL0     H30375   6.453   9.118   7.635  0.9965  0.1569  0.7755
  226MOL0     O30376   3.280   3.511   8.414 -0.2150  0.0487 -0.0812
  226MOL0     C30377   3.232   3.620   8.436  0.3228  0.2216 -0.2179
  226MOL0     O30378   3.288   3.728   8.391 -0.8227 -0.3020  0.6361
  226MOL0     C30379   3.426   3.731   8.364  0.0207  0.3879 -0.6146
  226MOL0     C30380   3.503   3.804   8.454 -0.1561  0.7172 -0.1949
  226MOL0     C30381   3.625   3.850   8.408  1.0425  0.6114 -0.6025
  226MOL0     C30382   3.669   3.832   8.271  0.5156  1.2730 -0.0064
  226MOL0     O30383   3.786   3.898   8.238  0.3734  0.4350  0.0783
  226MOL0     C30384   3.842   3.858   8.114 -0.7832  1.4196  0.2878
  226MOL0     C30385   3.988   3.911   8.091  0.4463 -0.1330 -0.2728
  226MOL0     C30386   4.080   3.860   8.194 -0.6137 -0.2161 -0.7606
  226MOL0     C30387   4.223   3.891   8.156 -0.2098  0.1017 -1.0766
  226MOL0     C30388   4.329   3.818   8.247 -0.6434  0.2459 -1.1998
  226MOL0     C30389   4.456   3.897   8.264  0.2404  0.0663 -0.2908
  226MOL0     C30390   4.575   3.830   8.326 -0.9022  0.0434 -0.6776
  226MOL0     C30391   4.704   3.919   8.329 -0.6333 -0.3165  0.4366
  226MOL0     N30392   4.799   3.891   8.433 -0.1024 -0.4782  0.0780
  226MOL0     C30393   4.899   3.798   8.418 -0.2323  0.7015 -0.8695
  226MOL0     C30394   4.969   3.805   8.533 -0.3282  0.4484 -0.8160
  226MOL0     C30395   5.082   3.705   8.575  0.5677 -0.8177 -0.6817
  226MOL0     C30396   5.200   3.736   8.492 -0.0932  0.3083  0.2790
  226MOL0     C30397   5.329   3.663   8.520 -0.8955  1.7721  0.5985
  226MOL0     C30398   5.451   3.685   8.429  0.3070 -0.7514  0.2327
  226MOL0     O30399   5.496   3.824   8.442  0.4087 -0.4645  0.1034
  226MOL0     C30400   5.600   3.872   8.365 -0.2495  0.7100 -0.1945
  226MOL0     C30401   5.647   3.998   8.406  0.2435 -0.7550 -0.4751
  226MOL0     C30402   5.746   4.070   8.347 -0.3535 -0.0085  0.9789
  226MOL0     C30403   5.816   3.999   8.241  0.3272 -0.6757  0.3896
  226MOL0     C30404   5.937   4.064   8.175  0.1086 -0.0034 -0.9892
  226MOL0     O30405   5.980   4.018   8.055 -0.5079 -0.2733 -0.0861
  226MOL0     C30406   6.055   4.099   7.975 -0.2872 -0.5300  0.0871
  226MOL0     C30407   6.045   4.243   7.959  0.6563  0.0246 -0.8060
  226MOL0     C30408   6.139   4.317   7.887  0.0020 -0.1496 -0.1772
  226MOL0     C30409   6.240   4.254   7.811 -0.4837  0.1207 -0.1314
  226MOL0     O30410   6.332   4.333   7.740 -0.0623 -0.2547 -0.5889
  226MOL0     C30411   6.458   4.326   7.804 -0.4467  0.1593  0.1774
  226MOL0     C30412   6.550   4.416   7.720 -0.0631  0.5091 -0.4046
  226MOL0     C30413   6.690   4.429   7.775 -0.7725 -0.8162  0.6751
  226MOL0     C30414   6.771   4.531   7.705  0.2817  0.0587 -0.5632
  226MOL0     C30415   6.910   4.549   7.760  0.0647  0.4274  0.8678
  226MOL0     C30416   6.999   4.637   7.676  1.0955 -0.9011  0.2319
  226MOL0     C30417   7.132   4.667   7.748  0.8252  0.6316  0.6455
  226MOL0     C30418   7.216   4.751   7.662  0.1549 -0.7907  0.4808
  226MOL0    Cl30419   7.322   4.862   7.760 -0.1988 -0.2299  0.3763
  226MOL0     C30420   6.255   4.111   7.829 -0.2177  0.5975  0.2630
  226MOL0     C30421   6.162   4.034   7.908  0.0667 -0.7054  0.9071
  226MOL0     O30422   5.991   4.151   8.244  0.1363 -0.3589  0.4588
  226MOL0     C30423   5.769   3.878   8.193 -1.4655  0.4400 -0.5789
  226MOL0     C30424   5.666   3.812   8.252 -0.4258  0.3026 -0.3824
  226MOL0     N30425   4.907   3.893   8.611 -0.7160  0.6902 -0.9404
  226MOL0     N30426   4.810   3.949   8.554 -0.0596  0.2727  0.8095
  226MOL0     C30427   3.595   3.739   8.191 -1.5341 -0.3506  0.0898
  226MOL0     C30428   3.479   3.680   8.245 -0.3081 -0.3838  0.4263
  226MOL0     C30429   3.096   3.617   8.489 -0.1384  0.7487  0.3653
  226MOL0     C30430   3.047   3.489   8.529  0.0308 -0.3334  0.2363
  226MOL0     C30431   2.929   3.477   8.603 -0.6451  0.3975  0.7574
  226MOL0     C30432   2.855   3.591   8.630 -0.3556 -0.6243  0.2991
  226MOL0     O30433   2.741   3.580   8.701 -0.8389  0.1172 -0.0744
  226MOL0     C30434   2.671   3.459   8.720 -0.3187 -0.4238 -0.3303
  226MOL0     C30435   2.538   3.493   8.790 -0.2788 -0.3136  0.3184
  226MOL0     C30436   2.441   3.589   8.701 -0.3826 -0.2375 -0.1396
  226MOL0     C30437   2.291   3.583   8.738  0.0295 -0.4874  0.1497
  226MOL0     C30438   2.239   3.607   8.875  0.1382  0.8712  0.2481
  226MOL0     C30439   2.204   3.633   8.990 -0.6157  1.0569 -0.1912
  226MOL0     C30440   2.903   3.717   8.596 -0.2155  0.3369  0.6092
  226MOL0     C30441   3.022   3.732   8.528  0.1849  0.1567 -0.5747
  226MOL0     C30442   3.075   3.866   8.525  0.3349 -0.5181 -0.4316
  226MOL0     H30443   3.469   3.846   8.548 -2.7500  0.9167 -1.1543
  226MOL0     H30444   3.682   3.915   8.474 -1.8950  4.0015 -1.1342
  226MOL0     H30445   3.849   3.749   8.105  0.2533  1.6371 -2.3926
  226MOL0     H30446   3.774   3.899   8.040  0.2943  2.7752  0.0013
  226MOL0     H30447   3.984   4.020   8.089  0.4813 -0.1257  0.0446
  226MOL0     H30448   4.015   3.864   7.996 -0.6741  1.2790 -1.3362
  226MOL0     H30449   4.060   3.754   8.210  0.8833 -0.7329 -2.0779
  226MOL0     H30450   4.065   3.903   8.294 -0.0581 -1.2456 -0.2136
  226MOL0     H30451   4.245   3.853   8.055 -0.7892 -4.4121  0.2527
  226MOL0     H30452   4.241   3.998   8.162 -1.9949  0.3543  0.5653
  226MOL0     H30453   4.283   3.800   8.344 -0.1219 -0.1837 -1.0247
  226MOL0     H30454   4.354   3.714   8.225 -0.5663 -0.5888  2.2912
  226MOL0     H30455   4.493   3.916   8.163  1.8530 -1.2504 -0.0075
  226MOL0     H30456   4.426   3.991   8.313 -0.8125 -0.8078  0.8057
  226MOL0     H30457   4.598   3.737   8.273 -2.6853 -0.2424 -0.9867
  226MOL0     H30458   4.548   3.798   8.427 -1.1113 -1.6917 -1.2574
  226MOL0     H30459   4.754   3.925   8.232  0.4338 -2.2605  0.8115
  226MOL0     H30460   4.656   4.016   8.346 -3.2792 -1.0803 -1.9052
  226MOL0     H30461   4.925   3.730   8.338 -0.7469  0.1523 -0.5774
  226MOL0     H30462   5.096   3.709   8.683  0.5176 -1.9931 -0.6227
  226MOL0     H30463   5.049   3.604   8.551 -0.2415 -0.8719  0.6096
  226MOL0     H30464   5.172   3.723   8.387  1.6630 -0.4477 -0.1416
  226MOL0     H30465   5.229   3.840   8.509  4.7343 -0.6046 -0.9081
  226MOL0     H30466   5.303   3.560   8.493  1.5673  1.4652 -0.9813
  226MOL0     H30467   5.342   3.660   8.628 -4.4110 -0.5966  1.0922
  226MOL0     H30468   5.426   3.665   8.324  0.0522 -0.5301  0.2527
  226MOL0     H30469   5.526   3.611   8.459 -2.2993 -4.9022 -2.4006
  226MOL0     H30470   5.592   4.030   8.494  0.8623 -1.8197  0.3179
  226MOL0     H30471   5.778   4.170   8.376  1.1886  0.3490 -1.5696
  226MOL0     H30472   5.967   4.291   8.017  2.1791  2.3629 -0.5604
  226MOL0     H30473   6.140   4.425   7.888  1.6427 -0.0860 -2.1386
  226MOL0     H30474   6.457   4.359   7.908  3.9091 -3.1438  1.5722
  226MOL0     H30475   6.502   4.227   7.820 -1.0991  0.2262  2.6931
  226MOL0     H30476   6.565   4.368   7.623  0.9857  3.6285 -1.9239
  226MOL0     H30477   6.497   4.510   7.698 -0.7983 -0.0613 -1.1419
  226MOL0     H30478   6.670   4.464   7.877  0.6882 -2.5167  1.5992
  226MOL0     H30479   6.739   4.334   7.796 -0.9696 -0.5456  2.5415
  226MOL0     H30480   6.726   4.631   7.702  0.5566  0.2983  1.6273
  226MOL0     H30481   6.779   4.497   7.601  4.9873  0.4962 -0.5354
  226MOL0     H30482   6.954   4.448   7.765  1.7924  0.8592 -2.5342
  226MOL0     H30483   6.888   4.585   7.860 -3.8731  1.4171 -0.2131
  226MOL0     H30484   7.026   4.598   7.577 -0.7441  5.8927 -3.5827
  226MOL0     H30485   6.945   4.730   7.656 -0.4860 -1.0240  3.3957
  226MOL0     H30486   7.188   4.573   7.761  1.0326  0.6042 -0.3689
  226MOL0     H30487   7.114   4.723   7.840  1.1031 -1.7313  2.2532
  226MOL0     H30488   7.283   4.691   7.601  2.3281  1.6070  0.3041
  226MOL0     H30489   7.163   4.811   7.588  1.0166 -2.4225 -1.5519
  226MOL0     H30490   6.333   4.049   7.784 -0.6332 -1.5564  2.2969
  226MOL0     H30491   6.170   3.926   7.904 -1.3117 -0.7760 -1.3615
  226MOL0     H30492   5.811   3.826   8.107  0.2749 -1.1474  1.1348
  226MOL0     H30493   5.623   3.719   8.215 -2.4489  1.2631 -0.5695
  226MOL0     H30494   3.622   3.738   8.086 -0.6216 -0.4317  0.3130
  226MOL0     H30495   3.425   3.629   8.166  1.1929  2.2353 -2.5017
  226MOL0     H30496   3.108   3.403   8.503 -1.9152 -1.3011 -1.3824
  226MOL0     H30497   2.894   3.381   8.640 -0.1660 -0.5529 -1.1156
  226MOL0     H30498   2.717   3.393   8.795 -0.1359 -2.0403 -1.8098
  226MOL0     H30499   2.658   3.403   8.627 -1.3727 -0.2496 -0.3012
  226MOL0     H30500   2.553   3.529   8.892 -0.4520 -2.5002  1.1681
  226MOL0     H30501   2.486   3.397   8.790 -1.7200  0.3125 -2.9401
  226MOL0     H30502   2.448   3.564   8.595 -2.4143  0.0095 -0.3651
  226MOL0     H30503   2.475   3.692   8.713  0.0712  0.0688 -3.1986
  226MOL0     H30504   2.243   3.658   8.675 -1.5398 -1.2762  0.3498
  226MOL0     H30505   2.248   3.490   8.700 -0.7655 -0.0618  0.0003
  226MOL0     H30506   2.165   3.647   9.089  0.1298 -0.0782  0.2816
  226MOL0     H30507   2.839   3.794   8.639 -0.1718  1.0759 -0.5819
  226MOL0     H30508   3.007   3.944   8.561  0.7631  0.4849 -1.7411
  226MOL0     H30509   3.168   3.867   8.583 -1.8228 -1.1494  3.3738
  226MOL0     H30510   3.092   3.890   8.420  1.2929  0.3562 -0.0903
  227MOL0     O30511   1.351   9.574   6.736  0.4263  0.4921  0.6169
  227MOL0     C30512   1.367   9.644   6.833  0.2709  0.2603 -0.3335
  227MOL0     O30513   1.470   9.718   6.859 -0.6316 -0.0976 -0.2877
  227MOL0     C30514   1.571   9.726   6.767 -1.0064 -0.0068  0.1911
  227MOL0     C30515   1.694   9.669   6.796 -0.1857 -0.9720  0.1854
  227MOL0     C30516   1.806   9.699   6.714 -0.1132  0.1710  1.1840
  227MOL0     C30517   1.790   9.773   6.592  0.6437  0.0246 -0.9098
  227MOL0     O30518   1.891   9.801   6.515  0.6387  0.0809  0.1584
  227MOL0     C30519   2.025   9.805   6.582 -1.0344  0.1726  0.9333
  227MOL0     C30520   2.129   9.851   6.479  0.3714 -0.0206 -0.0584
  227MOL0     C30521   2.272   9.845   6.549  0.2513 -0.7910  0.4153
  227MOL0     C30522   2.379   9.844   6.442 -0.7735 -0.5864  0.1111
  227MOL0     C30523   2.513   9.801   6.486  0.1864  0.2727  0.5272
  227MOL0     C30524   2.604   9.910   6.562 -0.1939  0.0610  1.3268
  227MOL0     C30525   2.753   9.876   6.581  0.1798  0.3532  0.1932
  227MOL0     C30526   2.834   9.867   6.449 -0.0527  0.2976  0.1707
  227MOL0     N30527   2.839   9.992   6.383  0.3969  0.1136  0.0340
  227MOL0     C30528   2.892  10.115   6.426 -0.3236 -0.2289 -0.2291
  227MOL0     C30529   2.869  10.206   6.326  0.5922  0.1170 -0.7019
  227MOL0     C30530   2.930  10.337   6.332  0.4791 -0.2469 -0.0672
  227MOL0     C30531   3.082  10.328   6.321  0.9529  0.2277  0.4681
  227MOL0     C30532   3.122  10.474   6.311  0.3736  0.2930 -0.1492
  227MOL0     C30533   3.277  10.475   6.321 -1.1427 -0.0565 -0.3320
  227MOL0     O30534   3.308  10.613   6.313 -0.5489 -0.0105  0.1366
  227MOL0     C30535   3.432  10.644   6.274 -0.3308 -0.3291  0.6457
  227MOL0     C30536   3.451  10.777   6.226 -0.5997  0.3382 -0.1976
  227MOL0     C30537   3.578  10.823   6.180 -0.5838  0.6203  0.4282
  227MOL0     C30538   3.694  10.747   6.201 -0.1653  0.5583  0.6284
  227MOL0     C30539   3.831  10.790   6.158  0.3896 -0.8958  0.2587
  227MOL0     O30540   3.941  10.694   6.149 -0.1072  0.3893  0.8450
  227MOL0     C30541   4.069  10.740   6.117  0.6093 -0.0834 -0.4878
  227MOL0     C30542   4.088  10.777   5.982 -0.0004  0.4776 -0.2254
  227MOL0     C30543   4.218  10.811   5.937 -0.2369 -0.8086 -0.9010
  227MOL0     C30544   4.336  10.798   6.031 -0.1615 -0.0189  0.6784
  227MOL0     O30545   4.452  10.851   5.970  0.0987  0.2761 -0.0547
  227MOL0     C30546   4.574  10.833   6.040 -0.0685 -0.0284 -0.1074
  227MOL0     C30547   4.676  10.892   5.951 -0.5737 -1.0848 -0.2640
  227MOL0     C30548   4.743  10.799   5.853 -0.7831 -0.1745 -0.1261
  227MOL0     C30549   4.845  10.865   5.759 -0.0634 -1.2555 -0.2961
  227MOL0     C30550   4.870  10.796   5.631  0.3426 -0.2958 -0.7406
  227MOL0     C30551   4.972  10.873   5.546  0.0360  0.0907  0.8828
  227MOL0     C30552   5.012  10.797   5.414  0.4010 -0.2276 -0.7755
  227MOL0     C30553   5.088  10.664   5.440  0.4920  0.9770  0.1840
  227MOL0    Cl30554   5.271  10.677   5.482 -0.1872  0.3270 -0.1248
  227MOL0     C30555   4.316  10.758   6.160  0.7275  0.8404  0.4969
  227MOL0     C30556   4.178  10.724   6.196  0.2397  0.5741  0.1615
  227MOL0     O30557   3.846  10.915   6.139 -0.8848 -0.3000  0.0574
  227MOL0     C30558   3.688  10.624   6.270  1.5342  0.4877  0.2112
  227MOL0     C30559   3.551  10.574   6.300 -0.2443  1.0186 -0.1456
  227MOL0     N30560   2.803  10.135   6.220 -0.0169  0.0230 -0.9769
  227MOL0     N30561   2.789  10.012   6.256 -1.2210  0.2512 -0.2485
  227MOL0     C30562   1.668   9.820   6.565 -0.1857  1.3825  0.3525
  227MOL0     C30563   1.561   9.803   6.646  0.7552  0.3773 -0.1798
  227MOL0     C30564   1.271   9.628   6.943  0.1313 -0.1363 -0.3849
  227MOL0     C30565   1.314   9.622   7.073  0.3502 -0.0379 -0.6947
  227MOL0     C30566   1.223   9.594   7.178  0.3669  0.9539  0.5698
  227MOL0     C30567   1.088   9.568   7.156  0.0056  0.1267  0.0263
  227MOL0     O30568   1.022   9.501   7.262 -0.2782 -0.2454  0.5705
  227MOL0     C30569   0.878   9.488   7.246 -0.1263 -1.0366  0.3673
  227MOL0     C30570   0.810   9.430   7.369 -0.6104 -0.2140  0.4118
  227MOL0     C30571   0.818   9.539   7.488 -0.4291 -0.3749 -0.3468
  227MOL0     C30572   0.771   9.485   7.626  0.4845 -1.0567  0.6635
  227MOL0     C30573   0.805   9.589   7.731  0.5074 -0.2762 -0.6402
  227MOL0     C30574   0.839   9.669   7.819  0.2696  0.2229 -0.2704
  227MOL0     C30575   1.050   9.569   7.024 -0.7911  0.2537 -0.5211
  227MOL0     C30576   1.136   9.612   6.918  0.4389  0.2184 -0.1502
  227MOL0     C30577   1.074   9.601   6.784 -0.8147  0.9614  0.4492
  227MOL0     H30578   1.716   9.621   6.891  2.8219  3.7101  2.2143
  227MOL0     H30579   1.901   9.655   6.742  0.6385  1.5860  0.9551
  227MOL0     H30580   2.023   9.885   6.657 -1.3816  1.5649 -0.5262
  227MOL0     H30581   2.060   9.710   6.623  0.1895  0.1566 -0.0707
  227MOL0     H30582   2.101   9.954   6.453  0.5121 -0.4389 -2.0527
  227MOL0     H30583   2.122   9.792   6.387 -1.6651 -3.1230  1.9353
  227MOL0     H30584   2.275   9.751   6.605 -3.7705 -1.7703 -0.6702
  227MOL0     H30585   2.286   9.928   6.619 -0.4031  0.3240 -0.7333
  227MOL0     H30586   2.346   9.778   6.360  1.0843 -1.1094 -0.2557
  227MOL0     H30587   2.394   9.944   6.401 -0.2109 -1.3623 -1.6909
  227MOL0     H30588   2.500   9.712   6.548  1.6767  0.9907  1.9730
  227MOL0     H30589   2.572   9.771   6.400  0.4763  4.9131 -1.2016
  227MOL0     H30590   2.600  10.008   6.515  3.3534  0.0640  0.7931
  227MOL0     H30591   2.549   9.917   6.657 -0.0724  0.9263  1.3379
  227MOL0     H30592   2.748   9.781   6.636 -0.5886  0.6533  0.6567
  227MOL0     H30593   2.812   9.944   6.643  1.1458 -0.0255 -0.2941
  227MOL0     H30594   2.937   9.833   6.464 -0.4158 -1.3040 -0.7137
  227MOL0     H30595   2.778   9.798   6.384 -1.8863  0.7300  1.2353
  227MOL0     H30596   2.938  10.131   6.523 -3.7500 -2.3447  1.9070
  227MOL0     H30597   2.893  10.386   6.241  1.5653  1.6240  0.4386
  227MOL0     H30598   2.903  10.400   6.418  0.5208 -4.2957  3.2423
  227MOL0     H30599   3.126  10.269   6.402  2.3376 -0.4230 -0.7092
  227MOL0     H30600   3.107  10.278   6.226  0.0420 -3.5875  2.0222
  227MOL0     H30601   3.084  10.531   6.396  2.3614  2.0803 -0.3898
  227MOL0     H30602   3.098  10.515   6.212 -1.1377 -1.6358 -0.6554
  227MOL0     H30603   3.324  10.405   6.251 -0.2088 -0.9714  1.1613
  227MOL0     H30604   3.309  10.454   6.423  1.2207  2.5196 -0.4183
  227MOL0     H30605   3.367  10.845   6.212  0.4573  2.6448  3.1932
  227MOL0     H30606   3.593  10.925   6.145 -2.0047  0.3992 -0.9642
  227MOL0     H30607   3.997  10.779   5.923  0.8116  1.5741 -1.4780
  227MOL0     H30608   4.241  10.825   5.832 -0.6074 -1.3254 -1.0529
  227MOL0     H30609   4.567  10.901   6.126  0.9352  2.8077 -2.1214
  227MOL0     H30610   4.594  10.728   6.059 -0.7718 -0.4571 -1.6080
  227MOL0     H30611   4.629  10.974   5.896  0.1794 -0.6187 -0.2316
  227MOL0     H30612   4.757  10.919   6.020 -1.2739 -1.2675  0.6421
  227MOL0     H30613   4.797  10.733   5.922  3.2792  1.5752 -1.3740
  227MOL0     H30614   4.672  10.732   5.803 -0.8860  1.4472 -2.2492
  227MOL0     H30615   4.943  10.869   5.807 -0.3396 -1.0267  0.2661
  227MOL0     H30616   4.809  10.966   5.738 -1.2974 -0.9604  2.6858
  227MOL0     H30617   4.778  10.779   5.574 -1.3683 -1.4037  2.1511
  227MOL0     H30618   4.915  10.697   5.645  0.8116  0.1367  1.0235
  227MOL0     H30619   4.920  10.965   5.519 -0.6942 -0.4330  0.4409
  227MOL0     H30620   5.063  10.896   5.601 -1.1702  0.0934  3.0005
  227MOL0     H30621   5.079  10.862   5.358 -0.2153 -0.1605 -1.4487
  227MOL0     H30622   4.923  10.780   5.352  1.7289 -2.1302 -2.2455
  227MOL0     H30623   5.043  10.594   5.511 -0.9717  0.6187 -1.0521
  227MOL0     H30624   5.080  10.600   5.352  3.1995 -1.3707  1.4836
  227MOL0     H30625   4.396  10.784   6.228  0.8538  1.2700  0.1832
  227MOL0     H30626   4.161  10.684   6.296 -0.9784 -0.6211 -0.4958
  227MOL0     H30627   3.783  10.574   6.288  2.5226  1.4436 -2.0401
  227MOL0     H30628   3.543  10.480   6.352  0.2079  0.8460 -0.3828
  227MOL0     H30629   1.646   9.874   6.473 -0.3680  1.1012  0.2287
  227MOL0     H30630   1.468   9.840   6.605  0.0471  0.0038  1.0531
  227MOL0     H30631   1.420   9.637   7.089  0.6427 -0.2424 -2.3325
  227MOL0     H30632   1.266   9.560   7.271 -0.1813  1.0741  0.8739
  227MOL0     H30633   0.868   9.419   7.162  2.0911 -2.7991  1.4059
  227MOL0     H30634   0.830   9.581   7.216 -1.7179 -1.9962 -0.1482
  227MOL0     H30635   0.870   9.346   7.405 -2.0521 -0.8914  1.3262
  227MOL0     H30636   0.705   9.401   7.352 -0.2755 -0.4587 -1.4602
  227MOL0     H30637   0.758   9.627   7.462  1.8854  0.6524 -2.6710
  227MOL0     H30638   0.919   9.574   7.513 -0.4934 -0.4002 -0.0486
  227MOL0     H30639   0.668   9.458   7.600  0.3754  1.9365 -2.9980
  227MOL0     H30640   0.823   9.391   7.644 -0.9137 -1.2018  5.2086
  227MOL0     H30641   0.860   9.755   7.880  2.9145  1.6184 -2.8847
  227MOL0     H30642   0.946   9.546   7.002 -0.6316  0.8377 -2.0451
  227MOL0     H30643   0.979   9.655   6.788 -0.3376  1.8196  0.4533
  227MOL0     H30644   1.137   9.649   6.709 -0.3822 -1.2574 -0.6829
  227MOL0     H30645   1.067   9.498   6.748 -1.0254  1.2623 -0.4006
  228MOL0     O30646   4.553   6.670   0.849  0.5054  0.8309  0.4368
  228MOL0     C30647   4.610   6.630   0.946 -0.5363  0.4958  0.2684
  228MOL0     O30648   4.557   6.589   1.059  0.0991 -0.5435 -0.0853
  228MOL0     C30649   4.419   6.578   1.068  0.0595  1.2991 -0.0801
  228MOL0     C30650   4.359   6.464   1.115  0.5431 -0.0512 -0.2833
  228MOL0     C30651   4.218   6.459   1.132 -0.7213  0.0961 -0.4535
  228MOL0     C30652   4.127   6.554   1.083  0.2399 -0.7412  0.0829
  228MOL0     O30653   3.996   6.547   1.116  1.2623 -0.1993 -0.2255
  228MOL0     C30654   3.929   6.426   1.149  0.3920  0.0172  0.2873
  228MOL0     C30655   3.781   6.479   1.145  0.5703  0.8856  0.7942
  228MOL0     C30656   3.687   6.380   1.213 -0.2282  0.2010  0.5491
  228MOL0     C30657   3.538   6.421   1.215  0.3917  0.1973 -0.1663
  228MOL0     C30658   3.459   6.303   1.279  1.3469  0.1605 -0.6616
  228MOL0     C30659   3.304   6.329   1.273 -0.2893  0.0193  0.0810
  228MOL0     C30660   3.239   6.220   1.353  0.3498 -0.4896  0.5687
  228MOL0     C30661   3.084   6.235   1.337  0.8438  0.2309 -0.5494
  228MOL0     N30662   3.038   6.346   1.432 -0.2081  0.0400  0.1832
  228MOL0     C30663   3.009   6.325   1.564 -0.2935  0.0057  0.4608
  228MOL0     C30664   2.947   6.431   1.607  0.1610  0.6247  0.0771
  228MOL0     C30665   2.891   6.463   1.746  0.0318 -0.0122  0.9809
  228MOL0     C30666   2.744   6.486   1.757  0.4324  0.7166  0.7410
  228MOL0     C30667   2.664   6.404   1.657 -0.1094 -0.2975 -0.8970
  228MOL0     C30668   2.525   6.461   1.637  0.5242 -0.0860  0.2588
  228MOL0     O30669   2.453   6.367   1.552 -0.2165  0.3092 -0.0374
  228MOL0     C30670   2.322   6.380   1.534  0.0832 -0.1339  0.9616
  228MOL0     C30671   2.246   6.495   1.562  1.1528 -0.3661 -0.0983
  228MOL0     C30672   2.108   6.512   1.531  0.5291 -0.7292  0.1700
  228MOL0     C30673   2.048   6.407   1.468  0.5166 -0.3835  0.3930
  228MOL0     C30674   1.902   6.417   1.439  0.4103 -0.0745 -0.8791
  228MOL0     O30675   1.841   6.543   1.439  0.2174 -0.1144 -0.0791
  228MOL0     C30676   1.727   6.582   1.386  0.5266 -0.1135  0.4144
  228MOL0     C30677   1.627   6.498   1.332  0.0286  0.1912 -0.6205
  228MOL0     C30678   1.517   6.542   1.259 -0.0435 -0.6785 -0.3029
  228MOL0     C30679   1.484   6.676   1.271  0.0964  1.1605 -0.6161
  228MOL0     O30680   1.364   6.723   1.215 -0.4645 -0.7045 -1.0121
  228MOL0     C30681   1.290   6.823   1.294  0.2011  0.3315  0.5337
  228MOL0     C30682   1.221   6.753   1.407 -1.8203 -0.4300 -0.7176
  228MOL0     C30683   1.085   6.697   1.381  0.8645 -0.7550 -0.8766
  228MOL0     C30684   1.078   6.588   1.279 -0.5452 -0.5943 -0.0766
  228MOL0     C30685   0.952   6.502   1.276  0.0300 -0.3095  0.6584
  228MOL0     C30686   0.952   6.420   1.142  0.1849  1.0799  0.3107
  228MOL0     C30687   0.819   6.342   1.115 -0.9856 -0.4340 -0.2680
  228MOL0     C30688   0.708   6.442   1.084  0.2934 -0.1826 -0.2868
  228MOL0    Cl30689   0.582   6.336   1.006  0.3859 -0.1142 -0.0518
  228MOL0     C30690   1.579   6.762   1.336 -0.8532 -0.2965  0.1965
  228MOL0     C30691   1.697   6.718   1.386 -0.4941  0.4269 -0.1257
  228MOL0     O30692   1.850   6.308   1.431 -0.3819 -0.6211 -0.4284
  228MOL0     C30693   2.122   6.284   1.433  0.1439 -0.0822  0.2419
  228MOL0     C30694   2.261   6.280   1.467 -0.0194  0.0800 -0.1027
  228MOL0     N30695   2.940   6.524   1.505 -0.1066  0.5387 -0.1006
  228MOL0     N30696   2.991   6.470   1.396  0.0238  1.0888 -0.7882
  228MOL0     C30697   4.189   6.673   1.034 -0.0031 -0.3648 -0.1365
  228MOL0     C30698   4.331   6.686   1.026  1.3158 -0.3452  0.3074
  228MOL0     C30699   4.752   6.614   0.921  0.1458 -1.1000  0.4581
  228MOL0     C30700   4.820   6.733   0.879 -0.1142  0.7528  0.4480
  228MOL0     C30701   4.961   6.747   0.892  0.3507  0.5881 -0.3803
  228MOL0     C30702   5.035   6.634   0.942  0.4319 -0.3350 -0.2929
  228MOL0     O30703   5.174   6.649   0.957  0.4273  0.2259  0.0965
  228MOL0     C30704   5.246   6.571   1.050 -0.6386 -0.5640  0.2278
  228MOL0     C30705   5.254   6.638   1.189 -0.1269 -0.5499 -0.1507
  228MOL0     C30706   5.248   6.795   1.184  0.0994 -0.1957  0.5346
  228MOL0     C30707   5.368   6.880   1.247 -1.0950 -0.1966 -0.0938
  228MOL0     C30708   5.500   6.825   1.211  0.7832  0.4697  1.0339
  228MOL0     C30709   5.616   6.799   1.184  1.3024  0.5846 -0.0241
  228MOL0     C30710   4.970   6.513   0.965  1.3605  0.1141 -0.0105
  228MOL0     C30711   4.826   6.498   0.956  0.4592 -1.1014 -0.5737
  228MOL0     C30712   4.773   6.362   0.972 -0.1760 -0.2023 -0.3476
  228MOL0     H30713   4.430   6.393   1.155  2.5265  0.9770 -1.7836
  228MOL0     H30714   4.189   6.374   1.193  2.6114  2.5462  5.3156
  228MOL0     H30715   3.956   6.347   1.079  0.8634  1.1577 -0.8712
  228MOL0     H30716   3.962   6.376   1.240 -2.7781 -2.5205  0.1963
  228MOL0     H30717   3.749   6.487   1.040 -1.1189  1.6806  1.3400
  228MOL0     H30718   3.770   6.578   1.191 -0.2651  2.6072 -2.7118
  228MOL0     H30719   3.731   6.351   1.309 -0.2126 -0.5952  0.3097
  228MOL0     H30720   3.690   6.289   1.152  0.1202  0.9195 -0.5323
  228MOL0     H30721   3.532   6.508   1.282  1.8567 -0.8328  1.3630
  228MOL0     H30722   3.497   6.442   1.115  0.6146  3.3044  0.2978
  228MOL0     H30723   3.478   6.218   1.213 -2.7512  0.3092 -2.3896
  228MOL0     H30724   3.503   6.286   1.377  0.0048 -0.5718 -0.1548
  228MOL0     H30725   3.280   6.433   1.300 -3.8255 -0.4011 -0.8772
  228MOL0     H30726   3.270   6.327   1.169 -0.7024 -1.6135  0.2231
  228MOL0     H30727   3.262   6.222   1.460  2.2228 -2.9742  0.3221
  228MOL0     H30728   3.281   6.124   1.318 -1.8951 -0.8624 -1.3016
  228MOL0     H30729   3.047   6.262   1.237 -2.0199 -0.5613  0.2127
  228MOL0     H30730   3.027   6.145   1.360  1.9911 -0.9002 -1.9025
  228MOL0     H30731   3.032   6.240   1.627 -4.3449 -0.2645  1.8684
  228MOL0     H30732   2.919   6.378   1.809  0.0164 -0.3016  0.5976
  228MOL0     H30733   2.949   6.551   1.775 -0.8752  0.2076  2.2605
  228MOL0     H30734   2.706   6.462   1.857 -0.5904 -0.7933  0.0322
  228MOL0     H30735   2.734   6.594   1.747 -0.1455  0.4890 -1.6392
  228MOL0     H30736   2.656   6.301   1.695  1.6776 -0.6232 -1.2691
  228MOL0     H30737   2.718   6.403   1.561 -2.0271 -1.3667 -2.0206
  228MOL0     H30738   2.528   6.560   1.591  1.0379 -0.1220  0.2028
  228MOL0     H30739   2.480   6.466   1.737  0.4795 -0.9961  0.2904
  228MOL0     H30740   2.297   6.577   1.611  0.0841  0.6696 -0.6461
  228MOL0     H30741   2.042   6.595   1.555 -1.1949 -2.0872  0.3121
  228MOL0     H30742   1.651   6.393   1.320  1.8105  0.7117 -2.0877
  228MOL0     H30743   1.448   6.473   1.212  0.7084 -1.9267  0.3538
  228MOL0     H30744   1.353   6.903   1.333 -0.0175  0.8073 -0.0880
  228MOL0     H30745   1.219   6.876   1.230  1.7798  2.9496  0.8011
  228MOL0     H30746   1.286   6.673   1.443 -1.6000  0.0941  0.1032
  228MOL0     H30747   1.214   6.828   1.487 -3.0426 -2.4137  1.1604
  228MOL0     H30748   1.037   6.663   1.474  0.1282 -0.9040 -1.3027
  228MOL0     H30749   1.019   6.779   1.352 -0.9465 -1.8557 -0.0591
  228MOL0     H30750   1.167   6.525   1.284 -1.2684 -1.7807 -1.4877
  228MOL0     H30751   1.092   6.637   1.182  1.1093 -3.8810 -1.6336
  228MOL0     H30752   0.871   6.574   1.288 -1.1208 -1.1997 -1.2117
  228MOL0     H30753   0.941   6.436   1.363  1.9309  0.8905  1.8894
  228MOL0     H30754   0.968   6.492   1.061 -2.0740  0.0144 -1.1764
  228MOL0     H30755   1.035   6.350   1.150 -0.5519  0.0493 -0.7196
  228MOL0     H30756   0.793   6.284   1.204 -1.6327  0.8810  0.4379
  228MOL0     H30757   0.823   6.273   1.031  1.7719 -0.8953  0.1661
  228MOL0     H30758   0.666   6.490   1.173  2.0208  0.0627  0.4292
  228MOL0     H30759   0.751   6.518   1.019  0.9372  0.5129  0.9070
  228MOL0     H30760   1.557   6.868   1.331 -2.2490 -0.6154 -0.9714
  228MOL0     H30761   1.765   6.784   1.439 -0.3830 -0.7431  1.2551
  228MOL0     H30762   2.072   6.208   1.373  0.7668 -0.3999  0.1142
  228MOL0     H30763   2.329   6.197   1.450 -1.6939 -1.9757  2.4073
  228MOL0     H30764   4.121   6.749   0.998  2.0043  0.7641 -1.7691
  228MOL0     H30765   4.378   6.776   0.987  2.3665 -1.7315 -1.8431
  228MOL0     H30766   4.768   6.823   0.847 -0.9916  0.5228  1.1931
  228MOL0     H30767   5.014   6.841   0.883  1.8429 -0.1878 -0.0938
  228MOL0     H30768   5.349   6.571   1.013  1.1438  2.4534  4.3119
  228MOL0     H30769   5.217   6.466   1.062 -0.6687 -0.4870  0.8919
  228MOL0     H30770   5.344   6.595   1.233 -1.2197 -1.4567  1.3161
  228MOL0     H30771   5.175   6.625   1.263  0.7362  0.6439  1.0140
  228MOL0     H30772   5.157   6.838   1.227  0.2730  3.1947 -2.0565
  228MOL0     H30773   5.250   6.828   1.080 -0.2770  0.5961  0.7680
  228MOL0     H30774   5.358   6.988   1.233 -1.9657 -0.1522  0.7083
  228MOL0     H30775   5.363   6.866   1.356  3.2353 -0.5377  0.2341
  228MOL0     H30776   5.698   6.748   1.139 -0.7205 -0.4348 -2.8302
  228MOL0     H30777   5.029   6.428   0.997  1.2317  0.1842  0.4154
  228MOL0     H30778   4.815   6.279   0.915  0.6823  0.1681 -0.2767
  228MOL0     H30779   4.794   6.338   1.077 -2.2737  1.1397  0.4458
  228MOL0     H30780   4.664   6.360   0.970 -0.6258 -2.0130  5.8148
  229MOL0     O30781   5.822   6.384   0.374  0.4968 -0.8152 -0.7607
  229MOL0     C30782   5.756   6.428   0.470 -0.1254  0.1108  0.5973
  229MOL0     O30783   5.808   6.501   0.573 -0.0697 -0.0657 -0.4572
  229MOL0     C30784   5.935   6.556   0.567 -0.1474  1.1565  0.5825
  229MOL0     C30785   5.962   6.666   0.487  0.2261 -0.5453 -0.0598
  229MOL0     C30786   6.093   6.725   0.496 -0.2917  0.9575 -0.4671
  229MOL0     C30787   6.196   6.667   0.571 -0.2935  0.0240  0.5709
  229MOL0     O30788   6.325   6.715   0.569 -0.0706  0.2145 -0.2427
  229MOL0     C30789   6.359   6.849   0.612  0.1239 -0.0783  0.8577
  229MOL0     C30790   6.510   6.870   0.635 -0.2510 -0.4429  0.4413
  229MOL0     C30791   6.578   6.850   0.502  0.1608  1.2491 -0.0441
  229MOL0     C30792   6.728   6.886   0.511 -0.0493 -0.1507  0.4694
  229MOL0     C30793   6.821   6.782   0.583  0.1097 -0.0530 -0.4595
  229MOL0     C30794   6.958   6.845   0.583  0.6021 -0.3156 -1.5631
  229MOL0     C30795   7.057   6.748   0.650  0.9306  0.2233 -0.7896
  229MOL0     C30796   7.084   6.762   0.802 -0.5608 -0.0472 -0.5138
  229MOL0     N30797   7.138   6.639   0.857  0.2517 -0.1174 -0.2297
  229MOL0     C30798   7.273   6.590   0.843  0.3527  0.1009 -0.4589
  229MOL0     C30799   7.281   6.490   0.935 -0.4380 -0.1881  0.6353
  229MOL0     C30800   7.398   6.411   0.975 -0.1100 -0.1339  0.3314
  229MOL0     C30801   7.481   6.504   1.070  0.1019  0.2187  0.4082
  229MOL0     C30802   7.609   6.444   1.125  0.2074 -0.1993  0.5508
  229MOL0     C30803   7.685   6.519   1.228  1.1317 -0.3229  0.0802
  229MOL0     O30804   7.816   6.449   1.244  0.0479 -0.3831 -1.3987
  229MOL0     C30805   7.906   6.527   1.313  0.7018 -0.4281  0.3433
  229MOL0     C30806   8.039   6.486   1.298  0.5316 -0.2478 -0.2275
  229MOL0     C30807   8.146   6.549   1.366  0.8429 -0.1019 -0.4742
  229MOL0     C30808   8.112   6.668   1.441 -0.1436 -0.3992 -0.0982
  229MOL0     C30809   8.212   6.755   1.491  0.6882 -0.0655 -0.5512
  229MOL0     O30810   8.174   6.877   1.547  0.5766  0.9208 -0.2904
  229MOL0     C30811   8.263   6.965   1.593 -0.0918 -0.8172  0.7633
  229MOL0     C30812   8.357   7.031   1.514 -0.4187 -0.1856  0.0927
  229MOL0     C30813   8.455   7.130   1.558  0.8180  0.3508 -0.5997
  229MOL0     C30814   8.457   7.157   1.697  0.9538 -0.1896  0.6252
  229MOL0     O30815   8.537   7.256   1.750  0.5493  0.2968 -0.0419
  229MOL0     C30816   8.662   7.286   1.676  0.1396  0.6590  0.1347
  229MOL0     C30817   8.754   7.368   1.767  0.0711 -0.0025 -0.2918
  229MOL0     C30818   8.802   7.295   1.898  0.0895 -0.6305  0.3183
  229MOL0     C30819   8.848   7.398   2.005  0.1976 -0.3411  0.1312
  229MOL0     C30820   8.938   7.337   2.110  0.1736 -0.2493 -0.2029
  229MOL0     C30821   8.959   7.436   2.225  0.5447 -0.1846 -0.0219
  229MOL0     C30822   8.996   7.364   2.350 -0.4613 -0.2240  0.3376
  229MOL0     C30823   9.141   7.298   2.345  0.9879  0.5086  0.3689
  229MOL0    Cl30824   9.190   7.232   2.510  0.0869  0.4147  0.7479
  229MOL0     C30825   8.369   7.087   1.778  0.8584  0.7881  0.4980
  229MOL0     C30826   8.273   6.998   1.726 -0.1934  1.2485  0.5131
  229MOL0     O30827   8.325   6.725   1.476 -0.5347  0.6048  0.7504
  229MOL0     C30828   7.977   6.704   1.456 -0.6145 -0.2176 -0.2738
  229MOL0     C30829   7.871   6.633   1.400 -0.3470  0.0952 -0.3800
  229MOL0     N30830   7.158   6.487   1.010  0.4295  0.8449 -0.4047
  229MOL0     N30831   7.075   6.580   0.963  0.6973 -0.1265 -0.3978
  229MOL0     C30832   6.174   6.545   0.632 -0.4648 -0.7732  0.3577
  229MOL0     C30833   6.042   6.490   0.637 -0.3480 -0.0194  0.3046
  229MOL0     C30834   5.610   6.406   0.478  0.5667 -0.4050  0.4434
  229MOL0     C30835   5.535   6.511   0.531  0.3925  0.3226 -1.1380
  229MOL0     C30836   5.394   6.507   0.541  0.1876  0.3393 -0.2568
  229MOL0     C30837   5.328   6.390   0.496 -0.3376  0.7159 -0.0909
  229MOL0     O30838   5.197   6.367   0.496  0.3483 -0.1699  0.1539
  229MOL0     C30839   5.144   6.347   0.624  0.2100 -0.0291 -0.4582
  229MOL0     C30840   5.231   6.253   0.722  0.6136  0.8087  0.5847
  229MOL0     C30841   5.221   6.105   0.683 -0.3263  0.8760 -0.4005
  229MOL0     C30842   5.302   6.022   0.782 -0.0688  0.3958 -1.1591
  229MOL0     C30843   5.444   6.049   0.772  0.6565  0.1597  0.7088
  229MOL0     C30844   5.556   6.063   0.744 -0.4049  0.2228  0.4358
  229MOL0     C30845   5.401   6.288   0.442 -0.2730  0.4006 -0.0634
  229MOL0     C30846   5.543   6.296   0.425  0.2322 -0.2811  0.3624
  229MOL0     C30847   5.614   6.182   0.365  0.1864 -0.7406  0.6701
  229MOL0     H30848   5.884   6.715   0.431  0.3671 -0.1489  0.0849
  229MOL0     H30849   6.113   6.827   0.466  0.7702  0.9027  0.0282
  229MOL0     H30850   6.314   6.918   0.540  0.9348 -0.4473 -0.0363
  229MOL0     H30851   6.310   6.869   0.707  0.3991  0.7543  0.8287
  229MOL0     H30852   6.557   6.799   0.703 -0.1929 -0.0883  0.7749
  229MOL0     H30853   6.528   6.972   0.671 -0.2733 -0.2965  0.0465
  229MOL0     H30854   6.539   6.922   0.430  3.9376  2.3555 -1.2384
  229MOL0     H30855   6.567   6.746   0.471 -1.5022  1.8542 -1.6935
  229MOL0     H30856   6.752   6.892   0.405 -2.6660  3.2558 -0.1176
  229MOL0     H30857   6.740   6.984   0.558 -2.1944  0.2226  0.3281
  229MOL0     H30858   6.790   6.774   0.687  1.6861  1.8188  0.2118
  229MOL0     H30859   6.815   6.688   0.528  0.6780  0.5469 -1.5915
  229MOL0     H30860   6.988   6.867   0.481  1.7221  2.0682 -0.7912
  229MOL0     H30861   6.959   6.944   0.630 -2.2928 -0.5970 -0.6481
  229MOL0     H30862   7.150   6.757   0.593  0.6027  5.0586 -0.9685
  229MOL0     H30863   7.012   6.649   0.639  0.6439  0.2805 -0.2026
  229MOL0     H30864   7.149   6.850   0.812 -1.8019  0.7841  0.6372
  229MOL0     H30865   6.999   6.782   0.868 -0.5005 -1.3588 -0.0173
  229MOL0     H30866   7.353   6.626   0.779 -0.1761 -2.5372 -2.7936
  229MOL0     H30867   7.367   6.320   1.027  1.5305 -1.5939 -1.1217
  229MOL0     H30868   7.458   6.379   0.890 -1.3532 -1.3869 -0.0970
  229MOL0     H30869   7.534   6.582   1.015  1.9273  0.6115  2.5946
  229MOL0     H30870   7.418   6.547   1.149  2.1085  1.0405  1.6338
  229MOL0     H30871   7.677   6.447   1.040  0.2339  0.0806  0.5792
  229MOL0     H30872   7.589   6.340   1.152 -1.5547 -0.3892 -1.2232
  229MOL0     H30873   7.637   6.520   1.326 -0.0797 -0.8343 -0.4896
  229MOL0     H30874   7.703   6.621   1.192 -0.4813  0.0406  0.2314
  229MOL0     H30875   8.070   6.410   1.227  1.7879  1.2082 -1.2984
  229MOL0     H30876   8.246   6.521   1.337  1.0280  0.7313 -0.6567
  229MOL0     H30877   8.354   7.005   1.408 -1.7649 -3.5273  0.8133
  229MOL0     H30878   8.524   7.179   1.491 -0.1465  3.5269  0.5675
  229MOL0     H30879   8.708   7.192   1.644 -1.7398  0.2578 -1.5978
  229MOL0     H30880   8.642   7.350   1.590  0.7744 -1.4917 -1.7200
  229MOL0     H30881   8.843   7.399   1.713  1.1738  0.3183  1.6187
  229MOL0     H30882   8.701   7.458   1.799  1.8160  1.1741 -0.5699
  229MOL0     H30883   8.720   7.239   1.944 -0.6489 -2.0270 -2.4729
  229MOL0     H30884   8.884   7.228   1.869  2.5752  3.1405 -2.1534
  229MOL0     H30885   8.759   7.440   2.053  1.3859  1.8995  0.5452
  229MOL0     H30886   8.897   7.481   1.954 -2.6890  1.6705  0.4107
  229MOL0     H30887   9.035   7.316   2.065  0.9931 -1.4495  1.9487
  229MOL0     H30888   8.896   7.242   2.147 -1.2103  0.0980 -0.7990
  229MOL0     H30889   9.032   7.503   2.178  0.9235 -1.8528 -1.9673
  229MOL0     H30890   8.874   7.499   2.253 -1.4492 -3.0149  0.7396
  229MOL0     H30891   8.924   7.291   2.387  0.5826 -0.6346  1.6452
  229MOL0     H30892   8.996   7.440   2.430 -1.3837  2.0850 -1.7202
  229MOL0     H30893   9.148   7.208   2.283  0.4232 -0.9938  2.3801
  229MOL0     H30894   9.212   7.374   2.312  0.6860  2.0011  2.9153
  229MOL0     H30895   8.348   7.105   1.883 -1.8685 -2.9360  0.8210
  229MOL0     H30896   8.203   6.958   1.799  0.7196  1.6415  1.6309
  229MOL0     H30897   7.960   6.792   1.518 -1.7536 -1.1726  0.8057
  229MOL0     H30898   7.765   6.648   1.421 -0.5356 -1.3499 -0.1692
  229MOL0     H30899   6.264   6.504   0.678 -1.0712  0.5419  2.9174
  229MOL0     H30900   6.019   6.392   0.678  3.4143 -0.8569  0.7944
  229MOL0     H30901   5.583   6.599   0.571  1.0676 -0.8213  0.6549
  229MOL0     H30902   5.338   6.597   0.569  1.5393  0.6653  1.5675
  229MOL0     H30903   5.042   6.310   0.631 -0.9509  2.8809 -0.5285
  229MOL0     H30904   5.131   6.445   0.671  0.4830 -1.0088  1.7910
  229MOL0     H30905   5.182   6.258   0.820  0.1972 -0.3948  0.4520
  229MOL0     H30906   5.331   6.294   0.742  1.2583 -1.3827  2.2083
  229MOL0     H30907   5.267   6.092   0.585  1.3441  0.7812  0.3464
  229MOL0     H30908   5.118   6.069   0.678  0.7205 -2.2653 -1.1716
  229MOL0     H30909   5.254   6.050   0.877 -2.0439 -1.0517 -1.6767
  229MOL0     H30910   5.272   5.917   0.785 -3.3914  1.2384  0.4824
  229MOL0     H30911   5.660   6.059   0.718 -0.0225 -2.2054  1.9486
  229MOL0     H30912   5.357   6.193   0.412  2.5291 -1.8696  2.3284
  229MOL0     H30913   5.549   6.097   0.344  0.0905 -0.0480 -2.4174
  229MOL0     H30914   5.650   6.221   0.269 -3.6647 -1.0641 -1.0894
  229MOL0     H30915   5.693   6.139   0.427 -1.8761 -2.6527  2.1105
  230MOL0     O30916   2.615  10.505   6.553 -0.3527 -0.0280  0.1207
  230MOL0     C30917   2.593  10.521   6.428 -0.2265 -0.4279 -0.1832
  230MOL0     O30918   2.657  10.620   6.345 -0.6403  0.4518  0.2936
  230MOL0     C30919   2.757  10.702   6.392 -0.9264 -0.2728  0.4990
  230MOL0     C30920   2.751  10.774   6.512  0.2677  0.1726 -0.4337
  230MOL0     C30921   2.856  10.852   6.559  0.1168  0.1257  0.0959
  230MOL0     C30922   2.967  10.886   6.478  0.2479  1.1463  0.9161
  230MOL0     O30923   3.061  10.977   6.521 -0.6159 -0.2301  0.6601
  230MOL0     C30924   3.188  10.955   6.458 -0.0726 -0.2335  1.3241
  230MOL0     C30925   3.287  11.066   6.495 -0.3302 -0.7916 -0.0888
  230MOL0     C30926   3.416  11.066   6.403 -0.0480  0.6467 -0.0459
  230MOL0     C30927   3.530  11.145   6.467  0.0311 -0.3305  0.1580
  230MOL0     C30928   3.652  11.156   6.379 -0.2041  0.2300  0.5108
  230MOL0     C30929   3.770  11.243   6.445 -0.7168  0.0692 -0.0930
  230MOL0     C30930   3.898  11.228   6.352  0.0020 -0.1243  0.0685
  230MOL0     C30931   3.887  11.288   6.210  0.2998 -0.3604  0.2553
  230MOL0     N30932   4.018  11.329   6.157  0.1206 -0.0872  0.2439
  230MOL0     C30933   4.081  11.275   6.047  0.2061 -0.2235 -0.1599
  230MOL0     C30934   4.196  11.340   6.044 -0.2169  0.1059 -0.7171
  230MOL0     C30935   4.298  11.344   5.933  0.3379 -0.1880 -0.2582
  230MOL0     C30936   4.441  11.293   5.976  0.4282  0.2886 -0.0474
  230MOL0     C30937   4.539  11.323   5.869  0.3229  0.4705  0.4926
  230MOL0     C30938   4.683  11.323   5.913 -0.5800  0.8528 -1.6064
  230MOL0     O30939   4.763  11.342   5.794  0.2159  0.2998 -0.0366
  230MOL0     C30940   4.890  11.381   5.804  1.5435 -0.6606 -0.9631
  230MOL0     C30941   4.943  11.432   5.688  0.1321  0.2137 -0.5940
  230MOL0     C30942   5.066  11.496   5.696 -0.3157  0.2011  0.4464
  230MOL0     C30943   5.138  11.508   5.813  0.4211  0.5882  0.0601
  230MOL0     C30944   5.264  11.584   5.801  0.2248 -0.1624 -0.7817
  230MOL0     O30945   5.332  11.580   5.920  0.1641 -0.3944 -0.0035
  230MOL0     C30946   5.463  11.618   5.904  0.8838  0.0915 -0.2777
  230MOL0     C30947   5.514  11.743   5.933 -0.1642  0.0320 -0.3205
  230MOL0     C30948   5.654  11.774   5.942 -0.5809  0.5657  0.3014
  230MOL0     C30949   5.751  11.678   5.907 -0.2823  0.4524 -0.0859
  230MOL0     O30950   5.888  11.693   5.911  0.1300 -0.4549  1.0138
  230MOL0     C30951   5.941  11.819   5.958 -0.3655  0.1838  0.3456
  230MOL0     C30952   6.091  11.819   5.941  0.8644 -0.4064  0.3694
  230MOL0     C30953   6.156  11.944   6.002  0.5846 -0.0835  0.1644
  230MOL0     C30954   6.278  11.906   6.086  0.1448  1.2172  0.1666
  230MOL0     C30955   6.327  12.006   6.186 -0.0959 -0.3283 -0.2692
  230MOL0     C30956   6.476  12.020   6.198  0.1099 -0.6025  1.4446
  230MOL0     C30957   6.496  12.139   6.291 -0.7392 -1.0678 -0.8705
  230MOL0     C30958   6.648  12.179   6.302 -0.4443  0.2138 -0.6507
  230MOL0    Cl30959   6.752  12.041   6.346 -0.2429 -0.2116  0.1860
  230MOL0     C30960   5.700  11.559   5.872  0.2914 -0.5254 -0.0945
  230MOL0     C30961   5.558  11.527   5.859 -0.3684  0.5527  0.1184
  230MOL0     O30962   5.299  11.640   5.694 -0.0626 -0.3772  0.5379
  230MOL0     C30963   5.081  11.455   5.929  0.8301  0.0676  0.8282
  230MOL0     C30964   4.953  11.402   5.929 -0.2204 -0.2075  0.0311
  230MOL0     N30965   4.208  11.430   6.152  0.9016 -0.1109  0.2659
  230MOL0     N30966   4.092  11.423   6.210 -0.6286 -0.3235 -0.3449
  230MOL0     C30967   2.965  10.819   6.350  0.1713  0.3150 -0.0680
  230MOL0     C30968   2.862  10.731   6.314  0.2258  0.1911 -0.3073
  230MOL0     C30969   2.487  10.448   6.370 -0.2196 -0.9019 -0.8742
  230MOL0     C30970   2.518  10.338   6.287  0.7961 -0.2558 -0.1209
  230MOL0     C30971   2.412  10.263   6.231 -0.3566 -0.0875  0.3318
  230MOL0     C30972   2.278  10.300   6.262 -0.3780 -0.3135  0.1281
  230MOL0     O30973   2.180  10.222   6.201  0.2927  0.6251  0.0076
  230MOL0     C30974   2.082  10.298   6.134  0.9050 -0.2240 -0.0870
  230MOL0     C30975   1.950  10.275   6.198 -0.0971  0.7015  0.3930
  230MOL0     C30976   1.906  10.121   6.172  0.6149  0.5688  0.0323
  230MOL0     C30977   1.750  10.104   6.188  0.7577  0.3455 -0.2591
  230MOL0     C30978   1.696  10.145   6.312  0.2622  0.4725  0.2240
  230MOL0     C30979   1.659  10.191   6.420  0.6469 -1.1078  0.2263
  230MOL0     C30980   2.250  10.403   6.350 -0.0929 -0.9102  0.1458
  230MOL0     C30981   2.355  10.480   6.409  0.4030  0.9228  0.3902
  230MOL0     C30982   2.324  10.587   6.512 -0.6325  0.3834 -0.7924
  230MOL0     H30983   2.670  10.766   6.585 -0.3638 -5.6691 -1.2520
  230MOL0     H30984   2.846  10.911   6.650 -1.9051 -1.8594  1.2565
  230MOL0     H30985   3.227  10.855   6.477  0.2897 -0.3113  0.1904
  230MOL0     H30986   3.169  10.966   6.351 -1.5920 -1.1529  1.4579
  230MOL0     H30987   3.307  11.057   6.602  0.5528  0.6987 -0.1034
  230MOL0     H30988   3.239  11.163   6.479  1.0057 -0.4408 -2.5033
  230MOL0     H30989   3.411  11.104   6.301  2.1907 -0.0535 -0.4635
  230MOL0     H30990   3.436  10.959   6.396 -1.3949  0.4782 -2.1722
  230MOL0     H30991   3.498  11.239   6.511 -1.1185  0.2116 -1.7216
  230MOL0     H30992   3.564  11.083   6.551 -1.2876 -0.4423  0.6238
  230MOL0     H30993   3.689  11.059   6.346 -0.1612  0.2370  0.5373
  230MOL0     H30994   3.617  11.202   6.286 -3.0931 -0.1882  1.2867
  230MOL0     H30995   3.738  11.348   6.440 -0.7457 -0.0057 -2.0361
  230MOL0     H30996   3.806  11.206   6.541  0.4919  1.3844 -0.0094
  230MOL0     H30997   3.933  11.125   6.336  2.0790  0.8447 -2.2744
  230MOL0     H30998   3.977  11.287   6.401 -0.1297  0.4921 -0.4528
  230MOL0     H30999   3.850  11.221   6.132  0.6971  3.2586 -3.3614
  230MOL0     H31000   3.816  11.371   6.214 -0.1665 -0.7760  0.9482
  230MOL0     H31001   4.050  11.206   5.970  1.1599  0.4944 -1.2238
  230MOL0     H31002   4.266  11.277   5.852 -2.0286 -0.2322  0.6618
  230MOL0     H31003   4.304  11.447   5.897 -5.0916  1.1408  1.8140
  230MOL0     H31004   4.466  11.349   6.067 -0.3752  1.0403 -0.2793
  230MOL0     H31005   4.433  11.186   5.994 -1.9069  0.3206 -0.6009
  230MOL0     H31006   4.524  11.419   5.819  0.2190  0.4194  0.4265
  230MOL0     H31007   4.522  11.243   5.797 -2.6065  0.8107  0.7187
  230MOL0     H31008   4.709  11.229   5.962  1.9614  1.7365 -1.1323
  230MOL0     H31009   4.701  11.404   5.984 -3.9867  0.5178 -0.1620
  230MOL0     H31010   4.904  11.406   5.590  0.5615 -2.5347 -0.1346
  230MOL0     H31011   5.102  11.549   5.609  0.9036 -0.1274  0.7394
  230MOL0     H31012   5.454  11.831   5.953 -0.0286 -0.0348  0.3877
  230MOL0     H31013   5.685  11.876   5.961 -1.4390  0.2102  4.4591
  230MOL0     H31014   5.903  11.905   5.903  1.7371  1.8074  1.3055
  230MOL0     H31015   5.916  11.833   6.063 -1.1034  0.4674  0.1374
  230MOL0     H31016   6.121  11.723   5.985 -1.2094  0.3989  3.8961
  230MOL0     H31017   6.118  11.817   5.835 -3.8179  0.1242 -1.0743
  230MOL0     H31018   6.185  12.021   5.930  1.9445 -1.7269 -1.1255
  230MOL0     H31019   6.093  11.989   6.079  0.0767 -1.1629  0.4034
  230MOL0     H31020   6.364  11.870   6.029 -1.2958 -1.9091 -0.2012
  230MOL0     H31021   6.249  11.821   6.148 -0.3267  0.0461 -1.5775
  230MOL0     H31022   6.279  11.994   6.284  0.3145 -1.3402 -0.1845
  230MOL0     H31023   6.285  12.101   6.150  1.6695  0.3040 -0.7810
  230MOL0     H31024   6.531  11.935   6.240  0.9686 -0.2661  1.0178
  230MOL0     H31025   6.516  12.035   6.097  0.1125  0.2052  1.5656
  230MOL0     H31026   6.463  12.111   6.392 -0.7528  2.0981  0.0908
  230MOL0     H31027   6.437  12.226   6.261 -2.4480 -1.5894  0.7930
  230MOL0     H31028   6.689  12.215   6.207  0.1119 -2.5360 -1.5625
  230MOL0     H31029   6.660  12.253   6.382  2.0438 -0.7368 -0.0452
  230MOL0     H31030   5.780  11.488   5.857  0.0122 -1.3670  2.0843
  230MOL0     H31031   5.545  11.425   5.824  0.8282  1.0749 -2.0320
  230MOL0     H31032   5.152  11.460   6.011  1.6226 -0.9294  0.2235
  230MOL0     H31033   4.918  11.360   6.023  0.7135 -2.0904 -0.4092
  230MOL0     H31034   3.038  10.823   6.270  0.3945 -1.5970  0.0084
  230MOL0     H31035   2.861  10.689   6.214  0.6250 -0.1204 -0.1861
  230MOL0     H31036   2.622  10.310   6.269  0.4064 -2.1092  0.3144
  230MOL0     H31037   2.439  10.174   6.175 -0.2099  1.6298 -2.4896
  230MOL0     H31038   2.075  10.270   6.029 -0.5030  0.6501 -0.2591
  230MOL0     H31039   2.103  10.406   6.135  2.9939 -0.4872 -2.7272
  230MOL0     H31040   1.873  10.347   6.170 -3.1602 -0.6559  4.3796
  230MOL0     H31041   1.958  10.289   6.307 -4.5452  0.9856  0.8670
  230MOL0     H31042   1.960  10.052   6.237 -1.4519 -2.3499 -1.1406
  230MOL0     H31043   1.935  10.095   6.070 -0.9139 -0.1683 -0.2429
  230MOL0     H31044   1.705  10.166   6.110  1.2071  1.3762  0.2751
  230MOL0     H31045   1.715  10.001   6.175 -1.1271  1.0166 -0.9161
  230MOL0     H31046   1.626  10.228   6.515  0.2638 -1.4769  0.2417
  230MOL0     H31047   2.147  10.421   6.382  0.2378 -1.5524  1.6579
  230MOL0     H31048   2.370  10.684   6.488  0.8559  0.3550  1.6106
  230MOL0     H31049   2.219  10.609   6.494 -0.8844 -1.3302 -1.5639
  230MOL0     H31050   2.367  10.558   6.608  1.8684 -3.9706 -2.8957
  231MOL0     O31051   4.173   3.747   5.257 -0.6922  1.0607  0.0870
  231MOL0     C31052   4.167   3.629   5.300 -0.2835 -0.7393  0.8345
  231MOL0     O31053   4.270   3.568   5.355  0.0035  0.1017  0.1939
  231MOL0     C31054   4.391   3.639   5.358 -0.1057  0.4385 -0.1475
  231MOL0     C31055   4.457   3.633   5.477 -1.3217  0.2114 -0.8963
  231MOL0     C31056   4.581   3.697   5.498 -0.5508 -0.4389 -0.6487
  231MOL0     C31057   4.646   3.769   5.382  0.1480  0.4168  0.6943
  231MOL0     O31058   4.768   3.830   5.398 -0.1816 -0.0503  0.8858
  231MOL0     C31059   4.849   3.849   5.283  0.2029  0.3038 -0.0553
  231MOL0     C31060   4.903   3.725   5.212 -0.1309 -0.4727  0.7064
  231MOL0     C31061   5.003   3.647   5.297 -0.2298 -0.2455  0.2336
  231MOL0     C31062   5.096   3.547   5.225 -0.2100 -0.6789  0.7825
  231MOL0     C31063   5.217   3.628   5.173  0.6190  1.0683 -0.5271
  231MOL0     C31064   5.316   3.532   5.108 -1.1643 -0.7819  0.0113
  231MOL0     C31065   5.406   3.471   5.209  0.8550  0.3540 -0.2408
  231MOL0     C31066   5.493   3.579   5.286 -0.5881 -0.1644 -0.3706
  231MOL0     N31067   5.618   3.540   5.329 -0.7051  0.0623 -0.1090
  231MOL0     C31068   5.665   3.422   5.381  0.4306  0.7042 -0.1309
  231MOL0     C31069   5.797   3.414   5.361 -0.9801 -0.2505 -0.4712
  231MOL0     C31070   5.882   3.297   5.414 -0.4280 -0.1121  0.8156
  231MOL0     C31071   6.039   3.313   5.405  0.9215  0.1215  0.5927
  231MOL0     C31072   6.096   3.434   5.479  0.1698 -0.5830 -0.3304
  231MOL0     C31073   6.238   3.402   5.521  0.0389  0.6308  0.3756
  231MOL0     O31074   6.279   3.518   5.587 -0.1235  0.0899  0.0320
  231MOL0     C31075   6.406   3.513   5.638  0.1700 -0.5232 -0.3739
  231MOL0     C31076   6.462   3.626   5.675 -1.1370 -0.4313 -0.5366
  231MOL0     C31077   6.586   3.635   5.746 -0.2922  0.2764  0.1921
  231MOL0     C31078   6.666   3.521   5.762 -0.2294  0.1222 -0.5618
  231MOL0     C31079   6.805   3.518   5.809 -0.1887 -0.4943 -0.4363
  231MOL0     O31080   6.872   3.397   5.814  0.5992  0.5559  0.2263
  231MOL0     C31081   6.979   3.400   5.889  0.0952  0.6650  0.0410
  231MOL0     C31082   6.961   3.371   6.022  0.5959  0.0242  0.6499
  231MOL0     C31083   7.068   3.365   6.110  0.4763  0.4040  0.2790
  231MOL0     C31084   7.201   3.391   6.058 -0.4679  0.2440 -0.6249
  231MOL0     O31085   7.314   3.396   6.133 -0.4333  0.4834 -0.0026
  231MOL0     C31086   7.320   3.333   6.262  0.5704  0.3977 -0.3760
  231MOL0     C31087   7.464   3.331   6.322  1.1381 -0.5567  0.8061
  231MOL0     C31088   7.486   3.468   6.380 -0.0407  0.1558 -0.1292
  231MOL0     C31089   7.629   3.490   6.440 -0.7411  0.4004  0.3891
  231MOL0     C31090   7.637   3.587   6.558 -0.1438 -0.8188  0.7150
  231MOL0     C31091   7.788   3.624   6.587  0.7040  0.4755 -0.0146
  231MOL0     C31092   7.802   3.690   6.727  0.7136 -0.3836  0.1920
  231MOL0     C31093   7.753   3.605   6.840 -0.0442  0.2838 -0.0549
  231MOL0    Cl31094   7.858   3.660   6.978 -0.0121  0.0140  0.5225
  231MOL0     C31095   7.222   3.425   5.928  0.9951 -0.8260  0.5724
  231MOL0     C31096   7.105   3.420   5.838 -0.8992 -0.4528  0.1528
  231MOL0     O31097   6.849   3.626   5.849 -0.1542 -0.6307  0.2267
  231MOL0     C31098   6.611   3.404   5.705  0.1813 -1.2828  0.5457
  231MOL0     C31099   6.485   3.402   5.653  0.4098 -0.2233  1.0482
  231MOL0     N31100   5.838   3.533   5.314 -0.0192 -0.7317 -0.3124
  231MOL0     N31101   5.727   3.608   5.288 -0.0947  0.4131  0.5352
  231MOL0     C31102   4.579   3.759   5.262  0.0623  0.3675  0.1313
  231MOL0     C31103   4.456   3.703   5.252 -0.2949 -0.2808  0.1598
  231MOL0     C31104   4.042   3.540   5.286 -1.1781 -0.1417  0.2544
  231MOL0     C31105   4.052   3.410   5.336  0.9240  0.3422  0.4336
  231MOL0     C31106   3.944   3.328   5.340 -0.6114  0.1916  0.3070
  231MOL0     C31107   3.824   3.374   5.291 -0.2146  0.6623  0.0198
  231MOL0     O31108   3.720   3.285   5.296  0.3735  0.1694 -0.8022
  231MOL0     C31109   3.595   3.332   5.248 -0.3669  0.0485 -0.2576
  231MOL0     C31110   3.488   3.222   5.254  0.3876 -0.1065 -0.8695
  231MOL0     C31111   3.452   3.166   5.390 -0.1713 -0.2270 -0.5867
  231MOL0     C31112   3.361   3.037   5.388 -0.2769  0.2538 -0.2249
  231MOL0     C31113   3.227   3.065   5.329 -0.3999 -0.0234 -0.4187
  231MOL0     C31114   3.135   3.113   5.263 -0.3314  0.3749 -0.4213
  231MOL0     C31115   3.813   3.500   5.233  0.0468 -0.3217  0.3356
  231MOL0     C31116   3.923   3.584   5.225  0.2129  0.1542  0.0079
  231MOL0     C31117   3.898   3.721   5.174  0.2535  0.3680 -0.6530
  231MOL0     H31118   4.412   3.572   5.555  0.7129  1.0302  1.0377
  231MOL0     H31119   4.629   3.686   5.595  1.4323  2.4077 -1.1974
  231MOL0     H31120   4.797   3.920   5.218 -1.7228 -0.4884  0.5383
  231MOL0     H31121   4.940   3.902   5.312  0.3162  1.3907 -2.2298
  231MOL0     H31122   4.951   3.747   5.116  2.7289 -2.1447  1.6245
  231MOL0     H31123   4.816   3.664   5.188 -2.0122  1.9400  1.0722
  231MOL0     H31124   4.950   3.593   5.376 -2.8593  2.4446  0.4837
  231MOL0     H31125   5.052   3.723   5.358 -0.9937  1.5188 -1.2677
  231MOL0     H31126   5.129   3.468   5.294  0.0774 -2.2870 -1.1085
  231MOL0     H31127   5.048   3.502   5.138 -0.4861 -1.7333  1.4564
  231MOL0     H31128   5.196   3.713   5.107  2.4904  0.4480 -2.0056
  231MOL0     H31129   5.252   3.667   5.269 -1.4733 -0.3232  0.8710
  231MOL0     H31130   5.266   3.457   5.045 -2.4934 -0.1598  0.3154
  231MOL0     H31131   5.383   3.594   5.047  1.9361 -0.5076  3.3215
  231MOL0     H31132   5.470   3.409   5.146 -1.5671  0.3044 -2.8384
  231MOL0     H31133   5.348   3.404   5.272 -1.7254  3.2228  0.6869
  231MOL0     H31134   5.516   3.660   5.216 -1.7914 -1.1489 -1.9703
  231MOL0     H31135   5.456   3.627   5.377  3.0191 -3.3613  3.1446
  231MOL0     H31136   5.608   3.343   5.428  2.0931  1.5767  3.8134
  231MOL0     H31137   5.861   3.289   5.521 -0.7643  2.0058  0.9532
  231MOL0     H31138   5.840   3.205   5.372 -0.8801  0.9814 -1.3030
  231MOL0     H31139   6.080   3.221   5.447  2.1008  2.1733  4.4155
  231MOL0     H31140   6.064   3.314   5.298 -1.8124  2.1496 -0.1425
  231MOL0     H31141   6.037   3.452   5.569 -1.5616  2.0267 -1.8598
  231MOL0     H31142   6.090   3.520   5.412 -1.5129  2.1419  3.0202
  231MOL0     H31143   6.307   3.370   5.443  0.4326  0.6679  0.7078
  231MOL0     H31144   6.241   3.314   5.586  0.7775 -0.7859 -1.5031
  231MOL0     H31145   6.398   3.712   5.658 -2.7992 -0.9579  2.4063
  231MOL0     H31146   6.611   3.728   5.796  1.6590 -0.6361  1.0066
  231MOL0     H31147   6.860   3.358   6.058  0.7743  0.5391  1.3532
  231MOL0     H31148   7.048   3.332   6.212 -3.0020  0.7728 -0.1699
  231MOL0     H31149   7.245   3.387   6.322 -2.3256  0.3502 -3.6102
  231MOL0     H31150   7.288   3.230   6.244  2.2230 -0.6221  1.9910
  231MOL0     H31151   7.478   3.257   6.401  0.3729 -1.2447  0.3043
  231MOL0     H31152   7.536   3.326   6.240  1.3795 -3.5515  1.0954
  231MOL0     H31153   7.474   3.543   6.302 -0.7441 -0.3497 -0.5098
  231MOL0     H31154   7.414   3.492   6.458 -0.2587  3.6351 -1.2643
  231MOL0     H31155   7.683   3.526   6.352 -0.6377  0.7495  0.5920
  231MOL0     H31156   7.672   3.395   6.472  1.0262  0.2653 -2.1047
  231MOL0     H31157   7.591   3.537   6.644  1.4723 -6.9816 -1.4022
  231MOL0     H31158   7.579   3.678   6.538 -0.8190 -0.7929  2.6105
  231MOL0     H31159   7.843   3.530   6.590 -1.2383 -0.6837  2.0481
  231MOL0     H31160   7.833   3.693   6.515  1.1642  0.6296  0.4146
  231MOL0     H31161   7.750   3.786   6.727 -1.6010 -1.5602 -0.0104
  231MOL0     H31162   7.910   3.701   6.743  0.2337 -0.5259  5.0968
  231MOL0     H31163   7.646   3.623   6.856 -0.2736 -2.2711  1.9039
  231MOL0     H31164   7.763   3.497   6.825 -3.0761 -0.2525  1.0723
  231MOL0     H31165   7.325   3.447   5.902  0.3646  1.3522 -0.2446
  231MOL0     H31166   7.112   3.448   5.733 -5.5712 -2.5700 -0.9715
  231MOL0     H31167   6.664   3.310   5.696 -0.0753 -1.4124  0.3708
  231MOL0     H31168   6.452   3.302   5.628  2.5492 -0.3633 -1.7768
  231MOL0     H31169   4.619   3.804   5.172 -3.3653  1.1561 -1.1575
  231MOL0     H31170   4.411   3.710   5.154 -0.0567 -1.1643 -0.0177
  231MOL0     H31171   4.144   3.376   5.382  3.0149  2.7344 -1.6431
  231MOL0     H31172   3.943   3.228   5.383 -3.1621 -1.7739 -3.6884
  231MOL0     H31173   3.610   3.354   5.142 -1.2293 -0.0352 -0.4075
  231MOL0     H31174   3.562   3.421   5.302  0.1808 -1.1463  2.1953
  231MOL0     H31175   3.518   3.141   5.188  0.5058 -1.7017  1.0595
  231MOL0     H31176   3.398   3.260   5.204 -0.6872 -1.3548  0.0533
  231MOL0     H31177   3.395   3.238   5.450  1.8924 -0.4878  1.8459
  231MOL0     H31178   3.542   3.153   5.451 -0.0587  1.3504 -0.3699
  231MOL0     H31179   3.399   2.958   5.322 -1.6028  0.3142 -1.0897
  231MOL0     H31180   3.348   2.997   5.489 -0.5171 -2.3136 -1.1837
  231MOL0     H31181   3.053   3.159   5.212  0.0097 -0.0894 -1.4112
  231MOL0     H31182   3.724   3.544   5.188  1.9091  2.6204 -0.7533
  231MOL0     H31183   3.976   3.740   5.100  0.3020  0.7240 -0.5120
  231MOL0     H31184   3.801   3.733   5.125  0.1182 -0.7185 -0.6874
  231MOL0     H31185   3.894   3.801   5.249 -0.5300 -2.2327  2.3088
  232MOL0     O31186   7.673   0.170  10.567 -0.1167  0.6209  0.3868
  232MOL0     C31187   7.660   0.270  10.496 -0.1805 -0.4501 -0.5060
  232MOL0     O31188   7.554   0.308  10.418 -0.4998 -0.4348 -0.7232
  232MOL0     C31189   7.446   0.227  10.436  1.7896  0.6586 -0.8140
  232MOL0     C31190   7.356   0.227  10.551 -0.7599 -0.6579  1.2487
  232MOL0     C31191   7.249   0.133  10.560  0.1559 -0.2893  0.4193
  232MOL0     C31192   7.228   0.035  10.464 -0.1510 -0.1860 -0.1619
  232MOL0     O31193   7.126  -0.052  10.466  0.0432  0.2297  0.1295
  232MOL0     C31194   6.994  -0.003  10.507 -0.1432 -0.1291 -0.6772
  232MOL0     C31195   6.874  -0.094  10.470  0.0405 -0.8073 -0.1295
  232MOL0     C31196   6.774  -0.021  10.381 -0.2033 -0.0600  0.3705
  232MOL0     C31197   6.666  -0.120  10.324 -0.8646  0.2352 -1.1891
  232MOL0     C31198   6.560  -0.040  10.245  0.0110  0.9715 -0.3955
  232MOL0     C31199   6.478  -0.145  10.162  0.3269 -0.2565  0.0946
  232MOL0     C31200   6.362  -0.216  10.248 -1.0595  0.0430  0.4935
  232MOL0     C31201   6.308  -0.347  10.186  0.9344 -0.4289  0.5007
  232MOL0     N31202   6.407  -0.445  10.173  0.1225 -0.9672 -0.3738
  232MOL0     C31203   6.487  -0.495  10.272  0.3924  0.2172 -0.8288
  232MOL0     C31204   6.573  -0.577  10.204  0.7150 -0.2910  0.3245
  232MOL0     C31205   6.674  -0.673  10.260 -1.2128 -1.0612 -0.7634
  232MOL0     C31206   6.811  -0.604  10.288  0.3344 -0.2567  0.7999
  232MOL0     C31207   6.889  -0.571  10.166 -1.2227  0.0037 -0.3390
  232MOL0     C31208   7.009  -0.485  10.202  0.4156  0.6063  0.4109
  232MOL0     O31209   7.071  -0.448  10.073  0.2725  0.6835 -0.0923
  232MOL0     C31210   7.200  -0.393  10.067 -0.7372  0.0325  0.4788
  232MOL0     C31211   7.268  -0.391   9.945 -1.7851 -0.1019  0.3090
  232MOL0     C31212   7.405  -0.349   9.940 -0.4279  0.0213  0.0889
  232MOL0     C31213   7.473  -0.308  10.051 -0.2384  0.1996 -0.3467
  232MOL0     C31214   7.607  -0.257  10.048  0.1147 -0.4471 -0.5428
  232MOL0     O31215   7.684  -0.267   9.931 -0.1515  0.0006  0.9191
  232MOL0     C31216   7.812  -0.222   9.936 -0.0055  0.4102  0.4034
  232MOL0     C31217   7.913  -0.317   9.926  0.9161 -0.4942  0.2585
  232MOL0     C31218   8.039  -0.277   9.956 -0.5949  0.1119 -0.1830
  232MOL0     C31219   8.080  -0.144   9.958 -0.6261  0.9300  0.3462
  232MOL0     O31220   8.211  -0.101   9.967 -0.5436  0.3613 -0.0599
  232MOL0     C31221   8.320  -0.192   9.946 -0.0732  0.0871  1.0355
  232MOL0     C31222   8.447  -0.132  10.007  0.0384 -0.5110 -0.0369
  232MOL0     C31223   8.570  -0.224   9.992 -0.6149 -0.6224 -0.2756
  232MOL0     C31224   8.620  -0.255   9.846  0.0463 -0.1045  0.0618
  232MOL0     C31225   8.744  -0.334   9.861 -0.8264 -0.9047 -0.3079
  232MOL0     C31226   8.870  -0.246   9.892  0.4426  0.5858 -0.0049
  232MOL0     C31227   8.999  -0.329   9.889 -0.2231 -0.3365 -0.2147
  232MOL0     C31228   9.117  -0.266   9.964 -0.0538 -0.3417  0.3937
  232MOL0    Cl31229   9.231  -0.192   9.848 -0.1885  0.2270 -0.1237
  232MOL0     C31230   7.976  -0.048   9.947  0.0955 -0.4003 -0.6740
  232MOL0     C31231   7.842  -0.086   9.938  0.0681 -0.4493  0.0554
  232MOL0     O31232   7.655  -0.206  10.150 -0.0507  0.4407  1.2763
  232MOL0     C31233   7.387  -0.298  10.169  0.3663 -0.3336  0.4198
  232MOL0     C31234   7.260  -0.342  10.182  1.5368 -0.0090 -1.8906
  232MOL0     N31235   6.547  -0.573  10.070  0.4606  0.3831 -1.0877
  232MOL0     N31236   6.448  -0.493  10.058  0.2606 -0.4832  0.4185
  232MOL0     C31237   7.316   0.042  10.360 -1.1876  0.8680 -0.5794
  232MOL0     C31238   7.420   0.130  10.345  0.6098  0.1546  0.4590
  232MOL0     C31239   7.772   0.368  10.511  0.2840 -0.5767 -0.0709
  232MOL0     C31240   7.901   0.315  10.533 -1.1247 -0.4851 -0.4327
  232MOL0     C31241   8.015   0.394  10.564 -0.7377 -0.5664  0.3727
  232MOL0     C31242   7.997   0.531  10.585  0.3652 -0.0074 -0.6035
  232MOL0     O31243   8.112   0.606  10.604 -0.2578 -0.5131 -0.3271
  232MOL0     C31244   8.107   0.744  10.643  0.4200  0.6971  0.7014
  232MOL0     C31245   8.251   0.786  10.665 -0.4001  0.2613  0.2370
  232MOL0     C31246   8.295   0.737  10.797 -0.4045 -0.5771 -0.8748
  232MOL0     C31247   8.441   0.765  10.809  0.4679  0.1478 -0.6255
  232MOL0     C31248   8.483   0.722  10.945  0.7503  1.2028  0.7498
  232MOL0     C31249   8.527   0.669  11.044 -0.3256 -0.2648 -0.2550
  232MOL0     C31250   7.867   0.593  10.563 -0.1775  0.1056 -0.6098
  232MOL0     C31251   7.761   0.513  10.521  0.3996  0.2263  0.1159
  232MOL0     C31252   7.631   0.580  10.520  0.3308  0.0081  0.4974
  232MOL0     H31253   7.377   0.300  10.629  3.2074 -0.4149  0.1577
  232MOL0     H31254   7.189   0.159  10.647  0.2388  2.6207 -0.2859
  232MOL0     H31255   6.996  -0.008  10.616 -4.6647  0.1895 -0.3782
  232MOL0     H31256   6.975   0.103  10.483  1.4375  1.9129  5.3790
  232MOL0     H31257   6.827  -0.136  10.559  1.2650 -1.2429  0.3439
  232MOL0     H31258   6.911  -0.182  10.416 -0.8916 -0.9817 -0.4964
  232MOL0     H31259   6.827   0.041  10.307  0.8821  0.5934  1.6662
  232MOL0     H31260   6.718   0.052  10.440 -1.4755 -0.8586  0.1791
  232MOL0     H31261   6.715  -0.197  10.264  1.8012 -0.4470  1.6197
  232MOL0     H31262   6.624  -0.178  10.407  0.6422 -1.2026 -1.3735
  232MOL0     H31263   6.490   0.020  10.305 -0.8397  1.6411 -1.9985
  232MOL0     H31264   6.618   0.036  10.191  0.9513  1.0411  0.6756
  232MOL0     H31265   6.439  -0.087  10.078  0.7348  0.8139  0.6217
  232MOL0     H31266   6.548  -0.215  10.117  0.4639  0.0809 -0.2265
  232MOL0     H31267   6.281  -0.142  10.253  0.4536  1.9286 -1.4372
  232MOL0     H31268   6.389  -0.237  10.352  0.6987 -1.1504 -0.1774
  232MOL0     H31269   6.228  -0.376  10.256  2.0568 -0.4622  1.8211
  232MOL0     H31270   6.263  -0.320  10.090  2.1469 -1.9442 -0.5224
  232MOL0     H31271   6.470  -0.480  10.378 -2.6201 -0.9170 -1.0351
  232MOL0     H31272   6.630  -0.712  10.352 -0.0805 -3.0106 -1.0091
  232MOL0     H31273   6.677  -0.750  10.183  2.0017  0.2688 -2.1700
  232MOL0     H31274   6.792  -0.513  10.346  3.3490 -0.3518  2.1656
  232MOL0     H31275   6.879  -0.676  10.334  3.0455  0.8658 -1.1312
  232MOL0     H31276   6.829  -0.511  10.097 -1.3478 -0.8671 -1.0146
  232MOL0     H31277   6.925  -0.656  10.106 -1.4508 -2.6064  2.9302
  232MOL0     H31278   7.081  -0.542  10.262  3.6918  3.2874 -0.6402
  232MOL0     H31279   6.977  -0.396  10.256 -0.6406  0.3226  0.2746
  232MOL0     H31280   7.216  -0.420   9.854  0.6026  0.4358 -1.3057
  232MOL0     H31281   7.441  -0.342   9.837 -2.8098 -0.0350 -0.8171
  232MOL0     H31282   7.886  -0.422   9.919  1.1840 -0.5203 -0.4606
  232MOL0     H31283   8.115  -0.355   9.950  0.1905  0.9590 -2.0356
  232MOL0     H31284   8.308  -0.281  10.007  3.0402 -1.1094  0.1182
  232MOL0     H31285   8.338  -0.231   9.845 -1.0262 -1.4020  1.4189
  232MOL0     H31286   8.465  -0.034   9.961  1.6305 -0.2738  1.0059
  232MOL0     H31287   8.424  -0.116  10.113 -1.0110 -1.4755 -0.0948
  232MOL0     H31288   8.653  -0.180  10.048 -1.1582  2.4763 -1.6790
  232MOL0     H31289   8.543  -0.315  10.045 -1.2083 -0.6101 -0.5420
  232MOL0     H31290   8.643  -0.161   9.794  1.9821 -0.6643 -0.1655
  232MOL0     H31291   8.540  -0.302   9.790  0.7366 -0.4725 -0.6367
  232MOL0     H31292   8.777  -0.386   9.770  3.5438  3.5246 -1.6696
  232MOL0     H31293   8.743  -0.399   9.949 -0.3904  1.3781  1.4598
  232MOL0     H31294   8.874  -0.167   9.816  2.1301 -0.4287 -1.0115
  232MOL0     H31295   8.865  -0.208   9.995  1.1007 -0.3833  0.3921
  232MOL0     H31296   9.043  -0.358   9.793  3.7646  0.2225  1.2700
  232MOL0     H31297   8.975  -0.425   9.936  1.2967 -0.1974  0.9246
  232MOL0     H31298   9.071  -0.181  10.016  1.1713  0.7589 -0.2621
  232MOL0     H31299   9.176  -0.328  10.031  0.7774  1.6921  1.6499
  232MOL0     H31300   7.997   0.057   9.929 -0.8904  0.0988  0.9178
  232MOL0     H31301   7.774  -0.002   9.926  0.3637 -0.2538 -0.2778
  232MOL0     H31302   7.436  -0.264  10.259  1.5426  0.8404 -0.6200
  232MOL0     H31303   7.205  -0.334  10.275  3.3027 -0.5823 -0.7252
  232MOL0     H31304   7.298  -0.023  10.275 -1.3656  0.0054  0.1042
  232MOL0     H31305   7.484   0.136  10.258  2.1177 -2.8881  1.2378
  232MOL0     H31306   7.927   0.210  10.524  3.4189  0.3830  0.1786
  232MOL0     H31307   8.112   0.345  10.575 -0.0450  0.7717  0.3836
  232MOL0     H31308   8.039   0.751  10.729 -1.8905 -3.3770 -0.5001
  232MOL0     H31309   8.067   0.795  10.555 -0.2293 -2.3429 -0.9132
  232MOL0     H31310   8.257   0.895  10.670  0.4066  0.2245  0.2271
  232MOL0     H31311   8.297   0.752  10.572 -1.5295 -0.6639 -0.0005
  232MOL0     H31312   8.281   0.629  10.808  1.7036 -0.7529  0.6803
  232MOL0     H31313   8.245   0.792  10.877  1.2882  0.3891 -0.4250
  232MOL0     H31314   8.499   0.704  10.739 -2.4728 -2.3425 -1.0886
  232MOL0     H31315   8.458   0.873  10.802  0.6078  0.2763  1.2327
  232MOL0     H31316   8.561   0.630  11.137  1.3576  1.7501  0.0278
  232MOL0     H31317   7.858   0.701  10.569 -1.9415  0.0785 -1.9506
  232MOL0     H31318   7.568   0.530  10.594  1.2350 -1.2736  0.4366
  232MOL0     H31319   7.633   0.687  10.541  1.3320  0.5966 -2.1761
  232MOL0     H31320   7.583   0.576  10.421  0.0944  1.5701  0.5334
  233MOL0     O31321   8.141   2.863  10.559  0.0038  0.0829 -0.5662
  233MOL0     C31322   8.057   2.779  10.541 -1.1983 -0.4436 -0.6091
  233MOL0     O31323   8.087   2.650  10.516 -0.1114  0.7703  0.2808
  233MOL0     C31324   8.222   2.622  10.503  0.4539  0.8925 -0.2406
  233MOL0     C31325   8.298   2.690  10.410  0.2752  1.2697  0.9207
  233MOL0     C31326   8.437   2.654  10.392  0.2599 -0.8886 -0.1968
  233MOL0     C31327   8.494   2.552  10.464  0.2686  0.6627  0.3085
  233MOL0     O31328   8.620   2.511  10.460 -0.1278  0.0621  0.2101
  233MOL0     C31329   8.722   2.607  10.427 -0.6991 -0.2287  0.2370
  233MOL0     C31330   8.867   2.569  10.418  0.0470  0.1495 -0.0218
  233MOL0     C31331   8.958   2.683  10.354 -0.0234  0.9239  0.3334
  233MOL0     C31332   8.989   2.799  10.448 -0.0468 -1.2507 -0.1576
  233MOL0     C31333   9.064   2.913  10.373  0.2657 -0.0648  0.5093
  233MOL0     C31334   9.037   3.046  10.438  0.2728 -0.1521  0.2095
  233MOL0     C31335   9.126   3.159  10.381 -0.5231 -1.7382  0.0898
  233MOL0     C31336   9.262   3.170  10.447 -1.0948  0.3682 -0.3058
  233MOL0     N31337   9.319   3.304  10.397  0.2561 -0.4144 -0.2563
  233MOL0     C31338   9.367   3.307  10.277  0.0260 -0.1772  0.1310
  233MOL0     C31339   9.416   3.427  10.258  0.4829 -0.5759  0.2785
  233MOL0     C31340   9.481   3.487  10.131 -0.2644  0.5762  0.1566
  233MOL0     C31341   9.617   3.539  10.162 -0.6627  0.4126  1.3314
  233MOL0     C31342   9.667   3.617  10.046 -0.6746  0.8703 -0.4004
  233MOL0     C31343   9.798   3.669  10.066  0.0889  0.4031 -0.2373
  233MOL0     O31344   9.843   3.690   9.936 -0.5730  0.3135  0.6965
  233MOL0     C31345   9.981   3.709   9.913 -0.2226 -0.4023  0.5205
  233MOL0     C31346  10.082   3.698  10.013  0.2419 -0.1295 -0.1730
  233MOL0     C31347  10.217   3.737   9.994  0.2847 -0.0673  0.1619
  233MOL0     C31348  10.248   3.776   9.864  0.8311  1.1562 -1.0439
  233MOL0     C31349  10.391   3.813   9.843 -0.6571  0.4788 -1.0779
  233MOL0     O31350  10.426   3.848   9.716  1.2070 -0.4250 -0.3578
  233MOL0     C31351  10.556   3.897   9.683 -0.1142 -0.5394  0.1267
  233MOL0     C31352  10.586   3.902   9.546 -0.0915 -0.6064  0.9920
  233MOL0     C31353  10.712   3.946   9.503  0.2298  1.0021 -0.0565
  233MOL0     C31354  10.803   3.995   9.590 -0.4392  0.0197 -0.5414
  233MOL0     O31355  10.927   4.040   9.560  0.0900 -0.0985 -0.2038
  233MOL0     C31356  10.967   4.094   9.424  0.5215  0.7813  0.1251
  233MOL0     C31357  11.118   4.122   9.423  0.0887  0.8962  0.0273
  233MOL0     C31358  11.216   4.010   9.423  0.6743 -0.7377 -0.3965
  233MOL0     C31359  11.367   4.055   9.419  0.0705 -1.0264 -0.7143
  233MOL0     C31360  11.469   3.952   9.380 -0.9983  0.1147  0.2737
  233MOL0     C31361  11.597   3.998   9.304  0.1776  0.1314  1.1390
  233MOL0     C31362  11.666   3.881   9.222  0.3257 -0.3857  0.1571
  233MOL0     C31363  11.815   3.903   9.171  0.6067 -1.0071 -0.0556
  233MOL0    Cl31364  11.807   4.044   9.069 -0.1031 -0.2442 -0.6739
  233MOL0     C31365  10.779   3.987   9.729 -0.4221 -0.2133 -0.5025
  233MOL0     C31366  10.650   3.943   9.775 -0.6442 -0.1313  0.2395
  233MOL0     O31367  10.468   3.777   9.932  0.2297  0.3872  0.8536
  233MOL0     C31368  10.148   3.785   9.763  0.3542 -0.1438  0.7189
  233MOL0     C31369  10.017   3.750   9.787  0.5771 -0.2585 -1.2895
  233MOL0     N31370   9.374   3.513  10.358  0.2101 -0.1069 -1.1022
  233MOL0     N31371   9.308   3.434  10.442 -0.1147 -0.0082  0.3901
  233MOL0     C31372   8.412   2.476  10.550 -0.6698 -0.7931  0.1036
  233MOL0     C31373   8.280   2.517  10.574 -0.6697  0.0345  0.5167
  233MOL0     C31374   7.915   2.811  10.538 -0.3719  0.1199  0.5006
  233MOL0     C31375   7.843   2.772  10.423 -0.1571 -0.1584  0.1271
  233MOL0     C31376   7.707   2.797  10.417  0.8820 -0.0201  0.3660
  233MOL0     C31377   7.641   2.877  10.511  1.3598  0.3777 -0.0241
  233MOL0     O31378   7.505   2.892  10.500  0.5886 -0.2249 -0.8113
  233MOL0     C31379   7.427   2.955  10.609 -0.5343  0.3839  0.3454
  233MOL0     C31380   7.287   2.965  10.554 -0.0886  0.7027 -0.5413
  233MOL0     C31381   7.195   3.064  10.618  0.7178  0.3212 -0.7706
  233MOL0     C31382   7.164   3.190  10.537 -1.2749 -0.7282  0.4187
  233MOL0     C31383   7.270   3.287  10.513  0.3344 -0.2313  0.0042
  233MOL0     C31384   7.353   3.366  10.484  0.0083 -0.4374 -0.4681
  233MOL0     C31385   7.713   2.909  10.629 -0.4802  0.0750  0.0165
  233MOL0     C31386   7.848   2.889  10.636  0.5875 -0.2772 -0.0393
  233MOL0     C31387   7.927   2.961  10.740  0.7228 -0.0809  0.5932
  233MOL0     H31388   8.260   2.773  10.351 -1.5138  2.0581  3.0502
  233MOL0     H31389   8.501   2.693  10.313  1.4089  1.7291  1.8704
  233MOL0     H31390   8.697   2.632  10.324 -1.5005 -0.9841  0.2332
  233MOL0     H31391   8.707   2.706  10.473 -5.0794  0.6973 -2.5836
  233MOL0     H31392   8.870   2.478  10.357 -2.7456  1.4286 -2.2872
  233MOL0     H31393   8.909   2.552  10.518 -0.6675 -0.6837  0.1445
  233MOL0     H31394   8.915   2.699  10.254 -0.1327 -0.1446  0.1967
  233MOL0     H31395   9.049   2.626  10.334  1.2637  2.6793  1.0289
  233MOL0     H31396   8.901   2.850  10.488  1.1184  0.6106  0.2032
  233MOL0     H31397   9.051   2.758  10.528 -0.0516  0.9982  1.0811
  233MOL0     H31398   9.172   2.902  10.376  0.4929  1.6745  3.5100
  233MOL0     H31399   9.020   2.906  10.273 -0.2884 -0.7068  0.7906
  233MOL0     H31400   8.931   3.067  10.417 -0.4443 -4.4852 -1.4772
  233MOL0     H31401   9.048   3.033  10.546 -0.4302 -2.6450  0.0363
  233MOL0     H31402   9.073   3.252  10.403 -1.3541 -1.9051 -1.1499
  233MOL0     H31403   9.129   3.158  10.272  0.5605 -1.2380  0.0986
  233MOL0     H31404   9.254   3.175  10.556  2.3636 -0.1202  0.1092
  233MOL0     H31405   9.317   3.079  10.422 -0.5706  1.0091 -1.5414
  233MOL0     H31406   9.374   3.225  10.206  1.1017  0.2876 -0.3333
  233MOL0     H31407   9.485   3.406  10.058 -0.2162  2.2853 -1.8080
  233MOL0     H31408   9.420   3.569  10.093  0.0457  0.1651 -1.2647
  233MOL0     H31409   9.621   3.601  10.251  2.0055 -0.1103  1.6654
  233MOL0     H31410   9.688   3.457  10.180  2.6131  2.1493 -2.2779
  233MOL0     H31411   9.586   3.679  10.006 -1.8754 -1.2571 -1.5154
  233MOL0     H31412   9.674   3.546   9.962  2.6952 -1.9482  1.9754
  233MOL0     H31413   9.864   3.599  10.119  1.6637  0.9113 -1.4401
  233MOL0     H31414   9.785   3.771  10.105 -4.0693 -0.4584  1.1210
  233MOL0     H31415  10.058   3.679  10.117  1.0917  2.3868  0.5658
  233MOL0     H31416  10.287   3.733  10.077  0.2193  0.4444  0.2466
  233MOL0     H31417  10.517   3.883   9.464  1.4872 -1.9968 -0.0888
  233MOL0     H31418  10.723   3.931   9.397 -3.4414  0.4789 -0.5037
  233MOL0     H31419  10.931   4.023   9.350 -4.4862  2.9974  0.0032
  233MOL0     H31420  10.913   4.186   9.401 -1.1344 -0.0569  0.5141
  233MOL0     H31421  11.136   4.190   9.339 -2.6800 -0.6674 -2.0383
  233MOL0     H31422  11.135   4.179   9.515  1.2709 -0.5815  0.7454
  233MOL0     H31423  11.200   3.941   9.506 -1.0774 -0.0528 -0.1437
  233MOL0     H31424  11.202   3.955   9.329 -1.0931  0.1275 -0.6577
  233MOL0     H31425  11.398   4.095   9.516  1.8015  0.1971 -1.6910
  233MOL0     H31426  11.380   4.135   9.345  0.1021  0.1773  0.5719
  233MOL0     H31427  11.426   3.879   9.310  0.5822 -0.1199 -0.4900
  233MOL0     H31428  11.501   3.898   9.470 -1.4015  0.4249  0.6069
  233MOL0     H31429  11.580   4.080   9.233  0.7191  1.2177  2.2360
  233MOL0     H31430  11.672   4.038   9.373 -1.7712  2.0428  2.2686
  233MOL0     H31431  11.594   3.864   9.141 -0.3195  0.5167  0.5134
  233MOL0     H31432  11.656   3.788   9.278 -0.8599 -1.5156 -1.8043
  233MOL0     H31433  11.885   3.915   9.255 -2.0672 -1.0063  2.3266
  233MOL0     H31434  11.839   3.817   9.108  2.1802 -0.4888 -0.2052
  233MOL0     H31435  10.854   4.019   9.800 -0.8401 -0.1937 -0.0660
  233MOL0     H31436  10.633   3.925   9.880 -1.2930 -2.6659 -0.2260
  233MOL0     H31437  10.174   3.821   9.664  1.9876 -3.4530 -0.1932
  233MOL0     H31438   9.942   3.748   9.709  0.1366  0.9889 -0.9334
  233MOL0     H31439   8.457   2.393  10.605 -2.3621 -0.9782  1.2783
  233MOL0     H31440   8.215   2.455  10.636 -0.0119  2.0129  3.3564
  233MOL0     H31441   7.892   2.726  10.338  2.4369  4.1685 -1.0401
  233MOL0     H31442   7.661   2.764  10.324 -1.1955 -0.0048  1.3261
  233MOL0     H31443   7.460   3.058  10.623 -1.4166  0.3845  3.0335
  233MOL0     H31444   7.436   2.904  10.706  0.7881 -0.8503 -0.3887
  233MOL0     H31445   7.246   2.863  10.552  0.0857  0.6292 -2.6306
  233MOL0     H31446   7.303   3.005  10.454 -1.7436  1.6247 -0.4780
  233MOL0     H31447   7.235   3.106  10.711  1.1157  0.0811 -0.8344
  233MOL0     H31448   7.098   3.015  10.634 -0.7135  3.2414  0.3445
  233MOL0     H31449   7.116   3.162  10.443  0.9623 -4.3107  0.1571
  233MOL0     H31450   7.088   3.243  10.594 -1.7485 -0.5560 -0.3523
  233MOL0     H31451   7.437   3.430  10.464 -0.1661 -0.1607 -0.3317
  233MOL0     H31452   7.665   2.966  10.707  0.0401  2.3688 -1.2303
  233MOL0     H31453   7.862   2.973  10.827  0.6403 -0.4956  0.5921
  233MOL0     H31454   8.011   2.898  10.771  0.9779  0.3347  0.7542
  233MOL0     H31455   7.969   3.051  10.694  1.0083 -0.6689 -0.3399
  234MOL0     O31456   7.244   0.761   8.468 -0.3840  0.3706 -0.2693
  234MOL0     C31457   7.187   0.844   8.398  0.0282 -0.0344  0.0885
  234MOL0     O31458   7.253   0.937   8.320 -0.0332 -0.1991 -0.5941
  234MOL0     C31459   7.387   0.969   8.361 -0.2137 -0.5297  0.0510
  234MOL0     C31460   7.497   0.912   8.290  0.6266 -1.4686  0.2625
  234MOL0     C31461   7.628   0.949   8.309 -0.4524  0.0317  0.2237
  234MOL0     C31462   7.661   1.034   8.415  0.1287 -0.1705  0.3400
  234MOL0     O31463   7.801   1.066   8.426  0.6548  0.1239 -0.1856
  234MOL0     C31464   7.832   1.186   8.504  0.0444  0.2516 -0.2760
  234MOL0     C31465   7.964   1.246   8.461  0.0835 -0.0992  0.4975
  234MOL0     C31466   8.079   1.147   8.498 -0.4727 -0.3383  0.1661
  234MOL0     C31467   8.223   1.197   8.465  0.6085 -0.2995 -0.4835
  234MOL0     C31468   8.340   1.114   8.514  0.1496  1.2590  0.1773
  234MOL0     C31469   8.468   1.176   8.489 -0.7274 -0.0143 -0.2844
  234MOL0     C31470   8.502   1.287   8.600  0.7570 -0.8773 -0.4930
  234MOL0     C31471   8.648   1.345   8.571 -0.0178  0.6502  0.3743
  234MOL0     N31472   8.750   1.247   8.626 -0.5463  0.1627 -1.0630
  234MOL0     C31473   8.832   1.290   8.734 -1.4808 -0.6338 -0.6610
  234MOL0     C31474   8.927   1.194   8.749  0.1884  0.1247  0.0401
  234MOL0     C31475   9.039   1.192   8.849 -0.0210 -1.2395  0.3367
  234MOL0     C31476   9.166   1.216   8.769 -0.5418 -0.0881  0.1726
  234MOL0     C31477   9.182   1.343   8.695  0.0879  0.0397  1.4711
  234MOL0     C31478   9.329   1.361   8.661 -0.1421  0.0298  0.5008
  234MOL0     O31479   9.369   1.473   8.585 -0.0410  0.5224  0.7444
  234MOL0     C31480   9.489   1.474   8.516 -0.0475 -0.5397 -0.4823
  234MOL0     C31481   9.587   1.375   8.515  0.0165 -0.0831 -0.4050
  234MOL0     C31482   9.711   1.392   8.458 -0.6044 -0.3931  0.2265
  234MOL0     C31483   9.742   1.512   8.393 -0.5350  0.0793 -0.3763
  234MOL0     C31484   9.868   1.528   8.320  0.4898 -0.0952  0.8521
  234MOL0     O31485   9.876   1.623   8.234  0.6791 -0.1804  0.0971
  234MOL0     C31486   9.992   1.654   8.165 -0.3611  0.5985  0.9451
  234MOL0     C31487  10.014   1.786   8.158  0.4500 -0.0191  0.4199
  234MOL0     C31488  10.130   1.838   8.090  0.1091 -0.7258 -0.1533
  234MOL0     C31489  10.221   1.748   8.036  0.3825 -0.0774 -0.2558
  234MOL0     O31490  10.333   1.806   7.984 -0.1647  0.7510 -0.3580
  234MOL0     C31491  10.442   1.718   7.932  0.5082  0.5881  0.7094
  234MOL0     C31492  10.560   1.805   7.898  0.0036  0.0985  0.9925
  234MOL0     C31493  10.642   1.755   7.773 -0.5915  0.1038  0.5184
  234MOL0     C31494  10.753   1.856   7.735  0.4997  0.4895  0.2689
  234MOL0     C31495  10.835   1.800   7.621 -1.4886 -0.2662  0.5323
  234MOL0     C31496  10.959   1.706   7.660  0.3882  0.2065  0.8869
  234MOL0     C31497  11.040   1.646   7.536  0.1175 -0.2487 -0.3580
  234MOL0     C31498  11.181   1.600   7.582  0.1374 -0.5673  0.0006
  234MOL0    Cl31499  11.195   1.444   7.672 -0.0696  0.1460  0.5267
  234MOL0     C31500  10.203   1.614   8.054  0.3188  0.3197 -0.5964
  234MOL0     C31501  10.089   1.560   8.117 -0.8625  0.2006  1.1649
  234MOL0     O31502   9.961   1.451   8.351  1.0247  0.0594  0.4325
  234MOL0     C31503   9.650   1.616   8.394 -0.6327 -0.4978 -0.6538
  234MOL0     C31504   9.528   1.599   8.456  0.1401  0.0365  0.6162
  234MOL0     N31505   8.911   1.099   8.652  0.5655  0.2240 -0.1655
  234MOL0     N31506   8.797   1.126   8.585  0.3043  0.2053  0.1020
  234MOL0     C31507   7.553   1.085   8.495  0.9475 -0.2364 -0.0870
  234MOL0     C31508   7.419   1.052   8.472 -0.0489  0.4187 -0.5968
  234MOL0     C31509   7.035   0.843   8.387 -0.4862  0.0480 -0.5313
  234MOL0     C31510   6.972   0.942   8.319 -0.0406  0.1571  0.6259
  234MOL0     C31511   6.831   0.933   8.305 -0.7472  0.1499 -0.4323
  234MOL0     C31512   6.753   0.838   8.383 -0.4511 -0.1023 -0.4030
  234MOL0     O31513   6.618   0.826   8.380 -0.1762 -0.0759 -0.3033
  234MOL0     C31514   6.534   0.916   8.304  0.5902 -0.2920  0.5960
  234MOL0     C31515   6.529   0.886   8.156 -0.2322  0.0864  0.0170
  234MOL0     C31516   6.410   0.950   8.079  0.0602  0.0661 -0.1816
  234MOL0     C31517   6.399   0.907   7.932 -1.1816 -0.3350 -0.8674
  234MOL0     C31518   6.273   0.953   7.874  0.1822  0.3141  0.1894
  234MOL0     C31519   6.163   0.988   7.826 -0.3084 -0.8116 -0.3356
  234MOL0     C31520   6.817   0.742   8.443 -0.2154 -0.8346 -0.1917
  234MOL0     C31521   6.953   0.741   8.455  0.2752 -0.1549 -0.6311
  234MOL0     C31522   7.012   0.621   8.525  0.3352  1.0518 -0.0419
  234MOL0     H31523   7.492   0.851   8.201  1.5529  2.0633 -2.4698
  234MOL0     H31524   7.700   0.912   8.237 -0.0356  2.2356 -0.5678
  234MOL0     H31525   7.754   1.260   8.488 -0.6358 -0.3750  0.1095
  234MOL0     H31526   7.830   1.147   8.606 -2.0615 -0.4716 -0.5433
  234MOL0     H31527   7.980   1.338   8.518  0.3793  0.0776  0.1305
  234MOL0     H31528   7.978   1.266   8.354  1.4669 -1.0917  0.4667
  234MOL0     H31529   8.065   1.060   8.433 -1.8656  0.0406 -0.0776
  234MOL0     H31530   8.066   1.121   8.604 -0.0744  0.9307  0.5423
  234MOL0     H31531   8.229   1.202   8.356  0.6192 -1.7058 -0.5714
  234MOL0     H31532   8.222   1.293   8.516 -0.5422  0.6726 -2.2725
  234MOL0     H31533   8.335   1.107   8.623  1.2378 -0.7077  0.1408
  234MOL0     H31534   8.326   1.012   8.476 -1.6915  0.6158  2.3254
  234MOL0     H31535   8.544   1.097   8.493 -0.9884 -0.2399  2.9823
  234MOL0     H31536   8.474   1.219   8.389  2.8939 -1.6607 -0.9363
  234MOL0     H31537   8.493   1.242   8.699  0.5662 -4.3240 -1.9427
  234MOL0     H31538   8.434   1.373   8.591  1.1403 -0.2044  2.1922
  234MOL0     H31539   8.664   1.347   8.463 -2.1767  1.2914  0.0088
  234MOL0     H31540   8.661   1.444   8.615  3.2415  0.1340  0.8043
  234MOL0     H31541   8.826   1.382   8.791 -3.0915 -0.9467 -0.2861
  234MOL0     H31542   9.023   1.280   8.913  3.4131 -1.7196  2.0972
  234MOL0     H31543   9.030   1.099   8.905 -1.5014 -0.4942  1.4161
  234MOL0     H31544   9.259   1.208   8.825 -1.6962  0.7981  2.3093
  234MOL0     H31545   9.166   1.141   8.689 -0.6359 -1.8142  1.7477
  234MOL0     H31546   9.153   1.429   8.755  1.2576  1.5577 -0.0517
  234MOL0     H31547   9.128   1.339   8.600 -0.0481 -0.6752  1.5718
  234MOL0     H31548   9.361   1.273   8.606 -1.6763 -2.0335  2.6983
  234MOL0     H31549   9.385   1.371   8.755 -0.5480 -0.4824  0.8065
  234MOL0     H31550   9.582   1.279   8.565  0.8734  0.9830  1.8766
  234MOL0     H31551   9.787   1.315   8.460  0.3046  0.3997 -1.5484
  234MOL0     H31552   9.933   1.845   8.198  1.5790 -0.1774  3.2263
  234MOL0     H31553  10.126   1.944   8.070 -1.0139 -0.0631  2.9631
  234MOL0     H31554  10.471   1.640   8.002 -0.3774  0.6791  1.2033
  234MOL0     H31555  10.406   1.669   7.841 -2.4365 -0.4529  2.3094
  234MOL0     H31556  10.518   1.905   7.881 -1.8875 -0.9866 -1.1516
  234MOL0     H31557  10.628   1.795   7.984 -1.5560 -3.1376  2.0124
  234MOL0     H31558  10.691   1.658   7.789 -0.6169 -0.5766 -2.7910
  234MOL0     H31559  10.575   1.744   7.687  3.2278 -1.9968 -2.5247
  234MOL0     H31560  10.817   1.866   7.824 -1.0185 -3.0824  1.9773
  234MOL0     H31561  10.707   1.950   7.703  0.9670 -0.3109 -3.0847
  234MOL0     H31562  10.874   1.885   7.565 -0.6845 -3.4101 -4.3487
  234MOL0     H31563  10.769   1.740   7.557 -0.8590  1.4754 -1.9086
  234MOL0     H31564  11.017   1.774   7.724 -0.1131 -0.6524  2.3175
  234MOL0     H31565  10.934   1.620   7.724  4.0142 -0.0156  2.2848
  234MOL0     H31566  11.050   1.730   7.466 -1.0111 -0.6337 -1.0164
  234MOL0     H31567  10.977   1.562   7.505 -0.3546 -0.5989  1.4190
  234MOL0     H31568  11.246   1.600   7.494  2.1547 -0.9976  1.4138
  234MOL0     H31569  11.214   1.672   7.657  1.4030 -0.2432 -0.8342
  234MOL0     H31570  10.268   1.539   8.011  0.8642  1.5282 -1.9798
  234MOL0     H31571  10.064   1.454   8.125  0.1443 -0.0730  0.8013
  234MOL0     H31572   9.687   1.700   8.336  1.4038 -0.2069  0.9519
  234MOL0     H31573   9.446   1.669   8.439 -1.7756 -2.4239 -1.0402
  234MOL0     H31574   7.579   1.151   8.577 -0.4413 -0.7966  0.8397
  234MOL0     H31575   7.342   1.113   8.516 -0.3068 -1.3447  1.5966
  234MOL0     H31576   7.037   1.012   8.268 -0.8496  2.3686  2.4335
  234MOL0     H31577   6.776   1.010   8.253  0.1085  1.2904  0.3041
  234MOL0     H31578   6.569   1.019   8.305  2.0111 -0.7450  2.1035
  234MOL0     H31579   6.433   0.911   8.345  0.5405  1.4539  0.7313
  234MOL0     H31580   6.518   0.777   8.153 -1.3864  0.1975 -0.0459
  234MOL0     H31581   6.621   0.914   8.103  0.7923  2.4497  2.7719
  234MOL0     H31582   6.426   1.058   8.073  2.9667 -0.3334 -1.4302
  234MOL0     H31583   6.315   0.929   8.128 -0.9216 -2.6024 -2.9258
  234MOL0     H31584   6.483   0.951   7.877  1.7270 -0.2012  3.2463
  234MOL0     H31585   6.417   0.799   7.938  2.6416  0.2431  1.8074
  234MOL0     H31586   6.073   1.014   7.774 -0.0354  0.3027 -0.2879
  234MOL0     H31587   6.763   0.654   8.477 -0.7928 -0.0342  1.0443
  234MOL0     H31588   7.093   0.586   8.461 -0.3203  1.8769 -1.3688
  234MOL0     H31589   7.047   0.655   8.623  2.4879 -1.3457  0.1351
  234MOL0     H31590   6.948   0.535   8.549  1.6764 -0.0771 -0.3499
  235MOL0     O31591   2.690   7.156   1.073 -0.1017 -0.0828 -0.0939
  235MOL0     C31592   2.639   7.246   1.142 -0.5672  0.2698  1.0516
  235MOL0     O31593   2.720   7.339   1.217  0.7192 -0.2315  0.2558
  235MOL0     C31594   2.856   7.327   1.201  0.1998 -0.0923  0.7446
  235MOL0     C31595   2.929   7.211   1.239  0.4531 -0.8735  0.6595
  235MOL0     C31596   3.062   7.198   1.209 -0.5488  0.7166  0.4335
  235MOL0     C31597   3.129   7.299   1.151  0.0796 -0.8213 -0.9707
  235MOL0     O31598   3.269   7.294   1.115 -0.3784  0.3382  0.3615
  235MOL0     C31599   3.348   7.192   1.187 -0.2390  0.0594  0.6983
  235MOL0     C31600   3.497   7.209   1.158  0.3286  0.6145  0.9577
  235MOL0     C31601   3.524   7.157   1.008 -0.5393  0.3984  0.0961
  235MOL0     C31602   3.660   7.207   0.944 -0.0149  0.6616  0.6682
  235MOL0     C31603   3.689   7.134   0.805  0.4561 -0.3320 -0.3370
  235MOL0     C31604   3.596   7.153   0.678  0.1238 -0.7997 -0.0197
  235MOL0     C31605   3.681   7.139   0.547  0.4210 -0.8148 -0.4787
  235MOL0     C31606   3.688   6.993   0.497 -0.4895  0.1964  0.3171
  235MOL0     N31607   3.777   6.973   0.379  0.5232 -0.3757 -0.5646
  235MOL0     C31608   3.917   6.980   0.372  0.4232 -0.5276  0.7336
  235MOL0     C31609   3.936   6.957   0.242 -0.3330 -0.6036 -0.2814
  235MOL0     C31610   4.078   6.952   0.187  0.1157 -1.1795  0.4173
  235MOL0     C31611   4.188   6.867   0.267  0.7675 -0.1481  0.3709
  235MOL0     C31612   4.312   6.896   0.184 -0.1097 -0.5333 -0.2027
  235MOL0     C31613   4.427   6.811   0.245 -0.5600 -0.2357  0.2594
  235MOL0     O31614   4.459   6.860   0.376  0.0499 -0.5101  0.3147
  235MOL0     C31615   4.589   6.905   0.396 -0.0337  0.0603  0.8571
  235MOL0     C31616   4.642   6.868   0.516  0.2825 -0.0274 -0.2471
  235MOL0     C31617   4.767   6.924   0.551 -0.0289 -0.2313  0.1563
  235MOL0     C31618   4.839   7.018   0.468 -0.2399  0.7302 -0.0170
  235MOL0     C31619   4.963   7.083   0.503  0.6440  0.4136  0.0222
  235MOL0     O31620   5.008   7.081   0.627 -0.5207 -0.0979  0.7423
  235MOL0     C31621   5.118   7.158   0.660 -0.3025 -0.1101  0.0539
  235MOL0     C31622   5.175   7.137   0.783 -0.5932 -0.0591 -0.6495
  235MOL0     C31623   5.278   7.217   0.841 -0.0804  0.1571 -0.1680
  235MOL0     C31624   5.341   7.308   0.764  0.2949  0.3782  0.9990
  235MOL0     O31625   5.441   7.379   0.825 -0.4621  0.3919 -0.0889
  235MOL0     C31626   5.532   7.441   0.738  0.7563 -0.0641  0.7110
  235MOL0     C31627   5.676   7.459   0.818  0.3193 -0.8218  0.7320
  235MOL0     C31628   5.785   7.357   0.779  0.0202 -0.5999 -0.6340
  235MOL0     C31629   5.752   7.224   0.838  0.6111 -0.0486  0.0118
  235MOL0     C31630   5.701   7.121   0.731 -1.0524  0.5383  0.2700
  235MOL0     C31631   5.633   6.999   0.807  0.1326 -0.0498 -0.1331
  235MOL0     C31632   5.525   6.951   0.722  0.0782  0.5244  0.6042
  235MOL0     C31633   5.426   6.857   0.786  0.2864 -0.6385  0.3198
  235MOL0    Cl31634   5.477   6.693   0.803 -0.4719 -0.2676 -0.3221
  235MOL0     C31635   5.286   7.341   0.639  0.2518 -0.1018 -0.3565
  235MOL0     C31636   5.171   7.273   0.590 -0.3371 -0.3843  0.5040
  235MOL0     O31637   5.029   7.108   0.402  0.0227 -0.1571 -0.4698
  235MOL0     C31638   4.773   7.046   0.350  0.8029 -1.2920  0.0798
  235MOL0     C31639   4.648   7.007   0.314  0.1037  0.3748  0.0543
  235MOL0     N31640   3.818   6.969   0.171  0.6672 -0.3349 -0.6698
  235MOL0     N31641   3.725   6.960   0.255  0.2230  0.6318  0.5617
  235MOL0     C31642   3.062   7.420   1.119  0.1207  0.1371 -0.5640
  235MOL0     C31643   2.928   7.440   1.160 -0.0531 -0.6052  0.2353
  235MOL0     C31644   2.495   7.277   1.139  0.4786 -0.7117 -0.0152
  235MOL0     C31645   2.458   7.402   1.199  0.5877  0.3904  0.4953
  235MOL0     C31646   2.324   7.444   1.221 -0.5533  0.8924  0.8250
  235MOL0     C31647   2.226   7.369   1.158 -0.2258 -0.2486  0.5661
  235MOL0     O31648   2.092   7.408   1.142 -0.6557 -0.0299 -0.5464
  235MOL0     C31649   2.058   7.467   1.018 -0.3678 -0.3075  0.3403
  235MOL0     C31650   1.947   7.578   1.045 -0.1437 -0.4576  0.0409
  235MOL0     C31651   1.999   7.673   1.151  0.0744 -0.3049  0.0610
  235MOL0     C31652   1.912   7.798   1.147 -0.0787  0.5124  0.0608
  235MOL0     C31653   1.947   7.885   1.250  0.0958 -1.1886  0.1508
  235MOL0     C31654   1.977   7.981   1.325 -0.3592  0.7974  0.3437
  235MOL0     C31655   2.260   7.246   1.096  0.4721  0.1045  0.5438
  235MOL0     C31656   2.396   7.200   1.094  0.0370 -0.1254 -0.1442
  235MOL0     C31657   2.428   7.067   1.039 -0.5307 -1.1315  0.1887
  235MOL0     H31658   2.876   7.118   1.258  0.3585 -1.0715 -0.4678
  235MOL0     H31659   3.104   7.104   1.241 -0.3009  0.6064 -0.2050
  235MOL0     H31660   3.334   7.207   1.294 -1.1886  3.6417  0.2003
  235MOL0     H31661   3.323   7.095   1.143  0.3156  0.8141 -1.3986
  235MOL0     H31662   3.564   7.154   1.224  3.2128 -1.1418 -3.0147
  235MOL0     H31663   3.529   7.314   1.163  2.8438  0.0639 -1.1685
  235MOL0     H31664   3.442   7.195   0.945 -1.3829  0.8932  1.4487
  235MOL0     H31665   3.516   7.048   1.018 -0.8624  0.5689  2.1232
  235MOL0     H31666   3.641   7.314   0.929 -2.2489  0.1698 -0.5926
  235MOL0     H31667   3.745   7.187   1.010  1.5540 -2.5598 -1.9960
  235MOL0     H31668   3.788   7.168   0.772  0.9917 -0.2564  1.2733
  235MOL0     H31669   3.696   7.026   0.822  0.8831  0.2758  5.0372
  235MOL0     H31670   3.519   7.075   0.669 -0.7495  0.0864 -0.4266
  235MOL0     H31671   3.552   7.253   0.671  2.1352 -0.0064 -3.4002
  235MOL0     H31672   3.779   7.179   0.575 -0.3593  0.9379 -0.1249
  235MOL0     H31673   3.638   7.199   0.466 -0.6529 -2.6582 -1.3330
  235MOL0     H31674   3.722   6.927   0.577  1.9579 -0.5668 -1.2398
  235MOL0     H31675   3.585   6.966   0.473  0.2760 -0.4227 -2.7490
  235MOL0     H31676   3.985   6.981   0.457 -1.4276  0.3770  2.2858
  235MOL0     H31677   4.078   6.918   0.083 -1.7340 -0.1469  0.0405
  235MOL0     H31678   4.112   7.056   0.187  0.9006 -1.4325  0.6542
  235MOL0     H31679   4.206   6.906   0.367 -0.5084  0.7643  0.2734
  235MOL0     H31680   4.166   6.760   0.274  0.6464 -0.1570 -0.0812
  235MOL0     H31681   4.330   7.004   0.194  0.3568 -0.8039  2.8924
  235MOL0     H31682   4.301   6.861   0.081  0.4640  0.2936 -0.5575
  235MOL0     H31683   4.515   6.819   0.181  0.4049 -0.5668  1.5135
  235MOL0     H31684   4.389   6.708   0.253 -0.8951 -0.1920 -0.6918
  235MOL0     H31685   4.602   6.800   0.589  1.4917  0.7446  1.1910
  235MOL0     H31686   4.811   6.892   0.645  1.0177  3.4829  1.0689
  235MOL0     H31687   5.136   7.050   0.835 -1.8421  1.9990  2.1182
  235MOL0     H31688   5.310   7.185   0.939 -0.4720  2.3745  0.7375
  235MOL0     H31689   5.549   7.389   0.642  1.9226  2.5603 -0.6168
  235MOL0     H31690   5.504   7.544   0.715  2.2455 -0.4612 -3.9313
  235MOL0     H31691   5.709   7.563   0.807  1.6001 -1.3730 -1.2862
  235MOL0     H31692   5.657   7.451   0.926 -2.0912 -1.9379  0.2850
  235MOL0     H31693   5.803   7.348   0.672  1.0104 -2.6926 -0.3400
  235MOL0     H31694   5.878   7.392   0.826 -0.6382 -0.6450  0.7649
  235MOL0     H31695   5.678   7.216   0.918  0.5018 -3.4440 -0.3111
  235MOL0     H31696   5.847   7.182   0.871  1.1278  2.1218  1.4911
  235MOL0     H31697   5.793   7.086   0.683 -1.1226  0.1706  0.4003
  235MOL0     H31698   5.636   7.173   0.660  1.7236  2.3987 -1.0566
  235MOL0     H31699   5.711   6.924   0.818  0.6760 -0.1023 -3.2878
  235MOL0     H31700   5.594   7.024   0.906  2.7044 -0.0839  0.9569
  235MOL0     H31701   5.566   6.912   0.628  1.8655  0.1674  1.4899
  235MOL0     H31702   5.466   7.038   0.692  0.8066  1.3751  1.5650
  235MOL0     H31703   5.409   6.895   0.888  1.8601  0.3070  0.2626
  235MOL0     H31704   5.327   6.861   0.739  1.3218  2.1285 -1.8632
  235MOL0     H31705   5.313   7.423   0.572  1.9429 -1.3650 -1.2829
  235MOL0     H31706   5.127   7.314   0.499  0.1002  0.3378  0.6081
  235MOL0     H31707   4.819   7.124   0.289  0.7826 -0.7717  0.7124
  235MOL0     H31708   4.594   7.052   0.232 -1.0184  1.1253  1.1698
  235MOL0     H31709   3.119   7.501   1.074  0.8312  0.6664  1.2253
  235MOL0     H31710   2.879   7.534   1.137  1.6446 -0.0577 -1.4235
  235MOL0     H31711   2.530   7.477   1.229  2.7151 -1.2624 -0.2805
  235MOL0     H31712   2.289   7.543   1.251 -2.2796  0.0946  1.5798
  235MOL0     H31713   2.017   7.385   0.959  1.0649  0.3018 -1.6113
  235MOL0     H31714   2.137   7.507   0.953 -1.0687  0.6098  0.0357
  235MOL0     H31715   1.861   7.526   1.089  0.2178  0.3854  1.8446
  235MOL0     H31716   1.906   7.640   0.964  0.0553  0.4446  0.6107
  235MOL0     H31717   2.103   7.706   1.155  0.6816 -2.0268  4.7728
  235MOL0     H31718   1.972   7.632   1.249  1.5050 -1.1984  0.1096
  235MOL0     H31719   1.948   7.849   1.057 -1.9012 -1.6077 -2.0213
  235MOL0     H31720   1.803   7.785   1.139 -0.0548 -0.9463  1.6128
  235MOL0     H31721   2.009   8.059   1.391 -0.2037  1.2784 -0.2904
  235MOL0     H31722   2.182   7.177   1.065  0.1153  0.9312 -0.4613
  235MOL0     H31723   2.458   7.085   0.936 -0.6619 -2.7842 -0.1535
  235MOL0     H31724   2.501   7.008   1.094 -0.2267  0.7758  1.9653
  235MOL0     H31725   2.342   7.000   1.030 -2.1541  0.3238  3.1954
  236MOL0     O31726   4.646   7.946   7.158  0.0493  0.1554  0.1580
  236MOL0     C31727   4.639   7.959   7.280  0.9975 -0.1622  0.8597
  236MOL0     O31728   4.531   7.920   7.364  0.1091 -0.1719  0.3273
  236MOL0     C31729   4.424   7.845   7.316  0.4711 -0.7628  0.6837
  236MOL0     C31730   4.389   7.738   7.397 -0.3192 -0.0110 -0.1103
  236MOL0     C31731   4.271   7.664   7.363 -0.4377  0.3220 -0.7237
  236MOL0     C31732   4.206   7.688   7.244  0.2550 -0.2401  0.1282
  236MOL0     O31733   4.098   7.617   7.197  0.1586 -0.8215  0.4163
  236MOL0     C31734   4.102   7.476   7.166  0.0788 -0.4631 -0.3085
  236MOL0     C31735   3.965   7.423   7.195  0.0250 -0.0904 -0.6792
  236MOL0     C31736   3.948   7.279   7.162 -0.8430  0.0669  0.1197
  236MOL0     C31737   3.813   7.243   7.227 -0.1908  0.2662 -0.2382
  236MOL0     C31738   3.773   7.096   7.213 -0.9569 -1.0417 -0.2355
  236MOL0     C31739   3.627   7.076   7.250 -0.2909  0.6457 -0.6395
  236MOL0     C31740   3.589   6.919   7.228  0.1191 -0.9034  0.6646
  236MOL0     C31741   3.552   6.880   7.081  0.2360 -0.6781 -0.2260
  236MOL0     N31742   3.460   6.767   7.074 -0.1536  0.2125 -0.2674
  236MOL0     C31743   3.481   6.648   7.142 -0.0138 -0.3661 -0.4000
  236MOL0     C31744   3.369   6.579   7.127 -0.2803 -0.1185 -0.7268
  236MOL0     C31745   3.321   6.439   7.175 -0.1358 -0.6279  0.4486
  236MOL0     C31746   3.351   6.323   7.072  0.3452 -0.1753 -0.3862
  236MOL0     C31747   3.290   6.334   6.929  0.2116 -0.6259 -0.5891
  236MOL0     C31748   3.315   6.215   6.837  0.5321 -0.5338 -0.8662
  236MOL0     O31749   3.459   6.195   6.820 -0.1061  0.3165  0.9356
  236MOL0     C31750   3.500   6.075   6.763  0.7256  0.5087 -0.3518
  236MOL0     C31751   3.421   5.992   6.683 -0.3751  0.0645 -0.6355
  236MOL0     C31752   3.463   5.861   6.654  0.2773 -0.3830  1.2217
  236MOL0     C31753   3.587   5.814   6.692 -0.8497  0.7520 -0.4609
  236MOL0     C31754   3.638   5.682   6.667  0.0629 -0.6052 -0.3726
  236MOL0     O31755   3.776   5.666   6.687 -0.1699  0.0449 -0.0234
  236MOL0     C31756   3.836   5.541   6.677 -0.0657 -0.6305  0.1114
  236MOL0     C31757   3.953   5.517   6.749  0.5044 -0.5344 -0.6459
  236MOL0     C31758   4.012   5.393   6.759  0.0878 -0.0515 -0.0987
  236MOL0     C31759   3.959   5.289   6.685 -0.9067  0.4033 -0.6406
  236MOL0     O31760   4.026   5.172   6.672 -0.2383  0.2557 -0.5867
  236MOL0     C31761   4.056   5.103   6.793 -0.9936  0.4942 -0.0633
  236MOL0     C31762   3.960   4.984   6.793 -0.8742  0.4148  0.2470
  236MOL0     C31763   3.824   5.029   6.846  0.6194  0.5216  0.3820
  236MOL0     C31764   3.712   4.927   6.811 -0.1726  0.5198 -0.4064
  236MOL0     C31765   3.572   4.970   6.859 -0.3077 -1.0144  0.8485
  236MOL0     C31766   3.469   4.855   6.825  0.1530 -0.2908  0.0855
  236MOL0     C31767   3.458   4.807   6.676  0.9986  1.2096 -0.5054
  236MOL0     C31768   3.410   4.661   6.669  0.4957  0.1366 -0.4530
  236MOL0    Cl31769   3.231   4.656   6.715  0.4255  0.3156 -0.2982
  236MOL0     C31770   3.857   5.316   6.597 -0.5798  0.3629 -0.1637
  236MOL0     C31771   3.792   5.438   6.592  0.5666  0.2256 -0.2916
  236MOL0     O31772   3.550   5.597   6.647 -0.0100 -0.1443 -0.4868
  236MOL0     C31773   3.672   5.898   6.776 -0.3968  0.7605  0.3010
  236MOL0     C31774   3.619   6.027   6.816  0.6157 -0.1839  0.4032
  236MOL0     N31775   3.286   6.654   7.055  0.3252  0.7132 -0.2220
  236MOL0     N31776   3.338   6.769   7.025 -0.2699  0.8786  0.4351
  236MOL0     C31777   4.254   7.793   7.164 -0.3400 -0.0799 -0.7635
  236MOL0     C31778   4.358   7.880   7.196  0.4110  0.5083  0.0232
  236MOL0     C31779   4.751   8.032   7.345 -0.3214  0.1180 -0.0115
  236MOL0     C31780   4.732   8.063   7.485  0.0140  0.1524  0.7302
  236MOL0     C31781   4.833   8.134   7.558 -0.3190 -0.8665  0.5356
  236MOL0     C31782   4.951   8.167   7.503  0.2216 -0.2639  0.4130
  236MOL0     O31783   5.062   8.225   7.562  0.1634 -0.0210  0.8596
  236MOL0     C31784   5.067   8.262   7.696 -0.2561 -0.5591  0.5986
  236MOL0     C31785   5.130   8.402   7.726 -0.4445 -0.6163  0.2363
  236MOL0     C31786   5.282   8.417   7.682  0.3413  0.5542  0.5676
  236MOL0     C31787   5.381   8.335   7.767  0.8331 -1.0630  0.2406
  236MOL0     C31788   5.508   8.333   7.693 -0.2259 -0.0125  0.4148
  236MOL0     C31789   5.619   8.328   7.636  0.2697 -0.0925 -0.3184
  236MOL0     C31790   4.967   8.142   7.363  0.4702  0.6466 -0.7238
  236MOL0     C31791   4.864   8.084   7.284  0.5418 -0.4818  0.7234
  236MOL0     C31792   4.894   8.069   7.132  0.7031 -0.0810  0.8497
  236MOL0     H31793   4.455   7.713   7.480 -1.6230 -0.9378  0.6747
  236MOL0     H31794   4.235   7.590   7.434  3.0370 -1.0192 -0.1944
  236MOL0     H31795   4.124   7.468   7.059  3.2388  2.6468 -0.0973
  236MOL0     H31796   4.185   7.435   7.225  1.6775  2.9397  0.1045
  236MOL0     H31797   3.895   7.494   7.150  2.4732  1.2747 -2.5767
  236MOL0     H31798   3.958   7.441   7.303  0.2991  1.1220 -0.8482
  236MOL0     H31799   4.028   7.218   7.205 -2.0120 -0.8754  1.0410
  236MOL0     H31800   3.944   7.260   7.054 -2.6367  0.5959  0.0561
  236MOL0     H31801   3.818   7.280   7.330  0.0254 -0.6101  0.0710
  236MOL0     H31802   3.739   7.307   7.178  0.2286 -0.0033 -1.2507
  236MOL0     H31803   3.797   7.064   7.111  0.5049 -2.2576  0.4463
  236MOL0     H31804   3.838   7.045   7.285  1.1413  0.5075 -0.9111
  236MOL0     H31805   3.610   7.105   7.355  0.3482 -0.0847 -0.3237
  236MOL0     H31806   3.569   7.146   7.190  2.1267  2.2098 -1.2435
  236MOL0     H31807   3.496   6.902   7.284  1.4030 -0.5204  3.0393
  236MOL0     H31808   3.661   6.851   7.274  1.4927  1.3189  2.0139
  236MOL0     H31809   3.497   6.966   7.040  0.9864  2.0580  3.9529
  236MOL0     H31810   3.641   6.856   7.022  1.7093 -0.6197  1.8847
  236MOL0     H31811   3.566   6.615   7.201  1.5958  2.6144 -0.8977
  236MOL0     H31812   3.367   6.410   7.269 -3.0483 -3.2607  1.2421
  236MOL0     H31813   3.215   6.448   7.198 -0.0011 -0.7896  1.1518
  236MOL0     H31814   3.460   6.316   7.062  0.4009 -3.0465  1.3053
  236MOL0     H31815   3.336   6.227   7.121  4.5382 -0.9531 -0.2139
  236MOL0     H31816   3.323   6.425   6.880 -1.7170  1.4231  1.6785
  236MOL0     H31817   3.182   6.349   6.936  0.6419  2.0512  2.3771
  236MOL0     H31818   3.262   6.214   6.742  2.5353 -0.1065 -2.0386
  236MOL0     H31819   3.272   6.130   6.890  1.6047 -0.5647  0.0090
  236MOL0     H31820   3.332   6.035   6.637 -0.4768  0.0784 -0.4263
  236MOL0     H31821   3.399   5.800   6.591 -0.3195  2.4139 -1.1225
  236MOL0     H31822   3.994   5.603   6.801  0.7470  0.0578 -1.8017
  236MOL0     H31823   4.105   5.385   6.814 -0.4752  3.5826  1.6572
  236MOL0     H31824   4.159   5.069   6.797 -0.8085  1.1579  1.1332
  236MOL0     H31825   4.049   5.171   6.879  1.1517  2.0977 -1.0636
  236MOL0     H31826   3.953   4.930   6.698  1.3263 -3.0838  1.8662
  236MOL0     H31827   3.991   4.900   6.856  1.4614  1.6610  0.8895
  236MOL0     H31828   3.824   5.041   6.955 -0.2125  1.6180  0.2740
  236MOL0     H31829   3.807   5.125   6.796 -0.4151 -0.5060 -1.3352
  236MOL0     H31830   3.754   4.837   6.856 -2.1756  0.4319  1.4267
  236MOL0     H31831   3.720   4.919   6.702 -1.0798 -0.3525 -0.4153
  236MOL0     H31832   3.551   5.060   6.801  0.3626 -2.3433 -1.5912
  236MOL0     H31833   3.577   4.988   6.967  0.6794 -0.1835  0.6749
  236MOL0     H31834   3.491   4.773   6.894 -3.1115  0.1166  1.8141
  236MOL0     H31835   3.370   4.892   6.853  1.6940  2.7505  2.0124
  236MOL0     H31836   3.554   4.831   6.629  0.2353  1.8585 -1.7702
  236MOL0     H31837   3.389   4.881   6.635 -1.3073 -0.3388  0.4000
  236MOL0     H31838   3.419   4.608   6.573 -0.9487 -2.7549  0.8672
  236MOL0     H31839   3.466   4.599   6.739 -0.3803  0.2703  0.3879
  236MOL0     H31840   3.822   5.230   6.540  0.1429  0.0834 -0.1994
  236MOL0     H31841   3.709   5.438   6.522 -0.8881 -0.6415  1.3362
  236MOL0     H31842   3.770   5.872   6.813  0.2002  0.4580 -1.4086
  236MOL0     H31843   3.681   6.091   6.879 -0.0506  2.1575 -1.1550
  236MOL0     H31844   4.217   7.818   7.065  0.5523  0.9706 -0.8657
  236MOL0     H31845   4.392   7.962   7.133 -2.0279  0.6160 -1.2431
  236MOL0     H31846   4.644   8.029   7.538 -0.1996 -0.4936 -0.0282
  236MOL0     H31847   4.822   8.165   7.661  1.5863  0.9550  0.2454
  236MOL0     H31848   5.131   8.188   7.745  0.7282 -0.0270  0.1408
  236MOL0     H31849   4.962   8.263   7.729 -0.1940  0.5315  0.8096
  236MOL0     H31850   5.129   8.413   7.835 -1.1942 -0.3448  0.2039
  236MOL0     H31851   5.073   8.483   7.680  0.6371  1.0265  1.6611
  236MOL0     H31852   5.308   8.523   7.692  0.0180  0.5518  1.5970
  236MOL0     H31853   5.283   8.384   7.578 -1.1591 -0.9072  0.9817
  236MOL0     H31854   5.386   8.379   7.867 -0.3766  0.3934 -0.3006
  236MOL0     H31855   5.348   8.233   7.790 -0.4254 -0.1181  3.2552
  236MOL0     H31856   5.713   8.308   7.589  0.6453  0.6559  0.1063
  236MOL0     H31857   5.056   8.172   7.308 -1.4243  3.3925 -2.5479
  236MOL0     H31858   4.997   8.092   7.104  0.6795 -0.8206  0.1325
  236MOL0     H31859   4.871   7.973   7.084 -3.8816  0.3723  1.6816
  236MOL0     H31860   4.831   8.145   7.085 -1.6427 -1.2559  1.8997
  237MOL0     O31861   0.940   3.816   3.811 -0.1159  0.1650 -0.1297
  237MOL0     C31862   0.888   3.710   3.772 -0.8492 -0.0268 -0.2718
  237MOL0     O31863   0.950   3.593   3.764  0.6128  0.0749 -0.4117
  237MOL0     C31864   1.090   3.584   3.772 -0.7602  1.0584 -0.1597
  237MOL0     C31865   1.141   3.467   3.828 -0.2372 -1.1124 -0.2251
  237MOL0     C31866   1.276   3.462   3.861 -0.1329  0.3250  0.8329
  237MOL0     C31867   1.371   3.561   3.817 -0.2699  0.6252 -0.8418
  237MOL0     O31868   1.505   3.562   3.847 -0.4276 -0.7179 -0.2287
  237MOL0     C31869   1.558   3.451   3.926  0.3180  0.4608  0.2450
  237MOL0     C31870   1.645   3.505   4.043 -0.1714 -0.2767 -0.0529
  237MOL0     C31871   1.787   3.437   4.061 -0.3323 -1.0561  0.7079
  237MOL0     C31872   1.872   3.434   3.937  0.2276 -0.9114  0.8038
  237MOL0     C31873   2.006   3.380   3.965 -1.2812  0.2236 -0.8464
  237MOL0     C31874   2.109   3.435   3.863 -0.6023 -0.7199 -0.4905
  237MOL0     C31875   2.248   3.368   3.878  0.4562 -0.9179 -0.6256
  237MOL0     C31876   2.316   3.399   4.010 -0.0128  0.3796  0.2073
  237MOL0     N31877   2.448   3.325   4.006  0.5429 -0.3689  0.4538
  237MOL0     C31878   2.550   3.332   3.922 -0.2095  0.2145 -0.0623
  237MOL0     C31879   2.651   3.268   3.990  0.1913  0.4096  0.8140
  237MOL0     C31880   2.789   3.266   3.937  0.5446 -0.9631 -0.7819
  237MOL0     C31881   2.863   3.399   3.932 -0.0531 -0.5307  0.3689
  237MOL0     C31882   3.003   3.375   3.883 -0.2311  1.4465 -0.4631
  237MOL0     C31883   3.076   3.266   3.960  0.1625  0.1052  0.1059
  237MOL0     O31884   3.210   3.265   3.920  0.5592 -0.1138 -0.2735
  237MOL0     C31885   3.291   3.165   3.969  0.4873  0.5984 -0.2703
  237MOL0     C31886   3.251   3.067   4.066  0.4106  0.0213  1.1975
  237MOL0     C31887   3.345   2.982   4.123 -1.1436 -0.2061  0.3406
  237MOL0     C31888   3.474   2.976   4.068  0.1400 -0.4779  0.1089
  237MOL0     C31889   3.568   2.870   4.100 -0.2574 -0.5273 -0.3539
  237MOL0     O31890   3.521   2.780   4.193  0.0254  0.2933  0.4054
  237MOL0     C31891   3.534   2.650   4.170  0.0958  0.5845  0.7361
  237MOL0     C31892   3.417   2.574   4.161 -0.5063 -0.2842  0.5118
  237MOL0     C31893   3.426   2.435   4.143 -0.1067  0.0561  0.9092
  237MOL0     C31894   3.541   2.370   4.128 -0.1254 -0.2209  0.1251
  237MOL0     O31895   3.546   2.237   4.112 -0.2335  0.2676 -0.0282
  237MOL0     C31896   3.617   2.186   3.997 -0.0463 -0.1479 -0.4441
  237MOL0     C31897   3.559   2.049   3.955  0.0066 -1.1108 -0.8566
  237MOL0     C31898   3.415   2.057   3.905  0.6743 -0.1123 -0.5767
  237MOL0     C31899   3.390   1.928   3.824  0.2868  0.5215  1.4863
  237MOL0     C31900   3.244   1.900   3.791  0.1351  0.3845  0.0027
  237MOL0     C31901   3.160   1.842   3.908  0.0557  0.2759  0.1651
  237MOL0     C31902   3.006   1.836   3.893 -0.5024 -0.4922  0.3359
  237MOL0     C31903   2.952   1.739   4.002 -0.1259 -0.7583 -0.0218
  237MOL0    Cl31904   2.769   1.725   3.972 -0.0151 -0.1833 -0.2136
  237MOL0     C31905   3.659   2.447   4.138 -0.4415  0.4780 -0.1639
  237MOL0     C31906   3.657   2.588   4.158  0.2946 -0.0786  0.7757
  237MOL0     O31907   3.678   2.869   4.050 -0.2322  0.3348  0.4429
  237MOL0     C31908   3.508   3.068   3.971  0.5168  0.3657 -0.3772
  237MOL0     C31909   3.419   3.161   3.926  0.1231  0.0196  0.5045
  237MOL0     N31910   2.610   3.220   4.112  0.4868  0.2593 -0.7751
  237MOL0     N31911   2.487   3.255   4.114 -0.2202 -0.4047 -0.5773
  237MOL0     C31912   1.317   3.662   3.740  0.2654 -0.2321  0.0424
  237MOL0     C31913   1.181   3.678   3.724  0.1494  0.2621 -1.2455
  237MOL0     C31914   0.738   3.711   3.770  0.0613  0.0689  1.2736
  237MOL0     C31915   0.675   3.588   3.743 -0.7723 -0.4883  0.2169
  237MOL0     C31916   0.536   3.566   3.723  0.8627 -0.1455 -0.0830
  237MOL0     C31917   0.453   3.681   3.732  0.0421 -0.4705  0.9708
  237MOL0     O31918   0.317   3.676   3.725  0.1064 -0.1931 -0.0575
  237MOL0     C31919   0.252   3.546   3.724 -0.3010 -0.2964 -1.0538
  237MOL0     C31920   0.112   3.571   3.788  0.1826  0.0973  0.0639
  237MOL0     C31921   0.116   3.635   3.933  0.4843 -0.0358  0.3951
  237MOL0     C31922  -0.010   3.602   4.004  0.0990  0.0374  0.3072
  237MOL0     C31923  -0.109   3.704   3.965  0.1987  0.0199 -0.6669
  237MOL0     C31924  -0.191   3.787   3.929 -0.5199 -0.2175  0.1327
  237MOL0     C31925   0.524   3.804   3.746 -0.3444 -0.5994 -0.1751
  237MOL0     C31926   0.659   3.828   3.758 -0.8621  0.1205 -0.1895
  237MOL0     C31927   0.714   3.973   3.762 -0.7412 -0.3194 -0.2302
  237MOL0     H31928   1.073   3.392   3.866  0.8760 -1.5207  1.0371
  237MOL0     H31929   1.295   3.385   3.935  0.4381 -0.7173 -0.3504
  237MOL0     H31930   1.484   3.394   3.982  0.7738  0.5494  0.9510
  237MOL0     H31931   1.622   3.384   3.867  2.4750  0.0980  2.8222
  237MOL0     H31932   1.588   3.478   4.132  0.9236  1.8529  1.3935
  237MOL0     H31933   1.662   3.611   4.019 -0.1086 -0.2060  0.2953
  237MOL0     H31934   1.790   3.340   4.110  0.1519 -0.8670  1.0600
  237MOL0     H31935   1.837   3.497   4.138  0.1821 -2.0125  1.1234
  237MOL0     H31936   1.836   3.387   3.845 -1.2073  0.0934  0.8246
  237MOL0     H31937   1.879   3.538   3.905  3.4167 -0.8482  1.3652
  237MOL0     H31938   2.039   3.418   4.062  0.4419  0.7534 -1.6043
  237MOL0     H31939   2.004   3.271   3.974  3.4682 -0.0584 -0.9315
  237MOL0     H31940   2.068   3.424   3.762  1.1586 -0.1884 -1.3106
  237MOL0     H31941   2.121   3.544   3.872  0.0115 -0.8925  1.0907
  237MOL0     H31942   2.311   3.398   3.794 -0.1618 -1.9206 -1.4633
  237MOL0     H31943   2.228   3.261   3.870 -1.4839 -0.6805  0.5831
  237MOL0     H31944   2.348   3.504   4.012  1.0098  0.0765  0.1449
  237MOL0     H31945   2.257   3.364   4.095 -1.9466 -0.3840 -1.3628
  237MOL0     H31946   2.554   3.376   3.823  1.3624 -0.2255 -0.2206
  237MOL0     H31947   2.829   3.207   4.020 -2.2931 -1.0193  0.6458
  237MOL0     H31948   2.788   3.214   3.841  4.8147 -1.4198 -0.7950
  237MOL0     H31949   2.815   3.472   3.867  1.8198  1.4015  1.0156
  237MOL0     H31950   2.865   3.450   4.029 -0.3582  2.2278 -0.9779
  237MOL0     H31951   3.058   3.469   3.895 -1.7875  2.4253 -0.6595
  237MOL0     H31952   2.992   3.363   3.774 -0.4201  1.2765 -0.4264
  237MOL0     H31953   3.041   3.164   3.940  1.5915 -0.8772  2.2289
  237MOL0     H31954   3.058   3.283   4.067  0.4899 -2.4504  0.6389
  237MOL0     H31955   3.149   3.058   4.102  1.0373  3.0930  4.2847
  237MOL0     H31956   3.312   2.908   4.195 -1.7250  1.3348  1.7276
  237MOL0     H31957   3.316   2.610   4.177 -1.0929 -1.3677 -0.5118
  237MOL0     H31958   3.334   2.379   4.154 -0.9956  0.9833 -1.2841
  237MOL0     H31959   3.616   2.265   3.921 -1.6843  0.5291  0.2305
  237MOL0     H31960   3.721   2.181   4.028  0.0942  0.6192 -0.7643
  237MOL0     H31961   3.621   2.021   3.869 -0.5711  2.8162 -2.7984
  237MOL0     H31962   3.572   1.977   4.036  1.1094  0.6350  0.5888
  237MOL0     H31963   3.349   2.063   3.992 -0.8567  0.4917 -1.7144
  237MOL0     H31964   3.410   2.141   3.834 -1.8244 -0.0540 -0.4240
  237MOL0     H31965   3.428   1.841   3.879 -2.7032 -0.0456  2.8552
  237MOL0     H31966   3.447   1.938   3.731  0.2162 -1.7434  1.1286
  237MOL0     H31967   3.237   1.824   3.713 -2.3665  2.2229 -1.7684
  237MOL0     H31968   3.207   1.994   3.747  0.7580  0.9998  0.7747
  237MOL0     H31969   3.189   1.739   3.933 -0.0388  0.7409  2.3815
  237MOL0     H31970   3.188   1.908   3.990 -0.4926  1.4990 -0.5943
  237MOL0     H31971   2.973   1.808   3.793 -0.3059  2.8802 -0.8241
  237MOL0     H31972   2.961   1.933   3.919  1.7129 -0.1727  3.5864
  237MOL0     H31973   2.988   1.636   3.992 -3.3851 -1.9017 -1.3731
  237MOL0     H31974   2.969   1.790   4.097  0.5127 -1.0971  0.0509
  237MOL0     H31975   3.751   2.391   4.148 -3.0216 -4.5094 -0.9115
  237MOL0     H31976   3.748   2.647   4.157  0.8752 -0.9463  1.2784
  237MOL0     H31977   3.609   3.061   3.932  0.3745  1.1530 -0.9008
  237MOL0     H31978   3.451   3.229   3.848  4.2241 -0.6124  1.4177
  237MOL0     H31979   1.383   3.743   3.709  1.4884 -0.3903  1.9914
  237MOL0     H31980   1.140   3.765   3.674 -2.8477 -0.8678 -0.9989
  237MOL0     H31981   0.738   3.500   3.748  1.6806  1.2293  1.6210
  237MOL0     H31982   0.510   3.463   3.704  1.8998 -0.4116 -0.1066
  237MOL0     H31983   0.303   3.475   3.791 -2.3184  1.4341  2.6132
  237MOL0     H31984   0.246   3.505   3.622  1.9890  0.3701 -1.4919
  237MOL0     H31985   0.060   3.475   3.788  0.3334  0.0013  1.3302
  237MOL0     H31986   0.058   3.641   3.723  0.4406  0.2880  0.0527
  237MOL0     H31987   0.122   3.743   3.918 -2.3911 -0.0345 -1.5329
  237MOL0     H31988   0.201   3.595   3.989  1.0663  0.3043 -0.2346
  237MOL0     H31989  -0.043   3.500   3.986  0.4467 -0.2308  1.1470
  237MOL0     H31990   0.003   3.599   4.113 -1.0724 -0.4169  0.4451
  237MOL0     H31991  -0.274   3.849   3.903 -0.4300 -0.0820  0.1695
  237MOL0     H31992   0.468   3.896   3.733  0.1753 -0.4207 -1.1959
  237MOL0     H31993   0.639   4.049   3.740 -0.3386 -0.4549 -2.3126
  237MOL0     H31994   0.751   3.997   3.862 -0.6034  1.8408 -0.7683
  237MOL0     H31995   0.795   3.983   3.689 -1.3311 -1.6496 -1.1001
  238MOL0     O31996   8.993   1.759  10.496  0.3788  0.3113  0.9945
  238MOL0     C31997   9.030   1.748  10.382  0.2329 -0.2647 -0.3315
  238MOL0     O31998   8.983   1.656  10.293  0.3548  0.3338  0.1902
  238MOL0     C31999   8.851   1.617  10.312 -0.5961 -0.1207  0.1314
  238MOL0     C32000   8.745   1.707  10.298 -0.1872 -0.0913  0.5087
  238MOL0     C32001   8.612   1.671  10.333 -0.1999  0.4812 -0.2469
  238MOL0     C32002   8.589   1.540  10.386 -0.5953 -0.1199 -0.4276
  238MOL0     O32003   8.461   1.510  10.420 -0.6038  0.8939  0.2676
  238MOL0     C32004   8.429   1.448  10.552  0.4747  0.3775 -0.2040
  238MOL0     C32005   8.468   1.544  10.672 -0.5697 -1.3138 -0.1642
  238MOL0     C32006   8.400   1.678  10.660  0.0063 -0.3129 -0.3190
  238MOL0     C32007   8.420   1.759  10.788  0.2449  0.1024  0.0755
  238MOL0     C32008   8.372   1.711  10.919  0.2667 -0.5015 -0.2445
  238MOL0     C32009   8.357   1.816  11.028  0.9286  0.2458  0.1061
  238MOL0     C32010   8.233   1.900  10.996 -0.2581  0.0269  0.4993
  238MOL0     C32011   8.198   1.982  11.122 -0.6552 -0.1117  0.0282
  238MOL0     N32012   8.077   2.055  11.110  0.2494 -0.2408 -0.1380
  238MOL0     C32013   7.945   2.015  11.078 -1.3264 -0.0495 -0.1001
  238MOL0     C32014   7.868   2.124  11.094  0.2456 -0.7435 -0.2733
  238MOL0     C32015   7.723   2.126  11.064  0.5713  0.8557 -0.2922
  238MOL0     C32016   7.691   2.125  10.916  0.3549  0.2559 -0.1026
  238MOL0     C32017   7.545   2.090  10.877  0.4217 -0.0747  0.3412
  238MOL0     C32018   7.433   2.162  10.943  0.6181  0.6811  0.2446
  238MOL0     O32019   7.460   2.302  10.957 -0.5993  0.2449  0.4759
  238MOL0     C32020   7.358   2.397  10.933  0.1616  0.3657  0.2762
  238MOL0     C32021   7.228   2.370  10.976  0.5042 -0.5319  0.2046
  238MOL0     C32022   7.128   2.467  10.961 -0.3015  0.8052 -0.3968
  238MOL0     C32023   7.160   2.594  10.902  0.7777  0.1093  1.0161
  238MOL0     C32024   7.059   2.704  10.879  0.1194 -0.1308  0.5136
  238MOL0     O32025   6.924   2.676  10.905 -0.3147 -0.5717  0.0739
  238MOL0     C32026   6.828   2.758  10.853 -0.0590  0.4097  0.2060
  238MOL0     C32027   6.820   2.778  10.719 -0.2966  0.5692 -0.1707
  238MOL0     C32028   6.712   2.835  10.656 -0.0457 -0.0601  0.3158
  238MOL0     C32029   6.597   2.876  10.729  0.0619 -0.4973  0.9941
  238MOL0     O32030   6.479   2.912  10.677 -0.3401  0.3434 -0.0409
  238MOL0     C32031   6.458   2.884  10.539 -0.0484 -0.6907  0.1612
  238MOL0     C32032   6.340   2.958  10.492  0.0766  0.5237 -0.1385
  238MOL0     C32033   6.211   2.875  10.504 -1.0894  0.0182  0.0414
  238MOL0     C32034   6.094   2.955  10.439 -0.3054 -1.0451  0.4103
  238MOL0     C32035   6.099   2.952  10.284 -0.0474  0.0377  0.4965
  238MOL0     C32036   5.986   3.008  10.204  0.1814 -0.3208 -0.2434
  238MOL0     C32037   5.850   2.929  10.199 -0.2205  0.3657 -0.1142
  238MOL0     C32038   5.747   2.997  10.103  0.3117  0.7555 -0.2669
  238MOL0    Cl32039   5.612   2.889  10.076 -0.1024  0.0943 -0.2550
  238MOL0     C32040   6.599   2.854  10.864 -0.2271  0.1571  0.0577
  238MOL0     C32041   6.714   2.793  10.934 -0.5782  0.6074  0.9395
  238MOL0     O32042   7.093   2.817  10.838 -0.6151  0.4756  1.1695
  238MOL0     C32043   7.296   2.611  10.862  0.3679  0.1749  0.6004
  238MOL0     C32044   7.391   2.512  10.862  0.4596 -0.5367 -0.0212
  238MOL0     N32045   7.943   2.231  11.131  0.4911 -0.0387  0.1972
  238MOL0     N32046   8.066   2.186  11.142  0.2924 -0.9943  0.4439
  238MOL0     C32047   8.695   1.446  10.387 -0.2450 -0.7307 -0.5878
  238MOL0     C32048   8.825   1.488  10.349  0.0139 -0.1041 -0.2474
  238MOL0     C32049   9.137   1.836  10.332 -0.2896 -1.3018  0.1762
  238MOL0     C32050   9.139   1.854  10.192  0.1282 -0.1953  0.4128
  238MOL0     C32051   9.232   1.937  10.135 -0.8978  0.2711 -0.3511
  238MOL0     C32052   9.328   2.002  10.211 -0.9944  0.0435 -0.0929
  238MOL0     O32053   9.417   2.072  10.133 -0.0588 -0.4329 -0.1075
  238MOL0     C32054   9.535   2.131  10.194  0.2949  0.6682  0.2502
  238MOL0     C32055   9.625   2.215  10.098 -0.0342  0.0489  0.5119
  238MOL0     C32056   9.738   2.149  10.019 -0.2043  0.7114 -0.4075
  238MOL0     C32057   9.855   2.072  10.100  0.4358 -0.2199 -1.1310
  238MOL0     C32058   9.935   1.998   9.999 -0.3400  0.9735  0.2340
  238MOL0     C32059   9.999   1.942   9.909  0.2337  0.6602 -0.9067
  238MOL0     C32060   9.325   1.986  10.349 -0.7138  0.3569 -0.4721
  238MOL0     C32061   9.231   1.908  10.415 -0.2116 -0.1431 -0.6524
  238MOL0     C32062   9.256   1.904  10.564 -0.3336  0.1154  0.5121
  238MOL0     H32063   8.770   1.807  10.264  2.3027 -0.5691  0.7955
  238MOL0     H32064   8.531   1.741  10.315  1.2969  1.5731 -3.5529
  238MOL0     H32065   8.322   1.432  10.567  0.7135 -0.6451  0.5417
  238MOL0     H32066   8.480   1.351  10.556  2.6830  1.5122  1.0817
  238MOL0     H32067   8.576   1.564  10.670 -1.1742  2.5994  0.1404
  238MOL0     H32068   8.444   1.490  10.764 -0.8851  1.6429  1.6008
  238MOL0     H32069   8.293   1.673  10.639  0.0369  1.2062 -0.9547
  238MOL0     H32070   8.444   1.729  10.574 -1.0751 -1.4095 -1.5571
  238MOL0     H32071   8.527   1.780  10.796  1.0627 -2.9638 -1.3082
  238MOL0     H32072   8.370   1.852  10.761 -0.1392 -0.6435 -1.9286
  238MOL0     H32073   8.283   1.646  10.921 -1.8436  2.2321  0.0942
  238MOL0     H32074   8.456   1.652  10.958 -0.4370  0.4103  2.8770
  238MOL0     H32075   8.353   1.762  11.124 -1.9045 -0.5902 -0.3846
  238MOL0     H32076   8.449   1.875  11.028  0.3100  1.2282 -0.6540
  238MOL0     H32077   8.149   1.835  10.967  0.4111 -0.6825  0.1134
  238MOL0     H32078   8.248   1.971  10.914  0.0372 -1.2230 -0.5728
  238MOL0     H32079   8.183   1.900  11.193 -0.8502 -0.4471 -0.3967
  238MOL0     H32080   8.274   2.048  11.164 -2.8753  2.3420  0.4951
  238MOL0     H32081   7.913   1.913  11.060 -1.6826 -0.1801  1.1210
  238MOL0     H32082   7.684   2.038  11.116 -0.4224  2.6702  2.2395
  238MOL0     H32083   7.680   2.210  11.119  3.8968  1.4051  1.6866
  238MOL0     H32084   7.706   2.227  10.880 -2.9279  1.4585  1.5300
  238MOL0     H32085   7.756   2.058  10.859  1.9629  1.7641 -0.1528
  238MOL0     H32086   7.520   1.984  10.888 -1.4439  0.1400 -1.1646
  238MOL0     H32087   7.542   2.115  10.770 -0.2147  5.1625  1.3200
  238MOL0     H32088   7.400   2.122  11.039 -1.0922  0.1049 -0.5434
  238MOL0     H32089   7.342   2.148  10.885  0.7604 -1.5022  0.4709
  238MOL0     H32090   7.213   2.281  11.035  1.5559 -1.6524 -1.1531
  238MOL0     H32091   7.024   2.436  10.972 -0.2805  0.2742 -1.5859
  238MOL0     H32092   6.896   2.732  10.657 -1.2364 -2.3946  0.6824
  238MOL0     H32093   6.708   2.849  10.548 -1.1816  1.4063  0.5181
  238MOL0     H32094   6.538   2.897  10.465  0.9015 -0.0461  1.2796
  238MOL0     H32095   6.427   2.779  10.542 -2.9440  0.0772  0.1226
  238MOL0     H32096   6.322   3.048  10.551  2.9867  0.7404  0.5826
  238MOL0     H32097   6.354   2.981  10.386 -0.8776  7.0128  0.7427
  238MOL0     H32098   6.227   2.778  10.456  1.1774 -0.0873  0.8782
  238MOL0     H32099   6.187   2.865  10.610  0.2129  1.5306  0.5085
  238MOL0     H32100   6.093   3.060  10.472  0.7307 -0.0450 -2.4818
  238MOL0     H32101   5.996   2.913  10.465 -0.9479  0.0219 -0.1965
  238MOL0     H32102   6.120   2.847  10.263 -1.7637 -0.6567  2.0148
  238MOL0     H32103   6.178   3.018  10.246 -2.3778  1.9174 -1.4315
  238MOL0     H32104   5.963   3.112  10.227  3.1886  0.7018 -1.4197
  238MOL0     H32105   6.018   3.025  10.100 -0.9461 -0.3680 -0.6101
  238MOL0     H32106   5.806   2.921  10.299  0.9742  0.1960  0.4085
  238MOL0     H32107   5.864   2.831  10.152  1.5154  1.5770 -2.2971
  238MOL0     H32108   5.699   3.088  10.138 -1.5094  1.0300 -3.1437
  238MOL0     H32109   5.800   3.018  10.010  1.6449 -3.7351 -0.7937
  238MOL0     H32110   6.512   2.886  10.921 -1.4546 -1.1843 -1.0069
  238MOL0     H32111   6.705   2.753  11.035 -1.4642 -1.5539  0.0796
  238MOL0     H32112   7.325   2.707  10.821  4.4227 -1.9125 -2.1137
  238MOL0     H32113   7.495   2.517  10.833  0.6242 -1.2210  0.4051
  238MOL0     H32114   8.684   1.347  10.429 -2.0593 -0.3252 -0.0050
  238MOL0     H32115   8.902   1.413  10.364  0.2102 -0.1991 -1.6087
  238MOL0     H32116   9.054   1.814  10.137 -0.2600 -0.6626  1.3418
  238MOL0     H32117   9.225   1.960  10.029 -2.1197  0.7161 -0.1903
  238MOL0     H32118   9.599   2.053  10.234  1.5540  1.8615  0.6576
  238MOL0     H32119   9.517   2.190  10.284  2.7689 -0.8641  1.8523
  238MOL0     H32120   9.674   2.291  10.160  1.8209  0.4484 -1.3183
  238MOL0     H32121   9.563   2.263  10.022  1.4749 -1.5199 -1.8539
  238MOL0     H32122   9.780   2.227   9.955 -1.3221  0.8484 -0.9981
  238MOL0     H32123   9.697   2.073   9.953  1.0129  1.3844 -2.0033
  238MOL0     H32124   9.905   2.149  10.159 -0.5802 -0.3214 -0.1127
  238MOL0     H32125   9.822   2.005  10.180  5.2491 -1.3984  0.2033
  238MOL0     H32126  10.057   1.892   9.835  0.0747  1.6004 -1.6812
  238MOL0     H32127   9.409   2.030  10.402  0.3106  0.7642 -2.3402
  238MOL0     H32128   9.315   1.819  10.597 -3.6644 -1.9944  1.5224
  238MOL0     H32129   9.310   1.994  10.594 -1.7353  1.3414 -0.4335
  238MOL0     H32130   9.158   1.905  10.614 -0.7059  1.3471 -0.1780
  239MOL0     O32131   3.040   8.367   1.505  0.0216  0.5360 -0.0438
  239MOL0     C32132   3.047   8.309   1.398  0.3024 -0.8919 -0.3400
  239MOL0     O32133   3.160   8.299   1.321 -0.5204  0.3835  0.2680
  239MOL0     C32134   3.269   8.395   1.326  0.4017  0.2845  0.3766
  239MOL0     C32135   3.250   8.528   1.354  0.9466 -1.1245  0.8120
  239MOL0     C32136   3.359   8.618   1.351  0.6329 -0.0630 -0.8262
  239MOL0     C32137   3.488   8.566   1.323  0.1845 -0.1941  1.1091
  239MOL0     O32138   3.603   8.641   1.292  0.6940 -0.8536 -0.0957
  239MOL0     C32139   3.622   8.763   1.370  0.0923 -0.0378  1.0775
  239MOL0     C32140   3.763   8.804   1.327  0.2260  0.5558  0.3644
  239MOL0     C32141   3.794   8.931   1.402 -0.0858 -0.8090 -1.1316
  239MOL0     C32142   3.931   8.998   1.376  0.7766  0.3497 -0.6188
  239MOL0     C32143   4.016   8.976   1.505 -0.1885 -0.2482  1.2419
  239MOL0     C32144   4.164   9.017   1.487  0.6318 -0.2395  0.8530
  239MOL0     C32145   4.244   9.041   1.618 -0.1630  0.5036 -0.7807
  239MOL0     C32146   4.284   8.920   1.712  0.0044  0.2205  0.3864
  239MOL0     N32147   4.388   8.823   1.660  0.1094 -0.6153 -0.1306
  239MOL0     C32148   4.404   8.759   1.542 -0.5309  1.0348  0.2275
  239MOL0     C32149   4.535   8.699   1.541  0.3123 -0.4518 -0.8046
  239MOL0     C32150   4.592   8.614   1.429 -0.2392  0.7185  0.6984
  239MOL0     C32151   4.701   8.517   1.490  0.4911  0.3569  0.2813
  239MOL0     C32152   4.840   8.581   1.490  0.7899  0.0500  0.0776
  239MOL0     C32153   4.939   8.491   1.556 -0.1732 -0.8799  0.0946
  239MOL0     O32154   5.066   8.567   1.555 -0.0916  0.1140 -0.3746
  239MOL0     C32155   5.194   8.521   1.562 -0.0567  0.0617  0.1418
  239MOL0     C32156   5.294   8.613   1.541 -0.1673 -0.1338 -0.2687
  239MOL0     C32157   5.425   8.561   1.539  0.3694 -0.3816 -0.1879
  239MOL0     C32158   5.456   8.424   1.541 -0.4260 -1.6083  0.0369
  239MOL0     C32159   5.590   8.384   1.542 -0.0667 -0.0074  0.4196
  239MOL0     O32160   5.629   8.262   1.596  0.2203 -0.7353 -0.9743
  239MOL0     C32161   5.751   8.207   1.579  0.5080  0.0036 -0.5613
  239MOL0     C32162   5.871   8.262   1.637  0.2195 -0.4395  0.5848
  239MOL0     C32163   5.994   8.201   1.624 -0.5023  0.0525  0.2651
  239MOL0     C32164   6.002   8.079   1.555  0.0570  0.3042 -0.1737
  239MOL0     O32165   6.113   7.998   1.550 -0.3070  0.2118  0.3345
  239MOL0     C32166   6.239   8.024   1.612  0.6695  0.5205 -0.3877
  239MOL0     C32167   6.331   7.904   1.610  0.1014  0.6825  0.7152
  239MOL0     C32168   6.440   7.921   1.721  0.3459  0.2808  0.1799
  239MOL0     C32169   6.534   7.793   1.704 -0.1347 -1.1958  0.3011
  239MOL0     C32170   6.658   7.805   1.787 -1.0835  0.5703  0.7573
  239MOL0     C32171   6.759   7.691   1.748  0.5391  0.0192  0.6572
  239MOL0     C32172   6.893   7.711   1.806 -0.8106 -0.4732 -0.5915
  239MOL0     C32173   6.966   7.580   1.834 -0.6016  0.5156  0.1018
  239MOL0    Cl32174   7.136   7.609   1.882  0.1596  0.0306  0.3276
  239MOL0     C32175   5.887   8.023   1.493  0.1436 -0.3407 -0.1738
  239MOL0     C32176   5.767   8.093   1.503  0.1400 -0.7834 -0.6039
  239MOL0     O32177   5.671   8.461   1.481 -0.3177  0.2736  0.3898
  239MOL0     C32178   5.353   8.335   1.576  0.0377 -0.4393  0.3233
  239MOL0     C32179   5.221   8.380   1.582 -0.5171 -0.4558  0.4470
  239MOL0     N32180   4.590   8.745   1.657 -0.4498 -0.4402  0.2473
  239MOL0     N32181   4.507   8.817   1.722  0.4689 -0.4977  0.2070
  239MOL0     C32182   3.506   8.436   1.287  0.0937  0.0491 -0.5100
  239MOL0     C32183   3.398   8.359   1.277  0.0064  0.9571  0.4635
  239MOL0     C32184   2.916   8.276   1.340 -0.2642 -0.1833  0.4195
  239MOL0     C32185   2.897   8.267   1.201  0.5404  0.0774  0.2543
  239MOL0     C32186   2.773   8.234   1.148 -0.2791  0.7703  0.8378
  239MOL0     C32187   2.665   8.207   1.229 -0.2894 -0.4735 -0.6511
  239MOL0     O32188   2.543   8.203   1.156 -0.5941  0.7421  0.2127
  239MOL0     C32189   2.415   8.202   1.220 -0.0240  1.3092  0.5651
  239MOL0     C32190   2.299   8.165   1.125 -0.2767 -0.1219 -0.6350
  239MOL0     C32191   2.312   8.027   1.055  0.3947  0.4042 -0.7143
  239MOL0     C32192   2.332   7.906   1.157  0.2336  0.0607  0.4281
  239MOL0     C32193   2.357   7.780   1.083  0.4391 -0.1429  0.3593
  239MOL0     C32194   2.372   7.682   1.017  1.0748 -0.5694  0.6042
  239MOL0     C32195   2.680   8.206   1.365  0.4404  0.2157 -0.7144
  239MOL0     C32196   2.803   8.232   1.419 -0.2946 -0.5798 -0.6639
  239MOL0     C32197   2.823   8.190   1.559 -0.0915 -0.1847 -0.4523
  239MOL0     H32198   3.154   8.575   1.373  0.5693 -1.3212 -0.4996
  239MOL0     H32199   3.345   8.724   1.364  1.1699  0.1923 -2.1671
  239MOL0     H32200   3.546   8.834   1.338  0.8410  0.4278  0.2637
  239MOL0     H32201   3.617   8.742   1.477  1.4197 -4.2574  0.5152
  239MOL0     H32202   3.757   8.822   1.219 -1.0925  3.0162  0.7692
  239MOL0     H32203   3.837   8.728   1.355  1.2292  0.9544 -1.0805
  239MOL0     H32204   3.778   8.935   1.511 -0.0323 -1.2959 -1.1031
  239MOL0     H32205   3.722   9.002   1.359  0.1348  0.2075  0.1222
  239MOL0     H32206   3.978   8.942   1.293  0.5742  1.7085 -1.6853
  239MOL0     H32207   3.931   9.105   1.353  2.0184  1.1956  2.7528
  239MOL0     H32208   3.961   9.034   1.578 -0.9641  1.2798 -0.4759
  239MOL0     H32209   4.017   8.867   1.517 -2.2754 -0.3136  1.0871
  239MOL0     H32210   4.217   8.940   1.430  0.6119 -1.0417  1.8954
  239MOL0     H32211   4.171   9.110   1.430  4.1180 -1.5659 -1.2278
  239MOL0     H32212   4.184   9.116   1.670 -3.6003 -0.5620 -2.8971
  239MOL0     H32213   4.338   9.087   1.587 -1.0200  2.1620 -1.0291
  239MOL0     H32214   4.321   8.955   1.809 -2.0875 -0.3458  1.4489
  239MOL0     H32215   4.193   8.864   1.736 -1.4175  0.9753 -2.7435
  239MOL0     H32216   4.338   8.742   1.458 -1.2119  1.7896  0.5985
  239MOL0     H32217   4.509   8.558   1.386  0.9857 -3.1263  2.8308
  239MOL0     H32218   4.644   8.675   1.355  1.2060  0.0510  1.1152
  239MOL0     H32219   4.667   8.483   1.588  0.7845  1.7607  0.8989
  239MOL0     H32220   4.702   8.422   1.434 -1.5369 -2.7928  4.9765
  239MOL0     H32221   4.836   8.679   1.537 -1.2167 -1.4132  3.3616
  239MOL0     H32222   4.867   8.585   1.384 -0.3910 -1.4334 -0.3287
  239MOL0     H32223   4.954   8.401   1.495  1.7619  0.4360 -1.5094
  239MOL0     H32224   4.908   8.447   1.651  0.5689 -1.0464  0.2694
  239MOL0     H32225   5.275   8.719   1.524 -1.3958 -0.5614 -1.7890
  239MOL0     H32226   5.503   8.634   1.516 -0.5518  0.8216  0.3613
  239MOL0     H32227   5.865   8.357   1.690 -0.3870  0.2103 -0.6162
  239MOL0     H32228   6.086   8.250   1.655 -0.3710  0.6491 -0.9777
  239MOL0     H32229   6.289   8.109   1.565 -0.2685  0.7297 -1.0480
  239MOL0     H32230   6.224   8.048   1.717  1.5530 -3.3916  0.7852
  239MOL0     H32231   6.280   7.809   1.632  1.4794 -0.3888 -0.5422
  239MOL0     H32232   6.383   7.898   1.514 -0.6228 -0.2290  0.3587
  239MOL0     H32233   6.493   8.016   1.712  1.2276 -0.3965 -4.2216
  239MOL0     H32234   6.377   7.918   1.810  0.8397  3.0810  0.7167
  239MOL0     H32235   6.559   7.776   1.599 -2.7678  0.0841 -0.6000
  239MOL0     H32236   6.482   7.702   1.734 -1.8379 -0.3986 -0.1228
  239MOL0     H32237   6.630   7.805   1.893 -1.4891  2.3419  0.6915
  239MOL0     H32238   6.712   7.896   1.760 -0.1982  0.5829  2.4073
  239MOL0     H32239   6.710   7.599   1.782  1.2660 -0.0202  1.6596
  239MOL0     H32240   6.773   7.685   1.640 -0.4116  1.3896  0.4237
  239MOL0     H32241   6.875   7.776   1.893 -3.5587 -0.2654 -1.2149
  239MOL0     H32242   6.962   7.764   1.740 -0.5829  0.1770  0.1478
  239MOL0     H32243   6.909   7.517   1.903  0.0533  2.2259  2.3002
  239MOL0     H32244   6.970   7.526   1.739  1.4319  1.6765 -0.5316
  239MOL0     H32245   5.904   7.928   1.444 -0.7771 -1.5421  1.7034
  239MOL0     H32246   5.680   8.051   1.453  0.8068  0.3057 -2.8453
  239MOL0     H32247   5.369   8.234   1.612  1.5842 -0.3973 -0.1980
  239MOL0     H32248   5.150   8.302   1.606 -0.2329 -0.7137  0.4526
  239MOL0     H32249   3.610   8.408   1.269 -0.3187 -0.2354 -2.7414
  239MOL0     H32250   3.429   8.262   1.240 -0.8509 -0.0010  2.1207
  239MOL0     H32251   2.985   8.282   1.138 -0.5505  0.2648 -1.2729
  239MOL0     H32252   2.755   8.227   1.041 -0.9247 -5.3829  0.9529
  239MOL0     H32253   2.392   8.300   1.261  0.8962  1.5883  0.4358
  239MOL0     H32254   2.408   8.124   1.297  0.0568 -0.3591 -1.0244
  239MOL0     H32255   2.290   8.242   1.048  1.7486  0.5427 -0.2613
  239MOL0     H32256   2.203   8.166   1.177  0.5298  0.4251  0.9101
  239MOL0     H32257   2.398   8.026   0.988  0.6275 -2.3373 -0.5066
  239MOL0     H32258   2.215   8.015   1.005  0.2635 -0.2164 -0.3269
  239MOL0     H32259   2.410   7.927   1.231  2.4018 -2.2760 -1.0166
  239MOL0     H32260   2.238   7.894   1.210  0.1315 -0.7090  0.0855
  239MOL0     H32261   2.377   7.591   0.961 -0.3829  0.1108 -0.7177
  239MOL0     H32262   2.596   8.176   1.427  1.2541  1.3005  0.9939
  239MOL0     H32263   2.831   8.282   1.618  0.5908  0.9551 -2.2148
  239MOL0     H32264   2.747   8.119   1.592  0.5001 -0.3872  0.5014
  239MOL0     H32265   2.918   8.135   1.564  0.2772  0.5371  0.9065
  240MOL0     O32266   1.415   0.373   7.856 -0.1166  0.2480  0.2159
  240MOL0     C32267   1.325   0.342   7.787  0.7802 -0.4923  0.0606
  240MOL0     O32268   1.336   0.251   7.677  0.2284 -0.3106 -0.4345
  240MOL0     C32269   1.460   0.219   7.638 -0.4538 -0.6566 -0.1591
  240MOL0     C32270   1.483   0.083   7.612  0.1613  0.1191  0.4430
  240MOL0     C32271   1.610   0.034   7.583  0.3341  0.1718  0.8005
  240MOL0     C32272   1.719   0.123   7.563 -1.2560  0.5385  0.0987
  240MOL0     O32273   1.843   0.077   7.519  1.0492 -0.5091 -0.1266
  240MOL0     C32274   1.961   0.149   7.554 -0.4791  0.7231 -0.3207
  240MOL0     C32275   2.009   0.219   7.429 -0.3197  0.3023 -0.5142
  240MOL0     C32276   2.145   0.305   7.475 -0.0751  0.3600  0.1050
  240MOL0     C32277   2.158   0.390   7.344  0.2621 -0.2883 -0.3791
  240MOL0     C32278   2.255   0.517   7.362  1.1138 -0.4090  0.7566
  240MOL0     C32279   2.390   0.493   7.423  0.0501  0.2003 -0.6685
  240MOL0     C32280   2.468   0.400   7.331 -0.2021  0.3624  0.3564
  240MOL0     C32281   2.614   0.378   7.376  0.5589 -0.2857  0.3090
  240MOL0     N32282   2.631   0.287   7.491  0.3487  0.3534  1.1397
  240MOL0     C32283   2.723   0.306   7.585 -0.4397 -0.5437  0.1686
  240MOL0     C32284   2.737   0.188   7.655  0.1032  0.9080  0.3885
  240MOL0     C32285   2.819   0.160   7.779  0.4548 -0.6372 -0.1471
  240MOL0     C32286   2.949   0.086   7.745 -0.2537 -0.1581  0.9991
  240MOL0     C32287   2.919  -0.063   7.727  0.3863 -0.0560  0.5328
  240MOL0     C32288   3.029  -0.125   7.647 -0.3905 -0.3728 -0.1641
  240MOL0     O32289   3.167  -0.077   7.687 -0.3936  0.2920  0.4133
  240MOL0     C32290   3.222  -0.137   7.796 -0.0006 -0.1759  0.5034
  240MOL0     C32291   3.209  -0.266   7.834  0.5827  0.1448  0.1617
  240MOL0     C32292   3.286  -0.321   7.935 -0.0574  0.3689 -0.6599
  240MOL0     C32293   3.373  -0.236   8.010 -1.0455  0.3292 -0.2616
  240MOL0     C32294   3.432  -0.288   8.136  0.5270 -0.8427  0.8128
  240MOL0     O32295   3.363  -0.394   8.196  0.3271 -0.5390  0.0756
  240MOL0     C32296   3.412  -0.443   8.313 -0.0171 -0.8035  0.7312
  240MOL0     C32297   3.342  -0.419   8.429  0.0832 -1.1371 -0.5815
  240MOL0     C32298   3.400  -0.461   8.553  0.7553  0.1202 -0.9306
  240MOL0     C32299   3.525  -0.526   8.557 -1.0435 -0.4268  0.7493
  240MOL0     O32300   3.600  -0.560   8.673  0.5368 -0.0523  0.3066
  240MOL0     C32301   3.556  -0.527   8.805 -0.5258  0.0334 -0.5021
  240MOL0     C32302   3.668  -0.568   8.905 -0.1563  0.0614  0.1452
  240MOL0     C32303   3.806  -0.495   8.881 -0.1795 -0.5927  0.0034
  240MOL0     C32304   3.876  -0.528   8.742  0.6913  0.0753 -0.0518
  240MOL0     C32305   4.019  -0.470   8.751 -0.9426 -0.5877 -0.6564
  240MOL0     C32306   4.100  -0.523   8.627  0.6221  0.2317  0.2077
  240MOL0     C32307   4.229  -0.436   8.608 -1.3234  0.1354  0.4105
  240MOL0     C32308   4.308  -0.405   8.742  0.6616  0.0025  0.4090
  240MOL0    Cl32309   4.360  -0.562   8.808 -0.3906  0.4678  0.3005
  240MOL0     C32310   3.596  -0.551   8.438  0.2981  0.6287 -1.3901
  240MOL0     C32311   3.533  -0.512   8.320  0.0330  0.2546 -0.4207
  240MOL0     O32312   3.533  -0.229   8.182  0.0661 -0.5575  0.2483
  240MOL0     C32313   3.397  -0.108   7.973 -0.2172  0.0396  0.9518
  240MOL0     C32314   3.318  -0.054   7.864 -0.3593 -0.0079 -1.2817
  240MOL0     N32315   2.641   0.098   7.597  0.1786  0.2936  0.2905
  240MOL0     N32316   2.574   0.165   7.505  0.0424  0.2625  0.1955
  240MOL0     C32317   1.700   0.260   7.587  0.2643 -0.0525  0.6553
  240MOL0     C32318   1.572   0.306   7.626 -0.1884 -0.3039 -0.8323
  240MOL0     C32319   1.182   0.383   7.810  0.4580  0.7825 -0.5861
  240MOL0     C32320   1.087   0.313   7.729  0.0628 -1.5300  0.1053
  240MOL0     C32321   0.951   0.336   7.750  0.0134 -0.2390  0.6341
  240MOL0     C32322   0.906   0.420   7.854  0.3954  0.8002  0.4820
  240MOL0     O32323   0.775   0.451   7.870 -0.1233 -0.7746 -0.3469
  240MOL0     C32324   0.677   0.416   7.771 -0.0156  0.6198  0.6299
  240MOL0     C32325   0.698   0.500   7.646  1.0294 -0.0362 -0.1041
  240MOL0     C32326   0.622   0.631   7.650 -0.4432  0.0702 -0.2355
  240MOL0     C32327   0.500   0.645   7.547  0.6793  1.1064  0.8465
  240MOL0     C32328   0.418   0.526   7.559  0.2199 -0.5380  0.5626
  240MOL0     C32329   0.335   0.441   7.572 -0.0411  0.7274 -0.7367
  240MOL0     C32330   0.994   0.469   7.937  0.2591  0.0740  0.3510
  240MOL0     C32331   1.135   0.455   7.920  0.3311  0.3450  0.4923
  240MOL0     C32332   1.239   0.533   8.006  0.5607  0.9649 -0.1614
  240MOL0     H32333   1.393   0.028   7.638 -0.0681  0.9076  1.3319
  240MOL0     H32334   1.631  -0.071   7.570 -0.3932  0.1865 -0.6972
  240MOL0     H32335   1.956   0.217   7.640 -2.2560  0.6092 -0.3010
  240MOL0     H32336   2.043   0.082   7.582  0.4783  1.8936 -0.2426
  240MOL0     H32337   1.933   0.290   7.394 -0.6713 -1.0635 -2.6982
  240MOL0     H32338   2.031   0.144   7.353  0.8802 -0.3052  0.3996
  240MOL0     H32339   2.232   0.244   7.498  0.6802  1.3494 -0.0609
  240MOL0     H32340   2.115   0.373   7.556 -0.5321  0.6719 -0.3110
  240MOL0     H32341   2.208   0.328   7.270  2.9981  1.1403  0.1666
  240MOL0     H32342   2.067   0.420   7.291  1.3464  0.3689 -1.9434
  240MOL0     H32343   2.274   0.565   7.266  0.7941 -2.5530 -0.4488
  240MOL0     H32344   2.207   0.597   7.419  0.1917  0.5210 -1.2592
  240MOL0     H32345   2.433   0.593   7.439 -0.9043  0.3150  1.4912
  240MOL0     H32346   2.391   0.454   7.525 -1.1369 -3.1408 -1.7950
  240MOL0     H32347   2.462   0.437   7.228 -1.7411 -2.4235 -0.6654
  240MOL0     H32348   2.409   0.310   7.313  2.0610 -0.6109 -3.3184
  240MOL0     H32349   2.672   0.334   7.295 -1.9329 -0.0162 -1.7640
  240MOL0     H32350   2.648   0.478   7.406  1.6906 -0.3895 -0.5624
  240MOL0     H32351   2.787   0.390   7.607 -0.6248 -0.3303 -0.0986
  240MOL0     H32352   2.844   0.253   7.831  0.3157 -1.6882  1.9168
  240MOL0     H32353   2.768   0.099   7.855 -0.6341  1.3179  0.7661
  240MOL0     H32354   3.007   0.120   7.659  0.4634 -1.4324  0.9577
  240MOL0     H32355   3.011   0.113   7.832  2.5882  0.1653 -0.9959
  240MOL0     H32356   2.820  -0.079   7.683 -0.1927  4.1490 -0.1339
  240MOL0     H32357   2.925  -0.104   7.828 -0.9917  1.5409  1.2985
  240MOL0     H32358   3.013  -0.110   7.540  1.5540 -0.5284 -0.5064
  240MOL0     H32359   3.014  -0.233   7.654  0.0503 -0.4305 -0.0537
  240MOL0     H32360   3.141  -0.334   7.783  2.5976 -0.8536 -1.3056
  240MOL0     H32361   3.281  -0.427   7.959 -2.5614  0.4069 -0.7293
  240MOL0     H32362   3.248  -0.364   8.420  1.4871  1.1814 -2.1275
  240MOL0     H32363   3.343  -0.445   8.644  0.9207 -0.0523 -0.7954
  240MOL0     H32364   3.532  -0.421   8.819 -2.7266 -0.3600 -0.9009
  240MOL0     H32365   3.466  -0.587   8.825 -1.3258  1.3670  0.0697
  240MOL0     H32366   3.628  -0.559   9.006 -1.0839 -0.6773 -0.1339
  240MOL0     H32367   3.684  -0.676   8.896  1.9413  0.4571 -1.6018
  240MOL0     H32368   3.794  -0.387   8.892  1.6569 -0.5676  3.4791
  240MOL0     H32369   3.877  -0.522   8.960  0.4538  0.6418 -0.1213
  240MOL0     H32370   3.825  -0.477   8.660  2.3634  0.8198 -0.6783
  240MOL0     H32371   3.881  -0.637   8.733  0.8589  0.1953 -1.7516
  240MOL0     H32372   4.066  -0.494   8.847  0.4158  4.3386  0.1889
  240MOL0     H32373   4.007  -0.361   8.755 -2.8601 -0.7811 -0.3484
  240MOL0     H32374   4.137  -0.625   8.636  1.8433  0.5589 -0.8331
  240MOL0     H32375   4.047  -0.509   8.532  1.8442  2.4716 -0.2327
  240MOL0     H32376   4.199  -0.343   8.560 -3.3585 -0.6277  0.1290
  240MOL0     H32377   4.296  -0.493   8.542 -1.1107  1.9379 -0.9918
  240MOL0     H32378   4.378  -0.327   8.712 -2.5098  3.5566  1.5204
  240MOL0     H32379   4.245  -0.353   8.815 -0.1440 -0.1728 -0.1365
  240MOL0     H32380   3.694  -0.596   8.424 -0.0070 -0.2537 -0.7416
  240MOL0     H32381   3.581  -0.539   8.227 -0.8619  2.3919 -1.5736
  240MOL0     H32382   3.454  -0.039   8.034  1.1303  3.1283 -3.3199
  240MOL0     H32383   3.324   0.054   7.855  1.2399  0.1566  1.0075
  240MOL0     H32384   1.780   0.331   7.572  0.8370 -0.7641  0.2661
  240MOL0     H32385   1.567   0.413   7.640 -0.4023 -0.3675 -0.4007
  240MOL0     H32386   1.122   0.271   7.635 -0.4576 -0.6648 -0.5004
  240MOL0     H32387   0.880   0.292   7.680 -0.4982  1.0950  0.2662
  240MOL0     H32388   0.577   0.424   7.815 -0.0500 -0.7143  0.8452
  240MOL0     H32389   0.685   0.309   7.751 -2.6017  0.5049 -0.1209
  240MOL0     H32390   0.676   0.444   7.554  0.3631 -0.5598  0.3623
  240MOL0     H32391   0.803   0.529   7.632  1.2853 -0.6187  0.5163
  240MOL0     H32392   0.690   0.713   7.622  0.0243 -0.6625 -1.3296
  240MOL0     H32393   0.591   0.656   7.752  2.9383 -0.6401  1.1230
  240MOL0     H32394   0.441   0.734   7.571 -0.8132  0.8406 -1.4803
  240MOL0     H32395   0.532   0.656   7.443 -0.9987  3.2029  0.4975
  240MOL0     H32396   0.259   0.368   7.587  1.3348 -0.5495  0.3433
  240MOL0     H32397   0.965   0.544   8.010  0.2235  0.9076 -0.4920
  240MOL0     H32398   1.188   0.591   8.084 -0.6502  2.4256 -1.9613
  240MOL0     H32399   1.313   0.465   8.049 -0.9700 -1.2846 -0.9040
  240MOL0     H32400   1.285   0.604   7.937  1.0631  1.9038  1.0887
  241MOL0     O32401   0.361   7.142   9.431 -0.2548  0.0764  0.1249
  241MOL0     C32402   0.361   7.155   9.310  0.0052 -0.2650 -0.9628
  241MOL0     O32403   0.465   7.212   9.244 -0.3201  0.2442  0.5110
  241MOL0     C32404   0.574   7.254   9.308  0.1194 -0.7560 -0.2358
  241MOL0     C32405   0.562   7.362   9.398 -0.8137 -0.5358 -1.2817
  241MOL0     C32406   0.681   7.421   9.448  0.1708 -0.0870 -0.2412
  241MOL0     C32407   0.807   7.376   9.409 -0.0695 -0.1453 -0.8354
  241MOL0     O32408   0.926   7.442   9.454  0.4710  0.7750 -0.9124
  241MOL0     C32409   0.924   7.504   9.583  0.0765 -0.1349  0.2194
  241MOL0     C32410   1.064   7.516   9.616 -0.2304 -0.3919 -0.7308
  241MOL0     C32411   1.139   7.383   9.622 -0.0937  0.0460  0.5632
  241MOL0     C32412   1.293   7.400   9.643 -0.6141 -0.6356  0.3065
  241MOL0     C32413   1.335   7.468   9.778  0.1997 -0.2643 -0.8434
  241MOL0     C32414   1.320   7.392   9.908  0.3930 -0.2352 -0.1708
  241MOL0     C32415   1.404   7.441  10.028  0.3888  0.0383 -0.0337
  241MOL0     C32416   1.376   7.584  10.075  0.8271  0.8673  0.0762
  241MOL0     N32417   1.466   7.608  10.189 -0.3088 -0.8206  1.0547
  241MOL0     C32418   1.468   7.549  10.313  0.4486  1.1129  0.1191
  241MOL0     C32419   1.584   7.577  10.367 -0.0442 -0.7904 -0.3809
  241MOL0     C32420   1.635   7.529  10.500  0.0768 -0.2137  0.9337
  241MOL0     C32421   1.780   7.486  10.484  0.1697 -0.0620  0.2183
  241MOL0     C32422   1.789   7.360  10.391 -0.6526  0.1453  0.6192
  241MOL0     C32423   1.924   7.308  10.380 -0.5914 -0.3243  0.6178
  241MOL0     O32424   1.953   7.261  10.516 -0.4306  0.2718 -0.4113
  241MOL0     C32425   2.066   7.187  10.543  0.7323 -0.6791  0.4792
  241MOL0     C32426   2.162   7.153  10.454  0.7368  0.1112  0.1631
  241MOL0     C32427   2.276   7.074  10.496 -1.0787  0.9286 -0.5311
  241MOL0     C32428   2.278   7.028  10.630 -0.3477 -0.0003 -0.2732
  241MOL0     C32429   2.396   6.963  10.675 -0.5341 -0.6092  0.0079
  241MOL0     O32430   2.476   6.908  10.573 -0.4435 -1.1536 -0.0882
  241MOL0     C32431   2.588   6.828  10.620 -0.7033  0.2874  0.8202
  241MOL0     C32432   2.590   6.732  10.724 -0.0011  0.5457 -0.0999
  241MOL0     C32433   2.709   6.693  10.785  0.2849  0.3812  0.1293
  241MOL0     C32434   2.824   6.722  10.719 -0.8423  0.4376  0.6084
  241MOL0     O32435   2.945   6.676  10.782 -0.7091  0.3837 -0.2136
  241MOL0     C32436   3.061   6.661  10.698  0.3999 -0.0044  0.4073
  241MOL0     C32437   3.182   6.620  10.793  0.2050  1.0234  0.3598
  241MOL0     C32438   3.320   6.590  10.720 -0.3031 -0.5331 -0.1674
  241MOL0     C32439   3.419   6.494  10.790 -0.3432  0.1707  0.4170
  241MOL0     C32440   3.498   6.421  10.685  1.4940  0.7438 -0.6087
  241MOL0     C32441   3.609   6.338  10.746 -0.1447 -0.0093  0.0642
  241MOL0     C32442   3.669   6.246  10.641 -0.2011  1.0157 -0.0741
  241MOL0     C32443   3.803   6.189  10.684  0.6586 -0.3168  0.7112
  241MOL0    Cl32444   3.936   6.325  10.683 -0.3135  0.3461  0.3935
  241MOL0     C32445   2.827   6.799  10.605  0.2990 -0.3767  0.3188
  241MOL0     C32446   2.712   6.858  10.558 -1.1748  0.0845  0.5096
  241MOL0     O32447   2.409   6.952  10.798  0.2615 -0.0443  0.7352
  241MOL0     C32448   2.167   7.057  10.715  0.0865  0.3089 -0.2951
  241MOL0     C32449   2.056   7.131  10.667 -0.6233 -0.7955 -0.3701
  241MOL0     N32450   1.648   7.667  10.290  0.1952 -0.4915 -0.3578
  241MOL0     N32451   1.584   7.682  10.181  0.0499  0.5745 -0.1429
  241MOL0     C32452   0.817   7.271   9.321 -0.1888 -0.4188  0.7444
  241MOL0     C32453   0.701   7.209   9.269  0.3026  0.1472  0.7169
  241MOL0     C32454   0.252   7.095   9.240  0.5707  0.5596 -1.4536
  241MOL0     C32455   0.260   7.090   9.098  0.4804 -0.2967 -0.0403
  241MOL0     C32456   0.162   7.017   9.029  0.3140 -0.0080 -0.4779
  241MOL0     C32457   0.064   6.938   9.084 -0.0256  0.4261 -0.3531
  241MOL0     O32458   0.000   6.852   8.997  0.2416  0.1350 -0.1210
  241MOL0     C32459  -0.059   6.730   9.033  1.2280  0.0249 -0.3848
  241MOL0     C32460  -0.006   6.620   8.948 -0.8506 -0.2035  0.0629
  241MOL0     C32461   0.015   6.643   8.799 -0.0062 -0.1071  0.5381
  241MOL0     C32462  -0.116   6.632   8.729  0.9359  0.8413 -0.7296
  241MOL0     C32463  -0.098   6.650   8.582 -0.1765 -0.2263 -0.3204
  241MOL0     C32464  -0.083   6.669   8.462 -0.2510 -0.2252 -0.1941
  241MOL0     C32465   0.047   6.949   9.224 -0.5366 -0.4778  0.6535
  241MOL0     C32466   0.138   7.025   9.302 -0.4730  0.1772 -0.1549
  241MOL0     C32467   0.108   7.027   9.450  0.4949 -0.6684  0.7919
  241MOL0     H32468   0.473   7.412   9.435  0.2554  0.6613 -0.2038
  241MOL0     H32469   0.663   7.505   9.514  0.2815 -1.3963  1.5224
  241MOL0     H32470   0.878   7.602   9.573  0.0922 -0.0738  0.7278
  241MOL0     H32471   0.877   7.433   9.652  0.6509 -0.8150 -0.0725
  241MOL0     H32472   1.074   7.563   9.714 -1.5260  0.2506 -0.8776
  241MOL0     H32473   1.116   7.586   9.549 -1.0900  1.2890  0.2721
  241MOL0     H32474   1.117   7.330   9.529 -0.1014  1.1976 -0.0990
  241MOL0     H32475   1.109   7.320   9.707  2.9329 -2.0237  0.2626
  241MOL0     H32476   1.338   7.301   9.633 -0.7188 -0.6590  0.0670
  241MOL0     H32477   1.329   7.465   9.563  2.1764 -0.3417  1.6939
  241MOL0     H32478   1.442   7.485   9.771 -0.1880  2.4336 -1.1296
  241MOL0     H32479   1.297   7.570   9.788 -1.7705 -1.1101  1.0487
  241MOL0     H32480   1.215   7.387   9.940  0.5912  1.9333  0.9460
  241MOL0     H32481   1.345   7.288   9.882  0.5890  0.0838 -1.2957
  241MOL0     H32482   1.511   7.435  10.006  0.8187 -1.0523  2.0838
  241MOL0     H32483   1.409   7.372  10.113 -1.4114 -1.0432 -0.7639
  241MOL0     H32484   1.379   7.660   9.996 -0.7047 -0.2992 -1.1557
  241MOL0     H32485   1.269   7.591  10.099 -0.0554 -0.1732 -3.0792
  241MOL0     H32486   1.408   7.474  10.365  0.4836  1.6447  0.9352
  241MOL0     H32487   1.630   7.620  10.561  1.5621  1.5791 -1.4402
  241MOL0     H32488   1.570   7.454  10.545  3.2842 -2.3637  2.2864
  241MOL0     H32489   1.841   7.569  10.446 -0.9132  0.5902 -0.1361
  241MOL0     H32490   1.825   7.458  10.580 -0.0621 -2.5562 -0.3306
  241MOL0     H32491   1.760   7.387  10.289 -1.2848 -0.2473  0.6903
  241MOL0     H32492   1.720   7.282  10.423 -1.8388  0.7462 -0.4193
  241MOL0     H32493   1.992   7.389  10.354  1.0661 -1.8761 -0.1042
  241MOL0     H32494   1.926   7.229  10.305 -5.4847 -2.1006  1.9854
  241MOL0     H32495   2.152   7.197  10.355 -0.4443 -1.9759 -0.7073
  241MOL0     H32496   2.366   7.065  10.436 -1.3699 -2.6356 -0.6118
  241MOL0     H32497   2.497   6.708  10.776 -0.4614  0.1826 -1.0533
  241MOL0     H32498   2.718   6.630  10.872 -1.0732 -0.0137  0.0042
  241MOL0     H32499   3.049   6.580  10.626 -0.1983  3.7082 -4.1085
  241MOL0     H32500   3.096   6.751  10.647  2.8405 -2.5519 -2.9169
  241MOL0     H32501   3.196   6.707  10.857  1.5519  0.4520  0.8754
  241MOL0     H32502   3.151   6.536  10.856  1.9114 -0.3242 -0.5116
  241MOL0     H32503   3.306   6.549  10.620  1.3585  1.1451 -1.1356
  241MOL0     H32504   3.375   6.683  10.709  2.9035 -2.4324 -1.7036
  241MOL0     H32505   3.350   6.426  10.842 -1.9335  0.2832 -1.4192
  241MOL0     H32506   3.482   6.550  10.859 -1.3259  1.2592  0.4566
  241MOL0     H32507   3.537   6.497  10.615  2.0741  0.4883 -0.5743
  241MOL0     H32508   3.429   6.357  10.630  1.0864 -0.1828  0.9275
  241MOL0     H32509   3.687   6.402  10.787 -0.2486  0.5038 -0.5199
  241MOL0     H32510   3.575   6.273  10.827  1.6166 -2.1272 -0.8017
  241MOL0     H32511   3.670   6.284  10.539 -1.2080  1.0335 -0.0831
  241MOL0     H32512   3.606   6.157  10.632  1.9433 -0.7103  1.1288
  241MOL0     H32513   3.798   6.159  10.789  2.6418 -3.1324  0.1145
  241MOL0     H32514   3.838   6.101  10.630 -1.0729 -2.5897  3.0329
  241MOL0     H32515   2.917   6.835  10.556  0.2096 -0.7502 -0.1242
  241MOL0     H32516   2.715   6.932  10.478  0.5980 -0.0360  0.4163
  241MOL0     H32517   2.168   7.017  10.815 -1.6914 -1.2115 -0.8486
  241MOL0     H32518   1.972   7.160  10.729 -0.2876 -1.0338  0.1986
  241MOL0     H32519   0.918   7.247   9.292  1.0498  1.9937  2.7109
  241MOL0     H32520   0.690   7.134   9.191  0.5108 -0.2707  1.0836
  241MOL0     H32521   0.342   7.119   9.034  0.2974 -0.7656 -0.4889
  241MOL0     H32522   0.168   7.016   8.921  1.6423  0.1913 -0.4260
  241MOL0     H32523  -0.167   6.744   9.032  0.9473 -1.8118 -0.8636
  241MOL0     H32524  -0.050   6.700   9.138 -1.0667  4.0791  1.1563
  241MOL0     H32525  -0.061   6.530   8.976 -6.1776  2.2163 -1.3121
  241MOL0     H32526   0.096   6.603   8.984 -0.7813  0.9951  0.4778
  241MOL0     H32527   0.083   6.567   8.761  2.1221  1.7337  0.4316
  241MOL0     H32528   0.050   6.746   8.780  1.5872 -0.5996  0.6534
  241MOL0     H32529  -0.153   6.529   8.739 -0.0482  1.2511  0.0531
  241MOL0     H32530  -0.182   6.706   8.776  0.2483 -1.8692  3.0631
  241MOL0     H32531  -0.073   6.692   8.358 -1.6347 -1.8916 -0.7481
  241MOL0     H32532  -0.020   6.883   9.277 -2.9271  0.8383 -0.5784
  241MOL0     H32533   0.169   6.953   9.501  1.3758  0.6314  1.6976
  241MOL0     H32534   0.126   7.130   9.481 -1.3667  0.5020 -1.6206
  241MOL0     H32535  -0.001   7.019   9.456 -0.0282  3.3869  0.0139
  242MOL0     O32536   3.436   1.378   4.463 -1.2054  0.4681  0.0300
  242MOL0     C32537   3.490   1.341   4.570  0.1088 -0.2960  0.3587
  242MOL0     O32538   3.430   1.354   4.695  0.1289  0.0832 -0.2799
  242MOL0     C32539   3.348   1.461   4.717  0.0780 -0.1097 -0.0205
  242MOL0     C32540   3.345   1.575   4.639 -0.9219  0.5432 -0.0392
  242MOL0     C32541   3.256   1.682   4.663  1.0038  0.4549 -0.7324
  242MOL0     C32542   3.154   1.675   4.750  0.0401  0.4970  0.1627
  242MOL0     O32543   3.043   1.760   4.750  0.1864 -1.2095 -0.1242
  242MOL0     C32544   3.022   1.854   4.635  0.4843 -0.0183 -0.0211
  242MOL0     C32545   2.980   1.991   4.683  1.2830 -0.2725 -0.2541
  242MOL0     C32546   3.064   2.066   4.789 -0.4363 -0.5756 -0.0284
  242MOL0     C32547   3.215   2.074   4.733 -0.1744  0.3757 -0.1975
  242MOL0     C32548   3.297   2.166   4.822 -0.2023  0.1610 -0.0087
  242MOL0     C32549   3.431   2.175   4.746  0.3286 -0.3772  0.2489
  242MOL0     C32550   3.527   2.257   4.837 -0.0415  0.2619  0.0634
  242MOL0     C32551   3.670   2.227   4.803 -0.7319 -0.3536 -0.0315
  242MOL0     N32552   3.762   2.303   4.894  0.1624 -0.6908  0.2562
  242MOL0     C32553   3.773   2.445   4.893  0.7464 -0.3400 -0.5121
  242MOL0     C32554   3.879   2.467   4.971 -0.4451  0.0203  0.5948
  242MOL0     C32555   3.938   2.596   5.019  0.2074  0.0924 -0.2189
  242MOL0     C32556   4.032   2.643   4.911  0.2009  0.7127  0.1708
  242MOL0     C32557   4.084   2.780   4.959 -0.1808  0.2651 -0.2122
  242MOL0     C32558   4.187   2.823   4.841  0.9515  0.2554  0.4049
  242MOL0     O32559   4.225   2.962   4.869 -0.7092 -0.0292 -0.3513
  242MOL0     C32560   4.367   2.985   4.863  0.6788 -0.2334 -0.2340
  242MOL0     C32561   4.411   3.099   4.789 -0.3485 -0.0484  0.4395
  242MOL0     C32562   4.548   3.122   4.760 -0.7941 -0.4146 -0.1618
  242MOL0     C32563   4.647   3.032   4.815  0.2667  0.3949 -0.3544
  242MOL0     C32564   4.788   3.055   4.796 -0.0549 -0.5823 -0.1238
  242MOL0     O32565   4.875   2.988   4.884 -0.1587 -0.4333  0.5705
  242MOL0     C32566   5.015   3.029   4.893  0.0995 -0.2383  0.2894
  242MOL0     C32567   5.059   3.167   4.897 -0.1643  0.7076 -0.2846
  242MOL0     C32568   5.195   3.202   4.892 -0.8445  0.1727 -0.4281
  242MOL0     C32569   5.291   3.099   4.912 -0.0236  0.4322  0.7000
  242MOL0     O32570   5.429   3.123   4.913 -0.0909 -0.7578  0.1895
  242MOL0     C32571   5.490   3.247   4.869  1.1670  0.0838  0.2322
  242MOL0     C32572   5.630   3.258   4.912  0.1326 -0.8297  0.3468
  242MOL0     C32573   5.697   3.379   4.865 -0.5487 -0.3321 -0.2441
  242MOL0     C32574   5.829   3.396   4.953 -0.0392  0.0880 -0.1512
  242MOL0     C32575   5.942   3.474   4.885  0.7136  0.4073  0.6966
  242MOL0     C32576   6.068   3.507   4.966  0.3547 -0.2185  0.9523
  242MOL0     C32577   6.183   3.545   4.873  0.3250  0.6560 -0.7416
  242MOL0     C32578   6.319   3.545   4.962  0.5736  0.0521  0.3818
  242MOL0    Cl32579   6.374   3.381   4.980  0.0355 -0.5776  0.0916
  242MOL0     C32580   5.249   2.966   4.931  0.0843 -0.9696 -0.4017
  242MOL0     C32581   5.117   2.931   4.922 -0.4074  0.4169  0.5216
  242MOL0     O32582   4.822   3.134   4.708  0.0539 -0.4645  0.3388
  242MOL0     C32583   4.600   2.924   4.896 -0.4915  0.6887  0.4669
  242MOL0     C32584   4.462   2.898   4.918  0.1574  0.7302 -0.3166
  242MOL0     N32585   3.925   2.341   5.026  0.3103  0.8783  0.3975
  242MOL0     N32586   3.853   2.244   4.973 -0.4540 -0.5987 -0.4999
  242MOL0     C32587   3.145   1.553   4.828  0.0418 -0.3130  0.4407
  242MOL0     C32588   3.247   1.453   4.815  0.0153  0.4105  0.2932
  242MOL0     C32589   3.607   1.253   4.565 -0.9046 -0.0826 -0.4782
  242MOL0     C32590   3.663   1.229   4.687  0.4239 -0.1064 -0.2713
  242MOL0     C32591   3.780   1.151   4.694  0.7032 -0.0006 -0.1312
  242MOL0     C32592   3.850   1.110   4.580 -0.6963  0.1880  0.7123
  242MOL0     O32593   3.967   1.042   4.580 -1.2946 -0.7132 -0.2459
  242MOL0     C32594   4.038   1.018   4.701  0.9506 -0.1067 -0.2833
  242MOL0     C32595   4.140   0.902   4.673  0.3928  0.2375 -0.3641
  242MOL0     C32596   4.240   0.933   4.558 -0.4422 -0.3108  0.8997
  242MOL0     C32597   4.354   1.033   4.596 -0.7186 -0.0039  0.6337
  242MOL0     C32598   4.463   0.954   4.652  0.8647 -0.0122 -0.7569
  242MOL0     C32599   4.543   0.891   4.721  0.0936  0.5639 -0.2503
  242MOL0     C32600   3.793   1.148   4.455 -0.3042  0.2014  0.1665
  242MOL0     C32601   3.676   1.223   4.444  0.1657 -0.1588 -0.5339
  242MOL0     C32602   3.631   1.238   4.300  0.3030 -0.3410  0.5092
  242MOL0     H32603   3.417   1.604   4.563 -0.9292 -0.3636 -0.3998
  242MOL0     H32604   3.267   1.767   4.596  1.8727 -1.0946 -2.6515
  242MOL0     H32605   3.097   1.858   4.556  2.1166 -1.6003  1.3487
  242MOL0     H32606   2.930   1.821   4.586 -0.1225  2.4071 -0.6534
  242MOL0     H32607   2.878   1.984   4.722  1.0121 -0.2858 -0.9482
  242MOL0     H32608   2.975   2.064   4.601  1.4146  4.3400  3.4148
  242MOL0     H32609   3.066   2.018   4.887  1.2877  0.5959  0.5626
  242MOL0     H32610   3.018   2.164   4.804  2.8677  1.5332 -2.1374
  242MOL0     H32611   3.253   1.972   4.723 -0.6863  0.0332  1.1496
  242MOL0     H32612   3.206   2.112   4.631  2.2582  2.2051  0.1836
  242MOL0     H32613   3.257   2.265   4.844  0.3102  1.6372 -4.7298
  242MOL0     H32614   3.308   2.116   4.919  0.2278  1.0575  0.4188
  242MOL0     H32615   3.468   2.073   4.733  1.9627  0.0894  0.8894
  242MOL0     H32616   3.422   2.226   4.650 -0.4033  0.6624  0.8421
  242MOL0     H32617   3.519   2.230   4.943 -2.4043  2.3119  0.5149
  242MOL0     H32618   3.506   2.364   4.837  1.3363  0.5496  0.6128
  242MOL0     H32619   3.690   2.121   4.823 -1.0576 -0.1138  1.7147
  242MOL0     H32620   3.694   2.244   4.698  0.2406 -0.5901  0.1430
  242MOL0     H32621   3.707   2.516   4.844  2.0063  0.0012 -1.7821
  242MOL0     H32622   3.859   2.666   5.047  0.0458  0.9214 -2.5130
  242MOL0     H32623   3.992   2.570   5.110 -0.2158 -1.5049 -0.3972
  242MOL0     H32624   4.111   2.570   4.893 -0.1085 -0.3233  2.5877
  242MOL0     H32625   3.990   2.648   4.810  0.2541  0.4938  0.1376
  242MOL0     H32626   4.139   2.774   5.053  1.5450 -0.6098 -1.2368
  242MOL0     H32627   4.002   2.850   4.977 -0.8163 -1.0900  2.5562
  242MOL0     H32628   4.130   2.815   4.748  0.7244 -0.6102  0.6116
  242MOL0     H32629   4.270   2.752   4.844  0.6541 -0.0789  0.8927
  242MOL0     H32630   4.336   3.172   4.758  2.4862  3.2611  0.7526
  242MOL0     H32631   4.593   3.211   4.717  0.7429 -0.4033  1.3920
  242MOL0     H32632   4.996   3.255   4.888 -1.3470 -0.1332 -0.4627
  242MOL0     H32633   5.216   3.308   4.886  0.5743 -0.0451  0.1409
  242MOL0     H32634   5.489   3.256   4.760 -3.0412  0.3314  0.1383
  242MOL0     H32635   5.438   3.328   4.920  1.8908 -0.8913  2.6791
  242MOL0     H32636   5.626   3.246   5.020 -2.2427 -1.2367  0.2574
  242MOL0     H32637   5.675   3.172   4.861  0.1304 -0.5460 -0.1383
  242MOL0     H32638   5.718   3.364   4.759 -0.8681  0.1585 -0.3811
  242MOL0     H32639   5.638   3.470   4.879 -1.4582 -0.7545 -1.2403
  242MOL0     H32640   5.876   3.303   4.987  0.7101  1.2939  2.2633
  242MOL0     H32641   5.795   3.450   5.042  0.0969  0.7503 -0.4944
  242MOL0     H32642   5.903   3.565   4.838  2.0956 -0.4302 -2.2548
  242MOL0     H32643   5.964   3.419   4.794 -4.6030 -1.4906  0.2255
  242MOL0     H32644   6.057   3.597   5.029 -0.4892 -1.0006  1.9591
  242MOL0     H32645   6.096   3.418   5.024  1.5988 -1.7494 -1.8311
  242MOL0     H32646   6.182   3.649   4.840  1.8756  0.4515 -1.5178
  242MOL0     H32647   6.180   3.478   4.788 -2.0623 -0.7316  0.3338
  242MOL0     H32648   6.400   3.599   4.913  0.7277  2.5179  3.0492
  242MOL0     H32649   6.302   3.600   5.056 -3.5696 -1.2410  0.5625
  242MOL0     H32650   5.322   2.893   4.962  3.0019  1.6491 -0.5965
  242MOL0     H32651   5.084   2.828   4.930 -0.4160  0.2994 -0.8584
  242MOL0     H32652   4.673   2.855   4.938  0.4207  0.9756 -0.6042
  242MOL0     H32653   4.424   2.810   4.970  0.6350  1.0460  0.5862
  242MOL0     H32654   3.062   1.545   4.896  1.2398 -1.9906  1.7789
  242MOL0     H32655   3.235   1.361   4.871 -0.8731 -0.1632 -0.8025
  242MOL0     H32656   3.616   1.247   4.783 -0.3588 -0.5288 -0.5699
  242MOL0     H32657   3.807   1.114   4.792 -0.6920  0.0390  0.2823
  242MOL0     H32658   3.966   0.981   4.775 -1.5447 -0.5220 -2.7405
  242MOL0     H32659   4.077   1.116   4.728 -2.1853  1.8101 -2.1280
  242MOL0     H32660   4.084   0.811   4.653 -2.4616  2.3609 -2.8620
  242MOL0     H32661   4.203   0.877   4.759 -0.1392 -0.4713 -0.1785
  242MOL0     H32662   4.187   0.980   4.475 -2.0715  0.2678  2.2007
  242MOL0     H32663   4.291   0.851   4.507 -0.3370  2.3955 -3.9047
  242MOL0     H32664   4.400   1.093   4.517 -2.3532 -0.5002 -0.7563
  242MOL0     H32665   4.317   1.100   4.674  0.6659  2.2859 -0.5745
  242MOL0     H32666   4.619   0.835   4.771  0.8203  0.2269 -1.6587
  242MOL0     H32667   3.855   1.114   4.372  2.1967 -0.2619  2.0970
  242MOL0     H32668   3.695   1.183   4.231 -2.3469 -1.2256 -1.3812
  242MOL0     H32669   3.534   1.189   4.288 -1.0996  2.2504  0.5036
  242MOL0     H32670   3.634   1.346   4.282  2.5956 -0.4683 -0.2195
  243MOL0     O32671   0.460  10.448   2.882 -0.3461 -0.0399 -0.1382
  243MOL0     C32672   0.373  10.373   2.834 -0.0775  0.0012  0.7359
  243MOL0     O32673   0.401  10.250   2.788 -0.4159  0.0683 -0.2796
  243MOL0     C32674   0.525  10.198   2.823  0.1245 -0.3611 -0.3273
  243MOL0     C32675   0.634  10.196   2.732  1.0812 -0.5672 -0.8633
  243MOL0     C32676   0.750  10.133   2.768  0.4910  0.2305 -0.1707
  243MOL0     C32677   0.768  10.085   2.898  0.9517  0.5288 -0.4735
  243MOL0     O32678   0.888  10.024   2.936 -0.3072  0.8767  0.1120
  243MOL0     C32679   0.953  10.081   3.053 -0.7369  0.7711  0.2403
  243MOL0     C32680   1.028   9.966   3.129 -0.4391 -0.2005  0.6873
  243MOL0     C32681   1.142  10.029   3.224 -0.3210  0.2505  0.1247
  243MOL0     C32682   1.213   9.922   3.307  0.5781 -0.1553  0.5718
  243MOL0     C32683   1.342   9.980   3.359 -0.2693 -0.4208  0.2744
  243MOL0     C32684   1.429   9.872   3.428  0.3950 -0.2030  0.1520
  243MOL0     C32685   1.568   9.917   3.482  0.8322  0.2589  0.0287
  243MOL0     C32686   1.668   9.957   3.365 -0.4963  0.0995  0.0628
  243MOL0     N32687   1.810   9.994   3.410 -0.1219  0.2611 -0.1718
  243MOL0     C32688   1.918   9.915   3.390 -1.1984 -0.2100  0.5510
  243MOL0     C32689   2.021   9.973   3.457 -0.8721 -0.3266 -0.3718
  243MOL0     C32690   2.159   9.925   3.486  0.2773  0.1124  0.2152
  243MOL0     C32691   2.192   9.905   3.638  0.3883  0.3210  0.5955
  243MOL0     C32692   2.337   9.857   3.658 -0.2989  0.7176 -0.2771
  243MOL0     C32693   2.359   9.705   3.649 -0.0305 -0.2608 -0.1194
  243MOL0     O32694   2.425   9.674   3.523  0.0982  0.7195  0.1063
  243MOL0     C32695   2.562   9.676   3.510 -0.0747 -0.7481  0.2500
  243MOL0     C32696   2.653   9.737   3.595  0.0262  0.0273 -0.1082
  243MOL0     C32697   2.788   9.734   3.582 -0.4538  0.3374  0.1960
  243MOL0     C32698   2.844   9.657   3.478  0.5673  0.2017 -0.1746
  243MOL0     C32699   2.993   9.669   3.451 -0.6982 -1.2309 -0.5374
  243MOL0     O32700   3.069   9.745   3.532 -0.8019  0.2642 -0.0317
  243MOL0     C32701   3.207   9.737   3.528  0.9964  0.4375 -0.6035
  243MOL0     C32702   3.275   9.719   3.650 -0.2048  0.6583 -1.2074
  243MOL0     C32703   3.412   9.721   3.649 -0.2449 -0.0740 -0.6089
  243MOL0     C32704   3.485   9.728   3.538 -0.0631  0.3474  0.9770
  243MOL0     O32705   3.624   9.723   3.545  0.1775 -0.1656  0.4542
  243MOL0     C32706   3.698   9.719   3.423 -0.8402  0.7853 -0.0383
  243MOL0     C32707   3.843   9.734   3.448 -0.2761  0.4748  0.4677
  243MOL0     C32708   3.892   9.633   3.559 -0.0882 -0.2248  0.5005
  243MOL0     C32709   4.044   9.638   3.575 -0.2895  0.7202  0.1178
  243MOL0     C32710   4.092   9.557   3.695  0.9136 -0.3249  0.8981
  243MOL0     C32711   4.245   9.545   3.694  0.4250 -0.2156  0.0240
  243MOL0     C32712   4.308   9.459   3.802 -0.0286  0.0838 -0.3095
  243MOL0     C32713   4.460   9.462   3.808  0.1823 -0.5716 -0.1675
  243MOL0    Cl32714   4.496   9.621   3.883  0.1509  0.1204  0.1140
  243MOL0     C32715   3.416   9.747   3.412  0.0261 -0.3159 -0.1613
  243MOL0     C32716   3.273   9.759   3.417 -0.9950 -0.1184 -0.3043
  243MOL0     O32717   3.029   9.628   3.343 -0.0039  0.3636 -0.0754
  243MOL0     C32718   2.761   9.591   3.385  0.3044  0.4228 -0.2016
  243MOL0     C32719   2.623   9.607   3.396  0.2257  0.6668 -0.5702
  243MOL0     N32720   1.963  10.085   3.518 -0.4836 -0.8004 -1.5060
  243MOL0     N32721   1.839  10.095   3.493  0.2064 -0.3383 -1.3913
  243MOL0     C32722   0.659  10.104   2.998 -0.8196 -0.4465 -0.0053
  243MOL0     C32723   0.538  10.158   2.956  0.6391  0.4736 -0.2402
  243MOL0     C32724   0.227  10.416   2.831  0.8190 -0.0939  0.3628
  243MOL0     C32725   0.191  10.519   2.913 -0.0516  0.1651 -0.7613
  243MOL0     C32726   0.057  10.564   2.921  0.1398  0.6983 -0.2388
  243MOL0     C32727  -0.033  10.525   2.825 -0.2202  0.2904 -1.3594
  243MOL0     O32728  -0.153  10.590   2.820 -0.0465 -0.6841  0.3545
  243MOL0     C32729  -0.273  10.528   2.760 -0.3891  0.1940  0.6803
  243MOL0     C32730  -0.398  10.605   2.795 -0.2946 -0.5087 -0.0136
  243MOL0     C32731  -0.435  10.606   2.948  0.1151  1.1224 -0.1643
  243MOL0     C32732  -0.556  10.700   2.977 -0.6862  0.0756 -0.5513
  243MOL0     C32733  -0.671  10.657   2.907 -0.0038 -0.5157  1.4072
  243MOL0     C32734  -0.774  10.626   2.846  0.0961  0.0406  0.2674
  243MOL0     C32735   0.007  10.437   2.732 -0.3972  0.1088  0.6929
  243MOL0     C32736   0.130  10.372   2.736 -0.0477 -0.2126 -0.0941
  243MOL0     C32737   0.162  10.270   2.622 -0.1197  0.9502 -0.6981
  243MOL0     H32738   0.636  10.235   2.631  0.1978 -1.4980 -1.2618
  243MOL0     H32739   0.838  10.110   2.708  1.7044  0.9098  1.2816
  243MOL0     H32740   1.025  10.156   3.020 -1.5791  0.8365 -1.5792
  243MOL0     H32741   0.890  10.140   3.120 -0.8702  1.4947 -0.5061
  243MOL0     H32742   1.084   9.907   3.055 -1.3314 -1.3566  0.9030
  243MOL0     H32743   0.964   9.895   3.183 -1.3383  0.1665  0.1176
  243MOL0     H32744   1.117  10.115   3.288 -1.0344 -1.3378  2.1059
  243MOL0     H32745   1.218  10.067   3.156 -0.2356 -2.3886 -1.3829
  243MOL0     H32746   1.145   9.875   3.379 -3.5300  4.2359  0.1594
  243MOL0     H32747   1.248   9.849   3.233  0.6402  0.5206 -0.0815
  243MOL0     H32748   1.403  10.032   3.284 -0.7355  2.3007  1.6435
  243MOL0     H32749   1.320  10.058   3.433 -1.6513 -0.0750 -0.4494
  243MOL0     H32750   1.371   9.834   3.513 -0.9264  0.9070 -0.2135
  243MOL0     H32751   1.451   9.796   3.353  1.9346 -0.9530  1.2963
  243MOL0     H32752   1.609   9.836   3.543  0.5506  1.9281  2.5904
  243MOL0     H32753   1.550  10.005   3.545  0.4213  0.2682 -0.0958
  243MOL0     H32754   1.675   9.868   3.302 -0.6431  0.9290 -1.1617
  243MOL0     H32755   1.626  10.038   3.304  3.0560  0.0877 -2.7710
  243MOL0     H32756   1.919   9.832   3.321  0.2430  0.3368 -0.1288
  243MOL0     H32757   2.195   9.839   3.428  1.8481 -0.2758  1.7064
  243MOL0     H32758   2.231   9.997   3.446 -0.0471  0.7971  0.8564
  243MOL0     H32759   2.196  10.004   3.683 -1.0568  0.9544 -0.5627
  243MOL0     H32760   2.108   9.851   3.683  0.8537  1.2318  2.6792
  243MOL0     H32761   2.357   9.889   3.760  1.6394 -2.7726  0.5765
  243MOL0     H32762   2.402   9.912   3.589 -2.0954  0.3477 -2.4038
  243MOL0     H32763   2.269   9.648   3.672  0.8824 -1.7851 -0.2484
  243MOL0     H32764   2.425   9.677   3.732 -0.4065  2.6732  1.3061
  243MOL0     H32765   2.621   9.804   3.675  0.1652 -0.5317  0.4264
  243MOL0     H32766   2.857   9.783   3.651  1.3457 -1.8545  0.0949
  243MOL0     H32767   3.225   9.713   3.746  0.6519  1.7405 -0.6619
  243MOL0     H32768   3.464   9.708   3.743 -3.1539 -0.1875  1.0779
  243MOL0     H32769   3.677   9.625   3.371 -3.7941  1.6747 -0.6641
  243MOL0     H32770   3.666   9.805   3.363 -0.7707 -0.7830 -2.4296
  243MOL0     H32771   3.897   9.727   3.354  2.4665 -0.3216  1.9719
  243MOL0     H32772   3.869   9.835   3.482  2.2795  0.3884 -0.9513
  243MOL0     H32773   3.837   9.647   3.652  0.6134  1.7825  0.6801
  243MOL0     H32774   3.853   9.535   3.529 -1.8631  0.3787  0.7229
  243MOL0     H32775   4.080   9.740   3.585  1.0800  0.0986  2.2569
  243MOL0     H32776   4.084   9.594   3.483 -0.4980  0.2245  0.2574
  243MOL0     H32777   4.051   9.458   3.676 -2.9944  1.5226 -1.4705
  243MOL0     H32778   4.043   9.601   3.783 -1.6809  2.0701 -1.5428
  243MOL0     H32779   4.273   9.492   3.603 -0.0675 -1.5969  0.6490
  243MOL0     H32780   4.291   9.644   3.688 -1.9239  0.8542 -1.8286
  243MOL0     H32781   4.271   9.356   3.797  1.0342 -0.5040  2.4300
  243MOL0     H32782   4.278   9.498   3.900 -1.3899  3.4988 -1.8989
  243MOL0     H32783   4.495   9.375   3.864 -0.9877  0.2966  2.0275
  243MOL0     H32784   4.498   9.456   3.706  0.4727  0.4505 -0.1312
  243MOL0     H32785   3.468   9.753   3.317 -0.8759  0.7649 -0.5964
  243MOL0     H32786   3.230   9.790   3.322  1.3229  0.4749 -1.2281
  243MOL0     H32787   2.798   9.536   3.299  0.5016  2.0243 -1.1815
  243MOL0     H32788   2.570   9.535   3.334  2.4053 -1.2171 -0.3633
  243MOL0     H32789   0.686  10.080   3.100  2.4466 -1.0934 -0.9039
  243MOL0     H32790   0.449  10.149   3.018  1.4166  2.5651  1.3202
  243MOL0     H32791   0.266  10.574   2.970 -0.6352  0.6206 -0.4147
  243MOL0     H32792   0.030  10.632   3.001  0.3123 -0.3610  0.7532
  243MOL0     H32793  -0.285  10.432   2.812  2.7408 -0.1387  0.9784
  243MOL0     H32794  -0.252  10.530   2.653 -0.2690  2.2046  0.7078
  243MOL0     H32795  -0.479  10.558   2.737 -1.1611 -1.4965  1.9199
  243MOL0     H32796  -0.395  10.707   2.755 -0.7150 -0.6057 -0.3082
  243MOL0     H32797  -0.344  10.635   3.001  1.0726 -1.1141 -0.4721
  243MOL0     H32798  -0.461  10.502   2.969  0.7079  0.3332 -2.9446
  243MOL0     H32799  -0.582  10.696   3.083  0.3406  0.2428 -0.2836
  243MOL0     H32800  -0.519  10.800   2.953 -0.3716 -0.3845 -2.1149
  243MOL0     H32801  -0.871  10.594   2.813 -0.0792  0.6101  0.2193
  243MOL0     H32802  -0.065  10.397   2.661 -1.2646  0.0691  1.5752
  243MOL0     H32803   0.106  10.295   2.532  2.1337  1.6036 -2.0060
  243MOL0     H32804   0.268  10.279   2.596  0.6282 -0.5866  1.5136
  243MOL0     H32805   0.142  10.168   2.658  1.4445  0.8596  0.0229
  244MOL0     O32806   6.381   9.907   2.964 -0.1118 -0.4154  0.3829
  244MOL0     C32807   6.358   9.838   2.863  0.8056 -0.6459 -0.1989
  244MOL0     O32808   6.446   9.761   2.798 -0.3737  1.2996  0.9493
  244MOL0     C32809   6.575   9.736   2.848  0.5786 -0.3278 -0.0109
  244MOL0     C32810   6.608   9.727   2.989  1.0669  0.0847 -0.3083
  244MOL0     C32811   6.734   9.682   3.025  0.2857  0.3416 -0.4070
  244MOL0     C32812   6.833   9.669   2.930  0.3047  0.1568  0.5117
  244MOL0     O32813   6.963   9.635   2.954 -0.0687  0.2813 -0.0752
  244MOL0     C32814   6.994   9.565   3.062 -0.0319  0.6993 -0.2470
  244MOL0     C32815   7.132   9.508   3.055 -0.0521 -0.4296 -0.2941
  244MOL0     C32816   7.241   9.618   3.059  0.1484  0.1941  0.4299
  244MOL0     C32817   7.369   9.549   3.099 -0.6109  0.0454  0.0078
  244MOL0     C32818   7.479   9.661   3.114 -0.1314 -0.0573 -0.2331
  244MOL0     C32819   7.619   9.606   3.126 -0.5082 -0.5897 -0.0084
  244MOL0     C32820   7.731   9.712   3.107 -0.5750  0.3214 -0.2608
  244MOL0     C32821   7.778   9.781   3.232  0.0498  0.5474  0.5499
  244MOL0     N32822   7.899   9.855   3.203  0.7794  0.0676 -0.3455
  244MOL0     C32823   7.905   9.986   3.165 -0.5581  0.3938 -0.2786
  244MOL0     C32824   8.035  10.001   3.120 -0.2653  0.1918  0.7159
  244MOL0     C32825   8.111  10.113   3.058  0.5688  0.3454 -0.6821
  244MOL0     C32826   8.202  10.174   3.167 -0.0218  0.2741 -0.6823
  244MOL0     C32827   8.312  10.075   3.214  0.0731 -0.6463  0.3782
  244MOL0     C32828   8.426  10.142   3.286 -0.2284 -0.4345  0.2001
  244MOL0     O32829   8.535  10.047   3.295  0.2726 -0.3330  0.1810
  244MOL0     C32830   8.651  10.093   3.356  0.3970  0.0895  0.0560
  244MOL0     C32831   8.681  10.225   3.405  0.9146  0.5634  0.2055
  244MOL0     C32832   8.799  10.247   3.471 -0.0639 -0.0175 -1.0946
  244MOL0     C32833   8.898  10.149   3.489 -0.3601 -0.7439  0.1053
  244MOL0     C32834   9.031  10.190   3.547  0.4406  0.0812  0.2143
  244MOL0     O32835   9.043  10.320   3.589  0.3282  0.1932 -0.4041
  244MOL0     C32836   9.180  10.370   3.603  0.1430  0.6362  0.2973
  244MOL0     C32837   9.209  10.468   3.704  1.2286 -0.2518  0.0256
  244MOL0     C32838   9.335  10.503   3.736  0.3499 -0.3952  0.6269
  244MOL0     C32839   9.448  10.464   3.664  0.7212 -0.7172  0.2694
  244MOL0     O32840   9.571  10.511   3.699  0.1027 -0.0666  0.6595
  244MOL0     C32841   9.682  10.428   3.666 -0.6907  0.5103 -0.5047
  244MOL0     C32842   9.810  10.486   3.740 -0.0968  0.3275 -0.3338
  244MOL0     C32843   9.841  10.635   3.703 -0.0938  0.2125 -0.1995
  244MOL0     C32844   9.962  10.629   3.602 -0.1402 -0.2796  0.2608
  244MOL0     C32845  10.020  10.771   3.592  0.3895 -0.1612 -0.2080
  244MOL0     C32846  10.084  10.795   3.460  0.5377 -0.7923  0.8069
  244MOL0     C32847  10.126  10.939   3.426 -0.6270 -0.1174  0.2774
  244MOL0     C32848  10.214  11.008   3.525  0.2951 -0.3357 -0.4816
  244MOL0    Cl32849  10.306  11.144   3.456 -0.1568  0.0007 -0.2419
  244MOL0     C32850   9.422  10.393   3.550 -1.2348  0.1687  0.3211
  244MOL0     C32851   9.295  10.342   3.524  0.1261  0.6533 -0.0324
  244MOL0     O32852   9.108  10.098   3.565  0.2511  0.6484 -0.1205
  244MOL0     C32853   8.868  10.019   3.449  0.1757 -0.6273  0.4668
  244MOL0     C32854   8.740   9.990   3.386  0.4987 -0.3082 -0.7488
  244MOL0     N32855   8.098   9.874   3.148  0.6603  0.3137 -0.1445
  244MOL0     N32856   8.012   9.792   3.186 -0.3191  0.1055  0.3029
  244MOL0     C32857   6.801   9.685   2.791 -0.4251  0.2289 -0.2675
  244MOL0     C32858   6.677   9.710   2.750  0.3408 -0.4798 -0.3995
  244MOL0     C32859   6.224   9.858   2.806 -0.4102 -0.0907  0.3975
  244MOL0     C32860   6.115   9.882   2.890  0.0146 -0.3161  0.1182
  244MOL0     C32861   5.990   9.925   2.843 -0.0853 -0.1500  0.6511
  244MOL0     C32862   5.973   9.942   2.710 -0.8229  0.0179 -0.2751
  244MOL0     O32863   5.855   9.982   2.659 -0.2019  0.7623  0.1714
  244MOL0     C32864   5.783   9.864   2.621  0.4603  0.2395  0.5546
  244MOL0     C32865   5.641   9.881   2.572 -0.5927 -0.5868  0.1541
  244MOL0     C32866   5.552   9.984   2.634 -0.2511  0.0299  0.0282
  244MOL0     C32867   5.408   9.948   2.631 -0.7356  0.7832 -0.3746
  244MOL0     C32868   5.359   9.929   2.497 -0.3115 -0.2157  0.0136
  244MOL0     C32869   5.329   9.918   2.379 -0.5048 -0.4547 -0.1577
  244MOL0     C32870   6.076   9.909   2.624 -0.1797 -0.9244  0.1519
  244MOL0     C32871   6.203   9.872   2.667  0.7902  0.6660 -0.0513
  244MOL0     C32872   6.304   9.835   2.566  0.2344  0.8092 -0.0540
  244MOL0     H32873   6.528   9.747   3.059 -0.8347 -1.1974 -1.9601
  244MOL0     H32874   6.750   9.675   3.132  0.9135 -2.0111 -0.5939
  244MOL0     H32875   6.977   9.608   3.161  0.8248 -2.4605  1.4376
  244MOL0     H32876   6.926   9.479   3.065 -0.1257  0.7925  1.5553
  244MOL0     H32877   7.137   9.470   2.953  1.6189  4.7700 -2.4723
  244MOL0     H32878   7.147   9.431   3.132  0.3368  0.4432  0.5258
  244MOL0     H32879   7.216   9.681   3.144  2.5557  2.2483 -0.2731
  244MOL0     H32880   7.244   9.679   2.969  0.7328 -0.3030  0.1056
  244MOL0     H32881   7.361   9.492   3.192  1.8297 -4.1090 -2.0231
  244MOL0     H32882   7.399   9.471   3.028  0.5636 -0.4481  1.0041
  244MOL0     H32883   7.489   9.719   3.022 -1.7725  1.8283  0.7210
  244MOL0     H32884   7.453   9.730   3.195  2.1711 -1.6393  2.0332
  244MOL0     H32885   7.616   9.566   3.228 -0.1280 -0.5707  0.0112
  244MOL0     H32886   7.632   9.526   3.053  0.6664 -0.1225 -0.3330
  244MOL0     H32887   7.684   9.790   3.046  3.2736  3.2993  0.2533
  244MOL0     H32888   7.822   9.672   3.062 -0.2601  0.8874 -0.1337
  244MOL0     H32889   7.704   9.854   3.268  1.2227  1.3570  1.3659
  244MOL0     H32890   7.794   9.699   3.302  1.8864  0.1636 -0.2701
  244MOL0     H32891   7.839  10.072   3.155 -1.9973 -0.2981  2.3772
  244MOL0     H32892   8.174  10.077   2.976  1.1434 -1.4841  0.4969
  244MOL0     H32893   8.034  10.182   3.022  0.7640 -0.1256 -2.0882
  244MOL0     H32894   8.245  10.261   3.118  0.5087 -0.1454 -0.9611
  244MOL0     H32895   8.151  10.208   3.258  0.8761  3.4127 -1.2505
  244MOL0     H32896   8.356  10.017   3.133 -0.2682 -2.1641  1.2552
  244MOL0     H32897   8.272  10.004   3.287 -3.0155  0.7657  0.2519
  244MOL0     H32898   8.402  10.158   3.391 -1.7765 -1.5082  0.0434
  244MOL0     H32899   8.458  10.231   3.231  2.7211 -1.4067  0.1784
  244MOL0     H32900   8.613  10.310   3.396 -0.5641 -0.6451 -0.5858
  244MOL0     H32901   8.805  10.350   3.503  1.5228 -0.9912  2.2123
  244MOL0     H32902   9.126  10.504   3.763 -0.4624  0.1907 -2.4511
  244MOL0     H32903   9.342  10.576   3.815 -3.1339  1.7256 -0.8091
  244MOL0     H32904   9.668  10.325   3.700  1.3884  0.4114  0.1919
  244MOL0     H32905   9.704  10.433   3.558 -0.1874 -2.1831 -0.5935
  244MOL0     H32906   9.789  10.489   3.847 -1.4096 -1.3987 -0.5010
  244MOL0     H32907   9.895  10.419   3.726 -1.6947 -1.4555 -2.0808
  244MOL0     H32908   9.758  10.689   3.656  1.7027  3.0420 -0.3309
  244MOL0     H32909   9.879  10.694   3.787 -1.8863  1.7756 -0.4196
  244MOL0     H32910   9.935  10.604   3.499 -1.6609  1.0552  0.2925
  244MOL0     H32911  10.034  10.556   3.640  0.0710 -0.0790  0.2433
  244MOL0     H32912  10.094  10.798   3.668  1.4705  2.2838 -1.9993
  244MOL0     H32913   9.943  10.847   3.603 -0.3105 -0.9274  0.3715
  244MOL0     H32914  10.166  10.726   3.438  1.9326  1.5350 -2.1601
  244MOL0     H32915  10.007  10.770   3.386 -0.1074 -0.1547  1.2418
  244MOL0     H32916  10.045  11.006   3.396  1.5441  2.2096 -0.7418
  244MOL0     H32917  10.179  10.935   3.330  1.1406 -0.0615  1.2047
  244MOL0     H32918  10.156  11.053   3.606 -0.0499 -0.1902 -0.8062
  244MOL0     H32919  10.290  10.943   3.570 -0.6731 -0.6395  0.7685
  244MOL0     H32920   9.501  10.367   3.480  0.1649  4.1478  0.2083
  244MOL0     H32921   9.283  10.287   3.431 -2.0764  0.9878  0.0000
  244MOL0     H32922   8.942   9.943   3.471 -1.4174 -1.7192  2.3951
  244MOL0     H32923   8.712   9.889   3.361  1.4358 -0.6597 -0.4284
  244MOL0     H32924   6.875   9.670   2.712  0.7467 -0.1236  0.8508
  244MOL0     H32925   6.661   9.711   2.643  2.2416 -1.7443 -0.7338
  244MOL0     H32926   6.139   9.859   2.993 -3.0067 -2.6209  0.4576
  244MOL0     H32927   5.905   9.948   2.907 -1.0631  1.5476 -1.1495
  244MOL0     H32928   5.770   9.792   2.703  1.0114 -0.2911  0.1902
  244MOL0     H32929   5.851   9.813   2.552 -0.2276 -0.0846  0.1162
  244MOL0     H32930   5.597   9.782   2.584  0.9687 -1.2032  1.0111
  244MOL0     H32931   5.640   9.914   2.468 -0.9927  2.3136  0.9830
  244MOL0     H32932   5.568  10.073   2.574  1.4960 -1.1787 -1.4063
  244MOL0     H32933   5.585  10.006   2.736 -1.3071 -0.6361  0.5440
  244MOL0     H32934   5.389   9.859   2.692  0.4388  0.6524 -0.1727
  244MOL0     H32935   5.351  10.025   2.684 -1.1260  0.9302 -0.9987
  244MOL0     H32936   5.305   9.913   2.275  0.0521  1.9120 -0.4686
  244MOL0     H32937   6.051   9.914   2.518 -3.9136  0.6105  0.9173
  244MOL0     H32938   6.276   9.850   2.461 -0.8277  1.4288  0.3031
  244MOL0     H32939   6.388   9.902   2.586  1.1085 -0.2364 -0.1180
  244MOL0     H32940   6.343   9.734   2.578  0.5153  1.2122  3.3777
  245MOL0     O32941   2.501   7.505   0.718  0.7233 -0.0478  0.5563
  245MOL0     C32942   2.495   7.511   0.600  0.0196 -0.6491  1.0051
  245MOL0     O32943   2.411   7.593   0.530  0.2447  0.1646  0.4040
  245MOL0     C32944   2.300   7.651   0.597  0.2296  0.0712 -0.0976
  245MOL0     C32945   2.320   7.752   0.691  0.5104 -0.1320 -0.1143
  245MOL0     C32946   2.204   7.807   0.750  0.1399  0.0015  0.4236
  245MOL0     C32947   2.077   7.770   0.698 -0.1754 -0.3487  0.4290
  245MOL0     O32948   1.966   7.827   0.750 -0.0009  0.1627  0.3806
  245MOL0     C32949   1.969   7.973   0.736  0.3134  0.0204 -0.7654
  245MOL0     C32950   1.823   8.021   0.759  0.6696  0.2519  0.8997
  245MOL0     C32951   1.764   7.976   0.894  0.5496  0.7846 -0.2201
  245MOL0     C32952   1.618   8.024   0.893  0.6809 -0.2458  0.9441
  245MOL0     C32953   1.533   7.971   1.011 -0.6117 -0.3546  0.4848
  245MOL0     C32954   1.385   8.026   1.014  0.2961  0.7732  0.2638
  245MOL0     C32955   1.329   8.008   1.156 -0.6237  0.1251 -0.5522
  245MOL0     C32956   1.260   7.872   1.180  0.1950 -0.0610 -0.0130
  245MOL0     N32957   1.347   7.753   1.217  0.3447 -0.3252  0.2757
  245MOL0     C32958   1.410   7.752   1.335  0.1770  0.4318  1.0823
  245MOL0     C32959   1.491   7.641   1.334  0.3038 -0.0651 -0.0221
  245MOL0     C32960   1.586   7.582   1.433 -0.8360 -1.1753 -0.0607
  245MOL0     C32961   1.706   7.679   1.444  0.6822  0.0574 -0.0651
  245MOL0     C32962   1.774   7.638   1.572  0.0682  1.1748  0.1566
  245MOL0     C32963   1.889   7.747   1.613  0.3865  0.4439  0.2189
  245MOL0     O32964   1.832   7.873   1.652 -0.0742 -0.7703  0.4477
  245MOL0     C32965   1.928   7.976   1.660 -0.1848  0.3246 -0.5366
  245MOL0     C32966   2.073   7.963   1.655  0.6556 -0.1306 -0.1362
  245MOL0     C32967   2.156   8.080   1.658 -0.2993 -0.7809  0.1874
  245MOL0     C32968   2.104   8.209   1.688 -0.5594 -0.6085  0.1369
  245MOL0     C32969   2.192   8.334   1.707 -0.5516 -0.3159  0.7317
  245MOL0     O32970   2.311   8.337   1.633  0.4089  0.1391  0.4235
  245MOL0     C32971   2.400   8.440   1.661  0.1098 -0.8631  0.2239
  245MOL0     C32972   2.528   8.404   1.705  0.2608  0.2108 -0.1793
  245MOL0     C32973   2.615   8.497   1.763 -0.1515  0.7005 -0.8194
  245MOL0     C32974   2.591   8.638   1.737  0.6343  0.2691 -0.1605
  245MOL0     O32975   2.674   8.728   1.788  0.1055  0.1305 -0.0970
  245MOL0     C32976   2.710   8.842   1.710 -0.2568  0.1117 -0.1264
  245MOL0     C32977   2.678   8.974   1.800  0.3249  0.0346 -0.4578
  245MOL0     C32978   2.781   8.994   1.920 -0.7215 -0.0333  0.3913
  245MOL0     C32979   2.913   9.057   1.878 -0.7616 -0.8778  0.6893
  245MOL0     C32980   2.998   9.104   1.997 -0.1358 -0.1573 -0.8149
  245MOL0     C32981   3.127   9.179   1.952  0.3083 -0.2457  0.8842
  245MOL0     C32982   3.225   9.167   2.071  0.4395  0.4465  0.5987
  245MOL0     C32983   3.293   9.302   2.108 -1.0414  0.5304  0.4898
  245MOL0    Cl32984   3.187   9.447   2.097  0.1975  0.0759 -0.3338
  245MOL0     C32985   2.463   8.673   1.680 -1.1864 -0.4502  0.3693
  245MOL0     C32986   2.367   8.579   1.647  0.1296  0.8367 -0.2742
  245MOL0     O32987   2.139   8.431   1.753 -0.6348  0.1578 -0.2604
  245MOL0     C32988   1.964   8.219   1.707 -0.2216  0.4281 -0.0049
  245MOL0     C32989   1.878   8.104   1.689 -0.4488 -0.2679 -0.3688
  245MOL0     N32990   1.469   7.571   1.218  0.7794  0.9730 -0.5083
  245MOL0     N32991   1.385   7.643   1.155  0.4767  0.1507  1.3439
  245MOL0     C32992   2.065   7.675   0.605 -0.0573 -0.1384  0.0601
  245MOL0     C32993   2.176   7.611   0.549  0.2888 -1.0766 -0.4166
  245MOL0     C32994   2.602   7.449   0.521  0.2385  0.0916 -1.0680
  245MOL0     C32995   2.569   7.416   0.390  0.5169 -0.0502  1.1723
  245MOL0     C32996   2.663   7.355   0.304 -1.0167 -0.3708  0.2082
  245MOL0     C32997   2.785   7.312   0.353  0.0622 -0.1194 -0.6281
  245MOL0     O32998   2.889   7.242   0.291 -0.2256 -0.3328 -0.6078
  245MOL0     C32999   2.856   7.199   0.162  0.4773 -0.2973 -0.4859
  245MOL0     C33000   2.981   7.158   0.088  0.5894 -0.4067 -0.9602
  245MOL0     C33001   3.035   7.026   0.148 -0.9779  0.2686 -0.4132
  245MOL0     C33002   2.957   6.899   0.115  0.0493 -1.0240 -0.9919
  245MOL0     C33003   2.964   6.855  -0.022  0.2299 -0.2742 -0.0522
  245MOL0     C33004   2.961   6.821  -0.136  0.3061 -0.2312 -0.0604
  245MOL0     C33005   2.812   7.332   0.488  0.6597  0.1684  0.4568
  245MOL0     C33006   2.735   7.421   0.569  0.5219  0.1791  0.6809
  245MOL0     C33007   2.782   7.451   0.702  0.0732 -0.0537  0.6118
  245MOL0     H33008   2.419   7.784   0.722  0.2166  0.9792 -0.2867
  245MOL0     H33009   2.212   7.889   0.821  0.4560  1.3366 -1.1224
  245MOL0     H33010   2.036   8.007   0.816  2.2863 -2.5876 -1.1821
  245MOL0     H33011   2.019   8.006   0.644  2.0971 -2.4193 -0.7682
  245MOL0     H33012   1.765   7.978   0.677  3.8794 -0.5398 -1.1616
  245MOL0     H33013   1.813   8.130   0.759 -0.6783  0.1570 -0.4471
  245MOL0     H33014   1.807   8.025   0.982 -1.7408  1.9905  0.3012
  245MOL0     H33015   1.777   7.868   0.905 -1.7947  0.1067 -2.8419
  245MOL0     H33016   1.611   8.131   0.911 -1.4118 -0.3207  0.8565
  245MOL0     H33017   1.574   7.991   0.799  2.8752 -3.2083  0.7919
  245MOL0     H33018   1.529   7.862   1.004 -0.6439 -0.2381 -2.0686
  245MOL0     H33019   1.581   7.990   1.108 -3.6090  0.1812  1.9651
  245MOL0     H33020   1.383   8.127   0.973 -0.6402  0.9774  0.7974
  245MOL0     H33021   1.327   7.966   0.943  1.2785 -0.3673  0.3917
  245MOL0     H33022   1.252   8.084   1.171 -0.1620  0.7058 -1.0918
  245MOL0     H33023   1.414   8.019   1.224 -0.4669 -1.4995 -0.4353
  245MOL0     H33024   1.184   7.877   1.258 -1.3464 -0.3140 -1.4455
  245MOL0     H33025   1.201   7.845   1.092  2.0886 -0.3612 -1.2413
  245MOL0     H33026   1.391   7.814   1.422 -2.0753  0.8301  0.3909
  245MOL0     H33027   1.537   7.566   1.529 -4.7559  0.7107 -1.5333
  245MOL0     H33028   1.625   7.486   1.396 -0.1441 -0.6415 -0.7567
  245MOL0     H33029   1.780   7.668   1.363  2.3217  1.9346  1.0962
  245MOL0     H33030   1.671   7.783   1.447  2.3738  0.6720 -0.4542
  245MOL0     H33031   1.816   7.538   1.556  0.9934  1.1682  2.3084
  245MOL0     H33032   1.698   7.639   1.650  0.1394  1.6671  0.2216
  245MOL0     H33033   1.951   7.759   1.523 -1.7841 -1.2143 -1.5917
  245MOL0     H33034   1.939   7.714   1.704 -2.8842 -1.2349  1.5649
  245MOL0     H33035   2.129   7.872   1.639  0.0710 -1.1652  2.9691
  245MOL0     H33036   2.263   8.072   1.646  0.1961  1.0971  2.4933
  245MOL0     H33037   2.545   8.298   1.719 -1.6351 -0.1504 -0.4145
  245MOL0     H33038   2.694   8.463   1.829 -1.2030  1.3264  0.8279
  245MOL0     H33039   2.813   8.844   1.675  0.0891  4.5606  0.5629
  245MOL0     H33040   2.654   8.845   1.616  1.2115 -1.7948 -1.1275
  245MOL0     H33041   2.681   9.054   1.727  0.7183 -1.4108 -2.0869
  245MOL0     H33042   2.578   8.961   1.843  0.4309 -0.5253 -0.3628
  245MOL0     H33043   2.735   9.060   1.994  1.1619 -0.0699  1.6691
  245MOL0     H33044   2.810   8.899   1.967  0.3891  0.6486  1.1278
  245MOL0     H33045   2.893   9.137   1.807  2.8483 -3.0869 -3.2627
  245MOL0     H33046   2.971   8.989   1.814 -1.8841  0.5499 -1.9856
  245MOL0     H33047   3.019   9.008   2.045 -0.6160  0.9313  1.7070
  245MOL0     H33048   2.945   9.174   2.062  2.2512  0.2143  0.8740
  245MOL0     H33049   3.172   9.133   1.864 -1.8799 -0.7654 -0.0528
  245MOL0     H33050   3.091   9.274   1.909 -1.6220 -1.6021 -0.6963
  245MOL0     H33051   3.302   9.091   2.057 -0.5273 -0.1927 -1.7300
  245MOL0     H33052   3.189   9.138   2.171  4.4826 -1.0063  1.8252
  245MOL0     H33053   3.328   9.301   2.212  0.0625  1.5222  0.1427
  245MOL0     H33054   3.380   9.309   2.043 -0.6841 -0.3603  0.8426
  245MOL0     H33055   2.459   8.777   1.650  0.7349 -0.0429  1.3758
  245MOL0     H33056   2.274   8.610   1.599 -0.4547  1.7698  1.3973
  245MOL0     H33057   1.910   8.307   1.741  1.7173  1.5425  0.3505
  245MOL0     H33058   1.770   8.114   1.697 -0.2576  0.3341  3.2013
  245MOL0     H33059   1.966   7.643   0.573 -0.9445  2.0412  0.4264
  245MOL0     H33060   2.170   7.546   0.462 -2.7117 -0.0859 -1.0620
  245MOL0     H33061   2.478   7.438   0.335  0.9365 -1.2074 -0.0685
  245MOL0     H33062   2.641   7.327   0.201 -2.2089  0.8099  0.1147
  245MOL0     H33063   2.818   7.285   0.106 -1.2423 -0.6057  0.1425
  245MOL0     H33064   2.796   7.112   0.135  3.1535 -1.4087 -3.4725
  245MOL0     H33065   3.059   7.229   0.116 -0.9429  0.4674  1.4215
  245MOL0     H33066   2.968   7.156  -0.020  0.8065  0.9962 -1.0327
  245MOL0     H33067   3.047   7.030   0.256  3.6457 -0.8154 -0.7066
  245MOL0     H33068   3.140   7.013   0.121 -0.7453  0.7633  0.2322
  245MOL0     H33069   2.987   6.821   0.185 -1.9294  1.2820  2.7749
  245MOL0     H33070   2.849   6.902   0.137  0.1251 -1.6038 -0.5197
  245MOL0     H33071   2.965   6.781  -0.236 -0.7807 -1.0355  0.2049
  245MOL0     H33072   2.901   7.284   0.529 -0.3701 -1.6717  0.6647
  245MOL0     H33073   2.754   7.550   0.740  2.4169  0.4982  1.0475
  245MOL0     H33074   2.741   7.378   0.772 -0.3594 -0.8578 -0.4590
  245MOL0     H33075   2.890   7.440   0.688 -0.1990 -1.6058 -0.6006
  246MOL0     O33076   5.746   4.965  10.041  1.0515 -0.1844  0.7544
  246MOL0     C33077   5.667   4.925  10.125 -0.3244 -0.6649  0.6065
  246MOL0     O33078   5.698   4.885  10.245 -0.7016  0.0819 -0.2184
  246MOL0     C33079   5.804   4.931  10.323 -0.1202  0.0354  0.1115
  246MOL0     C33080   5.788   4.929  10.458  0.0745  0.5086  0.4302
  246MOL0     C33081   5.884   4.972  10.550 -0.7465  0.8303 -0.8315
  246MOL0     C33082   6.017   4.996  10.510  0.8698  0.4690  0.4457
  246MOL0     O33083   6.123   5.006  10.587 -0.0369 -0.5710  0.0569
  246MOL0     C33084   6.125   4.948  10.714  0.2379  0.4427 -0.6054
  246MOL0     C33085   6.255   4.984  10.792 -0.2745  0.2617  0.2776
  246MOL0     C33086   6.374   4.887  10.771  0.0571 -0.9756 -0.2254
  246MOL0     C33087   6.423   4.889  10.629 -0.4153  0.1047 -0.9804
  246MOL0     C33088   6.542   4.793  10.616  1.0588  0.4131  0.4345
  246MOL0     C33089   6.658   4.857  10.541 -0.0674  1.2515 -0.6565
  246MOL0     C33090   6.606   4.891  10.393  0.3203  0.2076 -0.0484
  246MOL0     C33091   6.705   4.956  10.291 -1.0398 -0.2546  0.2870
  246MOL0     N33092   6.828   4.873  10.287 -0.5613 -0.2760  0.4025
  246MOL0     C33093   6.865   4.768  10.205 -0.2274 -0.0430  0.0618
  246MOL0     C33094   6.996   4.736  10.237  0.2967  0.2835 -0.2734
  246MOL0     C33095   7.071   4.622  10.170 -0.1756  0.1076  0.1215
  246MOL0     C33096   7.217   4.656  10.155 -0.6807 -0.4427 -0.7802
  246MOL0     C33097   7.247   4.775  10.063 -0.2135  0.8251  0.4899
  246MOL0     C33098   7.398   4.793  10.030 -0.2200 -0.0601 -1.0279
  246MOL0     O33099   7.437   4.672   9.955  0.0064  0.2392 -0.1358
  246MOL0     C33100   7.566   4.662   9.904 -1.3950  0.0543  0.3513
  246MOL0     C33101   7.611   4.539   9.873  0.1697 -0.1845  0.2359
  246MOL0     C33102   7.740   4.507   9.842  0.2891 -0.4354  1.1622
  246MOL0     C33103   7.833   4.615   9.836 -0.8895  0.1240 -0.6243
  246MOL0     C33104   7.976   4.586   9.821 -0.0077 -0.3121 -1.0344
  246MOL0     O33105   8.064   4.693   9.825 -0.4585  0.1253 -0.1642
  246MOL0     C33106   8.201   4.681   9.796 -0.6317  0.1979  0.0513
  246MOL0     C33107   8.295   4.635   9.888 -0.1630 -0.9550 -0.4961
  246MOL0     C33108   8.420   4.610   9.845 -1.0735 -0.1985  0.6731
  246MOL0     C33109   8.467   4.640   9.710  0.5088 -0.6711  0.4039
  246MOL0     O33110   8.599   4.634   9.683  0.2625  0.1636  0.5350
  246MOL0     C33111   8.654   4.630   9.546  0.3826 -0.0744 -0.9698
  246MOL0     C33112   8.760   4.522   9.547  0.2260  0.1695  0.5801
  246MOL0     C33113   8.898   4.575   9.517 -0.0902 -0.8746 -0.3046
  246MOL0     C33114   9.016   4.478   9.561  0.2251 -0.2852 -0.4763
  246MOL0     C33115   9.145   4.553   9.536 -0.4430  0.2134  0.4894
  246MOL0     C33116   9.273   4.481   9.590  0.7060  0.0180  0.1998
  246MOL0     C33117   9.299   4.493   9.743 -0.1716 -0.6154 -1.7286
  246MOL0     C33118   9.403   4.391   9.794  0.4365  0.0018 -0.3514
  246MOL0    Cl33119   9.369   4.214   9.804  0.3259  0.1410 -0.2735
  246MOL0     C33120   8.367   4.683   9.623 -0.5415  0.8753  0.3908
  246MOL0     C33121   8.243   4.709   9.663  0.3245  1.3039  0.6562
  246MOL0     O33122   8.010   4.471   9.790 -0.2660 -0.7414 -0.0604
  246MOL0     C33123   7.794   4.747   9.866  0.3812 -0.1038  0.2968
  246MOL0     C33124   7.662   4.769   9.897  0.7658 -0.6297  0.0450
  246MOL0     N33125   7.026   4.819  10.335 -0.7018 -0.2893 -0.1705
  246MOL0     N33126   6.933   4.900  10.367  0.2807  0.8424  0.9946
  246MOL0     C33127   6.038   4.997  10.370 -0.7578  0.1180 -0.1585
  246MOL0     C33128   5.939   4.966  10.273  0.3552 -0.2273  0.0706
  246MOL0     C33129   5.523   4.913  10.094  0.1821 -0.6218 -0.1658
  246MOL0     C33130   5.438   4.836  10.182  0.2481  0.2655  0.4043
  246MOL0     C33131   5.298   4.824  10.160  1.0247 -0.7840  0.0409
  246MOL0     C33132   5.235   4.884  10.050  0.2199  1.4178  0.0835
  246MOL0     O33133   5.104   4.867  10.025 -0.1927  0.3722  0.2625
  246MOL0     C33134   5.019   4.799  10.119  0.0284 -0.2554 -1.1666
  246MOL0     C33135   4.879   4.789  10.060  0.5211  0.1704  0.9379
  246MOL0     C33136   4.767   4.765  10.165 -0.7916 -0.5472 -0.5632
  246MOL0     C33137   4.749   4.889  10.251 -0.3716  1.1502  0.4817
  246MOL0     C33138   4.615   4.876  10.312  0.4226 -0.2505 -1.0375
  246MOL0     C33139   4.510   4.869  10.372  0.8170 -1.2389 -0.5317
  246MOL0     C33140   5.320   4.954   9.968  0.0466 -0.9146  0.0613
  246MOL0     C33141   5.454   4.972   9.990 -0.2632 -0.4700  0.2404
  246MOL0     C33142   5.524   5.061   9.886  0.4191  1.1320  0.4628
  246MOL0     H33143   5.696   4.901  10.506 -1.3320  3.6305 -0.1821
  246MOL0     H33144   5.854   4.962  10.653  2.4274  1.2325  0.2497
  246MOL0     H33145   6.032   4.972  10.767  1.1949 -0.0644  1.4026
  246MOL0     H33146   6.118   4.839  10.712 -1.3684  0.5110 -0.4078
  246MOL0     H33147   6.227   4.987  10.897 -0.8779  0.2261  0.1203
  246MOL0     H33148   6.278   5.085  10.755  0.6337 -0.1338 -0.2865
  246MOL0     H33149   6.340   4.787  10.799  0.2338 -1.4651 -1.6654
  246MOL0     H33150   6.459   4.921  10.830  0.6682 -2.8645  0.0440
  246MOL0     H33151   6.338   4.864  10.565 -2.0711  4.6018 -0.8661
  246MOL0     H33152   6.459   4.990  10.608  0.6994  0.4706  2.1265
  246MOL0     H33153   6.572   4.764  10.717  1.5644  2.5936  0.9426
  246MOL0     H33154   6.506   4.706  10.560 -0.5350  1.3857 -0.1206
  246MOL0     H33155   6.701   4.944  10.590  1.9015 -0.6594  1.2515
  246MOL0     H33156   6.739   4.783  10.534 -0.1041  1.1442 -0.0163
  246MOL0     H33157   6.531   4.970  10.388  1.9622  1.7935 -4.6228
  246MOL0     H33158   6.563   4.805  10.340 -1.5795 -0.9210  3.0482
  246MOL0     H33159   6.666   4.956  10.188  1.3728  0.6583 -0.6962
  246MOL0     H33160   6.719   5.057  10.330  1.1925 -0.1843 -0.5402
  246MOL0     H33161   6.802   4.717  10.133 -0.7522 -0.3671  0.7470
  246MOL0     H33162   7.065   4.529  10.226 -0.4329  0.2404  0.3208
  246MOL0     H33163   7.031   4.606  10.069  0.0539  2.1483 -0.3437
  246MOL0     H33164   7.259   4.652  10.256  0.9811 -1.0690 -1.4547
  246MOL0     H33165   7.271   4.572  10.111  1.4031 -0.7303  2.0218
  246MOL0     H33166   7.203   4.869  10.098  0.2497  1.5402 -0.7941
  246MOL0     H33167   7.205   4.745   9.967 -0.2258 -3.1725  1.5359
  246MOL0     H33168   7.459   4.796  10.121  0.1677  0.4864 -1.2974
  246MOL0     H33169   7.412   4.883   9.969 -2.7281  0.3860 -1.0321
  246MOL0     H33170   7.541   4.457   9.890  0.2465  0.1799  2.7024
  246MOL0     H33171   7.779   4.407   9.827  0.4010 -0.7439  3.2623
  246MOL0     H33172   8.285   4.602   9.990  0.6151 -0.7573 -0.3487
  246MOL0     H33173   8.491   4.570   9.917 -1.9366 -2.1065  0.5360
  246MOL0     H33174   8.576   4.600   9.476  0.1137 -0.2781 -0.5904
  246MOL0     H33175   8.686   4.731   9.521 -1.0809  0.7225  0.2324
  246MOL0     H33176   8.747   4.452   9.630  1.9359 -1.4673 -0.4506
  246MOL0     H33177   8.735   4.471   9.454 -0.3134  1.8089 -0.2140
  246MOL0     H33178   8.910   4.593   9.410 -0.8754  0.3240 -0.2122
  246MOL0     H33179   8.916   4.668   9.572  0.2206 -1.7039  1.0487
  246MOL0     H33180   9.026   4.383   9.509 -1.4894 -0.9451  0.3094
  246MOL0     H33181   8.997   4.465   9.668 -1.9520  2.9438 -0.3171
  246MOL0     H33182   9.143   4.654   9.578  1.0482  0.9930 -1.1881
  246MOL0     H33183   9.161   4.557   9.428 -2.8174  1.1681  0.1094
  246MOL0     H33184   9.270   4.377   9.555  0.9085  0.9530 -2.9382
  246MOL0     H33185   9.353   4.525   9.529  2.0791 -3.6863 -0.9802
  246MOL0     H33186   9.208   4.469   9.797  0.9847 -0.0150  0.6315
  246MOL0     H33187   9.334   4.591   9.776  1.2447 -1.6960  0.2119
  246MOL0     H33188   9.497   4.409   9.741 -0.9621  3.5603 -1.9314
  246MOL0     H33189   9.425   4.423   9.896  1.7731  0.2354 -0.6941
  246MOL0     H33190   8.406   4.710   9.525  0.2722  1.6399  0.9081
  246MOL0     H33191   8.166   4.734   9.591  0.0881  3.1432  1.4925
  246MOL0     H33192   7.851   4.839   9.867 -0.9483  0.7470  0.4992
  246MOL0     H33193   7.635   4.872   9.919 -2.2472 -1.2761 -0.1221
  246MOL0     H33194   6.139   5.013  10.332 -0.0982 -2.6403  0.2155
  246MOL0     H33195   5.972   4.964  10.170 -0.1271  3.3784 -0.2930
  246MOL0     H33196   5.484   4.772  10.256 -2.5128 -2.4391 -0.0041
  246MOL0     H33197   5.230   4.757  10.212 -2.7968  1.9059 -1.0773
  246MOL0     H33198   5.005   4.863  10.206 -0.2254 -1.3662 -0.3702
  246MOL0     H33199   5.043   4.694  10.138  0.0633 -0.2826 -1.3594
  246MOL0     H33200   4.876   4.706   9.989  2.1456  0.2248  0.7722
  246MOL0     H33201   4.852   4.876  10.000  0.3964  0.2552  1.1136
  246MOL0     H33202   4.786   4.681  10.233 -0.2399  2.2070  3.0158
  246MOL0     H33203   4.680   4.742  10.103  0.0341  0.4575 -2.1668
  246MOL0     H33204   4.833   4.897  10.320 -0.9863 -1.0869  1.5573
  246MOL0     H33205   4.759   4.971  10.178  3.7327 -2.2591 -3.4449
  246MOL0     H33206   4.423   4.845  10.428 -0.0527  0.7941 -0.9284
  246MOL0     H33207   5.268   5.001   9.886 -0.7503 -1.5374  0.1991
  246MOL0     H33208   5.592   4.997   9.828  0.2009  1.3793 -0.0757
  246MOL0     H33209   5.453   5.103   9.814  1.0796  1.0214 -0.2822
  246MOL0     H33210   5.576   5.146   9.932  2.0446  0.4662 -0.0477
  247MOL0     O33211   3.806  11.023   3.383  0.1229  0.2282  0.1106
  247MOL0     C33212   3.787  10.935   3.297  0.2197 -0.2643 -1.0690
  247MOL0     O33213   3.888  10.867   3.234  0.2818  0.2841  0.5221
  247MOL0     C33214   4.017  10.881   3.282 -0.0948 -0.5566  1.1578
  247MOL0     C33215   4.058  10.903   3.413 -0.2583  0.5829 -0.1429
  247MOL0     C33216   4.190  10.919   3.438 -0.5311 -1.2642 -0.0050
  247MOL0     C33217   4.293  10.897   3.339  0.2497  0.1197 -0.0018
  247MOL0     O33218   4.425  10.921   3.358  0.0593 -0.0316  0.1509
  247MOL0     C33219   4.480  10.967   3.482 -0.1605 -0.1155  0.4397
  247MOL0     C33220   4.622  11.013   3.470 -0.1815 -0.2655 -0.3092
  247MOL0     C33221   4.715  10.895   3.434  0.3185  0.2984 -0.3060
  247MOL0     C33222   4.861  10.937   3.406 -0.7155  0.8903 -0.4292
  247MOL0     C33223   4.935  10.813   3.346 -0.0283 -0.2352  0.9357
  247MOL0     C33224   5.085  10.835   3.341  0.2684 -0.3000 -0.3430
  247MOL0     C33225   5.161  10.711   3.293 -0.2562  0.1468 -0.1613
  247MOL0     C33226   5.309  10.735   3.318  0.0991 -0.6989  0.0184
  247MOL0     N33227   5.386  10.613   3.343  0.9997  0.4171  0.4680
  247MOL0     C33228   5.503  10.608   3.407 -0.2694  0.4512  0.0845
  247MOL0     C33229   5.533  10.481   3.407 -0.4569 -0.5483 -0.4874
  247MOL0     C33230   5.669  10.444   3.475 -0.0923 -0.1670  0.0497
  247MOL0     C33231   5.747  10.327   3.422 -0.1893  0.0460  0.1496
  247MOL0     C33232   5.839  10.344   3.296 -0.4323  0.0738  0.2924
  247MOL0     C33233   5.985  10.394   3.316  0.3331 -0.2874  0.6318
  247MOL0     O33234   6.058  10.298   3.398 -0.0127  0.0567  0.0576
  247MOL0     C33235   6.168  10.333   3.481  0.5686  0.2658 -0.0535
  247MOL0     C33236   6.207  10.474   3.497  0.2869 -0.1452  0.3996
  247MOL0     C33237   6.296  10.514   3.593 -0.3526  0.0117  0.0744
  247MOL0     C33238   6.368  10.419   3.669  0.0947 -0.2832 -0.4718
  247MOL0     C33239   6.466  10.462   3.777  1.4472  0.0978 -0.0934
  247MOL0     O33240   6.509  10.361   3.861 -0.4329 -0.1630  0.1344
  247MOL0     C33241   6.584  10.392   3.978 -0.0932 -0.1695  1.3428
  247MOL0     C33242   6.726  10.428   3.965 -0.2023  0.6870 -0.7068
  247MOL0     C33243   6.794  10.474   4.079  0.7029 -0.0216 -0.0498
  247MOL0     C33244   6.728  10.482   4.201 -1.1080  1.1723 -0.7773
  247MOL0     O33245   6.795  10.541   4.303 -0.0179 -0.3361 -0.7885
  247MOL0     C33246   6.713  10.596   4.409  0.0309  0.4407  1.0102
  247MOL0     C33247   6.800  10.684   4.492  0.5565  0.9577  0.1106
  247MOL0     C33248   6.743  10.716   4.627 -0.4583 -0.4929 -0.5446
  247MOL0     C33249   6.613  10.811   4.633  0.9806 -0.7063 -0.2499
  247MOL0     C33250   6.646  10.953   4.611 -0.2845  0.2043  0.8684
  247MOL0     C33251   6.527  11.047   4.569  0.1097  0.3692 -0.4469
  247MOL0     C33252   6.568  11.187   4.537  1.0609 -0.4155  0.2437
  247MOL0     C33253   6.452  11.289   4.515 -0.6941  0.2109  0.5454
  247MOL0    Cl33254   6.354  11.323   4.659  0.5162 -0.3112  0.0163
  247MOL0     C33255   6.588  10.450   4.210  0.2736 -0.3934  0.6459
  247MOL0     C33256   6.518  10.408   4.096 -0.3371  0.5269 -0.3941
  247MOL0     O33257   6.483  10.584   3.807 -0.2623  0.5806 -0.1520
  247MOL0     C33258   6.332  10.288   3.655  0.1286  0.6875 -0.2877
  247MOL0     C33259   6.234  10.243   3.562  0.3487 -0.0765 -0.2866
  247MOL0     N33260   5.435  10.403   3.344 -0.0942 -0.6015  0.2469
  247MOL0     N33261   5.347  10.486   3.303 -0.8641  0.2053 -0.3981
  247MOL0     C33262   4.252  10.870   3.208 -0.0302  0.9357  0.0058
  247MOL0     C33263   4.109  10.871   3.174  0.4114  0.6798  0.5341
  247MOL0     C33264   3.645  10.936   3.239 -1.1177 -0.2234 -0.5953
  247MOL0     C33265   3.635  10.866   3.123  0.6390  0.2300 -0.2145
  247MOL0     C33266   3.521  10.861   3.049  0.0357 -0.0893 -0.4286
  247MOL0     C33267   3.412  10.923   3.109 -0.5410  0.7100  0.7655
  247MOL0     O33268   3.301  10.945   3.035  0.2584  0.0503 -0.3435
  247MOL0     C33269   3.203  10.836   3.046  0.0048  0.0951  0.0660
  247MOL0     C33270   3.075  10.871   2.980  0.6654  0.6954 -0.0706
  247MOL0     C33271   3.005  10.754   2.908  0.8012 -0.1732 -0.4896
  247MOL0     C33272   2.877  10.806   2.829 -0.5269 -0.5538  0.2868
  247MOL0     C33273   2.785  10.882   2.914 -0.7888 -0.9756  0.2089
  247MOL0     C33274   2.706  10.930   2.991  0.6938 -0.4370 -0.1126
  247MOL0     C33275   3.416  10.990   3.222 -1.0956  0.7793 -0.9050
  247MOL0     C33276   3.537  11.001   3.294 -0.2216 -0.4458  0.7342
  247MOL0     C33277   3.532  11.085   3.416 -0.3641  0.5692 -0.7025
  247MOL0     H33278   3.990  10.935   3.492  0.7389  0.5875  0.7363
  247MOL0     H33279   4.221  10.943   3.539 -1.6116 -1.3010  0.3471
  247MOL0     H33280   4.426  11.055   3.519  0.0299  0.4549 -0.5926
  247MOL0     H33281   4.472  10.897   3.565 -0.5100  1.4193  1.7456
  247MOL0     H33282   4.661  11.065   3.557  1.8023 -0.0933 -1.2568
  247MOL0     H33283   4.626  11.076   3.380 -0.7086 -0.8984 -0.7918
  247MOL0     H33284   4.666  10.849   3.348 -2.7897  1.2402  0.8348
  247MOL0     H33285   4.706  10.815   3.509 -1.4652  0.5295 -0.2255
  247MOL0     H33286   4.877  11.013   3.329 -0.5814  2.1141  0.7768
  247MOL0     H33287   4.911  10.977   3.495 -1.7800  1.9747 -0.2786
  247MOL0     H33288   4.919  10.718   3.398  0.0864 -0.3981  0.6798
  247MOL0     H33289   4.902  10.796   3.243 -0.0837  1.3615  0.6743
  247MOL0     H33290   5.108  10.916   3.272 -0.5172  2.0741  2.0174
  247MOL0     H33291   5.118  10.876   3.437 -0.5514  0.8770 -0.5429
  247MOL0     H33292   5.140  10.710   3.185  0.7637 -0.2920 -0.3630
  247MOL0     H33293   5.130  10.619   3.343  0.9889 -1.0298 -1.4876
  247MOL0     H33294   5.350  10.783   3.228  1.5439 -1.6537  0.1257
  247MOL0     H33295   5.326  10.807   3.398 -0.0378 -0.8854  0.2175
  247MOL0     H33296   5.562  10.688   3.450 -0.4690 -0.0680  1.3747
  247MOL0     H33297   5.729  10.535   3.491 -0.5010  0.5473 -2.1443
  247MOL0     H33298   5.640  10.412   3.575 -1.6138  1.5285  0.1980
  247MOL0     H33299   5.821  10.307   3.499  0.1906  0.0659 -0.2041
  247MOL0     H33300   5.683  10.239   3.408  0.5735 -0.2569 -1.7584
  247MOL0     H33301   5.797  10.416   3.226  0.4919 -1.4649 -1.9683
  247MOL0     H33302   5.840  10.247   3.245 -2.4263  0.4087 -0.4551
  247MOL0     H33303   5.984  10.497   3.353  4.2156  0.1714 -0.1389
  247MOL0     H33304   6.022  10.394   3.213 -0.7193  1.7329  0.2001
  247MOL0     H33305   6.151  10.547   3.439 -0.5270 -0.6024  0.6007
  247MOL0     H33306   6.320  10.619   3.590  0.0278 -0.0366 -3.4631
  247MOL0     H33307   6.776  10.433   3.869  1.0876 -0.2828 -0.1142
  247MOL0     H33308   6.897  10.505   4.067  0.0771  2.3356  0.1532
  247MOL0     H33309   6.631  10.656   4.368 -0.2333 -1.0853 -0.8245
  247MOL0     H33310   6.669  10.516   4.469  0.1966 -1.4195 -1.2412
  247MOL0     H33311   6.899  10.639   4.501  0.9267  1.8192  0.4673
  247MOL0     H33312   6.824  10.770   4.429  1.2683 -0.2678 -1.3569
  247MOL0     H33313   6.712  10.622   4.674 -0.3538 -1.3239 -2.0712
  247MOL0     H33314   6.832  10.753   4.680 -0.4646 -1.7323  0.3841
  247MOL0     H33315   6.564  10.795   4.730 -1.2382 -0.1329 -1.2212
  247MOL0     H33316   6.537  10.783   4.560  1.7303  0.1971 -1.4041
  247MOL0     H33317   6.721  10.956   4.531 -0.5128  1.4213  0.6729
  247MOL0     H33318   6.692  10.991   4.703 -1.2267  3.7246  0.0208
  247MOL0     H33319   6.481  10.998   4.482  2.7652  3.0172 -3.6164
  247MOL0     H33320   6.453  11.046   4.650 -1.1054  0.6685 -1.5145
  247MOL0     H33321   6.624  11.190   4.443 -1.2222  1.5792 -1.1684
  247MOL0     H33322   6.630  11.224   4.620 -0.4772  3.5513 -0.1494
  247MOL0     H33323   6.487  11.386   4.477 -0.4472 -0.2888 -0.5603
  247MOL0     H33324   6.394  11.247   4.432  1.4366 -3.2112  0.5900
  247MOL0     H33325   6.537  10.463   4.305  2.1597  1.2936  1.5165
  247MOL0     H33326   6.411  10.393   4.094 -0.1108 -2.0330  1.7946
  247MOL0     H33327   6.373  10.205   3.712  0.1123 -0.1132 -1.4015
  247MOL0     H33328   6.199  10.140   3.565  1.1653 -0.3940  3.9750
  247MOL0     H33329   4.330  10.857   3.133 -0.0966  1.6107 -0.1836
  247MOL0     H33330   4.069  10.842   3.077  2.2403 -2.3152  0.5439
  247MOL0     H33331   3.729  10.830   3.083  0.3322  1.8059 -2.5974
  247MOL0     H33332   3.517  10.812   2.953  1.4735  1.5633 -1.3790
  247MOL0     H33333   3.197  10.801   3.150 -0.4916 -0.3830 -0.1167
  247MOL0     H33334   3.246  10.758   2.983 -1.1926 -1.0308  0.5921
  247MOL0     H33335   3.092  10.946   2.902 -2.3410  0.1223 -1.4538
  247MOL0     H33336   3.008  10.915   3.055  0.2685  2.1400 -1.2149
  247MOL0     H33337   2.971  10.685   2.986  4.0743 -0.0735  1.2184
  247MOL0     H33338   3.084  10.713   2.844 -0.5240  2.2251 -3.9653
  247MOL0     H33339   2.917  10.874   2.753 -2.1891 -0.0533 -0.1750
  247MOL0     H33340   2.835  10.716   2.783  0.8372 -1.7464  1.2937
  247MOL0     H33341   2.623  10.971   3.046 -1.0751 -3.0207 -0.6270
  247MOL0     H33342   3.325  11.033   3.263  0.3810  3.0368  0.2325
  247MOL0     H33343   3.435  11.125   3.443 -0.0480  1.4016 -0.7763
  247MOL0     H33344   3.569  11.017   3.493  1.5290  0.1615 -1.8853
  247MOL0     H33345   3.596  11.173   3.407  1.6268 -0.8600 -1.4793
  248MOL0     O33346   0.178   9.205  10.303  0.0828  0.2040  0.3590
  248MOL0     C33347   0.176   9.208  10.426 -0.7237  0.6928 -0.3563
  248MOL0     O33348   0.285   9.250  10.507  0.1153  0.9324  0.0546
  248MOL0     C33349   0.406   9.236  10.451 -0.3172  0.1304  0.3259
  248MOL0     C33350   0.449   9.116  10.378 -0.4805  0.1945  0.3189
  248MOL0     C33351   0.581   9.106  10.334 -0.5796 -0.3641 -0.1984
  248MOL0     C33352   0.661   9.213  10.335 -0.1146  0.0134  0.7776
  248MOL0     O33353   0.788   9.198  10.282 -0.1779  0.0400  0.0812
  248MOL0     C33354   0.895   9.226  10.374 -0.8430 -0.0293 -0.3255
  248MOL0     C33355   0.974   9.350  10.320  0.4258 -0.4596 -0.6942
  248MOL0     C33356   1.023   9.320  10.172 -0.1451 -0.1310 -0.4066
  248MOL0     C33357   1.090   9.443  10.104 -0.7283 -0.4388 -0.0728
  248MOL0     C33358   1.119   9.408   9.962 -0.1666 -0.4372  0.0642
  248MOL0     C33359   1.204   9.283   9.940  0.4024 -1.1337  0.9533
  248MOL0     C33360   1.341   9.296  10.010  0.0725 -0.1823 -0.7066
  248MOL0     C33361   1.430   9.187   9.959  0.8444  0.6006 -0.1820
  248MOL0     N33362   1.554   9.185  10.017 -0.6605  0.1194 -0.4831
  248MOL0     C33363   1.620   9.064  10.044  1.0449  0.0546  0.1398
  248MOL0     C33364   1.734   9.102  10.113 -0.4712  0.7012 -0.2912
  248MOL0     C33365   1.847   9.024  10.167  0.2591  0.4277  0.1285
  248MOL0     C33366   1.931   8.963  10.066  0.2635  0.0118  0.0284
  248MOL0     C33367   2.019   8.849  10.118  0.0662  0.9620 -1.1117
  248MOL0     C33368   2.110   8.894  10.242 -0.6823  1.1080  0.0499
  248MOL0     O33369   2.169   9.025  10.227 -0.9266  0.4219 -0.0591
  248MOL0     C33370   2.287   9.047  10.165 -0.3274  0.2495  0.1474
  248MOL0     C33371   2.328   9.180  10.156  0.4051  0.3726 -0.0740
  248MOL0     C33372   2.455   9.209  10.111 -0.7267 -0.2291 -0.6176
  248MOL0     C33373   2.540   9.114  10.060  0.6593  0.0918 -0.1645
  248MOL0     C33374   2.680   9.156  10.018 -0.2031  0.4156  0.2310
  248MOL0     O33375   2.700   9.293  10.011 -0.5361  0.6006 -0.2111
  248MOL0     C33376   2.819   9.336   9.948 -0.7254  0.7713 -0.3638
  248MOL0     C33377   2.799   9.401   9.829 -0.1930 -0.3701 -0.5661
  248MOL0     C33378   2.908   9.426   9.742  0.1548 -0.1996  0.2077
  248MOL0     C33379   3.041   9.383   9.778  0.1871 -0.6178  0.7668
  248MOL0     O33380   3.161   9.376   9.710 -0.2888 -0.1109  0.0732
  248MOL0     C33381   3.163   9.451   9.592 -0.6012 -0.2461 -0.0857
  248MOL0     C33382   3.308   9.448   9.538  1.0534 -0.4171 -0.5998
  248MOL0     C33383   3.412   9.484   9.628 -0.2694 -0.2542 -0.6288
  248MOL0     C33384   3.537   9.485   9.552  0.0438  0.8332 -0.2212
  248MOL0     C33385   3.670   9.495   9.630  0.4132  0.6498 -0.5268
  248MOL0     C33386   3.692   9.369   9.712  0.4267 -0.3767 -0.2229
  248MOL0     C33387   3.817   9.350   9.798 -0.2015  0.2161  0.0978
  248MOL0     C33388   3.832   9.214   9.862  1.1087 -0.3651  0.3270
  248MOL0    Cl33389   3.694   9.174   9.973 -0.3672  0.1416  0.5253
  248MOL0     C33390   3.054   9.319   9.900  0.0616 -0.6272  0.4524
  248MOL0     C33391   2.946   9.292   9.989 -0.8109  0.5820  0.5798
  248MOL0     O33392   2.763   9.069   9.995  0.8626 -0.5725 -0.5027
  248MOL0     C33393   2.493   8.992  10.062 -0.9740  0.0477  0.0403
  248MOL0     C33394   2.369   8.952  10.117 -0.8872 -0.2074 -0.1124
  248MOL0     N33395   1.722   9.238  10.148  0.0175  0.1073  0.7238
  248MOL0     N33396   1.621   9.287  10.078  0.0781 -0.7098  1.0357
  248MOL0     C33397   0.620   9.335  10.400 -0.3610  0.5399  0.1115
  248MOL0     C33398   0.496   9.342  10.470 -0.2531 -0.7390  0.3892
  248MOL0     C33399   0.072   9.134  10.489 -0.0624 -0.5063 -0.1210
  248MOL0     C33400   0.102   9.040  10.588  0.0523  0.2688  0.0760
  248MOL0     C33401   0.002   8.962  10.640  0.4927  0.8878  0.2839
  248MOL0     C33402  -0.134   8.981  10.598  0.0519 -0.5456  0.0745
  248MOL0     O33403  -0.243   8.910  10.647 -0.4978 -0.2991  1.0298
  248MOL0     C33404  -0.222   8.815  10.755 -0.8079  0.6685 -1.5882
  248MOL0     C33405  -0.361   8.801  10.815 -0.7659  0.7488 -0.6244
  248MOL0     C33406  -0.416   8.921  10.884  0.7196  0.0213  0.3198
  248MOL0     C33407  -0.572   8.894  10.896  0.6077 -0.3476  0.2104
  248MOL0     C33408  -0.638   8.989  10.983 -0.4338 -0.8491 -0.0107
  248MOL0     C33409  -0.684   9.074  11.065  0.5617  0.3864  0.4461
  248MOL0     C33410  -0.157   9.063  10.493  0.4110  1.0644 -0.2649
  248MOL0     C33411  -0.056   9.143  10.445  0.5356  0.3785 -0.5703
  248MOL0     C33412  -0.101   9.247  10.346 -0.4967 -0.1104 -0.5510
  248MOL0     H33413   0.377   9.034  10.376 -0.1365 -0.1093 -1.6236
  248MOL0     H33414   0.615   9.007  10.306  0.3028 -0.3539  0.7603
  248MOL0     H33415   0.856   9.249  10.474  1.0037 -1.2280  0.7350
  248MOL0     H33416   0.972   9.149  10.377  1.8464  2.4502 -0.4760
  248MOL0     H33417   1.057   9.362  10.389 -1.4157 -2.4727  2.0604
  248MOL0     H33418   0.902   9.432  10.310 -2.4099 -2.2215  3.0347
  248MOL0     H33419   0.950   9.280  10.101 -0.8941  0.3187  0.1032
  248MOL0     H33420   1.102   9.246  10.191 -0.4430  0.0213  1.6314
  248MOL0     H33421   1.013   9.521  10.103 -0.4832 -0.0777  2.4528
  248MOL0     H33422   1.181   9.473  10.157 -0.3617 -1.4878 -0.0850
  248MOL0     H33423   1.024   9.396   9.909 -0.2309 -0.7476  0.2522
  248MOL0     H33424   1.168   9.490   9.908  0.8845 -0.5172  0.8793
  248MOL0     H33425   1.156   9.189   9.966  0.4835 -0.5682  3.3382
  248MOL0     H33426   1.221   9.283   9.831 -1.5536 -1.3996  0.6099
  248MOL0     H33427   1.326   9.277  10.117 -1.3961 -1.4253 -1.0903
  248MOL0     H33428   1.384   9.396  10.001  0.2182 -0.1697  0.0674
  248MOL0     H33429   1.384   9.088   9.961 -0.1291  1.0490  0.1233
  248MOL0     H33430   1.457   9.217   9.857  0.6385 -1.6908 -0.9618
  248MOL0     H33431   1.600   8.965  10.003  0.6436  1.0939 -2.3608
  248MOL0     H33432   1.904   9.092  10.231 -0.7324  2.4420 -1.0298
  248MOL0     H33433   1.801   8.946  10.228 -0.0618  0.7504  0.3008
  248MOL0     H33434   1.873   8.922   9.983 -1.2831 -0.4849  1.3107
  248MOL0     H33435   1.992   9.045  10.027 -1.0886  1.4509  0.7958
  248MOL0     H33436   2.081   8.816  10.035  0.1247  1.6963 -1.3621
  248MOL0     H33437   1.962   8.761  10.150 -0.8940  2.6589  2.3215
  248MOL0     H33438   2.183   8.816  10.266 -0.1807  1.2938 -0.8160
  248MOL0     H33439   2.044   8.905  10.328  0.5221  0.2709  1.1319
  248MOL0     H33440   2.266   9.260  10.194 -0.0542 -0.3579  0.7503
  248MOL0     H33441   2.496   9.309  10.109  0.1383 -0.5787 -1.9498
  248MOL0     H33442   2.698   9.431   9.803  0.3702  1.3843 -0.8742
  248MOL0     H33443   2.886   9.472   9.646 -3.3565 -1.7926  0.1114
  248MOL0     H33444   3.096   9.404   9.519 -2.3346  1.5070  0.3051
  248MOL0     H33445   3.129   9.554   9.603 -1.6748 -0.5213 -0.6992
  248MOL0     H33446   3.329   9.348   9.498  1.2144 -0.1357 -1.2439
  248MOL0     H33447   3.309   9.510   9.448 -2.0744  0.7923  0.0841
  248MOL0     H33448   3.389   9.579   9.678 -0.9025 -0.5092 -0.4330
  248MOL0     H33449   3.417   9.406   9.705  0.9538 -0.3803 -0.8079
  248MOL0     H33450   3.532   9.576   9.493 -0.6872 -0.0695 -1.5866
  248MOL0     H33451   3.535   9.402   9.481  1.4233  0.0609  0.5743
  248MOL0     H33452   3.672   9.585   9.692 -1.3148  2.2405 -2.5966
  248MOL0     H33453   3.750   9.502   9.556 -2.0720  1.6207 -3.3403
  248MOL0     H33454   3.613   9.355   9.787  2.3523 -3.2632  1.4951
  248MOL0     H33455   3.681   9.289   9.638 -0.3038  0.1282 -0.6674
  248MOL0     H33456   3.823   9.427   9.876  1.9333  1.0535 -0.8029
  248MOL0     H33457   3.906   9.369   9.737 -1.6265 -0.9830 -2.4846
  248MOL0     H33458   3.839   9.140   9.781  3.3855 -2.6319  2.4399
  248MOL0     H33459   3.927   9.218   9.916  1.8289  0.2226 -0.9463
  248MOL0     H33460   3.149   9.277   9.931  1.4083  3.6311  2.9549
  248MOL0     H33461   2.956   9.228  10.076  1.5947 -2.8388 -1.9148
  248MOL0     H33462   2.565   8.920  10.026 -0.5318  0.5412 -0.0686
  248MOL0     H33463   2.349   8.845  10.117  2.1513 -0.9214  1.9330
  248MOL0     H33464   0.693   9.416  10.399  0.3313  0.0842 -3.9865
  248MOL0     H33465   0.472   9.431  10.527  3.0618 -0.1282  1.0727
  248MOL0     H33466   0.196   9.019  10.638 -0.6753 -1.0638  0.9403
  248MOL0     H33467   0.014   8.885  10.717  2.0093  1.8232  1.0364
  248MOL0     H33468  -0.160   8.851  10.837 -4.5417  3.1326  0.4657
  248MOL0     H33469  -0.190   8.720  10.712  5.3950  0.9924  1.2325
  248MOL0     H33470  -0.357   8.726  10.895  0.0067  0.7290 -0.6703
  248MOL0     H33471  -0.426   8.763  10.736  1.3602  0.2497 -2.2133
  248MOL0     H33472  -0.403   9.010  10.821  1.5407 -1.1966 -1.3028
  248MOL0     H33473  -0.368   8.926  10.983  0.6014  0.9431  0.3420
  248MOL0     H33474  -0.609   8.910  10.794 -0.9702  1.2129  0.9851
  248MOL0     H33475  -0.590   8.793  10.935  0.4896  0.8373  3.5547
  248MOL0     H33476  -0.718   9.135  11.147 -1.1016 -0.5821  0.5090
  248MOL0     H33477  -0.255   9.082  10.450  0.3803 -0.8170 -1.1155
  248MOL0     H33478  -0.210   9.257  10.336 -0.5639 -0.5282 -0.2889
  248MOL0     H33479  -0.062   9.341  10.385 -1.1907 -0.4363  1.0227
  248MOL0     H33480  -0.063   9.223  10.246 -1.1255 -0.4826 -0.7094
  249MOL0     O33481   2.054  10.838   0.170  0.0846 -0.3649 -0.0412
  249MOL0     C33482   1.996  10.913   0.246  0.3477 -0.1519  0.2176
  249MOL0     O33483   2.044  10.965   0.361  0.1587 -0.0785 -1.0734
  249MOL0     C33484   2.166  10.928   0.407 -0.5585 -0.5177  0.4678
  249MOL0     C33485   2.187  10.790   0.428  0.1870 -0.1800  0.4775
  249MOL0     C33486   2.291  10.752   0.508 -0.3558 -0.4715  0.1303
  249MOL0     C33487   2.383  10.844   0.561  0.8050 -0.2231  0.4998
  249MOL0     O33488   2.503  10.821   0.631 -0.1083 -0.9342  0.5718
  249MOL0     C33489   2.562  10.677   0.628 -0.1021 -1.0688  1.1280
  249MOL0     C33490   2.633  10.649   0.498 -0.8486  0.3035  0.3650
  249MOL0     C33491   2.709  10.512   0.521  0.2794  0.6687  0.1997
  249MOL0     C33492   2.785  10.473   0.393  0.4365 -0.8085  0.3873
  249MOL0     C33493   2.850  10.330   0.390  0.5136 -0.0239 -0.7373
  249MOL0     C33494   2.864  10.273   0.243 -1.1979  0.3890 -0.6291
  249MOL0     C33495   2.971  10.158   0.233 -0.4482 -0.5650  0.3377
  249MOL0     C33496   3.002  10.113   0.090 -0.6888 -0.1292  0.2378
  249MOL0     N33497   3.129  10.034   0.082  0.6686 -0.2742 -0.6814
  249MOL0     C33498   3.244  10.073   0.022  0.3416 -0.2421  1.1433
  249MOL0     C33499   3.319   9.969   0.025 -0.2084  0.5558  0.8530
  249MOL0     C33500   3.459   9.950  -0.046  1.0098  0.9819 -0.8467
  249MOL0     C33501   3.574   9.977   0.056  0.7590 -0.1951 -0.2822
  249MOL0     C33502   3.552  10.101   0.138 -0.1736 -0.3676 -0.3003
  249MOL0     C33503   3.682  10.140   0.218 -0.0273 -0.0196 -0.7810
  249MOL0     O33504   3.694  10.052   0.326 -0.0062 -0.6680 -0.6615
  249MOL0     C33505   3.793  10.063   0.421  1.1887 -0.2840  0.0044
  249MOL0     C33506   3.773  10.010   0.551  0.6746 -0.2653  0.7991
  249MOL0     C33507   3.874  10.005   0.647  0.6382 -0.2273 -0.3730
  249MOL0     C33508   3.991  10.083   0.630  0.1168 -0.2806 -0.0661
  249MOL0     C33509   4.077  10.119   0.742 -0.5188  0.0417 -0.1224
  249MOL0     O33510   4.071  10.040   0.853 -0.1325  0.3226 -0.3706
  249MOL0     C33511   4.152  10.073   0.959  0.3353 -1.1532  0.0648
  249MOL0     C33512   4.201   9.976   1.049 -0.1743 -0.8961  0.0443
  249MOL0     C33513   4.275  10.009   1.164  0.6765  0.0267 -0.3658
  249MOL0     C33514   4.283  10.141   1.208 -0.4818 -0.5635 -0.9259
  249MOL0     O33515   4.332  10.182   1.338  0.3573  0.2998  0.3985
  249MOL0     C33516   4.467  10.127   1.364 -0.0828 -0.2313 -0.4026
  249MOL0     C33517   4.516  10.190   1.492  0.5345 -0.1109  0.0522
  249MOL0     C33518   4.655  10.136   1.529 -0.0408  0.0174 -0.3004
  249MOL0     C33519   4.728  10.243   1.608  0.6879  0.8234  0.1117
  249MOL0     C33520   4.876  10.217   1.659  0.0928 -0.3193  1.0090
  249MOL0     C33521   4.916  10.333   1.748 -0.2704  0.1130 -0.3502
  249MOL0     C33522   5.058  10.299   1.808 -0.3959  1.1578 -0.1359
  249MOL0     C33523   5.116  10.407   1.897  0.4944  0.1728  0.0732
  249MOL0    Cl33524   5.292  10.369   1.952  0.0692 -0.4173 -0.0104
  249MOL0     C33525   4.239  10.241   1.124  0.9176  0.0868  0.1098
  249MOL0     C33526   4.169  10.208   1.009  0.5596  0.4407 -0.1354
  249MOL0     O33527   4.152  10.218   0.727  0.5303 -0.1273  0.0426
  249MOL0     C33528   4.018  10.138   0.500 -0.1187  0.2485  0.3839
  249MOL0     C33529   3.916  10.126   0.407  0.3758 -0.6728 -0.5703
  249MOL0     N33530   3.257   9.866   0.090  0.0637  0.1071  0.1471
  249MOL0     N33531   3.146   9.904   0.134  0.7110  0.1885  0.0568
  249MOL0     C33532   2.346  10.975   0.543 -1.0985 -0.2845 -0.2799
  249MOL0     C33533   2.237  11.017   0.476 -0.0380 -0.4781 -1.1560
  249MOL0     C33534   1.848  10.926   0.214 -0.0085 -0.5445  0.8016
  249MOL0     C33535   1.794  10.843   0.118 -0.2496  0.3798 -0.4044
  249MOL0     C33536   1.662  10.838   0.088  0.1517 -0.5441  1.2659
  249MOL0     C33537   1.566  10.927   0.148  0.5850 -1.4090 -0.1156
  249MOL0     O33538   1.433  10.925   0.126 -0.3121  0.3231  0.0729
  249MOL0     C33539   1.360  10.810   0.073  0.2930 -0.8454 -0.5884
  249MOL0     C33540   1.345  10.837  -0.077 -0.2394  0.4381  0.1466
  249MOL0     C33541   1.260  10.720  -0.154  1.5353  0.2704 -0.0908
  249MOL0     C33542   1.111  10.754  -0.166 -0.5268  0.1487 -0.4039
  249MOL0     C33543   1.039  10.747  -0.039 -1.1626  0.7134 -0.0768
  249MOL0     C33544   0.979  10.726   0.057  0.9115  0.4290  0.4847
  249MOL0     C33545   1.616  11.015   0.245  0.6650 -0.7937 -0.1002
  249MOL0     C33546   1.759  11.019   0.275 -0.4679 -0.5920  0.0346
  249MOL0     C33547   1.796  11.124   0.383  0.0688  0.4039 -0.2573
  249MOL0     H33548   2.129  10.710   0.383  1.7139 -1.1329  0.1060
  249MOL0     H33549   2.318  10.647   0.506  0.0275 -0.3590 -0.9779
  249MOL0     H33550   2.639  10.682   0.706  0.1392  0.3732  0.8398
  249MOL0     H33551   2.487  10.601   0.650  0.8963 -2.0018  1.3556
  249MOL0     H33552   2.696  10.737   0.486 -0.8646  0.2082 -0.4974
  249MOL0     H33553   2.568  10.638   0.410  0.1061 -0.1179 -0.3086
  249MOL0     H33554   2.643  10.428   0.548 -0.5767  0.4021 -2.4111
  249MOL0     H33555   2.782  10.527   0.600 -0.9471 -0.3438  1.5858
  249MOL0     H33556   2.718  10.485   0.307  3.0498  1.3091 -1.5231
  249MOL0     H33557   2.860  10.552   0.393 -1.1466  0.7930  1.2927
  249MOL0     H33558   2.945  10.335   0.444  0.7900 -1.6244 -1.0192
  249MOL0     H33559   2.792  10.257   0.448  2.7392  0.3077  2.1572
  249MOL0     H33560   2.768  10.236   0.206 -2.9248  1.0663  2.7416
  249MOL0     H33561   2.904  10.353   0.181  0.5888  1.1672  1.3863
  249MOL0     H33562   2.947  10.071   0.294  1.5636 -1.7121 -0.4329
  249MOL0     H33563   3.057  10.208   0.280 -1.2794  1.0276  0.2337
  249MOL0     H33564   2.915  10.061   0.049  0.2092 -2.0613  0.7019
  249MOL0     H33565   3.011  10.205   0.031 -0.5557 -1.0574 -1.2282
  249MOL0     H33566   3.270  10.164  -0.031  1.4850 -1.6424 -0.8821
  249MOL0     H33567   3.470   9.851  -0.090  0.9265  0.5195  0.1359
  249MOL0     H33568   3.468  10.022  -0.128  1.3684  0.6426 -1.1032
  249MOL0     H33569   3.567   9.889   0.121 -0.2478 -3.2820 -4.1382
  249MOL0     H33570   3.675   9.977   0.012  0.5233  0.5923 -0.8531
  249MOL0     H33571   3.471  10.086   0.210 -1.3132 -1.9350 -1.8424
  249MOL0     H33572   3.520  10.181   0.071  0.2429  1.4298  1.5533
  249MOL0     H33573   3.675  10.239   0.264 -1.1566 -0.3001 -0.2942
  249MOL0     H33574   3.764  10.136   0.147 -0.2843  1.4466 -1.1953
  249MOL0     H33575   3.681   9.959   0.575  1.4215 -1.2896  1.5648
  249MOL0     H33576   3.853   9.957   0.742 -2.3412  1.2747 -0.1393
  249MOL0     H33577   4.179   9.871   1.034 -3.9169 -0.2776  0.1847
  249MOL0     H33578   4.312   9.924   1.221  0.6505  0.0681 -0.2886
  249MOL0     H33579   4.457  10.019   1.379  0.8533 -0.6568 -2.5077
  249MOL0     H33580   4.533  10.155   1.282 -1.0459  1.6547 -0.5788
  249MOL0     H33581   4.526  10.298   1.478  0.5988  0.1928  2.0695
  249MOL0     H33582   4.449  10.169   1.576 -2.2555 -1.2621 -2.2977
  249MOL0     H33583   4.642  10.040   1.581 -0.7143 -0.7611 -1.8534
  249MOL0     H33584   4.711  10.109   1.439  0.2246 -1.8658  0.3733
  249MOL0     H33585   4.674  10.249   1.703  2.6293  0.3811  1.2882
  249MOL0     H33586   4.735  10.339   1.555  1.1774  1.7345  1.7706
  249MOL0     H33587   4.948  10.205   1.577 -1.7282 -3.2466 -0.3171
  249MOL0     H33588   4.880  10.119   1.708 -3.1671 -1.5922 -0.9221
  249MOL0     H33589   4.918  10.427   1.691  0.8221  0.3420  0.0268
  249MOL0     H33590   4.853  10.360   1.833  0.0535  0.9623 -0.3673
  249MOL0     H33591   5.129  10.293   1.725 -1.9009 -1.0193 -1.3676
  249MOL0     H33592   5.059  10.204   1.861  4.1994  1.1627  0.1578
  249MOL0     H33593   5.115  10.499   1.837  3.6762  0.8779  0.9502
  249MOL0     H33594   5.050  10.427   1.982  0.2198 -2.3814  0.5505
  249MOL0     H33595   4.231  10.346   1.149  0.3431 -0.5420  2.9097
  249MOL0     H33596   4.129  10.294   0.956  0.5368 -0.3250 -1.3952
  249MOL0     H33597   4.104  10.194   0.465  1.3665 -1.8301  0.5368
  249MOL0     H33598   3.926  10.183   0.315 -0.6249 -0.8457 -0.7998
  249MOL0     H33599   2.405  11.061   0.574  0.1476 -0.8949 -0.8894
  249MOL0     H33600   2.214  11.123   0.480  2.2741  0.0275  0.5859
  249MOL0     H33601   1.850  10.769   0.062  1.1628  0.4445  0.8439
  249MOL0     H33602   1.628  10.760   0.021 -1.5209  1.2723 -0.1650
  249MOL0     H33603   1.270  10.800   0.134  0.2201 -2.2947 -0.8924
  249MOL0     H33604   1.400  10.711   0.097  0.4717 -0.9401 -1.2376
  249MOL0     H33605   1.450  10.837  -0.108 -0.6868  1.2543 -1.5094
  249MOL0     H33606   1.295  10.932  -0.096 -3.6195 -1.6013 -2.1354
  249MOL0     H33607   1.266  10.629  -0.094  1.9685  0.8323  0.7344
  249MOL0     H33608   1.298  10.691  -0.252 -3.7339 -5.1523 -1.1510
  249MOL0     H33609   1.085  10.854  -0.201  0.1093  0.5404  0.2239
  249MOL0     H33610   1.056  10.688  -0.234 -0.2676  0.0139 -0.4848
  249MOL0     H33611   0.911  10.716   0.139 -0.1461 -1.1866 -0.5128
  249MOL0     H33612   1.537  11.070   0.295 -0.4617  0.5650 -3.1107
  249MOL0     H33613   1.694  11.152   0.413  0.9660  0.3901  3.2618
  249MOL0     H33614   1.849  11.078   0.467  0.7155  2.7219  0.6993
  249MOL0     H33615   1.854  11.210   0.349  2.3949 -0.2623  1.7598
  250MOL0     O33616   1.084  10.075   1.451  0.0569 -0.2126 -0.1564
  250MOL0     C33617   1.012  10.145   1.522 -0.1629 -0.6928  0.4719
  250MOL0     O33618   1.048  10.179   1.659  0.1332  0.3520 -0.4912
  250MOL0     C33619   1.146  10.107   1.716 -0.7398  0.7491  0.6140
  250MOL0     C33620   1.114   9.998   1.798  0.7870 -0.4001  0.7270
  250MOL0     C33621   1.210   9.932   1.868  1.0858 -0.3859 -0.1632
  250MOL0     C33622   1.346   9.971   1.866  0.5113 -0.1168 -0.7210
  250MOL0     O33623   1.424   9.907   1.952  0.1596 -0.1597  0.9300
  250MOL0     C33624   1.567   9.929   1.947  0.7618  1.1043  0.1070
  250MOL0     C33625   1.626   9.831   1.849 -0.1458  1.1770  0.2159
  250MOL0     C33626   1.780   9.827   1.870  0.2297  0.6684  0.4029
  250MOL0     C33627   1.826   9.688   1.913 -0.0960 -0.0866  0.1937
  250MOL0     C33628   1.974   9.671   1.913  0.2794  0.4415  0.0258
  250MOL0     C33629   2.019   9.538   1.975  0.3162  0.4506 -0.5596
  250MOL0     C33630   2.057   9.556   2.118 -0.6451  0.3430 -0.6551
  250MOL0     C33631   2.093   9.420   2.184 -0.4813  0.4581 -0.2799
  250MOL0     N33632   1.974   9.344   2.207  0.1229 -0.5973  0.0871
  250MOL0     C33633   1.883   9.373   2.306 -0.9324 -0.7366 -0.8562
  250MOL0     C33634   1.780   9.286   2.285 -0.6475 -0.4603 -0.3194
  250MOL0     C33635   1.642   9.280   2.339 -0.3622  0.4591 -0.6600
  250MOL0     C33636   1.663   9.211   2.486 -0.3169  0.8294  0.4083
  250MOL0     C33637   1.662   9.314   2.589  0.0897 -0.3756 -0.0118
  250MOL0     C33638   1.699   9.272   2.727 -0.1809  0.2641 -0.6078
  250MOL0     O33639   1.831   9.213   2.722  1.1101  0.1500  0.0804
  250MOL0     C33640   1.954   9.284   2.714 -0.3930  0.4721 -0.6590
  250MOL0     C33641   2.044   9.209   2.651 -1.6121  0.1120 -0.0708
  250MOL0     C33642   2.164   9.262   2.602 -0.8358  0.3257  0.4840
  250MOL0     C33643   2.194   9.406   2.619 -0.5311 -0.2309  0.6891
  250MOL0     C33644   2.322   9.466   2.570 -0.2139  0.5079 -0.0146
  250MOL0     O33645   2.378   9.556   2.652 -0.5851  0.5654 -0.5675
  250MOL0     C33646   2.509   9.591   2.621  0.3135  0.7615  0.0322
  250MOL0     C33647   2.622   9.506   2.639 -0.2132  0.7163  0.5582
  250MOL0     C33648   2.751   9.547   2.607  0.2998 -0.2812 -0.1623
  250MOL0     C33649   2.770   9.671   2.555 -0.5826  0.1894 -0.1568
  250MOL0     O33650   2.905   9.707   2.530 -0.0288  0.4229 -0.7187
  250MOL0     C33651   2.950   9.845   2.512  0.5637  0.1630  0.0695
  250MOL0     C33652   3.108   9.845   2.542 -0.0822  0.8461 -0.3108
  250MOL0     C33653   3.177   9.985   2.533 -0.3944  0.1613 -0.0299
  250MOL0     C33654   3.296   9.997   2.624  0.7943  0.8924 -0.5234
  250MOL0     C33655   3.374  10.131   2.613 -0.9148 -0.2809 -1.3593
  250MOL0     C33656   3.482  10.153   2.717 -0.2724 -0.0917  0.6625
  250MOL0     C33657   3.425  10.207   2.846  0.7794  0.7449  0.4224
  250MOL0     C33658   3.535  10.219   2.953 -0.3462  0.3435  0.4861
  250MOL0    Cl33659   3.487  10.287   3.114  0.5075 -0.0174  0.2146
  250MOL0     C33660   2.663   9.763   2.542 -0.3741  0.0863 -0.6190
  250MOL0     C33661   2.531   9.719   2.575  1.0705  0.7067  0.2917
  250MOL0     O33662   2.364   9.423   2.458 -0.7115  0.0521 -0.1962
  250MOL0     C33663   2.096   9.477   2.687 -0.9413  0.3703  0.5463
  250MOL0     C33664   1.975   9.424   2.737  0.3314 -0.2613 -0.9695
  250MOL0     N33665   1.821   9.207   2.175  0.6965 -0.5724 -1.0061
  250MOL0     N33666   1.933   9.243   2.125 -0.6910  1.0682  0.2556
  250MOL0     C33667   1.377  10.077   1.786  0.1071 -0.0959 -0.0017
  250MOL0     C33668   1.280  10.142   1.701  0.6499 -0.6738 -0.5595
  250MOL0     C33669   0.892  10.217   1.465 -0.1131  0.1718 -0.1026
  250MOL0     C33670   0.817  10.289   1.563 -0.3114 -0.0449  0.5679
  250MOL0     C33671   0.704  10.364   1.514  0.9441 -0.2594 -0.2898
  250MOL0     C33672   0.659  10.363   1.385  0.1442 -0.6789 -0.5926
  250MOL0     O33673   0.572  10.468   1.348 -0.6600  0.2115  0.6595
  250MOL0     C33674   0.480  10.435   1.244  0.1259  0.7403  0.0711
  250MOL0     C33675   0.399  10.306   1.281 -0.5604 -0.1715  0.1374
  250MOL0     C33676   0.303  10.265   1.175  0.2314  0.4599 -0.4863
  250MOL0     C33677   0.184  10.351   1.150  0.3679 -0.1334  0.1987
  250MOL0     C33678   0.215  10.463   1.059 -0.2999  0.5464 -0.2749
  250MOL0     C33679   0.258  10.564   0.997  0.5678  0.4198  0.4967
  250MOL0     C33680   0.736  10.294   1.292 -0.8632  0.9926  0.0915
  250MOL0     C33681   0.850  10.220   1.326  0.4769  0.0389 -0.0066
  250MOL0     C33682   0.922  10.152   1.209  0.7262  0.0376 -0.7154
  250MOL0     H33683   1.008   9.979   1.812  1.1651 -1.0209  3.4097
  250MOL0     H33684   1.170   9.848   1.926 -0.2357  1.5770  1.9448
  250MOL0     H33685   1.600  10.030   1.920 -0.2587  0.9738 -1.7478
  250MOL0     H33686   1.601   9.911   2.050 -2.1101  0.6423  1.0456
  250MOL0     H33687   1.601   9.847   1.744 -0.6205 -3.5582 -0.6222
  250MOL0     H33688   1.591   9.731   1.876 -1.9879  0.3380 -4.3954
  250MOL0     H33689   1.814   9.893   1.951  0.4483  0.4101  0.5239
  250MOL0     H33690   1.828   9.859   1.777 -1.2152  1.7868  0.0085
  250MOL0     H33691   1.807   9.681   2.021  0.4257 -0.3442  0.2759
  250MOL0     H33692   1.773   9.608   1.860 -0.8763 -0.4775  1.4892
  250MOL0     H33693   2.009   9.674   1.810 -3.2525  1.5703 -1.2844
  250MOL0     H33694   2.024   9.746   1.974 -1.8359  0.5190  1.7997
  250MOL0     H33695   1.932   9.472   1.966 -1.0591  1.9024  1.1916
  250MOL0     H33696   2.105   9.494   1.924  1.6433 -0.6949  2.4450
  250MOL0     H33697   1.973   9.596   2.175  0.2189  1.2881 -0.0101
  250MOL0     H33698   2.150   9.611   2.126  0.1015 -1.0108  0.4543
  250MOL0     H33699   2.168   9.366   2.126 -0.9610 -1.8957  1.1708
  250MOL0     H33700   2.145   9.429   2.280  0.1028 -1.6604 -0.3634
  250MOL0     H33701   1.876   9.454   2.378 -2.2289  0.0777 -1.8645
  250MOL0     H33702   1.603   9.382   2.346  0.0201  0.4919  1.5443
  250MOL0     H33703   1.578   9.220   2.273  0.2634  0.2281 -1.0680
  250MOL0     H33704   1.587   9.133   2.496  0.3170  0.1128 -0.2017
  250MOL0     H33705   1.760   9.160   2.493 -1.4753 -1.2597  3.0378
  250MOL0     H33706   1.561   9.356   2.599  0.2845  0.2621 -0.6623
  250MOL0     H33707   1.739   9.383   2.556  1.7923 -2.8599 -1.5955
  250MOL0     H33708   1.649   9.187   2.774  2.2087 -0.5737  0.5961
  250MOL0     H33709   1.705   9.357   2.795  0.1214  1.6553 -2.3086
  250MOL0     H33710   2.009   9.107   2.642 -1.9035  0.0143  1.7862
  250MOL0     H33711   2.245   9.207   2.555 -0.4644  2.0637 -1.0183
  250MOL0     H33712   2.604   9.406   2.676 -1.3161 -1.5999 -5.1364
  250MOL0     H33713   2.833   9.477   2.600 -0.0284 -0.9096  1.7784
  250MOL0     H33714   2.941   9.884   2.410 -0.1991  1.2947  0.5544
  250MOL0     H33715   2.900   9.908   2.585 -1.9803 -1.5712 -0.0293
  250MOL0     H33716   3.115   9.803   2.642  2.2074 -0.5759 -1.0048
  250MOL0     H33717   3.140   9.785   2.456 -2.1483  1.5844 -1.6880
  250MOL0     H33718   3.204  10.010   2.430  1.7291  2.2698  0.9393
  250MOL0     H33719   3.096  10.054   2.560  0.4316  0.7960  0.8565
  250MOL0     H33720   3.370   9.923   2.593 -0.4077  0.4809 -2.5607
  250MOL0     H33721   3.274   9.984   2.731  0.2767 -1.8607 -0.8951
  250MOL0     H33722   3.304  10.215   2.612 -0.3258  0.3436  1.4522
  250MOL0     H33723   3.427  10.120   2.518  0.9423 -1.1868 -0.2823
  250MOL0     H33724   3.530  10.057   2.741 -0.7450 -0.2485  0.9969
  250MOL0     H33725   3.555  10.222   2.676  0.2166 -1.9808 -1.8587
  250MOL0     H33726   3.344  10.143   2.883 -0.9182  1.7460 -1.3438
  250MOL0     H33727   3.391  10.310   2.829 -1.4466  0.5778  3.0630
  250MOL0     H33728   3.575  10.117   2.958 -0.7079  0.1334 -0.5583
  250MOL0     H33729   3.614  10.286   2.919  1.0297 -1.1180  0.6796
  250MOL0     H33730   2.692   9.865   2.521  3.6889 -0.5655  0.9021
  250MOL0     H33731   2.450   9.792   2.569  1.2802  0.8602 -1.2125
  250MOL0     H33732   2.129   9.577   2.714  3.6381 -0.9040  0.4832
  250MOL0     H33733   1.902   9.487   2.788  0.2187  0.4399 -1.9774
  250MOL0     H33734   1.476  10.120   1.781  0.3727 -0.8740 -3.3154
  250MOL0     H33735   1.323  10.220   1.639  1.9353 -1.6070 -0.8886
  250MOL0     H33736   0.840  10.291   1.669  2.0943 -0.7453  0.1232
  250MOL0     H33737   0.645  10.421   1.585  0.8627  0.8087 -1.2029
  250MOL0     H33738   0.539  10.409   1.156 -3.1013 -1.9847 -1.5446
  250MOL0     H33739   0.411  10.520   1.244 -1.5033 -0.5193  0.7504
  250MOL0     H33740   0.345  10.335   1.372 -1.1590 -0.7426 -0.0326
  250MOL0     H33741   0.462  10.222   1.312 -1.4442 -1.3992 -1.2807
  250MOL0     H33742   0.266  10.168   1.207 -1.6506  1.0825 -0.6915
  250MOL0     H33743   0.356  10.246   1.081 -0.3127 -0.3893 -0.6242
  250MOL0     H33744   0.105  10.293   1.102 -0.1506  0.9125 -0.2191
  250MOL0     H33745   0.146  10.379   1.248 -1.4062 -4.5761  1.0495
  250MOL0     H33746   0.291  10.641   0.930 -5.0851  0.2215 -3.2634
  250MOL0     H33747   0.715  10.306   1.186  0.9123 -2.0889 -0.7250
  250MOL0     H33748   1.030  10.168   1.210  0.7243  0.2537  2.2471
  250MOL0     H33749   0.891  10.048   1.199 -2.4391  0.9458 -1.3997
  250MOL0     H33750   0.890  10.203   1.117 -1.1765  0.1348 -0.0456
  251MOL0     O33751   2.963   6.210   6.749  0.4716 -0.0064 -0.0039
  251MOL0     C33752   2.870   6.122   6.742 -0.3034  0.3394 -0.1362
  251MOL0     O33753   2.877   6.001   6.680  0.7178 -1.1009  0.9241
  251MOL0     C33754   2.985   5.988   6.589 -1.0132 -0.1717 -0.1450
  251MOL0     C33755   3.034   6.090   6.501  0.9675  1.1089  0.0823
  251MOL0     C33756   3.135   6.067   6.407  0.1604 -0.2067 -0.0448
  251MOL0     C33757   3.201   5.943   6.410  0.1359  0.2108 -0.1419
  251MOL0     O33758   3.315   5.907   6.335 -0.0886 -0.7875 -0.2781
  251MOL0     C33759   3.402   6.020   6.300  0.2246  0.1247  0.3763
  251MOL0     C33760   3.533   5.954   6.234  0.0806 -0.7350  0.5115
  251MOL0     C33761   3.633   5.904   6.331  1.5544  0.7351 -0.2952
  251MOL0     C33762   3.765   5.873   6.273 -0.6304  0.2242  0.3885
  251MOL0     C33763   3.840   5.781   6.359  0.3730 -0.0228 -0.1621
  251MOL0     C33764   3.992   5.749   6.334 -0.2324 -0.0988  0.0230
  251MOL0     C33765   4.034   5.622   6.418  0.7805 -0.6230  0.0974
  251MOL0     C33766   4.171   5.572   6.374 -1.6207  0.1420  0.1845
  251MOL0     N33767   4.272   5.673   6.409 -0.1618 -0.5097 -0.4566
  251MOL0     C33768   4.330   5.768   6.321  0.1699  0.2135 -0.3916
  251MOL0     C33769   4.435   5.820   6.387  0.2050  0.2038  0.0308
  251MOL0     C33770   4.530   5.932   6.340 -0.3477  0.2332 -0.4268
  251MOL0     C33771   4.580   5.915   6.189  0.2024  0.5597 -0.0569
  251MOL0     C33772   4.665   6.027   6.137 -0.8782  0.0110 -0.1817
  251MOL0     C33773   4.799   5.998   6.206 -0.4475 -0.4107  0.6062
  251MOL0     O33774   4.890   6.109   6.169  0.2410  0.0482  0.0011
  251MOL0     C33775   5.024   6.099   6.194 -0.1872 -0.3309  0.6183
  251MOL0     C33776   5.117   6.184   6.136 -0.9110 -0.4317 -0.0499
  251MOL0     C33777   5.253   6.175   6.159  0.5088  0.4561 -0.4769
  251MOL0     C33778   5.308   6.088   6.246 -0.1232  0.2160 -0.0760
  251MOL0     C33779   5.460   6.078   6.250 -0.3769 -0.1028  0.6567
  251MOL0     O33780   5.514   6.015   6.357  0.0106 -0.3707 -0.2722
  251MOL0     C33781   5.650   6.028   6.386  0.4765 -0.8547 -0.0238
  251MOL0     C33782   5.729   6.142   6.354 -0.0409  0.2854 -1.0428
  251MOL0     C33783   5.866   6.134   6.366  0.7839  0.9332 -0.6114
  251MOL0     C33784   5.924   6.012   6.406  1.0480 -0.5051 -0.6158
  251MOL0     O33785   6.055   5.985   6.381 -0.0302 -0.0268 -0.6784
  251MOL0     C33786   6.151   6.088   6.356  0.4053  0.1681 -0.1993
  251MOL0     C33787   6.292   6.032   6.322 -0.2226  0.0633 -0.5528
  251MOL0     C33788   6.288   5.943   6.201  0.2539 -0.7454 -0.1469
  251MOL0     C33789   6.424   5.885   6.175  0.4084 -0.8377 -0.9489
  251MOL0     C33790   6.443   5.761   6.262 -0.9369 -0.1830 -0.6345
  251MOL0     C33791   6.601   5.724   6.278 -0.5483 -0.2256  0.5909
  251MOL0     C33792   6.658   5.645   6.156  0.0597 -0.4600  0.5051
  251MOL0     C33793   6.807   5.626   6.149 -0.5208  0.3726  0.5383
  251MOL0    Cl33794   6.893   5.775   6.177  0.2470  0.2497  0.4697
  251MOL0     C33795   5.850   5.907   6.454  0.7862 -0.4427 -0.0423
  251MOL0     C33796   5.709   5.919   6.456  0.7726  0.2416 -0.6345
  251MOL0     O33797   5.520   6.127   6.151  0.0806  0.0420 -0.1310
  251MOL0     C33798   5.223   5.999   6.315 -0.1089 -0.6783 -0.2803
  251MOL0     C33799   5.081   6.006   6.282 -0.2243 -0.4350  0.7923
  251MOL0     N33800   4.439   5.765   6.513  0.1626  0.5638 -0.4413
  251MOL0     N33801   4.348   5.673   6.525  0.8554  0.1576 -0.1344
  251MOL0     C33802   3.152   5.834   6.492 -0.4939  0.7166 -0.0232
  251MOL0     C33803   3.043   5.858   6.579  0.2642  0.1778  0.3164
  251MOL0     C33804   2.737   6.148   6.814 -0.3758  0.0106  0.2684
  251MOL0     C33805   2.621   6.090   6.769  0.0198 -0.3681  0.0112
  251MOL0     C33806   2.496   6.129   6.823  0.4831 -0.8195  0.1454
  251MOL0     C33807   2.486   6.216   6.931  0.1702  0.6095  0.7536
  251MOL0     O33808   2.367   6.249   6.995 -1.0896 -0.0962  0.0297
  251MOL0     C33809   2.346   6.250   7.130 -0.4765 -0.3182 -1.0300
  251MOL0     C33810   2.196   6.284   7.147 -0.0484  0.2063 -0.4837
  251MOL0     C33811   2.164   6.296   7.299 -1.2574 -0.0682 -0.1038
  251MOL0     C33812   2.017   6.340   7.337 -0.2355  0.0776  0.1022
  251MOL0     C33813   1.905   6.251   7.302 -0.2079 -0.3356 -0.0266
  251MOL0     C33814   1.807   6.181   7.304  0.1867  0.3362 -0.4253
  251MOL0     C33815   2.605   6.255   6.977 -0.4323 -0.8801 -0.3205
  251MOL0     C33816   2.727   6.234   6.921 -0.6789 -0.0165  0.2524
  251MOL0     C33817   2.853   6.288   6.993  0.0929 -0.2201 -0.1594
  251MOL0     H33818   2.989   6.189   6.505 -1.9248 -0.1283  0.7294
  251MOL0     H33819   3.167   6.144   6.337 -0.0324  0.6835  0.8160
  251MOL0     H33820   3.350   6.075   6.221 -2.1145 -2.0019  0.3349
  251MOL0     H33821   3.422   6.085   6.386 -1.7450  2.5025 -0.8373
  251MOL0     H33822   3.582   6.022   6.163 -1.8424 -1.0407 -1.2119
  251MOL0     H33823   3.508   5.875   6.162  0.0441 -0.3753  0.1193
  251MOL0     H33824   3.593   5.813   6.376  3.8064  0.2702  0.9360
  251MOL0     H33825   3.650   5.979   6.409 -3.7146  1.3108  0.6694
  251MOL0     H33826   3.746   5.825   6.176 -1.8063  0.9441  0.2510
  251MOL0     H33827   3.824   5.964   6.264  1.4516 -1.0215  0.6354
  251MOL0     H33828   3.829   5.823   6.460 -0.9218 -0.7610  0.0227
  251MOL0     H33829   3.779   5.691   6.365 -1.6163  1.2338 -0.7687
  251MOL0     H33830   4.017   5.728   6.230  1.2412  3.9440 -0.6442
  251MOL0     H33831   4.056   5.832   6.368 -0.0676  0.4561 -1.5788
  251MOL0     H33832   3.967   5.538   6.398  1.0103 -0.0581 -3.6537
  251MOL0     H33833   4.029   5.654   6.523  1.1793  1.8080 -0.5728
  251MOL0     H33834   4.187   5.474   6.420 -1.5554 -0.3274 -0.8253
  251MOL0     H33835   4.176   5.548   6.268  2.3933 -2.0155  0.6623
  251MOL0     H33836   4.286   5.809   6.230  2.7691 -3.1516 -3.4793
  251MOL0     H33837   4.474   6.026   6.338 -2.8680 -1.1663  0.1213
  251MOL0     H33838   4.612   5.944   6.411 -0.1046  1.5679 -0.8905
  251MOL0     H33839   4.629   5.818   6.179 -2.6132 -1.0537  0.6409
  251MOL0     H33840   4.493   5.902   6.124 -0.6557  2.8004  0.5800
  251MOL0     H33841   4.622   6.122   6.171  0.7637  0.2529  1.3605
  251MOL0     H33842   4.669   6.036   6.028  1.3082  1.1650 -0.0613
  251MOL0     H33843   4.839   5.900   6.178 -1.9278 -1.7293  2.7066
  251MOL0     H33844   4.778   6.000   6.314 -2.2757  0.9831  0.2726
  251MOL0     H33845   5.073   6.254   6.066 -1.9352  0.7766  1.7047
  251MOL0     H33846   5.313   6.244   6.100  0.4600 -0.8234 -2.1007
  251MOL0     H33847   5.671   6.229   6.327  1.2256  1.5987  0.3126
  251MOL0     H33848   5.909   6.234   6.368  1.9569  0.4442  1.9833
  251MOL0     H33849   6.123   6.161   6.279 -0.3489  1.3910  1.1755
  251MOL0     H33850   6.163   6.144   6.449 -3.2682  0.5929  0.1712
  251MOL0     H33851   6.364   6.111   6.300 -2.5574  1.6732 -3.1819
  251MOL0     H33852   6.325   5.977   6.410 -0.2866  0.1317 -0.4859
  251MOL0     H33853   6.210   5.868   6.210  0.6830 -1.1114  0.6194
  251MOL0     H33854   6.252   6.010   6.122 -2.7485  0.6159  2.1904
  251MOL0     H33855   6.501   5.960   6.197  1.3229 -1.4906 -1.8463
  251MOL0     H33856   6.437   5.856   6.070  3.5382 -1.0347 -0.5874
  251MOL0     H33857   6.386   5.675   6.227  0.9256 -0.3175 -3.6557
  251MOL0     H33858   6.407   5.786   6.363  0.8609  0.4295 -0.1022
  251MOL0     H33859   6.651   5.820   6.293 -4.6882  2.1807  0.4100
  251MOL0     H33860   6.621   5.668   6.370  1.5427 -3.4979 -1.6294
  251MOL0     H33861   6.628   5.703   6.068 -1.8297  2.5959  2.9597
  251MOL0     H33862   6.602   5.553   6.143 -1.1867  0.4208 -0.6265
  251MOL0     H33863   6.850   5.552   6.217  0.4694 -0.1332 -0.5976
  251MOL0     H33864   6.835   5.588   6.050 -0.6979 -0.6515  0.8717
  251MOL0     H33865   5.900   5.815   6.479  1.6792 -0.1982 -0.8708
  251MOL0     H33866   5.641   5.839   6.486 -1.7413  2.3202 -0.4389
  251MOL0     H33867   5.273   5.928   6.379 -0.3844  1.3039  2.2943
  251MOL0     H33868   5.021   5.926   6.324 -1.2685 -0.0563  0.0554
  251MOL0     H33869   3.182   5.730   6.496 -1.7808  0.3639  2.1111
  251MOL0     H33870   3.005   5.775   6.636 -1.7856 -0.7793 -2.2611
  251MOL0     H33871   2.609   6.019   6.688 -1.2967  0.9738 -1.0227
  251MOL0     H33872   2.412   6.087   6.767  0.6567 -0.5831 -0.3009
  251MOL0     H33873   2.408   6.329   7.172 -0.2225 -1.2039  0.3353
  251MOL0     H33874   2.367   6.155   7.180 -0.4799 -0.5901 -1.5390
  251MOL0     H33875   2.133   6.200   7.117 -2.1235  0.8234  1.8767
  251MOL0     H33876   2.180   6.382   7.102  2.5869  1.2631  0.6720
  251MOL0     H33877   2.235   6.368   7.340  1.0067 -2.0213 -0.3884
  251MOL0     H33878   2.186   6.202   7.351 -0.6083 -0.2350 -0.6699
  251MOL0     H33879   2.014   6.338   7.446  0.1135 -0.2148  0.1095
  251MOL0     H33880   1.998   6.438   7.293 -2.4379 -0.4414 -0.2163
  251MOL0     H33881   1.723   6.114   7.297 -0.0900  0.6374  0.0108
  251MOL0     H33882   2.599   6.310   7.071  2.4685 -0.8549 -0.0735
  251MOL0     H33883   2.931   6.212   7.003 -0.0204 -0.4021 -0.6391
  251MOL0     H33884   2.894   6.375   6.941 -1.0470 -0.6701 -1.8699
  251MOL0     H33885   2.839   6.332   7.093  0.3828  1.8813 -0.9877
  252MOL0     O33886   4.781   3.147   5.751 -0.1116  1.2366 -0.0387
  252MOL0     C33887   4.728   3.256   5.771 -0.1120 -0.2191 -0.3785
  252MOL0     O33888   4.799   3.376   5.751 -0.3838  0.3250  0.6360
  252MOL0     C33889   4.934   3.380   5.727 -0.9672  0.0604  0.0234
  252MOL0     C33890   5.029   3.278   5.769 -0.2299  0.0020  1.4384
  252MOL0     C33891   5.164   3.293   5.731 -0.4591 -0.3499  0.4700
  252MOL0     C33892   5.208   3.408   5.669 -0.2953  0.3032  0.3902
  252MOL0     O33893   5.339   3.431   5.632  0.1274  0.4663 -0.5040
  252MOL0     C33894   5.418   3.486   5.737 -1.0237 -0.0382 -0.7359
  252MOL0     C33895   5.568   3.512   5.682  0.6133 -0.4382  0.1868
  252MOL0     C33896   5.652   3.586   5.778 -1.3324  0.4077 -0.0156
  252MOL0     C33897   5.800   3.560   5.769  0.1739  0.6058 -0.4625
  252MOL0     C33898   5.895   3.657   5.842  0.6003 -0.0804 -0.4179
  252MOL0     C33899   6.035   3.637   5.787  0.2006 -0.3904 -0.0084
  252MOL0     C33900   6.122   3.741   5.861  0.2625 -0.1227 -0.1897
  252MOL0     C33901   6.136   3.876   5.785  0.0897  0.1272 -0.1780
  252MOL0     N33902   6.266   3.934   5.813 -0.0087 -0.1004 -0.1875
  252MOL0     C33903   6.339   3.931   5.923  0.0797  0.0552  0.6349
  252MOL0     C33904   6.456   3.995   5.884 -0.5752 -1.3414  0.1225
  252MOL0     C33905   6.577   4.047   5.957 -0.1844 -0.5622 -0.3451
  252MOL0     C33906   6.661   3.963   6.046 -0.6156  0.2262 -1.1214
  252MOL0     C33907   6.786   4.030   6.093 -0.0090 -0.4508 -0.6918
  252MOL0     C33908   6.765   4.132   6.208 -1.1711  0.8451 -0.8540
  252MOL0     O33909   6.807   4.091   6.341 -0.6918  0.0007  0.1954
  252MOL0     C33910   6.933   4.115   6.380  0.0484 -0.3002  0.2396
  252MOL0     C33911   7.032   4.177   6.301 -0.0545  0.5726 -0.3992
  252MOL0     C33912   7.152   4.207   6.353 -0.1928  0.6946 -1.0249
  252MOL0     C33913   7.181   4.177   6.490 -0.1423  0.3330 -0.8076
  252MOL0     C33914   7.315   4.200   6.541  0.4346  0.1443 -0.4615
  252MOL0     O33915   7.326   4.148   6.669  0.2685  0.3123 -0.6350
  252MOL0     C33916   7.445   4.162   6.730  0.9188  0.2272  0.0819
  252MOL0     C33917   7.465   4.266   6.819  0.6510 -0.9149  0.3536
  252MOL0     C33918   7.582   4.271   6.893 -0.9505  0.5135 -0.6074
  252MOL0     C33919   7.690   4.183   6.872 -0.4998 -0.6970 -0.1428
  252MOL0     O33920   7.808   4.205   6.935 -0.3349 -0.3577 -0.2347
  252MOL0     C33921   7.860   4.093   7.011 -0.6169 -0.1634 -0.5641
  252MOL0     C33922   7.986   4.135   7.085  0.8390 -0.2763 -0.3969
  252MOL0     C33923   8.087   4.035   7.066 -0.3502  0.3474 -0.1504
  252MOL0     C33924   8.219   4.081   7.117 -0.6927  0.5566  0.6217
  252MOL0     C33925   8.276   3.977   7.212 -0.6594 -0.3444 -0.4321
  252MOL0     C33926   8.417   4.003   7.254 -0.6808  1.3548  0.7530
  252MOL0     C33927   8.517   3.983   7.131 -0.1269  0.6677  0.1431
  252MOL0     C33928   8.656   4.020   7.186  0.0170  0.2052  0.5997
  252MOL0    Cl33929   8.702   3.879   7.275 -0.8946  0.1079  0.2602
  252MOL0     C33930   7.667   4.078   6.776 -0.2111  0.0618 -0.5141
  252MOL0     C33931   7.544   4.067   6.711 -0.1510 -0.3010 -0.0581
  252MOL0     O33932   7.393   4.275   6.488  0.3928  0.7443  0.1982
  252MOL0     C33933   7.080   4.120   6.571 -0.2742  0.6876 -0.8421
  252MOL0     C33934   6.958   4.089   6.513  0.4353  0.1038  0.2067
  252MOL0     N33935   6.449   4.025   5.750  0.0054 -0.5370  0.4027
  252MOL0     N33936   6.334   3.983   5.706  0.6186 -0.4302  0.3918
  252MOL0     C33937   5.115   3.508   5.636 -0.0486  0.1458  0.7014
  252MOL0     C33938   4.983   3.491   5.657  0.7258 -0.1656  0.3845
  252MOL0     C33939   4.579   3.267   5.800 -0.3531 -0.0641  0.8223
  252MOL0     C33940   4.526   3.397   5.812  0.6000 -0.0639  0.0411
  252MOL0     C33941   4.392   3.416   5.834  0.2428 -0.1248  0.3257
  252MOL0     C33942   4.301   3.303   5.858 -0.2992 -0.4044 -0.0069
  252MOL0     O33943   4.174   3.341   5.877  0.1455 -0.0467  0.4463
  252MOL0     C33944   4.067   3.255   5.921  0.0773 -0.1678 -0.3272
  252MOL0     C33945   4.019   3.179   5.805  0.0860 -0.2728  0.5856
  252MOL0     C33946   4.005   3.258   5.671 -0.5909  1.1229  0.0065
  252MOL0     C33947   3.913   3.375   5.680 -0.3250 -0.7588  1.1350
  252MOL0     C33948   3.783   3.339   5.719 -0.0530 -0.0420  0.7204
  252MOL0     C33949   3.676   3.297   5.757 -0.4229 -1.1332 -0.2196
  252MOL0     C33950   4.354   3.175   5.858  0.3804 -0.4273 -0.2357
  252MOL0     C33951   4.491   3.149   5.827  0.7679  0.1783  1.4282
  252MOL0     C33952   4.532   3.004   5.827  0.7116 -0.0588  0.0653
  252MOL0     H33953   4.999   3.189   5.823  0.3304 -0.6194  0.7576
  252MOL0     H33954   5.239   3.216   5.745  0.2306  0.2106 -0.1028
  252MOL0     H33955   5.385   3.585   5.769  4.4161  1.6255  0.8307
  252MOL0     H33956   5.423   3.411   5.816 -0.5689  0.7343 -0.0193
  252MOL0     H33957   5.558   3.565   5.586 -1.2133  0.8476  1.0211
  252MOL0     H33958   5.614   3.414   5.671  3.7784  0.9980 -0.3085
  252MOL0     H33959   5.627   3.562   5.882  1.3574 -1.3749  0.3226
  252MOL0     H33960   5.649   3.693   5.756 -1.3276  1.3868  3.9782
  252MOL0     H33961   5.818   3.462   5.813 -0.6191  0.7834  0.2682
  252MOL0     H33962   5.824   3.569   5.662  0.3285 -1.1762 -0.6054
  252MOL0     H33963   5.854   3.759   5.843  4.1091  1.4599  0.2756
  252MOL0     H33964   5.896   3.625   5.947  0.3621 -1.0390 -0.7000
  252MOL0     H33965   6.075   3.537   5.804  2.1785  0.5239  1.1212
  252MOL0     H33966   6.035   3.660   5.680  2.1217  2.7776  0.5085
  252MOL0     H33967   6.217   3.690   5.880  0.0092 -0.2602  0.7906
  252MOL0     H33968   6.083   3.750   5.963  0.7085 -1.4322  0.1178
  252MOL0     H33969   6.105   3.876   5.680 -0.3018  1.8510 -0.0959
  252MOL0     H33970   6.069   3.942   5.841  0.6840 -0.2785  1.0357
  252MOL0     H33971   6.319   3.881   6.018 -0.3398 -1.3097 -0.1489
  252MOL0     H33972   6.647   4.080   5.880 -0.9376 -0.7158 -1.1073
  252MOL0     H33973   6.546   4.141   6.003  0.8931 -0.0614 -0.6072
  252MOL0     H33974   6.611   3.933   6.139  1.5059  2.4611  0.9035
  252MOL0     H33975   6.692   3.871   5.995 -0.4390 -0.0325 -0.5606
  252MOL0     H33976   6.826   4.091   6.012 -2.0531  2.5913  0.4370
  252MOL0     H33977   6.861   3.960   6.133  0.6855  1.9674  2.7061
  252MOL0     H33978   6.658   4.153   6.211 -1.2003  1.0205  3.6985
  252MOL0     H33979   6.816   4.224   6.175  1.1538  0.7340  2.0847
  252MOL0     H33980   7.020   4.183   6.194 -1.1718 -2.0793 -0.5024
  252MOL0     H33981   7.233   4.246   6.291  1.4162 -1.0368 -0.0833
  252MOL0     H33982   7.377   4.329   6.827  0.8553 -0.9020  3.7823
  252MOL0     H33983   7.605   4.336   6.976 -1.6976 -2.1399  1.8384
  252MOL0     H33984   7.785   4.053   7.079 -0.1585 -0.9258 -0.5027
  252MOL0     H33985   7.887   4.017   6.937 -3.0776 -2.8779  1.1358
  252MOL0     H33986   8.020   4.232   7.050  0.3756  0.3524  0.8206
  252MOL0     H33987   7.974   4.132   7.194  2.0822  1.3873 -0.1763
  252MOL0     H33988   8.053   3.944   7.117 -2.8352 -0.0394 -2.3174
  252MOL0     H33989   8.099   4.016   6.959 -0.7713 -1.6463  0.1102
  252MOL0     H33990   8.205   4.172   7.175  1.4067  0.6210  1.1305
  252MOL0     H33991   8.287   4.097   7.032  2.0367  2.7486  2.9982
  252MOL0     H33992   8.276   3.881   7.159  1.7384  0.6231 -2.3897
  252MOL0     H33993   8.215   3.959   7.301  0.8256 -0.5452  0.5918
  252MOL0     H33994   8.432   4.101   7.301  1.2538  0.6111  1.8007
  252MOL0     H33995   8.440   3.933   7.335 -1.0050 -1.9045 -1.7983
  252MOL0     H33996   8.514   4.054   7.047  0.5130  1.0203  0.4135
  252MOL0     H33997   8.504   3.885   7.085  1.4043  1.1104 -1.3199
  252MOL0     H33998   8.723   4.016   7.100 -2.3814 -0.0453 -1.3451
  252MOL0     H33999   8.664   4.100   7.261 -1.2451 -2.5810  3.9762
  252MOL0     H34000   7.752   4.019   6.746  1.7176  3.1690 -1.6825
  252MOL0     H34001   7.521   3.985   6.643  0.0579 -0.0657 -0.4171
  252MOL0     H34002   7.096   4.100   6.677 -1.2794  0.1738 -0.7673
  252MOL0     H34003   6.873   4.051   6.568  0.3830  0.0174  0.0654
  252MOL0     H34004   5.137   3.606   5.594 -0.7697  0.2995  0.6666
  252MOL0     H34005   4.918   3.576   5.638  2.1052  1.1385  1.2609
  252MOL0     H34006   4.587   3.487   5.817 -1.4365  1.4171 -0.7122
  252MOL0     H34007   4.347   3.515   5.840  1.3808  0.8201 -3.6478
  252MOL0     H34008   3.991   3.329   5.950  0.4237  1.5146 -3.2832
  252MOL0     H34009   4.086   3.196   6.011 -2.5559  1.2671  1.2893
  252MOL0     H34010   3.923   3.141   5.840 -0.8301 -0.4758 -1.9489
  252MOL0     H34011   4.089   3.099   5.778  2.2603  1.2953  1.2779
  252MOL0     H34012   3.980   3.190   5.589 -0.4677 -0.3014  1.1085
  252MOL0     H34013   4.103   3.294   5.641 -0.3483 -1.6431 -3.1258
  252MOL0     H34014   3.957   3.453   5.743 -0.2747  1.5549 -1.5610
  252MOL0     H34015   3.900   3.416   5.579  0.4583 -2.4329  0.3261
  252MOL0     H34016   3.581   3.260   5.788 -1.2255  1.6307  0.9533
  252MOL0     H34017   4.272   3.108   5.883 -1.3434  1.9748  1.0641
  252MOL0     H34018   4.593   2.984   5.916  0.4207  2.5334  0.9437
  252MOL0     H34019   4.444   2.940   5.817 -1.8782  3.3942 -1.3002
  252MOL0     H34020   4.602   2.981   5.746  1.9192  1.4837  0.6129
  253MOL0     O34021   3.868   4.484   6.778 -0.0864 -0.4301  0.0503
  253MOL0     C34022   3.928   4.399   6.712 -0.0208  0.5397 -0.3675
  253MOL0     O34023   4.056   4.412   6.673 -0.0852 -0.2917  0.1798
  253MOL0     C34024   4.120   4.533   6.699 -0.2395  0.1119  0.2524
  253MOL0     C34025   4.246   4.518   6.762 -0.7893  0.2091  0.9085
  253MOL0     C34026   4.338   4.627   6.772  0.4287 -0.5564 -0.4955
  253MOL0     C34027   4.313   4.748   6.706 -1.0650 -0.4486 -0.3111
  253MOL0     O34028   4.401   4.847   6.734 -0.5128  0.1079 -0.1748
  253MOL0     C34029   4.462   4.918   6.626 -0.4217  0.1369  0.2618
  253MOL0     C34030   4.428   5.067   6.635  0.2184  0.2958  0.2386
  253MOL0     C34031   4.494   5.127   6.765 -1.0146 -0.2314 -0.7741
  253MOL0     C34032   4.476   5.273   6.773  0.0414 -0.1787 -0.5434
  253MOL0     C34033   4.562   5.330   6.891  0.3405  0.3575  0.3265
  253MOL0     C34034   4.538   5.480   6.906  0.4232 -0.2775 -0.0873
  253MOL0     C34035   4.618   5.558   6.801 -0.0665 -0.9590  0.6545
  253MOL0     C34036   4.611   5.712   6.814  0.7400 -0.7229 -0.3181
  253MOL0     N34037   4.715   5.751   6.909 -0.1346 -0.6798  0.1558
  253MOL0     C34038   4.843   5.710   6.890  0.0181  0.1603 -0.7847
  253MOL0     C34039   4.899   5.729   7.016 -0.3106 -0.4216 -0.7867
  253MOL0     C34040   5.045   5.716   7.051 -0.3907 -0.2525 -0.7195
  253MOL0     C34041   5.114   5.859   7.066 -0.3366  1.5546  0.8002
  253MOL0     C34042   5.070   5.946   7.184 -0.6909 -0.0192 -0.5902
  253MOL0     C34043   5.185   6.054   7.190 -0.3349  0.1891 -0.0660
  253MOL0     O34044   5.304   5.986   7.249 -0.0596  0.4327  0.8787
  253MOL0     C34045   5.407   6.074   7.270  0.0481  0.3617  0.6700
  253MOL0     C34046   5.415   6.213   7.232  0.7544 -0.6873  0.1232
  253MOL0     C34047   5.525   6.289   7.267 -0.3951  0.3877  0.6143
  253MOL0     C34048   5.647   6.219   7.317  0.4834 -1.1125  0.2359
  253MOL0     C34049   5.768   6.297   7.345  0.7313 -0.5097 -0.4772
  253MOL0     O34050   5.886   6.235   7.351 -0.4155 -0.1085  0.0366
  253MOL0     C34051   6.009   6.297   7.375  0.5342 -0.3274 -0.5627
  253MOL0     C34052   6.110   6.233   7.445  0.2025 -0.0736 -0.1254
  253MOL0     C34053   6.230   6.313   7.470  1.1660  0.1546 -0.4434
  253MOL0     C34054   6.249   6.449   7.429  0.3331  0.3788  0.1648
  253MOL0     O34055   6.368   6.506   7.441  0.3612 -0.6950  0.1781
  253MOL0     C34056   6.353   6.643   7.482  0.7026 -0.4529  0.7339
  253MOL0     C34057   6.481   6.701   7.541  0.4760 -0.0166 -0.3984
  253MOL0     C34058   6.589   6.704   7.433 -0.5845 -0.1287  0.8330
  253MOL0     C34059   6.698   6.804   7.461  0.4793  0.2814  0.5117
  253MOL0     C34060   6.828   6.778   7.394 -0.3754 -0.0079  0.3978
  253MOL0     C34061   6.929   6.891   7.436 -0.2110 -0.0564  1.4220
  253MOL0     C34062   7.075   6.860   7.444  0.4455  0.4285 -0.5081
  253MOL0     C34063   7.150   6.988   7.442  0.3382 -0.4689 -0.0686
  253MOL0    Cl34064   7.305   6.965   7.546  0.0737 -0.4846 -0.5642
  253MOL0     C34065   6.152   6.497   7.342  0.0990  0.4486 -0.0192
  253MOL0     C34066   6.039   6.420   7.316 -0.2796  0.0744  0.2282
  253MOL0     O34067   5.750   6.422   7.366 -0.0918 -0.0107  0.3270
  253MOL0     C34068   5.637   6.085   7.338 -0.2986 -0.1020  0.3253
  253MOL0     C34069   5.516   6.016   7.328 -0.3642  0.0389 -0.0969
  253MOL0     N34070   4.803   5.778   7.104  0.5457 -0.8362 -0.3097
  253MOL0     N34071   4.695   5.791   7.041 -0.6074  1.1609 -0.5121
  253MOL0     C34072   4.191   4.768   6.653 -0.5246 -0.3848  0.2815
  253MOL0     C34073   4.092   4.663   6.646  0.0731  0.0203 -0.0751
  253MOL0     C34074   3.852   4.281   6.664 -0.1668 -0.9850  0.5882
  253MOL0     C34075   3.922   4.190   6.585 -0.3791 -0.2781  0.3334
  253MOL0     C34076   3.860   4.076   6.542 -0.7542 -0.0103 -0.7003
  253MOL0     C34077   3.734   4.042   6.578  1.2031  0.3442 -0.2820
  253MOL0     O34078   3.674   3.922   6.549  0.3135 -0.4536  0.3766
  253MOL0     C34079   3.739   3.815   6.491 -0.3605  0.1658  0.3079
  253MOL0     C34080   3.667   3.687   6.551 -0.4736 -0.5308  0.2569
  253MOL0     C34081   3.749   3.625   6.667  0.5342  0.0573  0.2604
  253MOL0     C34082   3.768   3.729   6.775 -0.3808 -0.7591 -0.9267
  253MOL0     C34083   3.805   3.653   6.899  0.7324 -0.3593 -0.1579
  253MOL0     C34084   3.838   3.604   7.008 -0.9252  0.4924  0.3600
  253MOL0     C34085   3.656   4.136   6.653 -1.0433  0.6032 -0.0931
  253MOL0     C34086   3.711   4.256   6.689  0.1404 -0.0444  0.2016
  253MOL0     C34087   3.629   4.349   6.775  0.6095  0.5388  0.6213
  253MOL0     H34088   4.287   4.423   6.797 -0.7769 -0.4802 -0.8706
  253MOL0     H34089   4.430   4.617   6.829 -0.0136  1.1412  0.5841
  253MOL0     H34090   4.570   4.899   6.625 -0.9725 -4.1049 -0.9771
  253MOL0     H34091   4.429   4.877   6.530  0.5588  0.0046 -0.0256
  253MOL0     H34092   4.319   5.067   6.638  0.1626 -2.0387 -0.0163
  253MOL0     H34093   4.461   5.119   6.544 -1.7850  1.9828  0.3921
  253MOL0     H34094   4.602   5.115   6.759 -0.8731  0.5769  0.0845
  253MOL0     H34095   4.462   5.077   6.856 -3.9441 -0.9477 -2.0783
  253MOL0     H34096   4.509   5.327   6.683  1.4180  0.9810  0.6101
  253MOL0     H34097   4.369   5.288   6.794 -0.3391  2.5827 -3.5329
  253MOL0     H34098   4.538   5.276   6.983  2.0696 -1.7512 -0.3877
  253MOL0     H34099   4.666   5.302   6.876 -0.2833 -2.8355  1.2701
  253MOL0     H34100   4.435   5.509   6.886  1.1024  1.2295 -1.7387
  253MOL0     H34101   4.556   5.505   7.011  1.1727  3.4898 -0.9383
  253MOL0     H34102   4.564   5.520   6.714 -2.4398 -2.2032  2.5655
  253MOL0     H34103   4.722   5.524   6.791  0.3298  0.9212 -3.3075
  253MOL0     H34104   4.623   5.756   6.715  3.2902  0.8000  0.5548
  253MOL0     H34105   4.517   5.740   6.862  2.0869  0.4406  1.8197
  253MOL0     H34106   4.887   5.664   6.802 -0.8888  1.2258 -1.8174
  253MOL0     H34107   5.059   5.666   7.147 -1.5097 -0.4136 -0.6224
  253MOL0     H34108   5.097   5.652   6.979  1.0539  0.2240 -0.1268
  253MOL0     H34109   5.218   5.825   7.070 -0.9443 -0.7164 -0.5272
  253MOL0     H34110   5.111   5.916   6.972  2.2722  0.0769 -0.2936
  253MOL0     H34111   5.064   5.880   7.271 -2.3997 -1.3523 -1.6320
  253MOL0     H34112   4.978   6.005   7.171  0.2913  1.0048 -3.9650
  253MOL0     H34113   5.151   6.140   7.248  0.9670  2.4804 -2.4686
  253MOL0     H34114   5.205   6.100   7.093 -2.3396  2.2236  0.3942
  253MOL0     H34115   5.331   6.258   7.179  1.3944  0.1691 -0.1877
  253MOL0     H34116   5.521   6.396   7.251 -2.7042  0.0224 -1.9129
  253MOL0     H34117   6.107   6.131   7.482  2.0216 -0.2034 -0.2203
  253MOL0     H34118   6.305   6.258   7.526 -1.8715 -1.5746  2.2800
  253MOL0     H34119   6.321   6.704   7.397 -1.8555 -0.0722  1.8724
  253MOL0     H34120   6.268   6.656   7.548  0.6359  0.7326  0.4264
  253MOL0     H34121   6.465   6.804   7.573 -0.8326 -0.2409 -0.2853
  253MOL0     H34122   6.510   6.650   7.634 -2.6242  0.3473  0.8889
  253MOL0     H34123   6.628   6.602   7.426 -3.2833 -1.1353 -1.3309
  253MOL0     H34124   6.543   6.728   7.336 -1.2001  1.4866  1.4849
  253MOL0     H34125   6.727   6.792   7.566 -0.5275 -1.2011  0.6512
  253MOL0     H34126   6.658   6.904   7.442 -2.7170 -0.7653  1.1812
  253MOL0     H34127   6.812   6.775   7.286  1.7752 -0.4632  0.0600
  253MOL0     H34128   6.870   6.685   7.432 -0.6128  0.1997  1.1737
  253MOL0     H34129   6.922   6.970   7.359  1.0312 -0.9337  0.3621
  253MOL0     H34130   6.899   6.933   7.532  0.5705 -2.3596  2.7404
  253MOL0     H34131   7.108   6.789   7.367  0.0984  0.8234 -1.0223
  253MOL0     H34132   7.088   6.821   7.546  2.0011  0.6487 -0.6097
  253MOL0     H34133   7.188   7.024   7.346 -2.5375  1.0526 -0.7381
  253MOL0     H34134   7.097   7.073   7.485 -0.7299 -0.9325 -0.4457
  253MOL0     H34135   6.171   6.589   7.287  2.6011  0.9001  1.4944
  253MOL0     H34136   5.968   6.451   7.240  1.0066  0.4812 -0.8492
  253MOL0     H34137   5.721   6.025   7.370  1.5952  2.1176 -0.2585
  253MOL0     H34138   5.524   5.911   7.352  1.6495  0.3153  0.5748
  253MOL0     H34139   4.178   4.867   6.612  4.3330  0.0528 -0.8111
  253MOL0     H34140   4.002   4.684   6.588  1.0056 -1.1894 -2.0723
  253MOL0     H34141   4.025   4.206   6.556 -0.5845  0.6756  0.0930
  253MOL0     H34142   3.912   4.005   6.478 -0.2567 -1.4774  1.2229
  253MOL0     H34143   3.846   3.814   6.511 -0.1968 -1.3965 -0.4813
  253MOL0     H34144   3.729   3.815   6.382 -1.0283 -1.4422  0.3477
  253MOL0     H34145   3.648   3.626   6.462  0.5060  1.6690 -1.5991
  253MOL0     H34146   3.565   3.704   6.584 -0.7354 -3.8244  1.4616
  253MOL0     H34147   3.843   3.583   6.630  1.4225  3.4866 -1.8599
  253MOL0     H34148   3.684   3.548   6.710 -0.6240  1.6141  1.3951
  253MOL0     H34149   3.856   3.789   6.752  0.7327 -1.6109  0.8800
  253MOL0     H34150   3.672   3.777   6.796 -0.1474  0.1782 -1.9607
  253MOL0     H34151   3.875   3.566   7.101 -0.5497 -0.3152 -0.1011
  253MOL0     H34152   3.558   4.098   6.680  0.2958 -3.9028 -0.6519
  253MOL0     H34153   3.610   4.442   6.722  0.8603 -0.6904 -1.7456
  253MOL0     H34154   3.536   4.295   6.795  1.3189 -3.0796 -4.1415
  253MOL0     H34155   3.678   4.369   6.871  0.3913  2.3540  0.3794
  254MOL0     O34156  10.879   3.852  10.817 -0.3822 -0.6271  0.2103
  254MOL0     C34157  10.904   3.859  10.941  0.1784  0.2537 -0.4167
  254MOL0     O34158  11.026   3.816  11.005 -0.0260 -0.0160 -0.3805
  254MOL0     C34159  11.121   3.747  10.934 -0.0992 -0.3494 -0.0757
  254MOL0     C34160  11.088   3.656  10.834 -0.5647  0.5034 -0.0715
  254MOL0     C34161  11.195   3.585  10.773 -0.4162  0.0958 -0.1789
  254MOL0     C34162  11.333   3.617  10.797 -0.4978  0.2476  0.4427
  254MOL0     O34163  11.427   3.547  10.729 -0.0140 -0.0892  0.2812
  254MOL0     C34164  11.560   3.542  10.779  0.9336  0.0692  0.5728
  254MOL0     C34165  11.630   3.419  10.720 -0.3350 -0.0610 -0.0387
  254MOL0     C34166  11.725   3.448  10.597  0.0019 -0.4885 -1.5637
  254MOL0     C34167  11.799   3.320  10.565 -1.1341  0.4971  0.0850
  254MOL0     C34168  11.891   3.320  10.438  0.0662 -0.8226  0.2680
  254MOL0     C34169  12.000   3.421  10.453 -0.5751  0.2098 -0.5876
  254MOL0     C34170  12.074   3.436  10.316 -0.9518  0.4491 -1.1315
  254MOL0     C34171  12.195   3.525  10.350 -0.2362 -0.0638  0.2510
  254MOL0     N34172  12.321   3.448  10.368 -0.0277 -0.5093 -0.1147
  254MOL0     C34173  12.381   3.389  10.266  0.3077 -0.3667 -0.5333
  254MOL0     C34174  12.512   3.376  10.303 -0.0182  0.3355 -0.1233
  254MOL0     C34175  12.624   3.317  10.222  0.6005 -0.0254 -0.2158
  254MOL0     C34176  12.755   3.267  10.296  0.7195 -0.7851 -0.1528
  254MOL0     C34177  12.732   3.130  10.366  0.1020  0.5886 -0.0142
  254MOL0     C34178  12.862   3.059  10.396 -0.6927 -0.2007  0.0066
  254MOL0     O34179  12.932   3.134  10.501  0.2852 -0.8678  0.0082
  254MOL0     C34180  13.064   3.102  10.532  0.5605  0.3983  0.3935
  254MOL0     C34181  13.138   3.203  10.583  0.2004  0.7739 -0.0518
  254MOL0     C34182  13.270   3.192  10.617  0.4971 -0.3767  0.7158
  254MOL0     C34183  13.335   3.068  10.609  0.1371  0.0112  0.1033
  254MOL0     C34184  13.475   3.045  10.662  0.2284 -1.1313  0.9839
  254MOL0     O34185  13.492   2.924  10.726  0.0914 -0.4746  0.6328
  254MOL0     C34186  13.626   2.891  10.734 -0.5889  0.6502 -0.1308
  254MOL0     C34187  13.683   2.808  10.632 -0.4948  0.6553 -0.3350
  254MOL0     C34188  13.821   2.762  10.643  0.4570  0.0435  0.5533
  254MOL0     C34189  13.895   2.788  10.755 -0.5528  0.2617  0.4680
  254MOL0     O34190  14.021   2.729  10.754  0.6320  0.0156  0.1537
  254MOL0     C34191  14.122   2.778  10.668  0.0768  0.0335  0.6712
  254MOL0     C34192  14.259   2.729  10.714  0.3679 -0.5905  1.0851
  254MOL0     C34193  14.284   2.577  10.732 -0.4683  0.6074 -0.4681
  254MOL0     C34194  14.208   2.482  10.640  0.1144  0.1925  0.2114
  254MOL0     C34195  14.259   2.346  10.593 -0.4297 -0.3719 -0.1397
  254MOL0     C34196  14.354   2.369  10.475 -0.6184  0.3458  0.4293
  254MOL0     C34197  14.441   2.252  10.444  0.9417  0.6306  0.1153
  254MOL0     C34198  14.441   2.214  10.292 -0.2399  0.0486  0.6774
  254MOL0    Cl34199  14.445   2.351  10.190 -0.1661 -0.4756 -0.9038
  254MOL0     C34200  13.843   2.872  10.853  0.0942 -0.4453  0.1647
  254MOL0     C34201  13.716   2.926  10.838 -0.0181  0.7364 -0.6801
  254MOL0     O34202  13.568   3.126  10.630  0.1672  0.2197 -0.5351
  254MOL0     C34203  13.255   2.956  10.565 -0.3276 -0.8429 -0.4128
  254MOL0     C34204  13.124   2.974  10.523 -0.3318 -0.2492 -0.8825
  254MOL0     N34205  12.522   3.407  10.438 -0.4612 -0.1439 -0.2332
  254MOL0     N34206  12.411   3.466  10.475 -0.6801 -0.5702 -0.4128
  254MOL0     C34207  11.363   3.715  10.888  0.5639 -0.8874 -0.2080
  254MOL0     C34208  11.257   3.773  10.971 -0.4203  0.6672  0.5897
  254MOL0     C34209  10.786   3.903  11.027  0.5755 -1.2076 -0.4966
  254MOL0     C34210  10.680   3.959  10.953 -0.5736  0.4832 -0.8764
  254MOL0     C34211  10.567   4.004  11.022  0.8253  0.2637  0.2805
  254MOL0     C34212  10.547   3.993  11.159 -0.5201 -0.4930 -0.1256
  254MOL0     O34213  10.441   4.043  11.228 -0.1001 -0.4126  0.2278
  254MOL0     C34214  10.407   4.005  11.361  0.1477 -0.6642 -0.1802
  254MOL0     C34215  10.259   4.027  11.393 -0.3682 -0.0702 -0.4675
  254MOL0     C34216  10.165   3.933  11.322  0.5131  0.7531  0.0485
  254MOL0     C34217  10.196   3.782  11.366  0.5934 -0.3338  0.5825
  254MOL0     C34218  10.081   3.699  11.364  0.6189 -0.1773  0.5838
  254MOL0     C34219   9.991   3.617  11.366 -0.2984  0.0979  0.2154
  254MOL0     C34220  10.643   3.927  11.231 -0.2752 -0.0251 -0.6217
  254MOL0     C34221  10.762   3.882  11.166 -0.2596 -0.0277  0.1478
  254MOL0     C34222  10.857   3.798  11.248  0.1998  0.1581 -0.3388
  254MOL0     H34223  10.984   3.627  10.824 -0.8374  1.3009  0.3119
  254MOL0     H34224  11.184   3.502  10.704 -1.9877 -1.6512  1.9972
  254MOL0     H34225  11.618   3.629  10.747  1.4506 -0.7533 -0.7822
  254MOL0     H34226  11.558   3.534  10.888 -0.7155 -0.2036  0.5360
  254MOL0     H34227  11.554   3.346  10.690  1.1426 -1.8633  0.3792
  254MOL0     H34228  11.686   3.367  10.799 -1.8546 -2.7254 -0.6093
  254MOL0     H34229  11.790   3.532  10.622 -0.5514 -0.6242  0.5355
  254MOL0     H34230  11.659   3.471  10.512 -2.5285  1.7799  0.7981
  254MOL0     H34231  11.870   3.302  10.646  0.4202  3.0862 -0.6089
  254MOL0     H34232  11.721   3.244  10.555 -1.0077  0.4458 -0.5560
  254MOL0     H34233  11.940   3.222  10.431  2.6373  0.4093 -0.2567
  254MOL0     H34234  11.840   3.350  10.345  0.8311  2.2142  0.7431
  254MOL0     H34235  11.951   3.514  10.483 -0.2787  0.2811 -0.3258
  254MOL0     H34236  12.055   3.392  10.543  0.2770  2.2820 -0.3984
  254MOL0     H34237  12.010   3.486  10.242 -0.7437  1.3824 -0.6960
  254MOL0     H34238  12.113   3.339  10.284  1.6867  0.1084  2.5116
  254MOL0     H34239  12.205   3.597  10.268  1.0385 -1.4731 -0.8814
  254MOL0     H34240  12.170   3.587  10.437 -0.1584  4.4351 -2.5730
  254MOL0     H34241  12.351   3.372  10.164  1.7693 -1.6505 -0.8031
  254MOL0     H34242  12.586   3.236  10.160 -1.0589 -0.6622  1.5520
  254MOL0     H34243  12.661   3.389  10.148 -0.9424  1.3854  0.3331
  254MOL0     H34244  12.829   3.263  10.215  0.3554 -1.2950 -0.4733
  254MOL0     H34245  12.783   3.344  10.368  0.0166 -0.2370 -0.4584
  254MOL0     H34246  12.673   3.062  10.304  1.6056 -0.2028 -0.6135
  254MOL0     H34247  12.686   3.157  10.461  0.5591  0.0528  0.3598
  254MOL0     H34248  12.921   3.038  10.307  0.0671  2.1202 -0.1092
  254MOL0     H34249  12.834   2.963  10.441 -2.3403 -0.2515 -1.0660
  254MOL0     H34250  13.093   3.299  10.606  1.7954  0.9885  2.6540
  254MOL0     H34251  13.322   3.274  10.667 -0.8085  0.8238  0.1771
  254MOL0     H34252  13.618   2.787  10.547 -0.4074 -3.3723  0.3555
  254MOL0     H34253  13.862   2.714  10.555  1.4935  1.2263  0.3689
  254MOL0     H34254  14.096   2.754  10.564 -2.0689  0.3150  1.0891
  254MOL0     H34255  14.131   2.887  10.669 -1.6214  0.2004  1.2201
  254MOL0     H34256  14.335   2.768  10.646 -0.3642  0.3367  0.7687
  254MOL0     H34257  14.284   2.786  10.804  0.8459  2.7714 -1.0141
  254MOL0     H34258  14.392   2.559  10.717 -0.9446 -1.3804 -2.0834
  254MOL0     H34259  14.263   2.554  10.837 -1.6156 -1.3929 -1.0790
  254MOL0     H34260  14.186   2.533  10.546 -0.6850 -0.4894  0.0166
  254MOL0     H34261  14.107   2.467  10.679 -1.9195  5.0046 -2.4364
  254MOL0     H34262  14.174   2.282  10.566 -0.2176 -1.7586  2.1743
  254MOL0     H34263  14.305   2.290  10.676  0.2957  1.5732  0.8222
  254MOL0     H34264  14.294   2.394  10.387 -0.1896  0.1364  0.0714
  254MOL0     H34265  14.414   2.451  10.514 -0.2735 -0.4771  1.7161
  254MOL0     H34266  14.403   2.162  10.493  1.3257  1.2009  1.4961
  254MOL0     H34267  14.542   2.267  10.483  1.2914  2.8162 -1.3819
  254MOL0     H34268  14.510   2.135  10.263 -1.0249  0.0899 -1.5152
  254MOL0     H34269  14.347   2.159  10.279  0.4984 -1.0326 -0.2155
  254MOL0     H34270  13.900   2.903  10.940 -0.6352 -0.7407  0.7548
  254MOL0     H34271  13.676   2.988  10.918  0.0594 -0.8104  0.6246
  254MOL0     H34272  13.298   2.856  10.560  1.5838 -0.2033  1.6536
  254MOL0     H34273  13.072   2.882  10.498  2.4805 -2.7792  1.8616
  254MOL0     H34274  11.468   3.736  10.904 -0.0977  4.3498 -0.8777
  254MOL0     H34275  11.280   3.842  11.053  1.2091  0.5919  0.2155
  254MOL0     H34276  10.692   3.966  10.845  3.6985  2.1681 -0.5024
  254MOL0     H34277  10.497   4.060  10.961 -0.8603  0.1415  2.0151
  254MOL0     H34278  10.465   4.078  11.418  1.4601  1.6819 -4.1159
  254MOL0     H34279  10.428   3.899  11.380  0.2989 -1.1307 -2.6082
  254MOL0     H34280  10.229   4.127  11.361  0.9845  0.3417 -0.5236
  254MOL0     H34281  10.248   4.015  11.501  1.2536  1.4214 -0.0871
  254MOL0     H34282  10.196   3.942  11.217  2.2382 -0.3304  0.4262
  254MOL0     H34283  10.060   3.960  11.332  0.9067  2.0813  0.9441
  254MOL0     H34284  10.267   3.729  11.302 -1.5389 -1.8699 -0.6359
  254MOL0     H34285  10.223   3.783  11.472 -2.5083  0.6743  1.4664
  254MOL0     H34286   9.913   3.545  11.381  0.2632 -1.2438 -2.7691
  254MOL0     H34287  10.633   3.908  11.338  1.0459  0.7961 -0.3266
  254MOL0     H34288  10.946   3.861  11.263  0.0099 -0.1238  2.4348
  254MOL0     H34289  10.814   3.770  11.344 -2.5657  1.4277 -1.0948
  254MOL0     H34290  10.871   3.700  11.201  0.1499 -1.4334  2.7046
  255MOL0     O34291   7.280   9.449   2.465 -0.8283  0.0029 -0.0870
  255MOL0     C34292   7.221   9.451   2.575 -0.4547 -0.2704  0.3714
  255MOL0     O34293   7.295   9.470   2.690 -0.8623  0.1596 -0.8830
  255MOL0     C34294   7.433   9.473   2.694 -0.2279  0.5540  0.4140
  255MOL0     C34295   7.496   9.590   2.740 -0.2437  0.2604 -0.3938
  255MOL0     C34296   7.631   9.581   2.755 -0.4061  0.1088  0.0504
  255MOL0     C34297   7.711   9.467   2.737 -0.3537 -0.8731  1.0038
  255MOL0     O34298   7.839   9.468   2.781  0.0292  0.1883  0.3362
  255MOL0     C34299   7.906   9.333   2.795 -0.3699  0.7388  0.5813
  255MOL0     C34300   8.035   9.334   2.865  0.0167 -0.0061 -0.8529
  255MOL0     C34301   8.022   9.408   2.994 -0.0352  0.6868  0.0410
  255MOL0     C34302   8.145   9.417   3.080 -0.2454 -0.3018 -0.0322
  255MOL0     C34303   8.246   9.532   3.025 -0.3695  0.6186 -0.0525
  255MOL0     C34304   8.351   9.576   3.146 -0.9505  0.8381 -0.0144
  255MOL0     C34305   8.416   9.465   3.234  0.6769 -1.1224  0.1422
  255MOL0     C34306   8.535   9.412   3.154 -0.0172  0.5364  0.1820
  255MOL0     N34307   8.656   9.457   3.226 -0.3011  0.3556 -0.9761
  255MOL0     C34308   8.728   9.573   3.203 -0.1914  0.4979  0.1902
  255MOL0     C34309   8.826   9.586   3.296  0.9804 -0.8667  0.6416
  255MOL0     C34310   8.951   9.672   3.282  0.1507 -1.2933 -0.0760
  255MOL0     C34311   9.084   9.607   3.241  0.1870 -0.7290 -0.2409
  255MOL0     C34312   9.132   9.484   3.325  0.4748  0.1535  0.8433
  255MOL0     C34313   9.151   9.515   3.479 -0.0027 -0.0797 -0.1995
  255MOL0     O34314   9.238   9.628   3.504 -0.2031  0.0125  0.2062
  255MOL0     C34315   9.372   9.618   3.480  1.1021 -0.0832  0.4501
  255MOL0     C34316   9.440   9.737   3.461  0.5396  0.3391  0.6687
  255MOL0     C34317   9.576   9.744   3.422  0.3303  0.8363  0.6736
  255MOL0     C34318   9.648   9.624   3.407  0.2916  0.0195 -0.7182
  255MOL0     C34319   9.788   9.635   3.365 -0.2017 -0.3833 -1.2220
  255MOL0     O34320   9.869   9.737   3.410 -0.2611  0.1717 -0.9629
  255MOL0     C34321   9.992   9.755   3.357 -0.6318 -0.0663  0.1112
  255MOL0     C34322  10.005   9.796   3.225  1.0098  0.1846  0.4805
  255MOL0     C34323  10.130   9.813   3.169 -0.0256 -0.6814  0.4788
  255MOL0     C34324  10.248   9.781   3.240 -0.1761 -0.0523  0.1142
  255MOL0     O34325  10.380   9.801   3.189  0.3782 -0.8790 -0.2158
  255MOL0     C34326  10.389   9.891   3.083 -0.0258  0.0734 -0.0807
  255MOL0     C34327  10.537   9.893   3.027  0.0909  0.1855 -0.5770
  255MOL0     C34328  10.573  10.012   2.931  0.3365 -0.4072  0.0320
  255MOL0     C34329  10.457  10.063   2.847 -0.0260  0.4138 -0.7971
  255MOL0     C34330  10.484  10.193   2.767 -0.0256 -0.0165 -0.4383
  255MOL0     C34331  10.590  10.167   2.670  0.2363 -0.7438 -0.5089
  255MOL0     C34332  10.612  10.291   2.587  0.4477  0.0346 -0.4084
  255MOL0     C34333  10.647  10.245   2.445  0.1819 -0.1825  0.7884
  255MOL0    Cl34334  10.662  10.370   2.325  0.2444 -0.2163 -0.0059
  255MOL0     C34335  10.237   9.745   3.370 -0.6616 -0.4019 -0.0124
  255MOL0     C34336  10.116   9.732   3.435  0.4093  0.4323  0.4871
  255MOL0     O34337   9.826   9.544   3.302  0.2210 -0.3357 -0.0124
  255MOL0     C34338   9.581   9.504   3.431  0.4826  0.2676  0.1175
  255MOL0     C34339   9.447   9.502   3.481 -0.4129 -0.2858  0.6473
  255MOL0     N34340   8.814   9.468   3.372 -0.3365  0.0691 -0.1902
  255MOL0     N34341   8.709   9.403   3.343 -0.0223 -0.1636  1.3104
  255MOL0     C34342   7.644   9.352   2.699  0.2913  0.4356 -0.6363
  255MOL0     C34343   7.506   9.354   2.672 -0.6721  0.0070  0.4900
  255MOL0     C34344   7.078   9.429   2.585  0.3320 -1.0760  0.1452
  255MOL0     C34345   7.030   9.352   2.688 -0.1294 -0.6727 -0.6843
  255MOL0     C34346   6.897   9.334   2.713 -0.4228 -0.5426 -0.1011
  255MOL0     C34347   6.804   9.393   2.635 -1.0614  0.5404  0.3843
  255MOL0     O34348   6.671   9.360   2.661  0.4633 -0.5539 -0.2340
  255MOL0     C34349   6.566   9.398   2.573 -0.8423 -1.1173  0.8136
  255MOL0     C34350   6.439   9.329   2.626  0.3233  0.9263 -0.1384
  255MOL0     C34351   6.397   9.368   2.770 -1.1886 -0.3499  0.7350
  255MOL0     C34352   6.273   9.282   2.810  0.8956  0.3469  0.5767
  255MOL0     C34353   6.223   9.334   2.933  1.1442 -1.0556  0.5771
  255MOL0     C34354   6.185   9.382   3.036  0.0552  0.1816 -0.0561
  255MOL0     C34355   6.847   9.468   2.526 -0.5679  0.6398  0.1229
  255MOL0     C34356   6.980   9.493   2.495  0.4500  0.3094 -0.9304
  255MOL0     C34357   7.025   9.591   2.385  0.7310 -0.0719  0.3103
  255MOL0     H34358   7.435   9.679   2.733  0.8586  1.2066  1.3353
  255MOL0     H34359   7.673   9.679   2.774 -1.8872  0.8805 -0.5197
  255MOL0     H34360   7.836   9.273   2.852  0.1978 -0.8545 -0.3445
  255MOL0     H34361   7.928   9.287   2.698  2.7316  0.6188  1.2283
  255MOL0     H34362   8.111   9.381   2.802  1.0505  1.6139  1.4828
  255MOL0     H34363   8.069   9.230   2.878  2.2408  0.6856 -0.6258
  255MOL0     H34364   7.951   9.358   3.061  0.8985  0.1622  0.6561
  255MOL0     H34365   7.976   9.506   2.979 -1.9332  0.1645  1.9020
  255MOL0     H34366   8.111   9.441   3.181 -2.9562 -0.8111 -0.7611
  255MOL0     H34367   8.198   9.321   3.080 -3.0503 -2.0997 -3.6265
  255MOL0     H34368   8.304   9.492   2.942  1.4470 -2.6791  2.5388
  255MOL0     H34369   8.195   9.623   2.994  1.9089  1.8249 -0.4153
  255MOL0     H34370   8.426   9.652   3.126 -0.2818  0.1221 -0.3040
  255MOL0     H34371   8.285   9.633   3.212  0.6249  2.7129  0.0504
  255MOL0     H34372   8.349   9.381   3.255 -0.4474 -0.1969  0.3296
  255MOL0     H34373   8.452   9.502   3.330 -0.5486 -3.4660  1.5913
  255MOL0     H34374   8.539   9.302   3.152  0.6995  0.5746 -0.6173
  255MOL0     H34375   8.534   9.439   3.049 -0.2546 -2.1825 -0.6105
  255MOL0     H34376   8.706   9.638   3.119 -1.5543  0.2958  0.3735
  255MOL0     H34377   8.936   9.759   3.217 -3.8856 -0.6509  1.4355
  255MOL0     H34378   8.955   9.721   3.380 -0.6648  0.0845 -0.6950
  255MOL0     H34379   9.074   9.577   3.137 -0.1371 -0.5833 -0.2538
  255MOL0     H34380   9.166   9.680   3.241  0.0308 -0.5335 -1.6194
  255MOL0     H34381   9.230   9.455   3.284 -0.5463 -0.3893 -1.3868
  255MOL0     H34382   9.067   9.397   3.312  1.5238 -0.6339  0.6794
  255MOL0     H34383   9.174   9.415   3.517 -2.8670 -0.9178 -0.4250
  255MOL0     H34384   9.048   9.530   3.512  0.1085 -1.0356  0.6212
  255MOL0     H34385   9.375   9.823   3.470 -2.0939 -1.5570  0.9135
  255MOL0     H34386   9.614   9.845   3.411  0.7626  0.8233  1.9573
  255MOL0     H34387   9.916   9.820   3.168  1.6706 -2.8718 -2.1768
  255MOL0     H34388  10.132   9.852   3.067  1.0792 -2.0521 -0.0693
  255MOL0     H34389  10.320   9.867   3.002 -2.4126  1.1957  1.5069
  255MOL0     H34390  10.365   9.991   3.121  0.7082 -0.0559  0.7651
  255MOL0     H34391  10.596   9.902   3.119 -0.6533  2.2228 -0.2411
  255MOL0     H34392  10.557   9.794   2.986 -2.3655 -0.7597  0.3272
  255MOL0     H34393  10.614  10.101   2.979 -1.5104 -0.5852  2.0345
  255MOL0     H34394  10.647   9.966   2.865 -0.4299  0.1282 -1.2409
  255MOL0     H34395  10.376  10.086   2.917  1.9616 -0.3311  1.8763
  255MOL0     H34396  10.435   9.986   2.773  0.8451  1.0972 -1.8079
  255MOL0     H34397  10.502  10.283   2.825 -0.0063 -1.1623  1.4312
  255MOL0     H34398  10.390  10.218   2.717  0.0938 -1.0724 -1.2265
  255MOL0     H34399  10.687  10.138   2.711 -0.4699 -2.3176  0.1256
  255MOL0     H34400  10.575  10.080   2.606  2.2878 -0.4012 -1.5509
  255MOL0     H34401  10.699  10.342   2.630 -0.7655  0.6919  1.3651
  255MOL0     H34402  10.525  10.357   2.585 -0.2252 -0.4351 -6.5589
  255MOL0     H34403  10.744  10.194   2.452  0.8873  1.0391  0.2816
  255MOL0     H34404  10.573  10.172   2.409 -1.7494  1.3370  1.5257
  255MOL0     H34405  10.327   9.731   3.430  0.4126  0.7958 -1.2696
  255MOL0     H34406  10.107   9.703   3.540 -2.1367 -3.9354 -0.6749
  255MOL0     H34407   9.629   9.406   3.436  0.9018  0.5204  1.5026
  255MOL0     H34408   9.401   9.408   3.512 -0.7517 -0.1479  0.5675
  255MOL0     H34409   7.697   9.257   2.699  0.4825  0.5288 -1.6101
  255MOL0     H34410   7.460   9.261   2.640  1.2131 -0.4196 -1.1125
  255MOL0     H34411   7.090   9.294   2.758  1.7056 -0.5184 -2.0434
  255MOL0     H34412   6.868   9.276   2.801  1.1033 -1.8258 -0.3975
  255MOL0     H34413   6.582   9.356   2.474 -2.3465  0.4486 -0.1420
  255MOL0     H34414   6.547   9.506   2.568 -0.3030 -1.0848 -2.7088
  255MOL0     H34415   6.444   9.220   2.623 -1.6832  0.8134 -1.1978
  255MOL0     H34416   6.358   9.337   2.553 -0.6627 -5.5047 -0.3294
  255MOL0     H34417   6.384   9.475   2.783  0.7914  0.2445 -1.4633
  255MOL0     H34418   6.485   9.349   2.832 -1.5203  0.6804  1.5586
  255MOL0     H34419   6.196   9.290   2.732 -1.0357 -2.9493  1.8954
  255MOL0     H34420   6.281   9.172   2.810 -2.7212 -0.0790 -1.7484
  255MOL0     H34421   6.149   9.422   3.128 -2.9766  3.0536 -2.2278
  255MOL0     H34422   6.766   9.517   2.472  1.3051  0.7531 -2.8173
  255MOL0     H34423   6.952   9.672   2.394 -0.6030 -1.1639 -0.4241
  255MOL0     H34424   7.123   9.638   2.399 -0.4262  2.5972  0.0428
  255MOL0     H34425   7.010   9.542   2.288 -2.7977  4.8281 -2.0300
  256MOL0     O34426   4.263   3.481   9.315 -0.6785  0.5086 -0.5986
  256MOL0     C34427   4.193   3.482   9.216  0.9264 -0.7524  0.7175
  256MOL0     O34428   4.232   3.445   9.087  0.2029  0.0124 -0.3754
  256MOL0     C34429   4.338   3.352   9.079  0.0462 -0.4465  1.1803
  256MOL0     C34430   4.379   3.260   9.179  0.1188  0.1486  0.1551
  256MOL0     C34431   4.479   3.169   9.151  0.5472  0.5425  0.1244
  256MOL0     C34432   4.545   3.168   9.030 -0.8865 -0.7325 -0.8525
  256MOL0     O34433   4.639   3.067   9.009 -0.0426 -0.7167 -0.3218
  256MOL0     C34434   4.768   3.086   9.068 -0.1111 -0.3655  0.4490
  256MOL0     C34435   4.885   3.013   8.989 -0.1622 -0.1536  0.0187
  256MOL0     C34436   5.027   3.080   9.015 -0.4180 -0.4275  0.3844
  256MOL0     C34437   5.124   3.038   8.903 -0.4375 -0.1101 -0.1081
  256MOL0     C34438   5.265   3.098   8.924  1.2539  0.0350 -0.1388
  256MOL0     C34439   5.322   3.092   9.066 -0.6771 -0.4768 -0.3213
  256MOL0     C34440   5.466   3.148   9.057 -0.7342 -0.1175 -0.0578
  256MOL0     C34441   5.513   3.163   9.201  0.2750  0.0828  0.7948
  256MOL0     N34442   5.644   3.238   9.199 -0.7275  0.1259 -0.7840
  256MOL0     C34443   5.772   3.197   9.231  0.7463 -0.0709  0.4376
  256MOL0     C34444   5.851   3.306   9.212  0.3045 -0.0457  0.4813
  256MOL0     C34445   5.996   3.317   9.243  0.0773  0.0846  0.9163
  256MOL0     C34446   6.002   3.403   9.366 -0.4522 -0.1185 -0.2259
  256MOL0     C34447   6.148   3.463   9.394  0.1560  0.4875  0.4798
  256MOL0     C34448   6.243   3.342   9.438  0.0500 -0.0906 -0.2638
  256MOL0     O34449   6.360   3.389   9.505 -0.4157  0.2540 -0.0479
  256MOL0     C34450   6.427   3.289   9.568  0.4506 -0.3784  0.2008
  256MOL0     C34451   6.503   3.208   9.489 -0.2508  0.4737  0.4089
  256MOL0     C34452   6.566   3.108   9.560  0.9619  0.3588  0.0460
  256MOL0     C34453   6.558   3.079   9.696  0.2803 -0.7574 -0.3118
  256MOL0     C34454   6.623   2.961   9.752  0.2224 -0.0804  0.2676
  256MOL0     O34455   6.632   2.857   9.662  0.2076  0.3317 -0.5389
  256MOL0     C34456   6.693   2.742   9.716 -1.1833 -0.2057  0.7261
  256MOL0     C34457   6.619   2.637   9.765  0.4099 -0.0203 -0.2706
  256MOL0     C34458   6.679   2.527   9.831 -0.1533  0.7370  0.2789
  256MOL0     C34459   6.823   2.515   9.833 -0.1665 -0.1795  0.4813
  256MOL0     O34460   6.876   2.406   9.890 -0.2372  0.3973  0.7782
  256MOL0     C34461   6.979   2.353   9.799  0.4299 -0.2624  0.0119
  256MOL0     C34462   7.013   2.211   9.843  0.6915  0.1670  0.2128
  256MOL0     C34463   6.889   2.118   9.837 -0.2815 -0.3119 -0.0684
  256MOL0     C34464   6.920   1.986   9.914 -0.3905  0.0826 -0.6654
  256MOL0     C34465   7.046   1.917   9.855  0.7042 -0.2525 -0.4829
  256MOL0     C34466   7.070   1.777   9.918  1.0189 -0.2991  0.5575
  256MOL0     C34467   7.078   1.784  10.075 -0.6875  0.3247 -0.6849
  256MOL0     C34468   7.125   1.645  10.126  0.2674  0.4892  0.0354
  256MOL0    Cl34469   7.124   1.647  10.303 -0.4896  0.2200  0.7393
  256MOL0     C34470   6.900   2.622   9.775  0.5779 -0.4807 -0.8806
  256MOL0     C34471   6.831   2.726   9.721  0.2864 -0.1644  0.7015
  256MOL0     O34472   6.670   2.965   9.867  0.2538 -0.5251 -0.8757
  256MOL0     C34473   6.485   3.177   9.770  0.6720  1.0800 -0.8587
  256MOL0     C34474   6.421   3.283   9.707  0.4634  0.4547 -0.3377
  256MOL0     N34475   5.766   3.409   9.174 -0.0523  1.1170  0.0813
  256MOL0     N34476   5.643   3.371   9.172 -0.0678  0.2481 -0.8896
  256MOL0     C34477   4.515   3.250   8.939 -0.0361 -0.7964  0.8511
  256MOL0     C34478   4.404   3.340   8.953  0.3135  1.0572  0.0694
  256MOL0     C34479   4.053   3.543   9.235  0.2199  0.2403 -0.0215
  256MOL0     C34480   3.989   3.526   9.360  0.3714  0.3319 -0.2700
  256MOL0     C34481   3.850   3.567   9.372  0.2172  0.0953  0.6469
  256MOL0     C34482   3.781   3.636   9.274 -0.5211 -0.0430 -0.0533
  256MOL0     O34483   3.653   3.681   9.291 -0.1711  0.2215  0.1841
  256MOL0     C34484   3.593   3.779   9.204 -0.6002  0.6101  0.2856
  256MOL0     C34485   3.463   3.823   9.270 -0.4208 -0.1413 -0.7831
  256MOL0     C34486   3.351   3.715   9.268 -0.9344 -0.0609  0.2301
  256MOL0     C34487   3.237   3.754   9.358 -0.4999 -0.1380  0.9556
  256MOL0     C34488   3.170   3.877   9.317 -0.4936 -1.0219 -0.4537
  256MOL0     C34489   3.104   3.972   9.281  0.2710 -0.5214 -0.2762
  256MOL0     C34490   3.853   3.655   9.156 -0.0836  1.1307  0.4212
  256MOL0     C34491   3.984   3.613   9.132  1.3117  1.5866 -0.6048
  256MOL0     C34492   4.031   3.644   8.995 -0.2915 -0.1959  0.1171
  256MOL0     H34493   4.341   3.262   9.281  1.2698 -1.0239  0.6339
  256MOL0     H34494   4.508   3.094   9.225  1.3389 -0.4309 -1.1131
  256MOL0     H34495   4.786   3.193   9.065 -2.1533  0.0099 -0.3132
  256MOL0     H34496   4.773   3.066   9.175 -0.4957  2.9826  1.1973
  256MOL0     H34497   4.864   3.014   8.882  0.3671  0.6262 -0.0848
  256MOL0     H34498   4.878   2.908   9.018 -2.2488 -0.8988 -2.7576
  256MOL0     H34499   5.075   3.050   9.109  1.1903 -0.2194 -0.3505
  256MOL0     H34500   5.010   3.188   9.009 -0.8510 -0.5709 -2.4226
  256MOL0     H34501   5.129   2.929   8.903 -2.2283 -0.2382  0.5750
  256MOL0     H34502   5.087   3.051   8.801  0.4693  2.0633 -0.2296
  256MOL0     H34503   5.329   3.046   8.852  1.2901 -0.4055  0.2095
  256MOL0     H34504   5.272   3.205   8.903 -0.4367  0.4888  1.3425
  256MOL0     H34505   5.257   3.152   9.131 -2.6154 -2.8907  0.1321
  256MOL0     H34506   5.317   2.988   9.100 -2.0217  0.4711  2.6787
  256MOL0     H34507   5.480   3.246   9.010  1.8922  0.4708  1.7169
  256MOL0     H34508   5.531   3.080   9.001  1.8265  3.0711 -1.2958
  256MOL0     H34509   5.453   3.231   9.261  5.3337  5.0981  1.0504
  256MOL0     H34510   5.514   3.069   9.257  1.8339 -0.8469 -0.6870
  256MOL0     H34511   5.796   3.098   9.268  0.6397 -0.9352 -1.6876
  256MOL0     H34512   6.038   3.217   9.257  3.1112  0.8539 -1.6492
  256MOL0     H34513   6.049   3.369   9.163  0.8167 -1.3698  0.4250
  256MOL0     H34514   5.932   3.488   9.361  0.1729  0.5628  1.8228
  256MOL0     H34515   5.969   3.354   9.458  2.1131 -0.4582  0.5733
  256MOL0     H34516   6.139   3.535   9.476  1.6793  2.1219 -0.7107
  256MOL0     H34517   6.183   3.516   9.305 -0.1347 -1.4148 -0.8199
  256MOL0     H34518   6.281   3.286   9.352 -3.0160 -0.4596 -1.5082
  256MOL0     H34519   6.184   3.273   9.498 -0.2781 -2.7187 -3.3771
  256MOL0     H34520   6.542   3.220   9.389 -0.9325  1.3590  0.2409
  256MOL0     H34521   6.627   3.046   9.494 -2.1824  0.3794 -3.1814
  256MOL0     H34522   6.511   2.637   9.752 -0.0145 -0.4125  2.6210
  256MOL0     H34523   6.619   2.446   9.871  0.7711  1.3187  3.0780
  256MOL0     H34524   6.934   2.336   9.701  0.5169  0.4170 -0.1519
  256MOL0     H34525   7.069   2.414   9.792 -0.6721  1.6735  1.5669
  256MOL0     H34526   7.080   2.171   9.766 -0.9866 -1.4186 -0.5118
  256MOL0     H34527   7.063   2.218   9.940 -0.1427  1.7541  0.5744
  256MOL0     H34528   6.802   2.164   9.886  0.0873 -1.6402  1.9622
  256MOL0     H34529   6.872   2.085   9.735  0.6134  2.5004 -1.2396
  256MOL0     H34530   6.835   1.917   9.913  0.3726 -1.2217  3.4814
  256MOL0     H34531   6.938   2.011  10.019  1.7979 -2.3733 -0.3452
  256MOL0     H34532   7.138   1.973   9.870  0.2374  0.6381 -0.8974
  256MOL0     H34533   7.038   1.906   9.747 -0.7319  3.0495 -0.8252
  256MOL0     H34534   6.983   1.713   9.902 -0.1516  0.3483  3.6160
  256MOL0     H34535   7.159   1.732   9.874 -2.0701 -3.4222 -3.4113
  256MOL0     H34536   6.977   1.799  10.116 -0.4942  4.0723 -1.2905
  256MOL0     H34537   7.138   1.867  10.112 -0.4960 -1.4999  3.7776
  256MOL0     H34538   7.054   1.566  10.103 -1.7025  1.6669  1.7137
  256MOL0     H34539   7.226   1.617  10.096 -0.0033 -1.5008  0.8218
  256MOL0     H34540   7.009   2.620   9.772  0.5624 -0.5800 -2.7579
  256MOL0     H34541   6.895   2.798   9.671 -1.7840  0.3462 -1.3697
  256MOL0     H34542   6.474   3.173   9.878  1.1353  1.2244 -0.8061
  256MOL0     H34543   6.371   3.352   9.775  0.8240 -0.2662  0.6907
  256MOL0     H34544   4.561   3.249   8.841  0.0028  0.8902  0.8102
  256MOL0     H34545   4.354   3.401   8.878 -0.7085  0.1820  0.0231
  256MOL0     H34546   4.038   3.476   9.443 -0.4218  1.4058  0.8890
  256MOL0     H34547   3.791   3.560   9.463 -1.5147  0.8777 -0.3660
  256MOL0     H34548   3.579   3.744   9.101  1.1759  1.2675 -0.2201
  256MOL0     H34549   3.657   3.868   9.199 -1.3521  1.1786  0.4155
  256MOL0     H34550   3.432   3.920   9.230  1.2148  0.8504  0.2320
  256MOL0     H34551   3.482   3.845   9.376  1.2257 -0.8443 -0.9029
  256MOL0     H34552   3.390   3.615   9.288  0.2829  0.5532  1.0929
  256MOL0     H34553   3.310   3.729   9.168 -0.5276 -0.2702  0.0324
  256MOL0     H34554   3.174   3.666   9.345 -0.2808  0.0130 -1.8973
  256MOL0     H34555   3.270   3.763   9.462  0.8527 -2.5050  0.8172
  256MOL0     H34556   3.043   4.060   9.279  0.3514 -0.2728  2.7759
  256MOL0     H34557   3.795   3.700   9.076 -3.3020 -3.5422 -0.2976
  256MOL0     H34558   4.030   3.548   8.943 -0.9498  0.9663 -2.1873
  256MOL0     H34559   3.968   3.716   8.940 -0.8124  1.0505  2.2374
  256MOL0     H34560   4.133   3.683   8.999 -0.0899 -0.6185 -0.6695
  257MOL0     O34561   9.249   6.874   3.549  0.1171  0.1367 -0.0190
  257MOL0     C34562   9.278   6.763   3.596 -0.9173 -0.5031 -0.5264
  257MOL0     O34563   9.401   6.728   3.636 -0.3591 -0.5956 -0.4188
  257MOL0     C34564   9.508   6.816   3.624  0.7492  0.9812 -0.1706
  257MOL0     C34565   9.553   6.883   3.734 -0.8261  0.0214 -1.2383
  257MOL0     C34566   9.657   6.977   3.712 -0.1948  0.9043 -0.2740
  257MOL0     C34567   9.711   6.993   3.581  0.4367  0.4135  0.2434
  257MOL0     O34568   9.805   7.094   3.586 -0.4485 -0.3444  0.3687
  257MOL0     C34569   9.888   7.097   3.467 -0.4898 -0.0575  0.1477
  257MOL0     C34570  10.009   7.196   3.474 -0.2300  1.4469 -0.0367
  257MOL0     C34571   9.987   7.338   3.510  0.2459  0.4565  0.1021
  257MOL0     C34572  10.124   7.403   3.530  0.4665  0.0175  0.4813
  257MOL0     C34573  10.110   7.552   3.553 -1.0259  0.4316 -0.5686
  257MOL0     C34574  10.250   7.615   3.535  0.7490 -1.0299 -0.6032
  257MOL0     C34575  10.232   7.769   3.551 -0.4917  0.5303 -0.0564
  257MOL0     C34576  10.367   7.843   3.559 -0.4640  0.4744  0.1026
  257MOL0     N34577  10.418   7.833   3.695 -0.2178  0.6025 -0.6884
  257MOL0     C34578  10.364   7.902   3.801 -0.0673 -0.4439 -0.2224
  257MOL0     C34579  10.449   7.875   3.901 -0.2713  0.6328  0.4465
  257MOL0     C34580  10.462   7.952   4.032 -0.5094 -0.0875 -0.0496
  257MOL0     C34581  10.509   8.094   4.010 -0.8655  0.2335 -0.4021
  257MOL0     C34582  10.567   8.151   4.147 -0.1423 -0.7829 -0.0636
  257MOL0     C34583  10.602   8.302   4.133 -0.3319 -1.1719  0.2668
  257MOL0     O34584  10.705   8.314   4.028 -0.0496  0.3417  0.4015
  257MOL0     C34585  10.837   8.336   4.070  0.1639  0.1344  1.0712
  257MOL0     C34586  10.931   8.356   3.966 -0.7519  0.4023  0.6263
  257MOL0     C34587  11.066   8.379   3.988 -0.6217 -0.0084  1.7079
  257MOL0     C34588  11.114   8.386   4.120  0.5312  0.0872 -0.1819
  257MOL0     C34589  11.255   8.384   4.137  0.2312  0.2278 -1.3024
  257MOL0     O34590  11.325   8.481   4.064  0.5559 -0.4459  0.3161
  257MOL0     C34591  11.463   8.490   4.066 -0.4555 -0.7932 -0.1367
  257MOL0     C34592  11.556   8.416   4.136  0.6094 -0.3635 -0.2444
  257MOL0     C34593  11.699   8.432   4.118  0.8467 -0.4269 -0.0556
  257MOL0     C34594  11.746   8.518   4.018 -0.7767 -0.0910  0.1522
  257MOL0     O34595  11.883   8.527   3.983  0.1194 -0.5636 -0.0702
  257MOL0     C34596  11.979   8.419   4.024  0.7014 -0.7741 -0.4500
  257MOL0     C34597  12.110   8.414   3.948 -0.4451  0.2726 -0.3337
  257MOL0     C34598  12.213   8.334   4.026  0.8091 -0.0621  0.5281
  257MOL0     C34599  12.352   8.333   3.956 -0.5306 -0.0117 -0.2168
  257MOL0     C34600  12.462   8.266   4.029 -0.0918 -0.8834  0.6473
  257MOL0     C34601  12.595   8.293   3.965 -0.4943 -0.6284 -0.8784
  257MOL0     C34602  12.712   8.258   4.065  0.2028 -0.3471  0.1329
  257MOL0     C34603  12.847   8.301   4.023 -0.3879 -0.5154  0.7563
  257MOL0    Cl34604  12.916   8.214   3.888  0.0607  0.1847  0.4501
  257MOL0     C34605  11.661   8.603   3.937 -0.0867  0.3428 -0.6441
  257MOL0     C34606  11.520   8.587   3.967 -0.3155 -0.0422  0.3364
  257MOL0     O34607  11.307   8.297   4.217  1.0992 -0.9417 -0.2085
  257MOL0     C34608  11.025   8.365   4.227  0.1267 -0.5076 -1.0915
  257MOL0     C34609  10.888   8.346   4.201  0.6365 -0.5685  0.0071
  257MOL0     N34610  10.543   7.779   3.854  0.6527  0.9612 -0.3469
  257MOL0     N34611  10.527   7.766   3.726 -0.1134 -0.2213  0.0884
  257MOL0     C34612   9.674   6.904   3.475  0.6880 -0.1447 -0.0203
  257MOL0     C34613   9.568   6.823   3.504  0.3570  0.0451 -0.2425
  257MOL0     C34614   9.173   6.664   3.642  0.1456  0.2818 -0.2998
  257MOL0     C34615   9.208   6.554   3.725 -0.3345  0.2875  0.4218
  257MOL0     C34616   9.116   6.451   3.756  0.5615 -0.7100  0.2247
  257MOL0     C34617   8.984   6.462   3.726 -0.1435 -0.3777  0.2239
  257MOL0     O34618   8.910   6.358   3.746  0.0530 -0.4865 -0.0607
  257MOL0     C34619   8.954   6.226   3.772 -0.6471  0.5815  0.1780
  257MOL0     C34620   8.855   6.131   3.702 -0.0202 -0.1271 -0.2716
  257MOL0     C34621   8.717   6.140   3.765  0.0916 -0.3861 -0.1971
  257MOL0     C34622   8.625   6.024   3.716 -0.5816  1.5110  0.5057
  257MOL0     C34623   8.488   6.038   3.768 -0.2952 -0.0737  0.2782
  257MOL0     C34624   8.369   6.031   3.784 -0.0033 -0.3141  0.0330
  257MOL0     C34625   8.948   6.562   3.639  0.7284 -0.3389 -0.6522
  257MOL0     C34626   9.036   6.665   3.600  0.3195  0.2554 -0.4433
  257MOL0     C34627   8.973   6.771   3.502 -0.1960  0.0238  0.2294
  257MOL0     H34628   9.526   6.859   3.836  2.3800 -3.9107 -1.0200
  257MOL0     H34629   9.681   7.037   3.799 -2.2293 -0.0798  1.0519
  257MOL0     H34630   9.923   6.995   3.455  2.4339  0.6962  1.4124
  257MOL0     H34631   9.823   7.132   3.386 -1.3957 -2.4220 -0.2144
  257MOL0     H34632  10.063   7.184   3.379  0.5723 -1.8867  0.7474
  257MOL0     H34633  10.068   7.152   3.554  0.8240  1.1926 -0.9338
  257MOL0     H34634   9.937   7.337   3.608  0.4188  2.1465  0.2433
  257MOL0     H34635   9.920   7.393   3.443  1.7144 -0.1728 -1.9871
  257MOL0     H34636  10.184   7.354   3.607  0.2571 -0.0498  0.6024
  257MOL0     H34637  10.169   7.392   3.431 -1.3160 -0.2169 -0.3427
  257MOL0     H34638  10.042   7.598   3.481 -1.4410 -0.4270 -0.7439
  257MOL0     H34639  10.085   7.563   3.658  1.8834 -2.9952  0.7155
  257MOL0     H34640  10.303   7.580   3.625 -0.8701 -0.8836  0.4585
  257MOL0     H34641  10.278   7.587   3.433 -1.4656 -0.5603 -1.4069
  257MOL0     H34642  10.176   7.783   3.644 -1.6967 -1.7213 -0.3716
  257MOL0     H34643  10.175   7.797   3.462 -2.0920  2.0787  1.3638
  257MOL0     H34644  10.431   7.791   3.487 -0.6159  2.2694 -1.4208
  257MOL0     H34645  10.369   7.947   3.525  0.1405  0.2640 -0.5431
  257MOL0     H34646  10.283   7.975   3.806 -0.0760 -0.4041 -0.9171
  257MOL0     H34647  10.364   7.954   4.081 -0.8436  2.7146 -0.6632
  257MOL0     H34648  10.536   7.899   4.094 -2.6794 -0.0854  2.7598
  257MOL0     H34649  10.583   8.095   3.929 -0.1372 -3.5360  0.0441
  257MOL0     H34650  10.414   8.141   3.980 -0.9002  0.1019 -0.4980
  257MOL0     H34651  10.653   8.091   4.178 -2.9006 -3.0731  4.2709
  257MOL0     H34652  10.489   8.129   4.220  0.3121  1.1154  1.0742
  257MOL0     H34653  10.646   8.331   4.228  1.1275  0.1179 -0.7562
  257MOL0     H34654  10.515   8.367   4.115  1.5499  2.0215  1.8547
  257MOL0     H34655  10.881   8.355   3.869 -0.6903 -2.8574  0.5201
  257MOL0     H34656  11.132   8.391   3.903 -3.8307  3.5172 -0.6401
  257MOL0     H34657  11.529   8.351   4.218 -0.9219  0.6322  0.0819
  257MOL0     H34658  11.761   8.359   4.170  0.0424  0.6268  2.5539
  257MOL0     H34659  12.000   8.430   4.130  3.4962  1.1955 -1.0774
  257MOL0     H34660  11.934   8.322   4.001  0.2783 -0.2990 -1.7524
  257MOL0     H34661  12.108   8.372   3.847  1.4377 -0.4284 -0.1037
  257MOL0     H34662  12.156   8.513   3.954 -1.1797  0.5343  2.5956
  257MOL0     H34663  12.212   8.368   4.130 -2.4199  0.8416  0.2872
  257MOL0     H34664  12.177   8.231   4.037 -0.3468  0.1766 -0.8181
  257MOL0     H34665  12.387   8.433   3.927  1.0333 -0.3338  0.4434
  257MOL0     H34666  12.356   8.273   3.865 -0.9473 -2.0979  1.0784
  257MOL0     H34667  12.456   8.157   4.038 -1.4283 -0.7289  1.9023
  257MOL0     H34668  12.462   8.315   4.127  0.2856  2.5961 -0.9468
  257MOL0     H34669  12.609   8.242   3.870  2.1782  0.5208 -1.1960
  257MOL0     H34670  12.609   8.400   3.948  3.0065 -0.6983  0.7035
  257MOL0     H34671  12.710   8.149   4.075  3.0119 -0.4694  0.1808
  257MOL0     H34672  12.682   8.299   4.162 -4.7925 -1.0764 -0.8038
  257MOL0     H34673  12.832   8.404   3.988 -0.6213 -0.1231  1.9624
  257MOL0     H34674  12.917   8.299   4.107  0.0097  0.4979  0.4732
  257MOL0     H34675  11.699   8.676   3.866 -0.2157  1.1693  0.1140
  257MOL0     H34676  11.445   8.635   3.905  0.2378 -1.3465 -1.4204
  257MOL0     H34677  11.067   8.354   4.326 -0.6138  0.4286 -0.6515
  257MOL0     H34678  10.840   8.338   4.298  2.0347  2.8225  1.1282
  257MOL0     H34679   9.711   6.907   3.373 -1.1370  1.2215 -0.7063
  257MOL0     H34680   9.530   6.762   3.422  0.7182  0.7179 -0.9300
  257MOL0     H34681   9.308   6.543   3.767  0.4209 -0.8158 -1.5185
  257MOL0     H34682   9.172   6.374   3.809  2.6693  1.9265  2.1452
  257MOL0     H34683   8.956   6.200   3.878  0.9620  2.5855  0.7250
  257MOL0     H34684   9.049   6.206   3.721 -0.4403 -0.1880  0.8517
  257MOL0     H34685   8.899   6.031   3.709 -0.4903 -0.6559 -3.4326
  257MOL0     H34686   8.851   6.149   3.594  0.1253  1.9770  0.0357
  257MOL0     H34687   8.681   6.238   3.732  2.5518  0.0221 -1.8965
  257MOL0     H34688   8.727   6.135   3.874 -1.7631 -6.4261  0.0398
  257MOL0     H34689   8.622   6.017   3.607 -0.0010 -3.6320  0.5761
  257MOL0     H34690   8.673   5.943   3.771  0.6929  0.9197 -1.3861
  257MOL0     H34691   8.263   6.024   3.789  0.1474 -3.0945  0.9771
  257MOL0     H34692   8.848   6.558   3.597  0.0684  2.1267  0.4726
  257MOL0     H34693   8.888   6.732   3.446  0.4267  0.0347 -0.7627
  257MOL0     H34694   8.936   6.853   3.563  1.6217 -0.2612  1.8142
  257MOL0     H34695   9.053   6.803   3.433  0.5832 -2.4638 -0.1314
  258MOL0     O34696   5.080   6.354   6.956 -0.6692  0.2654  0.1390
  258MOL0     C34697   4.995   6.426   6.905 -1.0486 -0.5728 -0.2673
  258MOL0     O34698   5.011   6.565   6.900 -0.6897 -0.2857 -0.8922
  258MOL0     C34699   5.133   6.616   6.870 -1.3881  0.3353  0.9268
  258MOL0     C34700   5.233   6.602   6.961  0.6274  0.4098 -0.1921
  258MOL0     C34701   5.357   6.652   6.939  0.3887 -0.5169  0.0266
  258MOL0     C34702   5.383   6.728   6.827  0.4899 -0.0425  0.3087
  258MOL0     O34703   5.517   6.757   6.817  0.2938 -0.1320 -0.1507
  258MOL0     C34704   5.568   6.814   6.699  0.8354  0.6398 -0.3516
  258MOL0     C34705   5.718   6.796   6.690  0.6975  0.8035 -0.5240
  258MOL0     C34706   5.797   6.892   6.782  0.4757 -0.6500 -0.4068
  258MOL0     C34707   5.939   6.887   6.735 -0.0748 -0.2969 -0.4106
  258MOL0     C34708   6.037   6.937   6.852  0.5998 -0.0225  0.3710
  258MOL0     C34709   5.999   7.076   6.905 -0.3205 -0.5876 -0.6010
  258MOL0     C34710   6.106   7.125   7.002 -0.0007  0.0515  0.0636
  258MOL0     C34711   6.053   7.261   7.049  0.5377 -0.1357  0.1276
  258MOL0     N34712   6.148   7.322   7.139 -0.2937 -0.3015 -0.1985
  258MOL0     C34713   6.113   7.435   7.218 -0.6686  0.1214 -0.3167
  258MOL0     C34714   6.205   7.437   7.318  0.0602 -0.5417  0.2296
  258MOL0     C34715   6.206   7.538   7.426  0.2299  0.1873 -0.7658
  258MOL0     C34716   6.170   7.487   7.558 -0.9127 -0.2603 -0.4279
  258MOL0     C34717   6.024   7.432   7.573 -0.2782  0.1159  0.2647
  258MOL0     C34718   5.995   7.343   7.697 -0.0990  0.0604 -0.2254
  258MOL0     O34719   5.858   7.352   7.726 -0.2810 -0.2650 -0.1153
  258MOL0     C34720   5.801   7.234   7.689  0.3759 -1.0553 -0.5115
  258MOL0     C34721   5.785   7.136   7.794  0.0871  0.3327 -0.1593
  258MOL0     C34722   5.720   7.012   7.765  0.3202 -1.7645  0.0572
  258MOL0     C34723   5.655   6.999   7.642  0.1814  0.1864 -0.3241
  258MOL0     C34724   5.576   6.872   7.623 -0.0424  0.8185  0.1576
  258MOL0     O34725   5.529   6.851   7.496 -0.3242 -0.5819  0.5336
  258MOL0     C34726   5.428   6.758   7.473 -0.2130  0.0897  0.2214
  258MOL0     C34727   5.300   6.800   7.447 -0.5675  0.1842  0.4586
  258MOL0     C34728   5.201   6.715   7.427  0.7963 -1.0776 -0.4781
  258MOL0     C34729   5.237   6.576   7.405  0.0876  0.0635 -0.8306
  258MOL0     O34730   5.150   6.471   7.379 -0.1455  0.0792  0.5561
  258MOL0     C34731   5.023   6.515   7.342  0.2205 -0.3397  0.3073
  258MOL0     C34732   4.930   6.395   7.308  0.8645 -0.6974 -0.2591
  258MOL0     C34733   4.793   6.440   7.263  0.0179  0.7226 -0.4203
  258MOL0     C34734   4.696   6.323   7.261  0.1656 -0.2311 -0.4767
  258MOL0     C34735   4.555   6.367   7.229 -0.4378  0.6888  0.0818
  258MOL0     C34736   4.450   6.255   7.252  0.1065  0.2829 -0.7636
  258MOL0     C34737   4.314   6.296   7.220  0.1027  0.1053 -0.3151
  258MOL0     C34738   4.216   6.188   7.261 -0.2839 -0.6220  0.2806
  258MOL0    Cl34739   4.158   6.197   7.437  0.1466  0.2672 -0.1635
  258MOL0     C34740   5.362   6.526   7.444  0.8947  1.0544  0.0144
  258MOL0     C34741   5.460   6.622   7.485  0.1819  0.0675  0.4661
  258MOL0     O34742   5.546   6.805   7.721 -0.4422 -0.1440  0.0999
  258MOL0     C34743   5.667   7.103   7.545 -0.2912  0.1022  0.7695
  258MOL0     C34744   5.735   7.215   7.572 -0.3848  0.1488 -0.4612
  258MOL0     N34745   6.280   7.317   7.307  0.1659 -0.1648 -0.3703
  258MOL0     N34746   6.248   7.250   7.196 -0.4231  0.4158 -0.2471
  258MOL0     C34747   5.281   6.738   6.720  0.2436 -0.2702 -0.0554
  258MOL0     C34748   5.154   6.688   6.752 -0.5463 -0.1034  0.5154
  258MOL0     C34749   4.860   6.353   6.888 -0.6846 -0.6035 -0.1841
  258MOL0     C34750   4.845   6.213   6.910  1.0093  0.1618  1.2406
  258MOL0     C34751   4.719   6.142   6.904 -0.4708 -0.5108 -0.1606
  258MOL0     C34752   4.605   6.214   6.878 -0.5434  0.0349 -0.4137
  258MOL0     O34753   4.470   6.173   6.881 -0.1590  0.0253  0.2334
  258MOL0     C34754   4.456   6.037   6.885 -1.4818  0.1903  0.3856
  258MOL0     C34755   4.307   6.004   6.875  0.2805 -0.8849 -0.5267
  258MOL0     C34756   4.270   6.008   6.729  0.0240 -1.2488 -0.2666
  258MOL0     C34757   4.120   5.969   6.699  0.0177  0.3507 -0.3591
  258MOL0     C34758   4.023   6.052   6.767 -0.6307  0.1754  0.0708
  258MOL0     C34759   3.943   6.124   6.816  0.5626 -0.4583 -0.4094
  258MOL0     C34760   4.612   6.357   6.866 -0.6492  0.1830  0.2723
  258MOL0     C34761   4.740   6.422   6.864  0.1944 -0.5788  0.0486
  258MOL0     C34762   4.735   6.571   6.848  0.3405  0.1571 -0.2644
  258MOL0     H34763   5.206   6.547   7.051  2.5365 -0.5225 -0.1344
  258MOL0     H34764   5.423   6.629   7.022 -0.2738 -1.6259  0.2563
  258MOL0     H34765   5.531   6.763   6.610 -0.1956 -0.8006  0.8547
  258MOL0     H34766   5.530   6.916   6.708  1.1722  0.8039 -0.7529
  258MOL0     H34767   5.744   6.818   6.586  1.7529 -1.6867 -0.8450
  258MOL0     H34768   5.745   6.692   6.708 -1.6073  0.3120  0.4160
  258MOL0     H34769   5.794   6.855   6.885  0.8670  2.3662  0.7937
  258MOL0     H34770   5.759   6.994   6.783  0.7442 -0.5407  1.1364
  258MOL0     H34771   5.966   6.784   6.712 -1.6257 -1.1230  1.2791
  258MOL0     H34772   5.953   6.946   6.644  0.4026  0.3922  0.0972
  258MOL0     H34773   6.031   6.862   6.931  0.2676  0.4694  0.8116
  258MOL0     H34774   6.140   6.946   6.814  0.9459 -0.8829  1.0752
  258MOL0     H34775   5.988   7.148   6.825 -1.1115  2.3183  1.9291
  258MOL0     H34776   5.905   7.074   6.961  2.0704  1.7694  4.1298
  258MOL0     H34777   6.203   7.123   6.952 -0.1889 -0.8746 -0.2739
  258MOL0     H34778   6.113   7.063   7.092 -1.7485  1.6440  1.3945
  258MOL0     H34779   6.024   7.326   6.966 -0.1377  0.1167  0.5506
  258MOL0     H34780   5.963   7.243   7.109 -0.3132 -0.0573 -1.1104
  258MOL0     H34781   6.030   7.502   7.199 -2.3229 -1.9511 -0.8123
  258MOL0     H34782   6.301   7.590   7.440 -0.4894  0.9910  1.6752
  258MOL0     H34783   6.125   7.608   7.403 -1.8575 -1.9665 -0.3678
  258MOL0     H34784   6.241   7.412   7.596  0.1607  1.2123  0.5540
  258MOL0     H34785   6.194   7.564   7.632  1.4057 -1.2564 -0.0569
  258MOL0     H34786   5.997   7.363   7.493 -0.5467 -0.3888  0.7863
  258MOL0     H34787   5.963   7.523   7.584 -1.3654 -0.6588  0.8269
  258MOL0     H34788   6.039   7.376   7.791  0.6163 -0.7083 -0.2816
  258MOL0     H34789   6.033   7.245   7.668  2.8845  1.0118  0.1450
  258MOL0     H34790   5.814   7.143   7.898 -2.6324 -0.3849  0.7210
  258MOL0     H34791   5.721   6.938   7.844  2.1472 -0.9998  0.8014
  258MOL0     H34792   5.279   6.906   7.435 -0.2314 -0.0090 -2.7291
  258MOL0     H34793   5.103   6.751   7.398  0.9011  0.3116  0.7701
  258MOL0     H34794   4.968   6.576   7.415 -1.4270  0.2742 -1.3544
  258MOL0     H34795   5.041   6.575   7.252  0.7786  0.3416  0.8609
  258MOL0     H34796   4.984   6.323   7.247 -0.2105 -1.3071 -0.5094
  258MOL0     H34797   4.916   6.357   7.410  0.9806  4.3963  1.9744
  258MOL0     H34798   4.750   6.519   7.325 -0.8110  0.1071 -0.1964
  258MOL0     H34799   4.807   6.488   7.166  1.1473  0.9312 -0.1666
  258MOL0     H34800   4.694   6.276   7.360  0.9042 -0.4736 -0.5681
  258MOL0     H34801   4.731   6.246   7.192  3.4966 -0.8596  1.7059
  258MOL0     H34802   4.544   6.396   7.124  1.7108  0.7944 -0.1655
  258MOL0     H34803   4.535   6.448   7.300  2.5494 -1.1116  3.3014
  258MOL0     H34804   4.481   6.166   7.197 -0.8428  0.1667 -1.1412
  258MOL0     H34805   4.457   6.234   7.359  1.8740 -1.2348 -1.1300
  258MOL0     H34806   4.316   6.309   7.111  2.2362  1.1481 -0.2026
  258MOL0     H34807   4.290   6.394   7.262  0.9045  0.5688 -0.9117
  258MOL0     H34808   4.128   6.210   7.200  0.5936 -0.0223 -0.7872
  258MOL0     H34809   4.245   6.086   7.238 -1.4658 -1.0100  0.4204
  258MOL0     H34810   5.387   6.421   7.434 -0.3624  0.3038  3.4060
  258MOL0     H34811   5.560   6.590   7.513  1.2900  3.5010  0.9275
  258MOL0     H34812   5.614   7.092   7.451  0.7500 -3.7786  0.4432
  258MOL0     H34813   5.753   7.286   7.492  0.6808 -2.3086 -2.5580
  258MOL0     H34814   5.296   6.786   6.623  0.1733  1.8781  0.9364
  258MOL0     H34815   5.075   6.703   6.679 -0.4075  3.0764  0.8939
  258MOL0     H34816   4.934   6.160   6.944  1.3833  0.4878  0.7820
  258MOL0     H34817   4.714   6.035   6.926  1.1594  0.0705  4.0149
  258MOL0     H34818   4.489   5.998   6.981 -2.5503  0.5893  0.9378
  258MOL0     H34819   4.507   5.977   6.808  0.4321  2.1465  0.0363
  258MOL0     H34820   4.248   6.077   6.932  1.9464 -0.3393  0.5833
  258MOL0     H34821   4.294   5.906   6.921  0.4663 -1.0356 -0.7949
  258MOL0     H34822   4.339   5.951   6.665 -0.8086 -1.8106 -0.6777
  258MOL0     H34823   4.292   6.109   6.695  2.6601 -2.4387 -2.5971
  258MOL0     H34824   4.112   5.991   6.592  0.2512 -0.1365 -0.4788
  258MOL0     H34825   4.124   5.861   6.709  1.2117  0.1127 -2.6591
  258MOL0     H34826   3.890   6.210   6.852  1.4638 -0.8390  1.9998
  258MOL0     H34827   4.516   6.408   6.857 -0.3059  0.6404 -0.9508
  258MOL0     H34828   4.801   6.608   6.769  1.1778 -3.3236 -1.3636
  258MOL0     H34829   4.633   6.599   6.822  1.5022  3.3607 -1.8944
  258MOL0     H34830   4.755   6.618   6.945 -3.6265  0.3590  0.6303
  259MOL0     O34831   8.905   1.945   2.518 -0.0767  0.3352 -0.3097
  259MOL0     C34832   8.788   1.974   2.546 -0.0166  0.6238  0.1004
  259MOL0     O34833   8.745   2.102   2.542  0.6687  0.3238  0.3588
  259MOL0     C34834   8.839   2.201   2.536 -0.4632 -1.1376 -0.0771
  259MOL0     C34835   8.964   2.214   2.605 -0.1025 -0.0350  0.2878
  259MOL0     C34836   9.044   2.327   2.584 -0.0902 -0.4993  0.0557
  259MOL0     C34837   8.988   2.436   2.516 -0.5515  0.2650  0.2775
  259MOL0     O34838   9.055   2.546   2.481  0.4981 -0.4718 -0.0623
  259MOL0     C34839   9.190   2.529   2.431 -0.8936 -0.4779  0.4127
  259MOL0     C34840   9.251   2.670   2.377  0.5725  0.8240 -0.9408
  259MOL0     C34841   9.147   2.719   2.271  0.1489  0.0519 -0.0423
  259MOL0     C34842   9.178   2.659   2.137  0.1437 -0.0976  0.7383
  259MOL0     C34843   9.091   2.711   2.017 -0.1843 -0.4988 -0.5290
  259MOL0     C34844   9.114   2.639   1.890 -0.7721  1.4179 -0.2367
  259MOL0     C34845   9.264   2.628   1.849 -0.3399  0.4651  0.0448
  259MOL0     C34846   9.264   2.568   1.707  0.4463 -0.0051 -0.1385
  259MOL0     N34847   9.392   2.572   1.644 -0.8974 -0.5376 -0.7503
  259MOL0     C34848   9.481   2.484   1.666 -0.1427  0.1243  0.0850
  259MOL0     C34849   9.596   2.516   1.604 -0.3190 -0.4808  0.0482
  259MOL0     C34850   9.727   2.448   1.630 -0.2471 -0.2977  0.1578
  259MOL0     C34851   9.853   2.519   1.590 -0.1931  0.0869 -0.5601
  259MOL0     C34852   9.967   2.418   1.625  0.4835 -0.6293  0.0769
  259MOL0     C34853  10.099   2.466   1.592  0.4236  0.1254 -0.6676
  259MOL0     O34854  10.202   2.372   1.639 -0.2118 -0.4418  0.2248
  259MOL0     C34855  10.332   2.417   1.632 -0.7022 -0.6459  1.4407
  259MOL0     C34856  10.372   2.553   1.605  1.0790 -0.5653 -1.1123
  259MOL0     C34857  10.505   2.583   1.590  0.0590 -0.0731  0.2235
  259MOL0     C34858  10.599   2.484   1.626 -1.1688  0.5921  0.1753
  259MOL0     C34859  10.739   2.522   1.646  0.6287  0.5898  0.1461
  259MOL0     O34860  10.781   2.624   1.575 -0.1071  0.2612 -0.6190
  259MOL0     C34861  10.904   2.686   1.595 -1.1048 -0.3236 -0.0508
  259MOL0     C34862  11.024   2.643   1.651  0.5690  0.3895 -0.5241
  259MOL0     C34863  11.133   2.728   1.663  0.1707 -0.9175  0.1193
  259MOL0     C34864  11.131   2.858   1.608 -0.7718 -0.1546 -0.5664
  259MOL0     O34865  11.231   2.953   1.607 -0.9120  0.1693 -0.5196
  259MOL0     C34866  11.375   2.915   1.602 -0.5526  0.0931 -0.3098
  259MOL0     C34867  11.468   3.030   1.644  0.2922  0.9179  0.3854
  259MOL0     C34868  11.431   3.138   1.541 -0.9018  0.6020  0.3299
  259MOL0     C34869  11.481   3.272   1.588 -0.1175 -0.2397 -0.6696
  259MOL0     C34870  11.433   3.388   1.494 -0.4321 -0.3796 -0.9941
  259MOL0     C34871  11.483   3.374   1.359 -1.0422 -0.1192 -0.0298
  259MOL0     C34872  11.436   3.493   1.272  0.1159 -0.5428 -0.3871
  259MOL0     C34873  11.498   3.495   1.135 -0.2354  0.6960  0.1155
  259MOL0    Cl34874  11.444   3.361   1.037 -0.1092  0.0370  0.1753
  259MOL0     C34875  11.015   2.907   1.557  0.0390 -0.7166  0.4815
  259MOL0     C34876  10.899   2.823   1.551 -0.4014 -0.6365 -1.0021
  259MOL0     O34877  10.796   2.466   1.730 -0.4445 -0.1048 -0.0161
  259MOL0     C34878  10.566   2.348   1.651 -0.2582 -0.5596  0.2682
  259MOL0     C34879  10.428   2.327   1.658 -0.2610  0.6154  0.5622
  259MOL0     N34880   9.576   2.626   1.534  1.1243  0.1791 -1.0109
  259MOL0     N34881   9.455   2.657   1.567  0.0348 -0.1286  0.0972
  259MOL0     C34882   8.859   2.427   2.460 -1.6367 -0.0370  0.5651
  259MOL0     C34883   8.791   2.307   2.458 -0.8887 -0.4926  0.1065
  259MOL0     C34884   8.692   1.867   2.590  0.3829 -0.6504  0.2462
  259MOL0     C34885   8.737   1.740   2.641 -0.2486 -0.1484 -0.2374
  259MOL0     C34886   8.647   1.640   2.677 -0.2882  0.4051 -1.2820
  259MOL0     C34887   8.511   1.668   2.678  0.4528 -0.1517  0.3126
  259MOL0     O34888   8.433   1.566   2.729  0.1284  0.0896  0.4261
  259MOL0     C34889   8.290   1.575   2.713  0.1489  0.2058  0.2944
  259MOL0     C34890   8.226   1.440   2.753 -1.0390 -0.5113  0.3419
  259MOL0     C34891   8.241   1.433   2.912  0.0413  0.3041 -0.3954
  259MOL0     C34892   8.158   1.302   2.941  0.4630 -1.0899 -0.2006
  259MOL0     C34893   8.178   1.254   3.076  0.0169  0.1699  0.1306
  259MOL0     C34894   8.195   1.215   3.186  0.2902 -0.2120 -1.5688
  259MOL0     C34895   8.452   1.787   2.626  0.7183 -0.0731  0.0425
  259MOL0     C34896   8.546   1.878   2.584  0.1154 -0.5997  0.0704
  259MOL0     C34897   8.484   1.997   2.511 -0.5534  0.1077 -0.1939
  259MOL0     H34898   9.005   2.134   2.666 -0.3400 -0.7147 -0.4281
  259MOL0     H34899   9.141   2.335   2.633  0.0244 -0.1153 -0.2276
  259MOL0     H34900   9.262   2.495   2.507  0.4457 -0.5833 -0.8710
  259MOL0     H34901   9.180   2.453   2.353 -1.6924 -1.1534  1.1449
  259MOL0     H34902   9.354   2.659   2.341  0.4064 -2.3094 -0.7043
  259MOL0     H34903   9.258   2.742   2.458 -0.9176  2.0191 -1.8090
  259MOL0     H34904   9.147   2.826   2.252 -1.6384  0.0437 -0.2506
  259MOL0     H34905   9.043   2.690   2.290  0.7733 -2.1336  0.2945
  259MOL0     H34906   9.281   2.682   2.107  0.2742 -0.2761  1.0416
  259MOL0     H34907   9.163   2.552   2.151 -2.9206  0.4684  2.8710
  259MOL0     H34908   8.983   2.707   2.031 -0.4924 -0.7845 -2.7392
  259MOL0     H34909   9.116   2.816   2.003  0.2315 -0.0321  2.8304
  259MOL0     H34910   9.075   2.537   1.901 -0.4495  0.9042 -3.0844
  259MOL0     H34911   9.054   2.684   1.810 -0.3082 -0.8841 -1.9802
  259MOL0     H34912   9.335   2.568   1.907  0.1195 -0.1728 -1.1430
  259MOL0     H34913   9.290   2.733   1.831 -1.1804  0.3267 -2.3346
  259MOL0     H34914   9.218   2.469   1.703 -1.0391  0.5518  1.6840
  259MOL0     H34915   9.206   2.628   1.636  2.7363 -0.7287 -2.7838
  259MOL0     H34916   9.471   2.419   1.753 -2.5207  0.4601  0.1411
  259MOL0     H34917   9.731   2.428   1.737 -4.3948 -0.9640  0.3468
  259MOL0     H34918   9.726   2.348   1.586  1.9671  0.0710 -0.8631
  259MOL0     H34919   9.856   2.542   1.483  1.0727  2.5637 -0.0621
  259MOL0     H34920   9.868   2.608   1.652 -3.5655 -0.2432  0.9439
  259MOL0     H34921   9.955   2.327   1.567 -0.6946  0.9208 -2.2774
  259MOL0     H34922   9.961   2.399   1.733  0.6300  0.9993  0.4008
  259MOL0     H34923  10.116   2.551   1.659  1.0863 -1.1846  0.8897
  259MOL0     H34924  10.117   2.502   1.490 -3.5598  2.5259 -0.7474
  259MOL0     H34925  10.300   2.634   1.597 -0.1056 -1.5340 -0.5126
  259MOL0     H34926  10.532   2.686   1.568  1.6666 -0.6155 -0.5342
  259MOL0     H34927  11.023   2.545   1.696  3.1675 -0.3599 -1.8723
  259MOL0     H34928  11.221   2.683   1.709  2.6651  1.7479 -1.6927
  259MOL0     H34929  11.401   2.825   1.658  0.0997 -1.6964 -3.2259
  259MOL0     H34930  11.393   2.899   1.495 -1.1265  0.9963 -0.5513
  259MOL0     H34931  11.434   3.059   1.743 -3.9903  0.5975 -0.7892
  259MOL0     H34932  11.573   2.997   1.640  0.0718  0.1868  0.3409
  259MOL0     H34933  11.488   3.111   1.451 -2.0276  1.1264 -0.5793
  259MOL0     H34934  11.324   3.143   1.520 -1.1691 -0.3791  1.3636
  259MOL0     H34935  11.590   3.268   1.575 -0.2838 -0.9278 -2.0560
  259MOL0     H34936  11.463   3.278   1.696 -2.6788 -2.2738 -0.8940
  259MOL0     H34937  11.480   3.476   1.538 -0.5805 -2.0107  2.9163
  259MOL0     H34938  11.324   3.397   1.497 -0.4222  0.0318  2.1727
  259MOL0     H34939  11.592   3.364   1.354 -0.7433  2.5804 -0.5991
  259MOL0     H34940  11.439   3.287   1.310  0.3169 -1.2687  0.6968
  259MOL0     H34941  11.443   3.596   1.307 -0.0060  0.0734 -2.0785
  259MOL0     H34942  11.329   3.472   1.259 -0.8941  2.8998  1.1570
  259MOL0     H34943  11.474   3.589   1.085 -3.8849 -0.0319  0.2158
  259MOL0     H34944  11.606   3.488   1.146 -0.3146 -0.6069  0.2834
  259MOL0     H34945  11.020   3.009   1.521  0.0639 -0.1596  1.9951
  259MOL0     H34946  10.804   2.865   1.521  0.2521  0.2792 -1.8530
  259MOL0     H34947  10.633   2.272   1.690 -1.5865 -1.5350  0.7080
  259MOL0     H34948  10.393   2.227   1.682  1.9474  0.1785  2.3538
  259MOL0     H34949   8.813   2.508   2.404 -2.3420 -0.8469 -0.0639
  259MOL0     H34950   8.697   2.304   2.403 -0.7992 -1.9715  0.0193
  259MOL0     H34951   8.843   1.719   2.653 -0.7397 -3.5892 -1.0874
  259MOL0     H34952   8.674   1.546   2.725  1.0501  0.0684 -2.6231
  259MOL0     H34953   8.258   1.597   2.611 -0.3374 -3.0568 -0.3840
  259MOL0     H34954   8.254   1.653   2.780  0.1553  0.2487  0.2475
  259MOL0     H34955   8.271   1.358   2.696 -3.0668 -0.4708 -1.4668
  259MOL0     H34956   8.125   1.445   2.711 -0.6679  1.4101 -0.4237
  259MOL0     H34957   8.188   1.511   2.966 -3.0924 -2.1769  0.3910
  259MOL0     H34958   8.345   1.426   2.945 -0.1110 -0.7095 -0.0952
  259MOL0     H34959   8.050   1.320   2.937  0.4012 -1.4978 -0.5205
  259MOL0     H34960   8.174   1.222   2.868 -0.6011 -2.0061  0.5435
  259MOL0     H34961   8.191   1.164   3.281  0.1288  3.4282  0.5743
  259MOL0     H34962   8.344   1.793   2.634  0.5637 -1.4249 -0.6553
  259MOL0     H34963   8.507   1.988   2.404  1.2159 -2.5936  0.3376
  259MOL0     H34964   8.375   1.998   2.517 -0.6343 -2.3832 -0.3829
  259MOL0     H34965   8.511   2.094   2.553 -3.2178  0.6977  0.3267
  260MOL0     O34966  10.357   6.660   6.840  0.7563 -0.5636  0.2891
  260MOL0     C34967  10.332   6.543   6.847  0.3310 -0.3721 -0.6035
  260MOL0     O34968  10.417   6.441   6.821 -0.3515  0.2194  0.1515
  260MOL0     C34969  10.544   6.462   6.774  0.3033  0.3141 -0.3855
  260MOL0     C34970  10.581   6.353   6.692  0.6671 -0.6436  0.9124
  260MOL0     C34971  10.694   6.370   6.617  0.0863  0.2663 -0.4549
  260MOL0     C34972  10.779   6.483   6.629 -1.2969 -0.1562  0.8317
  260MOL0     O34973  10.895   6.504   6.564  0.0334 -0.1214 -0.3739
  260MOL0     C34974  10.940   6.397   6.474 -0.3327  0.2513  1.0483
  260MOL0     C34975  11.056   6.444   6.400 -0.6580  1.1037  0.0128
  260MOL0     C34976  11.186   6.437   6.492 -1.1001  0.1324 -1.6136
  260MOL0     C34977  11.316   6.473   6.413 -0.1126 -0.2297 -0.6861
  260MOL0     C34978  11.339   6.622   6.404 -0.0851  0.4390 -1.0049
  260MOL0     C34979  11.474   6.654   6.340 -0.0556 -0.2221 -0.1285
  260MOL0     C34980  11.589   6.680   6.439 -0.0166 -0.8728 -0.2070
  260MOL0     C34981  11.716   6.749   6.388  0.2807 -0.7868  0.2748
  260MOL0     N34982  11.684   6.882   6.343  0.2636  0.0137  0.2663
  260MOL0     C34983  11.661   6.971   6.436  0.3035 -0.3537  0.5013
  260MOL0     C34984  11.626   7.082   6.358  0.3592  0.2490 -0.1644
  260MOL0     C34985  11.581   7.207   6.423  0.2679  0.7019  0.2181
  260MOL0     C34986  11.702   7.298   6.410  0.2025  0.8835  0.3423
  260MOL0     C34987  11.667   7.436   6.452  0.8419  0.0978  0.0177
  260MOL0     C34988  11.800   7.505   6.482 -0.2247  0.7864  0.6438
  260MOL0     O34989  11.862   7.542   6.360 -1.2391 -0.4452  0.1275
  260MOL0     C34990  11.994   7.585   6.389  0.4877  0.8091  0.8175
  260MOL0     C34991  12.063   7.598   6.513 -1.2190 -0.4070 -0.4771
  260MOL0     C34992  12.193   7.645   6.516 -0.9551 -0.0104 -0.4483
  260MOL0     C34993  12.269   7.683   6.402  0.4663  0.2307 -0.4479
  260MOL0     C34994  12.404   7.733   6.418 -0.1625 -0.5281  0.0101
  260MOL0     O34995  12.435   7.795   6.540 -0.1621 -0.1962  0.1751
  260MOL0     C34996  12.557   7.859   6.551  0.4504  0.0684 -0.6643
  260MOL0     C34997  12.667   7.802   6.621 -0.4772 -0.5335 -0.0064
  260MOL0     C34998  12.782   7.879   6.635  0.0590 -0.1741  0.3405
  260MOL0     C34999  12.795   8.007   6.572 -0.0521 -0.7240 -0.3044
  260MOL0     O35000  12.898   8.084   6.571 -0.9631 -0.2258  0.0008
  260MOL0     C35001  13.034   8.038   6.602  0.6831  0.0531  0.4326
  260MOL0     C35002  13.132   8.141   6.593  0.4042  0.4662  0.4582
  260MOL0     C35003  13.279   8.084   6.627  1.2080 -0.1156  0.6107
  260MOL0     C35004  13.385   8.187   6.628  0.1086  1.3125 -0.6102
  260MOL0     C35005  13.517   8.120   6.636 -0.2933  0.8603  0.4224
  260MOL0     C35006  13.626   8.217   6.599  0.0590  0.2360  0.1719
  260MOL0     C35007  13.760   8.144   6.574  0.3671  0.2046 -0.0710
  260MOL0     C35008  13.830   8.101   6.705  0.4485 -0.7165 -0.4683
  260MOL0    Cl35009  13.973   8.006   6.678  0.0968 -0.1540 -0.2648
  260MOL0     C35010  12.681   8.056   6.501  0.5987  0.0249  0.1593
  260MOL0     C35011  12.568   7.981   6.486  0.0317  0.8583  0.3058
  260MOL0     O35012  12.476   7.718   6.317 -0.1329 -1.2214 -0.0883
  260MOL0     C35013  12.193   7.675   6.284 -0.0639  0.3162 -0.1787
  260MOL0     C35014  12.065   7.619   6.276  0.4277 -0.2386  0.5208
  260MOL0     N35015  11.616   7.048   6.227  0.5456 -0.1727  0.5273
  260MOL0     N35016  11.658   6.921   6.218  0.1363  0.5061 -0.5147
  260MOL0     C35017  10.741   6.582   6.715  0.2837  0.1584 -0.4403
  260MOL0     C35018  10.624   6.570   6.787 -0.0410 -0.7875 -0.1995
  260MOL0     C35019  10.190   6.500   6.888 -0.8180  0.3278 -0.9190
  260MOL0     C35020  10.172   6.368   6.922 -0.4249  1.1498 -1.0264
  260MOL0     C35021  10.046   6.321   6.956 -0.1739  0.0220 -0.0192
  260MOL0     C35022   9.932   6.411   6.954 -0.7854 -0.4799  0.1904
  260MOL0     O35023   9.804   6.383   6.996 -0.0558  0.2530  0.2719
  260MOL0     C35024   9.802   6.324   7.132  0.2619  0.5386  0.3893
  260MOL0     C35025   9.663   6.304   7.181 -0.1882  0.0148  0.0513
  260MOL0     C35026   9.585   6.434   7.197  0.5120 -0.9453 -0.5959
  260MOL0     C35027   9.444   6.387   7.222 -0.2169 -0.5678 -0.0214
  260MOL0     C35028   9.432   6.319   7.353 -0.3520 -0.0624  0.7842
  260MOL0     C35029   9.419   6.262   7.456  0.9054 -0.2646  0.3955
  260MOL0     C35030   9.954   6.544   6.914  0.7736  0.3740  0.5658
  260MOL0     C35031  10.077   6.594   6.888 -0.5349  0.6176 -0.8336
  260MOL0     C35032  10.089   6.739   6.868  0.0702  0.4775 -0.3455
  260MOL0     H35033  10.514   6.268   6.688  0.3244 -0.3410  0.0026
  260MOL0     H35034  10.723   6.295   6.544  0.5344 -1.3994  1.3410
  260MOL0     H35035  10.968   6.312   6.536  3.2025  0.6148  0.1895
  260MOL0     H35036  10.863   6.367   6.403  0.7057  1.4131 -0.6521
  260MOL0     H35037  11.046   6.547   6.363  2.8130  1.1886 -1.0107
  260MOL0     H35038  11.073   6.377   6.315  1.9019  1.9797 -0.2458
  260MOL0     H35039  11.190   6.341   6.544 -2.5321  1.3695  0.9645
  260MOL0     H35040  11.176   6.502   6.579  1.2705 -2.0874  0.4702
  260MOL0     H35041  11.390   6.425   6.478  1.8255  2.9666 -0.3323
  260MOL0     H35042  11.314   6.429   6.313 -3.1096 -0.2443 -0.7094
  260MOL0     H35043  11.250   6.669   6.361 -0.5134  2.4867  1.8687
  260MOL0     H35044  11.341   6.664   6.504 -2.1798 -3.4046  0.8748
  260MOL0     H35045  11.508   6.576   6.272  0.2009 -2.2671  2.2209
  260MOL0     H35046  11.455   6.743   6.279  0.1320 -0.6169 -0.7711
  260MOL0     H35047  11.614   6.580   6.476  0.9733  0.4977  3.2165
  260MOL0     H35048  11.550   6.735   6.524  0.8726  0.4275 -0.6087
  260MOL0     H35049  11.781   6.756   6.476  0.5621 -2.6076  0.2421
  260MOL0     H35050  11.765   6.688   6.312 -0.9267  2.0501 -3.0418
  260MOL0     H35051  11.672   6.961   6.543  4.6619 -0.1140  0.2742
  260MOL0     H35052  11.496   7.252   6.372 -0.0162 -0.2271 -0.1553
  260MOL0     H35053  11.562   7.183   6.528  0.0692 -0.3962 -0.0570
  260MOL0     H35054  11.791   7.259   6.461  1.1398  0.3800 -1.5765
  260MOL0     H35055  11.722   7.310   6.303 -2.9414 -0.2017 -0.4550
  260MOL0     H35056  11.595   7.436   6.533 -2.1791 -0.4772 -2.4847
  260MOL0     H35057  11.607   7.488   6.376  1.9758  0.3947 -0.7037
  260MOL0     H35058  11.861   7.438   6.543 -1.8618 -0.2086  1.2645
  260MOL0     H35059  11.796   7.603   6.530  5.0091  2.0568 -0.8518
  260MOL0     H35060  12.013   7.580   6.608  1.3808  0.6594  1.1909
  260MOL0     H35061  12.248   7.647   6.609  1.0145 -1.5872 -1.4957
  260MOL0     H35062  12.661   7.697   6.649 -3.7759 -0.0154  1.6814
  260MOL0     H35063  12.866   7.834   6.687  0.4651  1.2976  1.0094
  260MOL0     H35064  13.034   8.001   6.704  1.0328  1.8220  1.1183
  260MOL0     H35065  13.055   7.965   6.524  0.2046  0.4192 -0.0495
  260MOL0     H35066  13.132   8.187   6.494  4.3358  2.7360  1.2877
  260MOL0     H35067  13.107   8.225   6.659 -2.4106  0.9152 -1.0060
  260MOL0     H35068  13.276   8.042   6.728 -0.3284 -0.6963  0.3552
  260MOL0     H35069  13.301   8.007   6.553 -2.2906  1.6034 -2.5831
  260MOL0     H35070  13.377   8.258   6.711 -2.1085  0.9674 -0.4691
  260MOL0     H35071  13.378   8.245   6.535 -0.2214  0.7105 -0.9695
  260MOL0     H35072  13.510   8.026   6.580 -1.8851  0.2584  1.5617
  260MOL0     H35073  13.546   8.082   6.734  3.4280  0.9501 -0.4718
  260MOL0     H35074  13.596   8.257   6.503 -1.5354  1.7356  1.2383
  260MOL0     H35075  13.633   8.302   6.668 -0.6712 -0.5227  1.2254
  260MOL0     H35076  13.826   8.209   6.515  0.8400 -1.2897 -1.2487
  260MOL0     H35077  13.731   8.052   6.522 -1.4008  0.9869 -0.5697
  260MOL0     H35078  13.863   8.194   6.750 -2.7116 -0.3503  1.3977
  260MOL0     H35079  13.760   8.050   6.771  1.4008 -1.1953  0.1971
  260MOL0     H35080  12.693   8.148   6.445  0.1377  0.1203  0.2109
  260MOL0     H35081  12.492   8.019   6.418 -0.3994  0.1976  0.4137
  260MOL0     H35082  12.225   7.709   6.186  0.9103  2.0678  0.6892
  260MOL0     H35083  12.021   7.622   6.177  3.7215  0.4536 -1.0673
  260MOL0     H35084  10.795   6.676   6.706  1.2131 -0.5485 -3.2185
  260MOL0     H35085  10.605   6.651   6.857 -1.1328 -0.6911 -0.5867
  260MOL0     H35086  10.260   6.306   6.939 -0.5331  0.9698 -1.1164
  260MOL0     H35087  10.021   6.217   6.976  1.0126 -0.5212 -1.2265
  260MOL0     H35088   9.849   6.389   7.207 -1.4413  2.8009 -0.3720
  260MOL0     H35089   9.854   6.228   7.129  1.5887  1.2553 -0.8770
  260MOL0     H35090   9.665   6.254   7.278  2.1566 -2.4801 -1.1443
  260MOL0     H35091   9.617   6.236   7.109 -1.2338 -0.1232  0.8334
  260MOL0     H35092   9.598   6.485   7.102  1.0589 -2.1121 -1.1640
  260MOL0     H35093   9.594   6.507   7.278 -2.2886  0.5003 -1.4411
  260MOL0     H35094   9.389   6.482   7.227  1.6547  0.6064 -0.5081
  260MOL0     H35095   9.411   6.323   7.140  2.9208 -0.3304 -1.6192
  260MOL0     H35096   9.407   6.224   7.555  1.3000 -0.8990  0.2059
  260MOL0     H35097   9.864   6.605   6.921  0.4574 -0.1418  1.0570
  260MOL0     H35098  10.143   6.786   6.951  0.0443 -1.6778  0.9625
  260MOL0     H35099  10.137   6.753   6.771  2.8592 -0.0698  0.8658
  260MOL0     H35100   9.990   6.787   6.864  0.0490  0.7705  2.1560
  261MOL0     O35101   2.576   9.185   4.973 -0.1682  0.3061 -0.7845
  261MOL0     C35102   2.517   9.245   5.064  0.9011 -0.5429  0.0581
  261MOL0     O35103   2.575   9.337   5.150 -0.1473 -0.0461  0.5833
  261MOL0     C35104   2.710   9.322   5.187  0.2837 -0.2232  0.0534
  261MOL0     C35105   2.731   9.362   5.322 -0.5022  0.2808 -0.2888
  261MOL0     C35106   2.864   9.352   5.366 -0.4604 -0.1129 -0.1568
  261MOL0     C35107   2.970   9.310   5.284 -0.0002  0.1379 -0.4293
  261MOL0     O35108   3.104   9.321   5.323  0.7814 -0.5838 -0.4736
  261MOL0     C35109   3.168   9.189   5.327 -0.3236 -0.1039  1.0346
  261MOL0     C35110   3.316   9.199   5.306  0.4788 -0.6767  1.0518
  261MOL0     C35111   3.396   9.243   5.432 -0.5078 -0.0242  0.1905
  261MOL0     C35112   3.547   9.224   5.423 -0.4200 -0.5309  0.3404
  261MOL0     C35113   3.617   9.228   5.558  0.0209 -0.0445  0.2456
  261MOL0     C35114   3.767   9.237   5.536  0.2506  0.2268  0.3095
  261MOL0     C35115   3.825   9.247   5.687 -0.2577  0.2408  0.6387
  261MOL0     C35116   3.972   9.285   5.658  0.5134 -0.2054  0.5596
  261MOL0     N35117   4.030   9.197   5.563  0.2228  0.5072  0.2377
  261MOL0     C35118   4.047   9.059   5.584  0.7702  0.0886  0.5643
  261MOL0     C35119   4.088   9.012   5.466 -0.3411  0.3354  1.7009
  261MOL0     C35120   4.119   8.874   5.431  0.4045  0.4934 -0.4852
  261MOL0     C35121   4.229   8.802   5.514  0.3024 -0.2826  0.2110
  261MOL0     C35122   4.367   8.874   5.521 -0.0583  0.7424 -0.1501
  261MOL0     C35123   4.427   8.908   5.375 -0.5720 -0.9333 -1.0334
  261MOL0     O35124   4.567   8.934   5.366 -0.6543 -0.5318  0.0552
  261MOL0     C35125   4.660   8.833   5.348  0.1038  0.2015  1.2549
  261MOL0     C35126   4.638   8.700   5.365  0.0344  0.6481  0.8052
  261MOL0     C35127   4.736   8.594   5.353  0.3486  0.0041  0.8711
  261MOL0     C35128   4.866   8.632   5.306  0.1175 -0.4911 -0.1897
  261MOL0     C35129   4.977   8.540   5.283  0.2570 -0.7219 -0.6842
  261MOL0     O35130   5.077   8.586   5.208 -0.3411  0.1805  0.5031
  261MOL0     C35131   5.193   8.509   5.180  0.1382  0.0116  0.3416
  261MOL0     C35132   5.182   8.394   5.110  0.4480 -0.3504 -0.1459
  261MOL0     C35133   5.296   8.306   5.099  0.5059  0.1994 -0.5372
  261MOL0     C35134   5.416   8.336   5.162  0.8935 -0.1677  0.0028
  261MOL0     O35135   5.524   8.252   5.173 -0.1772  0.3903  0.5672
  261MOL0     C35136   5.542   8.156   5.062 -0.1086  0.1291  0.0810
  261MOL0     C35137   5.680   8.112   5.035 -0.2539  0.0767 -0.1721
  261MOL0     C35138   5.754   8.071   5.167 -0.3154 -0.0068 -0.2149
  261MOL0     C35139   5.893   8.015   5.147  0.2390  0.7775  0.3574
  261MOL0     C35140   5.967   7.998   5.280 -0.2122  0.1013 -0.3589
  261MOL0     C35141   6.101   7.913   5.285  0.0822 -0.0838  0.1104
  261MOL0     C35142   6.223   7.984   5.234 -0.1808 -0.3293  0.5442
  261MOL0     C35143   6.350   7.899   5.224  0.2597 -0.1195 -0.1611
  261MOL0    Cl35144   6.325   7.759   5.116 -0.2013 -0.1622 -0.3756
  261MOL0     C35145   5.426   8.457   5.219  0.1789  0.4658  0.0229
  261MOL0     C35146   5.314   8.543   5.236 -0.2681 -0.5401  0.1983
  261MOL0     O35147   4.962   8.427   5.331  0.4457  0.2265  0.1167
  261MOL0     C35148   4.886   8.775   5.275 -0.3642 -0.8251 -0.2213
  261MOL0     C35149   4.781   8.870   5.296 -0.3078  0.3930 -0.4113
  261MOL0     N35150   4.108   9.122   5.381  0.3164  0.0963  0.0452
  261MOL0     N35151   4.070   9.235   5.438 -0.7401  0.9593 -0.0288
  261MOL0     C35152   2.936   9.251   5.159 -0.6845  0.5128 -0.3710
  261MOL0     C35153   2.812   9.263   5.107  0.7792 -1.0075 -0.2615
  261MOL0     C35154   2.369   9.225   5.070  0.1787 -0.0570 -0.6017
  261MOL0     C35155   2.315   9.155   4.959  0.4207  0.4675  0.4010
  261MOL0     C35156   2.178   9.133   4.936 -0.4630  0.0219 -0.2021
  261MOL0     C35157   2.090   9.182   5.035 -0.0014  0.1646 -0.5444
  261MOL0     O35158   1.948   9.167   5.036 -0.3270 -0.1311  0.2790
  261MOL0     C35159   1.879   9.130   4.913 -1.4227  0.5682 -0.1311
  261MOL0     C35160   1.726   9.165   4.914 -0.2019 -0.1686  0.3884
  261MOL0     C35161   1.709   9.316   4.948  0.1783  0.5621 -0.4707
  261MOL0     C35162   1.590   9.392   4.891  0.9059  0.1653  0.2379
  261MOL0     C35163   1.456   9.328   4.893  0.3809 -0.2202 -0.1578
  261MOL0     C35164   1.348   9.271   4.917  0.7838 -0.5376 -0.5826
  261MOL0     C35165   2.139   9.250   5.147 -0.4954  0.2414 -0.6001
  261MOL0     C35166   2.277   9.279   5.169 -0.4211  0.1653  0.0592
  261MOL0     C35167   2.312   9.358   5.292  0.8237  0.5872  0.1652
  261MOL0     H35168   2.655   9.381   5.397 -2.6431 -0.1082 -2.2433
  261MOL0     H35169   2.889   9.389   5.464 -3.5947 -2.0904  1.5524
  261MOL0     H35170   3.144   9.143   5.424 -1.6637 -0.4794  0.5363
  261MOL0     H35171   3.125   9.115   5.260  0.8164  0.5723 -0.4886
  261MOL0     H35172   3.334   9.279   5.234  1.6302 -1.5653  0.3119
  261MOL0     H35173   3.360   9.104   5.273  0.4019 -0.5808  0.6688
  261MOL0     H35174   3.363   9.179   5.514 -0.3022 -4.0401 -2.5623
  261MOL0     H35175   3.383   9.349   5.451 -1.6679 -0.4416  1.8362
  261MOL0     H35176   3.577   9.130   5.376 -0.7891  0.5693 -2.2831
  261MOL0     H35177   3.585   9.305   5.359  0.4296 -0.6882  0.6383
  261MOL0     H35178   3.569   9.312   5.610 -0.3838  0.6264 -1.1664
  261MOL0     H35179   3.595   9.137   5.616 -3.3507  1.1787  1.1595
  261MOL0     H35180   3.792   9.138   5.496  1.5751 -0.6963  3.1315
  261MOL0     H35181   3.806   9.305   5.460  1.3106 -0.8600 -0.1600
  261MOL0     H35182   3.820   9.146   5.728 -2.1628 -0.2813 -0.7214
  261MOL0     H35183   3.783   9.328   5.747  1.9883  1.7849  0.2700
  261MOL0     H35184   3.968   9.385   5.613 -0.2843  0.2704  1.6284
  261MOL0     H35185   4.032   9.279   5.750 -0.0777 -0.9136  0.9142
  261MOL0     H35186   4.036   9.003   5.676 -0.7291  0.9579  0.9546
  261MOL0     H35187   4.022   8.826   5.450  0.0939  1.1583 -0.3814
  261MOL0     H35188   4.141   8.856   5.326 -2.1029 -1.6334 -0.7670
  261MOL0     H35189   4.188   8.769   5.610  0.2948  0.4563  0.4649
  261MOL0     H35190   4.234   8.702   5.468 -1.0894 -0.3104  0.0737
  261MOL0     H35191   4.439   8.811   5.573 -0.0246  0.4167 -0.5909
  261MOL0     H35192   4.353   8.964   5.582 -0.5607  1.1757 -0.8871
  261MOL0     H35193   4.366   8.989   5.336 -0.7330 -0.4062  0.2433
  261MOL0     H35194   4.405   8.819   5.316 -1.5941  0.2622 -2.4950
  261MOL0     H35195   4.536   8.669   5.387 -0.8209  4.9772  4.5004
  261MOL0     H35196   4.707   8.494   5.385 -0.6791 -1.8291 -4.6884
  261MOL0     H35197   5.086   8.371   5.065  0.5405 -0.7078 -0.1602
  261MOL0     H35198   5.276   8.210   5.052 -1.0012  1.2282 -2.1281
  261MOL0     H35199   5.471   8.073   5.072 -2.4319  2.1253  1.1329
  261MOL0     H35200   5.508   8.218   4.978 -0.9276  1.5637  1.4329
  261MOL0     H35201   5.688   8.027   4.967 -0.4824  1.1396 -1.5594
  261MOL0     H35202   5.732   8.195   4.987 -0.7155 -1.0087 -2.7091
  261MOL0     H35203   5.778   8.166   5.215  1.6210  0.1061 -1.3156
  261MOL0     H35204   5.691   8.015   5.237  2.3624  0.9530  3.1977
  261MOL0     H35205   5.954   8.079   5.082  1.4370  2.4951  3.0030
  261MOL0     H35206   5.884   7.921   5.091 -0.7597  0.9345  0.2279
  261MOL0     H35207   5.896   7.946   5.344 -1.4356 -2.5465 -3.5571
  261MOL0     H35208   6.002   8.095   5.317  1.3708 -1.1459  1.6362
  261MOL0     H35209   6.117   7.864   5.382 -1.1194 -1.8606 -0.5310
  261MOL0     H35210   6.070   7.824   5.229  1.1687 -1.1885  1.2174
  261MOL0     H35211   6.230   8.071   5.300 -1.3383 -1.5763  2.3928
  261MOL0     H35212   6.202   8.015   5.131 -1.2036  0.9355  1.1058
  261MOL0     H35213   6.431   7.956   5.179  0.8437 -1.9371 -1.5310
  261MOL0     H35214   6.381   7.867   5.324  1.0861  1.0762 -0.0210
  261MOL0     H35215   5.522   8.477   5.266  1.0852 -0.3768 -1.3727
  261MOL0     H35216   5.326   8.643   5.277  1.8727 -0.1646 -1.1754
  261MOL0     H35217   4.975   8.817   5.232 -0.9380  2.1456  1.2388
  261MOL0     H35218   4.806   8.973   5.273  4.0079 -0.5151 -0.6601
  261MOL0     H35219   3.009   9.210   5.090  3.1003  3.7793  1.2610
  261MOL0     H35220   2.797   9.236   5.003 -0.9623  1.8131 -0.8686
  261MOL0     H35221   2.386   9.108   4.891 -1.2860 -0.0509 -1.0973
  261MOL0     H35222   2.128   9.076   4.859 -3.4602  0.3466  1.3499
  261MOL0     H35223   1.877   9.020   4.908 -0.2195  0.5570 -0.6725
  261MOL0     H35224   1.925   9.183   4.830  2.0805 -2.0718 -0.0979
  261MOL0     H35225   1.665   9.103   4.981 -2.7627  0.1186 -1.5065
  261MOL0     H35226   1.682   9.147   4.815 -0.5849  1.7289  0.1679
  261MOL0     H35227   1.800   9.366   4.911  1.9798 -0.8489  1.7907
  261MOL0     H35228   1.698   9.329   5.056 -2.2511 -0.4258 -0.5527
  261MOL0     H35229   1.579   9.489   4.940 -1.0089  0.5736 -0.8871
  261MOL0     H35230   1.607   9.393   4.783  1.1869 -2.0520  0.2134
  261MOL0     H35231   1.258   9.215   4.933  1.5301 -1.6064 -0.0430
  261MOL0     H35232   2.071   9.271   5.229 -1.3090  0.4321 -1.3096
  261MOL0     H35233   2.410   9.327   5.331  0.3428  1.2360  1.9774
  261MOL0     H35234   2.319   9.456   5.245 -1.1563 -0.5397 -2.7880
  261MOL0     H35235   2.234   9.361   5.368 -2.6874  1.6730 -3.1697
  262MOL0     O35236   8.092   5.734  11.308  0.3838  0.7547  0.0383
  262MOL0     C35237   8.150   5.705  11.413 -0.4625  0.7234  0.7313
  262MOL0     O35238   8.267   5.635  11.428 -0.2511 -0.1518 -0.4830
  262MOL0     C35239   8.358   5.617  11.326  0.5369 -0.6283 -0.1855
  262MOL0     C35240   8.360   5.685  11.205  0.1423  0.2965  0.0585
  262MOL0     C35241   8.464   5.661  11.114  0.0474 -0.5977 -0.6100
  262MOL0     C35242   8.573   5.571  11.127  0.1513  0.1112 -0.2667
  262MOL0     O35243   8.643   5.553  11.020 -0.0048  0.3860  0.1671
  262MOL0     C35244   8.781   5.515  11.041 -0.1951  0.6924 -0.8738
  262MOL0     C35245   8.819   5.416  10.928  0.1203  0.5540 -0.1130
  262MOL0     C35246   8.741   5.285  10.952 -0.7862 -0.1864 -0.8252
  262MOL0     C35247   8.795   5.176  10.863  0.7071 -0.3015  0.3795
  262MOL0     C35248   8.736   5.031  10.898  0.2670 -0.4400 -0.6365
  262MOL0     C35249   8.755   4.934  10.791  0.2511  0.1878 -0.6214
  262MOL0     C35250   8.878   4.918  10.705 -0.5507 -0.5205  0.4283
  262MOL0     C35251   9.009   4.912  10.781  0.2903  0.1293 -0.6114
  262MOL0     N35252   9.118   4.914  10.684 -0.0155 -0.0460 -0.0910
  262MOL0     C35253   9.205   4.811  10.661 -0.0688  0.4539  0.2950
  262MOL0     C35254   9.312   4.864  10.591  0.7020 -0.1207  0.7086
  262MOL0     C35255   9.442   4.790  10.553  0.8411  0.6318  0.5644
  262MOL0     C35256   9.553   4.852  10.464  0.4540 -0.2119  0.2123
  262MOL0     C35257   9.689   4.773  10.498  0.4717  0.1285 -0.3311
  262MOL0     C35258   9.779   4.764  10.373 -0.0860 -0.1439  0.9982
  262MOL0     O35259   9.810   4.899  10.346 -0.1872  0.1555 -0.0659
  262MOL0     C35260   9.926   4.948  10.287  1.0456 -0.0164 -0.2980
  262MOL0     C35261  10.048   4.871  10.282 -0.5045  0.0105  0.4888
  262MOL0     C35262  10.167   4.933  10.250  0.0989  0.1987 -0.2579
  262MOL0     C35263  10.167   5.068  10.235 -0.0875 -0.0143  1.0866
  262MOL0     C35264  10.294   5.130  10.181 -0.1192  0.0405 -0.8928
  262MOL0     O35265  10.391   5.043  10.147 -0.3133 -0.5003 -0.3571
  262MOL0     C35266  10.513   5.100  10.138  0.0624 -0.6923  0.4135
  262MOL0     C35267  10.601   5.097  10.244 -0.0867  0.4933  0.0328
  262MOL0     C35268  10.714   5.170  10.243 -0.4278 -0.4705  0.2787
  262MOL0     C35269  10.750   5.253  10.132  0.8349 -0.3914 -0.1000
  262MOL0     O35270  10.876   5.304  10.124  0.7498  0.7932  0.5443
  262MOL0     C35271  10.928   5.381  10.230  0.2473 -0.0920 -0.1119
  262MOL0     C35272  11.063   5.449  10.193  0.0510 -0.4657 -0.2218
  262MOL0     C35273  11.170   5.360  10.122  0.6500 -0.2815  0.6570
  262MOL0     C35274  11.314   5.415  10.132  0.8940 -0.2343  0.6090
  262MOL0     C35275  11.380   5.405  10.265 -0.4808 -0.3949 -0.0596
  262MOL0     C35276  11.490   5.512  10.287  0.4471  0.0538  0.8526
  262MOL0     C35277  11.562   5.499  10.419  0.9515 -0.1470 -0.3927
  262MOL0     C35278  11.660   5.616  10.419 -0.0439 -0.5560  0.2900
  262MOL0    Cl35279  11.794   5.581  10.309  0.0323  0.2708  0.0982
  262MOL0     C35280  10.674   5.247  10.022  1.5074  0.5622 -0.0619
  262MOL0     C35281  10.553   5.172  10.025 -0.2924  0.3486  1.1440
  262MOL0     O35282  10.300   5.254  10.165 -0.5556 -0.2229 -0.7507
  262MOL0     C35283  10.049   5.146  10.247 -0.7305  0.0758  0.1659
  262MOL0     C35284   9.921   5.091  10.272 -0.3373  0.1294 -0.1070
  262MOL0     N35285   9.286   4.994  10.568 -0.1261 -0.0005 -1.0583
  262MOL0     N35286   9.178   5.024  10.627  0.2361  0.4823 -0.8938
  262MOL0     C35287   8.560   5.497  11.240 -0.3574 -0.0090 -1.4907
  262MOL0     C35288   8.459   5.523  11.339 -0.1255  0.3038 -1.0552
  262MOL0     C35289   8.080   5.746  11.533 -0.3825  0.8667  0.4435
  262MOL0     C35290   8.062   5.882  11.565  0.9920  0.3683 -0.0217
  262MOL0     C35291   7.995   5.925  11.682  0.0601  0.0419  0.3222
  262MOL0     C35292   7.954   5.829  11.769 -0.0546  0.1113  0.6506
  262MOL0     O35293   7.891   5.855  11.890 -0.0039  0.4131 -0.0667
  262MOL0     C35294   7.877   5.983  11.952 -0.7324 -0.1423 -0.7500
  262MOL0     C35295   8.014   6.037  12.002 -0.0330  0.1188  0.3428
  262MOL0     C35296   8.068   5.961  12.118 -0.6387 -0.5998 -0.0884
  262MOL0     C35297   8.169   5.850  12.081 -0.9007 -1.2975 -0.5030
  262MOL0     C35298   8.312   5.898  12.103 -0.0787 -0.4120  0.2887
  262MOL0     C35299   8.432   5.892  12.129  0.1364  0.0931  0.0215
  262MOL0     C35300   7.956   5.695  11.731 -0.1123 -0.8920 -0.1763
  262MOL0     C35301   8.012   5.654  11.611  0.6818  0.6259  0.1452
  262MOL0     C35302   8.007   5.511  11.557 -0.0740  1.3066 -0.1421
  262MOL0     H35303   8.277   5.749  11.178 -2.1525 -3.2727 -2.0986
  262MOL0     H35304   8.454   5.713  11.019 -0.0803 -0.6709 -0.6359
  262MOL0     H35305   8.852   5.598  11.041  0.0932  0.4584  0.2279
  262MOL0     H35306   8.787   5.471  11.141 -2.4547  3.0175  0.4121
  262MOL0     H35307   8.927   5.398  10.930  0.3092  0.9731 -2.8533
  262MOL0     H35308   8.787   5.465  10.836 -3.2241  0.3697  0.8450
  262MOL0     H35309   8.634   5.295  10.930 -1.5152  0.3441  2.5357
  262MOL0     H35310   8.746   5.256  11.057 -1.5876 -0.0396 -0.7464
  262MOL0     H35311   8.786   5.205  10.758 -0.2857  2.1644  1.0689
  262MOL0     H35312   8.903   5.172  10.882  0.6482  0.1381  0.8328
  262MOL0     H35313   8.784   4.986  10.986 -1.8014  1.4604  1.6156
  262MOL0     H35314   8.627   5.038  10.910  0.2346 -1.6491 -0.0373
  262MOL0     H35315   8.746   4.830  10.825  3.5526 -0.5727 -1.7967
  262MOL0     H35316   8.675   4.958  10.720 -2.2117  0.2745  1.9555
  262MOL0     H35317   8.887   5.017  10.660  0.0070 -1.1217 -0.8272
  262MOL0     H35318   8.867   4.833  10.636  1.3959  0.4808 -1.2290
  262MOL0     H35319   9.017   4.981  10.866 -0.5211 -1.3347  0.7161
  262MOL0     H35320   9.000   4.817  10.835 -2.3815  1.4928  1.6040
  262MOL0     H35321   9.197   4.708  10.693  3.8065 -0.5628 -1.3658
  262MOL0     H35322   9.488   4.756  10.646  2.4267 -0.3437 -0.5263
  262MOL0     H35323   9.414   4.698  10.499  0.7695  1.7910 -1.4781
  262MOL0     H35324   9.517   4.851  10.361 -0.9254  0.5122  0.6689
  262MOL0     H35325   9.565   4.957  10.490 -0.1789 -0.0205 -0.2396
  262MOL0     H35326   9.664   4.671  10.528 -1.5404  0.8355  0.5589
  262MOL0     H35327   9.751   4.813  10.579  0.5207  0.2316 -0.4208
  262MOL0     H35328   9.722   4.720  10.291  1.7996 -0.3909 -0.2523
  262MOL0     H35329   9.865   4.702  10.399 -1.2309 -1.4170  1.9218
  262MOL0     H35330  10.058   4.764  10.296 -2.0212 -0.1700  0.4614
  262MOL0     H35331  10.260   4.880  10.240 -0.2279 -0.2004 -1.2372
  262MOL0     H35332  10.566   5.041  10.330 -1.3336  0.2650 -0.5915
  262MOL0     H35333  10.776   5.161  10.331  0.8280  1.8058 -0.2795
  262MOL0     H35334  10.864   5.463  10.265  0.8358  1.5603 -2.6613
  262MOL0     H35335  10.950   5.302  10.302  1.9593  1.2982  0.9626
  262MOL0     H35336  11.044   5.536  10.130  2.2828 -0.2920 -0.7399
  262MOL0     H35337  11.090   5.493  10.289  0.2405  0.0834 -0.5215
  262MOL0     H35338  11.165   5.266  10.178 -2.6690 -1.6460 -1.5579
  262MOL0     H35339  11.126   5.346  10.022  1.0825 -1.3032  0.6018
  262MOL0     H35340  11.302   5.523  10.122  0.8500 -0.1514  1.4871
  262MOL0     H35341  11.370   5.365  10.052 -0.7803  1.1614 -1.5504
  262MOL0     H35342  11.421   5.305  10.277  0.7110 -0.0457 -1.0792
  262MOL0     H35343  11.305   5.435  10.339 -1.8508 -0.6758 -1.2998
  262MOL0     H35344  11.564   5.505  10.206  0.1721  1.3742  0.4620
  262MOL0     H35345  11.448   5.612  10.279 -0.4824 -0.3302  0.7672
  262MOL0     H35346  11.611   5.403  10.435 -0.8281 -1.1506 -0.6914
  262MOL0     H35347  11.491   5.512  10.500  2.5147 -2.0837  1.3859
  262MOL0     H35348  11.617   5.712  10.390  0.9737 -0.6132 -1.5623
  262MOL0     H35349  11.698   5.627  10.520  2.0361  0.8562 -0.5882
  262MOL0     H35350  10.711   5.299   9.935 -0.0890 -2.3111 -2.6743
  262MOL0     H35351  10.492   5.167   9.935  1.6389 -1.5001 -0.1537
  262MOL0     H35352  10.063   5.250  10.221  1.9407 -0.1777  0.3114
  262MOL0     H35353   9.834   5.155  10.260 -0.8876 -0.7196 -0.7486
  262MOL0     H35354   8.625   5.410  11.237  0.9074  0.7657  0.6261
  262MOL0     H35355   8.463   5.479  11.438 -2.2446  2.9016  0.3065
  262MOL0     H35356   8.103   5.957  11.498  0.2705  2.2213  1.5383
  262MOL0     H35357   7.985   6.032  11.697  0.0178  0.4603 -2.1942
  262MOL0     H35358   7.805   5.978  12.034 -1.4669 -2.0551 -1.4571
  262MOL0     H35359   7.836   6.052  11.878 -2.1447  0.4213  0.5112
  262MOL0     H35360   8.009   6.143  12.030 -0.7703 -0.4250  2.4808
  262MOL0     H35361   8.087   6.023  11.922  0.3830  0.4992  0.6438
  262MOL0     H35362   7.988   5.912  12.173  0.1021 -1.2222  0.4516
  262MOL0     H35363   8.112   6.027  12.194 -0.1044  0.2901 -1.1419
  262MOL0     H35364   8.146   5.761  12.139 -2.8080 -0.6683 -0.2281
  262MOL0     H35365   8.164   5.813  11.978  0.8039  1.6147 -1.7849
  262MOL0     H35366   8.537   5.898  12.152  0.5368 -0.5899 -1.4971
  262MOL0     H35367   7.909   5.626  11.801  1.2528 -2.0739 -0.3772
  262MOL0     H35368   7.961   5.438  11.625  2.0492 -1.3613 -1.3953
  262MOL0     H35369   7.966   5.511  11.456  2.9559  1.0698 -1.4913
  262MOL0     H35370   8.110   5.474  11.557 -0.2446  0.6720  2.2121
  263MOL0     O35371   0.688   8.980   1.073 -0.0462  0.0463 -0.3898
  263MOL0     C35372   0.605   8.908   1.019 -0.0620 -0.7084  0.1510
  263MOL0     O35373   0.602   8.855   0.889 -0.5520 -0.0439 -0.0555
  263MOL0     C35374   0.711   8.863   0.809  0.1898 -0.1041  0.3629
  263MOL0     C35375   0.741   8.979   0.741 -0.6458 -0.0922  0.7424
  263MOL0     C35376   0.846   8.978   0.647 -1.0575 -0.1700 -0.7847
  263MOL0     C35377   0.935   8.870   0.634 -0.0864 -0.4214  0.3462
  263MOL0     O35378   1.040   8.894   0.557 -0.0465 -0.4656 -0.1292
  263MOL0     C35379   1.099   8.774   0.499  0.0340  0.6289  0.1496
  263MOL0     C35380   1.213   8.720   0.585  0.8486  0.7157  0.7828
  263MOL0     C35381   1.325   8.825   0.585 -0.5922  1.2198 -0.1934
  263MOL0     C35382   1.434   8.824   0.468  0.8813 -0.1361  0.0829
  263MOL0     C35383   1.560   8.911   0.495  0.4152  0.0463  0.4406
  263MOL0     C35384   1.653   8.876   0.382  0.2609 -0.1292  0.3351
  263MOL0     C35385   1.784   8.964   0.401 -0.4318 -0.2971  0.0623
  263MOL0     C35386   1.879   8.932   0.286  0.0692  0.4858  0.0228
  263MOL0     N35387   1.989   9.028   0.307  0.5423 -0.6092 -0.5227
  263MOL0     C35388   1.998   9.153   0.233 -0.0854  0.6256  0.5272
  263MOL0     C35389   2.113   9.209   0.283 -0.3985  0.5460  0.1456
  263MOL0     C35390   2.192   9.325   0.232 -0.5698 -0.0783 -0.1206
  263MOL0     C35391   2.308   9.283   0.142  0.3435 -0.0203 -0.2930
  263MOL0     C35392   2.430   9.236   0.222  0.5106  0.3417 -0.2416
  263MOL0     C35393   2.541   9.183   0.126  0.5236 -0.8095 -0.3074
  263MOL0     O35394   2.669   9.181   0.194 -1.4090 -1.0960  0.1583
  263MOL0     C35395   2.685   9.063   0.250 -0.9513  0.3384  0.5091
  263MOL0     C35396   2.624   9.032   0.374  0.7928  1.0499  0.9147
  263MOL0     C35397   2.638   8.904   0.408 -0.4362 -0.1531 -0.5764
  263MOL0     C35398   2.713   8.807   0.342 -0.1077  0.4731 -0.4286
  263MOL0     C35399   2.716   8.662   0.387  0.3682 -0.4936 -0.8580
  263MOL0     O35400   2.798   8.571   0.332 -0.3426  0.1996 -0.0418
  263MOL0     C35401   2.793   8.442   0.361 -0.9479  0.9072  0.2400
  263MOL0     C35402   2.699   8.353   0.300 -0.9539  0.7038  0.9140
  263MOL0     C35403   2.702   8.214   0.325  0.9440 -0.1537 -0.9892
  263MOL0     C35404   2.792   8.165   0.418 -0.6442 -0.5309  0.2478
  263MOL0     O35405   2.787   8.032   0.427 -0.3305 -0.3396 -0.2053
  263MOL0     C35406   2.888   7.961   0.502  0.5620 -0.7946  0.3303
  263MOL0     C35407   2.869   7.807   0.493  0.3294 -0.2000  1.1477
  263MOL0     C35408   2.972   7.722   0.573  0.6991  0.1136 -0.1943
  263MOL0     C35409   3.112   7.726   0.504 -0.0276  0.8293  0.5105
  263MOL0     C35410   3.113   7.630   0.378  0.2843  0.4447 -0.4361
  263MOL0     C35411   3.237   7.652   0.294  0.2455  0.2478 -0.2458
  263MOL0     C35412   3.219   7.766   0.187 -0.1732 -0.4395  0.6381
  263MOL0     C35413   3.313   7.779   0.073 -0.3558  0.1688  0.4842
  263MOL0    Cl35414   3.473   7.795   0.148 -0.0541  0.0395 -0.2897
  263MOL0     C35415   2.896   8.245   0.470  0.5425  0.1538 -0.2998
  263MOL0     C35416   2.892   8.381   0.441 -0.0782  0.2177 -0.7977
  263MOL0     O35417   2.624   8.637   0.470 -0.1402  0.6354 -0.5279
  263MOL0     C35418   2.773   8.839   0.225 -0.4006  0.8753 -0.1213
  263MOL0     C35419   2.762   8.965   0.181  0.5982  0.1492 -0.0056
  263MOL0     N35420   2.160   9.124   0.383 -0.5924  0.7168  0.2447
  263MOL0     N35421   2.098   9.013   0.392  0.4290 -0.1774  0.2381
  263MOL0     C35422   0.902   8.752   0.706  0.1347  0.5629 -0.2153
  263MOL0     C35423   0.791   8.748   0.786 -0.7642 -0.3396  0.7114
  263MOL0     C35424   0.467   8.889   1.097 -1.3684 -0.5278 -0.0081
  263MOL0     C35425   0.355   8.864   1.018 -0.2662  0.7242 -0.9230
  263MOL0     C35426   0.225   8.849   1.072  0.1761  0.2551  0.3318
  263MOL0     C35427   0.202   8.862   1.215 -0.5537 -0.2418  0.3249
  263MOL0     O35428   0.076   8.855   1.258  0.2826 -0.1369 -0.1086
  263MOL0     C35429  -0.034   8.850   1.168 -0.7898  0.4521 -0.1893
  263MOL0     C35430  -0.153   8.864   1.257  0.1582 -0.1652  0.0516
  263MOL0     C35431  -0.216   8.726   1.315  0.4753  0.7551 -0.1261
  263MOL0     C35432  -0.268   8.641   1.203  0.4097  0.6598  0.7257
  263MOL0     C35433  -0.332   8.516   1.249 -0.6249 -1.0958  0.0801
  263MOL0     C35434  -0.374   8.407   1.267  0.1762  0.2552  0.5945
  263MOL0     C35435   0.323   8.881   1.294  0.8305  0.2260  0.1548
  263MOL0     C35436   0.449   8.901   1.237  0.2419 -0.7041 -0.3161
  263MOL0     C35437   0.572   8.909   1.335  0.2362 -0.3362 -0.1236
  263MOL0     H35438   0.677   9.064   0.762 -0.1565 -0.3778  3.9087
  263MOL0     H35439   0.866   9.073   0.600 -1.1550  0.2325 -0.0237
  263MOL0     H35440   1.021   8.705   0.466 -0.7243  1.9041 -0.8500
  263MOL0     H35441   1.150   8.801   0.406  0.0998  1.0146  0.2963
  263MOL0     H35442   1.263   8.628   0.553  0.6089  0.5473  0.8858
  263MOL0     H35443   1.175   8.711   0.687  1.0372 -0.3940  0.7697
  263MOL0     H35444   1.385   8.806   0.675  0.7339  2.8452 -0.6808
  263MOL0     H35445   1.275   8.922   0.595 -1.6041  0.7169 -0.2354
  263MOL0     H35446   1.462   8.720   0.446  2.2764  0.8800 -3.8217
  263MOL0     H35447   1.380   8.862   0.381 -0.6152 -0.9282  0.6208
  263MOL0     H35448   1.542   9.018   0.484  1.4459  0.0702 -1.3985
  263MOL0     H35449   1.616   8.894   0.588  1.2539  0.3265 -0.0069
  263MOL0     H35450   1.682   8.771   0.384 -0.5789 -0.3947 -0.9555
  263MOL0     H35451   1.615   8.896   0.282  3.6980 -0.1520 -1.1111
  263MOL0     H35452   1.834   8.946   0.497 -0.7757 -1.4266  0.0464
  263MOL0     H35453   1.758   9.068   0.377 -1.9981 -0.8502 -0.7902
  263MOL0     H35454   1.913   8.829   0.292  1.8213  1.1011  1.8204
  263MOL0     H35455   1.843   8.950   0.185  0.5752 -1.0926 -0.4565
  263MOL0     H35456   1.935   9.189   0.153  1.7518  0.7234 -0.9638
  263MOL0     H35457   2.122   9.380   0.169 -0.0306 -0.6605 -1.2517
  263MOL0     H35458   2.227   9.385   0.316 -2.1085 -2.2433  2.2488
  263MOL0     H35459   2.271   9.213   0.067  0.1617  0.2089 -0.4161
  263MOL0     H35460   2.342   9.373   0.089 -0.3653 -0.2081 -1.0786
  263MOL0     H35461   2.397   9.157   0.290 -2.6200  3.3023  2.0131
  263MOL0     H35462   2.471   9.323   0.275 -0.2790  1.0828 -0.8336
  263MOL0     H35463   2.537   9.258   0.046  0.5465  2.1955  2.3006
  263MOL0     H35464   2.511   9.087   0.082 -0.6599 -0.3549 -0.5184
  263MOL0     H35465   2.580   9.103   0.444  2.8874  1.8323  1.4966
  263MOL0     H35466   2.589   8.862   0.496  0.3705 -1.6246 -0.7877
  263MOL0     H35467   2.641   8.395   0.218 -1.1046  1.1468  1.2458
  263MOL0     H35468   2.624   8.150   0.284 -0.7908 -0.8799  2.9254
  263MOL0     H35469   2.989   7.981   0.465  0.1731 -2.9266 -2.2125
  263MOL0     H35470   2.889   7.998   0.605  4.1080  1.2998 -0.2663
  263MOL0     H35471   2.771   7.789   0.539  1.4991 -0.7372  3.6472
  263MOL0     H35472   2.877   7.777   0.389 -0.3461  2.4460  0.2556
  263MOL0     H35473   2.981   7.765   0.673 -0.4122 -2.3190  1.0354
  263MOL0     H35474   2.937   7.619   0.575  0.9877 -0.0050 -0.9991
  263MOL0     H35475   3.194   7.710   0.574  2.2526  3.9022 -1.2031
  263MOL0     H35476   3.135   7.829   0.474  1.9874  0.0724 -0.7430
  263MOL0     H35477   3.024   7.642   0.315 -1.2915 -2.0032  1.1732
  263MOL0     H35478   3.108   7.526   0.411  1.6403  0.6903  0.6246
  263MOL0     H35479   3.319   7.680   0.360 -0.6647  0.4298  0.8313
  263MOL0     H35480   3.266   7.556   0.249 -0.1075  0.5424 -1.1334
  263MOL0     H35481   3.213   7.864   0.234  1.0758 -0.3456  0.6314
  263MOL0     H35482   3.124   7.753   0.133 -0.4386  0.5855  0.8442
  263MOL0     H35483   3.298   7.696   0.003 -1.8858  1.1567 -0.3911
  263MOL0     H35484   3.297   7.869   0.015  1.4148  0.1082 -0.1757
  263MOL0     H35485   2.967   8.214   0.547  1.4310 -0.2358 -1.2572
  263MOL0     H35486   2.968   8.438   0.494 -0.7892  0.6431 -0.2215
  263MOL0     H35487   2.833   8.772   0.164 -0.2241  1.8812 -1.0931
  263MOL0     H35488   2.806   8.996   0.087  0.6123 -2.8330 -1.0941
  263MOL0     H35489   0.955   8.658   0.696 -2.3608 -0.8796 -0.6219
  263MOL0     H35490   0.772   8.659   0.846  0.8551 -1.9972 -1.0737
  263MOL0     H35491   0.353   8.862   0.910  1.3262 -2.6334 -1.0032
  263MOL0     H35492   0.153   8.821   0.995  2.1349  0.6003 -1.7398
  263MOL0     H35493  -0.046   8.761   1.105  1.2033  0.2978 -0.4293
  263MOL0     H35494  -0.039   8.938   1.104 -0.2875  0.9479  0.4311
  263MOL0     H35495  -0.235   8.907   1.197  0.6922  1.2966  0.3312
  263MOL0     H35496  -0.135   8.927   1.344  2.0657  0.5540 -0.8137
  263MOL0     H35497  -0.298   8.758   1.379  1.0828  1.8593  0.1252
  263MOL0     H35498  -0.139   8.675   1.374  0.4268 -1.6850 -1.9882
  263MOL0     H35499  -0.337   8.700   1.142  1.8391 -0.2173 -1.9127
  263MOL0     H35500  -0.182   8.612   1.142  1.4695  3.9208  0.4752
  263MOL0     H35501  -0.402   8.311   1.307  3.1968 -0.4128  1.3317
  263MOL0     H35502   0.315   8.879   1.402 -0.2312 -1.3082  0.0809
  263MOL0     H35503   0.544   8.892   1.440  0.3536 -2.4231 -0.3873
  263MOL0     H35504   0.638   8.824   1.320 -0.0994 -0.8871  1.3061
  263MOL0     H35505   0.628   9.002   1.322  0.0035 -0.0420  0.8510
  264MOL0     O35506   1.896   3.136   8.256 -0.0016 -0.6657  0.1896
  264MOL0     C35507   1.818   3.228   8.274 -0.8782  0.4906  0.5196
  264MOL0     O35508   1.858   3.357   8.310 -0.0848 -0.4514  0.0323
  264MOL0     C35509   1.998   3.374   8.328  0.4894  0.1065  0.0102
  264MOL0     C35510   2.058   3.470   8.248  0.1107 -1.1220 -0.3026
  264MOL0     C35511   2.196   3.488   8.260 -0.5164 -0.5414 -0.2593
  264MOL0     C35512   2.268   3.415   8.362  0.3271 -0.0056  0.4072
  264MOL0     O35513   2.399   3.430   8.379  0.0244 -0.1959 -0.5049
  264MOL0     C35514   2.485   3.429   8.262  0.0840  0.7012  0.7382
  264MOL0     C35515   2.631   3.440   8.313  0.5577  0.5122  0.0043
  264MOL0     C35516   2.719   3.485   8.202  0.3333 -1.0806  0.4377
  264MOL0     C35517   2.745   3.639   8.202  0.3432  0.1925 -0.9495
  264MOL0     C35518   2.837   3.698   8.101 -0.4142  0.0408 -0.0813
  264MOL0     C35519   2.984   3.648   8.099  0.3164  0.2619 -0.4122
  264MOL0     C35520   3.059   3.744   8.007 -0.0200 -0.3842 -0.3710
  264MOL0     C35521   3.197   3.680   7.964  0.5067 -0.5095 -0.7862
  264MOL0     N35522   3.279   3.749   7.868 -0.4149  0.1398  0.0827
  264MOL0     C35523   3.240   3.771   7.739  0.9614 -0.2422  0.8270
  264MOL0     C35524   3.346   3.834   7.689 -0.6894 -0.3272 -0.8524
  264MOL0     C35525   3.362   3.901   7.552 -0.0001  0.0288  0.2575
  264MOL0     C35526   3.388   3.792   7.448 -0.7521  0.5657  0.9296
  264MOL0     C35527   3.519   3.710   7.474  0.6009 -0.2015 -0.1944
  264MOL0     C35528   3.541   3.624   7.352 -0.5794  0.4947 -0.6405
  264MOL0     O35529   3.650   3.534   7.382  0.6872  0.8912  0.5089
  264MOL0     C35530   3.781   3.562   7.355  0.6243 -0.1158  0.3775
  264MOL0     C35531   3.836   3.693   7.357  0.4802 -0.4141  0.5315
  264MOL0     C35532   3.980   3.716   7.340  0.4614 -0.1224 -0.7771
  264MOL0     C35533   4.069   3.605   7.322  0.7705  0.5092  0.5295
  264MOL0     C35534   4.208   3.633   7.290 -0.4012 -0.0325 -0.1749
  264MOL0     O35535   4.244   3.766   7.305 -0.3462  0.0831 -0.3421
  264MOL0     C35536   4.371   3.795   7.257 -0.9256  0.3267 -0.0863
  264MOL0     C35537   4.481   3.760   7.337 -0.1732  0.0457 -0.0096
  264MOL0     C35538   4.610   3.809   7.300  0.6569  0.3831  0.5368
  264MOL0     C35539   4.636   3.879   7.182 -0.8133  0.3083  0.6268
  264MOL0     O35540   4.764   3.913   7.150  0.6827  0.3189 -0.6040
  264MOL0     C35541   4.783   3.945   7.009 -0.8630  0.0405 -1.0710
  264MOL0     C35542   4.921   4.001   7.004  0.2604  0.5869  0.2290
  264MOL0     C35543   4.995   3.997   6.877  0.1219 -0.7493  0.7232
  264MOL0     C35544   5.148   4.006   6.893 -0.1089  0.0134 -0.2440
  264MOL0     C35545   5.217   4.000   6.755 -0.3425  0.2141 -0.3540
  264MOL0     C35546   5.360   4.035   6.773 -0.3295 -0.1810  0.5877
  264MOL0     C35547   5.432   4.004   6.640 -0.2971  0.7795  0.2374
  264MOL0     C35548   5.572   4.023   6.670  0.4212 -0.7474 -0.0245
  264MOL0    Cl35549   5.676   4.009   6.523 -0.4880 -0.0001  0.7965
  264MOL0     C35550   4.527   3.903   7.098  0.1947 -0.0387 -0.1109
  264MOL0     C35551   4.393   3.869   7.134 -0.3693  0.0270 -0.2870
  264MOL0     O35552   4.276   3.539   7.245 -0.3068  0.5464 -0.2342
  264MOL0     C35553   4.013   3.471   7.332 -0.1479 -0.1696 -0.9355
  264MOL0     C35554   3.867   3.455   7.346 -0.1898 -0.5372  0.0896
  264MOL0     N35555   3.451   3.829   7.774  0.5101 -0.1040 -0.5485
  264MOL0     N35556   3.409   3.786   7.889  0.0464  0.9907  0.4607
  264MOL0     C35557   2.201   3.329   8.451  0.2682 -0.2854  0.0340
  264MOL0     C35558   2.066   3.310   8.430 -1.3529  0.6353  0.5053
  264MOL0     C35559   1.680   3.199   8.250  0.1672  0.4574  0.3871
  264MOL0     C35560   1.594   3.301   8.278  0.2013  0.2330  0.3526
  264MOL0     C35561   1.449   3.280   8.268 -1.6505 -0.4444  1.6846
  264MOL0     C35562   1.398   3.164   8.212  0.6528  0.8561 -0.3373
  264MOL0     O35563   1.260   3.156   8.198 -0.4584 -0.7018 -1.0062
  264MOL0     C35564   1.200   3.034   8.173 -1.1242  0.5702 -0.0368
  264MOL0     C35565   1.077   3.031   8.261  0.3047  0.3537 -0.9251
  264MOL0     C35566   0.992   3.155   8.281  1.2487 -0.1404  0.5975
  264MOL0     C35567   0.934   3.187   8.135  0.4712 -0.3537 -0.8638
  264MOL0     C35568   0.837   3.090   8.086  0.1495 -0.0711 -0.6667
  264MOL0     C35569   0.750   3.015   8.048  0.0819  0.3393 -0.0780
  264MOL0     C35570   1.485   3.066   8.175 -0.7129  0.2243  0.0412
  264MOL0     C35571   1.621   3.078   8.193 -0.7246  0.3849  0.8835
  264MOL0     C35572   1.710   2.958   8.151  0.3654  0.0903 -0.2120
  264MOL0     H35573   2.000   3.533   8.181  0.1944  1.4085  1.8121
  264MOL0     H35574   2.249   3.563   8.203 -0.9299  0.0974  0.1857
  264MOL0     H35575   2.464   3.331   8.219 -0.7779  1.1325  0.1166
  264MOL0     H35576   2.461   3.513   8.195  1.2610  2.4039  2.3428
  264MOL0     H35577   2.651   3.342   8.357 -1.2753  0.6355  1.2133
  264MOL0     H35578   2.635   3.515   8.392 -1.8802  0.8588 -0.1317
  264MOL0     H35579   2.685   3.450   8.104 -2.5726  0.0176  0.9836
  264MOL0     H35580   2.817   3.440   8.223  1.0912  0.9537  1.4662
  264MOL0     H35581   2.645   3.682   8.191  0.3401  0.1057 -1.2885
  264MOL0     H35582   2.797   3.663   8.295  0.1636  1.7139 -1.2177
  264MOL0     H35583   2.793   3.680   8.002 -1.2652  3.3751 -0.4061
  264MOL0     H35584   2.845   3.804   8.124  0.0865 -0.1672  0.7619
  264MOL0     H35585   3.029   3.653   8.198  4.4739  1.3100 -2.1655
  264MOL0     H35586   2.983   3.545   8.061 -0.2219 -0.5652  1.6699
  264MOL0     H35587   3.081   3.842   8.050 -1.0058  0.2154 -1.1853
  264MOL0     H35588   3.001   3.769   7.917 -0.6619  0.1117  0.1630
  264MOL0     H35589   3.257   3.674   8.056 -0.6677  1.9567  0.2255
  264MOL0     H35590   3.170   3.583   7.921 -2.5502  0.1022 -0.4598
  264MOL0     H35591   3.146   3.750   7.690  1.8591 -1.8263 -0.3129
  264MOL0     H35592   3.280   3.969   7.527 -0.4655 -0.2023  1.0898
  264MOL0     H35593   3.453   3.962   7.556  0.6877 -0.6787 -2.4970
  264MOL0     H35594   3.304   3.722   7.447 -1.3135  1.0781 -2.8481
  264MOL0     H35595   3.392   3.845   7.352  0.7474 -1.0146  0.0647
  264MOL0     H35596   3.516   3.644   7.561  0.4656 -2.1151 -1.5758
  264MOL0     H35597   3.607   3.774   7.487  2.2353 -2.1438 -1.1147
  264MOL0     H35598   3.571   3.688   7.269 -0.1255 -1.1024 -1.7434
  264MOL0     H35599   3.445   3.580   7.323 -2.2688  2.1157  1.9413
  264MOL0     H35600   3.767   3.775   7.366 -1.5615 -1.5445 -2.9939
  264MOL0     H35601   4.020   3.816   7.331  1.7202 -0.5859 -0.5861
  264MOL0     H35602   4.459   3.700   7.425 -1.7471 -0.9973 -1.0393
  264MOL0     H35603   4.691   3.793   7.370 -0.3269  0.0850  1.6512
  264MOL0     H35604   4.772   3.850   6.957 -0.2541 -0.9721  0.5453
  264MOL0     H35605   4.708   4.020   6.983  0.4762  1.8148 -0.0505
  264MOL0     H35606   4.928   4.105   7.038  0.6425  0.5022  0.4180
  264MOL0     H35607   4.980   3.947   7.078  1.8400  0.1961 -1.2304
  264MOL0     H35608   4.983   3.893   6.844  0.4969 -0.4726 -0.2956
  264MOL0     H35609   4.944   4.064   6.808  1.3531 -1.4576 -0.9205
  264MOL0     H35610   5.180   3.916   6.946 -0.8375 -0.0350  0.1187
  264MOL0     H35611   5.179   4.094   6.950 -0.9619  1.3601 -1.7888
  264MOL0     H35612   5.179   4.078   6.688  2.3609 -0.3755 -2.7681
  264MOL0     H35613   5.185   3.909   6.703 -2.9266  1.1417 -0.5478
  264MOL0     H35614   5.365   4.140   6.804  0.4558  0.7836 -2.5057
  264MOL0     H35615   5.406   3.969   6.847 -3.5087 -0.1972  2.7478
  264MOL0     H35616   5.399   4.062   6.554 -1.7489 -0.3766 -0.0363
  264MOL0     H35617   5.411   3.897   6.630  0.2238  0.7488 -0.5648
  264MOL0     H35618   5.592   4.120   6.715  0.9951 -1.1610  0.6336
  264MOL0     H35619   5.608   3.944   6.736 -0.0300  0.1266  1.3082
  264MOL0     H35620   4.533   3.966   7.009  0.4229  1.8927  1.1962
  264MOL0     H35621   4.312   3.875   7.062 -0.8175 -0.5270  0.1608
  264MOL0     H35622   4.075   3.382   7.340 -0.4666 -0.3317 -0.1191
  264MOL0     H35623   3.823   3.356   7.334 -2.6458  0.5676 -0.9276
  264MOL0     H35624   2.257   3.274   8.526  0.7164  0.0866 -0.0229
  264MOL0     H35625   2.010   3.242   8.492  0.2335 -1.0661  0.1407
  264MOL0     H35626   1.640   3.394   8.309  1.5754  0.8836 -3.1207
  264MOL0     H35627   1.377   3.355   8.300 -2.1063 -0.7522  1.3873
  264MOL0     H35628   1.259   2.944   8.192 -2.1836 -0.0202  0.5543
  264MOL0     H35629   1.165   3.030   8.070  0.7602  1.5106 -0.7634
  264MOL0     H35630   1.102   2.997   8.362 -1.4408 -2.0206 -1.1964
  264MOL0     H35631   1.013   2.954   8.216  1.3216 -1.5092  0.6406
  264MOL0     H35632   1.061   3.239   8.297  3.4468 -1.2534 -2.1107
  264MOL0     H35633   0.916   3.153   8.359  0.1092 -1.9758 -0.4879
  264MOL0     H35634   0.887   3.286   8.141  0.0385 -0.4405 -2.4824
  264MOL0     H35635   1.019   3.207   8.069 -1.4849  1.0133 -3.1097
  264MOL0     H35636   0.679   2.948   8.004  1.8508 -1.9939  0.4041
  264MOL0     H35637   1.446   2.977   8.128 -1.9983  1.3450 -1.1335
  264MOL0     H35638   1.655   2.887   8.089  4.9978 -1.5429 -2.9783
  264MOL0     H35639   1.774   2.993   8.070 -0.6269 -2.7613 -2.3905
  264MOL0     H35640   1.759   2.906   8.234  1.8402  0.9948 -0.4828
  265MOL0     O35641   7.830   3.125   6.535  0.1794  0.6754 -0.4430
  265MOL0     C35642   7.848   3.003   6.513  0.6421  0.0041 -1.1508
  265MOL0     O35643   7.965   2.945   6.494  0.0990 -0.6369 -0.0236
  265MOL0     C35644   8.072   3.007   6.547 -0.7089 -0.4899 -0.0700
  265MOL0     C35645   8.132   2.961   6.662 -0.6055  0.2089  1.0641
  265MOL0     C35646   8.234   3.029   6.715 -0.0737  0.5271 -0.0913
  265MOL0     C35647   8.304   3.131   6.647 -0.4236  0.0282  0.3363
  265MOL0     O35648   8.411   3.195   6.707 -0.1496 -0.2821 -0.2905
  265MOL0     C35649   8.536   3.166   6.641 -0.8305  0.1523 -0.1206
  265MOL0     C35650   8.651   3.255   6.696  0.1041  0.1361 -0.1179
  265MOL0     C35651   8.795   3.223   6.648  0.2933 -0.0723  0.1743
  265MOL0     C35652   8.905   3.303   6.725 -0.1544 -0.6082  0.2551
  265MOL0     C35653   9.045   3.256   6.692  0.6355 -0.3244 -0.2295
  265MOL0     C35654   9.102   3.310   6.563 -0.5739 -0.2227  0.0585
  265MOL0     C35655   9.244   3.251   6.530  0.3530  0.3988 -0.6616
  265MOL0     C35656   9.262   3.249   6.378 -0.3833  0.2080  0.4931
  265MOL0     N35657   9.404   3.237   6.338 -0.0186 -0.1645 -0.4821
  265MOL0     C35658   9.515   3.173   6.402  0.4442  0.2141 -0.1688
  265MOL0     C35659   9.612   3.193   6.313 -0.1688  0.1474  0.0433
  265MOL0     C35660   9.755   3.149   6.334  0.0807 -0.6739  0.3432
  265MOL0     C35661   9.804   3.027   6.255 -0.3667 -0.0132  0.7086
  265MOL0     C35662   9.934   2.964   6.312  0.4757  0.5305  0.2057
  265MOL0     C35663  10.060   3.044   6.258 -0.4734  0.1837  0.5762
  265MOL0     O35664  10.148   2.935   6.262  0.1504  0.2169  0.1923
  265MOL0     C35665  10.284   2.975   6.241  1.3614 -0.1626  0.1982
  265MOL0     C35666  10.323   3.103   6.209  0.8271 -0.7486  1.1271
  265MOL0     C35667  10.458   3.129   6.178  0.0105 -0.8295  0.7316
  265MOL0     C35668  10.550   3.021   6.165  0.5348 -0.0450  0.0276
  265MOL0     C35669  10.693   3.054   6.119  0.0075 -0.2859  0.5080
  265MOL0     O35670  10.721   3.177   6.067  0.2813  0.5479  0.5241
  265MOL0     C35671  10.834   3.203   5.999 -0.4678  0.3962  0.8161
  265MOL0     C35672  10.876   3.116   5.887  0.0636  0.6499  0.5037
  265MOL0     C35673  10.990   3.149   5.813 -0.4644  0.2478 -0.5655
  265MOL0     C35674  11.069   3.255   5.854 -0.2786 -0.2934  0.0521
  265MOL0     O35675  11.185   3.291   5.788 -0.1071  0.2333  0.3392
  265MOL0     C35676  11.244   3.204   5.686  0.2232 -0.4291  0.2362
  265MOL0     C35677  11.376   3.252   5.634 -0.9738 -0.6523  0.2341
  265MOL0     C35678  11.487   3.262   5.743  0.0458  0.3206 -0.3156
  265MOL0     C35679  11.615   3.311   5.673 -0.6464  0.0885 -0.4595
  265MOL0     C35680  11.732   3.342   5.782  0.2417  0.0162  0.7183
  265MOL0     C35681  11.710   3.476   5.863 -0.0261  0.2978 -0.7058
  265MOL0     C35682  11.835   3.560   5.883  0.0259  0.5618 -0.4389
  265MOL0     C35683  11.936   3.490   5.968 -0.3101 -0.5728  0.2692
  265MOL0    Cl35684  12.031   3.369   5.883 -0.0906  0.4264 -0.1748
  265MOL0     C35685  11.034   3.341   5.959  0.1806  0.3096  0.7407
  265MOL0     C35686  10.910   3.309   6.032  0.0323 -0.5605 -0.2812
  265MOL0     O35687  10.775   2.965   6.145  0.3044 -0.2860  0.2517
  265MOL0     C35688  10.511   2.896   6.197  0.0019 -0.3559 -0.0309
  265MOL0     C35689  10.372   2.876   6.221 -0.3068 -0.1970  0.2883
  265MOL0     N35690   9.563   3.254   6.196  0.6194  0.0290 -0.0679
  265MOL0     N35691   9.435   3.274   6.214  0.0688  0.2012 -0.0233
  265MOL0     C35692   8.239   3.184   6.526  0.5333 -0.2253 -0.2025
  265MOL0     C35693   8.129   3.117   6.476 -0.2687  0.7705  0.5767
  265MOL0     C35694   7.723   2.918   6.489 -0.2277 -0.3623  0.2325
  265MOL0     C35695   7.610   2.992   6.441  0.1311 -0.1792 -0.6847
  265MOL0     C35696   7.492   2.926   6.423  0.8038  0.4435 -0.2378
  265MOL0     C35697   7.478   2.787   6.434 -0.2644 -0.7950 -0.3084
  265MOL0     O35698   7.367   2.721   6.399 -0.4583 -0.7897 -0.3334
  265MOL0     C35699   7.242   2.747   6.466 -0.3681 -0.8664 -0.4225
  265MOL0     C35700   7.116   2.721   6.376 -0.6626  0.1154 -0.0860
  265MOL0     C35701   6.994   2.772   6.443 -0.6292 -0.3153 -0.1256
  265MOL0     C35702   6.879   2.816   6.354 -0.0679 -0.2555 -0.2879
  265MOL0     C35703   6.910   2.929   6.268  0.6336 -0.2121 -0.5988
  265MOL0     C35704   6.933   3.035   6.207  0.3951  0.0165  0.1270
  265MOL0     C35705   7.590   2.710   6.477 -0.5746  0.2367  0.0487
  265MOL0     C35706   7.717   2.778   6.495 -0.5314  1.2137  0.0943
  265MOL0     C35707   7.834   2.698   6.553 -0.2185 -0.3166 -0.4210
  265MOL0     H35708   8.093   2.886   6.731 -0.7086  1.6429  2.6232
  265MOL0     H35709   8.258   3.005   6.818 -0.0150 -1.0736 -0.4449
  265MOL0     H35710   8.559   3.063   6.671 -1.4772 -0.0314 -0.2366
  265MOL0     H35711   8.519   3.159   6.534 -1.9211  0.6767 -0.0002
  265MOL0     H35712   8.644   3.254   6.805 -2.8154 -0.8670 -0.2203
  265MOL0     H35713   8.624   3.354   6.657 -0.0816  0.2703  0.3464
  265MOL0     H35714   8.804   3.238   6.540  1.5081 -0.5414  0.1929
  265MOL0     H35715   8.820   3.117   6.663 -1.4820 -0.1735  3.3667
  265MOL0     H35716   8.886   3.407   6.697  0.5989 -0.0929  1.5597
  265MOL0     H35717   8.889   3.290   6.833 -1.4529 -4.1222 -0.2417
  265MOL0     H35718   9.118   3.288   6.767  2.6124 -3.5022 -0.6555
  265MOL0     H35719   9.039   3.147   6.689 -0.8578 -0.2758  0.0607
  265MOL0     H35720   9.036   3.284   6.480 -1.1639 -2.0617  1.0282
  265MOL0     H35721   9.101   3.418   6.577 -0.2505 -0.4425  2.1288
  265MOL0     H35722   9.255   3.148   6.564 -0.2314  0.2314 -0.9708
  265MOL0     H35723   9.320   3.316   6.575 -0.3736  0.1758  0.9180
  265MOL0     H35724   9.206   3.161   6.346  0.8177  0.5603 -3.0613
  265MOL0     H35725   9.208   3.328   6.325  0.2152  1.9475  2.3254
  265MOL0     H35726   9.503   3.128   6.500 -1.7415  0.3391 -0.3311
  265MOL0     H35727   9.827   3.227   6.306 -0.0640 -1.5259 -2.8002
  265MOL0     H35728   9.758   3.132   6.442 -0.3295  1.6296  0.7754
  265MOL0     H35729   9.724   2.953   6.244  1.3254 -1.7960 -0.1785
  265MOL0     H35730   9.825   3.049   6.150  0.0819 -1.3587  0.4899
  265MOL0     H35731   9.938   2.865   6.264 -0.2228  0.8878 -0.6126
  265MOL0     H35732   9.935   2.973   6.421  2.3459  3.9032  0.0502
  265MOL0     H35733  10.083   3.120   6.333 -0.2596  0.1760  0.5215
  265MOL0     H35734  10.045   3.088   6.159  0.7942 -1.7112 -0.5243
  265MOL0     H35735  10.257   3.188   6.224 -0.4263 -0.8632 -2.6129
  265MOL0     H35736  10.477   3.232   6.150 -2.0638 -0.6798 -0.3204
  265MOL0     H35737  10.806   3.035   5.869 -1.8132  1.9573  1.5542
  265MOL0     H35738  11.017   3.094   5.723  0.4996 -0.9360  0.4060
  265MOL0     H35739  11.251   3.110   5.742 -1.0245 -1.4787 -1.2544
  265MOL0     H35740  11.181   3.175   5.601  0.3843  0.0709 -0.0587
  265MOL0     H35741  11.409   3.175   5.563 -0.4495 -0.7540  0.5862
  265MOL0     H35742  11.363   3.342   5.574 -1.1786 -1.8793 -1.6690
  265MOL0     H35743  11.453   3.333   5.819  0.0907  1.3029 -1.1905
  265MOL0     H35744  11.488   3.158   5.778  1.2742  0.7859  1.1054
  265MOL0     H35745  11.603   3.399   5.610  0.4492  0.3268 -0.3454
  265MOL0     H35746  11.644   3.225   5.612  0.3541  0.9568 -1.2299
  265MOL0     H35747  11.823   3.348   5.722 -1.7497  0.7616 -2.4432
  265MOL0     H35748  11.753   3.255   5.846  0.8830 -0.9368 -0.7497
  265MOL0     H35749  11.639   3.545   5.818  1.7080  2.1118 -0.8026
  265MOL0     H35750  11.660   3.445   5.955  1.1289 -0.4283 -0.2989
  265MOL0     H35751  11.816   3.656   5.931 -0.1375 -0.1127  0.9141
  265MOL0     H35752  11.881   3.577   5.786 -2.2903 -1.7686 -2.0821
  265MOL0     H35753  12.013   3.559   6.001 -0.6976  1.3434 -2.4375
  265MOL0     H35754  11.890   3.455   6.061 -2.8258  0.8341 -0.3489
  265MOL0     H35755  11.106   3.419   5.983  1.3343 -0.0071 -1.4449
  265MOL0     H35756  10.885   3.370   6.118  1.0296 -1.8555  0.9746
  265MOL0     H35757  10.579   2.812   6.185  2.0543  1.1327  0.5624
  265MOL0     H35758  10.328   2.779   6.242  0.6830 -0.6761  0.2164
  265MOL0     H35759   8.284   3.266   6.471 -3.9350  3.4320  0.8626
  265MOL0     H35760   8.083   3.162   6.389  0.1589  0.9084  0.4181
  265MOL0     H35761   7.624   3.097   6.421 -2.5794  0.7165  1.4749
  265MOL0     H35762   7.413   2.981   6.372 -0.3544 -0.1325  0.8857
  265MOL0     H35763   7.250   2.854   6.485  1.6250 -1.0774  0.2029
  265MOL0     H35764   7.236   2.684   6.555 -0.4397  0.9572  0.9226
  265MOL0     H35765   7.117   2.616   6.344  2.0612 -0.6855  2.1307
  265MOL0     H35766   7.132   2.780   6.285 -0.3601 -0.9074 -0.7112
  265MOL0     H35767   7.019   2.848   6.518  0.9919  0.0826 -1.0290
  265MOL0     H35768   6.944   2.687   6.490 -0.2970 -0.5668 -0.2214
  265MOL0     H35769   6.835   2.742   6.287  0.1072  1.3843 -2.3307
  265MOL0     H35770   6.801   2.852   6.422 -0.7553 -0.8043 -0.7796
  265MOL0     H35771   6.941   3.134   6.166 -0.6023 -0.3508 -0.9885
  265MOL0     H35772   7.586   2.603   6.466  1.7820  0.0129  0.9193
  265MOL0     H35773   7.804   2.596   6.577 -1.3762 -0.0894 -0.8371
  265MOL0     H35774   7.925   2.694   6.493 -0.0129 -1.7661 -0.0528
  265MOL0     H35775   7.868   2.752   6.643 -0.4801  3.7506 -2.5550
  266MOL0     O35776   1.990   8.645   7.320 -0.1726 -0.4006  0.3782
  266MOL0     C35777   2.028   8.622   7.209  0.1463 -0.5829  0.1103
  266MOL0     O35778   2.148   8.623   7.167 -0.7425  0.2847 -0.1694
  266MOL0     C35779   2.261   8.618   7.255 -0.3759  0.4975 -0.0651
  266MOL0     C35780   2.266   8.597   7.399  0.4412  0.4383  0.1432
  266MOL0     C35781   2.387   8.589   7.465  0.2475 -0.7933  0.3547
  266MOL0     C35782   2.509   8.585   7.393  0.2354 -0.4894 -0.1042
  266MOL0     O35783   2.635   8.596   7.456  0.2256  1.0820 -0.0456
  266MOL0     C35784   2.665   8.690   7.559  0.1071 -0.1825 -0.1871
  266MOL0     C35785   2.709   8.818   7.500 -0.2401  0.1867  1.0005
  266MOL0     C35786   2.766   8.818   7.356  0.2634  0.0437 -0.1604
  266MOL0     C35787   2.886   8.726   7.338 -0.6785  0.5794  0.5028
  266MOL0     C35788   3.012   8.776   7.413 -1.5598 -1.1086 -0.1558
  266MOL0     C35789   3.143   8.727   7.338  0.1138 -0.6475 -0.5908
  266MOL0     C35790   3.135   8.578   7.308  0.2372  0.1804 -0.3421
  266MOL0     C35791   3.281   8.513   7.305  0.4458  0.1952  0.1087
  266MOL0     N35792   3.358   8.576   7.203 -0.7797 -0.6623  0.4609
  266MOL0     C35793   3.371   8.541   7.072 -0.3570  0.0922 -0.3080
  266MOL0     C35794   3.455   8.641   7.026 -0.2858  0.6469 -0.1229
  266MOL0     C35795   3.491   8.661   6.883  0.1905 -0.0915  0.3651
  266MOL0     C35796   3.644   8.671   6.864 -0.3385  0.1203  0.3001
  266MOL0     C35797   3.717   8.545   6.920 -0.3434  0.7407 -0.1803
  266MOL0     C35798   3.872   8.545   6.894  0.6651 -0.2490 -0.5649
  266MOL0     O35799   3.916   8.651   6.976 -0.4993 -0.3462  0.1424
  266MOL0     C35800   4.041   8.707   6.947 -0.5401  0.5298 -0.4504
  266MOL0     C35801   4.149   8.642   6.879  0.1509  0.1147  0.5576
  266MOL0     C35802   4.277   8.699   6.867 -0.6436  0.2483 -0.2534
  266MOL0     C35803   4.300   8.827   6.930  0.8153  0.4457  0.4053
  266MOL0     C35804   4.434   8.898   6.933  0.4988 -0.0900 -0.2032
  266MOL0     O35805   4.433   9.028   6.980  0.2563 -0.0373  0.4662
  266MOL0     C35806   4.545   9.103   6.960  0.1908  0.2544 -0.3087
  266MOL0     C35807   4.604   9.150   6.836  0.4814 -0.8131  0.3781
  266MOL0     C35808   4.722   9.224   6.837  0.4737  0.3780 -0.4807
  266MOL0     C35809   4.760   9.271   6.965  0.0464 -0.3627  0.2314
  266MOL0     O35810   4.869   9.357   6.969 -0.4431 -0.3134  0.2853
  266MOL0     C35811   4.985   9.296   7.023  0.7119 -0.0474  0.4252
  266MOL0     C35812   5.100   9.335   6.938 -0.6096 -0.4731  0.0355
  266MOL0     C35813   5.103   9.276   6.797  0.1136 -0.2581  0.4979
  266MOL0     C35814   5.243   9.327   6.739  0.0121 -0.3115 -0.0845
  266MOL0     C35815   5.284   9.261   6.603 -0.7513  0.0117 -0.6442
  266MOL0     C35816   5.198   9.274   6.484 -0.0318 -0.6845  1.2546
  266MOL0     C35817   5.201   9.417   6.430 -0.2833 -0.0441 -0.1749
  266MOL0     C35818   5.080   9.468   6.351  1.0647  0.4246  0.7745
  266MOL0    Cl35819   5.076   9.378   6.202 -0.3769  0.3487  0.1422
  266MOL0     C35820   4.698   9.238   7.080 -0.2373  0.0738 -0.7904
  266MOL0     C35821   4.596   9.148   7.082  0.2472  0.2755 -0.9749
  266MOL0     O35822   4.535   8.839   6.900 -0.4802  0.4198  0.0809
  266MOL0     C35823   4.187   8.898   6.976  0.3297 -0.2047 -0.2146
  266MOL0     C35824   4.069   8.830   6.991 -0.1073 -0.2729  0.2988
  266MOL0     N35825   3.486   8.726   7.123  0.6951 -0.0374  0.6535
  266MOL0     N35826   3.440   8.681   7.233  0.1675  0.1633 -0.4178
  266MOL0     C35827   2.501   8.602   7.254  0.2321  0.0939 -0.5593
  266MOL0     C35828   2.383   8.620   7.188  0.3019 -1.0274  0.1563
  266MOL0     C35829   1.928   8.616   7.100 -0.2178  0.0475  0.6379
  266MOL0     C35830   1.960   8.648   6.966  0.3871 -0.3430  0.0096
  266MOL0     C35831   1.874   8.636   6.859  0.9895 -0.6656 -0.2091
  266MOL0     C35832   1.746   8.593   6.884  0.3906  1.1100 -1.2230
  266MOL0     O35833   1.660   8.600   6.777  0.0034  0.4010 -0.2864
  266MOL0     C35834   1.520   8.548   6.797 -0.0903 -0.2726 -0.4865
  266MOL0     C35835   1.459   8.543   6.655 -0.0621  0.0560 -0.3672
  266MOL0     C35836   1.392   8.412   6.625 -1.2085 -0.7594  0.6930
  266MOL0     C35837   1.250   8.424   6.658 -0.3359 -0.3055 -0.4007
  266MOL0     C35838   1.221   8.426   6.801  0.7496 -0.3707 -0.2181
  266MOL0     C35839   1.204   8.424   6.923  0.8012  0.2917 -0.7351
  266MOL0     C35840   1.709   8.550   7.011  0.0004 -0.8798  0.8151
  266MOL0     C35841   1.793   8.567   7.113 -0.7057  0.5107 -0.9516
  266MOL0     C35842   1.742   8.505   7.244 -0.2361  0.0139  0.3914
  266MOL0     H35843   2.179   8.586   7.464 -0.3588 -0.3604 -1.0227
  266MOL0     H35844   2.383   8.584   7.574 -1.1467  1.5715  0.4766
  266MOL0     H35845   2.593   8.696   7.641  0.7606 -2.4247  0.6223
  266MOL0     H35846   2.752   8.642   7.606 -1.2776 -2.3046  0.3043
  266MOL0     H35847   2.778   8.861   7.573 -0.8003  1.1034  1.0013
  266MOL0     H35848   2.623   8.885   7.510 -0.7157 -0.2964  0.2064
  266MOL0     H35849   2.796   8.917   7.321 -0.6692 -0.3348 -2.1473
  266MOL0     H35850   2.690   8.782   7.286  1.1064 -2.2588  0.0321
  266MOL0     H35851   2.853   8.631   7.380 -1.3543  1.8629  3.0992
  266MOL0     H35852   2.901   8.715   7.230  0.4981  0.1354  0.6974
  266MOL0     H35853   3.012   8.885   7.422 -0.1988 -0.8893 -2.1316
  266MOL0     H35854   3.006   8.736   7.514 -1.1220 -1.0759 -0.1150
  266MOL0     H35855   3.162   8.784   7.247 -1.1638  2.1936  0.8003
  266MOL0     H35856   3.224   8.741   7.410 -0.3043  2.4752 -0.5861
  266MOL0     H35857   3.084   8.556   7.214  1.3714 -0.2094 -0.8892
  266MOL0     H35858   3.073   8.536   7.388 -1.1414  4.1727  0.9065
  266MOL0     H35859   3.328   8.531   7.402 -0.1582  0.4347  0.3642
  266MOL0     H35860   3.277   8.405   7.287  2.1253  0.4775 -2.5707
  266MOL0     H35861   3.308   8.462   7.031 -0.9100  0.4589 -0.1662
  266MOL0     H35862   3.457   8.592   6.805  0.6287  1.3686 -1.1656
  266MOL0     H35863   3.449   8.757   6.850 -3.3984 -1.9699 -1.1639
  266MOL0     H35864   3.669   8.666   6.757 -1.0452 -2.8101  0.1896
  266MOL0     H35865   3.673   8.764   6.914  0.6337  0.0040 -0.0218
  266MOL0     H35866   3.686   8.456   6.863  1.8017 -0.1914  0.0312
  266MOL0     H35867   3.700   8.534   7.028 -0.2561 -2.4920 -0.3940
  266MOL0     H35868   3.880   8.565   6.786 -0.8286 -1.3587 -0.9111
  266MOL0     H35869   3.906   8.445   6.924  0.0224  0.5829  3.5572
  266MOL0     H35870   4.127   8.543   6.839  2.0120  1.4199 -4.3727
  266MOL0     H35871   4.361   8.651   6.818  2.4515  2.6292  2.2350
  266MOL0     H35872   4.558   9.129   6.740  2.0681  3.2674 -1.5020
  266MOL0     H35873   4.775   9.238   6.743  1.6385  2.6341  0.4225
  266MOL0     H35874   4.991   9.346   7.120  1.7114 -0.3711  0.5349
  266MOL0     H35875   4.976   9.188   7.039 -0.8635 -0.0260 -0.0537
  266MOL0     H35876   5.097   9.444   6.931 -2.7965 -0.5711 -1.8332
  266MOL0     H35877   5.193   9.305   6.986  0.6978 -0.3730 -2.2868
  266MOL0     H35878   5.087   9.168   6.803 -2.3147  0.1050  1.5028
  266MOL0     H35879   5.012   9.318   6.754 -0.8041 -1.8450  0.7846
  266MOL0     H35880   5.317   9.310   6.818 -0.3183 -0.1096  0.2738
  266MOL0     H35881   5.232   9.434   6.719 -0.4707 -0.5242 -1.0193
  266MOL0     H35882   5.307   9.156   6.625  2.4354  0.1500 -2.7197
  266MOL0     H35883   5.379   9.308   6.576 -1.8346  4.6011  2.3108
  266MOL0     H35884   5.220   9.213   6.396 -1.6695 -1.6580  1.4855
  266MOL0     H35885   5.092   9.254   6.504 -0.2942 -2.3243 -1.3628
  266MOL0     H35886   5.290   9.436   6.369 -0.8419 -0.8913 -1.2883
  266MOL0     H35887   5.197   9.483   6.517 -1.6415  1.5598 -1.3835
  266MOL0     H35888   4.988   9.455   6.408  0.1252  1.9377 -0.3093
  266MOL0     H35889   5.082   9.577   6.340  1.9969  0.2920 -0.6472
  266MOL0     H35890   4.747   9.264   7.174 -0.0475 -3.6660  0.3153
  266MOL0     H35891   4.553   9.116   7.176  0.1476  0.5253 -0.9371
  266MOL0     H35892   4.192   8.996   7.022  0.5355 -0.0542 -0.5520
  266MOL0     H35893   3.981   8.875   7.036 -1.3538  0.6232 -2.7764
  266MOL0     H35894   2.586   8.624   7.192 -0.0665  2.1118 -0.3077
  266MOL0     H35895   2.382   8.637   7.081  1.3499  0.0666  0.2980
  266MOL0     H35896   2.065   8.673   6.951  0.3030 -0.7944 -1.5576
  266MOL0     H35897   1.907   8.675   6.763  0.8737 -0.6016 -0.2239
  266MOL0     H35898   1.461   8.607   6.867  0.9570  0.8625 -0.5071
  266MOL0     H35899   1.529   8.451   6.846  3.0952  0.5553  0.8408
  266MOL0     H35900   1.541   8.549   6.583 -0.3815  0.4815 -0.6954
  266MOL0     H35901   1.405   8.637   6.642 -1.4169 -0.7030 -0.3910
  266MOL0     H35902   1.445   8.338   6.686  1.1869  0.7623  0.5756
  266MOL0     H35903   1.401   8.381   6.520 -2.0600  1.2937 -0.0248
  266MOL0     H35904   1.216   8.520   6.618  3.1417  2.0649  1.7760
  266MOL0     H35905   1.195   8.341   6.613 -0.4455 -0.3440 -0.1987
  266MOL0     H35906   1.199   8.412   7.029 -2.8172 -2.0398 -0.9859
  266MOL0     H35907   1.611   8.512   7.037 -0.1252 -0.5928  0.7596
  266MOL0     H35908   1.669   8.568   7.294 -0.4602  1.2028 -1.3724
  266MOL0     H35909   1.698   8.407   7.225  0.8409 -0.0729 -2.1105
  266MOL0     H35910   1.821   8.481   7.316 -0.4548 -0.5220  0.4619
  267MOL0     O35911   3.182   6.286  10.456  0.1810 -0.0011  0.1343
  267MOL0     C35912   3.138   6.359  10.365 -0.0597  0.0026 -0.3498
  267MOL0     O35913   3.206   6.419  10.266 -0.4121 -0.1362  0.2375
  267MOL0     C35914   3.345   6.392  10.258 -0.3382 -0.7276  0.7918
  267MOL0     C35915   3.400   6.268  10.263 -0.1110  0.8233 -0.3406
  267MOL0     C35916   3.541   6.249  10.269 -0.2831  0.3412  0.1924
  267MOL0     C35917   3.632   6.361  10.247  0.7763  0.1623 -0.5079
  267MOL0     O35918   3.763   6.353  10.262 -0.2592  0.6244 -0.5687
  267MOL0     C35919   3.828   6.279  10.160 -0.3372  0.4011 -0.7850
  267MOL0     C35920   3.909   6.166  10.232  0.1060 -0.6905  0.2351
  267MOL0     C35921   4.055   6.206  10.252 -0.3372 -0.2526 -0.2974
  267MOL0     C35922   4.127   6.122  10.352 -0.5135 -0.0740  0.4826
  267MOL0     C35923   4.269   6.156  10.387 -0.7840 -0.1358  0.1836
  267MOL0     C35924   4.381   6.132  10.278  0.5941 -0.6415  0.9722
  267MOL0     C35925   4.523   6.160  10.313  0.5244  0.2763  0.4398
  267MOL0     C35926   4.623   6.088  10.226  0.1781 -0.6817 -0.0690
  267MOL0     N35927   4.761   6.129  10.249 -0.5634 -0.2288  0.0902
  267MOL0     C35928   4.866   6.094  10.170  0.0306  0.1504  0.8774
  267MOL0     C35929   4.963   6.166  10.226  0.2875 -0.1280  0.3045
  267MOL0     C35930   5.101   6.171  10.183 -0.9965  0.0672 -0.3052
  267MOL0     C35931   5.171   6.027  10.175 -0.1663  0.2065 -0.5884
  267MOL0     C35932   5.184   5.958  10.303 -0.2682 -0.0208  0.3381
  267MOL0     C35933   5.213   5.807  10.290 -0.6734  0.2290  1.0176
  267MOL0     O35934   5.342   5.781  10.232  0.5419 -0.8657  0.2405
  267MOL0     C35935   5.454   5.779  10.317  0.4376 -0.3315  0.0149
  267MOL0     C35936   5.557   5.870  10.311 -0.3730 -0.0473  0.0902
  267MOL0     C35937   5.660   5.861  10.405 -0.1776  0.1738 -0.7473
  267MOL0     C35938   5.658   5.764  10.509  0.6712 -0.9337 -0.1290
  267MOL0     C35939   5.766   5.751  10.599  0.4636 -1.0131 -0.6086
  267MOL0     O35940   5.892   5.793  10.564  0.3319 -0.3288  0.2394
  267MOL0     C35941   6.007   5.763  10.630  0.3014  0.0464 -0.4898
  267MOL0     C35942   6.125   5.826  10.578  0.1524 -0.4113  0.3314
  267MOL0     C35943   6.253   5.805  10.635  0.3711 -1.0945 -0.0585
  267MOL0     C35944   6.264   5.728  10.752 -0.3006  1.6171 -0.9633
  267MOL0     O35945   6.389   5.712  10.806 -0.3175 -0.0004 -0.9468
  267MOL0     C35946   6.438   5.838  10.871 -0.1734  0.2252 -0.0207
  267MOL0     C35947   6.508   5.797  11.002 -0.6794  0.2038  0.6343
  267MOL0     C35948   6.651   5.755  10.963 -0.4119 -0.4616  0.3158
  267MOL0     C35949   6.718   5.677  11.074 -0.6922  0.2574  0.4474
  267MOL0     C35950   6.849   5.610  11.022 -0.5478 -0.1182  0.4432
  267MOL0     C35951   6.927   5.535  11.131  1.2587 -0.3804 -0.7728
  267MOL0     C35952   7.011   5.415  11.080  0.3376  1.0542  0.2463
  267MOL0     C35953   7.144   5.461  11.016  0.5675  0.5941  0.0303
  267MOL0    Cl35954   7.252   5.328  10.989  0.0628 -0.0270  0.2791
  267MOL0     C35955   6.148   5.667  10.798  0.1778  0.2110  0.5102
  267MOL0     C35956   6.020   5.686  10.746 -0.1433 -0.3286 -0.2372
  267MOL0     O35957   5.741   5.697  10.707  0.3914  0.3527  0.0177
  267MOL0     C35958   5.550   5.676  10.511  0.5563 -0.2598 -0.1967
  267MOL0     C35959   5.447   5.684  10.417  0.0499 -0.0266 -0.2352
  267MOL0     N35960   4.915   6.227  10.336  0.1311 -0.2023 -0.1428
  267MOL0     N35961   4.787   6.211  10.350 -0.7362  0.0852 -0.5767
  267MOL0     C35962   3.580   6.487  10.243 -0.0853 -0.0888 -0.0314
  267MOL0     C35963   3.434   6.503  10.247 -0.9021 -0.0948 -0.2612
  267MOL0     C35964   2.996   6.399  10.371 -0.7648  0.9435  0.6345
  267MOL0     C35965   2.963   6.525  10.304  0.2681  0.3849 -0.1328
  267MOL0     C35966   2.830   6.565  10.288 -0.0032  0.6361  0.6487
  267MOL0     C35967   2.728   6.490  10.354  0.0677 -1.3358  0.2841
  267MOL0     O35968   2.601   6.543  10.352 -0.8751 -0.1957  0.2281
  267MOL0     C35969   2.498   6.494  10.438  0.7412 -0.1817 -0.1377
  267MOL0     C35970   2.371   6.575  10.410 -0.1425 -0.1550  0.7880
  267MOL0     C35971   2.254   6.522  10.500  0.1275 -0.7986  0.0366
  267MOL0     C35972   2.200   6.376  10.466 -0.0465 -0.2070  0.3008
  267MOL0     C35973   2.081   6.355  10.547 -1.2066  0.6812 -0.1500
  267MOL0     C35974   1.977   6.333  10.606  0.2554  0.0659 -0.2546
  267MOL0     C35975   2.767   6.378  10.429  0.5631 -0.2638 -0.1647
  267MOL0     C35976   2.894   6.325  10.435 -0.1393 -0.0711  0.7755
  267MOL0     C35977   2.912   6.199  10.513  0.2222  0.1168 -0.2252
  267MOL0     H35978   3.335   6.181  10.256  0.5038  0.1090  1.8430
  267MOL0     H35979   3.579   6.148  10.280 -0.8812  0.2505  1.5554
  267MOL0     H35980   3.757   6.235  10.088  0.4291 -2.0763 -0.1305
  267MOL0     H35981   3.903   6.331  10.101  0.7479 -0.6901 -0.4151
  267MOL0     H35982   3.915   6.077  10.168  0.6288 -0.4479 -0.0584
  267MOL0     H35983   3.876   6.143  10.334  0.6897  1.4457  0.9646
  267MOL0     H35984   4.052   6.313  10.272 -2.7632 -0.4482  0.8635
  267MOL0     H35985   4.119   6.204  10.163  1.6891  2.0893  1.0311
  267MOL0     H35986   4.066   6.123  10.443 -4.1078  0.3035 -1.7587
  267MOL0     H35987   4.114   6.019  10.317 -3.6115  0.3962  0.0108
  267MOL0     H35988   4.280   6.259  10.422  0.8768  0.4396 -1.8580
  267MOL0     H35989   4.292   6.089  10.470  2.2115  1.2021  0.5584
  267MOL0     H35990   4.368   6.030  10.240 -0.9197  0.5426 -2.0114
  267MOL0     H35991   4.359   6.196  10.193  0.4763 -1.2237  0.5594
  267MOL0     H35992   4.539   6.133  10.418  0.0619  2.4041  1.1026
  267MOL0     H35993   4.534   6.268  10.302  1.7723  0.0080 -1.3275
  267MOL0     H35994   4.605   5.980  10.221  2.9310 -1.1585 -2.2377
  267MOL0     H35995   4.607   6.132  10.127 -0.2679 -1.3611 -0.3078
  267MOL0     H35996   4.867   6.024  10.087  0.5112 -0.4686  1.3887
  267MOL0     H35997   5.089   6.209  10.081 -3.0965 -0.4057 -0.2757
  267MOL0     H35998   5.157   6.245  10.240 -2.7411  4.1124 -3.3121
  267MOL0     H35999   5.109   5.966  10.108 -1.1955  0.5640  0.0184
  267MOL0     H36000   5.271   6.033  10.131 -0.4965 -1.3835 -1.6471
  267MOL0     H36001   5.084   5.961  10.346  0.8437  0.0635  3.0779
  267MOL0     H36002   5.253   6.010  10.369 -1.1408  1.3914  0.1956
  267MOL0     H36003   5.138   5.763  10.223  0.2668 -0.5862  0.4764
  267MOL0     H36004   5.195   5.752  10.382 -1.9003 -1.3596 -0.1179
  267MOL0     H36005   5.542   5.942  10.231 -0.1984 -1.6915 -1.4870
  267MOL0     H36006   5.748   5.924  10.402  0.1425  0.2191  3.2910
  267MOL0     H36007   6.109   5.904  10.503 -1.2905  0.6719  1.6891
  267MOL0     H36008   6.333   5.858  10.585 -0.9591  3.0009  1.7092
  267MOL0     H36009   6.500   5.895  10.801 -0.7058 -1.1886 -1.6985
  267MOL0     H36010   6.347   5.889  10.904 -0.2010  0.2891 -0.1982
  267MOL0     H36011   6.517   5.886  11.064  0.5052 -1.1239  2.4854
  267MOL0     H36012   6.455   5.716  11.054 -0.1559 -1.2360 -0.9700
  267MOL0     H36013   6.643   5.704  10.867  2.5639  3.9007 -2.6510
  267MOL0     H36014   6.704   5.849  10.944 -0.1156 -0.5445  0.7087
  267MOL0     H36015   6.648   5.600  11.109  0.1384 -0.3886  0.7362
  267MOL0     H36016   6.726   5.732  11.168 -0.8432 -1.8280  1.7377
  267MOL0     H36017   6.907   5.687  10.970 -1.8631  0.3243 -0.4065
  267MOL0     H36018   6.821   5.542  10.942 -0.3984  0.2838  0.0424
  267MOL0     H36019   6.998   5.609  11.169 -0.8019  1.3432 -0.1580
  267MOL0     H36020   6.853   5.518  11.209 -0.6187  2.1053 -1.8974
  267MOL0     H36021   6.961   5.354  11.004 -1.6446  1.3418  1.2507
  267MOL0     H36022   7.027   5.342  11.160 -1.3477 -0.8014 -0.9837
  267MOL0     H36023   7.134   5.516  10.921  3.8671  0.6645 -0.3623
  267MOL0     H36024   7.195   5.529  11.085  0.5901  1.1731 -0.5411
  267MOL0     H36025   6.160   5.609  10.889  1.7866 -1.7516 -0.8718
  267MOL0     H36026   5.941   5.651  10.812 -0.3071  0.7513  0.1524
  267MOL0     H36027   5.550   5.600  10.589  1.8028 -1.7011 -1.5346
  267MOL0     H36028   5.358   5.622  10.421 -0.1559  0.2707 -0.1911
  267MOL0     H36029   3.653   6.566  10.230  0.5728 -0.5359  0.8509
  267MOL0     H36030   3.403   6.607  10.247  1.8798  0.8457  1.0064
  267MOL0     H36031   3.048   6.584  10.272  3.7197 -2.3331  3.0386
  267MOL0     H36032   2.809   6.650  10.224 -0.1968  0.4233  0.4302
  267MOL0     H36033   2.537   6.505  10.540 -0.1023  2.3245 -0.0041
  267MOL0     H36034   2.475   6.390  10.414 -0.4726  0.4123 -1.7558
  267MOL0     H36035   2.336   6.559  10.308 -3.2116  0.3021  1.6555
  267MOL0     H36036   2.388   6.681  10.435 -1.5314 -0.4587  3.3369
  267MOL0     H36037   2.171   6.593  10.491  1.6742  1.1067  0.1366
  267MOL0     H36038   2.296   6.524  10.601 -1.1362  0.0334  0.5659
  267MOL0     H36039   2.171   6.356  10.363 -0.9056 -0.7002  0.6283
  267MOL0     H36040   2.273   6.302  10.498  2.8105  2.2537 -0.0084
  267MOL0     H36041   1.892   6.317  10.670  1.1613  2.0915  1.5852
  267MOL0     H36042   2.690   6.317  10.475 -0.4385  0.6696 -0.5563
  267MOL0     H36043   2.984   6.209  10.595  0.9073 -2.2896 -0.4545
  267MOL0     H36044   2.813   6.175  10.550  0.5480  0.0924  0.6550
  267MOL0     H36045   2.942   6.126  10.438 -1.6848 -0.3198 -0.5902
  268MOL0     O36046   0.497   4.957   1.128  0.1169 -0.8490  0.0584
  268MOL0     C36047   0.458   4.999   1.020  0.2829  0.0102  0.0076
  268MOL0     O36048   0.535   5.052   0.924  0.3347 -0.4876  0.1958
  268MOL0     C36049   0.670   5.025   0.904  0.0277 -0.9830 -0.2074
  268MOL0     C36050   0.746   4.952   0.994  0.2708  0.1686 -0.3294
  268MOL0     C36051   0.881   4.924   0.968  0.1960  1.0562 -0.0062
  268MOL0     C36052   0.951   4.969   0.854  0.0758  0.3531 -0.8421
  268MOL0     O36053   1.074   4.935   0.826  0.3241  0.5238 -0.4108
  268MOL0     C36054   1.170   4.938   0.926 -0.4206  0.5990 -0.7639
  268MOL0     C36055   1.205   5.077   0.977  0.3345 -0.1277  0.4654
  268MOL0     C36056   1.246   5.164   0.856  0.1698 -0.0060 -0.5409
  268MOL0     C36057   1.241   5.313   0.894 -0.0280  0.2122 -0.0522
  268MOL0     C36058   1.272   5.417   0.790  0.6936 -0.5196  0.5721
  268MOL0     C36059   1.420   5.415   0.750  0.1626 -0.3407 -0.5105
  268MOL0     C36060   1.453   5.525   0.656  0.2739  0.4320  0.3846
  268MOL0     C36061   1.610   5.535   0.653 -0.6568 -0.1417  0.9656
  268MOL0     N36062   1.645   5.649   0.573 -0.4968 -0.3122 -1.0819
  268MOL0     C36063   1.645   5.781   0.615  0.1851 -0.4622  0.3342
  268MOL0     C36064   1.662   5.857   0.505 -0.0779  0.6682  0.1085
  268MOL0     C36065   1.679   6.007   0.487  0.4959  0.0883  0.1869
  268MOL0     C36066   1.826   6.048   0.464 -0.9377  0.6598 -0.5320
  268MOL0     C36067   1.860   6.185   0.433  0.4589 -0.8236 -0.1847
  268MOL0     C36068   1.969   6.236   0.527  0.1756 -0.4009  0.4464
  268MOL0     O36069   2.083   6.148   0.527  0.9413 -0.3494 -0.1033
  268MOL0     C36070   2.188   6.187   0.610  0.4994 -0.6090  1.4448
  268MOL0     C36071   2.284   6.259   0.555  0.0469 -0.6727  0.1341
  268MOL0     C36072   2.401   6.295   0.630  0.3873 -0.4072  0.6004
  268MOL0     C36073   2.414   6.246   0.762  0.2132  0.2078  0.4939
  268MOL0     C36074   2.530   6.262   0.848  0.7868 -0.6161 -0.1438
  268MOL0     O36075   2.606   6.354   0.799 -0.1831  0.5603 -0.1250
  268MOL0     C36076   2.742   6.361   0.839 -0.8883  0.1941  0.4298
  268MOL0     C36077   2.804   6.278   0.931  0.6887  0.2407 -0.5492
  268MOL0     C36078   2.940   6.293   0.962 -0.1378 -0.4309 -0.3106
  268MOL0     C36079   3.018   6.389   0.898  0.4495  1.3682  0.3939
  268MOL0     O36080   3.150   6.410   0.927  0.8535  0.4820 -0.2850
  268MOL0     C36081   3.243   6.385   0.818  1.1100  0.1492 -1.0825
  268MOL0     C36082   3.346   6.291   0.873 -0.3774  0.8358  0.1894
  268MOL0     C36083   3.463   6.273   0.765  0.3038 -0.2903 -0.6704
  268MOL0     C36084   3.594   6.224   0.814  0.2951  0.1456  0.2064
  268MOL0     C36085   3.714   6.221   0.721  0.4957 -0.6664  0.5459
  268MOL0     C36086   3.849   6.259   0.783  0.2120  0.1497 -0.6041
  268MOL0     C36087   3.966   6.194   0.707  0.1250  0.3102  0.4100
  268MOL0     C36088   4.097   6.201   0.798  0.0017  0.0434 -0.1897
  268MOL0    Cl36089   4.068   6.102   0.946  0.0487  0.0889  0.3711
  268MOL0     C36090   2.962   6.473   0.800  0.2656  0.1601 -0.0489
  268MOL0     C36091   2.818   6.458   0.774 -0.4931  0.3055  0.0827
  268MOL0     O36092   2.551   6.179   0.934  0.8137 -0.4793 -0.6597
  268MOL0     C36093   2.304   6.177   0.814  0.1151  0.9874 -0.2457
  268MOL0     C36094   2.186   6.144   0.739 -0.7358 -0.7356 -1.1152
  268MOL0     N36095   1.658   5.761   0.395  0.6749  0.0503 -0.0380
  268MOL0     N36096   1.651   5.638   0.444  0.3480  0.4209  1.3875
  268MOL0     C36097   0.875   5.054   0.774 -0.2460  0.2792 -0.4585
  268MOL0     C36098   0.737   5.073   0.790 -0.0227 -0.9211 -0.0924
  268MOL0     C36099   0.310   5.017   1.006  1.1105 -0.1578 -0.0425
  268MOL0     C36100   0.268   5.128   0.927 -0.6638 -0.3172  0.5573
  268MOL0     C36101   0.135   5.155   0.894 -0.5739  0.0234  0.1530
  268MOL0     C36102   0.035   5.066   0.942  0.4776  0.4372 -0.3131
  268MOL0     O36103  -0.095   5.094   0.900 -0.7685  0.8107  0.1715
  268MOL0     C36104  -0.200   5.014   0.948  0.1360 -0.0855  0.9141
  268MOL0     C36105  -0.305   4.991   0.838  0.4203  0.6416  0.7143
  268MOL0     C36106  -0.354   5.126   0.783 -0.3222  0.4532  0.1148
  268MOL0     C36107  -0.474   5.092   0.690 -1.0745 -0.6271 -0.0310
  268MOL0     C36108  -0.572   5.200   0.693  0.3012  0.3154 -0.1599
  268MOL0     C36109  -0.660   5.281   0.717 -0.4207  1.8117 -0.4604
  268MOL0     C36110   0.074   4.965   1.033  0.2037  0.5168 -0.6984
  268MOL0     C36111   0.208   4.936   1.054 -0.6395 -0.7936 -0.5117
  268MOL0     C36112   0.250   4.813   1.138 -0.0500 -0.0612 -0.1256
  268MOL0     H36113   0.710   4.920   1.091  1.0570 -2.4254 -0.8173
  268MOL0     H36114   0.932   4.855   1.035  0.7707  0.8373 -0.6609
  268MOL0     H36115   1.149   4.869   1.008  5.8468 -0.9012  0.0821
  268MOL0     H36116   1.264   4.900   0.885  0.3120  3.0976 -1.5428
  268MOL0     H36117   1.284   5.069   1.053  0.4304 -1.5704  0.2278
  268MOL0     H36118   1.120   5.117   1.032 -0.8877 -1.8602 -0.1065
  268MOL0     H36119   1.192   5.146   0.763 -0.1901 -0.2048 -0.2940
  268MOL0     H36120   1.353   5.147   0.843  0.3400  0.5497  0.0383
  268MOL0     H36121   1.138   5.331   0.925  0.2898  4.4453 -0.8018
  268MOL0     H36122   1.303   5.330   0.982  1.0705  0.4102 -0.8377
  268MOL0     H36123   1.210   5.401   0.701 -2.1382 -1.9136  2.6604
  268MOL0     H36124   1.238   5.511   0.833 -2.0334 -1.4502  0.6175
  268MOL0     H36125   1.476   5.429   0.843  0.3627 -1.0476 -0.5194
  268MOL0     H36126   1.445   5.320   0.701  3.7826 -0.4534  1.2285
  268MOL0     H36127   1.394   5.615   0.675 -1.3376 -0.6912  0.9123
  268MOL0     H36128   1.424   5.485   0.558  1.8746 -0.6478  0.3182
  268MOL0     H36129   1.653   5.557   0.751  1.7454  0.2231 -0.0961
  268MOL0     H36130   1.646   5.437   0.621 -2.3721 -0.4739 -0.1235
  268MOL0     H36131   1.641   5.826   0.713 -0.4228 -1.0158  0.5701
  268MOL0     H36132   1.602   6.048   0.421 -0.8463 -1.7921  0.4753
  268MOL0     H36133   1.658   6.052   0.584  1.6805  0.6774  0.1871
  268MOL0     H36134   1.883   6.009   0.548 -1.5897 -0.4473 -0.5811
  268MOL0     H36135   1.865   5.994   0.377  0.4722  0.2073  0.3472
  268MOL0     H36136   1.772   6.250   0.429 -2.3956 -4.0819  2.8339
  268MOL0     H36137   1.914   6.196   0.338  2.7129  0.3607  1.1172
  268MOL0     H36138   1.923   6.253   0.626 -3.3526  1.7491 -1.3390
  268MOL0     H36139   1.990   6.339   0.499 -2.5841  0.8100  2.3677
  268MOL0     H36140   2.290   6.284   0.450  1.4254 -2.8948 -0.3932
  268MOL0     H36141   2.491   6.343   0.591 -0.6072  2.0733  1.1217
  268MOL0     H36142   2.767   6.190   0.983 -0.6882  1.9351  1.4946
  268MOL0     H36143   2.978   6.232   1.043  1.1207 -1.4008 -1.5847
  268MOL0     H36144   3.192   6.334   0.736  0.6219 -1.8410  0.3784
  268MOL0     H36145   3.289   6.474   0.773  0.3269  1.6094  0.8946
  268MOL0     H36146   3.398   6.327   0.963 -1.7902  0.9333  0.9909
  268MOL0     H36147   3.299   6.196   0.899  2.3091 -0.8012 -0.5471
  268MOL0     H36148   3.435   6.216   0.676 -1.3731  0.6067 -0.7587
  268MOL0     H36149   3.480   6.376   0.732 -0.3323  0.4372  1.1385
  268MOL0     H36150   3.591   6.123   0.857 -0.8296 -0.2385 -0.7290
  268MOL0     H36151   3.619   6.277   0.907 -1.7843  0.9469  0.3765
  268MOL0     H36152   3.692   6.296   0.645  0.1718 -0.9425  0.3593
  268MOL0     H36153   3.711   6.123   0.672 -0.1676 -1.0323  1.2870
  268MOL0     H36154   3.857   6.366   0.805 -4.1806  0.1558  2.2557
  268MOL0     H36155   3.847   6.205   0.878 -2.1086 -1.6031 -1.5513
  268MOL0     H36156   3.983   6.245   0.612 -2.4281  2.6368  1.0679
  268MOL0     H36157   3.943   6.089   0.688 -0.9015 -0.1789  3.6117
  268MOL0     H36158   4.189   6.178   0.743  0.6371 -0.7962  1.1658
  268MOL0     H36159   4.111   6.304   0.833  0.1240 -0.6365  1.8631
  268MOL0     H36160   3.026   6.534   0.737  1.1034 -2.4526 -1.8834
  268MOL0     H36161   2.764   6.520   0.702 -0.6643 -0.4200 -0.4237
  268MOL0     H36162   2.319   6.147   0.917  0.4379 -0.3066 -0.6516
  268MOL0     H36163   2.104   6.083   0.775  0.5370 -1.6846  0.3356
  268MOL0     H36164   0.922   5.090   0.683  0.9414 -1.7533 -0.7183
  268MOL0     H36165   0.680   5.137   0.723  1.2385 -2.0074 -2.2898
  268MOL0     H36166   0.339   5.195   0.879 -1.5480  0.2754  0.0315
  268MOL0     H36167   0.109   5.235   0.826 -0.5840  0.6510  0.8868
  268MOL0     H36168  -0.254   5.069   1.025  0.1059  0.2602  0.6501
  268MOL0     H36169  -0.172   4.917   0.989 -0.9039 -0.2327  1.3032
  268MOL0     H36170  -0.392   4.943   0.884 -1.6835  3.6522  0.1799
  268MOL0     H36171  -0.259   4.934   0.757  1.3467  3.7064 -1.0952
  268MOL0     H36172  -0.275   5.178   0.728  2.1813 -2.7179  0.3629
  268MOL0     H36173  -0.375   5.194   0.866 -0.7186  3.4762 -2.3204
  268MOL0     H36174  -0.439   5.087   0.587 -3.5538 -0.2046 -0.9791
  268MOL0     H36175  -0.533   5.001   0.708  0.9380 -1.7112  1.4716
  268MOL0     H36176  -0.746   5.339   0.742 -2.6390 -0.5230 -2.1399
  268MOL0     H36177  -0.006   4.913   1.085  0.3952 -0.2315 -1.1406
  268MOL0     H36178   0.337   4.753   1.109  0.0704 -0.4058  0.9230
  268MOL0     H36179   0.277   4.845   1.239  0.3435  1.2556 -0.6215
  268MOL0     H36180   0.165   4.745   1.145  0.0005 -0.0753  0.3588
  269MOL0     O36181   5.483   8.292   7.009 -0.3469 -0.6046  0.0443
  269MOL0     C36182   5.486   8.403   6.957 -0.3669  0.4030 -0.0513
  269MOL0     O36183   5.599   8.466   6.893 -0.3367  0.2180 -0.0670
  269MOL0     C36184   5.727   8.432   6.905 -0.8296 -0.3980  0.4851
  269MOL0     C36185   5.768   8.306   6.948  0.0927 -0.8542 -0.2258
  269MOL0     C36186   5.912   8.282   6.975 -0.8591 -0.3558  0.0039
  269MOL0     C36187   6.000   8.387   6.949 -1.1700 -0.2786 -0.3754
  269MOL0     O36188   6.137   8.368   6.946  0.4557  0.4787  0.7410
  269MOL0     C36189   6.206   8.257   7.004 -0.1354 -0.4884  0.0158
  269MOL0     C36190   6.358   8.260   6.973 -0.0167 -0.3165  1.0073
  269MOL0     C36191   6.394   8.229   6.830  0.2002  0.7706 -0.0137
  269MOL0     C36192   6.544   8.244   6.810  0.9571  0.1675  0.2011
  269MOL0     C36193   6.618   8.112   6.837 -0.2762 -0.4217 -0.5582
  269MOL0     C36194   6.615   8.013   6.721  0.5350  0.1833 -0.6146
  269MOL0     C36195   6.662   7.875   6.753  0.0839  0.5344 -0.3065
  269MOL0     C36196   6.809   7.863   6.803 -0.3102 -0.1686  0.3715
  269MOL0     N36197   6.852   7.735   6.866 -1.2110 -0.0144 -0.2794
  269MOL0     C36198   6.982   7.717   6.897  0.3399  0.7460  0.3041
  269MOL0     C36199   6.987   7.585   6.937  0.0157 -0.2597  0.3412
  269MOL0     C36200   7.117   7.515   6.983  0.4383  0.3159 -0.2490
  269MOL0     C36201   7.182   7.454   6.856 -0.4814 -0.1297 -0.5262
  269MOL0     C36202   7.329   7.501   6.840 -0.5763 -0.0975  0.2421
  269MOL0     C36203   7.345   7.615   6.742 -0.3278  0.6355 -0.0536
  269MOL0     O36204   7.298   7.740   6.798 -0.2902 -0.3945 -0.3809
  269MOL0     C36205   7.387   7.816   6.873  0.1899  0.1759 -0.1234
  269MOL0     C36206   7.337   7.938   6.902 -0.0233 -0.6670  0.1092
  269MOL0     C36207   7.407   8.034   6.978  0.5206  0.1220  0.1400
  269MOL0     C36208   7.537   8.008   7.018 -1.3434  0.4673  0.0173
  269MOL0     C36209   7.612   8.094   7.105  0.1813 -1.0197 -0.2825
  269MOL0     O36210   7.724   8.048   7.162 -0.8455  0.2534 -0.0789
  269MOL0     C36211   7.791   8.131   7.255  0.1559  0.3072 -0.5157
  269MOL0     C36212   7.872   8.238   7.206  0.6172 -0.3954 -0.6762
  269MOL0     C36213   7.951   8.318   7.293 -0.2398  0.6343  0.7871
  269MOL0     C36214   7.944   8.291   7.434 -0.2022  0.1481  0.0816
  269MOL0     O36215   8.030   8.365   7.516  0.8421 -0.1280 -1.1069
  269MOL0     C36216   8.014   8.348   7.660  0.7109 -0.4621  0.4680
  269MOL0     C36217   8.087   8.446   7.746  0.4622  0.5623  0.7435
  269MOL0     C36218   8.241   8.418   7.761  0.1917 -0.0562 -0.7962
  269MOL0     C36219   8.310   8.532   7.841  0.5525  0.1296 -0.1129
  269MOL0     C36220   8.466   8.526   7.867 -0.0990  0.0345 -0.1172
  269MOL0     C36221   8.542   8.522   7.730 -0.5678  0.1223  1.2699
  269MOL0     C36222   8.700   8.516   7.737 -0.8996  0.5422  0.1116
  269MOL0     C36223   8.759   8.639   7.805  1.0204  0.2384 -0.1741
  269MOL0    Cl36224   8.938   8.630   7.815  0.2725 -0.7040 -0.4421
  269MOL0     C36225   7.856   8.190   7.479  0.3441 -0.5739  0.4834
  269MOL0     C36226   7.782   8.110   7.391 -0.2384  1.0622  0.3208
  269MOL0     O36227   7.579   8.212   7.106  0.1312 -0.3264  0.3248
  269MOL0     C36228   7.586   7.884   6.980  0.7338 -0.4623 -0.0054
  269MOL0     C36229   7.515   7.795   6.911 -0.7160  0.5647 -0.6962
  269MOL0     N36230   6.862   7.532   6.939  0.4347 -0.8401  0.1873
  269MOL0     N36231   6.781   7.623   6.896 -0.3031 -0.2499 -0.2177
  269MOL0     C36232   5.964   8.510   6.900 -0.4282 -0.2002  0.3226
  269MOL0     C36233   5.826   8.532   6.879 -0.3771  0.9747 -0.0854
  269MOL0     C36234   5.354   8.462   6.928 -0.3254 -0.6424  0.1791
  269MOL0     C36235   5.347   8.559   6.826 -0.6103 -0.3341 -0.1460
  269MOL0     C36236   5.228   8.613   6.776  0.3443  1.1693 -0.0191
  269MOL0     C36237   5.108   8.560   6.823 -0.3005 -0.8793 -0.0097
  269MOL0     O36238   4.985   8.594   6.766 -0.5276  0.3292  0.5115
  269MOL0     C36239   4.933   8.721   6.803  0.2610  0.4920 -0.1261
  269MOL0     C36240   4.828   8.773   6.699 -0.0694  0.2383  0.0325
  269MOL0     C36241   4.901   8.821   6.570  0.0192 -0.4263 -0.1279
  269MOL0     C36242   4.999   8.940   6.591 -0.0185  0.9741 -0.6042
  269MOL0     C36243   5.128   8.917   6.525  0.7481  0.1112 -0.7727
  269MOL0     C36244   5.237   8.897   6.478  0.1145  0.0028  0.7750
  269MOL0     C36245   5.107   8.478   6.932  0.4647 -0.3531 -0.4541
  269MOL0     C36246   5.232   8.424   6.988  0.4234 -0.5749  0.2791
  269MOL0     C36247   5.221   8.350   7.120 -0.5036  0.4875 -0.9133
  269MOL0     H36248   5.703   8.228   6.987  0.0149  0.2695  2.0576
  269MOL0     H36249   5.950   8.186   7.009 -1.7909 -1.0642 -0.9059
  269MOL0     H36250   6.194   8.261   7.112 -0.4301 -0.7833 -0.0037
  269MOL0     H36251   6.155   8.165   6.977  0.1044 -1.0574  1.4378
  269MOL0     H36252   6.413   8.200   7.047  1.3232  2.9412  2.8914
  269MOL0     H36253   6.401   8.360   6.985  1.7937 -0.8123 -0.7467
  269MOL0     H36254   6.351   8.297   6.756 -1.6961 -1.5309 -1.1817
  269MOL0     H36255   6.366   8.126   6.806  0.1330  0.8781 -0.4016
  269MOL0     H36256   6.577   8.278   6.712  1.4724 -0.7145  0.0529
  269MOL0     H36257   6.570   8.315   6.889 -1.7497 -2.0460  3.4104
  269MOL0     H36258   6.720   8.145   6.863  0.1123 -2.2261  0.3625
  269MOL0     H36259   6.579   8.066   6.928  0.4523 -2.5254 -1.2361
  269MOL0     H36260   6.512   7.999   6.685 -0.1613 -0.8498  1.6550
  269MOL0     H36261   6.673   8.069   6.646 -1.7486  2.9072 -0.5459
  269MOL0     H36262   6.648   7.819   6.660 -1.5457  1.5783 -0.7320
  269MOL0     H36263   6.598   7.837   6.833  0.7406 -1.0061 -0.4818
  269MOL0     H36264   6.879   7.876   6.720 -0.0321  0.6279  0.7283
  269MOL0     H36265   6.829   7.945   6.871 -1.0625 -0.8822  1.4863
  269MOL0     H36266   7.068   7.783   6.886  0.8175  0.1938  0.6506
  269MOL0     H36267   7.175   7.592   7.033 -3.1136  2.0527  1.5781
  269MOL0     H36268   7.097   7.448   7.067 -0.3637 -3.1670 -2.9805
  269MOL0     H36269   7.184   7.345   6.865  1.4189  0.0335  2.0061
  269MOL0     H36270   7.123   7.490   6.771  1.2006  1.1856 -1.2051
  269MOL0     H36271   7.392   7.414   6.818  1.4006  0.9226  1.5526
  269MOL0     H36272   7.379   7.525   6.935  2.8768  0.0203 -1.4442
  269MOL0     H36273   7.296   7.600   6.646  0.9778  1.9445 -0.9730
  269MOL0     H36274   7.451   7.630   6.717  0.5608 -3.2480  0.8004
  269MOL0     H36275   7.235   7.968   6.879  0.1906  0.2917  0.3377
  269MOL0     H36276   7.348   8.123   7.001  0.6213  1.0525 -2.7948
  269MOL0     H36277   7.877   8.256   7.099 -2.1317  3.6779 -0.3299
  269MOL0     H36278   8.015   8.395   7.250  0.1170  0.4901  1.0575
  269MOL0     H36279   7.908   8.347   7.687  0.9482 -5.9787  2.4300
  269MOL0     H36280   8.046   8.246   7.684 -1.7222 -1.4462 -0.2162
  269MOL0     H36281   8.067   8.545   7.703 -0.9301 -0.3318 -0.7578
  269MOL0     H36282   8.045   8.441   7.847 -1.3123 -1.9988 -0.0191
  269MOL0     H36283   8.266   8.324   7.811 -3.0154 -0.4910  0.2135
  269MOL0     H36284   8.283   8.410   7.660  0.3552  1.3159 -0.8478
  269MOL0     H36285   8.251   8.554   7.930 -0.8178 -4.6103  0.4309
  269MOL0     H36286   8.290   8.620   7.778 -1.9638 -0.0934  0.2710
  269MOL0     H36287   8.493   8.438   7.925  2.2924  1.9944  1.9747
  269MOL0     H36288   8.489   8.616   7.925  1.7918  0.7703 -1.8803
  269MOL0     H36289   8.507   8.434   7.674  1.5605  0.4665 -0.7929
  269MOL0     H36290   8.512   8.613   7.677 -4.2246 -1.0303  1.0865
  269MOL0     H36291   8.746   8.498   7.639  0.1642 -3.1390  1.1142
  269MOL0     H36292   8.725   8.428   7.797  1.1598 -0.4317 -2.0084
  269MOL0     H36293   8.749   8.732   7.748  1.0652  0.5770  0.3602
  269MOL0     H36294   8.708   8.652   7.901  0.4682 -0.2759 -0.3981
  269MOL0     H36295   7.870   8.159   7.582  0.5977  0.2693  0.7118
  269MOL0     H36296   7.737   8.025   7.441  2.4269 -0.0123  1.0742
  269MOL0     H36297   7.685   7.853   7.014  0.9135  0.3092  0.2137
  269MOL0     H36298   7.564   7.699   6.895 -0.6239  0.6807 -1.1245
  269MOL0     H36299   6.032   8.591   6.875  0.8198 -0.5844  2.2380
  269MOL0     H36300   5.796   8.626   6.834 -1.9388  0.1764 -0.7637
  269MOL0     H36301   5.433   8.596   6.770 -0.8746 -1.4479 -1.3186
  269MOL0     H36302   5.222   8.694   6.704 -1.0790 -0.3790 -1.7715
  269MOL0     H36303   5.014   8.791   6.828  0.3407 -0.3250  2.1525
  269MOL0     H36304   4.884   8.698   6.898  0.4539  0.3513 -0.0610
  269MOL0     H36305   4.759   8.847   6.739 -1.1987 -0.0453 -1.3383
  269MOL0     H36306   4.770   8.682   6.679 -1.3925  0.9512  0.5455
  269MOL0     H36307   4.830   8.844   6.491 -0.0028 -0.8816 -0.2465
  269MOL0     H36308   4.961   8.737   6.532  1.2622  0.5150 -0.3015
  269MOL0     H36309   4.941   9.028   6.563 -3.7173 -0.7308  1.0136
  269MOL0     H36310   5.024   8.944   6.697  0.4913 -0.7246 -0.6340
  269MOL0     H36311   5.328   8.885   6.423  1.6866  3.7416  2.1626
  269MOL0     H36312   5.011   8.447   6.971  0.2077 -0.1693 -0.9320
  269MOL0     H36313   5.203   8.243   7.102  3.0995 -0.7337  1.4283
  269MOL0     H36314   5.307   8.353   7.189 -0.8139 -0.0873 -0.4894
  269MOL0     H36315   5.138   8.398   7.172 -1.7180  0.1780 -2.4928
  270MOL0     O36316   8.412   9.022   4.358 -0.6149 -0.0191  0.4808
  270MOL0     C36317   8.399   9.048   4.482  0.0508  0.0937 -0.1687
  270MOL0     O36318   8.499   9.070   4.563  0.3073  0.5397  0.0782
  270MOL0     C36319   8.625   9.090   4.515 -0.7496  0.2668 -0.1293
  270MOL0     C36320   8.706   8.994   4.445  0.2235 -0.0756  0.2609
  270MOL0     C36321   8.834   9.026   4.409 -0.0394 -0.2287  0.1783
  270MOL0     C36322   8.900   9.146   4.452  0.2646 -0.4000 -0.0555
  270MOL0     O36323   9.023   9.190   4.425 -0.0039  0.6053 -0.3076
  270MOL0     C36324   9.116   9.085   4.396 -0.7936 -0.6220 -0.2380
  270MOL0     C36325   9.253   9.158   4.370  1.3328  0.2177  0.7220
  270MOL0     C36326   9.350   9.067   4.296 -0.0002  1.5074  0.1523
  270MOL0     C36327   9.410   8.958   4.385 -0.3560  0.3418  0.1066
  270MOL0     C36328   9.508   8.866   4.303 -0.0075 -1.6895 -0.1554
  270MOL0     C36329   9.596   8.789   4.399 -0.3180 -0.1100  0.6313
  270MOL0     C36330   9.714   8.743   4.312  0.5341  0.5786  1.0293
  270MOL0     C36331   9.795   8.634   4.379 -0.3808 -0.8119 -0.5947
  270MOL0     N36332   9.883   8.667   4.492  0.7962  0.0498  0.0311
  270MOL0     C36333   9.834   8.664   4.620  0.1638 -0.4125 -0.1802
  270MOL0     C36334   9.954   8.669   4.688  0.9675 -0.3552  1.0117
  270MOL0     C36335   9.956   8.682   4.837 -0.5782  0.5761 -0.3561
  270MOL0     C36336   9.936   8.548   4.896  0.8661  0.5090 -0.3147
  270MOL0     C36337  10.017   8.436   4.843 -0.1929  1.5555  0.0393
  270MOL0     C36338  10.174   8.459   4.856  0.5023 -0.6029 -0.1226
  270MOL0     O36339  10.220   8.500   4.985 -0.0012 -0.6265  0.9253
  270MOL0     C36340  10.346   8.468   5.034 -0.1325 -0.2969  0.7208
  270MOL0     C36341  10.370   8.479   5.171 -0.7272  0.1357  0.5157
  270MOL0     C36342  10.497   8.447   5.227  0.0507  0.5978  0.9912
  270MOL0     C36343  10.602   8.396   5.145 -0.2314  0.7343  0.3174
  270MOL0     C36344  10.745   8.368   5.192  0.6521  0.3196  0.4022
  270MOL0     O36345  10.839   8.321   5.098  0.5406 -0.5545  0.0611
  270MOL0     C36346  10.960   8.272   5.134  0.1214  0.2052 -0.2389
  270MOL0     C36347  11.063   8.308   5.036  1.3141  0.0164 -0.8860
  270MOL0     C36348  11.193   8.254   5.046  0.2676 -0.2459  0.6208
  270MOL0     C36349  11.229   8.175   5.155 -0.3081 -0.6437  0.2868
  270MOL0     O36350  11.357   8.127   5.179  0.4426  0.2607  0.3000
  270MOL0     C36351  11.356   7.981   5.168  0.1003  0.7046  1.0132
  270MOL0     C36352  11.499   7.925   5.161 -0.0372 -0.1108 -0.9961
  270MOL0     C36353  11.540   7.922   5.012 -0.0773 -0.6299  0.0799
  270MOL0     C36354  11.663   7.848   4.967 -0.7760  0.8299 -0.4976
  270MOL0     C36355  11.790   7.910   5.026 -0.1225 -0.8524 -0.8340
  270MOL0     C36356  11.917   7.874   4.955  0.3169 -0.0591  0.3337
  270MOL0     C36357  12.039   7.923   5.030 -0.3495 -0.9971  0.9712
  270MOL0     C36358  12.167   7.881   4.956  0.4252  0.4471  0.3194
  270MOL0    Cl36359  12.194   7.707   4.980  0.0299 -0.0232 -0.2106
  270MOL0     C36360  11.140   8.150   5.257  0.0977  0.4127  1.4017
  270MOL0     C36361  11.005   8.204   5.251 -0.0196 -0.1648 -0.4938
  270MOL0     O36362  10.762   8.372   5.316  0.5528  0.7053  0.3747
  270MOL0     C36363  10.567   8.380   5.006  0.1968  0.5949  0.3883
  270MOL0     C36364  10.449   8.429   4.960 -0.0176  0.4089 -0.0469
  270MOL0     N36365  10.058   8.677   4.606  0.1694 -0.2764 -0.6524
  270MOL0     N36366  10.012   8.662   4.487  0.4869  0.5687 -0.3605
  270MOL0     C36367   8.821   9.245   4.512  0.7667  0.6315 -0.2967
  270MOL0     C36368   8.692   9.217   4.552  0.2550  0.2200 -0.7056
  270MOL0     C36369   8.273   9.052   4.546  0.5710  0.6288 -0.7841
  270MOL0     C36370   8.265   9.009   4.682  0.1105 -0.9433  0.3339
  270MOL0     C36371   8.148   9.025   4.754 -0.2077  0.2818  0.0545
  270MOL0     C36372   8.034   9.074   4.689  0.6625  0.1714 -0.1994
  270MOL0     O36373   7.921   9.077   4.774 -0.2593  0.3079  0.0023
  270MOL0     C36374   7.794   9.098   4.705 -0.6307  0.9009  0.6161
  270MOL0     C36375   7.737   8.970   4.643  0.7293  0.1392  0.8971
  270MOL0     C36376   7.744   8.842   4.728  0.6345 -0.2287 -0.2020
  270MOL0     C36377   7.627   8.751   4.711 -0.2934  0.1601  0.2178
  270MOL0     C36378   7.504   8.813   4.756  0.0543 -0.3495  0.3027
  270MOL0     C36379   7.398   8.866   4.794  0.3460  0.5388  1.1067
  270MOL0     C36380   8.041   9.111   4.555 -0.6242  0.3415  1.3444
  270MOL0     C36381   8.160   9.108   4.487  0.2641  0.9815 -0.2962
  270MOL0     C36382   8.147   9.158   4.345  0.9719 -0.7177  0.2108
  270MOL0     H36383   8.660   8.897   4.426 -2.6319  1.1816  0.3200
  270MOL0     H36384   8.887   8.956   4.346 -1.2257 -2.2595  1.3224
  270MOL0     H36385   9.126   9.018   4.483  0.0074 -0.8578 -0.5112
  270MOL0     H36386   9.091   9.031   4.304  0.0680 -2.3734  0.4956
  270MOL0     H36387   9.281   9.197   4.468  1.2869  0.5836  0.5928
  270MOL0     H36388   9.235   9.243   4.303  3.3522  0.7940  0.8665
  270MOL0     H36389   9.433   9.127   4.256  0.4678  1.4221  0.9569
  270MOL0     H36390   9.300   9.026   4.208  3.5068 -1.4243 -0.7540
  270MOL0     H36391   9.469   9.010   4.462 -2.3410 -0.5861  2.3981
  270MOL0     H36392   9.329   8.907   4.437 -0.5037  0.8476  0.3733
  270MOL0     H36393   9.447   8.793   4.247 -3.1248 -1.2116  2.3275
  270MOL0     H36394   9.571   8.926   4.236  0.4469 -0.0038  1.7182
  270MOL0     H36395   9.629   8.864   4.471 -1.5670  3.6817 -2.3974
  270MOL0     H36396   9.530   8.707   4.427 -3.6671  1.2877 -2.3822
  270MOL0     H36397   9.789   8.821   4.301 -0.6482  1.6389  0.2144
  270MOL0     H36398   9.685   8.698   4.216  0.0583 -0.1262  1.4865
  270MOL0     H36399   9.709   8.573   4.407 -0.5605  0.5380  2.0616
  270MOL0     H36400   9.863   8.588   4.306  0.4410  1.8806 -1.6666
  270MOL0     H36401   9.733   8.676   4.657  0.7951  1.8444  0.9861
  270MOL0     H36402  10.057   8.716   4.861 -0.4295  1.0228 -1.5610
  270MOL0     H36403   9.892   8.761   4.876  1.3130  3.1296 -2.0482
  270MOL0     H36404   9.945   8.544   5.005  1.3525 -1.4815 -0.3936
  270MOL0     H36405   9.828   8.532   4.886  0.7770 -0.5567  1.8002
  270MOL0     H36406   9.990   8.413   4.739  2.4877  1.2563 -0.6631
  270MOL0     H36407   9.989   8.363   4.919 -1.9574 -1.4443 -3.2145
  270MOL0     H36408  10.204   8.536   4.784 -2.1302 -1.0678 -1.8829
  270MOL0     H36409  10.227   8.367   4.828 -2.4339 -1.8417 -2.0780
  270MOL0     H36410  10.289   8.502   5.239  0.1327  2.4430  0.8613
  270MOL0     H36411  10.508   8.445   5.335 -1.0673 -2.2540  1.1232
  270MOL0     H36412  11.030   8.377   4.960  2.0478 -0.9601 -2.1224
  270MOL0     H36413  11.268   8.282   4.974  0.4911 -1.8406  0.1956
  270MOL0     H36414  11.326   7.931   5.261  0.5462  0.5039  1.0498
  270MOL0     H36415  11.295   7.943   5.085  0.7663 -0.0904  0.8614
  270MOL0     H36416  11.578   7.984   5.208  0.7854 -2.2008  0.4132
  270MOL0     H36417  11.504   7.827   5.209 -0.2094  0.1707 -0.3959
  270MOL0     H36418  11.464   7.876   4.948 -1.4089  1.3743  0.1410
  270MOL0     H36419  11.540   8.027   4.980 -5.0614 -1.8644 -5.8665
  270MOL0     H36420  11.658   7.843   4.857 -0.9267  0.3893 -0.4743
  270MOL0     H36421  11.650   7.740   4.983  1.0358  0.7499  0.7447
  270MOL0     H36422  11.795   7.891   5.134 -1.7694  1.8785 -0.1732
  270MOL0     H36423  11.776   8.018   5.025 -0.9709 -0.7439  3.3817
  270MOL0     H36424  11.917   7.765   4.938 -2.2779 -0.3855  1.9128
  270MOL0     H36425  11.915   7.917   4.855  1.8384  3.7637  1.7496
  270MOL0     H36426  12.052   7.878   5.129  1.0526 -0.3373  1.1082
  270MOL0     H36427  12.041   8.031   5.043 -1.3458 -1.0382  1.4894
  270MOL0     H36428  12.160   7.895   4.848  0.3579 -0.4024  0.2069
  270MOL0     H36429  12.248   7.937   5.002  1.5089 -0.7914 -0.0361
  270MOL0     H36430  11.165   8.088   5.342 -0.2837 -3.1293 -0.8639
  270MOL0     H36431  10.942   8.177   5.334  1.3988  1.0101  1.0419
  270MOL0     H36432  10.648   8.354   4.938  1.1588  2.3073  0.8073
  270MOL0     H36433  10.452   8.437   4.852  0.5359  1.8514  0.0511
  270MOL0     H36434   8.859   9.335   4.560 -1.8554  0.6104  2.0851
  270MOL0     H36435   8.643   9.295   4.608 -0.7391  1.6322 -3.3730
  270MOL0     H36436   8.350   8.970   4.738 -0.3029 -1.4683  0.6115
  270MOL0     H36437   8.135   9.000   4.859  0.8915 -0.3189  0.0674
  270MOL0     H36438   7.797   9.181   4.635 -1.2043 -0.9895 -1.7657
  270MOL0     H36439   7.721   9.127   4.781 -0.0415 -1.7485  2.3395
  270MOL0     H36440   7.801   8.945   4.557  0.3072  3.1392 -0.4135
  270MOL0     H36441   7.635   8.982   4.604  1.6886  2.5143 -1.1510
  270MOL0     H36442   7.742   8.867   4.835 -1.3389 -3.4335  0.6439
  270MOL0     H36443   7.833   8.786   4.696 -1.7525 -3.1657 -2.1788
  270MOL0     H36444   7.606   8.727   4.606  0.1316 -2.5737  0.7001
  270MOL0     H36445   7.634   8.662   4.773  1.1613  0.7771  0.9902
  270MOL0     H36446   7.306   8.908   4.830  0.1199  1.1122 -0.0900
  270MOL0     H36447   7.950   9.154   4.514  0.7439  2.0610 -0.0435
  270MOL0     H36448   8.237   9.212   4.314  0.9480 -1.5103 -1.3460
  270MOL0     H36449   8.140   9.065   4.287  0.9677 -0.9911  0.6430
  270MOL0     H36450   8.064   9.228   4.352  0.9141 -0.8216  0.5875
  271MOL0     O36451   4.703   7.051   5.157  0.4783  0.1841 -0.2688
  271MOL0     C36452   4.667   7.096   5.268  0.9185 -0.8723  0.2407
  271MOL0     O36453   4.728   7.071   5.385 -0.1025 -0.6891  0.2696
  271MOL0     C36454   4.860   7.019   5.374  0.5317 -0.5106 -0.1935
  271MOL0     C36455   4.958   7.098   5.319  0.2866  0.0463  0.6694
  271MOL0     C36456   5.085   7.044   5.297  0.4774  0.2999 -0.0596
  271MOL0     C36457   5.117   6.921   5.361 -0.3814 -0.1804 -0.0648
  271MOL0     O36458   5.243   6.864   5.362  0.3402 -0.9349  0.2154
  271MOL0     C36459   5.327   6.881   5.242  0.1296 -0.5979  0.4699
  271MOL0     C36460   5.456   6.798   5.254 -0.2996  0.1304 -1.0085
  271MOL0     C36461   5.437   6.641   5.279  0.1089 -0.7759 -0.1715
  271MOL0     C36462   5.569   6.568   5.290  0.3185 -0.0174 -0.4213
  271MOL0     C36463   5.552   6.421   5.341  0.7773 -0.3367 -0.0463
  271MOL0     C36464   5.669   6.362   5.424 -0.4981  0.2756  0.7194
  271MOL0     C36465   5.811   6.388   5.363  0.1367  0.7500 -0.2153
  271MOL0     C36466   5.920   6.356   5.458 -0.0280  0.1197  0.0828
  271MOL0     N36467   6.051   6.393   5.415  0.0031  0.1185  0.2780
  271MOL0     C36468   6.141   6.319   5.340 -0.7923  0.0308 -0.7882
  271MOL0     C36469   6.259   6.388   5.342  0.9227  0.7714  0.8388
  271MOL0     C36470   6.388   6.327   5.278  0.3203 -0.0209  0.3446
  271MOL0     C36471   6.515   6.411   5.303  0.9099 -0.9805 -0.6529
  271MOL0     C36472   6.646   6.353   5.243  0.0360  0.2734  0.3364
  271MOL0     C36473   6.757   6.433   5.179  0.9934 -0.1136  0.0645
  271MOL0     O36474   6.793   6.544   5.253  0.3866  0.0774  0.0945
  271MOL0     C36475   6.899   6.544   5.333 -0.4067  0.3555 -0.9392
  271MOL0     C36476   6.947   6.666   5.363  0.0644 -0.3265  0.3658
  271MOL0     C36477   7.060   6.686   5.434  0.0883  0.1920 -0.8591
  271MOL0     C36478   7.130   6.572   5.487  0.6099  0.8149 -0.2628
  271MOL0     C36479   7.269   6.574   5.546  0.9782 -0.6333 -0.0023
  271MOL0     O36480   7.326   6.460   5.604 -0.0291  0.3165 -0.1420
  271MOL0     C36481   7.447   6.474   5.668 -0.2715  1.0933  0.1996
  271MOL0     C36482   7.559   6.389   5.641  0.9048 -0.1964  0.1801
  271MOL0     C36483   7.672   6.389   5.717 -0.3504 -0.3173 -0.5502
  271MOL0     C36484   7.685   6.482   5.819 -0.0661  0.9216 -0.3238
  271MOL0     O36485   7.795   6.484   5.907  1.0670  0.1894 -0.0541
  271MOL0     C36486   7.917   6.412   5.876  0.7624  0.1703 -0.5668
  271MOL0     C36487   8.023   6.515   5.829 -0.2340 -0.3538 -1.1963
  271MOL0     C36488   8.159   6.456   5.776  0.3641 -1.2603 -0.2468
  271MOL0     C36489   8.255   6.430   5.892 -0.9188  0.0724 -0.7496
  271MOL0     C36490   8.329   6.555   5.933  0.2269 -0.1935  0.0703
  271MOL0     C36491   8.417   6.534   6.060  0.4182  0.1488  0.1967
  271MOL0     C36492   8.509   6.656   6.067 -0.5286  0.3866  0.1837
  271MOL0     C36493   8.562   6.684   6.210  0.3850  1.4917  0.1248
  271MOL0    Cl36494   8.440   6.768   6.310  0.3807 -0.3056 -0.2040
  271MOL0     C36495   7.587   6.582   5.835 -0.7975 -1.1602  0.6963
  271MOL0     C36496   7.461   6.571   5.770 -0.5830 -0.6101  0.3970
  271MOL0     O36497   7.303   6.693   5.565 -0.0549  1.1373 -1.0422
  271MOL0     C36498   7.073   6.440   5.470 -0.7656  0.0194  1.1342
  271MOL0     C36499   6.959   6.427   5.384 -0.6670 -0.5185  0.2337
  271MOL0     N36500   6.233   6.506   5.416 -0.2729 -0.1330  0.4670
  271MOL0     N36501   6.110   6.501   5.460 -0.0354 -0.3665  0.1894
  271MOL0     C36502   5.020   6.860   5.435  0.0770  0.2671  0.1681
  271MOL0     C36503   4.888   6.899   5.442  0.9089 -0.0780  0.6111
  271MOL0     C36504   4.544   7.184   5.265  0.2877 -0.3733  0.1830
  271MOL0     C36505   4.425   7.131   5.192  0.2830 -1.4003  0.4354
  271MOL0     C36506   4.304   7.219   5.178 -0.4979  0.4093 -0.2794
  271MOL0     C36507   4.294   7.349   5.219  0.5003  0.2001 -0.6047
  271MOL0     O36508   4.182   7.424   5.209  0.1709  0.3209 -0.5096
  271MOL0     C36509   4.171   7.566   5.247 -0.7634  0.2973 -1.3052
  271MOL0     C36510   4.031   7.625   5.227  0.1707 -0.2568  0.3858
  271MOL0     C36511   3.905   7.578   5.313  0.3527 -0.6703  0.0627
  271MOL0     C36512   3.935   7.584   5.467 -0.3996  0.7062 -0.6742
  271MOL0     C36513   3.805   7.559   5.535 -0.2084  0.4755  0.3319
  271MOL0     C36514   3.695   7.550   5.589 -0.3009  0.3818  0.0642
  271MOL0     C36515   4.414   7.394   5.278 -0.6790  0.3928  0.1680
  271MOL0     C36516   4.531   7.317   5.308  0.3313 -0.3932  0.4858
  271MOL0     C36517   4.649   7.378   5.381  0.6845 -0.4621 -0.1457
  271MOL0     H36518   4.939   7.195   5.274 -0.5549 -0.0355  0.8274
  271MOL0     H36519   5.158   7.098   5.237  1.7668 -2.4322 -1.1503
  271MOL0     H36520   5.271   6.845   5.155  1.4690 -2.3589  0.2577
  271MOL0     H36521   5.353   6.985   5.221 -0.2456 -0.4305  0.8262
  271MOL0     H36522   5.522   6.843   5.329 -0.5910 -0.2553 -0.5119
  271MOL0     H36523   5.515   6.803   5.162  2.3184 -0.7458  0.5255
  271MOL0     H36524   5.382   6.591   5.199  0.8979  0.7113 -1.7301
  271MOL0     H36525   5.388   6.619   5.374  0.9389 -1.5661  0.0950
  271MOL0     H36526   5.634   6.578   5.202 -2.4594 -1.2582 -2.7786
  271MOL0     H36527   5.610   6.628   5.372 -4.0158  1.2722  1.0880
  271MOL0     H36528   5.472   6.428   5.416  0.0888  0.2678 -0.8176
  271MOL0     H36529   5.522   6.362   5.254  2.1179 -1.4721  0.2202
  271MOL0     H36530   5.655   6.409   5.521 -6.0300 -0.0263  0.3777
  271MOL0     H36531   5.658   6.253   5.432  1.1817  0.0007 -0.0618
  271MOL0     H36532   5.818   6.496   5.352  2.8489  0.7990  1.1313
  271MOL0     H36533   5.828   6.338   5.267  1.5245  1.0059 -0.1255
  271MOL0     H36534   5.910   6.401   5.558  1.2697  2.9661 -0.9538
  271MOL0     H36535   5.912   6.248   5.473  2.8520 -0.0894  0.7198
  271MOL0     H36536   6.129   6.217   5.305  1.1697  0.2494 -2.2311
  271MOL0     H36537   6.407   6.226   5.316  0.1576 -0.1231  0.1560
  271MOL0     H36538   6.371   6.307   5.172  2.6256 -0.5350  0.0091
  271MOL0     H36539   6.510   6.511   5.259  3.1401  0.1269  1.3454
  271MOL0     H36540   6.518   6.433   5.410 -1.8770  3.8899 -1.2579
  271MOL0     H36541   6.617   6.275   5.171  0.6901 -0.6228  1.0304
  271MOL0     H36542   6.702   6.294   5.316  2.1638  3.9425  1.9504
  271MOL0     H36543   6.721   6.484   5.089 -1.1524  0.2450  1.0643
  271MOL0     H36544   6.841   6.365   5.163  1.3782  0.1609  0.8963
  271MOL0     H36545   6.895   6.754   5.329 -1.5859 -2.0453 -1.8923
  271MOL0     H36546   7.096   6.788   5.439 -1.5860  0.8708 -1.6229
  271MOL0     H36547   7.551   6.309   5.568  1.8533  0.3373 -0.5219
  271MOL0     H36548   7.735   6.302   5.701 -3.1781 -2.7533  0.6740
  271MOL0     H36549   7.958   6.362   5.965  2.4185  1.3739 -0.6007
  271MOL0     H36550   7.903   6.329   5.807 -2.8446 -1.0291  1.2998
  271MOL0     H36551   7.978   6.576   5.750 -2.1242  0.1072  0.1773
  271MOL0     H36552   8.048   6.577   5.916  1.2446  0.6308 -2.2817
  271MOL0     H36553   8.146   6.365   5.717 -1.7701 -1.0602 -0.1608
  271MOL0     H36554   8.203   6.531   5.709 -1.4250 -0.7426 -0.9243
  271MOL0     H36555   8.330   6.353   5.871 -0.1076  0.2052  1.4220
  271MOL0     H36556   8.196   6.373   5.964 -0.4210 -2.3318 -2.1147
  271MOL0     H36557   8.262   6.641   5.944 -0.5783 -0.7692 -0.2674
  271MOL0     H36558   8.395   6.581   5.850 -0.2585  1.4207  0.1543
  271MOL0     H36559   8.360   6.519   6.152  1.7370 -1.4128  0.8245
  271MOL0     H36560   8.474   6.442   6.040 -0.2645 -0.1928 -0.2062
  271MOL0     H36561   8.467   6.753   6.040  3.3259  1.8343 -1.3024
  271MOL0     H36562   8.595   6.642   6.001 -1.7832  2.4008 -2.0257
  271MOL0     H36563   8.592   6.591   6.259 -2.1158  2.3924  3.7929
  271MOL0     H36564   8.646   6.753   6.197 -1.2623  3.3149 -1.5196
  271MOL0     H36565   7.608   6.663   5.904  0.4676 -0.7803 -0.1129
  271MOL0     H36566   7.394   6.650   5.801  0.3155  0.3658 -0.0634
  271MOL0     H36567   7.122   6.359   5.524  3.0589  0.5545 -1.1560
  271MOL0     H36568   6.922   6.326   5.367 -3.1922  0.8005 -3.4125
  271MOL0     H36569   5.041   6.769   5.490 -1.2134 -1.0992 -1.4768
  271MOL0     H36570   4.810   6.843   5.491 -0.7496  0.7137 -1.0176
  271MOL0     H36571   4.413   7.028   5.159 -1.0788 -1.0838 -0.1656
  271MOL0     H36572   4.217   7.176   5.129 -0.7217  0.2349  0.2627
  271MOL0     H36573   4.249   7.622   5.194  1.4109 -0.8003  0.5682
  271MOL0     H36574   4.195   7.566   5.353  3.0804  0.0047 -2.0486
  271MOL0     H36575   3.998   7.642   5.125 -2.1092 -0.0505  1.0980
  271MOL0     H36576   4.047   7.726   5.266 -0.0278  0.6390 -1.7573
  271MOL0     H36577   3.890   7.474   5.283  0.1945 -0.2303 -1.4796
  271MOL0     H36578   3.813   7.628   5.282  0.8250  0.1938  0.0319
  271MOL0     H36579   4.006   7.515   5.513  0.5108  2.2899  0.4021
  271MOL0     H36580   3.967   7.687   5.489  0.2970  0.7690 -1.8698
  271MOL0     H36581   3.596   7.546   5.630 -0.6581  1.7215 -0.6313
  271MOL0     H36582   4.420   7.495   5.319 -1.9057 -0.4095  2.5042
  271MOL0     H36583   4.669   7.321   5.472  1.9452  1.3706  0.7651
  271MOL0     H36584   4.744   7.364   5.329 -0.5430  1.9584 -3.3698
  271MOL0     H36585   4.632   7.482   5.410 -0.6643 -0.6632 -0.1170
  272MOL0     O36586   1.734   2.421   7.281  0.0896 -0.5582  0.5252
  272MOL0     C36587   1.638   2.447   7.207 -0.5453 -0.8401 -0.8557
  272MOL0     O36588   1.640   2.544   7.108 -0.1352  0.7048 -0.0707
  272MOL0     C36589   1.758   2.608   7.079  0.5322 -0.2943 -0.3374
  272MOL0     C36590   1.865   2.539   7.022  0.8768  0.0052  0.3334
  272MOL0     C36591   1.978   2.610   6.979  0.5377 -0.3655  0.2809
  272MOL0     C36592   1.980   2.752   6.993 -1.2539 -0.4249 -0.2179
  272MOL0     O36593   2.101   2.812   6.961  0.2192 -0.3225 -0.1459
  272MOL0     C36594   2.119   2.967   6.944  0.1093  0.5572 -0.2976
  272MOL0     C36595   2.023   3.030   6.843  0.0748  0.9100 -0.5356
  272MOL0     C36596   2.049   3.185   6.827  1.1128 -0.3725  0.2433
  272MOL0     C36597   2.180   3.215   6.742 -0.3793  0.2313  0.9890
  272MOL0     C36598   2.200   3.365   6.738 -0.2910 -0.2206 -0.6520
  272MOL0     C36599   2.094   3.446   6.650 -0.0154 -0.0930 -0.5988
  272MOL0     C36600   2.123   3.593   6.651  0.8378  0.5823 -0.8335
  272MOL0     C36601   2.006   3.682   6.605  0.4495 -0.4017 -0.6723
  272MOL0     N36602   1.984   3.682   6.460 -0.3440  0.8447  0.2293
  272MOL0     C36603   1.918   3.581   6.388  0.6032  0.3022 -0.4179
  272MOL0     C36604   1.931   3.624   6.255  0.4543  0.4731 -0.1550
  272MOL0     C36605   1.873   3.555   6.128  0.3415 -0.5272 -0.2189
  272MOL0     C36606   1.724   3.537   6.133  0.1432 -0.0228  0.0848
  272MOL0     C36607   1.682   3.495   5.990 -0.1689  0.4055 -0.1416
  272MOL0     C36608   1.531   3.466   5.975  0.1295 -0.2617  0.2260
  272MOL0     O36609   1.449   3.569   6.026  0.1388  0.0121 -0.0708
  272MOL0     C36610   1.328   3.593   5.962  0.3427  0.2869 -0.2386
  272MOL0     C36611   1.266   3.717   5.982  0.0094  0.6012 -0.0068
  272MOL0     C36612   1.143   3.749   5.928  0.1206 -0.5400  0.2009
  272MOL0     C36613   1.064   3.650   5.860 -0.5270 -0.1121  0.0282
  272MOL0     C36614   0.929   3.691   5.823 -0.0500  0.1988 -0.3947
  272MOL0     O36615   0.888   3.807   5.880 -0.1641 -0.1902  0.0272
  272MOL0     C36616   0.761   3.862   5.854  0.4231 -0.1045 -0.0274
  272MOL0     C36617   0.710   3.947   5.946 -1.1080 -0.0489  0.3333
  272MOL0     C36618   0.602   4.032   5.920 -0.6887 -0.1629  0.0475
  272MOL0     C36619   0.543   4.035   5.791 -0.3153  0.3627 -0.0740
  272MOL0     O36620   0.445   4.130   5.768  0.7725 -0.4695  1.0633
  272MOL0     C36621   0.337   4.096   5.682  0.0437  0.7931 -0.3424
  272MOL0     C36622   0.207   4.147   5.741 -0.5757 -0.5786 -0.4288
  272MOL0     C36623   0.166   4.080   5.870  0.6512 -0.6471 -0.3185
  272MOL0     C36624   0.031   4.149   5.911  0.7281 -0.1076 -0.1140
  272MOL0     C36625  -0.018   4.069   6.034 -0.1811  0.2101  0.1499
  272MOL0     C36626  -0.088   4.166   6.130  0.0507 -0.6142 -0.0479
  272MOL0     C36627  -0.123   4.091   6.258 -0.1738  1.1216  0.2786
  272MOL0     C36628  -0.209   4.160   6.355  0.4622 -0.4960  0.9168
  272MOL0    Cl36629  -0.371   4.206   6.287  0.1948 -0.1043  0.0136
  272MOL0     C36630   0.594   3.938   5.703 -0.9752 -0.3383  0.3022
  272MOL0     C36631   0.703   3.851   5.731  0.3163 -0.0436  0.2311
  272MOL0     O36632   0.857   3.613   5.763  0.0384  0.1494  0.4790
  272MOL0     C36633   1.119   3.529   5.845  0.4927  0.4012  0.3391
  272MOL0     C36634   1.249   3.496   5.892  0.7013  0.2918  0.5445
  272MOL0     N36635   1.997   3.751   6.261 -0.0786  0.3597 -0.6519
  272MOL0     N36636   2.037   3.772   6.383 -0.2486  0.0862 -0.2993
  272MOL0     C36637   1.867   2.821   7.050  0.0031  0.3738 -0.3030
  272MOL0     C36638   1.754   2.744   7.081  0.0821  0.0470  0.2821
  272MOL0     C36639   1.505   2.383   7.241 -0.9529  0.1546 -0.7438
  272MOL0     C36640   1.508   2.267   7.330  0.4979  0.7102 -0.1280
  272MOL0     C36641   1.395   2.201   7.382 -1.5406  0.2095 -0.9762
  272MOL0     C36642   1.270   2.241   7.335  0.5167 -0.3432  0.8352
  272MOL0     O36643   1.164   2.172   7.375 -0.3152  0.4820 -0.3172
  272MOL0     C36644   1.037   2.218   7.343 -0.4746  0.0615  1.0576
  272MOL0     C36645   0.934   2.134   7.432  0.5445 -0.3429 -0.0516
  272MOL0     C36646   0.778   2.159   7.400 -0.3202  1.0126 -0.3450
  272MOL0     C36647   0.674   2.113   7.512 -0.5395 -0.4127  0.0693
  272MOL0     C36648   0.533   2.158   7.482 -0.1163  0.0227 -0.1497
  272MOL0     C36649   0.415   2.187   7.460  0.3750  0.0639  0.5285
  272MOL0     C36650   1.268   2.349   7.241 -1.0917  0.9113  0.9585
  272MOL0     C36651   1.379   2.426   7.199  0.4760 -0.6494  1.1747
  272MOL0     C36652   1.355   2.540   7.106  0.5079 -0.3019 -0.5587
  272MOL0     H36653   1.853   2.433   7.004  3.5907 -0.1025 -1.2928
  272MOL0     H36654   2.062   2.555   6.939 -0.8585 -0.9557 -1.9720
  272MOL0     H36655   2.114   3.016   7.041  0.4581 -0.7352  0.4057
  272MOL0     H36656   2.212   2.989   6.890 -1.1182 -0.0921 -2.8430
  272MOL0     H36657   1.917   3.017   6.868  0.3194 -2.2322 -0.6706
  272MOL0     H36658   2.039   2.979   6.747 -2.1147  0.2465 -0.6102
  272MOL0     H36659   2.055   3.233   6.925 -2.2360  0.3249  0.2350
  272MOL0     H36660   1.957   3.225   6.784  1.1707  0.0946  0.5458
  272MOL0     H36661   2.273   3.180   6.789  0.9053  1.1872 -0.7202
  272MOL0     H36662   2.152   3.174   6.645 -0.6783  2.1392  0.2416
  272MOL0     H36663   2.209   3.413   6.836  0.8440 -2.0960  0.2190
  272MOL0     H36664   2.305   3.380   6.710  0.2712 -1.0679  0.8899
  272MOL0     H36665   2.095   3.414   6.546  2.8942  0.2138 -0.7511
  272MOL0     H36666   1.995   3.434   6.694  0.8476  2.0380  2.1907
  272MOL0     H36667   2.212   3.601   6.587  0.4299 -3.8291 -2.3249
  272MOL0     H36668   2.149   3.626   6.752 -1.5727 -3.0098  1.1892
  272MOL0     H36669   1.903   3.674   6.642  0.4923  0.1877 -0.4151
  272MOL0     H36670   2.029   3.786   6.629 -1.0285 -0.2203  0.0926
  272MOL0     H36671   1.858   3.499   6.425 -0.5249  2.3033  2.6431
  272MOL0     H36672   1.900   3.621   6.044 -1.4522  0.3161 -0.1997
  272MOL0     H36673   1.915   3.459   6.099 -0.9486 -0.4758 -2.5898
  272MOL0     H36674   1.704   3.461   6.209  0.0598 -0.2391 -0.1523
  272MOL0     H36675   1.680   3.634   6.156  0.4238  0.5029 -1.4556
  272MOL0     H36676   1.740   3.408   5.957  0.1166  2.0793 -4.8051
  272MOL0     H36677   1.707   3.587   5.936  1.3774 -1.2202 -2.3927
  272MOL0     H36678   1.504   3.374   6.028  1.7232 -0.6259  0.4406
  272MOL0     H36679   1.504   3.458   5.870  0.1000  0.7542  0.1476
  272MOL0     H36680   1.326   3.785   6.042  2.0737 -0.1634 -1.1095
  272MOL0     H36681   1.105   3.851   5.926  2.0804  0.2572  1.0082
  272MOL0     H36682   0.769   3.952   6.037  1.6242 -2.2872 -1.1436
  272MOL0     H36683   0.571   4.109   5.991  2.1153 -0.0321  1.2700
  272MOL0     H36684   0.358   4.137   5.582 -4.2042  1.3407 -1.1820
  272MOL0     H36685   0.318   3.991   5.662  0.2691  0.6439  0.2230
  272MOL0     H36686   0.206   4.256   5.756 -0.9116 -0.7188  0.6954
  272MOL0     H36687   0.138   4.132   5.657  0.5222  0.7008 -1.6073
  272MOL0     H36688   0.145   3.974   5.852 -0.0456 -0.4290 -0.8771
  272MOL0     H36689   0.241   4.092   5.948  1.2718  0.6358 -1.0686
  272MOL0     H36690  -0.042   4.133   5.831  0.4084  0.2121  0.1111
  272MOL0     H36691   0.038   4.257   5.927  1.1666  0.2913 -2.5329
  272MOL0     H36692   0.063   4.017   6.087  1.7323  1.3946 -1.4475
  272MOL0     H36693  -0.087   3.994   5.996  0.4530 -1.0797  1.4667
  272MOL0     H36694  -0.029   4.248   6.171  2.9958 -2.7436  0.2987
  272MOL0     H36695  -0.180   4.195   6.077  0.7867 -0.2068 -1.1262
  272MOL0     H36696  -0.027   4.070   6.306  0.8423 -1.1711 -2.4914
  272MOL0     H36697  -0.172   3.998   6.229  0.9964 -0.3049  2.6071
  272MOL0     H36698  -0.228   4.098   6.443  0.1928  0.1578  1.3335
  272MOL0     H36699  -0.169   4.259   6.382  3.8342 -1.0422 -1.4713
  272MOL0     H36700   0.550   3.943   5.604 -0.6680  1.7328  0.2249
  272MOL0     H36701   0.737   3.784   5.654  0.5246  1.1674 -0.7666
  272MOL0     H36702   1.060   3.451   5.797  0.9846  0.1226  0.1792
  272MOL0     H36703   1.271   3.393   5.865 -1.4358  0.1147 -0.7311
  272MOL0     H36704   1.850   2.926   7.074  1.4236 -0.0209  2.9373
  272MOL0     H36705   1.660   2.785   7.116 -1.3124 -2.2295 -0.6121
  272MOL0     H36706   1.607   2.229   7.353  1.3105  0.4258 -3.6204
  272MOL0     H36707   1.418   2.121   7.451  2.8153 -0.1470 -2.5733
  272MOL0     H36708   1.028   2.215   7.234  4.4676  1.5083  0.3978
  272MOL0     H36709   1.028   2.325   7.362 -0.8711  0.3484 -0.6018
  272MOL0     H36710   0.958   2.160   7.535  3.5947 -0.7008 -0.5989
  272MOL0     H36711   0.943   2.025   7.431 -1.3378 -0.5419 -1.7001
  272MOL0     H36712   0.762   2.105   7.306 -0.0214  0.3911 -0.0416
  272MOL0     H36713   0.762   2.266   7.387 -1.6662  1.0219  1.0808
  272MOL0     H36714   0.687   2.005   7.526  3.1967 -0.2968 -1.4045
  272MOL0     H36715   0.701   2.171   7.601  0.3742  1.2280 -1.2114
  272MOL0     H36716   0.312   2.208   7.438 -0.7198 -0.7717  4.1940
  272MOL0     H36717   1.173   2.386   7.202 -0.0273  2.1163 -0.6457
  272MOL0     H36718   1.388   2.504   7.008  1.4703 -1.8742  0.3010
  272MOL0     H36719   1.249   2.565   7.102 -0.1614 -2.9906 -1.5083
  272MOL0     H36720   1.409   2.629   7.139  1.5881 -2.0009  2.5866
  273MOL0     O36721   1.034   8.180   1.344 -0.0918 -0.1379  0.5339
  273MOL0     C36722   1.025   8.133   1.456  1.3256  0.4200  0.3666
  273MOL0     O36723   1.126   8.127   1.546 -0.1427 -0.3080  0.4558
  273MOL0     C36724   1.255   8.157   1.509 -0.4078 -0.1837  0.4445
  273MOL0     C36725   1.277   8.287   1.451  0.7711 -0.4088 -0.3813
  273MOL0     C36726   1.402   8.318   1.413  0.3550 -0.6844  0.0907
  273MOL0     C36727   1.515   8.230   1.431  1.1983 -0.5111  0.7973
  273MOL0     O36728   1.642   8.269   1.408 -0.7686  0.3302 -0.6669
  273MOL0     C36729   1.666   8.342   1.285  0.0083 -0.4120 -0.9381
  273MOL0     C36730   1.810   8.376   1.270 -0.7298 -0.3583 -0.0364
  273MOL0     C36731   1.855   8.441   1.137  0.0559 -0.5708  0.1055
  273MOL0     C36732   1.847   8.359   1.011 -0.4578  0.3576 -0.6854
  273MOL0     C36733   1.895   8.431   0.886  0.2168 -0.9367 -0.3582
  273MOL0     C36734   2.041   8.463   0.883 -0.3974  0.3839  0.5030
  273MOL0     C36735   2.074   8.491   0.736 -0.8585 -0.1514 -0.7046
  273MOL0     C36736   2.009   8.620   0.673  0.8687 -1.1157  0.7753
  273MOL0     N36737   2.044   8.649   0.538  0.4477  0.2960 -1.3713
  273MOL0     C36738   2.158   8.710   0.508  0.3550 -0.5974 -0.3893
  273MOL0     C36739   2.171   8.683   0.374  0.5741  0.3642 -0.9034
  273MOL0     C36740   2.283   8.727   0.283  0.3017  0.2661  0.1472
  273MOL0     C36741   2.230   8.761   0.143 -0.1155 -0.2527  0.2092
  273MOL0     C36742   2.315   8.860   0.068  0.6535 -0.3731  0.1029
  273MOL0     C36743   2.286   8.850  -0.088 -0.2393  0.0990 -0.2296
  273MOL0     O36744   2.367   8.952  -0.155  0.0882 -0.3920 -0.8872
  273MOL0     C36745   2.449   8.911  -0.254 -0.8759 -0.3102  0.0219
  273MOL0     C36746   2.421   8.816  -0.345  0.6657  0.6382  0.1278
  273MOL0     C36747   2.507   8.783  -0.443  0.4011 -0.4384  0.3262
  273MOL0     C36748   2.615   8.862  -0.467 -0.0291 -0.8329  0.0501
  273MOL0     C36749   2.696   8.846  -0.590 -0.3582  0.7296  0.4123
  273MOL0     O36750   2.782   8.947  -0.629 -0.1129  0.1297 -0.4207
  273MOL0     C36751   2.883   8.911  -0.718 -0.2025  1.0192  0.1319
  273MOL0     C36752   3.022   8.913  -0.684  0.0233 -0.0280  0.3374
  273MOL0     C36753   3.117   8.873  -0.780  0.5126  0.4354  0.0261
  273MOL0     C36754   3.078   8.848  -0.912 -0.2353  0.1348  0.4457
  273MOL0     O36755   3.188   8.806  -0.990 -0.2044  0.0010 -0.3331
  273MOL0     C36756   3.148   8.741  -1.110 -0.9907  0.6837  0.0153
  273MOL0     C36757   3.133   8.835  -1.232 -0.3658 -0.6455 -0.5775
  273MOL0     C36758   3.274   8.842  -1.299 -0.2405  0.6635 -0.3162
  273MOL0     C36759   3.287   8.924  -1.427  0.5000  0.1167 -1.0351
  273MOL0     C36760   3.435   8.953  -1.458  0.2389  0.8181  0.1107
  273MOL0     C36761   3.455   9.013  -1.591  0.6182 -0.1156 -0.1186
  273MOL0     C36762   3.580   8.959  -1.659  0.3566 -1.1008  0.3283
  273MOL0     C36763   3.586   8.999  -1.807  0.0533 -0.0601  1.1372
  273MOL0    Cl36764   3.716   8.903  -1.877 -0.3386 -0.1463 -0.3701
  273MOL0     C36765   2.945   8.866  -0.950 -0.8077 -0.7559 -0.3090
  273MOL0     C36766   2.848   8.896  -0.852  0.1781 -0.9009  0.5622
  273MOL0     O36767   2.672   8.744  -0.651 -0.1826 -0.3039  0.7427
  273MOL0     C36768   2.659   8.947  -0.370 -0.1265 -0.0149 -0.1815
  273MOL0     C36769   2.575   8.975  -0.268  0.4806  0.8013 -0.5292
  273MOL0     N36770   2.073   8.593   0.333  0.0956 -0.5392 -0.3846
  273MOL0     N36771   1.988   8.583   0.436 -0.4596  0.6298  0.1710
  273MOL0     C36772   1.488   8.106   1.489  0.2809  0.1512 -0.0313
  273MOL0     C36773   1.361   8.076   1.539 -0.1070 -0.1254 -0.1941
  273MOL0     C36774   0.897   8.070   1.492  0.1010  0.6125 -0.2977
  273MOL0     C36775   0.850   8.111   1.619  0.8874 -0.2862 -1.0743
  273MOL0     C36776   0.723   8.076   1.654  0.4533 -0.5428 -0.3105
  273MOL0     C36777   0.646   7.985   1.575 -0.2018 -1.3389 -0.2492
  273MOL0     O36778   0.521   7.937   1.611 -0.0651  0.4229 -1.1815
  273MOL0     C36779   0.477   7.965   1.749 -0.3421 -0.8032  1.1301
  273MOL0     C36780   0.366   7.866   1.790  0.3756  0.0003  0.6633
  273MOL0     C36781   0.297   7.908   1.919 -0.2828 -0.2342 -0.0258
  273MOL0     C36782   0.231   7.785   1.979 -0.7779 -0.0208  0.6706
  273MOL0     C36783   0.166   7.814   2.102  0.6421  0.1026  0.4456
  273MOL0     C36784   0.119   7.827   2.219  0.4717  0.1517  0.3370
  273MOL0     C36785   0.697   7.934   1.454  0.7128 -1.2465 -0.0128
  273MOL0     C36786   0.816   7.990   1.401  0.2459 -0.2976 -0.4984
  273MOL0     C36787   0.862   7.943   1.260 -0.3654  0.0694 -0.5658
  273MOL0     H36788   1.197   8.359   1.441 -0.5956 -1.7628  0.3520
  273MOL0     H36789   1.428   8.423   1.399  1.0957 -0.1014  4.5404
  273MOL0     H36790   1.643   8.283   1.196  2.5537  1.0835 -2.7032
  273MOL0     H36791   1.627   8.444   1.284  1.7166  0.4176  2.6723
  273MOL0     H36792   1.865   8.283   1.290 -0.5244 -0.2982 -0.3045
  273MOL0     H36793   1.823   8.455   1.344 -1.4601 -2.4782  2.5073
  273MOL0     H36794   1.952   8.490   1.155 -0.7958  1.2263 -0.0084
  273MOL0     H36795   1.787   8.525   1.123 -0.2581 -1.0150 -1.1076
  273MOL0     H36796   1.898   8.264   1.030 -1.5559 -0.0970  0.1173
  273MOL0     H36797   1.740   8.335   1.004 -0.5118 -0.5189  1.8218
  273MOL0     H36798   1.847   8.388   0.798 -2.5775  0.6698  0.2403
  273MOL0     H36799   1.839   8.525   0.886 -0.6844 -1.4579 -1.8673
  273MOL0     H36800   2.064   8.552   0.943 -1.6496  0.6275  0.6534
  273MOL0     H36801   2.089   8.379   0.933 -3.9429 -1.3862  1.2848
  273MOL0     H36802   2.022   8.418   0.674 -1.5003  0.2275 -0.6231
  273MOL0     H36803   2.182   8.488   0.719 -0.6200  0.9722  0.4199
  273MOL0     H36804   1.902   8.640   0.687  0.9738  0.4708 -0.3859
  273MOL0     H36805   2.052   8.701   0.734 -1.4895  0.0897  0.9859
  273MOL0     H36806   2.218   8.767   0.577 -0.3534 -0.5126  0.1686
  273MOL0     H36807   2.325   8.819   0.326  1.1405 -0.1744  0.2964
  273MOL0     H36808   2.371   8.663   0.276  0.4343  0.5442 -0.8293
  273MOL0     H36809   2.224   8.666   0.089  0.5261  0.7693 -1.7896
  273MOL0     H36810   2.130   8.805   0.139  0.5814  1.3793  0.0523
  273MOL0     H36811   2.420   8.835   0.086  1.4711  0.3498 -3.0606
  273MOL0     H36812   2.306   8.968   0.086 -1.4205 -0.5710  0.5129
  273MOL0     H36813   2.183   8.879  -0.107  0.1503  1.8431  0.1538
  273MOL0     H36814   2.303   8.753  -0.135 -1.9252 -1.3809  1.9904
  273MOL0     H36815   2.332   8.753  -0.342  1.9098 -1.1601  0.8050
  273MOL0     H36816   2.495   8.697  -0.509 -1.9964 -0.9040  1.2491
  273MOL0     H36817   3.049   8.936  -0.581 -0.9134  0.1315  0.5509
  273MOL0     H36818   3.222   8.861  -0.753  0.2091 -0.5793  0.8299
  273MOL0     H36819   3.228   8.668  -1.128 -1.3517  0.6889 -1.7911
  273MOL0     H36820   3.059   8.680  -1.093 -0.5422 -0.1207 -0.4313
  273MOL0     H36821   3.059   8.794  -1.300 -2.3799  3.1188 -0.9395
  273MOL0     H36822   3.096   8.933  -1.200  1.2089 -1.1275  3.3507
  273MOL0     H36823   3.342   8.894  -1.231  0.5368  0.9963 -1.3154
  273MOL0     H36824   3.323   8.745  -1.315  2.3122  2.0335 -1.4968
  273MOL0     H36825   3.226   9.013  -1.408 -0.5425 -1.2362  2.8890
  273MOL0     H36826   3.236   8.865  -1.503 -4.1906  0.8330  1.2224
  273MOL0     H36827   3.491   8.861  -1.446  0.0720  0.9151  1.8306
  273MOL0     H36828   3.480   9.030  -1.394  1.2504  2.5522 -2.5025
  273MOL0     H36829   3.365   8.999  -1.651 -0.0561  0.3269  0.7628
  273MOL0     H36830   3.466   9.122  -1.595 -1.5439  0.0919 -2.3407
  273MOL0     H36831   3.583   8.850  -1.660  2.2639 -1.1041 -1.8981
  273MOL0     H36832   3.668   9.005  -1.613 -0.7881  1.0844  0.4789
  273MOL0     H36833   3.496   8.984  -1.866  1.8141 -1.5059 -1.3874
  273MOL0     H36834   3.611   9.105  -1.820 -0.8017 -0.2077 -4.0073
  273MOL0     H36835   2.929   8.851  -1.056  1.5152 -4.9720 -0.2922
  273MOL0     H36836   2.743   8.894  -0.879  0.6010  2.1590 -1.9503
  273MOL0     H36837   2.745   9.011  -0.389  0.0028 -0.2759 -0.4713
  273MOL0     H36838   2.597   9.056  -0.199  1.3927  2.0016 -2.1652
  273MOL0     H36839   1.565   8.029   1.489 -0.7365 -0.9495 -2.0805
  273MOL0     H36840   1.337   7.984   1.593 -0.6032 -0.3289 -0.7503
  273MOL0     H36841   0.916   8.169   1.683  0.8465  3.1234 -3.8129
  273MOL0     H36842   0.677   8.104   1.748 -0.6847 -0.6313 -0.8247
  273MOL0     H36843   0.444   8.069   1.757  1.6460 -0.0060 -0.0434
  273MOL0     H36844   0.550   7.958   1.830 -0.6004 -1.3130  1.3240
  273MOL0     H36845   0.391   7.760   1.797 -2.3423 -0.9698 -2.1422
  273MOL0     H36846   0.300   7.866   1.703  4.3510  0.5182 -2.6702
  273MOL0     H36847   0.240   7.997   1.889  0.8536  0.6138  0.2647
  273MOL0     H36848   0.375   7.937   1.990  1.1579 -1.4307 -1.0767
  273MOL0     H36849   0.157   7.746   1.909 -0.2328 -1.8512  1.0629
  273MOL0     H36850   0.305   7.707   1.999 -3.3798 -2.6977  0.5526
  273MOL0     H36851   0.068   7.829   2.314 -1.5967 -2.2679 -0.6117
  273MOL0     H36852   0.638   7.867   1.393 -0.7343 -0.2260  0.2145
  273MOL0     H36853   0.813   7.853   1.224  0.4664  0.7921 -3.8898
  273MOL0     H36854   0.846   8.018   1.182  0.8285  0.4192 -0.4926
  273MOL0     H36855   0.970   7.927   1.261 -0.1644  1.1964  1.7840
  274MOL0     O36856   6.189   9.533   2.448 -0.1963 -0.3188  0.3003
  274MOL0     C36857   6.108   9.527   2.356 -0.2073  0.0403 -1.0871
  274MOL0     O36858   6.139   9.509   2.226  0.2878  0.3526  0.0456
  274MOL0     C36859   6.276   9.496   2.202 -0.0006 -0.4932 -0.0954
  274MOL0     C36860   6.363   9.608   2.211 -0.3384 -0.1024  0.2563
  274MOL0     C36861   6.495   9.583   2.189 -0.0437  0.0695 -0.8590
  274MOL0     C36862   6.551   9.463   2.165  0.1645 -0.4408 -0.2037
  274MOL0     O36863   6.690   9.452   2.157  0.6247  0.5949  0.2125
  274MOL0     C36864   6.748   9.321   2.135  0.3508 -0.6553 -1.4381
  274MOL0     C36865   6.757   9.288   1.989  0.1327 -0.1613  0.3254
  274MOL0     C36866   6.890   9.340   1.929 -0.0505 -0.7738  0.5891
  274MOL0     C36867   6.887   9.307   1.781 -0.7238  0.0136  0.1392
  274MOL0     C36868   7.028   9.333   1.721  0.1087 -0.3195 -0.4373
  274MOL0     C36869   7.026   9.334   1.564 -0.8862 -0.3405  0.4855
  274MOL0     C36870   7.163   9.400   1.520 -0.3103  0.5090  0.4173
  274MOL0     C36871   7.188   9.416   1.368  0.7234 -0.4737  0.2271
  274MOL0     N36872   7.329   9.431   1.339  0.4903 -0.3043  0.6689
  274MOL0     C36873   7.422   9.336   1.303 -0.6160  0.1921  0.5132
  274MOL0     C36874   7.539   9.398   1.275 -0.4333 -0.0674  0.4184
  274MOL0     C36875   7.660   9.326   1.228  0.3286  0.0936  1.0663
  274MOL0     C36876   7.774   9.322   1.328 -0.1344 -0.2423 -0.1954
  274MOL0     C36877   7.902   9.260   1.265  0.1831  0.5626 -0.1951
  274MOL0     C36878   7.891   9.105   1.244 -0.7120 -0.4861 -0.2742
  274MOL0     O36879   7.994   9.064   1.149 -0.3655  0.2757  0.2546
  274MOL0     C36880   8.128   9.050   1.177  0.8722  0.2787  1.1847
  274MOL0     C36881   8.187   9.074   1.303  0.0988  0.4401  0.5789
  274MOL0     C36882   8.327   9.068   1.324 -0.4336 -0.3321  0.5729
  274MOL0     C36883   8.409   9.020   1.213  0.5605  0.4250  0.3994
  274MOL0     C36884   8.555   9.001   1.232 -0.5309 -0.3398  1.0044
  274MOL0     O36885   8.636   8.947   1.128  0.2903 -0.0213  0.4053
  274MOL0     C36886   8.768   8.949   1.152  0.1516  0.6713  0.1978
  274MOL0     C36887   8.830   8.880   1.253 -0.9293 -0.2886 -0.1510
  274MOL0     C36888   8.966   8.894   1.273  0.2495 -0.3805 -0.3665
  274MOL0     C36889   9.036   8.991   1.199  0.3833 -0.3232 -0.4707
  274MOL0     O36890   9.167   9.001   1.228 -0.3854 -0.2542 -1.1458
  274MOL0     C36891   9.203   9.110   1.308 -0.0167 -0.4601 -0.2929
  274MOL0     C36892   9.357   9.119   1.326 -0.5470  0.7521  0.3949
  274MOL0     C36893   9.426   8.996   1.380  0.8366  1.2625 -0.1945
  274MOL0     C36894   9.578   9.019   1.377 -0.7066  0.0026  0.0221
  274MOL0     C36895   9.656   8.904   1.434 -0.4435 -0.4230 -0.3474
  274MOL0     C36896   9.810   8.927   1.446 -0.1866  0.3991  0.3270
  274MOL0     C36897   9.848   9.064   1.500  0.4781  0.8821 -0.1908
  274MOL0     C36898  10.002   9.069   1.542  0.4703 -0.3085  0.2916
  274MOL0    Cl36899  10.103   9.123   1.404 -0.2448  0.0131  0.0460
  274MOL0     C36900   8.978   9.061   1.096 -0.0574 -0.2670 -0.9798
  274MOL0     C36901   8.839   9.037   1.077 -0.8346 -0.0226  0.1733
  274MOL0     O36902   8.600   9.037   1.341 -0.0985  0.3911  0.1541
  274MOL0     C36903   8.349   9.013   1.087 -0.4050 -1.4771  0.5380
  274MOL0     C36904   8.212   9.029   1.071  0.3902 -0.2184  0.4151
  274MOL0     N36905   7.508   9.530   1.295 -0.6398  0.8152  0.3950
  274MOL0     N36906   7.381   9.554   1.323  0.2033 -0.6104 -0.0460
  274MOL0     C36907   6.466   9.345   2.152 -0.4574  0.3288  0.1751
  274MOL0     C36908   6.330   9.371   2.177 -0.2227  1.0052  0.6963
  274MOL0     C36909   5.962   9.540   2.392 -0.1468  0.2260 -1.1719
  274MOL0     C36910   5.877   9.554   2.285 -0.1466 -0.1555  0.0254
  274MOL0     C36911   5.741   9.572   2.301  0.2512  0.0977 -0.0135
  274MOL0     C36912   5.687   9.562   2.434  0.0369  0.5269  0.6256
  274MOL0     O36913   5.548   9.554   2.449  0.1708  0.3528  0.9976
  274MOL0     C36914   5.464   9.551   2.320 -0.4378 -0.9475  0.3677
  274MOL0     C36915   5.326   9.533   2.378  0.3223  0.2945 -0.0384
  274MOL0     C36916   5.217   9.580   2.281  0.7478 -0.3621  0.3218
  274MOL0     C36917   5.224   9.511   2.144 -0.1173  0.0416 -0.6370
  274MOL0     C36918   5.102   9.540   2.062  0.6261 -0.2641  0.1603
  274MOL0     C36919   5.000   9.558   1.998  0.6427  0.9359 -0.2972
  274MOL0     C36920   5.771   9.552   2.544 -0.2291  0.8515 -0.3180
  274MOL0     C36921   5.910   9.542   2.528 -0.8810  1.6130  0.6695
  274MOL0     C36922   5.991   9.517   2.657 -0.2298  0.1781  0.3893
  274MOL0     H36923   6.319   9.705   2.230 -3.0392 -0.8800 -1.4674
  274MOL0     H36924   6.569   9.657   2.218 -1.1720  1.5492 -1.6026
  274MOL0     H36925   6.848   9.324   2.178 -0.0878 -2.7509 -0.1904
  274MOL0     H36926   6.701   9.249   2.203  1.2263  0.4886  0.4647
  274MOL0     H36927   6.667   9.336   1.950  0.1244 -0.4464 -0.0121
  274MOL0     H36928   6.745   9.180   1.979  2.0542 -0.3319 -0.5872
  274MOL0     H36929   6.961   9.274   1.979  0.0273 -1.8902 -0.9003
  274MOL0     H36930   6.910   9.446   1.943  2.2430 -1.3376  2.0211
  274MOL0     H36931   6.860   9.201   1.774  1.3509 -0.8606  3.3889
  274MOL0     H36932   6.809   9.367   1.732 -0.6455 -1.1124 -1.4850
  274MOL0     H36933   7.057   9.435   1.748 -0.1756 -0.2373 -0.4411
  274MOL0     H36934   7.101   9.266   1.767  2.3576  2.1084 -0.2665
  274MOL0     H36935   7.011   9.230   1.534 -0.0163  0.1671 -1.9281
  274MOL0     H36936   6.948   9.398   1.522 -1.6421 -1.9882 -0.7390
  274MOL0     H36937   7.244   9.337   1.558 -0.3075  1.3375  1.8921
  274MOL0     H36938   7.172   9.499   1.567 -0.3661  0.5584  0.3250
  274MOL0     H36939   7.160   9.317   1.332 -0.8502  0.8255 -2.4297
  274MOL0     H36940   7.142   9.503   1.320  2.9094  2.6608  3.3719
  274MOL0     H36941   7.393   9.232   1.292  0.6104 -0.2084  0.8878
  274MOL0     H36942   7.631   9.225   1.198  0.6289  0.0380  0.9586
  274MOL0     H36943   7.704   9.369   1.138 -0.3750 -0.5948  0.3841
  274MOL0     H36944   7.785   9.428   1.352 -2.0016  0.3800 -1.8304
  274MOL0     H36945   7.760   9.265   1.420  0.2885  0.3602  0.2438
  274MOL0     H36946   7.986   9.281   1.332  0.8257 -0.2082 -0.7537
  274MOL0     H36947   7.940   9.304   1.172  0.4181 -0.9755 -0.8523
  274MOL0     H36948   7.795   9.087   1.195 -0.4594  1.6485 -1.7171
  274MOL0     H36949   7.907   9.037   1.328 -0.4745 -2.7367 -2.0457
  274MOL0     H36950   8.124   9.106   1.385 -2.0611  1.4134 -1.3626
  274MOL0     H36951   8.363   9.072   1.426  1.8581  1.1482 -0.2208
  274MOL0     H36952   8.776   8.803   1.307 -0.0961 -2.1813 -1.8687
  274MOL0     H36953   9.014   8.845   1.357 -2.1923 -0.3148  1.1628
  274MOL0     H36954   9.163   9.204   1.271 -0.8232 -0.7878 -0.2830
  274MOL0     H36955   9.160   9.096   1.407  1.5412  0.0219  0.4895
  274MOL0     H36956   9.399   9.137   1.227 -0.9569  3.0285  0.5779
  274MOL0     H36957   9.374   9.203   1.394  2.5361 -0.7599  1.6755
  274MOL0     H36958   9.388   8.970   1.479  0.4669 -0.5405 -0.7618
  274MOL0     H36959   9.393   8.910   1.320 -0.6227  1.1832  0.6620
  274MOL0     H36960   9.599   9.113   1.430 -0.9896  0.6921 -1.0728
  274MOL0     H36961   9.616   9.031   1.275  0.4988 -1.3897  0.2663
  274MOL0     H36962   9.645   8.814   1.373 -0.9301 -1.5046  1.2565
  274MOL0     H36963   9.620   8.883   1.535 -1.9712  0.2908 -0.7079
  274MOL0     H36964   9.861   8.845   1.496 -0.2350 -1.5581 -2.5575
  274MOL0     H36965   9.851   8.911   1.346  0.6219 -0.4189  0.7767
  274MOL0     H36966   9.789   9.082   1.590 -1.1281 -2.3249 -0.4590
  274MOL0     H36967   9.819   9.143   1.429  2.0383  4.2211  2.6060
  274MOL0     H36968  10.009   9.153   1.612 -1.1708  1.4886 -1.5376
  274MOL0     H36969  10.031   8.974   1.587 -0.4526 -1.1133 -0.7522
  274MOL0     H36970   9.052   9.112   1.034  0.7668 -0.3898 -0.1243
  274MOL0     H36971   8.791   9.088   0.994 -1.1908 -1.7451 -0.7337
  274MOL0     H36972   8.413   9.005   1.000 -1.3609 -1.3440 -0.1862
  274MOL0     H36973   8.159   9.012   0.977  1.5119 -2.1450  0.0792
  274MOL0     H36974   6.505   9.251   2.115 -2.6436 -0.0602 -1.3110
  274MOL0     H36975   6.264   9.286   2.164  1.0846  0.4144 -3.5175
  274MOL0     H36976   5.909   9.548   2.181  1.9352  4.2066  0.1786
  274MOL0     H36977   5.689   9.577   2.206  2.6605  1.4567 -1.3636
  274MOL0     H36978   5.496   9.468   2.255 -1.0129 -1.6938  1.0165
  274MOL0     H36979   5.475   9.646   2.267  3.6649 -0.1885  2.1353
  274MOL0     H36980   5.316   9.586   2.473  1.5232 -0.9649  0.8316
  274MOL0     H36981   5.311   9.425   2.384 -1.0736  0.3318 -1.9980
  274MOL0     H36982   5.209   9.688   2.266 -1.7833 -0.2848  1.7391
  274MOL0     H36983   5.121   9.557   2.329  2.6328  0.7714  5.2152
  274MOL0     H36984   5.313   9.540   2.087 -1.6202  4.1951 -1.2082
  274MOL0     H36985   5.237   9.404   2.163  0.3636 -0.0638 -1.5096
  274MOL0     H36986   4.905   9.586   1.957 -0.9097 -2.3269  0.7852
  274MOL0     H36987   5.721   9.538   2.639  2.1727  0.4625  0.9433
  274MOL0     H36988   6.070   9.592   2.660 -1.2712  1.2929  1.0574
  274MOL0     H36989   5.929   9.530   2.747 -1.2481 -2.3840  0.1505
  274MOL0     H36990   6.032   9.415   2.660 -0.3362  0.1437  0.6958
  275MOL0     O36991   7.978   3.319   4.470 -0.5534  0.2663 -0.5044
  275MOL0     C36992   7.948   3.341   4.352  0.3847  0.1271 -0.1205
  275MOL0     O36993   8.026   3.417   4.272 -0.1322 -0.8308  0.5221
  275MOL0     C36994   8.144   3.481   4.309 -0.0483  1.2472  0.0291
  275MOL0     C36995   8.263   3.433   4.263 -0.2331  0.2393  0.0938
  275MOL0     C36996   8.390   3.486   4.306  0.2259 -0.9074  0.5092
  275MOL0     C36997   8.387   3.576   4.420 -0.3039 -0.0822 -0.3489
  275MOL0     O36998   8.504   3.624   4.462 -0.0395  0.2007 -0.3646
  275MOL0     C36999   8.524   3.603   4.600  0.2792  0.0246  1.0492
  275MOL0     C37000   8.670   3.592   4.621 -0.2858 -0.8066  0.2907
  275MOL0     C37001   8.699   3.600   4.773  0.2003 -0.6155  0.7187
  275MOL0     C37002   8.842   3.577   4.801 -0.2123  0.7800  0.6133
  275MOL0     C37003   8.876   3.588   4.951 -0.6131  0.0248 -0.0504
  275MOL0     C37004   9.026   3.545   4.965 -0.3563  0.0006 -0.1872
  275MOL0     C37005   9.070   3.574   5.113 -0.5025  0.8075 -0.4614
  275MOL0     C37006   9.219   3.598   5.131  1.3303 -0.0665  0.3384
  275MOL0     N37007   9.272   3.730   5.088  0.3841  0.4157 -0.2983
  275MOL0     C37008   9.330   3.774   4.965 -0.0669  0.1650  1.0146
  275MOL0     C37009   9.348   3.906   4.972  0.3481  0.4115 -0.9149
  275MOL0     C37010   9.401   4.010   4.870  0.6003  0.2360 -0.2979
  275MOL0     C37011   9.548   3.986   4.831  0.3307  0.0262 -0.7360
  275MOL0     C37012   9.635   4.034   4.952 -0.1344 -0.0503  0.4427
  275MOL0     C37013   9.755   4.116   4.901 -0.3680  0.7228  0.0679
  275MOL0     O37014   9.854   4.046   4.816 -0.3726 -0.0188  0.8025
  275MOL0     C37015   9.985   4.085   4.794  0.1707  0.0249 -0.3353
  275MOL0     C37016  10.032   4.209   4.846  0.5131  0.0498  0.6282
  275MOL0     C37017  10.165   4.250   4.812  0.7800 -0.3622  0.4606
  275MOL0     C37018  10.243   4.166   4.726 -0.3419  0.5197  0.2574
  275MOL0     C37019  10.393   4.185   4.707 -0.6179  0.0161 -0.9724
  275MOL0     O37020  10.464   4.254   4.799  0.1216  0.4985 -0.5166
  275MOL0     C37021  10.592   4.287   4.798  0.1365  0.6662  0.7826
  275MOL0     C37022  10.671   4.276   4.913 -0.0391  0.0782  0.0841
  275MOL0     C37023  10.803   4.319   4.917  0.8967  0.8689 -0.3041
  275MOL0     C37024  10.863   4.381   4.809  0.4405 -1.3795  0.1438
  275MOL0     O37025  10.985   4.435   4.806  0.5977 -0.5717 -0.3842
  275MOL0     C37026  11.098   4.393   4.881 -0.5150  0.6868  0.6026
  275MOL0     C37027  11.202   4.397   4.777 -0.6206  0.0092  0.1337
  275MOL0     C37028  11.347   4.341   4.808 -0.0675  0.5345 -0.8874
  275MOL0     C37029  11.444   4.341   4.693 -0.6995  0.6311 -0.3106
  275MOL0     C37030  11.579   4.260   4.723  0.0560  0.0924  1.3315
  275MOL0     C37031  11.677   4.270   4.602  0.3527  0.0690  0.5672
  275MOL0     C37032  11.805   4.174   4.623 -0.4439  0.4721  0.4419
  275MOL0     C37033  11.909   4.191   4.513  0.5824 -0.4967  0.0484
  275MOL0    Cl37034  12.061   4.098   4.554 -0.1732 -0.5088  0.2702
  275MOL0     C37035  10.780   4.388   4.690  0.1554 -0.3354  0.3880
  275MOL0     C37036  10.645   4.338   4.685 -0.3879  0.1438 -0.1399
  275MOL0     O37037  10.446   4.146   4.605 -0.4459  0.2016  0.3992
  275MOL0     C37038  10.199   4.038   4.690 -0.0544  0.1107 -0.3358
  275MOL0     C37039  10.069   4.004   4.719 -0.1399 -0.7299  0.4577
  275MOL0     N37040   9.301   3.937   5.104  1.1644  0.7926  0.4604
  275MOL0     N37041   9.261   3.829   5.167  0.3929  0.0027 -0.6483
  275MOL0     C37042   8.260   3.631   4.459  0.7004 -0.5390  0.0815
  275MOL0     C37043   8.147   3.584   4.398  0.8064 -0.1816 -0.5256
  275MOL0     C37044   7.829   3.279   4.292  0.4249 -0.1263 -0.6404
  275MOL0     C37045   7.799   3.316   4.157 -0.7224 -0.5030  0.0285
  275MOL0     C37046   7.678   3.271   4.100 -0.5100 -0.1700 -0.1710
  275MOL0     C37047   7.599   3.176   4.163  0.1678 -0.7707 -0.4743
  275MOL0     O37048   7.480   3.119   4.111  0.3653  0.3800 -0.0310
  275MOL0     C37049   7.453   3.167   3.970  0.0452  0.0460 -0.1446
  275MOL0     C37050   7.338   3.080   3.911  0.0977 -0.2063  0.4976
  275MOL0     C37051   7.351   3.087   3.761  0.0406  0.0392  0.1944
  275MOL0     C37052   7.312   3.219   3.706  0.1641  0.5143  0.6443
  275MOL0     C37053   7.418   3.319   3.702  0.4661 -0.3805  0.5834
  275MOL0     C37054   7.515   3.386   3.697  0.5327 -1.1433 -0.7898
  275MOL0     C37055   7.641   3.131   4.293 -0.2976 -0.8830  0.5505
  275MOL0     C37056   7.742   3.189   4.359 -0.3945 -0.5420 -0.3970
  275MOL0     C37057   7.753   3.152   4.508  0.7615  0.4749  0.8121
  275MOL0     H37058   8.258   3.346   4.199  1.0225  1.1840 -1.3567
  275MOL0     H37059   8.490   3.456   4.276 -0.0377 -2.3609  0.9791
  275MOL0     H37060   8.475   3.680   4.660 -2.1222 -2.6189  2.7408
  275MOL0     H37061   8.480   3.510   4.637  2.2677 -0.8462  1.3790
  275MOL0     H37062   8.717   3.680   4.575 -0.7682  0.2431  1.7398
  275MOL0     H37063   8.708   3.496   4.584 -0.3580 -1.0192  0.7676
  275MOL0     H37064   8.621   3.539   4.819 -2.2428  2.4622  1.0412
  275MOL0     H37065   8.672   3.700   4.810  1.9348 -0.3805  1.4310
  275MOL0     H37066   8.869   3.482   4.754 -2.8426 -0.5458  1.5545
  275MOL0     H37067   8.900   3.652   4.746 -1.3743  2.1775  1.2398
  275MOL0     H37068   8.854   3.692   4.973 -0.5553  0.1515 -0.5823
  275MOL0     H37069   8.813   3.526   5.016 -2.6063  1.2625 -0.7160
  275MOL0     H37070   9.047   3.442   4.935  0.2577  0.9908 -3.6379
  275MOL0     H37071   9.076   3.607   4.890 -3.4462  1.0575 -1.5389
  275MOL0     H37072   9.044   3.484   5.171  2.5650 -0.6312 -1.1081
  275MOL0     H37073   9.006   3.655   5.150 -0.7150  0.1200  0.7301
  275MOL0     H37074   9.234   3.607   5.239 -0.1488  0.4439  0.5242
  275MOL0     H37075   9.273   3.515   5.085 -0.8422 -1.3454 -0.0467
  275MOL0     H37076   9.345   3.719   4.873  1.3891  3.6554 -1.0162
  275MOL0     H37077   9.340   4.006   4.780  1.2871  0.0065 -0.7631
  275MOL0     H37078   9.374   4.110   4.907  0.9455  0.4736 -0.6735
  275MOL0     H37079   9.570   3.879   4.823 -1.0575 -0.9593  4.6192
  275MOL0     H37080   9.574   4.029   4.734  0.6478 -1.7254 -1.4668
  275MOL0     H37081   9.676   3.949   5.006 -0.5060 -1.5847 -1.5724
  275MOL0     H37082   9.576   4.101   5.015 -0.2735  0.5723 -0.3242
  275MOL0     H37083   9.808   4.156   4.988  3.1823 -1.7725 -0.7209
  275MOL0     H37084   9.709   4.199   4.846 -0.0604  1.4249  0.8352
  275MOL0     H37085   9.965   4.279   4.895 -0.3333  2.1880 -3.1985
  275MOL0     H37086  10.207   4.335   4.866  4.1781 -1.1302 -0.6726
  275MOL0     H37087  10.621   4.237   5.000 -2.3176  1.4899 -0.5136
  275MOL0     H37088  10.858   4.320   5.011  2.3570 -2.7273 -0.9671
  275MOL0     H37089  11.127   4.461   4.962  1.9632  2.3839 -1.5825
  275MOL0     H37090  11.092   4.292   4.924  2.1065  0.3021  0.2404
  275MOL0     H37091  11.160   4.355   4.685  1.0189 -0.4926 -0.4240
  275MOL0     H37092  11.217   4.502   4.754 -1.2110 -0.6052 -3.6704
  275MOL0     H37093  11.397   4.394   4.889 -0.0817  0.0104 -0.5256
  275MOL0     H37094  11.338   4.239   4.848  2.7404  0.0570 -1.2659
  275MOL0     H37095  11.469   4.446   4.675  0.9161  0.1701 -0.9407
  275MOL0     H37096  11.396   4.308   4.600 -1.4073 -0.7244  0.4939
  275MOL0     H37097  11.552   4.155   4.735  0.6974 -0.3509 -0.6858
  275MOL0     H37098  11.628   4.289   4.817  2.0057 -6.8144  2.9844
  275MOL0     H37099  11.629   4.241   4.508  1.1092  0.5280  0.0267
  275MOL0     H37100  11.703   4.376   4.594 -0.7823  0.3692  0.6639
  275MOL0     H37101  11.779   4.067   4.622  0.3257  0.1970 -3.2096
  275MOL0     H37102  11.854   4.185   4.720  0.8324 -2.0373  0.1632
  275MOL0     H37103  11.868   4.154   4.418 -2.3733  1.1436  0.5601
  275MOL0     H37104  11.925   4.297   4.490  1.7995 -1.4869 -5.0612
  275MOL0     H37105  10.821   4.437   4.602 -0.5793 -0.7701 -0.2043
  275MOL0     H37106  10.588   4.348   4.593 -0.2003  2.3647 -0.0725
  275MOL0     H37107  10.259   3.968   4.633 -0.7481 -1.5330  0.8689
  275MOL0     H37108  10.026   3.908   4.691 -1.2313 -0.1910  0.2411
  275MOL0     H37109   8.251   3.712   4.530  0.8065 -0.3383 -0.1325
  275MOL0     H37110   8.055   3.614   4.446  0.8798 -1.4602  0.4609
  275MOL0     H37111   7.869   3.378   4.102  0.9577 -1.5764  0.8772
  275MOL0     H37112   7.660   3.313   4.002  3.0487  1.5875 -0.2211
  275MOL0     H37113   7.544   3.152   3.910 -0.4977  0.9055 -1.2332
  275MOL0     H37114   7.429   3.273   3.958 -0.6083 -0.0365  0.3784
  275MOL0     H37115   7.238   3.111   3.942 -0.1069 -0.5783  0.2192
  275MOL0     H37116   7.365   2.978   3.940 -0.5569 -0.5589 -0.1080
  275MOL0     H37117   7.283   3.011   3.722  1.8514 -0.4932 -2.2194
  275MOL0     H37118   7.447   3.053   3.720  0.5498  0.4953  0.9677
  275MOL0     H37119   7.274   3.204   3.604  0.5068  1.3639  0.3851
  275MOL0     H37120   7.232   3.262   3.767  0.4396 -1.0332  2.1804
  275MOL0     H37121   7.601   3.447   3.683  0.4311 -1.1209 -1.3747
  275MOL0     H37122   7.566   3.068   4.339  0.3251 -2.2244 -0.1946
  275MOL0     H37123   7.840   3.086   4.513  0.6955 -0.2041 -3.5621
  275MOL0     H37124   7.764   3.244   4.566 -0.1266  1.4687 -0.5493
  275MOL0     H37125   7.665   3.097   4.545  0.5017 -0.0802 -0.5667
  276MOL0     O37126   4.222   9.395   1.234  0.3567  0.4770  0.2929
  276MOL0     C37127   4.243   9.288   1.185 -0.5952  0.3660  0.1399
  276MOL0     O37128   4.350   9.211   1.194  0.1753  0.3896 -0.7447
  276MOL0     C37129   4.452   9.248   1.272  0.4819 -0.3664 -0.5040
  276MOL0     C37130   4.500   9.165   1.376 -0.5335  0.1031  0.1048
  276MOL0     C37131   4.607   9.209   1.457 -0.8337  0.2259 -0.3056
  276MOL0     C37132   4.660   9.341   1.454  0.0224  0.2706  0.3670
  276MOL0     O37133   4.750   9.377   1.555 -0.0302 -0.1474  0.2362
  276MOL0     C37134   4.799   9.515   1.568  0.2588  0.2785  0.0641
  276MOL0     C37135   4.918   9.514   1.654 -0.2898  0.2492 -0.1734
  276MOL0     C37136   5.027   9.404   1.614 -1.1592  0.1936 -0.3622
  276MOL0     C37137   5.168   9.428   1.682 -0.0885 -0.0166  0.3617
  276MOL0     C37138   5.262   9.314   1.642  0.3622 -0.6960 -1.0701
  276MOL0     C37139   5.393   9.344   1.714  0.1561  0.1685  0.7136
  276MOL0     C37140   5.398   9.317   1.861  1.2238  0.4055 -0.3714
  276MOL0     C37141   5.542   9.342   1.907  0.2251  1.0444 -0.4933
  276MOL0     N37142   5.584   9.480   1.901 -0.4499 -0.2974  0.6392
  276MOL0     C37143   5.692   9.530   1.835 -0.4995 -0.1496  0.4568
  276MOL0     C37144   5.702   9.658   1.875 -0.9147 -0.4293 -0.3861
  276MOL0     C37145   5.799   9.751   1.810 -1.1258  0.1994 -0.0604
  276MOL0     C37146   5.943   9.695   1.840 -0.0790  0.1498 -0.4428
  276MOL0     C37147   6.058   9.757   1.763 -0.4811 -0.1007  0.5551
  276MOL0     C37148   6.196   9.740   1.818  0.5273 -1.1412 -0.2903
  276MOL0     O37149   6.291   9.816   1.731 -0.0559 -0.0980 -0.0660
  276MOL0     C37150   6.422   9.798   1.759 -1.0150  0.0388 -0.2113
  276MOL0     C37151   6.503   9.881   1.691 -0.2875 -0.1422 -0.7826
  276MOL0     C37152   6.644   9.893   1.724  0.9714 -0.3635  0.7676
  276MOL0     C37153   6.694   9.819   1.827  0.1601 -0.3367 -0.2560
  276MOL0     C37154   6.831   9.832   1.875 -0.5018  0.1522 -0.5318
  276MOL0     O37155   6.893   9.714   1.915  0.2052  0.2416  0.7811
  276MOL0     C37156   7.024   9.723   1.946  0.3752  0.5580  0.7056
  276MOL0     C37157   7.132   9.699   1.853  0.2025 -0.0475  0.2403
  276MOL0     C37158   7.268   9.689   1.898  0.2842 -0.0685 -0.1175
  276MOL0     C37159   7.294   9.697   2.034 -0.4909 -1.0754 -0.6006
  276MOL0     O37160   7.429   9.700   2.068 -0.2475 -0.0474  0.6986
  276MOL0     C37161   7.452   9.655   2.205 -0.7237 -0.1150 -0.3006
  276MOL0     C37162   7.590   9.603   2.231 -0.0356 -0.7169  0.1011
  276MOL0     C37163   7.643   9.616   2.382 -0.4661 -0.4483 -0.1016
  276MOL0     C37164   7.795   9.596   2.404 -0.5141  0.3346 -0.1105
  276MOL0     C37165   7.853   9.476   2.326  1.0567  0.2162 -0.0514
  276MOL0     C37166   7.985   9.430   2.383 -1.1454  0.4118  0.3030
  276MOL0     C37167   8.101   9.527   2.351  0.3523 -0.2882 -0.2005
  276MOL0     C37168   8.237   9.464   2.395  0.7713 -0.2646 -0.5482
  276MOL0    Cl37169   8.225   9.447   2.576 -0.0063  0.4744 -0.6529
  276MOL0     C37170   7.188   9.728   2.123  0.6320 -0.4905  0.4399
  276MOL0     C37171   7.053   9.735   2.075 -0.5518 -0.2405 -0.3030
  276MOL0     O37172   6.883   9.943   1.875  0.2195 -0.6596 -0.1456
  276MOL0     C37173   6.619   9.716   1.887  0.1358 -0.8716 -0.1705
  276MOL0     C37174   6.486   9.704   1.846  0.1802  0.1225  0.2885
  276MOL0     N37175   5.621   9.683   1.980 -0.2873  0.3966 -0.3793
  276MOL0     N37176   5.547   9.574   1.989  0.7544  0.5584 -0.2038
  276MOL0     C37177   4.614   9.417   1.341  0.6080  0.5232 -0.5044
  276MOL0     C37178   4.510   9.375   1.263 -0.1248  0.0445  1.0311
  276MOL0     C37179   4.146   9.246   1.083 -0.1205  0.3067 -0.3747
  276MOL0     C37180   4.145   9.112   1.052 -0.7283  0.9673 -0.0823
  276MOL0     C37181   4.075   9.064   0.945  0.5178  0.7871  0.2978
  276MOL0     C37182   3.979   9.145   0.881 -0.6787 -0.1247 -0.3424
  276MOL0     O37183   3.896   9.097   0.786  0.3202 -0.1880  0.6706
  276MOL0     C37184   3.845   9.175   0.673 -0.0357 -0.6646  0.1628
  276MOL0     C37185   3.966   9.209   0.577  0.3237  0.0996 -0.5993
  276MOL0     C37186   3.926   9.164   0.436  0.3715  0.7436 -0.4719
  276MOL0     C37187   4.025   9.231   0.334  0.0967 -0.6581  1.1429
  276MOL0     C37188   3.982   9.215   0.191  0.9144 -0.8139  0.2562
  276MOL0     C37189   3.948   9.199   0.072 -0.4819 -0.4422  0.6679
  276MOL0     C37190   3.964   9.269   0.928  0.1223  0.3506  0.9796
  276MOL0     C37191   4.048   9.329   1.016  0.1105  0.6103  0.6612
  276MOL0     C37192   4.023   9.476   1.029  0.5441  0.3462 -0.5782
  276MOL0     H37193   4.462   9.067   1.402  0.0320 -0.4154 -0.9623
  276MOL0     H37194   4.632   9.155   1.547 -0.4844  3.0218  1.3904
  276MOL0     H37195   4.816   9.554   1.467  0.3605 -1.6816 -0.7119
  276MOL0     H37196   4.724   9.584   1.607  3.8025  4.1694  0.7021
  276MOL0     H37197   4.891   9.498   1.759 -1.0383  1.4022 -0.1710
  276MOL0     H37198   4.957   9.615   1.647 -1.8808  0.8806 -0.4404
  276MOL0     H37199   5.028   9.403   1.505 -2.9332  0.4207 -0.4025
  276MOL0     H37200   4.991   9.305   1.645 -1.3781  0.4009  0.0552
  276MOL0     H37201   5.205   9.523   1.640  1.0310 -0.0914  1.1277
  276MOL0     H37202   5.162   9.441   1.790 -0.6414 -1.6883  0.5566
  276MOL0     H37203   5.228   9.219   1.684  0.5533 -0.8392 -1.2351
  276MOL0     H37204   5.268   9.306   1.534 -1.3362 -0.4419 -1.2087
  276MOL0     H37205   5.466   9.281   1.663  0.4141  0.4663  0.7087
  276MOL0     H37206   5.428   9.442   1.680 -1.4537  0.9249  1.1187
  276MOL0     H37207   5.373   9.211   1.874 -1.9249  0.8590 -1.7695
  276MOL0     H37208   5.333   9.387   1.914  3.0331  0.8473  1.4111
  276MOL0     H37209   5.567   9.313   2.009 -0.6596 -0.8104 -0.7548
  276MOL0     H37210   5.619   9.284   1.855 -0.0827 -0.0628  0.2492
  276MOL0     H37211   5.759   9.490   1.759 -0.2801 -0.0120  0.5786
  276MOL0     H37212   5.786   9.763   1.702  2.0138 -0.6871 -0.6190
  276MOL0     H37213   5.793   9.851   1.853  0.1232  0.8209 -1.2827
  276MOL0     H37214   5.951   9.710   1.948  0.2893  3.1576 -0.8144
  276MOL0     H37215   5.946   9.588   1.815 -0.3828  0.4931 -2.0629
  276MOL0     H37216   6.046   9.865   1.746  0.4415 -0.2170 -1.0149
  276MOL0     H37217   6.064   9.713   1.663  2.2593  1.7207 -0.1755
  276MOL0     H37218   6.217   9.633   1.811 -1.2585 -1.4062 -3.7886
  276MOL0     H37219   6.197   9.780   1.920  3.0493 -1.9635  0.0795
  276MOL0     H37220   6.449   9.952   1.629 -2.2481  0.6425  1.6558
  276MOL0     H37221   6.699   9.962   1.661  2.6247 -2.3167 -0.0442
  276MOL0     H37222   7.121   9.680   1.747  1.9357 -0.0561  0.0367
  276MOL0     H37223   7.338   9.656   1.822  1.6717 -0.0019  1.0864
  276MOL0     H37224   7.441   9.748   2.263  1.2829 -0.6667  1.0840
  276MOL0     H37225   7.382   9.576   2.232  0.1109 -0.3190  1.4303
  276MOL0     H37226   7.605   9.497   2.206  1.1859 -0.6546  0.4636
  276MOL0     H37227   7.664   9.660   2.173  1.2958 -0.5137  1.8908
  276MOL0     H37228   7.619   9.717   2.417 -0.5251 -0.2299 -0.7591
  276MOL0     H37229   7.600   9.540   2.448 -0.1149 -1.9404 -1.5255
  276MOL0     H37230   7.821   9.578   2.509 -0.2017 -2.0625 -0.5442
  276MOL0     H37231   7.849   9.682   2.364  0.7152  0.4225  1.6146
  276MOL0     H37232   7.868   9.492   2.219  1.5729 -1.8802 -0.3423
  276MOL0     H37233   7.790   9.387   2.331 -0.0201  0.7533 -2.5771
  276MOL0     H37234   7.967   9.402   2.488 -1.1102  1.2199  0.5293
  276MOL0     H37235   8.009   9.343   2.322  0.0662  2.1657 -1.8814
  276MOL0     H37236   8.087   9.622   2.403 -0.4711 -0.6728  0.2927
  276MOL0     H37237   8.108   9.551   2.244  0.6139 -0.2437 -0.1744
  276MOL0     H37238   8.258   9.363   2.357  0.5713 -0.6474  0.3186
  276MOL0     H37239   8.318   9.531   2.367 -2.0718  2.7550 -2.1974
  276MOL0     H37240   7.192   9.751   2.229 -2.5351  0.0718  0.5397
  276MOL0     H37241   6.969   9.740   2.144  0.7549 -2.4390  1.6008
  276MOL0     H37242   6.658   9.656   1.968  4.0025  0.9786 -0.4297
  276MOL0     H37243   6.431   9.625   1.897 -0.5227 -0.3368 -1.1380
  276MOL0     H37244   4.670   9.509   1.329  0.9410  0.1439 -2.1896
  276MOL0     H37245   4.483   9.437   1.178 -1.5134  0.4410  1.7397
  276MOL0     H37246   4.209   9.038   1.102 -1.1399  1.0365  0.5602
  276MOL0     H37247   4.075   8.959   0.916 -1.4845  0.6058  0.7420
  276MOL0     H37248   3.803   9.274   0.698  1.3164 -0.3746  1.4137
  276MOL0     H37249   3.767   9.118   0.621 -0.1536  0.1548 -0.5879
  276MOL0     H37250   4.062   9.162   0.598  0.8966  0.0409 -3.0341
  276MOL0     H37251   3.974   9.319   0.577  0.1954  0.1317 -2.1813
  276MOL0     H37252   3.821   9.181   0.410  0.3810 -0.6693 -1.5499
  276MOL0     H37253   3.933   9.055   0.431 -0.3913  0.7221 -1.1948
  276MOL0     H37254   4.036   9.339   0.350  0.4158 -0.1771 -1.7172
  276MOL0     H37255   4.123   9.182   0.340  1.1291  0.6347 -2.4171
  276MOL0     H37256   3.930   9.188  -0.033  0.1095 -0.9572  0.6195
  276MOL0     H37257   3.880   9.325   0.888 -1.1023 -0.5628  2.1790
  276MOL0     H37258   3.917   9.499   1.013  0.2201  0.0166  0.9508
  276MOL0     H37259   4.053   9.517   1.126 -0.2532  1.0932 -0.6319
  276MOL0     H37260   4.086   9.530   0.958  1.6377  2.1528  1.6330
  277MOL0     O37261   2.605   3.668   6.056 -1.1837  1.1183  0.0106
  277MOL0     C37262   2.576   3.623   5.949  0.4484 -0.9030 -0.0159
  277MOL0     O37263   2.662   3.580   5.857  0.5197  0.1756  0.3794
  277MOL0     C37264   2.793   3.545   5.900 -0.6941 -0.0203  0.1405
  277MOL0     C37265   2.908   3.563   5.816  1.0588 -0.1181 -0.0294
  277MOL0     C37266   3.037   3.539   5.853 -0.5770 -0.1209  0.9500
  277MOL0     C37267   3.060   3.476   5.979  0.7149 -0.4639 -0.0289
  277MOL0     O37268   3.179   3.446   6.040  0.8095 -0.3786  0.4115
  277MOL0     C37269   3.293   3.501   5.978 -0.1641  0.4191 -0.0122
  277MOL0     C37270   3.410   3.508   6.085  0.3386 -0.3572 -0.1157
  277MOL0     C37271   3.551   3.542   6.026  0.9405  0.2561  0.4851
  277MOL0     C37272   3.663   3.522   6.126 -1.1050 -0.0437  0.1009
  277MOL0     C37273   3.799   3.551   6.051  0.2884 -1.4274 -0.4475
  277MOL0     C37274   3.937   3.531   6.122  1.1944  0.4274 -0.5062
  277MOL0     C37275   3.954   3.632   6.238  0.2662  1.0537  0.4422
  277MOL0     C37276   4.108   3.654   6.267 -0.2879 -0.4854  0.5402
  277MOL0     N37277   4.119   3.691   6.409  0.3385  0.4384  0.0008
  277MOL0     C37278   4.156   3.609   6.507 -0.2662 -0.3839 -0.8066
  277MOL0     C37279   4.143   3.688   6.612 -0.3895 -0.6724  0.2032
  277MOL0     C37280   4.177   3.650   6.750 -0.1458 -0.1128 -1.0985
  277MOL0     C37281   4.330   3.619   6.746  0.1504  0.5628 -0.1224
  277MOL0     C37282   4.392   3.579   6.879  0.6130  0.1013  0.3836
  277MOL0     C37283   4.547   3.574   6.878  0.1912  0.7978 -0.4549
  277MOL0     O37284   4.608   3.660   6.781  0.3068  0.5163 -0.0601
  277MOL0     C37285   4.738   3.645   6.757 -0.6036  0.0429  0.3536
  277MOL0     C37286   4.786   3.728   6.649  0.3582 -0.2188  0.2374
  277MOL0     C37287   4.916   3.718   6.596 -0.0651 -0.0699 -0.7051
  277MOL0     C37288   5.007   3.624   6.646 -0.3338 -0.7549  0.8978
  277MOL0     C37289   5.147   3.624   6.604 -0.3183 -0.9622  0.6023
  277MOL0     O37290   5.221   3.528   6.665  0.6611  0.6303  0.9452
  277MOL0     C37291   5.355   3.524   6.630  0.0656  0.3838 -0.1812
  277MOL0     C37292   5.387   3.454   6.510  0.1551  0.0400 -0.7456
  277MOL0     C37293   5.525   3.445   6.480 -0.2182 -0.0284 -0.1122
  277MOL0     C37294   5.624   3.501   6.559 -1.1745 -0.5478 -0.1159
  277MOL0     O37295   5.758   3.494   6.532 -0.1858  0.1175  0.0987
  277MOL0     C37296   5.807   3.368   6.479  0.7002 -0.3733 -0.2704
  277MOL0     C37297   5.853   3.282   6.596  0.5957 -0.3608  0.2612
  277MOL0     C37298   5.978   3.334   6.686  0.8315 -0.0209 -0.7560
  277MOL0     C37299   6.021   3.217   6.773  0.7295 -0.3342 -0.2740
  277MOL0     C37300   6.157   3.248   6.836 -0.1427 -0.8843  0.5035
  277MOL0     C37301   6.208   3.129   6.912  0.2899  0.3503  0.2061
  277MOL0     C37302   6.349   3.137   6.955 -0.5714  0.9589  0.0760
  277MOL0     C37303   6.458   3.163   6.851 -0.4508  0.6290  0.0956
  277MOL0    Cl37304   6.610   3.073   6.888 -0.2122 -0.1305 -0.2512
  277MOL0     C37305   5.579   3.586   6.661  0.3088  0.1950  0.4984
  277MOL0     C37306   5.453   3.592   6.707  0.3361  0.6142 -0.7371
  277MOL0     O37307   5.189   3.701   6.517  0.4967  0.0540  0.3138
  277MOL0     C37308   4.960   3.542   6.742  0.3668 -0.0128 -0.1871
  277MOL0     C37309   4.829   3.556   6.802  0.1998  0.0956  0.2514
  277MOL0     N37310   4.122   3.818   6.569 -0.3026  0.9797 -0.4222
  277MOL0     N37311   4.095   3.814   6.445 -0.1261  0.2544  0.4776
  277MOL0     C37312   2.948   3.455   6.058 -0.3274 -0.7285  0.0813
  277MOL0     C37313   2.818   3.483   6.020 -0.6707  1.0201 -0.1624
  277MOL0     C37314   2.437   3.643   5.906  0.4671 -0.2324  1.0030
  277MOL0     C37315   2.401   3.606   5.777  0.5087 -0.7481 -0.0490
  277MOL0     C37316   2.277   3.626   5.729  0.0380 -0.0989 -0.3142
  277MOL0     C37317   2.173   3.674   5.807 -0.3034  0.4762 -0.4867
  277MOL0     O37318   2.044   3.724   5.767 -0.1176 -0.6143  0.0356
  277MOL0     C37319   1.990   3.684   5.636 -0.5176 -0.1228 -0.4727
  277MOL0     C37320   1.865   3.763   5.589  0.4263  0.6399 -0.2860
  277MOL0     C37321   1.735   3.701   5.639  0.7410 -0.3163 -0.7320
  277MOL0     C37322   1.624   3.736   5.545 -0.0636 -0.7939  0.4338
  277MOL0     C37323   1.491   3.698   5.595  0.1530  0.3218  0.8276
  277MOL0     C37324   1.382   3.683   5.640 -0.0707  0.3554  0.6222
  277MOL0     C37325   2.201   3.703   5.940 -0.2215 -0.4280 -0.3180
  277MOL0     C37326   2.333   3.687   5.997 -1.1528 -0.1416  1.2259
  277MOL0     C37327   2.354   3.745   6.136  1.0034  0.2161  0.5060
  277MOL0     H37328   2.887   3.605   5.719 -1.9205 -0.2330  0.4543
  277MOL0     H37329   3.127   3.553   5.794 -0.8802  0.8538  0.7004
  277MOL0     H37330   3.322   3.450   5.886 -1.4382  1.5064 -1.0744
  277MOL0     H37331   3.277   3.607   5.952  0.9404  0.7311  0.5564
  277MOL0     H37332   3.421   3.410   6.133  0.0533 -1.4300 -2.1488
  277MOL0     H37333   3.389   3.580   6.165 -0.0722 -2.2882  1.5953
  277MOL0     H37334   3.546   3.648   6.001 -2.4394 -0.0743 -0.7039
  277MOL0     H37335   3.567   3.484   5.935 -0.3284 -0.7847  0.8920
  277MOL0     H37336   3.660   3.589   6.212  5.4599  1.9351 -0.6111
  277MOL0     H37337   3.669   3.420   6.163 -1.3723  0.3132  1.1649
  277MOL0     H37338   3.803   3.490   5.960 -1.0853 -1.3638 -0.5724
  277MOL0     H37339   3.793   3.653   6.012 -2.1825 -1.2279  0.2441
  277MOL0     H37340   3.933   3.427   6.158  0.0342 -0.5516 -3.1586
  277MOL0     H37341   4.018   3.533   6.048  1.6416 -0.9074 -0.0874
  277MOL0     H37342   3.896   3.592   6.321  0.3274 -2.6460 -1.1276
  277MOL0     H37343   3.912   3.730   6.213  2.0162  1.1622 -2.5331
  277MOL0     H37344   4.152   3.555   6.253  0.5738  0.0953 -1.2706
  277MOL0     H37345   4.152   3.726   6.196  1.1338 -3.5377 -1.8927
  277MOL0     H37346   4.195   3.507   6.502  2.2875  0.5050 -0.3850
  277MOL0     H37347   4.156   3.733   6.818 -2.8627 -0.9242 -0.8111
  277MOL0     H37348   4.120   3.560   6.774 -2.5673  0.9813 -2.3755
  277MOL0     H37349   4.343   3.536   6.676 -0.0609  1.6912 -1.5713
  277MOL0     H37350   4.383   3.707   6.709 -0.1090  0.7069 -0.1564
  277MOL0     H37351   4.348   3.488   6.921  0.8235  0.9421  2.5621
  277MOL0     H37352   4.370   3.662   6.946  0.7167  1.6948 -1.4700
  277MOL0     H37353   4.564   3.471   6.845 -0.0189  1.4887 -2.9492
  277MOL0     H37354   4.588   3.593   6.978 -2.7522  0.4441  0.9195
  277MOL0     H37355   4.724   3.802   6.602  3.0125  0.1842 -2.9748
  277MOL0     H37356   4.954   3.791   6.525  2.0996  1.0278  1.4344
  277MOL0     H37357   5.305   3.401   6.464  1.1237 -4.8104  2.3935
  277MOL0     H37358   5.554   3.382   6.397  4.0499 -0.0770  1.1371
  277MOL0     H37359   5.732   3.320   6.415 -0.0228 -1.4979  1.3609
  277MOL0     H37360   5.900   3.386   6.423  0.0682  0.4538 -1.0747
  277MOL0     H37361   5.765   3.274   6.661  0.9741 -1.3777  0.6693
  277MOL0     H37362   5.882   3.188   6.548  3.7459  0.6615 -0.0258
  277MOL0     H37363   6.061   3.377   6.629  2.2839  1.3524  2.2061
  277MOL0     H37364   5.953   3.421   6.747  1.5906 -0.5440  0.3280
  277MOL0     H37365   6.031   3.129   6.709  1.5858 -4.2341  4.6179
  277MOL0     H37366   5.942   3.190   6.844  0.9344 -1.1638 -0.3521
  277MOL0     H37367   6.151   3.332   6.905 -0.3474 -0.7718  0.3512
  277MOL0     H37368   6.228   3.272   6.756  0.4657  0.5779  1.4526
  277MOL0     H37369   6.141   3.126   6.999 -1.6941  0.2113 -1.2370
  277MOL0     H37370   6.198   3.038   6.853  1.4384  1.0893 -1.1792
  277MOL0     H37371   6.366   3.041   7.006 -0.8394  1.3100  0.8423
  277MOL0     H37372   6.361   3.213   7.033  1.6830 -1.3198  2.1750
  277MOL0     H37373   6.424   3.127   6.754 -0.1703 -2.2901  0.9752
  277MOL0     H37374   6.468   3.272   6.848 -0.9107  0.8263  2.7990
  277MOL0     H37375   5.657   3.638   6.715  1.0879 -0.8639  0.4181
  277MOL0     H37376   5.430   3.646   6.798  3.3328  0.9723 -0.1050
  277MOL0     H37377   5.014   3.459   6.787 -0.5747 -0.7016 -0.2925
  277MOL0     H37378   4.793   3.487   6.878 -0.3170  0.3996  0.2852
  277MOL0     H37379   2.969   3.403   6.151 -0.5738 -0.4735  0.2812
  277MOL0     H37380   2.739   3.461   6.091 -1.3805  2.3505 -0.4992
  277MOL0     H37381   2.480   3.584   5.705  1.8613 -0.2290  1.2262
  277MOL0     H37382   2.277   3.618   5.621  5.1610 -3.2334 -0.4046
  277MOL0     H37383   1.972   3.576   5.636  0.2623 -0.2815 -2.3700
  277MOL0     H37384   2.061   3.705   5.556 -0.5715  0.8811 -0.2697
  277MOL0     H37385   1.869   3.766   5.480  1.6305 -2.1251 -0.4003
  277MOL0     H37386   1.876   3.866   5.625  0.3234  1.4490 -2.4435
  277MOL0     H37387   1.711   3.752   5.732  1.1029  0.0545 -0.8373
  277MOL0     H37388   1.744   3.593   5.652 -0.3403 -0.3474 -0.1213
  277MOL0     H37389   1.626   3.842   5.517 -1.2893 -1.2717 -1.6531
  277MOL0     H37390   1.632   3.675   5.455  3.6236 -3.5060  2.3189
  277MOL0     H37391   1.283   3.669   5.680  0.3880 -1.6258  1.1550
  277MOL0     H37392   2.123   3.754   5.997  0.4623  0.0960  0.1649
  277MOL0     H37393   2.401   3.663   6.191 -0.9069  0.8380  3.2116
  277MOL0     H37394   2.420   3.832   6.131 -0.5413  1.3714 -1.2416
  277MOL0     H37395   2.257   3.777   6.174 -0.3238  0.1024 -2.4790
  278MOL0     O37396   8.557   1.251   1.059  0.1398  0.2910 -0.8962
  278MOL0     C37397   8.584   1.137   1.014  1.1361 -0.4019  1.0972
  278MOL0     O37398   8.711   1.093   0.968  0.5728  0.1817  0.5202
  278MOL0     C37399   8.810   1.173   1.000  0.1530 -0.7145 -0.3495
  278MOL0     C37400   8.896   1.143   1.101  0.2197  0.1333  0.5632
  278MOL0     C37401   9.011   1.226   1.122 -0.2763 -0.6603 -0.0276
  278MOL0     C37402   9.037   1.337   1.042 -0.1213 -0.2578  0.2821
  278MOL0     O37403   9.136   1.417   1.069 -0.8906 -0.1234 -0.2708
  278MOL0     C37404   9.152   1.540   0.989  0.1114  0.3773 -0.2231
  278MOL0     C37405   9.256   1.622   1.050 -0.7412 -0.3490  0.0141
  278MOL0     C37406   9.359   1.668   0.948  0.3043 -0.3459  0.7043
  278MOL0     C37407   9.458   1.567   0.895 -0.0974  0.1889 -0.1591
  278MOL0     C37408   9.552   1.637   0.797 -1.0839 -0.2828  0.5547
  278MOL0     C37409   9.686   1.560   0.770  1.2317 -0.4342  0.2683
  278MOL0     C37410   9.794   1.599   0.878 -0.0317 -0.3075  0.0940
  278MOL0     C37411   9.934   1.537   0.855 -0.8464  0.4004  0.4344
  278MOL0     N37412  10.038   1.629   0.848  0.1625 -0.3615 -0.0855
  278MOL0     C37413  10.134   1.636   0.933 -0.0739 -0.8474 -0.1673
  278MOL0     C37414  10.192   1.758   0.906  0.5157  0.8589 -1.0327
  278MOL0     C37415  10.318   1.810   0.973 -0.1546 -0.4946 -0.7056
  278MOL0     C37416  10.346   1.960   0.921 -0.6554 -0.8206  0.5728
  278MOL0     C37417  10.455   2.020   1.006 -0.6626 -0.1658 -0.3250
  278MOL0     C37418  10.560   2.124   0.949  0.1166  0.2258 -0.4410
  278MOL0     O37419  10.647   2.069   0.854  0.0166 -0.6083 -0.1486
  278MOL0     C37420  10.779   2.109   0.843  0.1680  0.3350 -0.9209
  278MOL0     C37421  10.821   2.237   0.881 -0.4562 -0.2137 -1.2715
  278MOL0     C37422  10.959   2.271   0.858  0.6843 -0.0000 -0.0018
  278MOL0     C37423  11.050   2.181   0.804  0.9796 -0.3938 -0.1422
  278MOL0     C37424  11.191   2.218   0.773 -0.4485 -0.7723 -0.5205
  278MOL0     O37425  11.241   2.320   0.835  0.6080 -0.3409 -0.7411
  278MOL0     C37426  11.375   2.368   0.835 -0.0053  0.1323 -0.8076
  278MOL0     C37427  11.393   2.497   0.890  0.1105  0.3140  1.3307
  278MOL0     C37428  11.523   2.550   0.891 -0.4416 -0.6137 -0.1332
  278MOL0     C37429  11.630   2.479   0.827 -0.4618  0.1369 -0.0585
  278MOL0     O37430  11.760   2.512   0.838  0.1813  0.1614  0.0852
  278MOL0     C37431  11.801   2.647   0.887  1.0039  0.3279  1.0329
  278MOL0     C37432  11.933   2.676   0.826  0.0085 -0.8480  0.2460
  278MOL0     C37433  12.042   2.574   0.848  0.3069  0.1704  0.2835
  278MOL0     C37434  12.171   2.642   0.819  0.4524 -0.0245  0.9012
  278MOL0     C37435  12.285   2.542   0.794 -1.0056  0.2560  0.5050
  278MOL0     C37436  12.414   2.616   0.780  0.0284  0.2871  0.3039
  278MOL0     C37437  12.533   2.518   0.770 -0.8533 -0.6121 -0.2368
  278MOL0     C37438  12.513   2.409   0.654  1.1673  0.5327 -0.7679
  278MOL0    Cl37439  12.509   2.484   0.491  0.3945  0.1104  0.7550
  278MOL0     C37440  11.607   2.359   0.771  0.3651  0.2551  1.0331
  278MOL0     C37441  11.479   2.298   0.781  0.3785  0.0579  0.6428
  278MOL0     O37442  11.242   2.155   0.684  0.4709  0.3985  0.3538
  278MOL0     C37443  11.003   2.058   0.767  0.0455 -1.2529 -0.6400
  278MOL0     C37444  10.869   2.022   0.791 -0.3213  0.8922  0.0890
  278MOL0     N37445  10.136   1.815   0.796 -0.3656 -0.1603  0.3600
  278MOL0     N37446  10.040   1.735   0.761 -0.2131 -0.1938  0.5615
  278MOL0     C37447   8.950   1.367   0.932 -0.0659  0.9067  0.2904
  278MOL0     C37448   8.836   1.292   0.916 -0.3394  0.4361  0.7097
  278MOL0     C37449   8.470   1.048   0.996  0.0414  0.6162  0.0144
  278MOL0     C37450   8.492   0.915   1.036 -0.8122 -0.1560 -0.3758
  278MOL0     C37451   8.385   0.833   1.049 -0.1704  0.3695 -1.1734
  278MOL0     C37452   8.257   0.865   1.021 -0.1298  0.1307 -0.6566
  278MOL0     O37453   8.156   0.767   1.028 -0.5721 -0.0873 -0.2712
  278MOL0     C37454   8.012   0.799   1.019  0.4632  0.5184 -0.2234
  278MOL0     C37455   7.988   0.880   1.150 -0.3829 -0.1575  0.3999
  278MOL0     C37456   8.038   0.789   1.264 -0.7131  0.0831 -0.4604
  278MOL0     C37457   7.928   0.806   1.371  0.6975 -0.3331 -0.5908
  278MOL0     C37458   7.961   0.756   1.499  0.1248  0.3616  0.5642
  278MOL0     C37459   8.006   0.730   1.609 -0.0568 -0.0241 -0.3898
  278MOL0     C37460   8.230   0.992   0.966 -0.7109  0.1607 -0.3287
  278MOL0     C37461   8.333   1.083   0.956  0.0593  0.4443  1.0194
  278MOL0     C37462   8.297   1.224   0.917  0.4476  0.2167 -0.0680
  278MOL0     H37463   8.886   1.048   1.154 -0.1093 -0.6775 -0.9017
  278MOL0     H37464   9.077   1.208   1.207  0.1555 -1.3998 -0.5060
  278MOL0     H37465   9.184   1.503   0.891  0.5905 -1.6242  0.6230
  278MOL0     H37466   9.057   1.594   0.992  0.0375  0.2504  3.3340
  278MOL0     H37467   9.312   1.558   1.119  1.6133 -2.1423 -3.2356
  278MOL0     H37468   9.203   1.708   1.091  0.9932 -1.3999  5.0602
  278MOL0     H37469   9.422   1.747   0.991 -2.2806  0.9431  2.3955
  278MOL0     H37470   9.307   1.722   0.868 -0.0763 -1.2755  0.3159
  278MOL0     H37471   9.503   1.530   0.987 -3.0635 -0.4597  1.1407
  278MOL0     H37472   9.409   1.483   0.844  2.0130 -1.3909  0.2729
  278MOL0     H37473   9.511   1.646   0.696  2.3778  2.7914 -0.8368
  278MOL0     H37474   9.564   1.739   0.834  3.2613  0.3532 -1.8854
  278MOL0     H37475   9.669   1.452   0.765  0.1935 -0.2513 -0.7005
  278MOL0     H37476   9.722   1.595   0.673 -2.8723  0.2475 -1.2428
  278MOL0     H37477   9.758   1.568   0.976  0.5780 -3.0260 -0.4715
  278MOL0     H37478   9.810   1.708   0.883 -1.5691  0.0519 -1.8314
  278MOL0     H37479   9.956   1.465   0.935  1.9856  0.0240 -0.5709
  278MOL0     H37480   9.936   1.480   0.762  0.8796 -1.3751  1.4815
  278MOL0     H37481  10.166   1.565   1.009 -0.6662  0.1324  1.0306
  278MOL0     H37482  10.317   1.805   1.082  2.8002 -0.6333 -0.5939
  278MOL0     H37483  10.408   1.755   0.945  1.5549  1.3563  0.8498
  278MOL0     H37484  10.368   1.947   0.814 -1.9230  1.2894  0.0114
  278MOL0     H37485  10.262   2.029   0.920  0.2756  0.3491  0.4522
  278MOL0     H37486  10.505   1.936   1.054  2.1066 -1.7746 -5.2991
  278MOL0     H37487  10.411   2.090   1.078  0.7027  0.5551 -0.1520
  278MOL0     H37488  10.611   2.162   1.038 -1.3384  0.4385  0.3402
  278MOL0     H37489  10.498   2.206   0.913 -1.5755  0.4754  2.6810
  278MOL0     H37490  10.748   2.308   0.919 -3.7369 -3.0216 -1.7988
  278MOL0     H37491  10.993   2.363   0.904 -0.3546 -0.3847  1.6584
  278MOL0     H37492  11.302   2.539   0.932 -0.8068 -1.4012  1.1712
  278MOL0     H37493  11.546   2.638   0.949  0.6949 -0.2083 -1.1337
  278MOL0     H37494  11.741   2.727   0.842  0.4304 -0.1601  0.9186
  278MOL0     H37495  11.793   2.658   0.996  0.2653 -0.5548  1.0824
  278MOL0     H37496  11.924   2.682   0.717  0.3886 -0.3812  0.2346
  278MOL0     H37497  11.972   2.773   0.860  1.9989 -0.5575 -2.5156
  278MOL0     H37498  12.028   2.530   0.947  2.1150  0.2346  0.5955
  278MOL0     H37499  12.031   2.487   0.781 -0.0623 -0.7735  1.5316
  278MOL0     H37500  12.193   2.712   0.900  0.6629 -0.0118  0.8344
  278MOL0     H37501  12.168   2.703   0.728  0.2188 -0.3687  0.6802
  278MOL0     H37502  12.265   2.484   0.704 -0.4035  1.0709 -0.1679
  278MOL0     H37503  12.303   2.480   0.883 -0.7981  1.6048  1.4315
  278MOL0     H37504  12.401   2.667   0.684 -1.7130 -0.7628 -0.0705
  278MOL0     H37505  12.434   2.687   0.861 -0.3413  0.7718 -0.0224
  278MOL0     H37506  12.535   2.462   0.865 -1.6378  1.2215  0.9135
  278MOL0     H37507  12.626   2.574   0.760 -0.2569 -0.8827  2.7130
  278MOL0     H37508  12.589   2.332   0.663 -0.8323 -1.6006 -1.0768
  278MOL0     H37509  12.418   2.362   0.680  0.7040  0.1742 -2.9121
  278MOL0     H37510  11.687   2.298   0.730 -0.2853  0.8955 -1.3834
  278MOL0     H37511  11.478   2.196   0.744  0.9703  0.7718 -1.4848
  278MOL0     H37512  11.066   1.987   0.714 -2.1563 -1.4203 -3.2521
  278MOL0     H37513  10.838   1.922   0.764  1.0202  0.6332 -0.5694
  278MOL0     H37514   8.978   1.445   0.862  0.8580  1.6380  1.4233
  278MOL0     H37515   8.780   1.302   0.824  0.6158  0.3121  0.0992
  278MOL0     H37516   8.591   0.876   1.060 -0.4783  2.1530  2.6247
  278MOL0     H37517   8.405   0.732   1.083 -0.7817  0.2296 -1.2216
  278MOL0     H37518   7.937   0.720   1.011 -0.1855  1.2630 -1.7809
  278MOL0     H37519   7.995   0.856   0.928 -1.3598 -2.1402 -1.6585
  278MOL0     H37520   7.879   0.888   1.145 -0.4030 -1.0259 -1.1911
  278MOL0     H37521   8.032   0.980   1.142  0.6010 -0.5317  1.0021
  278MOL0     H37522   8.132   0.832   1.300 -3.0446  3.9574  1.7808
  278MOL0     H37523   8.043   0.682   1.241 -0.5344  0.1492 -0.7293
  278MOL0     H37524   7.904   0.912   1.385  1.9762  0.2239 -2.2197
  278MOL0     H37525   7.835   0.763   1.334  0.2832  1.3317 -1.6037
  278MOL0     H37526   8.047   0.722   1.708  2.7183  2.1769 -1.2403
  278MOL0     H37527   8.131   1.018   0.932  0.0120 -0.1544 -2.9013
  278MOL0     H37528   8.198   1.229   0.871 -0.4820 -0.7045  1.7384
  278MOL0     H37529   8.295   1.271   1.015 -1.2122  1.1624 -0.5122
  278MOL0     H37530   8.371   1.271   0.851  2.0535 -0.8785  0.8757
  279MOL0     O37531   4.153   7.578   0.214  0.8417 -0.2120 -0.1577
  279MOL0     C37532   4.113   7.465   0.248 -0.0844 -0.0645  0.3950
  279MOL0     O37533   4.188   7.348   0.245  0.0297 -0.2187 -0.5202
  279MOL0     C37534   4.322   7.354   0.223 -0.2334  0.3678  0.6270
  279MOL0     C37535   4.376   7.293   0.110  0.1128  0.2859  0.1878
  279MOL0     C37536   4.509   7.307   0.083 -0.5425  0.0693  0.2568
  279MOL0     C37537   4.593   7.378   0.172 -1.2976 -0.8087 -0.7972
  279MOL0     O37538   4.731   7.401   0.163  0.1144 -0.0988  0.0678
  279MOL0     C37539   4.759   7.541   0.158 -0.1676 -0.1640 -0.6421
  279MOL0     C37540   4.903   7.559   0.111  0.4058 -0.3440  0.3957
  279MOL0     C37541   5.009   7.526   0.218  0.3325  0.1721  1.0048
  279MOL0     C37542   5.150   7.566   0.157 -0.9813  0.1218 -0.5186
  279MOL0     C37543   5.258   7.532   0.271 -1.1118 -0.3027  0.2769
  279MOL0     C37544   5.401   7.567   0.222 -0.0035  0.5892  0.2435
  279MOL0     C37545   5.500   7.595   0.342  0.9731 -1.0912 -0.5059
  279MOL0     C37546   5.635   7.537   0.296 -0.0567  0.3172  0.5843
  279MOL0     N37547   5.753   7.555   0.388  0.0679  0.6631  0.2331
  279MOL0     C37548   5.866   7.478   0.397  0.0471 -0.0073 -0.6712
  279MOL0     C37549   5.931   7.526   0.509 -0.1336 -0.3707  0.1112
  279MOL0     C37550   6.066   7.485   0.542  0.9512 -0.3434  0.2246
  279MOL0     C37551   6.166   7.598   0.531 -0.5883 -0.4615  0.4339
  279MOL0     C37552   6.292   7.560   0.454  0.0624 -0.2519  0.0492
  279MOL0     C37553   6.373   7.695   0.423  0.5653  0.2197  0.3113
  279MOL0     O37554   6.483   7.661   0.339  0.3169 -0.3247 -0.0990
  279MOL0     C37555   6.613   7.696   0.364  0.6778  0.0194 -0.0140
  279MOL0     C37556   6.706   7.645   0.270 -0.0373 -0.6054 -0.9559
  279MOL0     C37557   6.841   7.669   0.287 -0.4745 -0.8141 -0.0060
  279MOL0     C37558   6.891   7.735   0.405  0.5622 -0.5143 -0.1546
  279MOL0     C37559   7.033   7.737   0.438  0.5214 -0.0228 -0.0330
  279MOL0     O37560   7.071   7.815   0.541 -0.0290 -0.1917  0.2110
  279MOL0     C37561   7.205   7.817   0.565  0.5406 -0.1468 -0.1096
  279MOL0     C37562   7.285   7.895   0.482 -1.1013  0.9956  0.7369
  279MOL0     C37563   7.415   7.912   0.523 -0.5332 -0.8607 -0.2315
  279MOL0     C37564   7.467   7.847   0.637 -0.4477 -0.6653 -0.0876
  279MOL0     O37565   7.592   7.873   0.680  0.1927 -0.9514  0.1581
  279MOL0     C37566   7.690   7.779   0.649  0.0054 -0.6863  0.6865
  279MOL0     C37567   7.773   7.750   0.766 -0.1855  0.3199  0.1409
  279MOL0     C37568   7.861   7.634   0.742 -0.0810  0.5061  0.0874
  279MOL0     C37569   7.965   7.631   0.857 -0.0198  0.1884  1.1342
  279MOL0     C37570   8.077   7.530   0.832  0.2583 -0.3104 -0.1565
  279MOL0     C37571   8.162   7.502   0.963 -0.4183 -0.1230  0.4257
  279MOL0     C37572   8.285   7.412   0.936 -0.2430 -0.4943  0.2885
  279MOL0     C37573   8.382   7.416   1.054  0.3480  0.1330 -0.1028
  279MOL0    Cl37574   8.293   7.359   1.210 -0.1378 -0.2629 -0.6038
  279MOL0     C37575   7.379   7.779   0.721  0.8168  0.0897 -0.5315
  279MOL0     C37576   7.245   7.763   0.686 -0.5852 -0.8059  0.0662
  279MOL0     O37577   7.113   7.664   0.367  0.0492  0.1718 -0.3448
  279MOL0     C37578   6.794   7.797   0.496  0.5806  0.9911  0.1110
  279MOL0     C37579   6.657   7.777   0.468  0.1937 -0.0403 -0.0803
  279MOL0     N37580   5.854   7.621   0.569 -0.1268 -0.1988 -0.8855
  279MOL0     N37581   5.743   7.637   0.504 -0.7757 -0.1265  0.2301
  279MOL0     C37582   4.543   7.405   0.301 -0.0169  0.9731 -0.3855
  279MOL0     C37583   4.406   7.399   0.326 -0.1568  1.0149  0.7079
  279MOL0     C37584   3.968   7.451   0.271  0.1586  0.5806 -0.1607
  279MOL0     C37585   3.903   7.337   0.219  0.4508  0.9368  0.4157
  279MOL0     C37586   3.769   7.316   0.214 -0.7764  0.9449  0.7343
  279MOL0     C37587   3.685   7.406   0.265 -0.1887 -0.3045  1.0922
  279MOL0     O37588   3.548   7.391   0.258  0.1033  0.2183  0.1335
  279MOL0     C37589   3.493   7.258   0.231  0.5785 -0.2186 -0.1012
  279MOL0     C37590   3.350   7.244   0.290  0.0529 -0.0956  0.0929
  279MOL0     C37591   3.341   7.292   0.436  0.7849  0.1796 -0.1839
  279MOL0     C37592   3.229   7.224   0.522  0.0611 -0.4503 -0.1978
  279MOL0     C37593   3.191   7.324   0.629 -0.8357 -0.3742  0.7877
  279MOL0     C37594   3.168   7.400   0.712 -0.2095  0.1135 -0.0305
  279MOL0     C37595   3.742   7.525   0.312 -0.4527  0.2110 -0.7526
  279MOL0     C37596   3.877   7.557   0.313 -0.4043 -0.1993 -0.5290
  279MOL0     C37597   3.924   7.695   0.350  0.1177  0.2911  0.0122
  279MOL0     H37598   4.308   7.254   0.035 -1.1971  1.9034  0.4772
  279MOL0     H37599   4.559   7.278  -0.009 -1.8387  2.2663 -1.2201
  279MOL0     H37600   4.691   7.589   0.086 -0.3597  0.0765 -0.3072
  279MOL0     H37601   4.733   7.587   0.254  0.1330  0.5681 -0.9053
  279MOL0     H37602   4.914   7.662   0.074 -0.5258 -0.7457 -1.0665
  279MOL0     H37603   4.915   7.490   0.027 -0.2207  0.2379 -0.1802
  279MOL0     H37604   5.002   7.418   0.234 -1.1217  0.2963  1.3907
  279MOL0     H37605   4.984   7.571   0.314  1.0317 -0.7196  1.6183
  279MOL0     H37606   5.178   7.503   0.073  1.4243  0.6882 -0.2335
  279MOL0     H37607   5.156   7.673   0.135  0.3772 -0.2934 -2.3718
  279MOL0     H37608   5.228   7.585   0.362  0.2199 -1.1126  1.2414
  279MOL0     H37609   5.264   7.428   0.307 -1.0148  0.2278  1.9107
  279MOL0     H37610   5.426   7.469   0.179  1.3239  0.9775  0.1020
  279MOL0     H37611   5.398   7.631   0.134 -1.6839 -1.5614 -1.3762
  279MOL0     H37612   5.466   7.543   0.432  0.9689 -0.6894 -0.2738
  279MOL0     H37613   5.509   7.701   0.369 -0.4557 -1.4028  1.3749
  279MOL0     H37614   5.621   7.430   0.279  1.0837  0.1043  0.8647
  279MOL0     H37615   5.667   7.590   0.205 -1.0821  0.4064  0.2665
  279MOL0     H37616   5.912   7.414   0.322  2.7776  0.2695  0.6337
  279MOL0     H37617   6.070   7.455   0.648  1.8887  0.6402  0.4837
  279MOL0     H37618   6.089   7.394   0.485  2.5055 -0.1358  0.4534
  279MOL0     H37619   6.121   7.682   0.479  1.7119  0.0979 -0.8040
  279MOL0     H37620   6.178   7.638   0.632  2.0133 -1.5657  0.6399
  279MOL0     H37621   6.266   7.513   0.359 -3.1018  0.0645  0.6466
  279MOL0     H37622   6.350   7.493   0.517 -0.4884 -1.4621 -0.6936
  279MOL0     H37623   6.400   7.749   0.515  1.3871  2.5873 -1.2166
  279MOL0     H37624   6.315   7.774   0.374  0.3353  0.8846  1.5862
  279MOL0     H37625   6.654   7.589   0.193 -4.4639 -1.2302  2.1031
  279MOL0     H37626   6.909   7.624   0.215  1.1788  1.1827  0.2127
  279MOL0     H37627   7.240   7.942   0.396 -0.2631  2.9060  1.2974
  279MOL0     H37628   7.463   7.988   0.462 -2.8359 -0.3139 -1.4583
  279MOL0     H37629   7.655   7.681   0.616  1.8065 -0.9854 -0.5314
  279MOL0     H37630   7.757   7.810   0.568  1.5248  0.3056  2.2644
  279MOL0     H37631   7.843   7.831   0.786 -0.4991  0.8685 -0.9029
  279MOL0     H37632   7.711   7.719   0.851 -1.1440 -0.3824 -0.7817
  279MOL0     H37633   7.810   7.537   0.741  0.6011  0.1407 -0.1669
  279MOL0     H37634   7.912   7.640   0.645  0.1787  0.1694  0.2000
  279MOL0     H37635   7.922   7.596   0.952 -1.6511 -0.2817  0.2711
  279MOL0     H37636   8.013   7.726   0.880 -0.1898  0.1893  1.4941
  279MOL0     H37637   8.151   7.557   0.755  1.1905 -1.7798  0.1822
  279MOL0     H37638   8.023   7.439   0.802 -1.6425  0.4511  0.8378
  279MOL0     H37639   8.196   7.592   1.017  0.4486 -1.7287  2.7039
  279MOL0     H37640   8.089   7.457   1.031 -2.4188  0.3880 -1.2697
  279MOL0     H37641   8.345   7.442   0.849 -1.5889 -1.9282 -1.2015
  279MOL0     H37642   8.253   7.311   0.909  1.4127 -1.4741  1.7570
  279MOL0     H37643   8.464   7.347   1.031 -0.4433 -0.7793 -0.2617
  279MOL0     H37644   8.423   7.517   1.065  1.7556 -0.3464 -0.7386
  279MOL0     H37645   7.419   7.738   0.813 -1.2229  0.3380  0.5369
  279MOL0     H37646   7.164   7.712   0.737 -2.3178  0.8659 -0.8402
  279MOL0     H37647   6.822   7.841   0.591  1.4704 -2.7300  1.7577
  279MOL0     H37648   6.581   7.813   0.537  1.6026  1.9333  0.5311
  279MOL0     H37649   4.616   7.445   0.371 -0.4070 -1.4495  1.5373
  279MOL0     H37650   4.370   7.436   0.422 -1.0151 -1.4017  1.4131
  279MOL0     H37651   3.958   7.257   0.170 -0.2623  1.6909 -1.7346
  279MOL0     H37652   3.730   7.229   0.161 -2.1112  0.7949  1.8787
  279MOL0     H37653   3.559   7.182   0.274 -0.8220 -1.3182  0.1901
  279MOL0     H37654   3.487   7.230   0.125 -0.1730 -0.6990  0.0632
  279MOL0     H37655   3.319   7.141   0.272 -1.2611  0.3083 -0.0160
  279MOL0     H37656   3.282   7.307   0.232 -0.1665 -0.2026  0.2320
  279MOL0     H37657   3.314   7.398   0.430 -0.1871  0.0175  0.9398
  279MOL0     H37658   3.435   7.291   0.492  0.0217  1.1045  1.1806
  279MOL0     H37659   3.152   7.193   0.451  2.4529 -0.5211 -2.9659
  279MOL0     H37660   3.262   7.129   0.566 -2.1122  0.6372  4.3193
  279MOL0     H37661   3.136   7.462   0.793 -0.0026  0.6332 -0.3437
  279MOL0     H37662   3.671   7.603   0.338 -1.2595  0.6376 -3.8194
  279MOL0     H37663   4.027   7.694   0.385 -0.2483  1.0709  1.2173
  279MOL0     H37664   3.901   7.765   0.269 -0.8261  0.2952  0.2662
  279MOL0     H37665   3.874   7.721   0.445 -0.5201  1.5100 -0.6358
  280MOL0     O37666   7.002   1.532   1.765 -0.2402  0.1114  0.0537
  280MOL0     C37667   6.946   1.644   1.764 -0.5705 -0.4979 -0.3309
  280MOL0     O37668   7.005   1.759   1.804 -0.7150 -0.4533 -0.3590
  280MOL0     C37669   7.139   1.764   1.817  0.3354  0.1646  0.1992
  280MOL0     C37670   7.204   1.825   1.713 -0.7095 -0.5130 -0.1144
  280MOL0     C37671   7.337   1.846   1.718  0.0555 -0.4344  0.9480
  280MOL0     C37672   7.421   1.798   1.818  0.2564  0.3248  0.3055
  280MOL0     O37673   7.555   1.791   1.782  0.4644  0.0643 -0.0898
  280MOL0     C37674   7.654   1.802   1.879  0.3036 -0.3268 -0.1661
  280MOL0     C37675   7.797   1.806   1.826  0.8015 -0.2385  0.0607
  280MOL0     C37676   7.895   1.830   1.940  0.5281  0.5378  0.1420
  280MOL0     C37677   8.043   1.826   1.892 -0.2468  0.5847 -0.6217
  280MOL0     C37678   8.144   1.806   2.000 -0.1646  0.4648  0.4416
  280MOL0     C37679   8.168   1.667   2.048 -0.4984 -0.0167  0.1845
  280MOL0     C37680   8.259   1.670   2.177  0.4809  0.6171  0.2697
  280MOL0     C37681   8.194   1.716   2.304  0.0338 -0.3651  0.1020
  280MOL0     N37682   8.095   1.630   2.345  0.5291  0.1034 -0.2236
  280MOL0     C37683   7.963   1.649   2.320 -0.5106  0.8123  0.1079
  280MOL0     C37684   7.903   1.541   2.376  0.3153 -0.1215  0.6736
  280MOL0     C37685   7.752   1.510   2.345 -0.1292 -0.2000  0.0280
  280MOL0     C37686   7.708   1.487   2.199 -0.7749 -0.9487  0.5988
  280MOL0     C37687   7.733   1.340   2.158  0.2278 -1.0025  0.5262
  280MOL0     C37688   7.882   1.309   2.110 -0.1208 -0.2363  0.4616
  280MOL0     O37689   7.916   1.386   1.995 -0.4443  0.4732  0.4949
  280MOL0     C37690   8.046   1.373   1.950 -0.6378 -0.3987  0.5358
  280MOL0     C37691   8.077   1.432   1.822 -0.1884  0.6333 -0.0737
  280MOL0     C37692   8.209   1.432   1.771 -0.1657 -0.2637  0.3608
  280MOL0     C37693   8.315   1.368   1.840  0.9321 -0.7908  0.2378
  280MOL0     C37694   8.443   1.384   1.776 -0.0882 -0.4199  0.1494
  280MOL0     O37695   8.469   1.499   1.699  0.1858 -0.3507  0.2525
  280MOL0     C37696   8.596   1.535   1.667  0.6355  0.7309 -0.2205
  280MOL0     C37697   8.699   1.539   1.759  1.1086 -0.1126  0.3911
  280MOL0     C37698   8.815   1.618   1.729  0.5905  0.9683 -0.0322
  280MOL0     C37699   8.821   1.686   1.606 -0.4161  0.1203  0.2033
  280MOL0     O37700   8.940   1.749   1.572 -0.1279  0.2943  0.3047
  280MOL0     C37701   8.983   1.753   1.437 -0.2882  0.6726 -0.0526
  280MOL0     C37702   9.133   1.774   1.423 -0.0906  0.0563 -0.0247
  280MOL0     C37703   9.219   1.657   1.486 -0.7847 -0.2398  0.4510
  280MOL0     C37704   9.197   1.513   1.438  1.2248  0.1848 -0.2526
  280MOL0     C37705   9.288   1.418   1.522 -0.1609  0.3351  1.1166
  280MOL0     C37706   9.234   1.268   1.509  0.1745 -0.7670  0.2906
  280MOL0     C37707   9.315   1.183   1.601  0.0417  0.1439  0.2277
  280MOL0     C37708   9.246   1.036   1.604  0.6935  0.1266  0.1323
  280MOL0    Cl37709   9.076   1.040   1.654  0.0830 -0.2619 -0.4057
  280MOL0     C37710   8.718   1.670   1.509  0.0660 -0.6910 -0.8756
  280MOL0     C37711   8.607   1.592   1.539  0.0733 -0.4618 -0.4053
  280MOL0     O37712   8.524   1.303   1.812  0.1206 -0.4264  0.4298
  280MOL0     C37713   8.286   1.301   1.966 -0.1545  0.2635  0.1980
  280MOL0     C37714   8.156   1.300   2.019 -0.1220  0.2704 -0.2108
  280MOL0     N37715   7.993   1.461   2.438 -0.3227  0.6098 -0.3076
  280MOL0     N37716   8.111   1.517   2.423  0.1179  0.7379 -0.6303
  280MOL0     C37717   7.358   1.727   1.932  0.1393  0.0528  1.3359
  280MOL0     C37718   7.216   1.714   1.932 -0.0042 -0.0855 -0.5715
  280MOL0     C37719   6.813   1.657   1.702  0.2559 -0.4094  0.9550
  280MOL0     C37720   6.730   1.545   1.711 -0.1838 -0.5373  0.4796
  280MOL0     C37721   6.594   1.549   1.660  0.1798 -0.2356 -0.8313
  280MOL0     C37722   6.550   1.665   1.608 -0.2594 -0.3957  0.1442
  280MOL0     O37723   6.417   1.681   1.555  0.1308  0.8246  0.1674
  280MOL0     C37724   6.329   1.564   1.572 -0.7232 -0.1700  0.5435
  280MOL0     C37725   6.188   1.600   1.537  0.2806  0.6395 -0.0921
  280MOL0     C37726   6.141   1.731   1.599 -0.2493 -0.0988  0.3434
  280MOL0     C37727   6.017   1.779   1.522  0.3681  0.4085 -0.2791
  280MOL0     C37728   5.946   1.895   1.580 -0.3418  0.0901 -0.2423
  280MOL0     C37729   5.897   1.998   1.609  0.4982  0.2875  0.5308
  280MOL0     C37730   6.622   1.784   1.615 -0.3706 -0.7294  0.2260
  280MOL0     C37731   6.754   1.782   1.653 -0.5099  0.2196 -0.9674
  280MOL0     C37732   6.815   1.916   1.659 -0.1666  0.7524  0.4137
  280MOL0     H37733   7.150   1.872   1.631  0.8326 -0.6753 -1.2695
  280MOL0     H37734   7.375   1.913   1.641 -1.1920 -1.0115 -0.2099
  280MOL0     H37735   7.650   1.888   1.946  3.5808 -0.0927 -0.0919
  280MOL0     H37736   7.641   1.718   1.948 -0.6554  0.7044  0.9493
  280MOL0     H37737   7.802   1.890   1.757  3.4024 -0.8337 -0.5555
  280MOL0     H37738   7.821   1.723   1.760  3.2693  1.0342 -0.7491
  280MOL0     H37739   7.885   1.739   2.000  1.7689  0.9079  0.9560
  280MOL0     H37740   7.877   1.920   2.000 -1.1122  0.6824 -0.5089
  280MOL0     H37741   8.059   1.750   1.815 -1.4660 -3.0417  2.4036
  280MOL0     H37742   8.061   1.927   1.853 -0.2200  2.5038  3.7569
  280MOL0     H37743   8.246   1.834   1.973  0.2087  0.0341  1.3549
  280MOL0     H37744   8.115   1.861   2.090 -3.9814 -2.0361  0.9408
  280MOL0     H37745   8.073   1.624   2.081 -1.4898  1.3906 -0.7215
  280MOL0     H37746   8.221   1.612   1.970  1.9642 -0.4332  2.0272
  280MOL0     H37747   8.342   1.737   2.152  0.2309  1.0500  0.6010
  280MOL0     H37748   8.304   1.571   2.192 -1.5830 -0.2525  1.0591
  280MOL0     H37749   8.270   1.714   2.384  1.2799  4.0199 -0.7296
  280MOL0     H37750   8.171   1.822   2.295  1.1898 -0.2584 -2.4134
  280MOL0     H37751   7.912   1.728   2.265 -2.1037 -1.0882 -1.2851
  280MOL0     H37752   7.721   1.431   2.413 -0.0963  0.3813  0.7387
  280MOL0     H37753   7.701   1.598   2.385  1.8177  0.4436  1.2147
  280MOL0     H37754   7.607   1.526   2.189 -0.5658 -0.0207  1.8901
  280MOL0     H37755   7.759   1.558   2.133 -0.7863 -0.6965  0.8616
  280MOL0     H37756   7.663   1.328   2.074 -0.0537  2.8590  0.0019
  280MOL0     H37757   7.705   1.266   2.233  0.0918 -0.7199  0.7569
  280MOL0     H37758   7.897   1.206   2.078 -1.5928 -0.1568 -0.5954
  280MOL0     H37759   7.953   1.329   2.191 -0.0296  2.1299 -0.1118
  280MOL0     H37760   7.998   1.474   1.760  1.4624  4.7297  0.3358
  280MOL0     H37761   8.230   1.490   1.681 -1.0358 -0.7057 -0.1351
  280MOL0     H37762   8.684   1.476   1.846 -1.4753 -2.6715 -1.7314
  280MOL0     H37763   8.901   1.619   1.795  0.6998 -1.4645 -0.0678
  280MOL0     H37764   8.956   1.664   1.379  1.3004  0.2831 -0.2516
  280MOL0     H37765   8.929   1.836   1.391 -0.8562  0.3084 -0.0491
  280MOL0     H37766   9.154   1.780   1.316 -1.0332 -1.9168 -0.3792
  280MOL0     H37767   9.155   1.868   1.473 -0.5690 -0.4848  1.2369
  280MOL0     H37768   9.326   1.674   1.468 -0.5262 -2.4933 -0.4747
  280MOL0     H37769   9.192   1.658   1.592 -0.2129  0.0618  0.6017
  280MOL0     H37770   9.230   1.508   1.334  1.0722 -0.3041 -0.2812
  280MOL0     H37771   9.090   1.492   1.448  0.8276  1.9629 -0.5295
  280MOL0     H37772   9.281   1.454   1.625 -1.2200 -0.3894  1.3274
  280MOL0     H37773   9.391   1.424   1.486 -0.2775 -1.9269  0.2138
  280MOL0     H37774   9.127   1.268   1.530  0.1479 -0.4245  0.1729
  280MOL0     H37775   9.248   1.242   1.404  0.8560  4.2548 -1.1333
  280MOL0     H37776   9.313   1.227   1.701 -0.3625 -1.1709  0.8200
  280MOL0     H37777   9.414   1.173   1.556  0.6395 -0.9150  1.7212
  280MOL0     H37778   9.251   0.975   1.513  0.2946 -0.8099  0.7139
  280MOL0     H37779   9.294   0.985   1.688  1.0441  0.6446  0.2486
  280MOL0     H37780   8.717   1.712   1.409  3.3132 -2.3783 -1.7462
  280MOL0     H37781   8.533   1.572   1.463 -0.2279  0.2529 -0.2992
  280MOL0     H37782   8.369   1.258   2.022  0.7188  0.3865 -0.9579
  280MOL0     H37783   8.146   1.256   2.117  1.4620  0.0326 -0.1324
  280MOL0     H37784   7.426   1.679   2.001  3.8537 -0.7771 -2.4808
  280MOL0     H37785   7.172   1.661   2.016  0.1086  0.3901 -0.2091
  280MOL0     H37786   6.770   1.450   1.747  0.6093 -0.3001  0.2464
  280MOL0     H37787   6.548   1.451   1.659  1.1142 -0.7256  1.1437
  280MOL0     H37788   6.347   1.534   1.676  0.2252  0.2649  0.5234
  280MOL0     H37789   6.361   1.473   1.521 -2.4592 -2.6100  3.4800
  280MOL0     H37790   6.116   1.523   1.563 -1.1723  1.7680 -0.6422
  280MOL0     H37791   6.177   1.604   1.428 -0.9344 -0.8988 -0.0590
  280MOL0     H37792   6.209   1.816   1.595 -0.7111  0.2887  0.5711
  280MOL0     H37793   6.113   1.718   1.704 -0.9210 -0.9992  0.0644
  280MOL0     H37794   6.051   1.801   1.420 -0.1660  0.2642 -0.4920
  280MOL0     H37795   5.955   1.690   1.507  2.4603 -1.1109 -0.4596
  280MOL0     H37796   5.859   2.091   1.647 -2.2816 -0.7278  0.4691
  280MOL0     H37797   6.584   1.879   1.580  3.8938  1.6774  1.4018
  280MOL0     H37798   6.769   1.994   1.598 -0.0273  0.1118 -0.5250
  280MOL0     H37799   6.810   1.957   1.760 -1.1797  1.9270 -0.0896
  280MOL0     H37800   6.916   1.924   1.619  0.4132  1.3440  1.9014
  281MOL0     O37801   2.717   9.897  10.073  0.0307 -0.4890 -0.3375
  281MOL0     C37802   2.716   9.799  10.141  0.4078 -0.4236 -0.2378
  281MOL0     O37803   2.820   9.716  10.166  0.3125  0.5846 -0.3753
  281MOL0     C37804   2.942   9.759  10.132  0.3368 -0.2307  0.1857
  281MOL0     C37805   3.025   9.810  10.226 -1.2552  0.5920  0.4365
  281MOL0     C37806   3.160   9.838  10.185 -0.4788  0.3501  0.2871
  281MOL0     C37807   3.201   9.826  10.046  0.2228  0.4013 -0.5621
  281MOL0     O37808   3.331   9.866  10.016 -0.2322  0.6299  1.0951
  281MOL0     C37809   3.365   9.900   9.875 -0.1000 -0.5202  0.1446
  281MOL0     C37810   3.512   9.932   9.864  0.2891  0.1444  0.0977
  281MOL0     C37811   3.607   9.831   9.922 -0.2178  0.2204  0.4769
  281MOL0     C37812   3.753   9.853   9.856  0.4475  0.0656  0.6031
  281MOL0     C37813   3.849   9.771   9.938 -0.5135 -0.0528 -1.0008
  281MOL0     C37814   3.995   9.815   9.908 -0.1325  0.0005  0.3048
  281MOL0     C37815   4.032   9.751   9.776  0.1716 -0.8630  0.6102
  281MOL0     C37816   4.170   9.799   9.731 -0.5546 -1.0836  0.8546
  281MOL0     N37817   4.294   9.768   9.808  0.1496 -0.7464  0.2135
  281MOL0     C37818   4.323   9.810   9.936 -0.2714  0.2529 -0.0456
  281MOL0     C37819   4.456   9.782   9.952 -0.3223  0.0826 -0.4351
  281MOL0     C37820   4.524   9.786  10.087 -0.8126 -0.6205  0.2829
  281MOL0     C37821   4.677   9.769  10.064  0.3871  0.1294  0.3432
  281MOL0     C37822   4.744   9.772  10.196  1.0227  0.2554  1.2539
  281MOL0     C37823   4.894   9.723  10.204  0.1909 -0.7761 -0.5900
  281MOL0     O37824   4.921   9.723  10.345  0.0005  0.1570 -0.5852
  281MOL0     C37825   5.040   9.680  10.381 -0.4888  0.5299 -0.2716
  281MOL0     C37826   5.050   9.660  10.519 -0.0074 -0.2111  0.3919
  281MOL0     C37827   5.164   9.594  10.577 -0.0903 -0.0342  0.0742
  281MOL0     C37828   5.273   9.566  10.498  0.0420  0.5590  0.3893
  281MOL0     C37829   5.391   9.494  10.548 -0.3635 -0.8058 -0.2271
  281MOL0     O37830   5.378   9.453  10.675  0.3797 -0.2124 -0.5050
  281MOL0     C37831   5.473   9.369  10.722 -0.6552 -0.3518 -0.4716
  281MOL0     C37832   5.525   9.390  10.851 -0.3700  0.0934  0.3101
  281MOL0     C37833   5.634   9.322  10.909 -0.0768 -0.0487  0.6167
  281MOL0     C37834   5.685   9.207  10.835  0.1529 -0.3544 -0.7259
  281MOL0     O37835   5.783   9.122  10.878 -0.1437  0.4862 -0.4093
  281MOL0     C37836   5.827   9.128  11.014  0.0987 -1.1562 -0.1708
  281MOL0     C37837   5.938   9.025  11.043  0.2587 -0.7735  0.0185
  281MOL0     C37838   5.886   8.884  10.999  0.1208 -0.2758  0.2554
  281MOL0     C37839   5.963   8.760  11.049  0.5802 -0.7601 -0.7130
  281MOL0     C37840   6.117   8.793  11.039  0.5846  0.0946  0.1049
  281MOL0     C37841   6.200   8.661  11.068 -0.4724 -0.3649 -0.1342
  281MOL0     C37842   6.347   8.697  11.096 -0.2412  0.4281 -0.3007
  281MOL0     C37843   6.424   8.580  11.142 -0.3581  0.1579  0.2886
  281MOL0    Cl37844   6.391   8.555  11.310  0.1363 -0.4195 -0.9512
  281MOL0     C37845   5.634   9.178  10.708  0.8890  0.3339 -0.6774
  281MOL0     C37846   5.530   9.259  10.659 -0.2948  0.0651 -0.1077
  281MOL0     O37847   5.490   9.476  10.474  0.3019 -0.7726 -0.1154
  281MOL0     C37848   5.262   9.589  10.356  1.2970  0.9699 -0.2256
  281MOL0     C37849   5.151   9.648  10.297  0.3102  0.4927  0.1537
  281MOL0     N37850   4.509   9.730   9.836 -1.0452  0.5581 -0.9255
  281MOL0     N37851   4.413   9.717   9.758  0.5063  0.3367 -0.1078
  281MOL0     C37852   3.115   9.770   9.958  0.6150  1.6900  0.3740
  281MOL0     C37853   2.983   9.734  10.002 -0.5534 -0.2778  0.0039
  281MOL0     C37854   2.586   9.754  10.204 -0.3583  1.4874  0.1114
  281MOL0     C37855   2.548   9.617  10.192  0.5101 -0.6072 -1.3632
  281MOL0     C37856   2.418   9.580  10.231 -0.3919 -0.0169  0.0637
  281MOL0     C37857   2.337   9.672  10.293  0.0384 -0.5675 -0.0675
  281MOL0     O37858   2.227   9.620  10.352  0.1507 -0.0134 -0.1278
  281MOL0     C37859   2.116   9.703  10.397  0.1868 -0.3227  0.9887
  281MOL0     C37860   2.001   9.615  10.414  0.0849 -0.1763 -0.0074
  281MOL0     C37861   1.968   9.535  10.290  0.3498 -0.5647  0.0952
  281MOL0     C37862   2.044   9.416  10.248  0.0255  0.1184  0.0055
  281MOL0     C37863   2.048   9.319  10.355  0.6480 -1.1301 -0.0101
  281MOL0     C37864   2.039   9.225  10.434  0.0428 -0.3819 -0.1100
  281MOL0     C37865   2.368   9.810  10.294  0.4776  0.5989 -0.6288
  281MOL0     C37866   2.499   9.849  10.260  0.4042 -0.3475  1.0901
  281MOL0     C37867   2.534   9.990  10.282 -0.7962 -0.3430  0.7421
  281MOL0     H37868   3.007   9.826  10.332  0.7196 -1.9826  1.2729
  281MOL0     H37869   3.233   9.870  10.259 -0.3018  0.2536  0.1550
  281MOL0     H37870   3.344   9.809   9.817  0.7524 -0.0904 -0.8606
  281MOL0     H37871   3.302   9.984   9.845  1.2402  0.1062 -1.0414
  281MOL0     H37872   3.535  10.022   9.922  3.3301  0.6943 -1.7876
  281MOL0     H37873   3.540   9.950   9.760 -0.0501  1.5232  0.2176
  281MOL0     H37874   3.574   9.735   9.881 -3.2427  1.6177 -0.7132
  281MOL0     H37875   3.613   9.828  10.031 -4.1304 -5.2026  0.9471
  281MOL0     H37876   3.751   9.826   9.750 -1.1178  1.0219  0.3557
  281MOL0     H37877   3.778   9.957   9.876 -1.9755  0.4443  2.1107
  281MOL0     H37878   3.834   9.792  10.045  0.8086 -0.7820 -0.6544
  281MOL0     H37879   3.837   9.663   9.925 -0.4793 -0.2908  0.6322
  281MOL0     H37880   4.000   9.924   9.904 -0.3218  0.1993  3.2787
  281MOL0     H37881   4.062   9.776   9.985 -2.6441 -1.5561  1.8310
  281MOL0     H37882   3.957   9.773   9.699 -0.6910 -0.5695  1.5086
  281MOL0     H37883   4.031   9.644   9.801 -1.8909 -0.8576  0.7206
  281MOL0     H37884   4.193   9.756   9.634 -1.1583 -0.1828  0.2921
  281MOL0     H37885   4.172   9.906   9.708 -1.5363 -1.5267 -1.5712
  281MOL0     H37886   4.254   9.852  10.008 -0.2567 -2.6263  1.7984
  281MOL0     H37887   4.509   9.883  10.134  0.8210  0.6819 -1.7265
  281MOL0     H37888   4.485   9.708  10.153  0.6575 -3.4404 -1.9223
  281MOL0     H37889   4.704   9.671  10.024 -1.6337 -0.0574 -0.7010
  281MOL0     H37890   4.713   9.842   9.991 -1.6697  1.3086  0.4540
  281MOL0     H37891   4.688   9.703  10.260 -0.8719  1.8843  1.4591
  281MOL0     H37892   4.728   9.875  10.230 -0.0171  0.0550  1.4186
  281MOL0     H37893   4.958   9.797  10.155 -1.8479  0.3957 -1.6224
  281MOL0     H37894   4.906   9.624  10.158  0.7272 -1.1597  0.3456
  281MOL0     H37895   4.967   9.691  10.582  0.4734  0.3893  0.7396
  281MOL0     H37896   5.172   9.577  10.684 -0.0634  1.3300  0.3053
  281MOL0     H37897   5.487   9.476  10.906 -0.2455 -0.2776  0.9824
  281MOL0     H37898   5.666   9.341  11.011  0.9808 -3.1600  0.9919
  281MOL0     H37899   5.868   9.230  11.019  0.9684 -1.5431  2.1868
  281MOL0     H37900   5.738   9.117  11.077  0.0184 -0.5769 -0.1760
  281MOL0     H37901   6.036   9.039  10.997  0.2912  3.5148  0.9549
  281MOL0     H37902   5.927   9.033  11.152 -3.3757  0.5933 -0.3081
  281MOL0     H37903   5.799   8.883  11.065  1.0157  0.4313  1.4850
  281MOL0     H37904   5.868   8.871  10.892  0.9135 -2.5495  0.3507
  281MOL0     H37905   5.940   8.682  10.976 -1.1552  0.2663 -1.3284
  281MOL0     H37906   5.932   8.731  11.150 -1.0671 -0.7626 -1.1834
  281MOL0     H37907   6.141   8.872  11.111 -0.5763  1.6886 -1.1750
  281MOL0     H37908   6.132   8.831  10.938  1.8086  3.3674  1.3746
  281MOL0     H37909   6.146   8.617  11.153 -1.1477  2.1036  0.7886
  281MOL0     H37910   6.196   8.589  10.986  0.9986 -1.1804  0.4782
  281MOL0     H37911   6.349   8.767  11.180 -4.1475  1.5173 -0.9309
  281MOL0     H37912   6.396   8.752  11.015  1.0827  0.6312  0.5914
  281MOL0     H37913   6.414   8.489  11.082  0.5396  1.3077 -1.6924
  281MOL0     H37914   6.529   8.602  11.123 -0.3649  0.3551  0.4786
  281MOL0     H37915   5.677   9.101  10.645  2.9111 -0.6046  1.6671
  281MOL0     H37916   5.521   9.241  10.552  1.1684 -0.9038 -0.1003
  281MOL0     H37917   5.340   9.559  10.287  0.9856  0.5486 -0.3959
  281MOL0     H37918   5.145   9.661  10.190 -0.4291  1.4199  0.2961
  281MOL0     H37919   3.143   9.745   9.856 -1.1318 -0.8950  0.4321
  281MOL0     H37920   2.913   9.692   9.930 -2.7326  2.0880  0.6324
  281MOL0     H37921   2.606   9.541  10.141 -1.3159 -1.9618 -1.5498
  281MOL0     H37922   2.373   9.481  10.233 -1.8952  0.6351 -0.3193
  281MOL0     H37923   2.094   9.776  10.319 -0.8636 -1.0529  0.5738
  281MOL0     H37924   2.152   9.751  10.489  0.1041 -0.0618  0.8850
  281MOL0     H37925   1.906   9.664  10.439  0.0165 -0.2308 -0.1588
  281MOL0     H37926   2.023   9.548  10.498  1.4103  0.2780  0.0212
  281MOL0     H37927   1.965   9.602  10.204 -0.0998 -0.2750  0.3301
  281MOL0     H37928   1.861   9.517  10.306  0.2586  0.3463  0.5898
  281MOL0     H37929   1.985   9.384  10.161 -1.4076  0.7307  0.7164
  281MOL0     H37930   2.139   9.450  10.208 -0.8079  1.3027 -1.0621
  281MOL0     H37931   2.041   9.137  10.495 -1.1681 -0.6040 -0.3679
  281MOL0     H37932   2.307   9.883  10.346 -0.0467 -1.5940  2.0496
  281MOL0     H37933   2.550  10.041  10.187  2.6303 -1.7059  0.4196
  281MOL0     H37934   2.468  10.047  10.348 -0.7852 -1.2956  1.6176
  281MOL0     H37935   2.631   9.984  10.332  0.0245 -0.5293 -0.8081
  282MOL0     O37936   4.938  10.698   9.029  0.3722 -0.6343 -0.4534
  282MOL0     C37937   4.917  10.652   9.144  0.6792  0.2682  0.1418
  282MOL0     O37938   5.003  10.643   9.239  0.5815 -0.2026  0.3208
  282MOL0     C37939   5.137  10.630   9.223  0.6134  0.0299 -0.0345
  282MOL0     C37940   5.220  10.695   9.308 -0.4848 -0.2321 -0.5723
  282MOL0     C37941   5.359  10.700   9.285 -0.8891  0.2546  0.3572
  282MOL0     C37942   5.416  10.623   9.190 -0.1407 -1.0171 -0.2177
  282MOL0     O37943   5.545  10.603   9.160 -0.6466 -0.4440 -0.2775
  282MOL0     C37944   5.639  10.693   9.231  0.1887  0.2674  0.3713
  282MOL0     C37945   5.785  10.651   9.188 -0.3616  0.3275 -0.1032
  282MOL0     C37946   5.884  10.755   9.240  0.7194  0.5374  0.2528
  282MOL0     C37947   5.990  10.700   9.325  0.1376 -0.0621 -0.0473
  282MOL0     C37948   6.098  10.801   9.346 -0.2455 -0.5088  0.1656
  282MOL0     C37949   6.214  10.732   9.428  0.0786 -0.4990 -0.0807
  282MOL0     C37950   6.325  10.680   9.316  0.2916 -0.0416 -0.4015
  282MOL0     C37951   6.443  10.613   9.383  0.2244 -0.0654 -0.0558
  282MOL0     N37952   6.547  10.703   9.454  0.4616  0.3177  0.4109
  282MOL0     C37953   6.550  10.726   9.586 -0.0648 -0.5936 -0.8407
  282MOL0     C37954   6.675  10.767   9.612  0.4449 -0.7946 -0.4287
  282MOL0     C37955   6.720  10.823   9.749 -0.0580 -0.5037  0.2754
  282MOL0     C37956   6.735  10.974   9.754  0.4872  0.7236 -0.0585
  282MOL0     C37957   6.778  11.016   9.892 -0.2253 -0.1508 -0.6746
  282MOL0     C37958   6.789  11.168   9.881  0.2517 -0.2522  1.7432
  282MOL0     O37959   6.871  11.216   9.985 -0.0244  0.2361 -0.7415
  282MOL0     C37960   7.005  11.247   9.955  0.9719 -0.0478  0.1134
  282MOL0     C37961   7.072  11.338  10.039  0.3143  0.1908  0.5203
  282MOL0     C37962   7.217  11.355  10.013 -0.1238 -1.0204 -0.3411
  282MOL0     C37963   7.285  11.295   9.904 -0.1683 -0.1975 -0.5151
  282MOL0     C37964   7.425  11.333   9.880 -0.0667 -0.1422 -0.1692
  282MOL0     O37965   7.469  11.320   9.755 -0.8711 -0.0919  0.1956
  282MOL0     C37966   7.593  11.371   9.723 -0.4286  0.0963 -0.1364
  282MOL0     C37967   7.615  11.506   9.742  0.5445  0.3641 -0.4035
  282MOL0     C37968   7.742  11.563   9.713 -0.4001  0.7940  0.3225
  282MOL0     C37969   7.847  11.483   9.657  0.1903 -0.1163 -0.5652
  282MOL0     O37970   7.972  11.528   9.620 -0.5203 -0.6051  1.2688
  282MOL0     C37971   8.018  11.650   9.690 -0.3994 -0.9004  0.6956
  282MOL0     C37972   8.171  11.674   9.678 -1.1084  0.1649 -0.2985
  282MOL0     C37973   8.255  11.643   9.799 -0.6966  1.5119 -0.5012
  282MOL0     C37974   8.407  11.657   9.777 -0.2544  0.5651 -0.6475
  282MOL0     C37975   8.485  11.623   9.898  0.5144  0.8482  0.1673
  282MOL0     C37976   8.629  11.598   9.866  0.2622  0.3660 -0.0085
  282MOL0     C37977   8.696  11.549   9.993 -0.5728 -0.4943  0.4095
  282MOL0     C37978   8.838  11.491   9.962 -0.0739  0.5695 -0.3252
  282MOL0    Cl37979   8.957  11.613   9.925 -0.2176  0.2600 -0.1161
  282MOL0     C37980   7.818  11.344   9.640  0.1639 -0.0074  0.0524
  282MOL0     C37981   7.699  11.293   9.678  0.4517  0.1156 -0.1674
  282MOL0     O37982   7.492  11.370   9.975  0.2782  0.0709 -0.4996
  282MOL0     C37983   7.211  11.229   9.807  0.5183 -0.3176 -0.1801
  282MOL0     C37984   7.074  11.196   9.841 -0.3303  0.0152  0.7533
  282MOL0     N37985   6.742  10.776   9.494  0.4075  0.0183  0.6310
  282MOL0     N37986   6.660  10.745   9.395 -0.8023 -0.5037  0.0197
  282MOL0     C37987   5.332  10.545   9.109  0.0248  0.4488 -0.3544
  282MOL0     C37988   5.189  10.558   9.115  0.3093  0.0223  0.4001
  282MOL0     C37989   4.780  10.616   9.174 -0.5036 -0.3907 -0.4328
  282MOL0     C37990   4.691  10.603   9.064  0.3380  0.7938 -0.0637
  282MOL0     C37991   4.559  10.558   9.078 -0.4726  0.1669  0.5331
  282MOL0     C37992   4.511  10.513   9.205 -0.0074 -0.3681  0.8060
  282MOL0     O37993   4.390  10.463   9.221 -0.2391 -0.2066 -0.8970
  282MOL0     C37994   4.308  10.438   9.102  0.3551 -0.2925  0.3849
  282MOL0     C37995   4.180  10.374   9.146  0.4448  0.3744  0.2125
  282MOL0     C37996   4.076  10.481   9.166 -0.7970 -0.4672  0.2285
  282MOL0     C37997   3.939  10.420   9.174  0.2472 -0.0391  0.1162
  282MOL0     C37998   3.834  10.521   9.197 -0.0153 -0.0272  0.4333
  282MOL0     C37999   3.751  10.607   9.223  0.3024  0.2589 -0.1598
  282MOL0     C38000   4.598  10.522   9.314  0.0051 -0.2485 -0.0012
  282MOL0     C38001   4.721  10.575   9.298  0.0649 -0.9670 -0.5409
  282MOL0     C38002   4.797  10.581   9.431  0.3345 -0.3151 -0.3725
  282MOL0     H38003   5.178  10.762   9.381 -1.3261 -0.8981 -0.4373
  282MOL0     H38004   5.420  10.770   9.342  0.8137 -0.1930 -0.8452
  282MOL0     H38005   5.617  10.796   9.204  5.3567  2.7385  3.8119
  282MOL0     H38006   5.630  10.675   9.339  3.7743  2.5392  1.2191
  282MOL0     H38007   5.804  10.654   9.080  1.1231  2.8756  0.1533
  282MOL0     H38008   5.806  10.554   9.234 -0.5635  1.3873  2.3988
  282MOL0     H38009   5.831  10.838   9.287  0.4295 -0.7547  2.3304
  282MOL0     H38010   5.930  10.790   9.147 -1.4614 -0.4359 -1.2865
  282MOL0     H38011   5.945  10.663   9.418  1.3282 -0.9145  0.2182
  282MOL0     H38012   6.035  10.618   9.269 -2.3877 -0.0111 -2.2965
  282MOL0     H38013   6.129  10.852   9.255  0.7533  1.5403  1.5786
  282MOL0     H38014   6.063  10.888   9.403 -0.4829  1.8077 -3.2646
  282MOL0     H38015   6.247  10.806   9.501 -0.6627  0.7990 -1.0171
  282MOL0     H38016   6.177  10.648   9.487 -0.9458  0.3469  0.5091
  282MOL0     H38017   6.358  10.769   9.261 -1.1236  1.5928  1.2349
  282MOL0     H38018   6.274  10.615   9.244  1.4020 -0.6588 -0.6443
  282MOL0     H38019   6.409  10.535   9.451 -1.5305  0.4622 -0.2800
  282MOL0     H38020   6.495  10.557   9.304 -0.3800  0.3233 -0.7404
  282MOL0     H38021   6.472  10.713   9.661 -0.7337  0.0887 -1.4037
  282MOL0     H38022   6.643  10.791   9.820 -0.2231  1.5688  1.0968
  282MOL0     H38023   6.813  10.771   9.771  0.9132  1.1074  0.1014
  282MOL0     H38024   6.814  10.994   9.681 -1.8182 -1.0673 -3.2719
  282MOL0     H38025   6.645  11.022   9.717 -1.0130 -1.0070  1.1574
  282MOL0     H38026   6.867  10.964   9.928 -1.2629 -0.4118  1.7080
  282MOL0     H38027   6.693  11.001   9.959 -1.3625  2.4187 -1.4182
  282MOL0     H38028   6.694  11.218   9.903  1.5953  2.0907  2.5830
  282MOL0     H38029   6.820  11.198   9.780 -2.7616  0.3990  0.9095
  282MOL0     H38030   7.028  11.378  10.130 -0.5506  0.0594  0.1638
  282MOL0     H38031   7.270  11.424  10.078 -3.2499  1.1356  0.1858
  282MOL0     H38032   7.528  11.564   9.770  1.0237  1.1805 -0.5948
  282MOL0     H38033   7.759  11.670   9.711  1.0184  0.5827 -1.9288
  282MOL0     H38034   7.971  11.733   9.637  0.3422 -0.9761 -0.1001
  282MOL0     H38035   7.989  11.648   9.795 -1.8639  2.3262  0.4763
  282MOL0     H38036   8.214  11.621   9.593  2.6281  0.2361  1.3718
  282MOL0     H38037   8.191  11.778   9.650 -1.2681  0.5230  0.8462
  282MOL0     H38038   8.216  11.699   9.884  0.2338  0.9723  0.3111
  282MOL0     H38039   8.232  11.538   9.820 -1.5233  1.7828 -0.0008
  282MOL0     H38040   8.431  11.756   9.735 -1.8289  1.2528 -0.0207
  282MOL0     H38041   8.442  11.586   9.702  0.8613  0.3513  0.0519
  282MOL0     H38042   8.428  11.545   9.948 -0.3123  1.2089 -0.1951
  282MOL0     H38043   8.469  11.713   9.957 -0.1464  1.8805 -1.5084
  282MOL0     H38044   8.647  11.517   9.795  0.8731  0.2599  0.2568
  282MOL0     H38045   8.677  11.682   9.815 -0.5073 -0.3304 -1.9678
  282MOL0     H38046   8.640  11.461  10.026 -0.9267 -0.8633 -1.1309
  282MOL0     H38047   8.700  11.620  10.076 -1.0896 -0.3413  0.3063
  282MOL0     H38048   8.876  11.429  10.044 -1.6664  0.1958  0.1524
  282MOL0     H38049   8.830  11.430   9.871  0.6867 -0.0872  0.0409
  282MOL0     H38050   7.888  11.278   9.590  1.6245  1.1694  0.4472
  282MOL0     H38051   7.685  11.185   9.668  1.3376 -0.2159  1.6899
  282MOL0     H38052   7.247  11.202   9.709 -2.8518 -2.2054 -1.0645
  282MOL0     H38053   7.019  11.137   9.768 -1.5291  1.3480  0.5223
  282MOL0     H38054   5.371  10.490   9.024 -2.5410 -0.3397 -1.1078
  282MOL0     H38055   5.130  10.513   9.036 -0.3874  0.1166  0.8505
  282MOL0     H38056   4.715  10.630   8.962 -0.9671  0.6235 -0.4285
  282MOL0     H38057   4.493  10.554   8.992  0.0255 -2.4270  0.1878
  282MOL0     H38058   4.364  10.357   9.055  3.2102  1.0109  1.3248
  282MOL0     H38059   4.288  10.527   9.041 -2.2689  1.8996  3.9834
  282MOL0     H38060   4.184  10.322   9.242 -0.6027 -1.5088 -0.7002
  282MOL0     H38061   4.137  10.306   9.072  0.6216  1.6148 -1.0701
  282MOL0     H38062   4.069  10.546   9.079  0.9611 -2.4455 -1.4985
  282MOL0     H38063   4.102  10.534   9.258  0.1021 -1.5493  0.6163
  282MOL0     H38064   3.924  10.372   9.076 -0.2433  0.2900  0.0266
  282MOL0     H38065   3.934  10.345   9.253 -2.6700  0.5129  0.5823
  282MOL0     H38066   3.687  10.692   9.234 -2.3254 -1.4109 -1.5259
  282MOL0     H38067   4.563  10.477   9.406  0.1371 -2.2506 -0.8799
  282MOL0     H38068   4.832  10.684   9.443 -3.3199  0.8392  2.1973
  282MOL0     H38069   4.731  10.559   9.515  0.2315 -0.6451 -0.5393
  282MOL0     H38070   4.876  10.506   9.428 -0.3234 -1.0114 -2.5587
  283MOL0     O38071   3.401   6.913   0.804  0.8767  1.3061 -0.3892
  283MOL0     C38072   3.383   6.833   0.898  0.2932 -0.2319 -0.7827
  283MOL0     O38073   3.471   6.733   0.929  0.9604  0.2830 -0.1218
  283MOL0     C38074   3.584   6.730   0.852 -0.4475 -0.4332 -0.2847
  283MOL0     C38075   3.580   6.664   0.733  0.2307  0.1165  0.3120
  283MOL0     C38076   3.692   6.652   0.652 -0.6546  0.1845  0.1475
  283MOL0     C38077   3.823   6.693   0.703 -0.6096  1.3638  0.7215
  283MOL0     O38078   3.932   6.720   0.624  0.0870  0.2975  0.2941
  283MOL0     C38079   3.954   6.630   0.514 -0.4181 -0.1412  0.8243
  283MOL0     C38080   4.110   6.594   0.486  0.0372 -0.0873 -0.5794
  283MOL0     C38081   4.169   6.476   0.560 -0.2323 -0.7358  0.2474
  283MOL0     C38082   4.322   6.488   0.568 -1.0199  0.3095  0.7090
  283MOL0     C38083   4.393   6.385   0.478 -0.4914 -0.0073  0.3618
  283MOL0     C38084   4.350   6.386   0.324  0.1362 -0.0098 -0.3225
  283MOL0     C38085   4.450   6.315   0.235  0.0540  1.3572  0.0129
  283MOL0     C38086   4.572   6.397   0.213  0.5682 -0.2244 -0.3194
  283MOL0     N38087   4.572   6.455   0.079 -0.1061  0.7670  0.0180
  283MOL0     C38088   4.642   6.411  -0.026  0.2387  0.6990  0.9180
  283MOL0     C38089   4.615   6.492  -0.133 -0.0991 -0.4858 -0.3097
  283MOL0     C38090   4.668   6.493  -0.270 -0.2676  0.0713  0.0541
  283MOL0     C38091   4.819   6.456  -0.260  0.2490 -0.2278  1.0174
  283MOL0     C38092   4.888   6.475  -0.396  0.3364 -0.2922 -0.4682
  283MOL0     C38093   5.030   6.435  -0.394 -0.1192 -0.9080 -0.6370
  283MOL0     O38094   5.112   6.490  -0.504  0.2952 -0.4525  0.5464
  283MOL0     C38095   5.241   6.500  -0.486 -0.1551 -0.2911  0.0784
  283MOL0     C38096   5.301   6.592  -0.570 -0.1353 -0.4205 -0.1728
  283MOL0     C38097   5.435   6.610  -0.588  0.0338 -0.4226  0.9804
  283MOL0     C38098   5.517   6.528  -0.509  0.6347 -0.7436 -0.7182
  283MOL0     C38099   5.662   6.562  -0.513  0.3951  0.0445 -0.0721
  283MOL0     O38100   5.714   6.618  -0.627  0.4162  0.3708 -0.0155
  283MOL0     C38101   5.840   6.671  -0.624 -0.0748  0.2865 -0.3405
  283MOL0     C38102   5.949   6.584  -0.628 -0.4501 -1.1086 -0.4048
  283MOL0     C38103   6.081   6.627  -0.624  0.3428  0.3768 -0.2631
  283MOL0     C38104   6.111   6.768  -0.616 -0.8266 -0.4090 -0.3565
  283MOL0     O38105   6.243   6.820  -0.627 -0.1140 -0.3570 -0.2279
  283MOL0     C38106   6.352   6.735  -0.593  0.4648  0.4824  0.1068
  283MOL0     C38107   6.471   6.809  -0.540  0.8526  0.3123  0.5158
  283MOL0     C38108   6.555   6.728  -0.439 -0.9381 -0.3555 -0.4350
  283MOL0     C38109   6.679   6.814  -0.394  0.2645 -0.5201 -0.2690
  283MOL0     C38110   6.757   6.748  -0.286  0.0743 -0.3499 -1.2688
  283MOL0     C38111   6.876   6.825  -0.240  0.1935  0.0220 -0.4382
  283MOL0     C38112   6.976   6.725  -0.190  0.1099  0.1183 -0.1590
  283MOL0     C38113   7.123   6.766  -0.204 -0.2107  0.0988  0.2277
  283MOL0    Cl38114   7.176   6.908  -0.124 -0.3186  0.4241 -0.1686
  283MOL0     C38115   5.999   6.852  -0.625 -0.6203  0.4567 -0.3247
  283MOL0     C38116   5.869   6.798  -0.625  0.7227 -0.8139 -0.4471
  283MOL0     O38117   5.726   6.520  -0.418  0.0564  0.2663  0.0948
  283MOL0     C38118   5.461   6.429  -0.432  0.1755  0.1552 -1.0476
  283MOL0     C38119   5.322   6.414  -0.417 -0.2238  0.0027  0.8117
  283MOL0     N38120   4.543   6.595  -0.075  0.3685  0.0219 -0.3745
  283MOL0     N38121   4.512   6.574   0.036  0.2638  0.4808 -1.0861
  283MOL0     C38122   3.822   6.757   0.835  0.4959  0.1577  0.0598
  283MOL0     C38123   3.711   6.776   0.908  0.8914 -0.4391 -0.4713
  283MOL0     C38124   3.249   6.844   0.968 -0.3552  0.2815  0.9031
  283MOL0     C38125   3.142   6.928   0.910 -0.6056 -0.8786 -0.6866
  283MOL0     C38126   3.019   6.924   0.962 -0.1550 -0.3504  0.0602
  283MOL0     C38127   2.984   6.853   1.080 -0.8104  0.4879  0.2312
  283MOL0     O38128   2.865   6.873   1.146  0.0794  0.1113 -0.4651
  283MOL0     C38129   2.826   6.782   1.253  0.0508 -0.2631 -0.2702
  283MOL0     C38130   2.677   6.805   1.303 -0.7566 -1.0848 -0.0093
  283MOL0     C38131   2.575   6.726   1.213  0.3384 -0.4805  0.0735
  283MOL0     C38132   2.604   6.576   1.205 -0.3185 -0.1962  0.2141
  283MOL0     C38133   2.481   6.500   1.188 -0.0851  0.9938  0.0386
  283MOL0     C38134   2.393   6.416   1.176  0.6623  0.0983 -0.2445
  283MOL0     C38135   3.082   6.760   1.123  0.5257 -0.3893  1.1935
  283MOL0     C38136   3.214   6.766   1.076  0.4439  0.3920  0.7179
  283MOL0     C38137   3.311   6.678   1.148  0.1229 -0.3831 -0.2694
  283MOL0     H38138   3.483   6.627   0.700 -0.4368  0.0797  2.1737
  283MOL0     H38139   3.680   6.621   0.549 -1.8190 -0.3688  0.4311
  283MOL0     H38140   3.899   6.536   0.529 -1.6603  0.3370 -0.4765
  283MOL0     H38141   3.901   6.679   0.432  0.4722 -0.0126  0.3104
  283MOL0     H38142   4.161   6.689   0.502 -5.9162  3.6473 -0.5931
  283MOL0     H38143   4.120   6.569   0.380 -1.1650 -0.2769 -0.6632
  283MOL0     H38144   4.141   6.376   0.527 -2.6370  0.2609 -1.0067
  283MOL0     H38145   4.134   6.483   0.663 -2.0505 -0.7435 -0.3463
  283MOL0     H38146   4.354   6.586   0.530  0.1312 -0.5505 -0.6695
  283MOL0     H38147   4.362   6.476   0.669  0.2648 -1.4490  0.0306
  283MOL0     H38148   4.501   6.392   0.496  0.0621 -3.6128 -0.6460
  283MOL0     H38149   4.374   6.283   0.514 -0.6746  0.2498  0.9967
  283MOL0     H38150   4.246   6.359   0.307 -0.1997  1.5409 -0.8839
  283MOL0     H38151   4.357   6.490   0.291 -0.0519  1.1003  2.7422
  283MOL0     H38152   4.402   6.285   0.141  0.5295 -0.0703  0.1895
  283MOL0     H38153   4.476   6.224   0.291 -1.2197  0.7708 -0.3065
  283MOL0     H38154   4.579   6.477   0.288  2.9752  1.4606 -2.2010
  283MOL0     H38155   4.666   6.340   0.216  1.0686  0.2043 -3.7618
  283MOL0     H38156   4.710   6.326  -0.028  0.8910  1.2189  0.4660
  283MOL0     H38157   4.620   6.430  -0.345  1.0280 -0.4394 -0.3772
  283MOL0     H38158   4.655   6.600  -0.286 -1.8567  0.1374  1.5034
  283MOL0     H38159   4.867   6.527  -0.191  1.6494 -0.7942  0.6637
  283MOL0     H38160   4.837   6.354  -0.224  0.8195 -1.0974 -1.5153
  283MOL0     H38161   4.867   6.580  -0.417 -1.1504 -0.5988 -0.6525
  283MOL0     H38162   4.833   6.423  -0.475 -0.7949  0.1068  0.0389
  283MOL0     H38163   5.035   6.326  -0.388 -0.3683 -0.8895  0.0028
  283MOL0     H38164   5.069   6.461  -0.294 -1.1977 -1.0815 -0.1588
  283MOL0     H38165   5.235   6.657  -0.626 -0.3654 -1.1911 -0.8240
  283MOL0     H38166   5.475   6.683  -0.658 -0.0746 -3.6648 -2.7432
  283MOL0     H38167   5.926   6.479  -0.611 -4.2144 -0.2251  0.7198
  283MOL0     H38168   6.162   6.554  -0.624 -0.5369 -0.6152 -1.2072
  283MOL0     H38169   6.307   6.674  -0.513  0.8379  0.3955  0.2516
  283MOL0     H38170   6.389   6.682  -0.681 -0.1656  1.2665 -0.6365
  283MOL0     H38171   6.539   6.837  -0.621  1.1852 -0.7727  0.3954
  283MOL0     H38172   6.434   6.893  -0.481 -4.0685 -1.0338 -0.2485
  283MOL0     H38173   6.488   6.717  -0.353 -0.1662  0.9909  0.3704
  283MOL0     H38174   6.598   6.634  -0.472 -0.7178  0.4160 -2.5255
  283MOL0     H38175   6.653   6.914  -0.357 -0.2591  0.7943 -3.8431
  283MOL0     H38176   6.741   6.835  -0.482  0.3455 -0.7162 -0.2606
  283MOL0     H38177   6.788   6.650  -0.322 -0.7908 -1.0196 -0.2962
  283MOL0     H38178   6.693   6.731  -0.198  0.2269  0.6474 -0.9581
  283MOL0     H38179   6.927   6.865  -0.328  1.1375  1.1672  0.5739
  283MOL0     H38180   6.846   6.902  -0.168 -1.1183 -1.3415  0.5274
  283MOL0     H38181   6.958   6.626  -0.232 -0.6066 -0.0319  0.4753
  283MOL0     H38182   6.964   6.720  -0.081  2.3411 -0.4457  0.1085
  283MOL0     H38183   7.185   6.683  -0.169 -0.1840 -0.3683 -0.8675
  283MOL0     H38184   7.143   6.772  -0.312 -1.1411 -0.1840  0.0355
  283MOL0     H38185   6.013   6.960  -0.627  1.2739  0.2601  0.0467
  283MOL0     H38186   5.790   6.871  -0.642 -0.2826 -1.2750  1.8524
  283MOL0     H38187   5.523   6.357  -0.380 -1.0241  1.3947  2.3329
  283MOL0     H38188   5.269   6.330  -0.372  1.1234 -0.7947  0.9429
  283MOL0     H38189   3.918   6.787   0.875  0.3595  1.2239 -0.4014
  283MOL0     H38190   3.711   6.818   1.008 -2.7189  1.9250 -1.2617
  283MOL0     H38191   3.150   6.985   0.818 -1.3012  0.0723 -0.1784
  283MOL0     H38192   2.940   6.990   0.928  0.0962 -0.8703 -1.6000
  283MOL0     H38193   2.886   6.803   1.342 -2.3267 -0.7993  1.5508
  283MOL0     H38194   2.845   6.683   1.213 -1.4819 -0.5808 -0.2816
  283MOL0     H38195   2.642   6.908   1.301 -1.4529 -1.3074 -2.0949
  283MOL0     H38196   2.655   6.771   1.404 -2.0695  0.6614  0.3473
  283MOL0     H38197   2.581   6.766   1.111  0.1059  1.4850  0.7988
  283MOL0     H38198   2.471   6.749   1.237  0.0073 -0.6731 -1.0831
  283MOL0     H38199   2.673   6.564   1.121 -0.7681  1.2652 -0.3953
  283MOL0     H38200   2.653   6.538   1.295  0.0610  0.1779  0.1679
  283MOL0     H38201   2.318   6.340   1.176  1.9873 -1.2637 -0.5543
  283MOL0     H38202   3.059   6.691   1.203  0.9608 -0.4902  1.2375
  283MOL0     H38203   3.315   6.575   1.111 -1.5724  0.1561 -2.2045
  283MOL0     H38204   3.408   6.726   1.157 -1.0261  1.6993  2.3718
  283MOL0     H38205   3.271   6.665   1.249  0.8642 -1.2660 -0.0733
  284MOL0     O38206   6.583   5.309   5.378  0.7574 -0.4638 -0.4961
  284MOL0     C38207   6.551   5.200   5.334 -0.4726 -0.3283 -0.2081
  284MOL0     O38208   6.641   5.105   5.284  0.6559  0.5917 -0.1928
  284MOL0     C38209   6.772   5.108   5.323 -0.9495  0.1401  0.5934
  284MOL0     C38210   6.868   5.073   5.228  1.1579  0.6606 -0.9408
  284MOL0     C38211   7.002   5.081   5.259  0.2223  0.3737  0.2184
  284MOL0     C38212   7.054   5.127   5.382  0.5554 -0.5130  0.0349
  284MOL0     O38213   7.186   5.149   5.391  0.0068  0.5257 -0.9316
  284MOL0     C38214   7.232   5.251   5.480  0.1032 -0.2900  0.1989
  284MOL0     C38215   7.311   5.183   5.595 -0.5664 -1.0541 -0.2661
  284MOL0     C38216   7.319   5.251   5.728  0.2654 -0.5675 -1.5299
  284MOL0     C38217   7.424   5.360   5.718 -0.2733  0.7052 -0.2284
  284MOL0     C38218   7.419   5.450   5.836 -0.0354 -0.3360 -0.5074
  284MOL0     C38219   7.521   5.568   5.832 -0.5212 -0.8006 -0.6612
  284MOL0     C38220   7.660   5.534   5.888  0.5063 -0.1310 -0.8535
  284MOL0     C38221   7.653   5.513   6.043 -0.4951  0.1069 -0.9960
  284MOL0     N38222   7.795   5.513   6.108  0.0172  0.2302  0.2706
  284MOL0     C38223   7.846   5.613   6.191  0.3651  0.3758 -0.2280
  284MOL0     C38224   7.974   5.581   6.206  0.7199  0.1321  0.0656
  284MOL0     C38225   8.084   5.628   6.292 -0.0846 -0.2100 -0.1468
  284MOL0     C38226   8.149   5.752   6.225 -0.5694 -0.8409 -0.7555
  284MOL0     C38227   8.261   5.803   6.319 -0.3547  0.1249  0.0886
  284MOL0     C38228   8.341   5.926   6.271 -0.6868  0.0677 -0.2167
  284MOL0     O38229   8.441   5.971   6.363 -0.4898 -0.4085 -0.3055
  284MOL0     C38230   8.567   5.914   6.358  0.0127 -0.0531 -0.3151
  284MOL0     C38231   8.660   5.988   6.444  0.7415 -1.1937 -0.1331
  284MOL0     C38232   8.789   5.961   6.439 -0.3757  0.2236 -0.1878
  284MOL0     C38233   8.837   5.857   6.359 -1.1196 -0.6067  0.7639
  284MOL0     C38234   8.985   5.822   6.347  0.7054 -0.1385 -0.1694
  284MOL0     O38235   9.085   5.913   6.389 -0.1058  0.4607  0.2915
  284MOL0     C38236   9.222   5.886   6.379 -0.9434  0.1562  0.4442
  284MOL0     C38237   9.294   5.764   6.347  0.9823 -0.2604  0.7683
  284MOL0     C38238   9.439   5.769   6.341  0.1623  0.5267 -0.0325
  284MOL0     C38239   9.514   5.885   6.372  0.6052 -0.9492  0.4258
  284MOL0     O38240   9.649   5.879   6.368 -0.5083 -0.5641  0.6726
  284MOL0     C38241   9.724   5.994   6.334  0.2152  0.2775  0.5454
  284MOL0     C38242   9.872   5.969   6.335 -0.5687  0.1871  1.6186
  284MOL0     C38243   9.920   5.885   6.216 -0.1726  0.8890 -0.1196
  284MOL0     C38244  10.074   5.895   6.209  0.8093 -0.5027 -0.3777
  284MOL0     C38245  10.125   5.830   6.090  0.2479  0.0354  0.8393
  284MOL0     C38246  10.270   5.873   6.054 -0.0012  0.1669  0.9575
  284MOL0     C38247  10.321   5.808   5.926  0.6291 -0.1062 -1.3872
  284MOL0     C38248  10.460   5.854   5.882 -0.5323 -0.3641  0.1895
  284MOL0    Cl38249  10.449   6.024   5.837  0.1318 -0.1275  0.5985
  284MOL0     C38250   9.439   5.995   6.422  0.6635 -0.0126  0.2327
  284MOL0     C38251   9.300   5.991   6.420  0.0338 -0.6522  1.0295
  284MOL0     O38252   9.010   5.709   6.301 -0.0913  0.1371 -0.3471
  284MOL0     C38253   8.748   5.778   6.282  0.6273 -0.4740 -0.5840
  284MOL0     C38254   8.611   5.809   6.274 -0.2519  0.6995 -0.3721
  284MOL0     N38255   8.004   5.477   6.117  0.4909 -0.1636 -0.4506
  284MOL0     N38256   7.893   5.436   6.058  0.2860  0.4635  0.0079
  284MOL0     C38257   6.959   5.163   5.471 -0.0869 -0.7744 -0.3797
  284MOL0     C38258   6.822   5.153   5.452  1.0171 -0.1185 -0.0457
  284MOL0     C38259   6.412   5.179   5.337 -0.2862  0.3736 -0.0574
  284MOL0     C38260   6.345   5.133   5.221 -0.5251 -0.7546 -0.5311
  284MOL0     C38261   6.204   5.108   5.226 -1.1188  0.6755 -0.1797
  284MOL0     C38262   6.138   5.133   5.342  0.5062  0.2413 -0.4013
  284MOL0     O38263   6.007   5.097   5.344  0.0213  0.2029  0.3070
  284MOL0     C38264   5.962   5.039   5.468 -0.2471  1.0053  0.6510
  284MOL0     C38265   5.826   4.965   5.455 -0.4200  0.4415 -0.0332
  284MOL0     C38266   5.765   4.937   5.594  0.5997 -0.4503  0.0671
  284MOL0     C38267   5.629   4.874   5.580  0.0278 -0.3488 -0.0305
  284MOL0     C38268   5.551   4.871   5.697 -0.5938  0.0686 -0.1065
  284MOL0     C38269   5.498   4.840   5.805 -0.2725 -1.0376  0.8622
  284MOL0     C38270   6.204   5.182   5.456 -0.6367 -0.4897 -0.3259
  284MOL0     C38271   6.339   5.200   5.455  0.0128 -0.8109 -0.0726
  284MOL0     C38272   6.397   5.252   5.582  0.0765 -0.1384  0.2052
  284MOL0     H38273   6.830   5.033   5.134 -0.3873 -0.5251  0.1381
  284MOL0     H38274   7.079   5.039   5.195  1.1464 -0.7351  1.9713
  284MOL0     H38275   7.304   5.315   5.429 -1.1218 -0.2295 -1.5382
  284MOL0     H38276   7.156   5.323   5.511  0.1823  0.4817 -1.3131
  284MOL0     H38277   7.413   5.165   5.558  0.8409  4.0200  0.2652
  284MOL0     H38278   7.263   5.088   5.618 -0.8938 -1.7913 -3.5956
  284MOL0     H38279   7.341   5.176   5.805  0.3370 -0.8904 -1.8607
  284MOL0     H38280   7.223   5.290   5.765  2.0123  2.6224  0.0575
  284MOL0     H38281   7.526   5.323   5.706 -1.0643 -0.9631 -2.4420
  284MOL0     H38282   7.406   5.422   5.629 -1.8359  0.8779  0.1737
  284MOL0     H38283   7.322   5.500   5.843  1.6487  3.3591 -1.3273
  284MOL0     H38284   7.434   5.386   5.923 -0.4860 -0.0064 -0.1847
  284MOL0     H38285   7.529   5.587   5.725 -0.1217 -3.8866 -1.2641
  284MOL0     H38286   7.480   5.658   5.879  3.0487  0.7507 -0.2518
  284MOL0     H38287   7.739   5.608   5.871  1.6689 -0.7122  1.5946
  284MOL0     H38288   7.698   5.443   5.841 -0.6945 -0.8490 -0.4553
  284MOL0     H38289   7.599   5.591   6.097 -0.0318 -0.6376  0.6073
  284MOL0     H38290   7.599   5.418   6.048 -1.3667  0.6576  0.7754
  284MOL0     H38291   7.791   5.690   6.243  2.0223  0.8577  0.8854
  284MOL0     H38292   8.049   5.644   6.395  0.6272 -3.4956  0.7363
  284MOL0     H38293   8.158   5.547   6.294 -2.0940 -2.3880 -3.7613
  284MOL0     H38294   8.188   5.730   6.125  2.4539  1.2369 -0.1647
  284MOL0     H38295   8.070   5.827   6.215 -1.9442 -2.1986 -0.4169
  284MOL0     H38296   8.333   5.726   6.346  1.5531  1.7682 -0.0782
  284MOL0     H38297   8.223   5.849   6.411  2.8592  0.4314  1.3957
  284MOL0     H38298   8.276   6.011   6.251 -0.0213  0.3821 -1.0972
  284MOL0     H38299   8.388   5.904   6.174 -1.6255  1.6037 -1.0636
  284MOL0     H38300   8.635   6.075   6.504  2.8667 -1.3979  1.1608
  284MOL0     H38301   8.859   6.001   6.512  0.1168 -3.9783  1.9363
  284MOL0     H38302   9.233   5.682   6.312 -1.6977  2.7268 -2.3141
  284MOL0     H38303   9.497   5.686   6.304  0.7201  1.7181 -1.9788
  284MOL0     H38304   9.699   6.036   6.236  0.7094  0.9384  0.6924
  284MOL0     H38305   9.696   6.079   6.397 -1.3197  0.0644  0.2072
  284MOL0     H38306   9.913   6.071   6.332 -1.6795  0.6371 -0.6656
  284MOL0     H38307   9.890   5.919   6.431 -2.4742  0.4600  2.1485
  284MOL0     H38308   9.874   5.786   6.225 -1.0646  1.4477  2.1628
  284MOL0     H38309   9.882   5.935   6.126  0.5751  4.6756  1.5009
  284MOL0     H38310  10.115   5.851   6.301 -0.3369  3.3240  2.1910
  284MOL0     H38311  10.109   5.998   6.208  3.2957 -1.1145  2.9665
  284MOL0     H38312  10.055   5.857   6.010 -0.1074  2.7413  1.9384
  284MOL0     H38313  10.132   5.722   6.105  0.5310 -0.0154  0.3517
  284MOL0     H38314  10.259   5.981   6.043 -0.4502  0.1751  1.4401
  284MOL0     H38315  10.332   5.839   6.137  0.5818 -0.8621  0.1419
  284MOL0     H38316  10.250   5.837   5.848  0.0196  3.5110  0.3250
  284MOL0     H38317  10.323   5.701   5.948  0.3584 -0.1494 -1.5697
  284MOL0     H38318  10.530   5.837   5.964 -0.0269  0.1946 -0.1203
  284MOL0     H38319  10.493   5.793   5.798  1.1671 -0.6374  1.0132
  284MOL0     H38320   9.497   6.080   6.458 -1.5227  2.7046 -2.2106
  284MOL0     H38321   9.255   6.086   6.446  0.3003 -0.8953  2.4865
  284MOL0     H38322   8.792   5.706   6.214 -1.7073  0.9554 -3.8716
  284MOL0     H38323   8.541   5.739   6.231 -2.3401  0.8959  2.4189
  284MOL0     H38324   6.987   5.198   5.570 -0.5067 -0.4839 -0.3603
  284MOL0     H38325   6.757   5.167   5.537 -0.3786 -3.5344 -0.4128
  284MOL0     H38326   6.406   5.119   5.132 -0.3836  2.1543 -0.9857
  284MOL0     H38327   6.153   5.055   5.146 -0.5106  0.9386 -0.7473
  284MOL0     H38328   5.952   5.121   5.539  0.6675  1.7054  0.0030
  284MOL0     H38329   6.037   4.969   5.506 -1.8929 -1.7558 -0.8225
  284MOL0     H38330   5.848   4.875   5.396  0.0492  1.6060 -1.7243
  284MOL0     H38331   5.753   5.025   5.400 -0.1300  2.1390  1.3472
  284MOL0     H38332   5.760   5.033   5.645  2.4592  1.4578 -2.9826
  284MOL0     H38333   5.827   4.867   5.651 -0.0844  0.3090  1.8159
  284MOL0     H38334   5.567   4.917   5.501 -1.6110  2.1701  2.4834
  284MOL0     H38335   5.642   4.769   5.552 -0.8384 -0.6123  0.5191
  284MOL0     H38336   5.431   4.817   5.886 -1.5128 -1.5328 -0.2645
  284MOL0     H38337   6.147   5.206   5.545 -0.0972 -3.0073  0.7796
  284MOL0     H38338   6.488   5.193   5.592  0.3803  0.1939 -0.4954
  284MOL0     H38339   6.414   5.359   5.568  0.4073 -0.1878  0.2227
  284MOL0     H38340   6.332   5.240   5.669  1.2298  1.3176  1.3320
  285MOL0     O38341   6.077  10.458   9.861 -0.0431  0.0956 -0.2071
  285MOL0     C38342   6.073  10.471   9.739  1.0984  0.5329 -0.2561
  285MOL0     O38343   6.176  10.452   9.653 -0.0048 -0.2052 -0.0762
  285MOL0     C38344   6.302  10.432   9.701 -0.1503  0.1681 -0.3001
  285MOL0     C38345   6.379  10.322   9.656  0.0782 -0.0388 -0.0856
  285MOL0     C38346   6.509  10.297   9.709 -0.2239 -0.0296 -1.2805
  285MOL0     C38347   6.565  10.391   9.804 -0.7241  0.7325 -0.3336
  285MOL0     O38348   6.695  10.368   9.848  0.2136 -0.1610 -0.2472
  285MOL0     C38349   6.772  10.476   9.898  0.1057 -0.3739 -0.1801
  285MOL0     C38350   6.890  10.427   9.975 -0.5718  0.4694  0.0616
  285MOL0     C38351   7.025  10.452   9.895 -0.3047  0.2914  0.2997
  285MOL0     C38352   7.144  10.405   9.986 -1.5309  0.2292 -0.5241
  285MOL0     C38353   7.279  10.414   9.916 -0.1778 -0.2217  0.0751
  285MOL0     C38354   7.352  10.542   9.931  0.5437 -0.9619 -0.3355
  285MOL0     C38355   7.467  10.539   9.826  0.1551 -0.3841 -0.6406
  285MOL0     C38356   7.536  10.675   9.825 -0.4078  0.0699  0.6373
  285MOL0     N38357   7.588  10.698   9.688 -0.3561 -0.0934  0.5118
  285MOL0     C38358   7.649  10.818   9.648 -0.1960  0.4646  0.6709
  285MOL0     C38359   7.720  10.778   9.537 -0.4518  0.0956 -0.0728
  285MOL0     C38360   7.786  10.872   9.448  0.2971  0.5057  1.0773
  285MOL0     C38361   7.936  10.886   9.479  0.6027  0.4067  0.9327
  285MOL0     C38362   7.972  10.945   9.607  0.0510  0.6415 -0.1954
  285MOL0     C38363   8.122  10.989   9.615  0.1271  0.3377 -1.0920
  285MOL0     O38364   8.194  10.866   9.646 -0.6171 -0.7776  0.8344
  285MOL0     C38365   8.323  10.840   9.597 -0.6850 -0.5409  0.3560
  285MOL0     C38366   8.388  10.918   9.500 -0.2603 -0.2308 -0.1269
  285MOL0     C38367   8.529  10.897   9.478  0.3388 -0.3809  0.1400
  285MOL0     C38368   8.600  10.806   9.556  0.1718 -0.1740 -0.2803
  285MOL0     C38369   8.749  10.793   9.539 -0.0498  0.6888  0.1240
  285MOL0     O38370   8.809  10.864   9.440 -0.7571  0.0042 -0.3621
  285MOL0     C38371   8.945  10.845   9.404  0.2069  0.5793 -0.0616
  285MOL0     C38372   9.046  10.794   9.493 -0.0976 -0.2315  0.2790
  285MOL0     C38373   9.181  10.769   9.452  0.1988  0.3980 -0.5978
  285MOL0     C38374   9.205  10.799   9.316 -0.5837  0.0580  1.1268
  285MOL0     O38375   9.337  10.777   9.269 -0.2732  0.3923  0.8802
  285MOL0     C38376   9.352  10.727   9.138  0.7438 -0.0268  1.0306
  285MOL0     C38377   9.489  10.675   9.117  0.3053 -0.4336 -0.3422
  285MOL0     C38378   9.600  10.778   9.169  0.2664 -0.0173 -0.0583
  285MOL0     C38379   9.716  10.791   9.064  0.3581  0.6260 -0.8034
  285MOL0     C38380   9.804  10.909   9.109  0.7866  0.0972 -1.0698
  285MOL0     C38381   9.886  10.959   8.984  0.6233 -0.2252 -0.5331
  285MOL0     C38382   9.989  10.855   8.929  0.1094 -0.5233  0.4251
  285MOL0     C38383  10.080  10.797   9.045  0.4303 -0.3723  0.0890
  285MOL0    Cl38384  10.185  10.927   9.108  0.1535 -0.2580 -0.2800
  285MOL0     C38385   9.106  10.843   9.229  0.2556 -0.0051 -0.0856
  285MOL0     C38386   8.978  10.865   9.271 -0.0515  0.4022  0.0417
  285MOL0     O38387   8.799  10.712   9.621  0.3804  0.5297  0.1616
  285MOL0     C38388   8.530  10.739   9.664 -0.8530  0.5313  0.8481
  285MOL0     C38389   8.394  10.754   9.676 -0.2531 -0.0766 -0.7436
  285MOL0     N38390   7.705  10.646   9.513  0.1773  0.8763 -0.5948
  285MOL0     N38391   7.637  10.599   9.607  0.1254 -0.2154 -0.3969
  285MOL0     C38392   6.485  10.494   9.848  0.1809  0.3029  0.2524
  285MOL0     C38393   6.361  10.515   9.793 -0.1861 -0.4798 -0.2236
  285MOL0     C38394   5.929  10.468   9.677  0.6649  0.2766 -0.1701
  285MOL0     C38395   5.916  10.411   9.543 -0.6959  0.4847 -0.3851
  285MOL0     C38396   5.791  10.393   9.486  0.6623  0.7803 -0.2293
  285MOL0     C38397   5.665  10.413   9.553 -0.0092  0.2584  0.1693
  285MOL0     O38398   5.542  10.383   9.489  0.7210 -0.3590 -0.0213
  285MOL0     C38399   5.413  10.435   9.545 -0.7656  0.2805  0.0882
  285MOL0     C38400   5.302  10.357   9.469  0.4377 -0.2898  1.5721
  285MOL0     C38401   5.173  10.376   9.547 -0.9084 -0.2701 -0.0835
  285MOL0     C38402   5.048  10.292   9.507  0.9145  0.4384  0.6269
  285MOL0     C38403   5.077  10.144   9.516  0.6380  0.5111 -0.8559
  285MOL0     C38404   5.107  10.031   9.516  0.0015  0.6971 -0.8571
  285MOL0     C38405   5.679  10.470   9.678 -0.7734  0.3641  0.8942
  285MOL0     C38406   5.803  10.513   9.744  0.0999  0.3475  0.7202
  285MOL0     C38407   5.782  10.566   9.881 -0.6907  0.7006  0.0330
  285MOL0     H38408   6.327  10.243   9.603 -2.5545 -0.7573  3.2296
  285MOL0     H38409   6.562  10.206   9.685 -3.2866 -2.1624 -0.5329
  285MOL0     H38410   6.806  10.548   9.823  0.4650 -2.3993 -2.0811
  285MOL0     H38411   6.705  10.524   9.970 -2.0030  0.7736 -2.7193
  285MOL0     H38412   6.881  10.323  10.007 -1.6905  0.5563  0.0529
  285MOL0     H38413   6.906  10.495  10.059 -2.3058  1.5371 -0.4269
  285MOL0     H38414   7.035  10.558   9.871 -1.3705 -0.0174 -1.7038
  285MOL0     H38415   7.019  10.408   9.795 -2.7655  3.4703 -1.1507
  285MOL0     H38416   7.134  10.447  10.086  1.6460 -1.5733  0.7208
  285MOL0     H38417   7.123  10.300  10.008 -0.6154  0.6630  3.0332
  285MOL0     H38418   7.340  10.332   9.953 -0.7775 -0.0700  1.4628
  285MOL0     H38419   7.260  10.392   9.810 -2.0921 -3.6024  0.9816
  285MOL0     H38420   7.283  10.626   9.923  1.7667  0.2984  1.4190
  285MOL0     H38421   7.389  10.551  10.034  1.7766 -0.3848 -0.8053
  285MOL0     H38422   7.404  10.535   9.737 -2.2440  3.2532  0.6501
  285MOL0     H38423   7.549  10.468   9.840  1.9719  1.6473 -0.3672
  285MOL0     H38424   7.472  10.762   9.842  0.0570  0.6723 -0.5845
  285MOL0     H38425   7.620  10.676   9.896 -1.5783 -1.8274  2.1604
  285MOL0     H38426   7.628  10.914   9.694  0.5144  0.4219  1.1047
  285MOL0     H38427   7.771  10.836   9.346  1.2959  3.5282 -0.2666
  285MOL0     H38428   7.732  10.967   9.443 -1.0289 -0.2706 -0.0044
  285MOL0     H38429   7.983  10.788   9.474  0.2868  0.2069  1.8096
  285MOL0     H38430   7.981  10.937   9.393 -2.8681  0.3139 -1.1397
  285MOL0     H38431   7.949  10.882   9.693  0.0290  1.5806  0.4991
  285MOL0     H38432   7.909  11.034   9.610  0.1621  0.7792 -1.3610
  285MOL0     H38433   8.142  11.064   9.692  2.9924 -1.3796 -0.0021
  285MOL0     H38434   8.158  11.033   9.521 -0.6256  1.3742 -0.9078
  285MOL0     H38435   8.342  10.989   9.433  4.0446  2.1051 -0.9604
  285MOL0     H38436   8.571  10.968   9.407  1.1849 -0.3988  0.6009
  285MOL0     H38437   9.028  10.785   9.600  0.5986  0.2961  0.4523
  285MOL0     H38438   9.256  10.716   9.510 -2.8289 -1.2809  2.1761
  285MOL0     H38439   9.285  10.646   9.109  1.9853 -0.7079 -0.0374
  285MOL0     H38440   9.336  10.813   9.072  1.2452 -1.1305 -0.5862
  285MOL0     H38441   9.496  10.579   9.169 -4.4763 -0.5260  0.6134
  285MOL0     H38442   9.504  10.660   9.010  1.0144 -1.2937 -0.1326
  285MOL0     H38443   9.563  10.878   9.195  0.7239  0.3909 -0.9253
  285MOL0     H38444   9.650  10.738   9.257 -0.9329 -1.2639  0.0859
  285MOL0     H38445   9.674  10.818   8.966  1.1776 -0.1307 -1.3789
  285MOL0     H38446   9.760  10.692   9.050 -2.4365 -0.6728 -0.9744
  285MOL0     H38447   9.858  10.884   9.201  1.5125  3.1394 -0.5523
  285MOL0     H38448   9.742  10.995   9.136  0.3360 -0.6679  0.4503
  285MOL0     H38449   9.811  10.981   8.908 -0.4009 -3.8829 -0.8038
  285MOL0     H38450   9.937  11.053   9.006  0.2987 -0.7653  3.4557
  285MOL0     H38451  10.059  10.892   8.853 -0.3798 -4.3743 -2.1778
  285MOL0     H38452   9.935  10.780   8.872 -1.6535  0.6206  0.5247
  285MOL0     H38453  10.024  10.742   9.121  2.1351 -1.1859  0.8073
  285MOL0     H38454  10.144  10.720   9.001 -0.7726 -1.1722 -0.3137
  285MOL0     H38455   9.141  10.889   9.137  2.4542  0.1112  0.7389
  285MOL0     H38456   8.908  10.912   9.202 -0.6196  0.3071  0.5449
  285MOL0     H38457   8.599  10.690   9.732  0.5959  2.4495  0.8573
  285MOL0     H38458   8.346  10.704   9.759  0.1393  0.5743 -0.1167
  285MOL0     H38459   6.520  10.579   9.905  0.5682 -0.8125  1.7262
  285MOL0     H38460   6.310  10.608   9.818  1.0532  0.0186  0.5523
  285MOL0     H38461   5.997  10.370   9.483 -1.2755  0.2674 -1.0248
  285MOL0     H38462   5.782  10.358   9.384 -5.3124 -2.2726  0.8780
  285MOL0     H38463   5.408  10.543   9.530 -1.8735  0.7198  2.8799
  285MOL0     H38464   5.415  10.416   9.653  0.7479 -1.6227 -0.2112
  285MOL0     H38465   5.327  10.251   9.464 -2.5554 -1.1238  2.3614
  285MOL0     H38466   5.305  10.391   9.366 -0.0307 -1.8125  1.0298
  285MOL0     H38467   5.146  10.480   9.529  0.9974 -0.2038 -3.4181
  285MOL0     H38468   5.192  10.370   9.654 -0.6909 -1.4960 -0.1753
  285MOL0     H38469   4.968  10.323   9.575 -0.2212 -0.2012 -0.3745
  285MOL0     H38470   5.015  10.314   9.406  0.9745  1.9927  0.9137
  285MOL0     H38471   5.143   9.931   9.523  3.2969  1.7849 -0.2166
  285MOL0     H38472   5.591  10.484   9.740 -1.9425  2.2969 -1.0352
  285MOL0     H38473   5.772  10.476   9.942  0.6888  0.1244 -0.5520
  285MOL0     H38474   5.862  10.634   9.912  0.1221  1.0677 -2.6350
  285MOL0     H38475   5.689  10.617   9.908 -1.3086 -1.3346  2.1083
  286MOL0     O38476   0.064   7.588   0.249  0.2714 -0.5225  0.1886
  286MOL0     C38477  -0.011   7.568   0.341 -0.6327  0.5467  0.2326
  286MOL0     O38478   0.020   7.527   0.471 -0.0002  0.3584  0.9001
  286MOL0     C38479   0.150   7.499   0.501 -0.0162 -0.3287 -0.2374
  286MOL0     C38480   0.236   7.608   0.520 -0.2742  0.3599 -0.8327
  286MOL0     C38481   0.362   7.589   0.563 -0.6023  0.2987 -0.2335
  286MOL0     C38482   0.410   7.469   0.603 -0.5287  0.2754 -0.3717
  286MOL0     O38483   0.536   7.462   0.661  0.5272 -0.6795  0.3244
  286MOL0     C38484   0.604   7.338   0.643  0.0898 -0.2888  0.1262
  286MOL0     C38485   0.751   7.354   0.700 -0.8886  0.0540  0.2213
  286MOL0     C38486   0.834   7.215   0.686 -0.3566 -0.9418 -0.5867
  286MOL0     C38487   0.797   7.125   0.804  0.5757  0.3766 -0.3741
  286MOL0     C38488   0.912   7.031   0.854  1.0714  0.1849 -0.1276
  286MOL0     C38489   0.923   6.915   0.753  0.3612 -0.3266  0.0484
  286MOL0     C38490   1.037   6.823   0.804 -0.7386  0.0164 -0.3458
  286MOL0     C38491   1.104   6.738   0.696  0.3138  0.2649  0.1638
  286MOL0     N38492   1.181   6.815   0.592  0.7235  0.1480  0.4974
  286MOL0     C38493   1.283   6.749   0.524  0.3317 -0.2003 -0.0141
  286MOL0     C38494   1.306   6.822   0.414 -0.4431 -0.6659 -0.2636
  286MOL0     C38495   1.394   6.787   0.306 -0.8013 -0.0871  0.4844
  286MOL0     C38496   1.524   6.712   0.346 -0.4353 -0.2628  0.0473
  286MOL0     C38497   1.633   6.799   0.395 -0.6331  0.7757  0.2104
  286MOL0     C38498   1.769   6.723   0.428  0.3485 -0.0366  0.4997
  286MOL0     O38499   1.869   6.822   0.437 -0.7537 -0.2618 -0.6023
  286MOL0     C38500   1.995   6.765   0.429 -0.7208 -0.4396 -0.2060
  286MOL0     C38501   2.098   6.848   0.373 -0.0471 -0.3073  0.2920
  286MOL0     C38502   2.229   6.799   0.346  0.5483 -0.1516  0.5058
  286MOL0     C38503   2.266   6.673   0.383 -0.6256  0.1156  0.2413
  286MOL0     C38504   2.396   6.615   0.344  0.2009 -0.2670 -0.3449
  286MOL0     O38505   2.476   6.711   0.277  0.8673 -0.1056  0.5548
  286MOL0     C38506   2.590   6.655   0.227  0.3275  0.3607  0.3028
  286MOL0     C38507   2.709   6.674   0.290  0.1735  0.0494  0.2010
  286MOL0     C38508   2.822   6.623   0.230 -0.8669  0.2948 -0.0130
  286MOL0     C38509   2.820   6.546   0.114  0.0698 -0.5698  0.8666
  286MOL0     O38510   2.926   6.494   0.044 -0.3141  0.6660  0.1541
  286MOL0     C38511   3.067   6.511   0.090 -0.2314  0.2137 -0.1069
  286MOL0     C38512   3.157   6.460  -0.025 -0.4430 -0.1323  1.0503
  286MOL0     C38513   3.301   6.502  -0.018 -0.1852  0.4544 -1.2010
  286MOL0     C38514   3.323   6.654  -0.035  0.0293 -0.2436 -0.2893
  286MOL0     C38515   3.464   6.690  -0.099  0.0998  1.2117 -0.4221
  286MOL0     C38516   3.496   6.843  -0.100 -0.1118 -0.1904  0.1081
  286MOL0     C38517   3.432   6.913  -0.225 -0.5684 -0.4299 -0.1167
  286MOL0     C38518   3.318   7.009  -0.183 -0.3885  0.6790 -0.5315
  286MOL0    Cl38519   3.384   7.150  -0.089  0.5987 -0.0049  0.1143
  286MOL0     C38520   2.700   6.533   0.051  0.2549  0.0841  0.3135
  286MOL0     C38521   2.586   6.597   0.106 -0.0823  0.3652  0.5365
  286MOL0     O38522   2.422   6.499   0.362 -0.2579 -0.1146  0.0793
  286MOL0     C38523   2.167   6.586   0.430  0.9524 -0.2211 -0.5997
  286MOL0     C38524   2.037   6.639   0.459 -0.6777  0.6606  0.1510
  286MOL0     N38525   1.212   6.921   0.405  0.0312  0.4010 -0.4733
  286MOL0     N38526   1.139   6.913   0.516 -0.8643 -0.6735  0.2254
  286MOL0     C38527   0.337   7.357   0.573  0.3225 -0.0346 -0.1731
  286MOL0     C38528   0.209   7.373   0.524  0.7169  0.5453  0.0218
  286MOL0     C38529  -0.161   7.589   0.310  0.2795  0.1875  0.0365
  286MOL0     C38530  -0.255   7.497   0.353  0.1158 -0.1727  0.0733
  286MOL0     C38531  -0.396   7.515   0.335 -0.2211 -0.0287  0.1318
  286MOL0     C38532  -0.436   7.621   0.255  1.0981 -0.5945 -0.5148
  286MOL0     O38533  -0.561   7.647   0.222  0.1221  0.2145 -1.0857
  286MOL0     C38534  -0.653   7.534   0.199 -0.2064 -0.6219 -0.6198
  286MOL0     C38535  -0.793   7.568   0.259  0.0699  0.1108 -0.2997
  286MOL0     C38536  -0.867   7.692   0.209  0.6978 -0.9748  0.3568
  286MOL0     C38537  -0.884   7.679   0.054 -0.1820  1.7506  0.6776
  286MOL0     C38538  -0.942   7.799  -0.008 -0.3377 -0.6216 -0.0032
  286MOL0     C38539  -0.987   7.903  -0.058 -0.1958 -0.3538  0.1044
  286MOL0     C38540  -0.337   7.714   0.211  0.2662 -0.6773 -0.2022
  286MOL0     C38541  -0.206   7.704   0.239  0.4527 -0.4685 -0.2247
  286MOL0     C38542  -0.106   7.821   0.213 -0.2676  0.2555 -1.2372
  286MOL0     H38543   0.207   7.712   0.510  1.6858  1.3042  1.9975
  286MOL0     H38544   0.417   7.680   0.583 -0.5652  0.0954  0.6007
  286MOL0     H38545   0.551   7.255   0.692 -0.6050  0.0102 -0.1092
  286MOL0     H38546   0.596   7.305   0.538 -1.2774  1.5058 -0.3798
  286MOL0     H38547   0.755   7.398   0.800  0.5521 -0.4578  0.4205
  286MOL0     H38548   0.801   7.426   0.635  0.0360  1.9979  2.8933
  286MOL0     H38549   0.942   7.232   0.686 -0.3951 -0.3475  1.8164
  286MOL0     H38550   0.808   7.162   0.594 -3.4414 -2.8496  1.2256
  286MOL0     H38551   0.758   7.186   0.885 -0.4998 -0.6910 -0.0655
  286MOL0     H38552   0.704   7.074   0.779  1.0881 -0.8117  0.0245
  286MOL0     H38553   1.007   7.086   0.853 -0.6266  3.3107 -0.6514
  286MOL0     H38554   0.889   6.993   0.954  1.2876  0.8511  0.1823
  286MOL0     H38555   0.838   6.849   0.734  1.0618 -1.1972 -0.1104
  286MOL0     H38556   0.934   6.960   0.654 -3.9340 -0.9690 -0.9521
  286MOL0     H38557   0.998   6.751   0.877 -1.3015  1.1990  0.5574
  286MOL0     H38558   1.118   6.877   0.854  0.2771  1.5915 -3.4135
  286MOL0     H38559   1.176   6.675   0.750 -0.4447 -0.0015  0.8737
  286MOL0     H38560   1.029   6.677   0.644  0.8544  1.2590 -1.9199
  286MOL0     H38561   1.315   6.645   0.533  2.1508  0.4865  2.2282
  286MOL0     H38562   1.336   6.721   0.241 -2.1883  3.5936 -2.3689
  286MOL0     H38563   1.420   6.865   0.234  1.9543 -0.8605  0.5214
  286MOL0     H38564   1.490   6.633   0.415 -1.5399  0.6253  0.5577
  286MOL0     H38565   1.564   6.659   0.259 -0.1921  1.0892 -0.6825
  286MOL0     H38566   1.604   6.853   0.486 -0.3432 -0.7686  1.2419
  286MOL0     H38567   1.644   6.873   0.315  1.5709 -2.0684 -2.3563
  286MOL0     H38568   1.791   6.638   0.363  0.2655 -0.6077  1.1994
  286MOL0     H38569   1.750   6.669   0.521 -2.5018 -2.7846 -1.4600
  286MOL0     H38570   2.076   6.952   0.357  2.6722  0.2062 -0.6608
  286MOL0     H38571   2.303   6.861   0.297  0.2297  0.6177  0.9708
  286MOL0     H38572   2.709   6.731   0.382 -2.7666  1.2343 -0.4315
  286MOL0     H38573   2.912   6.645   0.286 -1.4435  2.5890  0.1087
  286MOL0     H38574   3.097   6.613   0.114  1.3376 -0.4410  0.8550
  286MOL0     H38575   3.076   6.450   0.180  2.1902  0.6350 -0.0126
  286MOL0     H38576   3.155   6.351  -0.039  0.1754 -0.9857  5.8548
  286MOL0     H38577   3.106   6.507  -0.110 -2.7433  1.1032  2.9922
  286MOL0     H38578   3.326   6.467   0.083 -0.1870 -1.9436 -1.9618
  286MOL0     H38579   3.342   6.442  -0.099 -1.9103  0.6932 -2.3094
  286MOL0     H38580   3.303   6.708   0.058 -0.0192 -2.2979  0.9472
  286MOL0     H38581   3.250   6.695  -0.106 -1.1548 -0.7452  0.5987
  286MOL0     H38582   3.468   6.652  -0.202 -3.0953 -1.7228  0.3669
  286MOL0     H38583   3.548   6.658  -0.036  0.3759  3.3103  0.3661
  286MOL0     H38584   3.483   6.893  -0.004  0.4256 -2.9325  1.7098
  286MOL0     H38585   3.604   6.854  -0.111 -0.0421 -0.8540  0.0496
  286MOL0     H38586   3.395   6.833  -0.289  1.3691 -0.6600 -1.0234
  286MOL0     H38587   3.507   6.971  -0.280  0.1167 -0.5325  0.6938
  286MOL0     H38588   3.265   7.043  -0.272 -2.2060  0.5136  0.4357
  286MOL0     H38589   3.255   6.947  -0.118 -1.9818  0.9031 -1.7900
  286MOL0     H38590   2.695   6.488  -0.048  1.3728 -1.7882  1.0527
  286MOL0     H38591   2.493   6.599   0.050  1.3035 -0.6436 -1.9118
  286MOL0     H38592   2.193   6.482   0.443  1.4949 -0.2215 -1.5923
  286MOL0     H38593   1.967   6.568   0.502  0.7697 -1.7451 -1.2490
  286MOL0     H38594   0.373   7.256   0.589  1.8723 -0.1729 -3.7072
  286MOL0     H38595   0.146   7.285   0.515  1.8814 -0.5426  1.7035
  286MOL0     H38596  -0.212   7.411   0.403 -2.0031 -1.2748  0.1006
  286MOL0     H38597  -0.462   7.446   0.387  0.3136 -0.5552  0.1210
  286MOL0     H38598  -0.626   7.443   0.254 -0.3246 -0.1232  0.2910
  286MOL0     H38599  -0.667   7.513   0.093 -1.3546  1.9294 -1.0533
  286MOL0     H38600  -0.788   7.584   0.367 -4.0055  2.2327 -0.2479
  286MOL0     H38601  -0.863   7.486   0.243 -0.5753  0.3441  1.1875
  286MOL0     H38602  -0.800   7.776   0.226 -2.6863  1.7252  1.4444
  286MOL0     H38603  -0.961   7.712   0.260  0.4284 -0.4731 -0.3190
  286MOL0     H38604  -0.786   7.656   0.011 -0.8150 -0.3092  0.2347
  286MOL0     H38605  -0.940   7.588   0.030  2.1660  0.3631  0.1865
  286MOL0     H38606  -1.026   7.993  -0.099  0.2493 -0.6654 -1.0338
  286MOL0     H38607  -0.380   7.787   0.145 -0.2578  0.2664  1.1403
  286MOL0     H38608  -0.031   7.840   0.290  1.8216 -0.0535 -3.0948
  286MOL0     H38609  -0.044   7.777   0.134 -0.4895  2.6139 -2.8156
  286MOL0     H38610  -0.148   7.915   0.178  1.1091  1.5176  0.3394
  287MOL0     O38611   7.258   2.954   0.069 -0.4029  0.4814 -1.2988
  287MOL0     C38612   7.286   2.849   0.130  0.5598  0.5101  1.2681
  287MOL0     O38613   7.410   2.798   0.128 -0.2708  0.1450 -0.1808
  287MOL0     C38614   7.520   2.873   0.087 -0.5310  0.3458 -0.2729
  287MOL0     C38615   7.553   2.906  -0.053 -0.0459  1.0296 -0.1050
  287MOL0     C38616   7.671   2.977  -0.090  0.9929  0.0771  0.2228
  287MOL0     C38617   7.748   3.029   0.010 -0.4425  0.0074  0.3263
  287MOL0     O38618   7.862   3.103  -0.017 -0.3251  0.2708  0.2190
  287MOL0     C38619   7.877   3.176  -0.145 -0.0302  0.1062  0.2992
  287MOL0     C38620   7.981   3.287  -0.116 -0.4872 -0.4605 -0.4595
  287MOL0     C38621   8.123   3.227  -0.124 -0.0269 -0.0162  0.2218
  287MOL0     C38622   8.183   3.254  -0.265 -0.4054 -0.0955 -0.0224
  287MOL0     C38623   8.342   3.226  -0.269  1.1525  0.8685  0.8762
  287MOL0     C38624   8.427   3.313  -0.180  0.4214  0.1538  1.1070
  287MOL0     C38625   8.481   3.439  -0.258 -1.1789  0.1449 -0.0926
  287MOL0     C38626   8.581   3.519  -0.170  0.3311 -0.1223  0.4189
  287MOL0     N38627   8.661   3.629  -0.239  0.0249  0.1112  0.1894
  287MOL0     C38628   8.798   3.631  -0.227  0.3119  0.0127 -1.1846
  287MOL0     C38629   8.835   3.736  -0.299  0.4430 -0.2503  0.0033
  287MOL0     C38630   8.982   3.778  -0.309  0.6965 -0.3945 -0.5867
  287MOL0     C38631   8.999   3.832  -0.453  0.4885  0.2871 -0.9692
  287MOL0     C38632   9.114   3.932  -0.467  0.4460  0.3768 -0.4136
  287MOL0     C38633   9.117   4.000  -0.600  0.0176 -0.1108  0.3820
  287MOL0     O38634   9.151   3.920  -0.715  0.4468 -0.2198 -0.3316
  287MOL0     C38635   9.282   3.893  -0.742  0.7826 -1.0846  0.0523
  287MOL0     C38636   9.386   3.914  -0.659 -0.2356 -0.4677 -0.0486
  287MOL0     C38637   9.514   3.905  -0.702  0.6116 -0.1659  0.4627
  287MOL0     C38638   9.546   3.851  -0.830  0.3313  0.5178  0.3992
  287MOL0     C38639   9.686   3.857  -0.879 -0.0714 -0.4010  0.5265
  287MOL0     O38640   9.769   3.927  -0.802  0.5225  0.2848  0.4681
  287MOL0     C38641   9.883   3.982  -0.848 -0.3065 -0.5101 -0.1240
  287MOL0     C38642   9.939   3.979  -0.976 -0.1011  0.5504 -1.2271
  287MOL0     C38643  10.067   4.017  -1.005 -0.5741  0.5440 -0.3320
  287MOL0     C38644  10.143   4.083  -0.912  0.9842 -0.6647 -0.3824
  287MOL0     O38645  10.266   4.126  -0.954 -0.5735 -0.0542  0.3778
  287MOL0     C38646  10.358   4.175  -0.852  0.1480  0.1939  0.6625
  287MOL0     C38647  10.494   4.193  -0.917 -0.1001  0.5367 -0.6294
  287MOL0     C38648  10.594   4.182  -0.791  0.6069  1.0362 -0.5420
  287MOL0     C38649  10.734   4.203  -0.832 -0.1030 -0.6614 -0.1175
  287MOL0     C38650  10.834   4.205  -0.706  0.5213  0.4344 -0.5981
  287MOL0     C38651  10.976   4.222  -0.752 -1.4731 -0.1281  0.0653
  287MOL0     C38652  11.023   4.090  -0.819  0.2818 -0.4830  0.7638
  287MOL0     C38653  11.179   4.087  -0.832  1.4507  0.8364 -1.0905
  287MOL0    Cl38654  11.264   4.226  -0.915 -0.2235 -0.2602  0.5424
  287MOL0     C38655  10.086   4.114  -0.786  0.8063  0.7653 -0.9768
  287MOL0     C38656   9.959   4.056  -0.758  0.9063  0.2522  0.0564
  287MOL0     O38657   9.699   3.829  -1.001  0.3965  0.0706  0.2515
  287MOL0     C38658   9.435   3.812  -0.908 -0.1320  0.3532 -0.3845
  287MOL0     C38659   9.309   3.853  -0.875  0.1761  0.7497  0.0374
  287MOL0     N38660   8.717   3.808  -0.333  0.3755  0.1361 -0.5146
  287MOL0     N38661   8.617   3.741  -0.299  0.8632 -0.4934 -0.2580
  287MOL0     C38662   7.718   2.997   0.145  0.1861  0.1125  0.3207
  287MOL0     C38663   7.604   2.922   0.183 -0.8615 -0.2921  0.6381
  287MOL0     C38664   7.187   2.776   0.213 -0.4262 -0.0670 -0.4024
  287MOL0     C38665   7.198   2.638   0.218 -0.8482  0.1008 -0.0276
  287MOL0     C38666   7.116   2.573   0.304 -0.0106  0.6343 -0.0267
  287MOL0     C38667   7.016   2.637   0.379 -0.9102  0.0447 -1.0603
  287MOL0     O38668   6.944   2.565   0.475  0.0943  0.6691 -0.4365
  287MOL0     C38669   6.856   2.634   0.563 -0.6649 -0.0198 -0.2316
  287MOL0     C38670   6.773   2.533   0.656 -0.8624 -0.7583  0.0679
  287MOL0     C38671   6.725   2.413   0.575 -0.3651  0.3173 -0.1225
  287MOL0     C38672   6.615   2.330   0.636 -0.1571 -0.1734 -0.1610
  287MOL0     C38673   6.648   2.285   0.772 -0.4265 -0.0423  0.0505
  287MOL0     C38674   6.690   2.249   0.885 -0.1681 -0.4923  0.3297
  287MOL0     C38675   6.995   2.774   0.364 -0.3689  0.1130 -0.0888
  287MOL0     C38676   7.076   2.840   0.280 -1.0880  0.0241  0.1691
  287MOL0     C38677   7.045   2.978   0.254 -0.7098 -1.1792  0.6186
  287MOL0     H38678   7.487   2.868  -0.131 -2.2628 -1.1058  2.5907
  287MOL0     H38679   7.692   2.995  -0.195 -0.2271 -0.6053 -0.1650
  287MOL0     H38680   7.914   3.112  -0.226 -2.2263 -1.5674  0.5275
  287MOL0     H38681   7.784   3.227  -0.171 -0.3551 -0.8058 -0.3953
  287MOL0     H38682   7.958   3.329  -0.018 -0.6205  1.7418 -1.3933
  287MOL0     H38683   7.979   3.373  -0.184  1.1785 -0.8817 -1.0982
  287MOL0     H38684   8.120   3.120  -0.103  0.7614 -0.4926 -1.8869
  287MOL0     H38685   8.185   3.278  -0.049 -0.5299 -3.5954  3.3896
  287MOL0     H38686   8.126   3.197  -0.340 -1.4940 -0.1516  0.8208
  287MOL0     H38687   8.171   3.360  -0.289 -0.0301  0.0970  0.6118
  287MOL0     H38688   8.354   3.121  -0.240  1.2101  0.3902 -0.7838
  287MOL0     H38689   8.371   3.238  -0.373  0.8559  0.2700  0.7204
  287MOL0     H38690   8.376   3.344  -0.088  0.7971  0.1901  1.3034
  287MOL0     H38691   8.509   3.247  -0.152  0.0967 -0.3373  0.9022
  287MOL0     H38692   8.396   3.498  -0.294  0.4240  1.4602 -1.9397
  287MOL0     H38693   8.529   3.410  -0.352 -4.9726  1.4391 -2.6802
  287MOL0     H38694   8.532   3.586  -0.100 -2.2871  1.0477 -2.3207
  287MOL0     H38695   8.651   3.450  -0.121  1.9134  2.7035  2.3968
  287MOL0     H38696   8.860   3.552  -0.185 -0.7755 -1.3804 -2.0733
  287MOL0     H38697   8.998   3.858  -0.236  2.3132 -1.6995  0.5548
  287MOL0     H38698   9.061   3.704  -0.295  4.0898  2.7716 -1.3944
  287MOL0     H38699   9.004   3.745  -0.519 -2.0785 -0.9255  0.3079
  287MOL0     H38700   8.909   3.888  -0.480  0.9805  2.2851  1.2024
  287MOL0     H38701   9.208   3.877  -0.460  0.6309  0.9541  2.8778
  287MOL0     H38702   9.108   4.004  -0.385  0.0904 -3.9283  3.7368
  287MOL0     H38703   9.187   4.083  -0.590  1.5801 -1.3733  0.4061
  287MOL0     H38704   9.019   4.046  -0.616 -0.1334 -1.2025 -2.5441
  287MOL0     H38705   9.375   3.950  -0.558  1.2771  1.1580 -0.4056
  287MOL0     H38706   9.586   3.938  -0.628  0.8400 -2.5012  1.3636
  287MOL0     H38707   9.881   3.929  -1.053  0.6002 -1.5107 -0.5135
  287MOL0     H38708  10.103   3.994  -1.104 -0.9608 -1.9890  0.0455
  287MOL0     H38709  10.335   4.267  -0.798 -2.2986 -1.3302  2.4144
  287MOL0     H38710  10.365   4.102  -0.771  0.4620 -0.8769 -0.2943
  287MOL0     H38711  10.512   4.105  -0.980 -0.2205  0.8425 -1.0949
  287MOL0     H38712  10.508   4.282  -0.979  0.9710  0.7833 -0.0601
  287MOL0     H38713  10.564   4.252  -0.713 -0.7056 -0.3753  0.2783
  287MOL0     H38714  10.578   4.087  -0.740 -0.5075  1.7384  0.4616
  287MOL0     H38715  10.747   4.288  -0.899 -0.2233 -1.3862 -1.0782
  287MOL0     H38716  10.760   4.110  -0.884 -0.5560 -0.6070 -0.4499
  287MOL0     H38717  10.835   4.117  -0.641 -1.3439  1.3859  0.8254
  287MOL0     H38718  10.805   4.288  -0.642  2.2625  1.2054 -0.7765
  287MOL0     H38719  10.982   4.309  -0.818  0.4338 -0.5883 -0.4312
  287MOL0     H38720  11.042   4.253  -0.671  0.9828  3.2085 -2.9058
  287MOL0     H38721  10.982   4.078  -0.920  1.6774  1.5319 -0.1009
  287MOL0     H38722  10.992   4.002  -0.762 -1.3645 -0.6953 -0.3789
  287MOL0     H38723  11.213   4.073  -0.729 -0.1178  3.2216 -0.1835
  287MOL0     H38724  11.193   3.992  -0.885 -1.0294  0.3981 -1.0857
  287MOL0     H38725  10.136   4.172  -0.708  0.7960  3.0627 -2.5848
  287MOL0     H38726   9.923   4.086  -0.660  0.0201 -0.1361 -0.1370
  287MOL0     H38727   9.460   3.771  -1.005 -3.8419 -0.9940 -0.9452
  287MOL0     H38728   9.224   3.831  -0.939 -0.8224 -0.5244  1.7158
  287MOL0     H38729   7.774   3.045   0.223 -0.7728  0.0307  1.0778
  287MOL0     H38730   7.593   2.912   0.290 -0.8357  2.5707  0.9862
  287MOL0     H38731   7.270   2.577   0.165 -2.0964 -0.9005 -0.6354
  287MOL0     H38732   7.126   2.468   0.330 -1.5984 -0.0127 -1.8375
  287MOL0     H38733   6.774   2.677   0.504 -1.9791 -1.7609  0.2351
  287MOL0     H38734   6.916   2.702   0.624  0.4740  0.1738 -1.5349
  287MOL0     H38735   6.685   2.590   0.689 -0.3699  1.2306 -1.7637
  287MOL0     H38736   6.837   2.498   0.737  0.7283 -0.5920 -1.0679
  287MOL0     H38737   6.805   2.342   0.553  2.2392  2.0525  2.9128
  287MOL0     H38738   6.688   2.453   0.480 -3.4752 -1.2282  0.3245
  287MOL0     H38739   6.523   2.387   0.627  0.4539  0.4911 -3.9699
  287MOL0     H38740   6.603   2.234   0.585  1.5313 -0.9547  0.8104
  287MOL0     H38741   6.723   2.204   0.976  2.7934 -0.5943 -0.6709
  287MOL0     H38742   6.922   2.829   0.422  2.5740  0.6145  3.5186
  287MOL0     H38743   6.963   3.015   0.318 -1.1343 -0.4496 -0.3212
  287MOL0     H38744   7.134   3.025   0.296 -1.1081 -0.1823  0.3878
  287MOL0     H38745   7.026   3.010   0.151  0.1927  1.5651  1.2102
  288MOL0     O38746   1.417   0.406   4.432 -0.2400 -0.0190 -0.2259
  288MOL0     C38747   1.419   0.342   4.537  0.1375 -0.2219 -0.0082
  288MOL0     O38748   1.526   0.277   4.579 -0.7713 -0.4393  0.4733
  288MOL0     C38749   1.644   0.287   4.513  0.2782  0.3458 -0.5396
  288MOL0     C38750   1.740   0.361   4.574 -0.0462 -0.3148  0.3805
  288MOL0     C38751   1.864   0.376   4.511  0.4061 -0.0366 -0.5419
  288MOL0     C38752   1.901   0.311   4.395  0.9511 -0.7154 -0.1747
  288MOL0     O38753   2.026   0.310   4.345 -0.1405  0.1351  0.5021
  288MOL0     C38754   2.131   0.373   4.417 -0.0793  0.4613 -0.7695
  288MOL0     C38755   2.238   0.361   4.304  0.1450 -0.0786 -0.9888
  288MOL0     C38756   2.375   0.430   4.349 -0.9265  0.0352  0.6135
  288MOL0     C38757   2.493   0.396   4.257 -0.1111  0.4043 -0.4364
  288MOL0     C38758   2.622   0.461   4.318 -0.2662  0.2020 -0.0758
  288MOL0     C38759   2.718   0.462   4.196  0.3603  0.3281 -0.4937
  288MOL0     C38760   2.859   0.503   4.246  0.3099 -0.4480  0.3737
  288MOL0     C38761   2.954   0.530   4.132 -0.1688 -0.5493  0.5005
  288MOL0     N38762   3.012   0.412   4.064  0.4437  0.6130  0.5347
  288MOL0     C38763   3.103   0.324   4.111 -0.8339 -1.1100 -0.6013
  288MOL0     C38764   3.106   0.225   4.015 -1.1022  0.1083 -0.0312
  288MOL0     C38765   3.180   0.089   4.006  0.0604  0.6480 -0.0812
  288MOL0     C38766   3.310   0.108   3.919 -0.1418  0.5431 -0.2130
  288MOL0     C38767   3.432   0.098   4.019 -0.5669 -0.2740  0.5194
  288MOL0     C38768   3.560   0.105   3.947  0.0325 -0.1519  0.2658
  288MOL0     O38769   3.569  -0.017   3.877 -0.1081 -0.1097 -0.3092
  288MOL0     C38770   3.686  -0.065   3.830  0.2162  0.7935 -0.2679
  288MOL0     C38771   3.810  -0.022   3.889  0.3911  0.2247 -0.0294
  288MOL0     C38772   3.931  -0.075   3.849  0.1560  0.2491 -0.3931
  288MOL0     C38773   3.927  -0.192   3.775 -0.7975  0.1558  0.5841
  288MOL0     C38774   4.047  -0.290   3.765 -0.4971  0.1707 -0.3972
  288MOL0     O38775   4.021  -0.421   3.785 -0.7604  0.4054  0.4443
  288MOL0     C38776   4.123  -0.502   3.829  0.2774  0.5640 -0.3091
  288MOL0     C38777   4.147  -0.621   3.756 -0.0875  0.2587  0.0773
  288MOL0     C38778   4.235  -0.722   3.813 -0.3331 -0.2225  0.7809
  288MOL0     C38779   4.306  -0.696   3.933  0.0586  0.1132  0.6089
  288MOL0     O38780   4.396  -0.793   3.971 -0.0566  0.2193  0.1044
  288MOL0     C38781   4.496  -0.769   4.074  0.6458  0.4361  0.1383
  288MOL0     C38782   4.627  -0.843   4.037  1.0271 -0.5471  0.6759
  288MOL0     C38783   4.750  -0.812   4.117  0.1762 -0.3383  0.1731
  288MOL0     C38784   4.871  -0.868   4.037  0.0637 -0.3768  0.1559
  288MOL0     C38785   4.997  -0.840   4.100  0.0983 -0.0294 -0.5367
  288MOL0     C38786   5.111  -0.921   4.046  0.2505 -0.7152 -1.1846
  288MOL0     C38787   5.219  -0.939   4.153 -0.8084  0.0633 -1.0859
  288MOL0     C38788   5.310  -0.824   4.138 -0.5976 -0.7772 -1.0183
  288MOL0    Cl38789   5.470  -0.845   4.212  0.3027  0.2490 -0.3588
  288MOL0     C38790   4.277  -0.583   4.003  0.3771  0.3058 -0.6405
  288MOL0     C38791   4.192  -0.489   3.950 -0.4426  0.1567 -0.6145
  288MOL0     O38792   4.158  -0.238   3.779 -0.0174  0.6239  0.3895
  288MOL0     C38793   3.802  -0.238   3.720 -0.7385 -0.1365 -0.8083
  288MOL0     C38794   3.682  -0.179   3.753  0.0142 -0.1816 -0.4102
  288MOL0     N38795   3.010   0.264   3.917  0.1435 -0.5266 -0.2263
  288MOL0     N38796   2.959   0.372   3.948  0.3307  0.2585  0.4264
  288MOL0     C38797   1.809   0.228   4.337  0.2641  0.4924  0.3889
  288MOL0     C38798   1.679   0.220   4.396  0.7313 -0.1378  0.6866
  288MOL0     C38799   1.304   0.344   4.627  0.7754 -1.2556  0.7778
  288MOL0     C38800   1.307   0.272   4.750 -0.4122 -0.2909 -0.0837
  288MOL0     C38801   1.203   0.273   4.841 -0.1250  0.4311  0.3636
  288MOL0     C38802   1.086   0.339   4.814  1.1473  0.8473  0.3488
  288MOL0     O38803   0.981   0.329   4.898  0.0205  0.5425 -0.2514
  288MOL0     C38804   0.862   0.403   4.865 -0.4257 -0.3079 -0.4211
  288MOL0     C38805   0.751   0.381   4.973 -0.0408 -0.8952  0.7778
  288MOL0     C38806   0.620   0.448   4.930 -0.5290  0.1686  0.0990
  288MOL0     C38807   0.491   0.387   4.997  0.0605  0.2671  0.5546
  288MOL0     C38808   0.498   0.431   5.139 -0.5588  0.3484  0.0023
  288MOL0     C38809   0.514   0.466   5.258 -0.0289 -0.0160 -0.1817
  288MOL0     C38810   1.076   0.393   4.683  0.4792  0.1556  0.0696
  288MOL0     C38811   1.184   0.408   4.591  0.5922  0.0068  1.1104
  288MOL0     C38812   1.147   0.479   4.458 -0.2267  0.6103  0.1158
  288MOL0     H38813   1.723   0.399   4.674  0.8609 -1.8529  1.1364
  288MOL0     H38814   1.927   0.445   4.565 -0.4001 -1.7727  2.9914
  288MOL0     H38815   2.119   0.481   4.429  2.4231  0.9315 -1.8841
  288MOL0     H38816   2.150   0.322   4.512 -1.5620 -2.9704 -2.1563
  288MOL0     H38817   2.202   0.416   4.217  0.8958  2.6194  0.2951
  288MOL0     H38818   2.258   0.260   4.269 -0.2543 -0.7928  0.7478
  288MOL0     H38819   2.401   0.409   4.453 -2.5103 -1.0423  0.8159
  288MOL0     H38820   2.372   0.539   4.345  2.7256  0.3100  1.5832
  288MOL0     H38821   2.499   0.287   4.247 -0.8460  0.2428  0.7611
  288MOL0     H38822   2.472   0.424   4.154 -2.9118  0.0775 -0.0126
  288MOL0     H38823   2.610   0.561   4.361  0.5842  0.5510 -0.6117
  288MOL0     H38824   2.661   0.395   4.396 -0.7554 -0.6691 -0.5561
  288MOL0     H38825   2.728   0.364   4.149  0.5063 -0.6921  1.5703
  288MOL0     H38826   2.680   0.540   4.129  2.1270  1.0461 -0.7245
  288MOL0     H38827   2.910   0.434   4.314  3.0334  0.3035 -0.7698
  288MOL0     H38828   2.838   0.592   4.306 -2.7953  1.3683 -3.0356
  288MOL0     H38829   2.907   0.596   4.058  2.8388  0.7566 -0.4238
  288MOL0     H38830   3.047   0.581   4.160  0.6310  0.9832 -4.0758
  288MOL0     H38831   3.152   0.338   4.207 -0.6068  1.4354 -1.0249
  288MOL0     H38832   3.201   0.055   4.108  0.1332  2.5139  0.5807
  288MOL0     H38833   3.115   0.016   3.958 -3.4518  1.1224  3.4173
  288MOL0     H38834   3.319   0.027   3.846  0.1293 -0.8422  1.2967
  288MOL0     H38835   3.309   0.203   3.865 -1.5624  0.0158 -1.1563
  288MOL0     H38836   3.430   0.011   4.086  0.9743 -0.6365  0.1297
  288MOL0     H38837   3.427   0.187   4.082 -0.7718  0.9792 -1.2064
  288MOL0     H38838   3.640   0.110   4.021 -1.1748  3.5358  1.5538
  288MOL0     H38839   3.552   0.190   3.879 -1.0397 -0.8400 -0.5055
  288MOL0     H38840   3.825   0.056   3.964 -1.4211  0.8796 -0.2872
  288MOL0     H38841   4.022  -0.047   3.900 -0.7068  0.7158  0.9484
  288MOL0     H38842   4.100  -0.639   3.660  0.2351 -0.3432  0.0227
  288MOL0     H38843   4.231  -0.804   3.743  0.8961  1.4549 -1.3838
  288MOL0     H38844   4.522  -0.669   4.109 -0.1420  0.8245 -0.3322
  288MOL0     H38845   4.455  -0.829   4.156 -2.2296 -0.4545 -1.7797
  288MOL0     H38846   4.622  -0.952   4.027 -2.8694 -0.2976 -1.9337
  288MOL0     H38847   4.649  -0.810   3.936  0.8474  2.5047  1.5352
  288MOL0     H38848   4.754  -0.704   4.136  1.0249 -0.3774  0.2486
  288MOL0     H38849   4.743  -0.861   4.215  0.6119 -1.2570 -0.2449
  288MOL0     H38850   4.872  -0.823   3.938  1.1491  3.9382  1.8885
  288MOL0     H38851   4.844  -0.974   4.032  0.2206 -0.5732  2.2677
  288MOL0     H38852   4.999  -0.870   4.205  3.5501 -1.4561 -0.8759
  288MOL0     H38853   5.028  -0.735   4.101  1.1122 -0.3079  0.5328
  288MOL0     H38854   5.065  -1.019   4.025 -0.3778 -0.5646 -0.5677
  288MOL0     H38855   5.150  -0.891   3.949 -0.4030  2.0646 -0.6619
  288MOL0     H38856   5.279  -1.023   4.116 -0.2876 -0.2880  0.4858
  288MOL0     H38857   5.186  -0.960   4.255  1.7518 -1.3229 -0.4544
  288MOL0     H38858   5.329  -0.803   4.033 -1.9946 -0.7283 -1.2774
  288MOL0     H38859   5.266  -0.732   4.177 -1.4969 -1.4160 -0.5113
  288MOL0     H38860   4.332  -0.559   4.094 -1.8479  1.4976  0.4552
  288MOL0     H38861   4.162  -0.400   4.005  0.5737  1.0503 -1.4666
  288MOL0     H38862   3.807  -0.326   3.656  0.7124 -0.8440  0.2140
  288MOL0     H38863   3.589  -0.217   3.715  0.3747 -2.7037  0.9999
  288MOL0     H38864   1.826   0.170   4.247  1.3596 -0.3047  1.0784
  288MOL0     H38865   1.604   0.157   4.351  0.1544 -0.4031  1.9823
  288MOL0     H38866   1.390   0.208   4.776 -0.1958  1.3741  4.2630
  288MOL0     H38867   1.222   0.226   4.937 -0.0602 -0.6228 -0.1455
  288MOL0     H38868   0.824   0.375   4.766  0.2908  1.2370 -1.1544
  288MOL0     H38869   0.886   0.509   4.855  0.4571 -0.5723 -1.2615
  288MOL0     H38870   0.787   0.408   5.073 -1.0369  0.3914  0.8123
  288MOL0     H38871   0.747   0.272   4.964 -2.4229 -0.7346 -1.1274
  288MOL0     H38872   0.610   0.455   4.821  1.7094  1.7166 -0.0740
  288MOL0     H38873   0.625   0.551   4.966 -0.6686  0.3826 -0.4761
  288MOL0     H38874   0.403   0.432   4.951  0.7436  2.5686  1.3524
  288MOL0     H38875   0.489   0.278   4.985 -2.2593  0.2793  0.3542
  288MOL0     H38876   0.531   0.496   5.360 -1.9400 -2.8687  1.1323
  288MOL0     H38877   0.980   0.432   4.652  0.5122  1.0740  1.1110
  288MOL0     H38878   1.191   0.425   4.373  0.2429  0.2999  0.5444
  288MOL0     H38879   1.039   0.482   4.439 -0.1256  1.1994 -0.3862
  288MOL0     H38880   1.188   0.580   4.455  1.5966 -0.1131 -1.5787
  289MOL0     O38881   0.594   8.837   3.528  0.4011 -0.8475 -0.0994
  289MOL0     C38882   0.535   8.942   3.507 -0.8282  0.1325  0.1585
  289MOL0     O38883   0.599   9.059   3.484  0.2534 -0.7609  0.4482
  289MOL0     C38884   0.738   9.053   3.466 -0.5181 -0.4811  0.0807
  289MOL0     C38885   0.819   9.040   3.579  0.3465  0.0504 -0.0427
  289MOL0     C38886   0.963   9.034   3.573 -0.1552  1.5898 -0.7658
  289MOL0     C38887   1.028   9.053   3.446 -1.1803 -0.5413  0.1847
  289MOL0     O38888   1.165   9.057   3.427  0.4772 -0.1886  0.3276
  289MOL0     C38889   1.250   9.099   3.533 -1.0628  0.4064 -0.1261
  289MOL0     C38890   1.400   9.110   3.489  0.7101 -0.5146  0.9177
  289MOL0     C38891   1.499   9.162   3.591 -0.6021  0.2386  0.9171
  289MOL0     C38892   1.638   9.158   3.536 -0.2067 -0.4724  0.2567
  289MOL0     C38893   1.742   9.228   3.634 -0.2082 -0.5076  0.2050
  289MOL0     C38894   1.756   9.157   3.772  0.4915 -0.0347  0.0259
  289MOL0     C38895   1.881   9.212   3.838  0.2169 -0.4402 -0.2514
  289MOL0     C38896   1.905   9.155   3.977  0.1601  0.1141  0.1853
  289MOL0     N38897   1.994   9.038   3.979 -0.1752 -0.2223 -0.7272
  289MOL0     C38898   1.962   8.922   3.920  0.0321  0.0662  0.5863
  289MOL0     C38899   2.083   8.859   3.903  0.3335 -0.9704 -0.1099
  289MOL0     C38900   2.097   8.723   3.846  0.3780  0.5260  0.4850
  289MOL0     C38901   2.194   8.700   3.726 -0.8447  0.4284  0.1669
  289MOL0     C38902   2.283   8.571   3.728  0.4200  0.3097 -0.5819
  289MOL0     C38903   2.214   8.437   3.737 -1.1172  0.2371  0.0470
  289MOL0     O38904   2.126   8.439   3.848  0.3409 -0.1377 -0.2407
  289MOL0     C38905   2.060   8.322   3.889 -0.4111  1.1070  0.4750
  289MOL0     C38906   2.032   8.204   3.809  0.2653 -0.4447  0.0475
  289MOL0     C38907   1.952   8.092   3.854 -0.7170  0.1340 -0.5293
  289MOL0     C38908   1.892   8.096   3.976  0.4003 -0.4747 -1.3362
  289MOL0     C38909   1.813   7.988   4.039  0.0576 -0.6430  0.4786
  289MOL0     O38910   1.750   8.015   4.158  0.4283  0.2465  0.4550
  289MOL0     C38911   1.688   7.909   4.221 -0.0426  0.0167  0.7109
  289MOL0     C38912   1.544   7.889   4.205 -0.1183  0.3433  0.5783
  289MOL0     C38913   1.471   7.798   4.281  0.1421  0.0804  0.9690
  289MOL0     C38914   1.539   7.716   4.371 -0.0183 -0.1232 -1.2258
  289MOL0     O38915   1.473   7.608   4.430  0.6524  0.2513  0.2704
  289MOL0     C38916   1.396   7.521   4.353  0.9249  0.7029 -0.0919
  289MOL0     C38917   1.399   7.375   4.405  0.4892  0.2913 -0.1444
  289MOL0     C38918   1.362   7.354   4.545  0.5328 -0.5284 -0.0152
  289MOL0     C38919   1.374   7.213   4.581  0.2649  0.1308  0.0295
  289MOL0     C38920   1.319   7.191   4.723 -0.3934 -0.2446  0.1037
  289MOL0     C38921   1.376   7.060   4.777  0.2956  0.3524  0.4668
  289MOL0     C38922   1.318   6.935   4.699  0.5061  0.4454 -1.2263
  289MOL0     C38923   1.338   6.797   4.758  0.0771 -0.4564  0.6210
  289MOL0    Cl38924   1.506   6.784   4.788  0.2651 -0.3005  0.0483
  289MOL0     C38925   1.681   7.733   4.387 -0.3811 -0.0023 -0.1519
  289MOL0     C38926   1.753   7.830   4.315 -0.5982  0.6420  0.9614
  289MOL0     O38927   1.826   7.879   3.991  0.3071  0.1937  0.6653
  289MOL0     C38928   1.916   8.211   4.056 -0.2027  0.5601 -0.5118
  289MOL0     C38929   1.996   8.317   4.007  0.1207  0.1987 -0.9214
  289MOL0     N38930   2.183   8.940   3.951 -0.0938  0.4263  0.6221
  289MOL0     N38931   2.126   9.038   4.006  0.4881  0.1577 -0.1067
  289MOL0     C38932   0.939   9.069   3.331  0.1852 -1.0670  0.0255
  289MOL0     C38933   0.800   9.072   3.345 -0.3948  0.9951  0.0504
  289MOL0     C38934   0.391   8.928   3.481  0.1701 -0.0619  0.1422
  289MOL0     C38935   0.333   8.799   3.475 -0.3433  0.4208 -0.4632
  289MOL0     C38936   0.198   8.785   3.450  0.9679  0.1451  0.1374
  289MOL0     C38937   0.110   8.894   3.432 -0.3901 -0.0638  0.9571
  289MOL0     O38938  -0.018   8.887   3.397  0.0979  0.0268  0.1281
  289MOL0     C38939  -0.055   8.777   3.311  0.3557 -0.1439  0.2072
  289MOL0     C38940  -0.205   8.772   3.278  0.7749  0.7308 -0.2605
  289MOL0     C38941  -0.259   8.913   3.231  0.9415 -0.7459 -0.0961
  289MOL0     C38942  -0.411   8.918   3.201 -0.3197 -0.0385 -0.3001
  289MOL0     C38943  -0.463   8.827   3.094  0.0633  0.1491 -0.1202
  289MOL0     C38944  -0.517   8.770   3.007  0.7898  0.1452  0.2419
  289MOL0     C38945   0.172   9.020   3.439  0.6815 -0.6879  0.0292
  289MOL0     C38946   0.306   9.036   3.472 -0.2816  0.3371  0.0854
  289MOL0     C38947   0.342   9.183   3.505 -0.4445  0.3743 -0.8075
  289MOL0     H38948   0.769   9.044   3.676  0.3328  1.8963 -0.0745
  289MOL0     H38949   1.009   9.017   3.670 -0.8938  0.0873 -0.6395
  289MOL0     H38950   1.221   9.197   3.573 -1.2990  0.5196 -0.5778
  289MOL0     H38951   1.263   9.027   3.614  2.5295 -0.4956 -1.3181
  289MOL0     H38952   1.399   9.180   3.405  3.2982 -1.1472  0.2449
  289MOL0     H38953   1.428   9.012   3.448 -0.5069 -0.3704 -0.3229
  289MOL0     H38954   1.492   9.095   3.678 -0.8275  0.1772  0.8522
  289MOL0     H38955   1.473   9.266   3.613 -1.4044  0.1526  0.4057
  289MOL0     H38956   1.676   9.058   3.514 -2.2398 -1.1848 -0.2070
  289MOL0     H38957   1.655   9.208   3.441  0.4323 -2.8374 -0.9455
  289MOL0     H38958   1.837   9.232   3.578  1.0897 -1.0243  2.2683
  289MOL0     H38959   1.705   9.325   3.668  2.6327 -0.5052  3.9428
  289MOL0     H38960   1.662   9.184   3.821  0.6297  1.9791 -0.7583
  289MOL0     H38961   1.760   9.048   3.766 -0.5709 -0.0035 -2.2407
  289MOL0     H38962   1.875   9.321   3.846  1.3256 -0.2575 -1.6045
  289MOL0     H38963   1.970   9.195   3.777  0.6285 -0.6901  0.4022
  289MOL0     H38964   1.958   9.229   4.037  1.3577  0.3025 -1.0613
  289MOL0     H38965   1.814   9.126   4.031  0.9717  0.0346  1.5472
  289MOL0     H38966   1.871   8.866   3.904  2.2621 -3.6598 -0.2076
  289MOL0     H38967   2.123   8.659   3.931  0.8442 -2.3934 -1.6697
  289MOL0     H38968   2.006   8.687   3.798  0.1639  1.7775 -0.0842
  289MOL0     H38969   2.139   8.701   3.632  0.2363 -0.3517 -0.5054
  289MOL0     H38970   2.262   8.785   3.718 -0.1785 -0.2329 -2.0636
  289MOL0     H38971   2.353   8.574   3.812  1.0928 -3.1878 -0.8704
  289MOL0     H38972   2.339   8.561   3.634 -1.2135 -1.6383 -1.4303
  289MOL0     H38973   2.292   8.363   3.757 -0.4463  0.7129 -0.7666
  289MOL0     H38974   2.159   8.414   3.646  0.2991 -0.2478 -0.7070
  289MOL0     H38975   2.066   8.205   3.706 -2.6792 -0.0357 -1.0349
  289MOL0     H38976   1.937   8.010   3.785  3.3984  0.0564 -1.5994
  289MOL0     H38977   1.496   7.959   4.138  1.3092  1.0076  0.2000
  289MOL0     H38978   1.369   7.775   4.251  0.8179 -1.9609  0.0207
  289MOL0     H38979   1.291   7.552   4.350  0.7913  0.1849 -0.8357
  289MOL0     H38980   1.430   7.517   4.250  1.1003  0.0204 -0.0119
  289MOL0     H38981   1.333   7.313   4.345  1.2401  1.9292 -2.8847
  289MOL0     H38982   1.501   7.339   4.385  1.3449  0.6557  3.0321
  289MOL0     H38983   1.422   7.412   4.616  2.9665 -1.6210 -1.0531
  289MOL0     H38984   1.259   7.388   4.556  0.1553 -1.6720  0.1662
  289MOL0     H38985   1.470   7.163   4.565 -0.8509 -1.6138 -1.7867
  289MOL0     H38986   1.306   7.154   4.519 -1.7220  1.0883  1.2095
  289MOL0     H38987   1.210   7.196   4.725 -0.4398 -0.0832 -1.3563
  289MOL0     H38988   1.365   7.260   4.794  3.6335 -1.0575 -1.4075
  289MOL0     H38989   1.484   7.053   4.761  0.0367 -0.6103 -1.0323
  289MOL0     H38990   1.358   7.041   4.883 -1.2225 -0.8990  0.0219
  289MOL0     H38991   1.372   6.929   4.604  1.9825  0.2256 -0.4200
  289MOL0     H38992   1.212   6.952   4.680 -0.4269 -0.2810  2.5670
  289MOL0     H38993   1.290   6.793   4.857 -0.2852 -3.4399  0.4121
  289MOL0     H38994   1.301   6.726   4.684 -2.0190  0.0702  1.0880
  289MOL0     H38995   1.729   7.664   4.456  1.8622  0.9319 -0.6717
  289MOL0     H38996   1.859   7.849   4.329  0.1884 -0.7474 -2.0880
  289MOL0     H38997   1.891   8.223   4.161 -0.0379 -0.0368 -0.3980
  289MOL0     H38998   2.007   8.400   4.076 -1.9850 -0.0260 -0.2219
  289MOL0     H38999   0.983   9.071   3.232 -1.7281 -2.4665 -0.9290
  289MOL0     H39000   0.739   9.092   3.257  0.3273 -0.6262 -0.8593
  289MOL0     H39001   0.393   8.710   3.492 -0.4085  0.9278  3.2285
  289MOL0     H39002   0.161   8.684   3.442  0.0862  0.5171 -0.8321
  289MOL0     H39003  -0.036   8.681   3.361 -1.4452 -1.0949 -0.8156
  289MOL0     H39004  -0.004   8.788   3.215 -2.6693  0.0847 -1.5209
  289MOL0     H39005  -0.255   8.751   3.373  0.3647 -0.4461 -0.7217
  289MOL0     H39006  -0.230   8.690   3.210 -1.8426  0.7356  0.5729
  289MOL0     H39007  -0.201   8.939   3.141 -1.7032 -0.0204 -1.7046
  289MOL0     H39008  -0.237   8.990   3.305  1.1045  0.7577 -1.6276
  289MOL0     H39009  -0.459   8.899   3.297  2.7428 -3.1313  0.8271
  289MOL0     H39010  -0.437   9.019   3.166  0.8549 -0.6355 -3.1696
  289MOL0     H39011  -0.550   8.709   2.926 -1.0597  1.4433 -0.0409
  289MOL0     H39012   0.112   9.111   3.437  1.0511 -0.4486 -1.1163
  289MOL0     H39013   0.258   9.252   3.494 -0.1841  0.5339 -1.8936
  289MOL0     H39014   0.382   9.208   3.604  1.6337 -0.6114 -1.3427
  289MOL0     H39015   0.418   9.211   3.433  0.3144 -4.2848 -2.1767
  290MOL0     O39016   0.871   2.991  10.189 -0.1325  0.5166 -0.5363
  290MOL0     C39017   0.775   2.943  10.123 -0.6745 -0.2904 -0.0564
  290MOL0     O39018   0.747   2.978   9.997  0.0754 -0.3067 -0.0158
  290MOL0     C39019   0.796   3.100   9.957 -0.5194  0.9673  0.1669
  290MOL0     C39020   0.730   3.219   9.999  0.4758  1.0831 -0.3296
  290MOL0     C39021   0.780   3.344   9.984 -0.5954 -0.7855 -0.0087
  290MOL0     C39022   0.906   3.359   9.921 -0.1540 -0.4037 -0.1773
  290MOL0     O39023   0.960   3.483   9.902  0.4704  0.1643 -0.3793
  290MOL0     C39024   1.094   3.496   9.856 -0.0114 -0.6372 -0.3055
  290MOL0     C39025   1.129   3.646   9.864 -0.7270 -0.3934  0.8466
  290MOL0     C39026   1.273   3.677   9.807  0.1118  0.4267 -0.5394
  290MOL0     C39027   1.282   3.800   9.715  0.1914 -0.4491  0.4088
  290MOL0     C39028   1.423   3.854   9.709  0.6020  0.1618 -0.9031
  290MOL0     C39029   1.418   3.989   9.630 -0.3306 -0.0498 -1.2645
  290MOL0     C39030   1.557   4.046   9.619 -0.0927  0.0006 -0.3770
  290MOL0     C39031   1.563   4.189   9.574  0.1030 -0.2668  0.0333
  290MOL0     N39032   1.697   4.240   9.582  0.2786  0.3607 -0.0170
  290MOL0     C39033   1.769   4.255   9.701  0.1923  0.6391 -0.0560
  290MOL0     C39034   1.887   4.302   9.659  1.3278  0.6835 -0.0346
  290MOL0     C39035   2.008   4.353   9.734  0.3525 -0.3643  0.2374
  290MOL0     C39036   2.077   4.238   9.822 -0.2522 -0.5241  0.5023
  290MOL0     C39037   2.191   4.301   9.892 -0.1150 -0.6634 -0.0030
  290MOL0     C39038   2.326   4.325   9.822 -0.0352 -0.0884 -0.0185
  290MOL0     O39039   2.421   4.373   9.918 -0.3758  0.5788  0.6523
  290MOL0     C39040   2.545   4.404   9.873 -0.7151  0.2661  1.1604
  290MOL0     C39041   2.590   4.382   9.739  0.4658 -0.1112  0.9847
  290MOL0     C39042   2.727   4.406   9.699 -0.1631 -0.2039  0.2791
  290MOL0     C39043   2.822   4.438   9.801  0.0068 -0.3906  0.5536
  290MOL0     C39044   2.965   4.455   9.764  0.2181 -0.0548 -1.4983
  290MOL0     O39045   3.056   4.511   9.855 -0.1123  0.4555  0.8268
  290MOL0     C39046   3.180   4.548   9.801  0.3470 -0.2165 -0.5919
  290MOL0     C39047   3.286   4.455   9.779 -0.1306 -0.1623 -0.0699
  290MOL0     C39048   3.395   4.492   9.703 -0.0634 -0.4526  0.5573
  290MOL0     C39049   3.397   4.624   9.651 -0.0132  1.1168 -0.4289
  290MOL0     O39050   3.508   4.666   9.580 -0.1638 -0.6319  0.0014
  290MOL0     C39051   3.576   4.576   9.487  0.6982 -0.6843  0.3562
  290MOL0     C39052   3.696   4.624   9.402 -0.3045  0.3122 -0.1507
  290MOL0     C39053   3.801   4.696   9.500  0.6532 -0.0149  0.6365
  290MOL0     C39054   3.905   4.771   9.417 -0.4075 -0.5648 -0.6218
  290MOL0     C39055   4.037   4.693   9.422  0.4680  0.2449 -0.2149
  290MOL0     C39056   4.152   4.761   9.359 -0.6876  0.7611  1.1941
  290MOL0     C39057   4.280   4.683   9.379 -0.2712  0.6415  0.0636
  290MOL0     C39058   4.386   4.726   9.272  0.0596 -0.0025 -0.5012
  290MOL0    Cl39059   4.526   4.619   9.289  0.0821 -0.3706 -0.0370
  290MOL0     C39060   3.298   4.711   9.683 -0.6029 -0.3005  0.7123
  290MOL0     C39061   3.187   4.676   9.745 -0.3779  0.0116 -0.3394
  290MOL0     O39062   2.992   4.420   9.654 -0.7978 -0.2455 -0.2076
  290MOL0     C39063   2.778   4.450   9.929 -0.0970  0.7009 -0.2306
  290MOL0     C39064   2.644   4.429   9.962  0.0998  0.0279  0.2603
  290MOL0     N39065   1.884   4.326   9.520  0.1559 -0.7199 -0.3064
  290MOL0     N39066   1.775   4.271   9.476 -0.0226  0.9771 -0.6106
  290MOL0     C39067   0.961   3.246   9.866 -0.4827  0.7715 -0.0476
  290MOL0     C39068   0.911   3.115   9.891  0.4769 -0.1533  0.7427
  290MOL0     C39069   0.690   2.842  10.197 -0.4268 -0.1551  0.4817
  290MOL0     C39070   0.692   2.852  10.334  0.9777  0.5944  0.2877
  290MOL0     C39071   0.619   2.758  10.410  0.3354 -0.5049  0.2842
  290MOL0     C39072   0.545   2.649  10.363 -0.7227  0.6309  0.2044
  290MOL0     O39073   0.467   2.567  10.432 -0.6595 -0.1705 -0.7406
  290MOL0     C39074   0.391   2.625  10.538  0.6895 -0.4091 -0.1302
  290MOL0     C39075   0.247   2.639  10.501  0.7456  0.2549  0.1439
  290MOL0     C39076   0.178   2.503  10.469 -0.1706  0.4294 -0.4212
  290MOL0     C39077   0.018   2.501  10.475 -0.1141  0.1780  0.1940
  290MOL0     C39078  -0.049   2.585  10.367  0.1754 -1.0723 -0.6468
  290MOL0     C39079  -0.085   2.656  10.281 -0.6158 -0.5363 -0.2609
  290MOL0     C39080   0.557   2.636  10.229  0.4189  1.1837  0.4485
  290MOL0     C39081   0.629   2.724  10.139  0.0489 -0.0642 -0.6917
  290MOL0     C39082   0.627   2.686   9.996 -0.2010 -0.0843 -0.0698
  290MOL0     H39083   0.634   3.201  10.047 -0.1647  1.0204 -1.5978
  290MOL0     H39084   0.725   3.431  10.019 -1.0134 -0.7617 -0.6905
  290MOL0     H39085   1.158   3.438   9.924  0.0552  1.0320  1.1341
  290MOL0     H39086   1.097   3.450   9.757  2.1115 -2.4877  0.5222
  290MOL0     H39087   1.130   3.691   9.964 -0.6363 -0.7072  0.9895
  290MOL0     H39088   1.052   3.692   9.802 -0.8808 -1.0735  0.5200
  290MOL0     H39089   1.301   3.587   9.751  2.5217 -0.3001  1.6360
  290MOL0     H39090   1.347   3.680   9.888 -0.1730 -1.6218 -0.1497
  290MOL0     H39091   1.232   3.787   9.618  0.4986 -0.4518  0.2503
  290MOL0     H39092   1.231   3.884   9.764  2.4307  0.0146  2.1335
  290MOL0     H39093   1.453   3.878   9.812  1.8076  0.6383 -1.3472
  290MOL0     H39094   1.495   3.786   9.663  0.5287  0.5941 -1.6687
  290MOL0     H39095   1.390   3.971   9.525  3.7662 -0.1398 -2.5267
  290MOL0     H39096   1.362   4.069   9.681  1.8912 -0.3494  1.8957
  290MOL0     H39097   1.619   3.989   9.549  1.4117 -0.7491  1.4765
  290MOL0     H39098   1.609   4.042   9.715 -1.6382 -0.8989  0.4546
  290MOL0     H39099   1.522   4.208   9.474 -2.7438  1.0312  1.3331
  290MOL0     H39100   1.508   4.244   9.650  2.4353  0.9360  0.9557
  290MOL0     H39101   1.734   4.228   9.800  3.7687  0.2113  1.2378
  290MOL0     H39102   2.077   4.398   9.662 -0.4505  1.6683  0.6554
  290MOL0     H39103   1.983   4.435   9.803 -1.7905 -2.8568  2.6813
  290MOL0     H39104   1.994   4.190   9.875 -0.7366  1.7805  1.9714
  290MOL0     H39105   2.128   4.181   9.743 -1.2163 -0.1630 -0.4096
  290MOL0     H39106   2.213   4.227   9.969  0.0128  0.1032  0.7125
  290MOL0     H39107   2.160   4.393   9.943 -0.2915  0.2332 -1.6404
  290MOL0     H39108   2.311   4.393   9.738 -2.4437 -0.0783  0.3343
  290MOL0     H39109   2.365   4.231   9.781  0.4118  0.5148 -1.0049
  290MOL0     H39110   2.524   4.353   9.658  0.2677  0.6601  0.8648
  290MOL0     H39111   2.748   4.386   9.594 -2.2529  0.1516 -0.2523
  290MOL0     H39112   3.276   4.348   9.796  0.2306 -0.0922  0.6614
  290MOL0     H39113   3.473   4.417   9.688  2.0214  1.6270  0.3408
  290MOL0     H39114   3.616   4.486   9.534  3.1747 -1.4371 -2.8380
  290MOL0     H39115   3.499   4.551   9.412  0.4689 -0.4930  0.5263
  290MOL0     H39116   3.748   4.541   9.353 -1.0304  0.8270 -1.8844
  290MOL0     H39117   3.661   4.672   9.310  1.2873  1.1420 -0.3671
  290MOL0     H39118   3.758   4.776   9.562  3.7094  0.5511  2.2121
  290MOL0     H39119   3.856   4.631   9.569  0.3025 -1.9022 -0.7786
  290MOL0     H39120   3.923   4.873   9.454 -0.7791 -0.4410 -0.7790
  290MOL0     H39121   3.865   4.783   9.316 -1.4375 -1.7344 -0.3828
  290MOL0     H39122   4.025   4.594   9.377  0.1460  0.2875 -0.2301
  290MOL0     H39123   4.064   4.676   9.526  0.5367  2.0719  0.1058
  290MOL0     H39124   4.141   4.790   9.254 -2.5433 -0.5028  0.9880
  290MOL0     H39125   4.168   4.856   9.412  1.3000  0.9968  0.2366
  290MOL0     H39126   4.264   4.576   9.359  1.9328  0.6792 -2.5269
  290MOL0     H39127   4.330   4.700   9.475  0.1219 -1.5801  0.3058
  290MOL0     H39128   4.344   4.722   9.172  1.1547  3.5805 -1.2682
  290MOL0     H39129   4.417   4.829   9.296 -1.4532 -0.3502  3.8046
  290MOL0     H39130   3.292   4.814   9.648 -1.5226 -0.3467  0.7340
  290MOL0     H39131   3.104   4.741   9.768  0.2237  0.4456  0.6568
  290MOL0     H39132   2.858   4.482   9.995 -0.3036  0.5687  0.0856
  290MOL0     H39133   2.616   4.422  10.067  0.3212  2.7616  0.5578
  290MOL0     H39134   1.042   3.248   9.794  1.7954  0.4284  2.3624
  290MOL0     H39135   0.956   3.023   9.854  0.9622  1.2137 -2.4192
  290MOL0     H39136   0.742   2.932  10.389  0.9970  1.4144 -0.8878
  290MOL0     H39137   0.622   2.766  10.518  0.1637 -1.3066  0.3554
  290MOL0     H39138   0.430   2.718  10.581 -1.0181  0.7180 -0.9123
  290MOL0     H39139   0.410   2.565  10.628  0.1937  2.6989  2.1983
  290MOL0     H39140   0.223   2.701  10.414 -3.0041  0.3003  1.0144
  290MOL0     H39141   0.193   2.683  10.586  2.3611  0.7361  0.9557
  290MOL0     H39142   0.218   2.428  10.538  2.1013  1.6284 -0.3619
  290MOL0     H39143   0.209   2.479  10.367 -0.2165 -0.3784 -0.2489
  290MOL0     H39144  -0.022   2.401  10.456  1.3796 -0.6432  1.1589
  290MOL0     H39145  -0.021   2.530  10.573  1.0672 -3.2534  1.8220
  290MOL0     H39146  -0.113   2.730  10.209  0.4380  1.2951  1.1178
  290MOL0     H39147   0.502   2.558  10.177 -0.1388  1.4710  0.5993
  290MOL0     H39148   0.725   2.713   9.954  0.4112 -1.2755  0.5528
  290MOL0     H39149   0.622   2.579   9.974  2.7260 -0.3072 -0.1760
  290MOL0     H39150   0.546   2.728   9.936 -3.6643 -4.2036  1.2261
  291MOL0     O39151   6.619   6.925   6.210  0.1137 -0.2404 -0.3210
  291MOL0     C39152   6.721   6.922   6.278 -0.6454  0.2273  0.2740
  291MOL0     O39153   6.841   6.967   6.234  0.2818  0.2334 -0.0094
  291MOL0     C39154   6.858   6.989   6.099 -0.2524 -0.8846 -0.7967
  291MOL0     C39155   6.906   7.113   6.064 -0.5281  0.5563  0.5715
  291MOL0     C39156   6.948   7.132   5.928  0.1609  0.5467 -0.5633
  291MOL0     C39157   6.936   7.024   5.832 -0.3288  0.0884  0.5747
  291MOL0     O39158   6.975   7.036   5.698 -0.4070 -0.3274 -0.2888
  291MOL0     C39159   7.009   7.163   5.638 -0.4095  0.4939 -0.0772
  291MOL0     C39160   7.070   7.149   5.500 -0.3859  0.0723 -0.7823
  291MOL0     C39161   7.098   7.301   5.445 -0.2122 -0.3955  0.2313
  291MOL0     C39162   7.191   7.298   5.323 -0.2127 -0.0413 -0.3824
  291MOL0     C39163   7.341   7.311   5.359 -0.1345 -0.4316  0.3704
  291MOL0     C39164   7.373   7.453   5.392  0.5042  0.1091  0.5037
  291MOL0     C39165   7.518   7.450   5.438  0.3825  0.1764  0.8505
  291MOL0     C39166   7.539   7.577   5.521 -0.2292  0.2074 -0.3169
  291MOL0     N39167   7.659   7.562   5.594 -0.4230 -0.5696 -0.5267
  291MOL0     C39168   7.785   7.573   5.539 -0.4839 -0.1997 -0.5660
  291MOL0     C39169   7.865   7.566   5.649  0.5151  0.0959  0.2775
  291MOL0     C39170   8.009   7.545   5.668  0.3342  0.0681 -0.4499
  291MOL0     C39171   8.078   7.691   5.657 -0.1831  0.2306  0.2670
  291MOL0     C39172   8.234   7.668   5.660  1.0651  0.0094  0.2740
  291MOL0     C39173   8.287   7.807   5.688  0.5572 -0.0599  0.2268
  291MOL0     O39174   8.431   7.795   5.664  0.1241  0.1024  0.0124
  291MOL0     C39175   8.514   7.894   5.711 -0.5332  0.9341  0.2086
  291MOL0     C39176   8.645   7.859   5.739  0.0811 -0.0538  0.6141
  291MOL0     C39177   8.736   7.943   5.804 -1.2186  0.3722 -0.3399
  291MOL0     C39178   8.696   8.078   5.839 -0.3991  0.6466 -0.1965
  291MOL0     C39179   8.801   8.170   5.882 -0.2548  0.0365 -0.2339
  291MOL0     O39180   8.928   8.119   5.897  0.3372  0.2960 -0.3506
  291MOL0     C39181   9.024   8.206   5.935  0.5163 -0.6653  0.1668
  291MOL0     C39182   9.041   8.334   5.879  0.7603  0.0259  0.7720
  291MOL0     C39183   9.157   8.413   5.912 -0.4157  0.1974 -0.1295
  291MOL0     C39184   9.245   8.374   6.012 -0.6249  0.2447 -0.3388
  291MOL0     O39185   9.356   8.450   6.038 -0.4824  0.3872  0.4423
  291MOL0     C39186   9.393   8.467   6.178 -0.7592  0.3863  1.1615
  291MOL0     C39187   9.531   8.515   6.177  0.5892  0.4102 -1.1290
  291MOL0     C39188   9.560   8.595   6.307  0.2801  0.0389 -0.0141
  291MOL0     C39189   9.527   8.747   6.303 -0.5444  0.2081 -0.4324
  291MOL0     C39190   9.568   8.818   6.434 -0.9624 -0.5178  0.1352
  291MOL0     C39191   9.718   8.848   6.427 -0.3501  0.1317 -0.0776
  291MOL0     C39192   9.759   8.944   6.546 -0.2742  0.3501  0.3948
  291MOL0     C39193   9.870   9.041   6.508  0.4205 -0.6127 -0.2411
  291MOL0    Cl39194   9.903   9.160   6.627  0.0189 -0.2861 -0.3616
  291MOL0     C39195   9.232   8.248   6.071 -0.3042  0.0154  0.2154
  291MOL0     C39196   9.121   8.166   6.038 -0.2804 -0.3480 -0.1557
  291MOL0     O39197   8.763   8.286   5.897  0.2978 -1.3448 -0.2384
  291MOL0     C39198   8.564   8.115   5.811  0.3305  0.6941 -0.3085
  291MOL0     C39199   8.474   8.023   5.751 -0.0942  0.3865  0.2807
  291MOL0     N39200   7.786   7.557   5.765  0.4044  0.1707  0.4995
  291MOL0     N39201   7.665   7.556   5.726 -0.9200 -0.0297  0.1465
  291MOL0     C39202   6.889   6.901   5.874 -0.5863  0.0951  0.4047
  291MOL0     C39203   6.856   6.878   6.002 -0.1995 -0.4131 -0.5427
  291MOL0     C39204   6.697   6.862   6.417 -0.2317 -0.9834 -0.2233
  291MOL0     C39205   6.566   6.822   6.450  1.2218  0.0368 -0.2489
  291MOL0     C39206   6.537   6.755   6.569  0.1200 -0.8821 -0.7344
  291MOL0     C39207   6.628   6.749   6.675 -0.5868 -0.4492  0.3305
  291MOL0     O39208   6.598   6.706   6.805 -0.5583 -0.4970  0.1584
  291MOL0     C39209   6.638   6.799   6.908 -0.1118 -0.0909  0.1801
  291MOL0     C39210   6.581   6.756   7.042  0.2098 -1.0915  1.1902
  291MOL0     C39211   6.429   6.732   7.040  0.3305  0.0852  0.2050
  291MOL0     C39212   6.345   6.853   7.048  0.2875 -0.0231 -0.4320
  291MOL0     C39213   6.352   6.905   7.192 -0.4211 -0.1433 -0.0005
  291MOL0     C39214   6.369   6.973   7.290  0.5175  0.0965  0.0006
  291MOL0     C39215   6.753   6.797   6.644 -0.1341  0.6355  0.1329
  291MOL0     C39216   6.788   6.853   6.519 -0.0865 -0.1089  0.6421
  291MOL0     C39217   6.925   6.899   6.497 -0.3271 -1.0677  0.2514
  291MOL0     H39218   6.917   7.191   6.139 -1.7598  3.2037 -1.7999
  291MOL0     H39219   7.005   7.223   5.908  1.0276  0.3849  0.9937
  291MOL0     H39220   6.922   7.228   5.623 -2.6148 -2.5829 -1.7622
  291MOL0     H39221   7.083   7.217   5.697 -2.1970  4.1502 -0.8883
  291MOL0     H39222   7.000   7.095   5.436  0.4033  0.6404 -2.1647
  291MOL0     H39223   7.158   7.086   5.516 -0.4938  0.4650  1.6736
  291MOL0     H39224   7.152   7.361   5.519  0.6165  1.0256 -1.4819
  291MOL0     H39225   7.008   7.356   5.418  1.7606  2.5014 -0.9231
  291MOL0     H39226   7.179   7.204   5.268 -1.9520 -0.5520  0.7832
  291MOL0     H39227   7.161   7.371   5.247 -0.8145  0.1467  0.0289
  291MOL0     H39228   7.362   7.243   5.442  2.3180  2.3919  2.2891
  291MOL0     H39229   7.399   7.275   5.274 -0.8013 -0.9108  0.1055
  291MOL0     H39230   7.349   7.527   5.315  1.2305  0.6261  0.7685
  291MOL0     H39231   7.313   7.488   5.476 -0.3542  2.4921 -0.9963
  291MOL0     H39232   7.571   7.454   5.342 -0.2779  3.3724  0.5245
  291MOL0     H39233   7.549   7.362   5.496  0.8864  0.2456  0.6941
  291MOL0     H39234   7.538   7.669   5.462  4.9279  0.4388 -0.4621
  291MOL0     H39235   7.461   7.586   5.597 -0.2271  0.6338 -0.3630
  291MOL0     H39236   7.816   7.583   5.436 -1.5870  0.4359 -0.8484
  291MOL0     H39237   8.034   7.496   5.763  2.7843  1.7175 -0.1454
  291MOL0     H39238   8.041   7.476   5.590 -4.5630  1.3825 -4.1250
  291MOL0     H39239   8.052   7.742   5.564 -0.7182  0.3674  0.4857
  291MOL0     H39240   8.044   7.757   5.737 -0.8270  0.3679 -0.1146
  291MOL0     H39241   8.282   7.633   5.568  3.7307  0.0655  1.5491
  291MOL0     H39242   8.268   7.611   5.746  2.3194  0.9554  0.4498
  291MOL0     H39243   8.268   7.837   5.791 -2.9267 -0.1166 -0.2847
  291MOL0     H39244   8.244   7.871   5.610  2.7692 -1.4928 -2.3394
  291MOL0     H39245   8.684   7.761   5.713 -0.1241  0.1510 -0.5417
  291MOL0     H39246   8.838   7.911   5.825 -0.4982  1.7645 -1.5048
  291MOL0     H39247   8.977   8.360   5.796  0.7026  1.0491  1.1228
  291MOL0     H39248   9.180   8.495   5.845  1.9872  0.4277  0.8744
  291MOL0     H39249   9.322   8.542   6.215 -1.3419 -0.2916  1.4468
  291MOL0     H39250   9.384   8.372   6.232  3.3726 -0.1358  1.2598
  291MOL0     H39251   9.589   8.423   6.166 -0.4303 -0.1287 -2.1922
  291MOL0     H39252   9.550   8.570   6.084 -1.3491 -2.0658 -3.1572
  291MOL0     H39253   9.502   8.543   6.383  2.7422 -2.7946  0.0812
  291MOL0     H39254   9.666   8.592   6.332 -0.3160 -3.8731  3.0111
  291MOL0     H39255   9.420   8.764   6.286 -0.8204  0.8975  1.6336
  291MOL0     H39256   9.584   8.790   6.220  1.2208 -0.6567  0.2835
  291MOL0     H39257   9.548   8.761   6.525  0.7017 -0.7101  0.3976
  291MOL0     H39258   9.517   8.915   6.432  3.1436  1.9082  1.6533
  291MOL0     H39259   9.780   8.760   6.445 -0.7560 -0.3737 -1.1301
  291MOL0     H39260   9.751   8.890   6.331  3.5792 -0.8119  0.6511
  291MOL0     H39261   9.781   8.890   6.638  2.1787 -1.4123 -1.1291
  291MOL0     H39262   9.666   8.997   6.569 -0.1323  0.8979 -0.2715
  291MOL0     H39263   9.964   8.996   6.471 -1.0849 -1.8531 -2.8733
  291MOL0     H39264   9.832   9.097   6.422 -0.4262  3.4460  2.5347
  291MOL0     H39265   9.300   8.212   6.147  0.9791  0.5659 -0.6493
  291MOL0     H39266   9.115   8.066   6.079 -1.2099 -0.9097 -1.5681
  291MOL0     H39267   8.539   8.220   5.823  0.1961  0.9375 -2.2875
  291MOL0     H39268   8.376   8.059   5.724 -1.0681 -1.2432  1.4792
  291MOL0     H39269   6.888   6.819   5.803  2.0965 -0.5198  0.9798
  291MOL0     H39270   6.814   6.783   6.036  0.3928  0.2044  2.1289
  291MOL0     H39271   6.484   6.837   6.381  1.0142 -1.1844 -0.3028
  291MOL0     H39272   6.439   6.709   6.581  0.4772 -2.7179 -3.8239
  291MOL0     H39273   6.599   6.899   6.891 -2.1296 -0.3827  2.5957
  291MOL0     H39274   6.745   6.814   6.925 -0.2758  2.8947 -0.8986
  291MOL0     H39275   6.612   6.832   7.115  0.3302 -0.8881  0.9269
  291MOL0     H39276   6.631   6.663   7.072  2.4189  0.0098  1.1697
  291MOL0     H39277   6.405   6.668   7.125  0.5844  2.8796  2.5375
  291MOL0     H39278   6.409   6.686   6.942  0.8442 -1.2141  0.6852
  291MOL0     H39279   6.389   6.929   6.983  0.5256  1.3714  1.2857
  291MOL0     H39280   6.241   6.826   7.027 -0.5144  1.9275  0.7265
  291MOL0     H39281   6.382   7.029   7.381 -1.0804 -2.4859  1.9426
  291MOL0     H39282   6.836   6.778   6.711 -0.1953 -2.3158 -0.5298
  291MOL0     H39283   6.988   6.857   6.576 -0.1474 -2.3489 -0.5490
  291MOL0     H39284   6.966   6.856   6.406 -1.1441 -1.6772  0.1567
  291MOL0     H39285   6.943   7.005   6.477  1.3607 -1.5779 -1.1716
  292MOL0     O39286   6.711   2.336   8.515  0.6400 -0.4252  0.5731
  292MOL0     C39287   6.651   2.432   8.572  0.3675  0.0802  0.1520
  292MOL0     O39288   6.707   2.552   8.613 -0.7220 -0.0282  0.0805
  292MOL0     C39289   6.837   2.580   8.559 -0.0401 -0.5148 -0.6490
  292MOL0     C39290   6.867   2.605   8.421  0.5031  0.8852 -0.1032
  292MOL0     C39291   6.995   2.637   8.377  0.8971  0.2345  0.3113
  292MOL0     C39292   7.100   2.653   8.463 -0.6124  0.5319  0.1324
  292MOL0     O39293   7.224   2.679   8.410  0.1072  0.2955  0.0501
  292MOL0     C39294   7.328   2.714   8.499  0.9650  0.5275  1.0761
  292MOL0     C39295   7.443   2.771   8.413 -0.0126  0.2162  0.0818
  292MOL0     C39296   7.389   2.899   8.331  0.8156 -0.0380 -1.1500
  292MOL0     C39297   7.490   2.965   8.250 -0.7600 -1.1748  0.0226
  292MOL0     C39298   7.458   3.099   8.178 -0.2406 -1.5146 -0.3535
  292MOL0     C39299   7.393   3.081   8.039 -0.1263  0.6994  0.8737
  292MOL0     C39300   7.368   3.220   7.981 -0.1189  0.1909  0.5960
  292MOL0     C39301   7.295   3.209   7.846 -0.4309  0.1212 -0.1393
  292MOL0     N39302   7.362   3.127   7.753  0.0647 -0.4506  0.1644
  292MOL0     C39303   7.446   3.171   7.656 -0.4866 -0.1054 -0.1293
  292MOL0     C39304   7.468   3.067   7.577 -0.2429 -0.0197 -1.2585
  292MOL0     C39305   7.542   3.080   7.449  0.0232 -0.8772  0.2267
  292MOL0     C39306   7.632   2.964   7.420 -0.2114  0.3327 -0.8351
  292MOL0     C39307   7.761   2.965   7.499 -0.8356  0.6707 -0.5902
  292MOL0     C39308   7.843   2.844   7.461 -0.3689 -0.5393 -0.1920
  292MOL0     O39309   7.954   2.866   7.544  0.1811 -0.7954 -0.6047
  292MOL0     C39310   8.064   2.814   7.490 -0.0597  0.4517 -0.1693
  292MOL0     C39311   8.167   2.894   7.430  0.6145 -0.5026  0.2889
  292MOL0     C39312   8.289   2.842   7.383 -0.5271  0.8128 -1.0544
  292MOL0     C39313   8.309   2.708   7.395  0.2795 -0.1240  0.3139
  292MOL0     C39314   8.440   2.658   7.353 -0.0321 -0.5474  0.5589
  292MOL0     O39315   8.539   2.745   7.336  0.6183  0.5464  0.4078
  292MOL0     C39316   8.668   2.711   7.306  0.5966 -0.0443 -0.0370
  292MOL0     C39317   8.697   2.678   7.173 -0.8196 -0.5085 -0.8617
  292MOL0     C39318   8.829   2.671   7.124 -0.3059  0.8709  0.3537
  292MOL0     C39319   8.936   2.672   7.215 -0.6891  0.9218 -0.0972
  292MOL0     O39320   9.064   2.643   7.176 -0.1725  0.6059  0.4492
  292MOL0     C39321   9.177   2.652   7.269 -0.0321  0.1087 -0.0354
  292MOL0     C39322   9.310   2.602   7.208 -0.4232 -0.3381  0.0530
  292MOL0     C39323   9.346   2.665   7.068  0.3207 -0.3092  0.6222
  292MOL0     C39324   9.492   2.638   7.034 -0.6458  0.2583  0.2090
  292MOL0     C39325   9.585   2.746   7.082 -0.0818  0.2325 -0.5627
  292MOL0     C39326   9.717   2.740   7.003  1.1482 -0.5659  0.6712
  292MOL0     C39327   9.813   2.837   7.071 -0.7158 -0.4897 -0.0763
  292MOL0     C39328   9.929   2.888   6.983  0.0138  0.0197  0.1624
  292MOL0    Cl39329  10.043   2.768   6.932  0.2341  0.6030 -0.0344
  292MOL0     C39330   8.902   2.702   7.355 -0.1176 -0.1845 -0.1852
  292MOL0     C39331   8.772   2.716   7.399  0.1349 -0.0882  0.4801
  292MOL0     O39332   8.446   2.537   7.332 -0.7575 -0.2673  1.1831
  292MOL0     C39333   8.207   2.619   7.440  0.2851 -0.6329 -0.3452
  292MOL0     C39334   8.092   2.675   7.492 -0.3664 -0.8342  0.8842
  292MOL0     N39335   7.401   2.958   7.630 -0.3365  0.0826 -0.3914
  292MOL0     N39336   7.332   2.993   7.732  0.0430  0.5624 -0.0436
  292MOL0     C39337   7.080   2.604   8.600  0.4472 -0.5292  0.3394
  292MOL0     C39338   6.949   2.585   8.655 -0.5208  0.3370 -0.4003
  292MOL0     C39339   6.504   2.412   8.597 -0.2786 -0.4726 -0.2537
  292MOL0     C39340   6.429   2.529   8.612 -0.4107  0.4366  0.3075
  292MOL0     C39341   6.291   2.521   8.644  1.2380  0.3660 -0.2594
  292MOL0     C39342   6.225   2.395   8.659 -0.1803  0.1875 -0.2317
  292MOL0     O39343   6.092   2.375   8.686 -0.6956 -0.1538 -0.0863
  292MOL0     C39344   6.017   2.487   8.737  0.2425 -0.4320  0.2721
  292MOL0     C39345   5.928   2.549   8.614 -0.4926  0.1840 -0.0415
  292MOL0     C39346   5.820   2.638   8.676 -0.1288 -0.6239  0.6645
  292MOL0     C39347   5.679   2.572   8.691  0.0931  0.8169 -0.0916
  292MOL0     C39348   5.677   2.489   8.824  0.5520 -0.4204  0.9521
  292MOL0     C39349   5.680   2.427   8.930 -0.3026 -0.0136  0.1785
  292MOL0     C39350   6.303   2.285   8.643 -0.0875 -0.0237 -0.1767
  292MOL0     C39351   6.439   2.289   8.606 -0.9516 -0.2760 -0.2379
  292MOL0     C39352   6.504   2.154   8.606  0.2811  0.0437 -0.5019
  292MOL0     H39353   6.794   2.593   8.342  0.7937 -1.2163 -0.1036
  292MOL0     H39354   7.017   2.638   8.271  3.6941  0.0783  0.8278
  292MOL0     H39355   7.294   2.796   8.563 -3.0893  2.3169 -2.8452
  292MOL0     H39356   7.356   2.622   8.551  1.2579  0.6841  1.1964
  292MOL0     H39357   7.462   2.690   8.342 -0.5465  0.4812 -0.3722
  292MOL0     H39358   7.537   2.796   8.464  0.6226 -0.3562 -0.7762
  292MOL0     H39359   7.369   2.985   8.397  2.3708  0.3099 -1.0745
  292MOL0     H39360   7.302   2.874   8.270 -1.3406  0.3160  1.5950
  292MOL0     H39361   7.569   2.997   8.319 -0.6635  0.5919 -0.8566
  292MOL0     H39362   7.546   2.900   8.182 -0.1545 -0.5481 -0.0895
  292MOL0     H39363   7.386   3.143   8.248 -1.2104 -0.7073 -1.7881
  292MOL0     H39364   7.546   3.163   8.166 -1.2352 -0.2081 -0.9668
  292MOL0     H39365   7.464   3.033   7.971 -1.0438 -0.4386  0.6953
  292MOL0     H39366   7.302   3.020   8.045 -1.2677  2.0808 -1.1056
  292MOL0     H39367   7.465   3.269   7.967 -0.6939  1.4842  0.9318
  292MOL0     H39368   7.306   3.279   8.049  0.4150  3.0089 -1.1927
  292MOL0     H39369   7.195   3.170   7.868 -1.1895  1.1941 -1.4518
  292MOL0     H39370   7.283   3.311   7.806 -0.3381  1.2339  2.4426
  292MOL0     H39371   7.492   3.267   7.636 -1.1805  0.1156 -0.6910
  292MOL0     H39372   7.467   3.094   7.371  0.3967  0.0185  0.0197
  292MOL0     H39373   7.598   3.173   7.435  0.6708 -1.6560 -3.1680
  292MOL0     H39374   7.571   2.875   7.439 -1.0078  1.3068  1.4564
  292MOL0     H39375   7.664   2.974   7.315  0.9569 -0.5338 -0.5804
  292MOL0     H39376   7.742   2.962   7.606  0.4224  2.2978 -0.2915
  292MOL0     H39377   7.816   3.054   7.467  0.3810  0.0273 -0.3366
  292MOL0     H39378   7.869   2.847   7.355  2.6496 -0.0087  0.4665
  292MOL0     H39379   7.794   2.751   7.491 -0.5645 -0.0399  1.0960
  292MOL0     H39380   8.150   3.001   7.423 -0.7571 -0.6999  0.3767
  292MOL0     H39381   8.363   2.911   7.341 -1.6291  1.3635 -2.1575
  292MOL0     H39382   8.614   2.688   7.103 -3.0199  1.2136  1.8189
  292MOL0     H39383   8.861   2.652   7.022  0.6182 -1.8490  1.0773
  292MOL0     H39384   9.187   2.758   7.295  4.5269 -0.3878  1.1354
  292MOL0     H39385   9.152   2.583   7.350 -2.7924  1.0961  0.0617
  292MOL0     H39386   9.392   2.622   7.278 -1.4907  3.0725  0.5203
  292MOL0     H39387   9.290   2.495   7.209 -1.8180 -0.1390 -1.7870
  292MOL0     H39388   9.278   2.635   6.987  1.4579 -0.1848 -0.4094
  292MOL0     H39389   9.324   2.772   7.077 -0.4872 -0.2773 -1.1942
  292MOL0     H39390   9.505   2.633   6.925  0.9008  1.1819  0.3243
  292MOL0     H39391   9.521   2.544   7.083  1.5155  0.7856  0.0204
  292MOL0     H39392   9.595   2.748   7.191 -1.9803  1.4601 -0.3675
  292MOL0     H39393   9.550   2.848   7.065  1.6022  1.1925  1.2531
  292MOL0     H39394   9.766   2.643   7.011  1.3104 -0.4453  1.1453
  292MOL0     H39395   9.699   2.766   6.898 -3.7754  1.1946  1.6750
  292MOL0     H39396   9.851   2.781   7.157  0.7040  0.1000 -0.3007
  292MOL0     H39397   9.762   2.925   7.111 -0.4813 -0.6503  0.5911
  292MOL0     H39398   9.874   2.923   6.895 -2.0431 -4.0329 -0.4075
  292MOL0     H39399   9.984   2.966   7.036 -2.1206  0.1374  2.4453
  292MOL0     H39400   8.973   2.708   7.437  1.5251 -1.5399 -1.4419
  292MOL0     H39401   8.757   2.756   7.499 -0.1121 -1.3238  0.9659
  292MOL0     H39402   8.203   2.512   7.459 -3.3002 -0.0362  4.0170
  292MOL0     H39403   8.019   2.601   7.524  1.1266 -2.1286  1.4615
  292MOL0     H39404   7.165   2.603   8.667 -0.2823 -3.1565  1.3546
  292MOL0     H39405   6.934   2.556   8.759  3.2079 -1.7945 -0.2828
  292MOL0     H39406   6.468   2.628   8.591 -1.9557  0.6987 -1.6603
  292MOL0     H39407   6.236   2.615   8.635  1.1804  0.5371  1.4657
  292MOL0     H39408   6.075   2.568   8.782  0.7394  0.1283 -1.3141
  292MOL0     H39409   5.946   2.454   8.814  0.0573  0.8916  0.6989
  292MOL0     H39410   5.877   2.479   8.547  0.2732  1.0021 -1.5133
  292MOL0     H39411   5.996   2.610   8.555 -1.2820  0.4758 -0.6605
  292MOL0     H39412   5.806   2.725   8.612 -0.9393 -0.4505  1.0750
  292MOL0     H39413   5.852   2.680   8.771 -0.9193  1.2464  0.1431
  292MOL0     H39414   5.594   2.641   8.693 -0.1664  0.5000  2.3131
  292MOL0     H39415   5.660   2.510   8.603 -1.8791  2.4395 -0.8789
  292MOL0     H39416   5.676   2.365   9.017 -0.0409 -0.2013  0.0568
  292MOL0     H39417   6.259   2.188   8.663  1.3178 -0.4509  0.9788
  292MOL0     H39418   6.426   2.077   8.603  1.2667 -1.1408  1.6137
  292MOL0     H39419   6.565   2.138   8.517 -0.1902  0.2411 -0.8682
  292MOL0     H39420   6.569   2.150   8.694 -0.4100  1.5718  0.1090
  293MOL0     O39421  10.070   6.561   9.019 -0.2938 -0.3640 -0.8698
  293MOL0     C39422   9.979   6.491   8.980 -0.7308 -0.3875  0.0629
  293MOL0     O39423   9.993   6.357   8.959 -0.0010  0.0743  0.2129
  293MOL0     C39424  10.124   6.324   8.936  0.2390 -0.5237  0.0023
  293MOL0     C39425  10.200   6.351   8.820 -1.0641 -0.5115  0.1116
  293MOL0     C39426  10.324   6.291   8.805 -0.6692 -0.0214  0.1372
  293MOL0     C39427  10.378   6.202   8.894 -0.1908  0.8517 -0.5460
  293MOL0     O39428  10.500   6.143   8.879 -0.2798  0.6962  0.4203
  293MOL0     C39429  10.505   6.012   8.825 -0.0898  0.1004 -0.1020
  293MOL0     C39430  10.511   6.018   8.671  0.3302  0.0103  0.3108
  293MOL0     C39431  10.641   6.066   8.605  0.3108 -0.8375  0.2603
  293MOL0     C39432  10.624   6.034   8.450  0.1906 -1.1513 -1.1859
  293MOL0     C39433  10.733   6.088   8.357 -0.6426 -0.2925 -1.0353
  293MOL0     C39434  10.862   6.014   8.387  0.3825  0.5473  0.0375
  293MOL0     C39435  10.977   6.087   8.313 -0.4684 -0.5476 -0.0669
  293MOL0     C39436  10.978   6.072   8.159  0.3956 -0.8297 -0.0971
  293MOL0     N39437  11.107   6.122   8.108  0.2560 -0.0984 -0.0106
  293MOL0     C39438  11.129   6.255   8.073  0.1648 -0.2304  1.0740
  293MOL0     C39439  11.254   6.269   8.045 -0.2614  0.4246 -0.2964
  293MOL0     C39440  11.324   6.392   7.996  0.7521  0.6177 -0.0701
  293MOL0     C39441  11.467   6.356   7.944 -0.1895  0.2875  0.6995
  293MOL0     C39442  11.562   6.476   7.932  0.2983 -0.0838 -0.2863
  293MOL0     C39443  11.692   6.434   7.862  0.9062  0.1007 -0.7838
  293MOL0     O39444  11.671   6.378   7.731  0.2085  1.3866  0.2525
  293MOL0     C39445  11.785   6.333   7.675 -0.4581  0.0349  0.0847
  293MOL0     C39446  11.916   6.342   7.740  0.2831  0.7437  0.2300
  293MOL0     C39447  12.024   6.293   7.663  0.2910 -0.3047  0.0266
  293MOL0     C39448  12.009   6.277   7.522 -1.2824  0.1136 -0.2730
  293MOL0     C39449  12.124   6.224   7.445  0.6098  0.4126  0.8248
  293MOL0     O39450  12.247   6.205   7.502  0.1740 -0.1359 -0.2925
  293MOL0     C39451  12.353   6.157   7.418 -0.0217 -0.3597  0.1328
  293MOL0     C39452  12.361   6.030   7.359 -0.4574  0.6578  0.3328
  293MOL0     C39453  12.469   6.015   7.267  0.3473  0.7943 -0.3827
  293MOL0     C39454  12.575   6.105   7.263  0.0375  0.5105 -0.4530
  293MOL0     O39455  12.693   6.084   7.192  0.2668 -0.0289  0.4360
  293MOL0     C39456  12.727   5.949   7.187  0.2038 -0.3423 -0.0260
  293MOL0     C39457  12.858   5.949   7.104  0.4449  0.6226 -0.1378
  293MOL0     C39458  12.903   5.796   7.080  0.5661 -0.6896 -0.4563
  293MOL0     C39459  13.029   5.775   7.011  0.4461 -0.1013  0.3582
  293MOL0     C39460  13.052   5.629   7.007  0.3167 -0.5446  0.7728
  293MOL0     C39461  13.206   5.611   6.966  0.1681 -0.0556 -0.8881
  293MOL0     C39462  13.254   5.464   6.979  1.3517  0.2263 -0.0966
  293MOL0     C39463  13.399   5.442   6.946 -0.6402  0.2230  0.4729
  293MOL0    Cl39464  13.491   5.531   7.068  0.1502  0.4475 -0.0272
  293MOL0     C39465  12.577   6.207   7.341 -0.5363 -0.7640 -0.2720
  293MOL0     C39466  12.462   6.243   7.410  0.9222 -0.2998  0.6808
  293MOL0     O39467  12.100   6.206   7.323  0.0645 -0.0857 -0.4779
  293MOL0     C39468  11.889   6.290   7.471 -0.1598 -1.0972  0.3121
  293MOL0     C39469  11.773   6.312   7.536 -0.0472 -0.7918  0.4002
  293MOL0     N39470  11.309   6.140   8.069  0.3275 -0.4391 -0.3106
  293MOL0     N39471  11.218   6.052   8.101 -0.3207 -0.0422  0.4946
  293MOL0     C39472  10.302   6.165   9.004 -0.4278 -0.1777  0.2627
  293MOL0     C39473  10.176   6.233   9.028  0.5872  0.1174  0.3510
  293MOL0     C39474   9.831   6.535   8.982 -0.4696 -0.3608 -0.4631
  293MOL0     C39475   9.726   6.447   8.992 -0.6472 -0.3170  0.9636
  293MOL0     C39476   9.601   6.487   9.031  0.5441  0.2504 -0.6500
  293MOL0     C39477   9.571   6.620   9.044 -0.9134  0.1874  0.1735
  293MOL0     O39478   9.445   6.658   9.085 -0.1450  0.6323 -0.1730
  293MOL0     C39479   9.383   6.605   9.194 -0.5289  0.1310 -1.0925
  293MOL0     C39480   9.275   6.702   9.225  0.0957 -0.4931  0.4764
  293MOL0     C39481   9.212   6.669   9.359 -0.4412 -0.6083 -0.5444
  293MOL0     C39482   9.175   6.535   9.393  0.4628 -0.3042  0.1777
  293MOL0     C39483   9.050   6.493   9.324 -0.0623  0.3582  0.2887
  293MOL0     C39484   8.940   6.474   9.279  0.7430 -0.6565  0.4897
  293MOL0     C39485   9.666   6.706   9.012  0.6833 -0.4334  0.5546
  293MOL0     C39486   9.798   6.672   8.980  0.4078 -0.1680  0.3644
  293MOL0     C39487   9.901   6.778   8.980 -0.1363 -0.7158 -1.0522
  293MOL0     H39488  10.153   6.417   8.748  0.6498 -0.4738 -1.0335
  293MOL0     H39489  10.373   6.292   8.708 -0.6293  2.7679  0.1217
  293MOL0     H39490  10.596   5.958   8.852  1.1434  1.0205 -2.1449
  293MOL0     H39491  10.424   5.945   8.855  1.4750 -2.9852 -2.1690
  293MOL0     H39492  10.433   6.085   8.634  1.4598  2.3743  1.9538
  293MOL0     H39493  10.486   5.915   8.641 -2.9382 -0.0555  2.7737
  293MOL0     H39494  10.719   6.002   8.647 -0.1557 -1.3324  0.3947
  293MOL0     H39495  10.666   6.171   8.624  0.2531 -0.6855 -0.4616
  293MOL0     H39496  10.617   5.925   8.449  1.0767 -1.2358 -0.2824
  293MOL0     H39497  10.530   6.082   8.422  0.5861 -0.9888 -2.2824
  293MOL0     H39498  10.704   6.080   8.252 -1.9485  0.8221 -0.7856
  293MOL0     H39499  10.745   6.195   8.376 -1.2046 -0.4372  0.2728
  293MOL0     H39500  10.884   5.999   8.493 -1.3620  0.0917  0.3652
  293MOL0     H39501  10.860   5.912   8.348 -2.3983  0.7966 -0.7284
  293MOL0     H39502  11.065   6.030   8.344 -0.2139 -0.4850 -0.6543
  293MOL0     H39503  10.985   6.195   8.328 -0.2022 -0.6278  0.3678
  293MOL0     H39504  10.953   5.968   8.137  0.6568 -0.9468  0.1530
  293MOL0     H39505  10.903   6.145   8.128  1.0688  0.9500  2.1726
  293MOL0     H39506  11.058   6.334   8.054 -0.4861 -0.6983  1.5384
  293MOL0     H39507  11.271   6.441   7.913 -1.6858 -0.7095  0.6317
  293MOL0     H39508  11.340   6.467   8.073  0.7273  1.0144 -0.4478
  293MOL0     H39509  11.523   6.287   8.009  1.3781  1.2261  0.4035
  293MOL0     H39510  11.458   6.315   7.843 -0.0481 -1.4881  1.3758
  293MOL0     H39511  11.586   6.520   8.029 -2.1716 -0.2108  0.4484
  293MOL0     H39512  11.502   6.551   7.880 -0.1106  0.0441  0.3689
  293MOL0     H39513  11.730   6.357   7.930 -0.1203  0.9347  0.7756
  293MOL0     H39514  11.758   6.521   7.859 -0.1589  0.9199 -0.9723
  293MOL0     H39515  11.929   6.363   7.845  0.5920 -2.2299  0.8920
  293MOL0     H39516  12.119   6.275   7.712 -0.1927 -0.2082  1.0063
  293MOL0     H39517  12.286   5.955   7.385 -0.9326  1.2214  0.6136
  293MOL0     H39518  12.460   5.916   7.222 -1.6712 -0.0831  1.7253
  293MOL0     H39519  12.739   5.902   7.284 -0.8043 -2.4750 -0.8605
  293MOL0     H39520  12.647   5.885   7.146 -0.2826  0.0606  0.2808
  293MOL0     H39521  12.839   5.997   7.008 -0.3912  1.9480  0.6650
  293MOL0     H39522  12.944   6.005   7.140  0.1173 -0.4901  2.6307
  293MOL0     H39523  12.907   5.756   7.182 -3.4701  1.0018  0.5695
  293MOL0     H39524  12.826   5.731   7.036 -0.3683 -0.8705  1.3425
  293MOL0     H39525  13.113   5.824   7.061 -0.5436  1.0404  0.9307
  293MOL0     H39526  13.017   5.813   6.909  1.3022 -3.0151 -0.9377
  293MOL0     H39527  12.984   5.584   6.933 -0.1566 -0.2696  1.0405
  293MOL0     H39528  13.030   5.582   7.103 -0.7932 -0.4310  0.5844
  293MOL0     H39529  13.214   5.647   6.863 -0.0907 -0.5178 -1.0726
  293MOL0     H39530  13.261   5.667   7.042  0.1958 -0.1561 -0.8342
  293MOL0     H39531  13.194   5.408   6.906  0.8806  1.5180 -0.7256
  293MOL0     H39532  13.234   5.427   7.079  1.0237  0.3582 -0.1116
  293MOL0     H39533  13.431   5.337   6.953  0.1092  0.5635  3.4961
  293MOL0     H39534  13.426   5.482   6.848  1.5154 -1.5065  0.2881
  293MOL0     H39535  12.671   6.260   7.338  1.1153 -3.5257 -0.4390
  293MOL0     H39536  12.469   6.341   7.457  2.6498  0.2560 -0.6212
  293MOL0     H39537  11.868   6.280   7.365  0.7707  2.4264 -0.3033
  293MOL0     H39538  11.677   6.308   7.485 -0.6280  3.7073  0.7737
  293MOL0     H39539  10.330   6.093   9.080 -1.9110  0.7031  1.6908
  293MOL0     H39540  10.122   6.198   9.116 -1.1274 -1.5424 -1.2793
  293MOL0     H39541   9.748   6.341   9.000 -0.1397 -0.5287 -2.1354
  293MOL0     H39542   9.529   6.412   9.063  3.1565 -1.9031  0.5783
  293MOL0     H39543   9.452   6.603   9.278  0.0500  1.9461 -1.4736
  293MOL0     H39544   9.334   6.509   9.176 -1.7809  0.5263  0.0660
  293MOL0     H39545   9.195   6.704   9.150  1.2177  2.8066 -0.7920
  293MOL0     H39546   9.315   6.802   9.241 -2.7615  0.8874 -0.4926
  293MOL0     H39547   9.128   6.739   9.366 -0.9905 -1.2353 -0.7044
  293MOL0     H39548   9.289   6.699   9.431 -0.6293  0.6179 -0.8264
  293MOL0     H39549   9.261   6.470   9.374  2.3548  2.0362  0.2831
  293MOL0     H39550   9.157   6.534   9.501  3.0961 -1.8565  0.6731
  293MOL0     H39551   8.848   6.467   9.224  0.9276  0.3789  0.0150
  293MOL0     H39552   9.617   6.803   9.012 -0.6378 -1.0705  0.4177
  293MOL0     H39553   9.980   6.772   9.055  0.4178  0.5395 -1.5093
  293MOL0     H39554   9.943   6.786   8.879 -1.1281  1.7017 -1.3633
  293MOL0     H39555   9.849   6.871   9.005 -0.6217 -1.3080  0.2384
  294MOL0     O39556   1.218   3.095   6.032  0.4841  0.9343  0.5950
  294MOL0     C39557   1.141   3.001   6.029  0.4602 -1.0422  0.0472
  294MOL0     O39558   1.174   2.868   6.030 -0.6399  0.5075 -0.4420
  294MOL0     C39559   1.315   2.834   6.027  0.3167  0.1517 -0.2044
  294MOL0     C39560   1.362   2.733   5.939  0.1476  0.2653  0.1141
  294MOL0     C39561   1.498   2.691   5.948 -0.1875 -0.2248 -0.7483
  294MOL0     C39562   1.593   2.749   6.035  0.2432 -0.1132  0.3389
  294MOL0     O39563   1.731   2.715   6.030 -0.5066  0.4076  0.0407
  294MOL0     C39564   1.797   2.698   5.897  0.5372  0.7489  0.0399
  294MOL0     C39565   1.933   2.640   5.893 -0.3731  1.0990 -0.3284
  294MOL0     C39566   1.950   2.519   5.984  0.4878 -0.5995  0.0647
  294MOL0     C39567   2.084   2.446   5.966  0.0713 -0.6722  0.1993
  294MOL0     C39568   2.187   2.532   6.045 -0.1097 -0.2100  0.2965
  294MOL0     C39569   2.312   2.454   6.073  0.2795  1.2890  1.0896
  294MOL0     C39570   2.424   2.521   6.152 -0.4571  0.0173  0.7859
  294MOL0     C39571   2.532   2.415   6.177  0.6783  1.0842 -0.1165
  294MOL0     N39572   2.638   2.469   6.256  0.4149  0.0435  0.2701
  294MOL0     C39573   2.660   2.443   6.394  0.4005  0.3343  0.1496
  294MOL0     C39574   2.781   2.488   6.419  0.4597  0.3313 -0.3604
  294MOL0     C39575   2.845   2.463   6.552 -0.0639 -0.1178 -0.2747
  294MOL0     C39576   2.967   2.372   6.548  0.6852  0.0127  0.4067
  294MOL0     C39577   3.042   2.391   6.675 -0.1875  0.2793  0.2831
  294MOL0     C39578   3.171   2.302   6.666  0.0426  0.8154  0.0726
  294MOL0     O39579   3.230   2.309   6.796  0.7436 -0.5118  0.0131
  294MOL0     C39580   3.361   2.268   6.801 -0.3472 -0.2136  0.7587
  294MOL0     C39581   3.429   2.219   6.693  0.0661 -0.1626  0.2595
  294MOL0     C39582   3.565   2.188   6.700 -0.5600  0.2768  0.4903
  294MOL0     C39583   3.641   2.210   6.817  0.4618  0.6140  1.1419
  294MOL0     C39584   3.783   2.193   6.822 -0.0561 -0.1698 -0.2621
  294MOL0     O39585   3.844   2.254   6.931  0.5101 -0.2448  0.2966
  294MOL0     C39586   3.982   2.252   6.941  0.1871 -0.2014  0.4729
  294MOL0     C39587   4.049   2.198   7.049 -0.0122 -0.8189  0.2865
  294MOL0     C39588   4.191   2.185   7.044  0.1137  0.4969  0.6826
  294MOL0     C39589   4.259   2.223   6.926  0.0051 -0.5301 -0.2399
  294MOL0     O39590   4.398   2.219   6.933 -0.3350 -0.5834  0.1983
  294MOL0     C39591   4.478   2.279   6.825  0.0159 -0.5493  0.2036
  294MOL0     C39592   4.625   2.242   6.843  0.0572  0.2548  0.1729
  294MOL0     C39593   4.695   2.296   6.722 -0.0052  0.4680 -0.7768
  294MOL0     C39594   4.850   2.269   6.733  0.4806 -0.5999  0.3539
  294MOL0     C39595   4.934   2.353   6.647 -0.2306 -0.3555  0.5477
  294MOL0     C39596   5.082   2.328   6.675  0.1539 -0.4477  0.4276
  294MOL0     C39597   5.184   2.440   6.622 -0.0400 -0.7167  0.5932
  294MOL0     C39598   5.303   2.368   6.553  0.9124  0.1400 -0.3793
  294MOL0    Cl39599   5.428   2.470   6.483  0.4939 -0.1028 -0.2020
  294MOL0     C39600   4.190   2.282   6.822  0.0383  0.6414 -0.6015
  294MOL0     C39601   4.050   2.307   6.837  0.5913 -0.1177  0.6668
  294MOL0     O39602   3.843   2.140   6.723  0.1549 -0.1018 -0.6438
  294MOL0     C39603   3.569   2.267   6.928  0.0922  0.1823 -0.2295
  294MOL0     C39604   3.438   2.293   6.913  0.3308  0.2868  0.2553
  294MOL0     N39605   2.831   2.553   6.308 -0.7278  0.6128 -0.4439
  294MOL0     N39606   2.746   2.537   6.211  0.8803  0.2868 -0.3721
  294MOL0     C39607   1.544   2.844   6.121 -0.2398  0.3296  0.1643
  294MOL0     C39608   1.415   2.890   6.111 -0.2024  0.6584  0.0209
  294MOL0     C39609   0.991   3.032   6.038 -0.2448 -0.2524 -0.5489
  294MOL0     C39610   0.908   2.939   5.975 -0.0477  0.8454 -1.0237
  294MOL0     C39611   0.767   2.940   5.993 -0.1225  0.2960  0.1932
  294MOL0     C39612   0.711   3.046   6.071 -0.0564 -0.3379  0.5689
  294MOL0     O39613   0.579   3.046   6.080 -0.1967 -0.2549  0.0389
  294MOL0     C39614   0.522   3.015   6.199  0.0898 -0.1825 -0.0970
  294MOL0     C39615   0.370   2.998   6.177  0.4980 -0.3045  0.2053
  294MOL0     C39616   0.300   3.121   6.109  0.2670  0.1989 -0.7103
  294MOL0     C39617   0.153   3.119   6.155 -0.7649  0.5404  0.7993
  294MOL0     C39618   0.112   3.233   6.241 -0.1733  0.6068 -0.0453
  294MOL0     C39619   0.074   3.320   6.321  0.3090 -0.4868 -0.5721
  294MOL0     C39620   0.800   3.136   6.136  0.3558  0.6389  0.0590
  294MOL0     C39621   0.940   3.136   6.122 -0.5557  0.2041  0.0957
  294MOL0     C39622   1.026   3.244   6.190  0.4966 -0.6002 -0.9495
  294MOL0     H39623   1.294   2.687   5.868 -0.1005  3.3597 -1.8625
  294MOL0     H39624   1.528   2.601   5.897  1.8243 -1.4747  2.3335
  294MOL0     H39625   1.733   2.627   5.844  1.0979 -0.9567  1.5386
  294MOL0     H39626   1.789   2.794   5.845 -0.8256  0.6091 -0.0475
  294MOL0     H39627   2.004   2.720   5.920  2.0756 -0.0139 -2.8682
  294MOL0     H39628   1.971   2.616   5.793 -0.0872 -1.6364  0.3711
  294MOL0     H39629   1.858   2.461   5.970  1.0954 -1.7768  0.8666
  294MOL0     H39630   1.949   2.548   6.089 -0.4337  1.4904 -0.4619
  294MOL0     H39631   2.079   2.341   5.994 -0.0034  0.0203  3.1098
  294MOL0     H39632   2.114   2.453   5.861  3.3924  0.1680  1.0790
  294MOL0     H39633   2.211   2.621   5.986 -0.7850 -0.6666 -0.6774
  294MOL0     H39634   2.148   2.570   6.140  1.3388  0.5779  0.6140
  294MOL0     H39635   2.285   2.354   6.109  1.2937 -0.5490 -2.7649
  294MOL0     H39636   2.342   2.429   5.971 -2.4892 -6.1628  1.4578
  294MOL0     H39637   2.386   2.554   6.249  2.4645  1.3920  1.6020
  294MOL0     H39638   2.461   2.611   6.102 -0.8447 -0.4882 -0.4463
  294MOL0     H39639   2.487   2.331   6.229  2.0055 -0.5459 -1.4579
  294MOL0     H39640   2.556   2.381   6.075 -0.8443 -0.7944  0.1048
  294MOL0     H39641   2.598   2.382   6.459  1.9215 -0.0005  1.3340
  294MOL0     H39642   2.877   2.563   6.581  1.8459 -0.5218 -0.8363
  294MOL0     H39643   2.780   2.425   6.632  1.2508 -1.3455  0.2693
  294MOL0     H39644   2.952   2.266   6.529  0.9400 -0.2451  1.5851
  294MOL0     H39645   3.033   2.408   6.469 -0.1207  0.1868 -0.1985
  294MOL0     H39646   2.979   2.354   6.756  0.8821  0.8408  1.4035
  294MOL0     H39647   3.066   2.494   6.704 -1.9295 -0.2139  4.0769
  294MOL0     H39648   3.236   2.336   6.584  2.3361 -2.5631  0.2885
  294MOL0     H39649   3.150   2.198   6.639  1.7978  0.4353  0.0816
  294MOL0     H39650   3.387   2.201   6.594 -1.6964  1.3714  0.6868
  294MOL0     H39651   3.613   2.157   6.608 -4.4321  2.4542 -2.5262
  294MOL0     H39652   4.000   2.161   7.138 -3.1749 -0.6758 -1.2771
  294MOL0     H39653   4.256   2.141   7.119 -1.2425 -1.4874  0.7549
  294MOL0     H39654   4.437   2.261   6.725 -6.9788  1.8467  2.0190
  294MOL0     H39655   4.465   2.388   6.832 -0.8043 -0.4312 -2.2747
  294MOL0     H39656   4.659   2.282   6.939  1.0660  1.5388 -0.6875
  294MOL0     H39657   4.633   2.133   6.840  0.7556  0.2216  1.9411
  294MOL0     H39658   4.657   2.256   6.628 -0.1425 -0.4366 -0.3541
  294MOL0     H39659   4.691   2.405   6.717  2.2203  0.5836 -1.4010
  294MOL0     H39660   4.861   2.164   6.702 -3.9344 -0.7707 -1.3525
  294MOL0     H39661   4.877   2.291   6.836  5.6115 -0.7802 -0.6858
  294MOL0     H39662   4.904   2.457   6.659 -0.5738 -0.2826 -0.8339
  294MOL0     H39663   4.914   2.336   6.541  2.4813  1.3807 -0.3611
  294MOL0     H39664   5.086   2.316   6.784 -1.9899 -1.3944  0.4703
  294MOL0     H39665   5.102   2.232   6.627  0.1518 -0.5793  0.6869
  294MOL0     H39666   5.210   2.507   6.704 -0.3434 -1.3549  1.2285
  294MOL0     H39667   5.131   2.498   6.546  0.3996  1.3112  1.7736
  294MOL0     H39668   5.337   2.304   6.635 -0.8679 -0.1417  0.1939
  294MOL0     H39669   5.267   2.301   6.474  0.6870  0.7355 -0.7881
  294MOL0     H39670   4.227   2.313   6.724 -1.6307 -0.4781 -1.6492
  294MOL0     H39671   4.010   2.354   6.748  1.2835  3.0562  1.8766
  294MOL0     H39672   3.610   2.278   7.028  2.7162 -0.6398 -1.1354
  294MOL0     H39673   3.404   2.353   6.998 -3.0999 -1.4649  0.3025
  294MOL0     H39674   1.610   2.890   6.193 -0.1714 -0.2467  0.4701
  294MOL0     H39675   1.380   2.977   6.167  1.4058  3.0522 -2.4563
  294MOL0     H39676   0.946   2.869   5.901 -0.6500 -0.6314  0.0091
  294MOL0     H39677   0.693   2.875   5.948 -1.6780  0.5737  2.1710
  294MOL0     H39678   0.552   3.087   6.274 -0.5339  0.7096 -0.6825
  294MOL0     H39679   0.558   2.916   6.231  0.2795 -0.6026 -1.5241
  294MOL0     H39680   0.330   2.988   6.278 -3.3677 -1.1172 -1.2182
  294MOL0     H39681   0.347   2.905   6.124  0.4937  1.3517 -2.9464
  294MOL0     H39682   0.306   3.106   6.001  0.0526  0.3438 -0.7416
  294MOL0     H39683   0.345   3.218   6.131 -2.5964  1.9991 -2.2375
  294MOL0     H39684   0.097   3.128   6.062 -1.0400 -0.0115  0.9039
  294MOL0     H39685   0.129   3.024   6.204  1.3664 -1.1448 -1.1836
  294MOL0     H39686   0.036   3.386   6.396  1.0586  2.7129 -2.8047
  294MOL0     H39687   0.746   3.215   6.186  0.3980  2.1773 -2.1610
  294MOL0     H39688   0.976   3.286   6.278 -0.5975 -1.5995 -1.0727
  294MOL0     H39689   1.110   3.184   6.224  1.0142  1.7668  2.4804
  294MOL0     H39690   1.057   3.329   6.128  0.9779 -0.8622 -1.0652
  295MOL0     O39691   1.749   3.112   9.986  0.1795 -0.2717 -0.3124
  295MOL0     C39692   1.627   3.138   9.985 -0.7425 -0.3206  0.1374
  295MOL0     O39693   1.585   3.264   9.986  0.2802 -0.3788 -0.4756
  295MOL0     C39694   1.659   3.374   9.972  0.1788 -0.0754 -0.2061
  295MOL0     C39695   1.621   3.460   9.869  0.3644 -1.2541 -0.0101
  295MOL0     C39696   1.689   3.582   9.860 -0.4779  0.0980  0.1127
  295MOL0     C39697   1.800   3.616   9.940  0.2923 -0.2369  0.7156
  295MOL0     O39698   1.860   3.738   9.911 -0.2970 -0.2206  0.1040
  295MOL0     C39699   1.987   3.770   9.966 -0.3672 -0.1463  0.0224
  295MOL0     C39700   2.084   3.771   9.849 -0.5277  0.2378 -0.2105
  295MOL0     C39701   2.221   3.831   9.901 -0.0668 -0.0816 -0.8594
  295MOL0     C39702   2.311   3.880   9.787  0.9781 -0.2093 -0.3457
  295MOL0     C39703   2.437   3.933   9.844  0.3268  0.9249  0.6284
  295MOL0     C39704   2.548   3.965   9.740 -0.6447  0.4434 -0.1692
  295MOL0     C39705   2.673   4.029   9.805  0.4280 -0.3467  0.6551
  295MOL0     C39706   2.769   4.076   9.701 -0.3191  0.2517  0.1099
  295MOL0     N39707   2.824   3.965   9.625 -0.5109 -0.2620  0.8914
  295MOL0     C39708   2.760   3.894   9.527 -0.1236 -0.2429 -0.2677
  295MOL0     C39709   2.837   3.793   9.496  0.6784  0.1755  0.3684
  295MOL0     C39710   2.812   3.687   9.400  0.9198  0.1082 -1.5979
  295MOL0     C39711   2.785   3.730   9.260 -0.3978  0.4649 -0.3384
  295MOL0     C39712   2.805   3.611   9.170  0.6776 -0.0189 -0.9268
  295MOL0     C39713   2.952   3.583   9.136  0.3271 -0.1376  0.9306
  295MOL0     O39714   2.969   3.483   9.031 -0.3587 -0.0512 -0.5128
  295MOL0     C39715   3.092   3.488   8.981 -0.0211  0.1802 -0.0948
  295MOL0     C39716   3.203   3.413   9.027  0.4286 -0.4348  0.1475
  295MOL0     C39717   3.330   3.440   8.974  0.1428 -0.2972  0.6001
  295MOL0     C39718   3.349   3.532   8.873  0.2799  0.4952  0.3462
  295MOL0     C39719   3.483   3.557   8.805 -0.0024 -0.0405 -0.6885
  295MOL0     O39720   3.581   3.460   8.819 -0.5150 -0.5100  0.8773
  295MOL0     C39721   3.700   3.457   8.749 -0.4183 -0.0319 -0.2387
  295MOL0     C39722   3.752   3.546   8.652 -0.0854 -0.8557 -0.3067
  295MOL0     C39723   3.866   3.525   8.581 -1.0176  0.6229 -1.1055
  295MOL0     C39724   3.928   3.401   8.601 -0.5738  0.4810 -0.1112
  295MOL0     O39725   4.045   3.383   8.532 -0.3777  0.2692 -0.5724
  295MOL0     C39726   4.123   3.261   8.546  0.4410 -0.5846 -0.2906
  295MOL0     C39727   4.258   3.258   8.471  0.2655 -0.5260 -0.0096
  295MOL0     C39728   4.351   3.354   8.547  0.8822  0.3809  0.1747
  295MOL0     C39729   4.503   3.308   8.537  0.3597  0.0152  0.4607
  295MOL0     C39730   4.598   3.408   8.608  0.6185  0.0812 -0.0653
  295MOL0     C39731   4.733   3.340   8.625  0.2246  0.0867  0.1276
  295MOL0     C39732   4.828   3.391   8.518  0.0970 -0.1160  0.0438
  295MOL0     C39733   4.957   3.306   8.518 -0.3590 -0.6657 -0.0928
  295MOL0    Cl39734   5.045   3.300   8.677 -0.2559 -0.4916  0.5334
  295MOL0     C39735   3.885   3.313   8.700 -0.0804  0.1745  0.1682
  295MOL0     C39736   3.769   3.336   8.766  0.9577  0.3888  0.0024
  295MOL0     O39737   3.493   3.653   8.732 -0.0323  0.4393 -0.1341
  295MOL0     C39738   3.244   3.599   8.828  0.1539 -0.8350 -0.1711
  295MOL0     C39739   3.114   3.584   8.883  0.1415  0.1319  0.5755
  295MOL0     N39740   2.949   3.804   9.574  0.6089 -0.5918  0.1515
  295MOL0     N39741   2.948   3.915   9.632  0.4450  0.0324  0.5563
  295MOL0     C39742   1.835   3.522  10.040  0.0295 -0.7222  0.0063
  295MOL0     C39743   1.767   3.404  10.058 -0.2615 -0.4147  0.6502
  295MOL0     C39744   1.521   3.026   9.997  0.2914  0.0442 -0.2288
  295MOL0     C39745   1.389   3.057   9.971  0.8297  0.6238 -1.0517
  295MOL0     C39746   1.289   2.962   9.951 -0.6149 -0.8621 -0.4054
  295MOL0     C39747   1.313   2.828   9.983  0.1458  0.2212 -0.4844
  295MOL0     O39748   1.237   2.716   9.961  0.4122 -0.2754  0.5683
  295MOL0     C39749   1.103   2.741   9.917  0.4929 -1.2273 -0.0763
  295MOL0     C39750   1.104   2.787   9.768 -0.2819 -0.4719  0.3401
  295MOL0     C39751   1.098   2.665   9.681  0.0907  0.2207 -0.5255
  295MOL0     C39752   1.234   2.602   9.644  0.7907  0.5667 -0.2537
  295MOL0     C39753   1.180   2.479   9.573 -0.0870  0.4153  0.6394
  295MOL0     C39754   1.153   2.389   9.492 -0.5822 -0.9154  0.4168
  295MOL0     C39755   1.446   2.801  10.031  0.5576 -0.1746 -0.0923
  295MOL0     C39756   1.544   2.895  10.041 -0.2525 -0.2116  0.2305
  295MOL0     C39757   1.678   2.863  10.111 -0.2030 -0.2181  0.3595
  295MOL0     H39758   1.535   3.433   9.809 -0.3793  0.3383  0.3027
  295MOL0     H39759   1.659   3.648   9.780  0.4570  0.8086  0.3308
  295MOL0     H39760   1.986   3.875   9.997 -2.7653 -0.5389  1.5505
  295MOL0     H39761   2.023   3.713  10.052  1.6691  0.8662 -0.0960
  295MOL0     H39762   2.044   3.836   9.770 -0.3803  1.5156  0.7296
  295MOL0     H39763   2.106   3.670   9.814 -1.3572 -0.8073  2.0630
  295MOL0     H39764   2.269   3.757   9.965 -0.1916  1.5444  1.2116
  295MOL0     H39765   2.199   3.918   9.964 -3.0583 -0.0995 -1.7458
  295MOL0     H39766   2.338   3.794   9.725 -1.7354 -0.5472 -1.1659
  295MOL0     H39767   2.250   3.946   9.726 -0.3940  0.5273  1.7055
  295MOL0     H39768   2.404   4.027   9.889  2.3186  1.7936  0.3515
  295MOL0     H39769   2.476   3.863   9.919  2.0550  1.9474  0.7491
  295MOL0     H39770   2.575   3.874   9.686  0.5767  1.9513 -2.2476
  295MOL0     H39771   2.507   4.037   9.668  1.9310  1.7219 -0.4512
  295MOL0     H39772   2.717   3.969   9.885  2.8720  1.4441  0.8101
  295MOL0     H39773   2.631   4.113   9.862 -0.0112 -1.6399  2.2859
  295MOL0     H39774   2.723   4.136   9.621  2.3542 -1.5667 -3.0685
  295MOL0     H39775   2.854   4.119   9.755 -1.1227  0.2943  1.3755
  295MOL0     H39776   2.661   3.909   9.484 -0.9189  0.5291  1.7181
  295MOL0     H39777   2.895   3.617   9.405  1.2797  0.6078  0.1711
  295MOL0     H39778   2.731   3.623   9.435  3.1644 -1.5559  0.9371
  295MOL0     H39779   2.682   3.767   9.261 -0.5747  0.1371  2.3761
  295MOL0     H39780   2.853   3.809   9.224  0.5968 -1.2293 -2.3908
  295MOL0     H39781   2.753   3.628   9.075 -1.0262 -1.9154 -0.4000
  295MOL0     H39782   2.762   3.519   9.211  1.1094  0.5516  0.8911
  295MOL0     H39783   3.012   3.562   9.225  2.5375  2.3377  0.1687
  295MOL0     H39784   2.988   3.683   9.109  0.1064  0.2352  1.9821
  295MOL0     H39785   3.187   3.344   9.109 -0.4894 -0.9523 -0.4502
  295MOL0     H39786   3.422   3.393   9.007 -0.5270 -1.5618  0.7265
  295MOL0     H39787   3.697   3.636   8.624 -0.6195 -0.5649  1.5306
  295MOL0     H39788   3.913   3.582   8.502  0.9543  2.5810  1.2772
  295MOL0     H39789   4.134   3.227   8.649  1.6210 -0.8250 -0.4738
  295MOL0     H39790   4.063   3.182   8.500 -0.3675  0.5339 -1.1755
  295MOL0     H39791   4.300   3.157   8.469  1.6219  0.0086 -1.6883
  295MOL0     H39792   4.237   3.294   8.370 -0.8162  1.3481  0.8295
  295MOL0     H39793   4.334   3.457   8.516  2.0975  1.0724  1.6491
  295MOL0     H39794   4.317   3.359   8.651 -4.2592 -0.3243 -1.2007
  295MOL0     H39795   4.538   3.300   8.433 -0.8406  1.2951 -0.0708
  295MOL0     H39796   4.512   3.208   8.580 -2.1055 -0.4954 -0.0772
  295MOL0     H39797   4.550   3.432   8.704 -1.3470 -0.8132 -0.7686
  295MOL0     H39798   4.615   3.498   8.549  3.9176 -0.3932  0.0087
  295MOL0     H39799   4.780   3.365   8.721 -0.5692  1.2381  0.2400
  295MOL0     H39800   4.725   3.232   8.613 -1.0328  0.4986 -5.1374
  295MOL0     H39801   4.847   3.498   8.515  0.5059 -0.1852 -2.4797
  295MOL0     H39802   4.778   3.380   8.421 -0.2329 -1.5123  0.3528
  295MOL0     H39803   4.928   3.204   8.491 -1.2893  0.0223 -1.7915
  295MOL0     H39804   5.022   3.359   8.448  0.5939 -0.2383  1.0703
  295MOL0     H39805   3.930   3.217   8.722  1.9418  1.5348  2.6019
  295MOL0     H39806   3.721   3.272   8.839 -2.5731  0.2681 -2.2202
  295MOL0     H39807   3.256   3.660   8.740 -4.7233  0.2796 -0.3751
  295MOL0     H39808   3.030   3.638   8.842 -1.4231 -2.8221 -0.4044
  295MOL0     H39809   1.923   3.521  10.103  0.8630 -2.2949 -1.1298
  295MOL0     H39810   1.794   3.331  10.134 -2.8797 -1.9656  0.1913
  295MOL0     H39811   1.361   3.161   9.959 -0.0873  0.6044  0.6428
  295MOL0     H39812   1.192   2.998   9.917 -1.8377 -2.7428  0.8744
  295MOL0     H39813   1.059   2.818   9.982  2.0697 -0.1533 -0.2348
  295MOL0     H39814   1.039   2.655   9.937 -0.2353 -0.4574  1.0480
  295MOL0     H39815   1.196   2.840   9.740 -0.9459 -0.9945 -3.3577
  295MOL0     H39816   1.019   2.847   9.735  1.8722  1.9082 -1.3450
  295MOL0     H39817   1.051   2.708   9.593  2.0036  3.6403 -0.0288
  295MOL0     H39818   1.032   2.595   9.733  1.8064 -0.3455  1.0508
  295MOL0     H39819   1.294   2.665   9.578  2.0389 -0.4667 -0.1492
  295MOL0     H39820   1.291   2.589   9.736  1.3811  1.4603 -0.4811
  295MOL0     H39821   1.122   2.313   9.423 -1.4432  0.2571 -0.5123
  295MOL0     H39822   1.453   2.702  10.075 -5.5128  0.1006  2.4450
  295MOL0     H39823   1.709   2.954  10.164 -0.3241 -0.9277  1.6860
  295MOL0     H39824   1.668   2.782  10.184 -0.8311  0.9845  1.6457
  295MOL0     H39825   1.759   2.838  10.042 -1.1548  1.0595 -1.2901
  296MOL0     O39826   5.457  10.208   0.235  0.0095 -0.1811  0.0159
  296MOL0     C39827   5.397  10.301   0.292 -0.3227 -0.6642 -1.1952
  296MOL0     O39828   5.457  10.375   0.387 -0.3854  0.0110 -0.0314
  296MOL0     C39829   5.601  10.396   0.390  1.0329  0.0032  0.3958
  296MOL0     C39830   5.689  10.372   0.286 -0.8897  0.2285  0.9490
  296MOL0     C39831   5.821  10.395   0.293 -1.0323  0.1378 -0.6512
  296MOL0     C39832   5.880  10.458   0.410  0.7804  0.7000 -0.4588
  296MOL0     O39833   6.007  10.491   0.426  0.2355  0.2597 -0.7943
  296MOL0     C39834   6.086  10.369   0.432  0.6080  0.2661 -0.6974
  296MOL0     C39835   6.236  10.391   0.419  0.7617 -0.4917 -0.3215
  296MOL0     C39836   6.327  10.274   0.390  0.3353  0.2670  0.7813
  296MOL0     C39837   6.461  10.305   0.327 -0.2291  0.0298 -0.7939
  296MOL0     C39838   6.565  10.189   0.346 -0.3731 -1.1350 -0.5743
  296MOL0     C39839   6.531  10.077   0.254 -0.5793 -0.7850 -0.3005
  296MOL0     C39840   6.631   9.964   0.284 -0.1393 -1.2174  0.6869
  296MOL0     C39841   6.763   9.980   0.214  0.8469  0.4595  0.6660
  296MOL0     N39842   6.842   9.856   0.227 -0.8020  1.1137  0.3120
  296MOL0     C39843   6.942   9.835   0.322 -0.3628 -0.3674  0.9560
  296MOL0     C39844   6.969   9.706   0.309  0.5806  0.0455  0.3731
  296MOL0     C39845   7.057   9.623   0.412  0.0856 -0.0649 -0.3690
  296MOL0     C39846   7.183   9.581   0.345 -0.7436 -1.0184  0.2515
  296MOL0     C39847   7.269   9.703   0.300 -0.4283 -0.8163 -0.2430
  296MOL0     C39848   7.407   9.655   0.261 -0.4831  0.1713  0.7574
  296MOL0     O39849   7.487   9.619   0.376 -0.6991  0.9205 -0.0792
  296MOL0     C39850   7.606   9.549   0.363  0.9735 -0.0760  0.3887
  296MOL0     C39851   7.683   9.538   0.477  0.0620  0.4425  0.6874
  296MOL0     C39852   7.808   9.469   0.469 -0.6067 -0.5168  0.2766
  296MOL0     C39853   7.857   9.424   0.349 -0.0670  0.0134  0.1057
  296MOL0     C39854   7.999   9.384   0.328  0.3169  0.2047  0.3335
  296MOL0     O39855   8.056   9.388   0.204 -0.2980 -0.8955  0.6199
  296MOL0     C39856   8.193   9.372   0.210 -0.3207 -0.9178 -0.2026
  296MOL0     C39857   8.273   9.469   0.145  0.3790 -0.8177  0.5898
  296MOL0     C39858   8.416   9.448   0.152  0.9043  0.1659  0.2013
  296MOL0     C39859   8.471   9.330   0.199 -0.6897 -0.6433 -0.6555
  296MOL0     O39860   8.602   9.307   0.189  0.1285 -0.3266  0.0546
  296MOL0     C39861   8.676   9.269   0.312 -0.3822  0.0309  0.8101
  296MOL0     C39862   8.800   9.196   0.260 -0.3921  0.6160 -0.1473
  296MOL0     C39863   8.913   9.300   0.208  0.4847  0.2211  0.0693
  296MOL0     C39864   9.018   9.234   0.127  0.2525  0.1478  0.4954
  296MOL0     C39865   9.146   9.304   0.107 -0.5171 -0.6363 -0.1193
  296MOL0     C39866   9.248   9.213   0.029 -0.6519 -0.5350 -0.5341
  296MOL0     C39867   9.392   9.283   0.030  0.3341  1.1297  0.0610
  296MOL0     C39868   9.501   9.186  -0.006 -1.0319 -0.3486 -0.5242
  296MOL0    Cl39869   9.548   9.076   0.116  0.3693  0.4093 -0.2016
  296MOL0     C39870   8.387   9.222   0.243 -0.6821 -0.4975 -0.4577
  296MOL0     C39871   8.252   9.252   0.252  0.2339 -0.2617  0.7095
  296MOL0     O39872   8.058   9.350   0.430 -0.7432 -0.9227 -0.0276
  296MOL0     C39873   7.773   9.424   0.239 -1.0061 -0.7733  0.1704
  296MOL0     C39874   7.649   9.490   0.250  0.4653  1.0411  0.3572
  296MOL0     N39875   6.892   9.653   0.212  0.0272  1.0596  0.3067
  296MOL0     N39876   6.829   9.742   0.151 -0.5837  0.3690 -0.4821
  296MOL0     C39877   5.793  10.480   0.520  0.0191  0.3253 -0.2435
  296MOL0     C39878   5.658  10.451   0.507  0.4055 -0.6420  1.0800
  296MOL0     C39879   5.256  10.320   0.268  0.1904  0.0660  0.5795
  296MOL0     C39880   5.208  10.248   0.159  0.6414  0.4134  0.1851
  296MOL0     C39881   5.077  10.250   0.130  0.9047 -0.9865  0.0775
  296MOL0     C39882   4.980  10.320   0.212  0.7937 -0.3483 -0.4183
  296MOL0     O39883   4.845  10.329   0.192 -0.1932 -0.2737 -0.7214
  296MOL0     C39884   4.770  10.264   0.081  0.0300 -0.5793 -0.2467
  296MOL0     C39885   4.649  10.359   0.048 -0.7137 -0.2089  0.0120
  296MOL0     C39886   4.551  10.305  -0.054  1.0560  0.4465 -0.0364
  296MOL0     C39887   4.410  10.378  -0.050  0.3343  1.4548 -0.2294
  296MOL0     C39888   4.321  10.333   0.063 -0.5292  0.5402  0.3998
  296MOL0     C39889   4.257  10.310   0.163  0.8544 -0.0542  0.7027
  296MOL0     C39890   5.034  10.389   0.325  0.4618  0.4178  0.4801
  296MOL0     C39891   5.168  10.397   0.348  0.1399  0.1524 -0.1200
  296MOL0     C39892   5.208  10.476   0.479 -0.4166  0.3744  0.0480
  296MOL0     H39893   5.657  10.333   0.190 -0.4797  0.0496  0.8843
  296MOL0     H39894   5.892  10.372   0.214  0.6383  0.7594  0.6051
  296MOL0     H39895   6.055  10.316   0.523 -4.2501  1.9395 -1.0867
  296MOL0     H39896   6.064  10.312   0.342 -0.2720  0.8617 -0.8643
  296MOL0     H39897   6.268  10.447   0.507  0.5524 -2.4593  1.0710
  296MOL0     H39898   6.254  10.463   0.339  3.7615  0.7951  1.3714
  296MOL0     H39899   6.263  10.226   0.315 -2.2118  3.6165  0.5632
  296MOL0     H39900   6.344  10.202   0.471 -0.1083 -0.2755  0.4045
  296MOL0     H39901   6.452  10.336   0.223  0.0373  2.3459 -0.1636
  296MOL0     H39902   6.499  10.387   0.388  1.6699 -1.7473  0.5928
  296MOL0     H39903   6.660  10.241   0.328 -2.0292  1.2996 -3.3453
  296MOL0     H39904   6.563  10.150   0.448 -0.3583  2.4926  0.9850
  296MOL0     H39905   6.433  10.040   0.286  0.1869 -1.2269  1.7068
  296MOL0     H39906   6.532  10.112   0.151  0.9708 -0.2305 -0.1191
  296MOL0     H39907   6.594   9.872   0.236 -2.2864  1.2605 -2.8962
  296MOL0     H39908   6.647   9.959   0.392  3.1121  1.3790  0.4693
  296MOL0     H39909   6.750   9.987   0.105 -1.9490 -4.5469  0.3525
  296MOL0     H39910   6.816  10.063   0.260  1.1008  1.4149 -1.2416
  296MOL0     H39911   6.990   9.897   0.397 -0.2893  0.8354 -0.0498
  296MOL0     H39912   7.072   9.683   0.502 -0.4448  0.3574 -0.5571
  296MOL0     H39913   7.015   9.531   0.454  1.1481 -0.0383  0.7804
  296MOL0     H39914   7.252   9.537   0.418  0.2762  1.7773  1.1200
  296MOL0     H39915   7.168   9.518   0.258  0.0250  2.9864 -3.0874
  296MOL0     H39916   7.272   9.782   0.376 -2.0571  0.2792 -1.2423
  296MOL0     H39917   7.228   9.756   0.213  2.1200  1.6100 -0.1352
  296MOL0     H39918   7.449   9.733   0.197  1.3192  0.0503  1.7311
  296MOL0     H39919   7.410   9.559   0.208  1.7196 -1.0114  2.8114
  296MOL0     H39920   7.660   9.574   0.577  4.8830  0.8280  1.8862
  296MOL0     H39921   7.873   9.464   0.556 -0.0517  1.1697 -0.0108
  296MOL0     H39922   8.222   9.554   0.103 -0.9738 -1.1296  1.5111
  296MOL0     H39923   8.487   9.516   0.105  3.6750 -1.7580  1.3069
  296MOL0     H39924   8.716   9.359   0.359  1.2486 -0.5048  0.5194
  296MOL0     H39925   8.619   9.213   0.387 -0.3440 -0.6375  0.3456
  296MOL0     H39926   8.839   9.141   0.346 -2.3091 -1.8760 -0.7546
  296MOL0     H39927   8.778   9.125   0.179  2.1625 -1.0003  0.4702
  296MOL0     H39928   8.859   9.370   0.144  1.4213  1.2177  0.3403
  296MOL0     H39929   8.951   9.351   0.297  0.1405  1.9544 -0.7277
  296MOL0     H39930   8.982   9.222   0.024 -0.8530  1.4544  0.7017
  296MOL0     H39931   9.044   9.145   0.185 -0.6947  0.3987  1.3312
  296MOL0     H39932   9.184   9.348   0.200  0.8137  0.0386 -0.9476
  296MOL0     H39933   9.129   9.389   0.040  2.1294 -0.9863 -1.3363
  296MOL0     H39934   9.250   9.109   0.061 -0.2426 -0.4216 -0.1736
  296MOL0     H39935   9.216   9.215  -0.076 -0.0042 -0.6323 -0.7399
  296MOL0     H39936   9.416   9.313   0.133  1.3495  2.0100 -0.4125
  296MOL0     H39937   9.398   9.377  -0.026  3.1404  0.7704 -0.3851
  296MOL0     H39938   9.480   9.135  -0.101  0.1143  0.6847 -1.3700
  296MOL0     H39939   9.592   9.243  -0.027  0.9407 -2.4702  1.5389
  296MOL0     H39940   8.433   9.125   0.261 -0.9659 -0.4609  0.5473
  296MOL0     H39941   8.173   9.183   0.279 -1.6215  1.1139 -0.9401
  296MOL0     H39942   7.802   9.381   0.144  0.5162  0.5906 -0.0283
  296MOL0     H39943   7.592   9.494   0.158  0.1027  1.3435  0.5907
  296MOL0     H39944   5.835  10.524   0.610  0.2274 -1.3575  0.5251
  296MOL0     H39945   5.586  10.477   0.584  1.1883  0.1547  1.5677
  296MOL0     H39946   5.277  10.197   0.092  0.7583  0.5015  0.2390
  296MOL0     H39947   5.055  10.207   0.032 -0.8917  1.0764 -0.4882
  296MOL0     H39948   4.731  10.166   0.111 -2.3912  0.4782  0.2574
  296MOL0     H39949   4.835  10.254  -0.006  0.7248  0.2565  0.1650
  296MOL0     H39950   4.676  10.454   0.001  0.4510 -1.5223 -2.1365
  296MOL0     H39951   4.598  10.376   0.144 -1.0688 -0.9749 -0.0387
  296MOL0     H39952   4.551  10.196  -0.042  3.4057  0.4276  0.2823
  296MOL0     H39953   4.589  10.315  -0.156  0.0516  1.2641 -0.3478
  296MOL0     H39954   4.414  10.487  -0.039 -0.4390  1.7235 -2.2742
  296MOL0     H39955   4.358  10.350  -0.142 -1.3049 -2.3228  1.6431
  296MOL0     H39956   4.196  10.281   0.246  0.7169  3.0474  1.7932
  296MOL0     H39957   4.964  10.450   0.382  0.2687 -2.1056  3.1609
  296MOL0     H39958   5.231  10.404   0.558 -1.3555  0.4010  0.3559
  296MOL0     H39959   5.300  10.531   0.458 -0.7200  0.9119  0.1354
  296MOL0     H39960   5.131  10.539   0.524  1.1305  0.5642  2.5551
  297MOL0     O39961   7.506   4.018   8.405  0.8732 -0.7445 -0.1463
  297MOL0     C39962   7.470   3.964   8.505  0.0652 -0.4612  0.9036
  297MOL0     O39963   7.553   3.875   8.573 -0.5856 -0.2738 -0.2142
  297MOL0     C39964   7.669   3.932   8.631 -0.0420 -0.2566  0.4358
  297MOL0     C39965   7.708   4.068   8.615  0.2087  0.1268 -0.9108
  297MOL0     C39966   7.832   4.105   8.672  0.2358  0.0568 -0.0477
  297MOL0     C39967   7.921   4.021   8.741 -0.7780 -0.1091 -0.0046
  297MOL0     O39968   8.041   4.066   8.799 -0.1950  0.0501 -0.7634
  297MOL0     C39969   8.085   4.198   8.775  0.3015 -0.1417  0.4166
  297MOL0     C39970   8.128   4.210   8.625 -0.2062 -0.0266 -1.0019
  297MOL0     C39971   8.209   4.336   8.591 -1.2912  0.3844  0.1900
  297MOL0     C39972   8.352   4.329   8.660 -0.1873  0.1056  0.4735
  297MOL0     C39973   8.432   4.466   8.633  0.0928 -0.1043 -0.8656
  297MOL0     C39974   8.438   4.510   8.482  0.6898 -0.3950 -0.2468
  297MOL0     C39975   8.560   4.603   8.466 -0.0070 -0.4478 -0.0088
  297MOL0     C39976   8.564   4.744   8.538 -0.4210  0.0620 -0.0584
  297MOL0     N39977   8.656   4.840   8.476 -0.1452  0.0442  0.5818
  297MOL0     C39978   8.756   4.807   8.388 -0.0203  0.3705  0.8520
  297MOL0     C39979   8.824   4.933   8.381 -0.5315 -0.2133  1.0933
  297MOL0     C39980   8.950   4.950   8.306 -0.9102  0.2677 -0.0999
  297MOL0     C39981   9.066   4.981   8.398  0.7421  0.8665 -0.3994
  297MOL0     C39982   9.096   4.852   8.475  0.2099  0.2908 -0.3854
  297MOL0     C39983   9.216   4.866   8.563 -0.1830  0.2382 -0.2275
  297MOL0     O39984   9.325   4.897   8.474  0.2912 -0.6282 -0.1354
  297MOL0     C39985   9.449   4.928   8.524  0.6908  0.3718 -0.0811
  297MOL0     C39986   9.549   4.935   8.438 -0.5307  0.5111  0.1355
  297MOL0     C39987   9.683   4.949   8.474 -0.2846 -0.0578 -1.2939
  297MOL0     C39988   9.706   4.969   8.615  0.3258  0.7510  0.8092
  297MOL0     C39989   9.849   5.005   8.652  1.7512 -0.0709  0.4253
  297MOL0     O39990   9.952   4.960   8.573  0.6533 -0.2256 -0.0442
  297MOL0     C39991  10.083   4.953   8.626 -0.1285  0.3430 -0.1325
  297MOL0     C39992  10.189   4.990   8.541  0.3691 -0.1790  0.4341
  297MOL0     C39993  10.320   5.004   8.596  0.2089 -0.1098  0.1869
  297MOL0     C39994  10.351   4.974   8.728 -0.0459  0.7084  0.0997
  297MOL0     O39995  10.472   4.969   8.781  0.0091  0.6726 -0.3435
  297MOL0     C39996  10.581   5.026   8.706 -0.4444 -0.8461 -0.3685
  297MOL0     C39997  10.710   5.032   8.786 -0.2092 -0.1648 -0.3904
  297MOL0     C39998  10.825   5.093   8.708 -0.7212  0.3805 -0.0881
  297MOL0     C39999  10.929   5.162   8.792 -0.3237  0.4538  0.0794
  297MOL0     C40000  11.058   5.183   8.719 -0.8240  0.4283 -0.0532
  297MOL0     C40001  11.165   5.248   8.815 -0.7272  0.2152 -0.4142
  297MOL0     C40002  11.292   5.283   8.733  0.8557  0.4865 -0.7144
  297MOL0     C40003  11.391   5.346   8.825 -0.5475 -0.2273 -0.0711
  297MOL0    Cl40004  11.447   5.240   8.954 -0.2141 -0.1121 -0.3454
  297MOL0     C40005  10.251   4.922   8.805 -0.7690  0.2255  0.0697
  297MOL0     C40006  10.116   4.924   8.757 -0.4646 -0.1571  0.3044
  297MOL0     O40007   9.857   5.072   8.754 -0.2823  0.0579  0.3089
  297MOL0     C40008   9.603   4.948   8.706 -0.5056 -0.3100  1.0292
  297MOL0     C40009   9.473   4.931   8.662 -0.3794 -0.7455  0.4012
  297MOL0     N40010   8.769   5.025   8.464 -0.0593 -0.1139  0.3367
  297MOL0     N40011   8.665   4.968   8.514 -0.0472  0.2098  0.2710
  297MOL0     C40012   7.883   3.886   8.747  0.0703 -0.3207  0.3896
  297MOL0     C40013   7.760   3.850   8.695  0.0376  0.3461  0.4794
  297MOL0     C40014   7.340   4.004   8.573 -0.1814 -0.1942 -0.7054
  297MOL0     C40015   7.325   3.992   8.714 -0.1649 -0.2267  0.0369
  297MOL0     C40016   7.206   4.026   8.782 -1.1607  0.2414  0.8803
  297MOL0     C40017   7.100   4.087   8.713 -0.1761  0.5139 -0.1911
  297MOL0     O40018   6.982   4.125   8.770  0.3963  0.1703 -0.0072
  297MOL0     C40019   6.967   4.110   8.916 -0.5152  0.4762  0.4193
  297MOL0     C40020   6.833   4.175   8.972  0.1172 -0.1685  0.1120
  297MOL0     C40021   6.822   4.178   9.127  1.0499  0.4339 -0.5981
  297MOL0     C40022   6.698   4.255   9.172 -0.3508  0.2161  0.5355
  297MOL0     C40023   6.683   4.249   9.314  0.1815  0.4348  0.0314
  297MOL0     C40024   6.680   4.244   9.431  0.0426  0.4169  0.6562
  297MOL0     C40025   7.114   4.093   8.576  1.0865  0.3213 -0.0502
  297MOL0     C40026   7.228   4.059   8.503  0.7319  0.2801 -0.1413
  297MOL0     C40027   7.236   4.076   8.348 -0.1143 -0.2201  0.3418
  297MOL0     H40028   7.649   4.142   8.563  2.1813  1.1815 -1.7371
  297MOL0     H40029   7.839   4.213   8.677 -0.5628  0.0901  0.4632
  297MOL0     H40030   8.016   4.279   8.802  1.7524  1.4605 -0.4787
  297MOL0     H40031   8.167   4.214   8.846  0.4618 -2.7841  0.9064
  297MOL0     H40032   8.040   4.213   8.559 -2.5413 -0.4164  1.8582
  297MOL0     H40033   8.194   4.126   8.603 -1.5356 -1.4309  0.1172
  297MOL0     H40034   8.161   4.430   8.619  1.6014  1.2507  2.9402
  297MOL0     H40035   8.227   4.321   8.484  1.8587 -1.3922  0.8355
  297MOL0     H40036   8.346   4.318   8.768 -1.4971 -2.1669  0.2170
  297MOL0     H40037   8.410   4.241   8.631  0.3299  0.7278 -0.4550
  297MOL0     H40038   8.396   4.545   8.699  1.5883 -1.0882  1.2560
  297MOL0     H40039   8.535   4.463   8.670 -1.0122 -1.2312  2.5092
  297MOL0     H40040   8.444   4.418   8.424 -4.3707  0.3865 -2.5588
  297MOL0     H40041   8.338   4.548   8.458  0.4058 -0.4704  0.7883
  297MOL0     H40042   8.581   4.612   8.359  0.1856 -0.7239  0.0054
  297MOL0     H40043   8.651   4.557   8.505 -0.8242 -1.1752  1.1020
  297MOL0     H40044   8.465   4.791   8.531 -1.6794 -2.4942 -1.0976
  297MOL0     H40045   8.584   4.736   8.645 -2.2674  0.3819  0.3450
  297MOL0     H40046   8.782   4.709   8.350 -1.4818 -0.8388  2.7956
  297MOL0     H40047   8.972   4.855   8.257  1.9647  0.9272 -0.2760
  297MOL0     H40048   8.939   5.036   8.239 -0.4481  1.7308  1.6076
  297MOL0     H40049   9.149   5.027   8.344  0.8501  0.9969 -0.1281
  297MOL0     H40050   9.036   5.057   8.471 -0.1831 -1.8389  2.2472
  297MOL0     H40051   9.121   4.772   8.406 -0.6315 -0.3131 -0.0070
  297MOL0     H40052   9.012   4.819   8.536  1.7213 -0.0263  1.6549
  297MOL0     H40053   9.234   4.773   8.618  1.7389  0.3397 -0.5919
  297MOL0     H40054   9.187   4.938   8.639 -0.2523 -2.7935  2.8687
  297MOL0     H40055   9.530   4.941   8.331 -1.5022  1.6106  0.3476
  297MOL0     H40056   9.765   4.962   8.404  2.7252 -0.0711  1.9565
  297MOL0     H40057  10.164   5.020   8.440  0.8621 -0.7622  0.1280
  297MOL0     H40058  10.386   5.045   8.520 -0.1648 -1.6246 -0.9974
  297MOL0     H40059  10.589   4.965   8.616  0.7562 -0.1863 -0.7394
  297MOL0     H40060  10.564   5.130   8.677 -0.0356  0.8510  4.4334
  297MOL0     H40061  10.688   5.105   8.864 -0.1223 -0.2447 -0.2898
  297MOL0     H40062  10.743   4.934   8.822 -0.4551  0.2699  1.0777
  297MOL0     H40063  10.878   5.008   8.663 -2.3954 -1.3043  0.9960
  297MOL0     H40064  10.800   5.140   8.612  4.0198 -3.0317 -3.4609
  297MOL0     H40065  10.950   5.106   8.884 -1.9689  0.6445  0.5950
  297MOL0     H40066  10.885   5.256   8.825 -1.3413  0.5855 -1.5782
  297MOL0     H40067  11.031   5.253   8.640  0.3992  1.4553  0.4067
  297MOL0     H40068  11.094   5.095   8.665 -1.1672  0.5630 -0.5109
  297MOL0     H40069  11.133   5.345   8.854  0.6563  0.6788 -0.4071
  297MOL0     H40070  11.194   5.193   8.905 -0.3544  0.0945 -0.6088
  297MOL0     H40071  11.263   5.361   8.662 -0.5811  2.4257  1.8344
  297MOL0     H40072  11.338   5.196   8.686  1.4435  2.6621 -4.5798
  297MOL0     H40073  11.469   5.399   8.768  1.4347  0.9083  3.4123
  297MOL0     H40074  11.337   5.422   8.882  0.0015 -0.2985  0.5495
  297MOL0     H40075  10.270   4.878   8.902  0.3728 -0.4075 -0.4311
  297MOL0     H40076  10.044   4.886   8.829 -1.6592  1.9801  0.3287
  297MOL0     H40077   9.622   4.933   8.812  1.4618 -2.4279  0.4730
  297MOL0     H40078   9.393   4.926   8.735  2.3378  0.5096  3.7227
  297MOL0     H40079   7.945   3.814   8.799  1.6616  2.4314  2.5288
  297MOL0     H40080   7.744   3.746   8.722  0.5581  0.7339  2.4261
  297MOL0     H40081   7.412   3.954   8.768  0.4100  1.0810  0.0767
  297MOL0     H40082   7.194   3.998   8.887 -0.1303 -0.3358  0.8632
  297MOL0     H40083   7.046   4.167   8.963 -0.9204  1.9275 -0.5976
  297MOL0     H40084   6.969   4.008   8.957 -1.7288  0.5924  0.8105
  297MOL0     H40085   6.750   4.117   8.931  1.2363 -1.8247  0.0587
  297MOL0     H40086   6.829   4.280   8.941 -0.7170 -0.4246 -0.7112
  297MOL0     H40087   6.911   4.233   9.161  1.2096  0.4290 -1.0004
  297MOL0     H40088   6.823   4.074   9.159 -0.9954  0.6090  0.1225
  297MOL0     H40089   6.714   4.361   9.149  1.6323  0.0851  1.1277
  297MOL0     H40090   6.613   4.221   9.112  1.4300  0.3439 -2.2658
  297MOL0     H40091   6.683   4.233   9.537 -1.0930 -0.7484  0.5985
  297MOL0     H40092   7.034   4.136   8.517  0.3608  0.8142  1.2506
  297MOL0     H40093   7.133   4.073   8.309 -0.0530 -3.8631  0.0694
  297MOL0     H40094   7.290   4.168   8.327 -1.6731  0.0778 -3.0979
  297MOL0     H40095   7.281   3.986   8.305  0.4029 -0.9717  2.3625
  298MOL0     O40096  11.074   1.671   6.755  0.4408 -0.4854  0.6121
  298MOL0     C40097  11.019   1.660   6.644  0.5214  0.4400  0.0807
  298MOL0     O40098  11.075   1.700   6.522 -0.5876 -0.4172 -0.0118
  298MOL0     C40099  11.204   1.743   6.515  0.1721 -0.0789  0.4216
  298MOL0     C40100  11.316   1.698   6.584  0.1150 -0.2402 -0.1097
  298MOL0     C40101  11.449   1.754   6.560  0.0437 -0.1211  0.0332
  298MOL0     C40102  11.469   1.837   6.451  0.7237 -0.0061 -0.5393
  298MOL0     O40103  11.586   1.899   6.418 -0.0006 -0.2168  0.1891
  298MOL0     C40104  11.712   1.832   6.451  0.1320 -0.5201 -0.0142
  298MOL0     C40105  11.811   1.912   6.366  0.4000  0.2289 -0.0462
  298MOL0     C40106  11.792   1.858   6.215 -0.4245 -0.1993  0.0187
  298MOL0     C40107  11.905   1.906   6.121  0.5033 -0.2380 -0.6186
  298MOL0     C40108  11.903   1.843   5.983  0.4153 -0.4350  0.9885
  298MOL0     C40109  12.042   1.857   5.924  0.6695  0.0592 -0.2450
  298MOL0     C40110  12.091   2.000   5.895 -0.1095 -1.0996 -0.2097
  298MOL0     C40111  12.182   2.018   5.781 -0.7429  0.9189  0.0569
  298MOL0     N40112  12.313   1.956   5.803  0.7027  0.0422 -0.5696
  298MOL0     C40113  12.411   1.992   5.888 -0.2421  0.7527 -0.6566
  298MOL0     C40114  12.514   1.895   5.878  0.9193 -0.1845 -0.5294
  298MOL0     C40115  12.633   1.871   5.960 -0.2565  0.4578 -0.3477
  298MOL0     C40116  12.588   1.832   6.102  0.4113  0.3081  0.5487
  298MOL0     C40117  12.566   1.955   6.195  0.3501 -0.0626 -0.2407
  298MOL0     C40118  12.446   1.939   6.297  0.0461  0.0334  0.4549
  298MOL0     O40119  12.421   2.062   6.367 -0.3211  0.3112  0.0197
  298MOL0     C40120  12.377   2.046   6.496 -0.1891 -0.2312  0.4701
  298MOL0     C40121  12.314   1.930   6.541  0.1280 -0.0691 -0.3645
  298MOL0     C40122  12.250   1.924   6.666  0.4107 -0.3094 -0.7746
  298MOL0     C40123  12.244   2.028   6.756 -0.0558  0.3398 -0.0059
  298MOL0     C40124  12.191   2.002   6.886  0.7728  0.3285 -0.4992
  298MOL0     O40125  12.136   1.875   6.912 -0.3199 -1.0445  0.1536
  298MOL0     C40126  12.027   1.871   6.996 -0.1249 -0.1497  0.9251
  298MOL0     C40127  12.035   1.799   7.112 -0.5241 -0.3036  0.2089
  298MOL0     C40128  11.932   1.776   7.199  0.5430 -0.3256  0.1163
  298MOL0     C40129  11.816   1.840   7.175  0.7603  0.4425  0.5106
  298MOL0     O40130  11.709   1.813   7.261 -0.4342 -0.2636 -0.4539
  298MOL0     C40131  11.582   1.887   7.256 -0.5580 -0.4415  0.4977
  298MOL0     C40132  11.541   1.908   7.400  0.2438  0.2591  0.2490
  298MOL0     C40133  11.422   2.011   7.415 -0.1097  0.1826  0.0471
  298MOL0     C40134  11.321   1.953   7.514 -0.5698 -0.7204  0.7472
  298MOL0     C40135  11.213   2.064   7.545  0.3613  0.0913 -0.4050
  298MOL0     C40136  11.275   2.198   7.607 -0.3982  0.0963 -0.3266
  298MOL0     C40137  11.160   2.285   7.660  1.2249 -0.0679  0.6525
  298MOL0     C40138  11.092   2.237   7.787  0.2613 -0.5521  0.5042
  298MOL0    Cl40139  10.967   2.355   7.826  0.4585 -0.0799  0.8302
  298MOL0     C40140  11.800   1.905   7.050  0.1641  0.7913 -0.2483
  298MOL0     C40141  11.908   1.934   6.967  0.7056  0.0199  0.1857
  298MOL0     O40142  12.208   2.086   6.972  0.2315 -0.4738  0.1380
  298MOL0     C40143  12.297   2.155   6.707  0.2002  1.0788 -0.1033
  298MOL0     C40144  12.357   2.157   6.589  0.6517  0.1376  0.1778
  298MOL0     N40145  12.471   1.819   5.765 -0.6023  0.2641 -0.5014
  298MOL0     N40146  12.356   1.852   5.732  0.9440 -0.2959 -0.3800
  298MOL0     C40147  11.359   1.875   6.371  0.0102  0.5497 -0.2872
  298MOL0     C40148  11.230   1.827   6.408 -0.3823  0.0649  0.2677
  298MOL0     C40149  10.882   1.588   6.636 -0.8913  0.1128 -0.1619
  298MOL0     C40150  10.806   1.607   6.522 -0.2931 -0.0690 -0.5133
  298MOL0     C40151  10.683   1.550   6.494 -0.7000 -0.3750 -0.8447
  298MOL0     C40152  10.615   1.483   6.600  0.1172 -0.2982 -0.3917
  298MOL0     O40153  10.493   1.428   6.590  0.2700  0.0055 -0.4355
  298MOL0     C40154  10.414   1.447   6.469 -0.2297  0.2957  0.0636
  298MOL0     C40155  10.274   1.399   6.502  0.2386  0.1623 -1.1597
  298MOL0     C40156  10.177   1.502   6.568 -0.3930  0.0685 -0.0601
  298MOL0     C40157  10.041   1.445   6.585  0.1307 -0.0732 -0.0168
  298MOL0     C40158  10.041   1.364   6.704 -0.1621 -0.0439  0.8456
  298MOL0     C40159  10.051   1.283   6.793 -0.4270 -0.3383 -0.1340
  298MOL0     C40160  10.693   1.461   6.720 -0.0483 -0.5501  0.1958
  298MOL0     C40161  10.822   1.511   6.736  0.9834  0.0790 -0.4814
  298MOL0     C40162  10.890   1.482   6.867 -0.3704 -0.1665 -1.1455
  298MOL0     H40163  11.301   1.648   6.679  2.8091  2.6359  2.0580
  298MOL0     H40164  11.534   1.739   6.626 -0.6961 -1.7002  0.6680
  298MOL0     H40165  11.730   1.842   6.559  3.0619  1.1774 -0.5460
  298MOL0     H40166  11.708   1.725   6.425 -2.3159 -0.5963  0.4308
  298MOL0     H40167  11.913   1.900   6.404  0.1681 -0.9548  0.2625
  298MOL0     H40168  11.776   2.014   6.379 -3.9916 -0.6566 -2.7047
  298MOL0     H40169  11.693   1.879   6.174  0.2957  2.2344 -0.6954
  298MOL0     H40170  11.802   1.749   6.214  2.3377 -0.0245 -0.6761
  298MOL0     H40171  11.909   2.015   6.125 -1.1595 -0.1799  1.0347
  298MOL0     H40172  11.994   1.883   6.180 -1.2546  1.0872  2.8536
  298MOL0     H40173  11.883   1.736   5.985  1.3823 -0.6285  0.9750
  298MOL0     H40174  11.819   1.887   5.928  1.1589 -3.0550 -2.6403
  298MOL0     H40175  12.127   1.816   5.979  2.4068  3.2049 -0.4024
  298MOL0     H40176  12.033   1.800   5.831 -2.9351 -1.4910  0.8574
  298MOL0     H40177  12.133   2.043   5.987  1.3237 -1.8148 -0.4880
  298MOL0     H40178  12.006   2.056   5.856 -1.0963 -1.6410  1.0602
  298MOL0     H40179  12.136   1.953   5.706  2.8208 -3.7552  1.4178
  298MOL0     H40180  12.202   2.115   5.735  1.5808 -0.7934 -2.9653
  298MOL0     H40181  12.394   2.063   5.968 -0.2718  1.6026 -1.4161
  298MOL0     H40182  12.685   1.792   5.905 -0.4908 -0.4656  0.7167
  298MOL0     H40183  12.700   1.957   5.957  0.4320 -0.0688 -0.3487
  298MOL0     H40184  12.495   1.774   6.101  0.2151  0.6096 -1.1308
  298MOL0     H40185  12.659   1.767   6.154  0.0272 -0.7879 -0.2661
  298MOL0     H40186  12.544   2.047   6.140 -0.6942  0.3571  0.8438
  298MOL0     H40187  12.662   1.975   6.244  1.1599  0.9944 -2.1463
  298MOL0     H40188  12.476   1.850   6.352  0.8259 -1.1315 -1.7154
  298MOL0     H40189  12.356   1.908   6.243  0.4604  0.8444 -0.7472
  298MOL0     H40190  12.307   1.841   6.480 -2.3955 -0.9109  1.0035
  298MOL0     H40191  12.208   1.825   6.681  0.2385 -0.3488 -1.4611
  298MOL0     H40192  12.128   1.752   7.142 -1.2307 -3.0554 -1.5269
  298MOL0     H40193  11.944   1.719   7.291  0.2343  1.3044  1.2124
  298MOL0     H40194  11.575   1.985   7.208 -0.6074  0.1514  1.6739
  298MOL0     H40195  11.515   1.833   7.189  0.1548  0.2577 -0.8096
  298MOL0     H40196  11.512   1.809   7.436 -1.0641 -0.1263 -1.7363
  298MOL0     H40197  11.627   1.932   7.464  0.9819 -3.0022  0.6868
  298MOL0     H40198  11.466   2.101   7.459  2.3426 -2.4717  3.6217
  298MOL0     H40199  11.384   2.038   7.316  3.3390  2.8276 -0.7699
  298MOL0     H40200  11.378   1.944   7.607  1.6319  2.6225 -0.0946
  298MOL0     H40201  11.278   1.859   7.480  0.3207 -1.2586  1.0673
  298MOL0     H40202  11.144   2.019   7.617  1.4493 -1.1830 -0.1312
  298MOL0     H40203  11.161   2.092   7.453 -0.8801  1.1748  0.5813
  298MOL0     H40204  11.335   2.161   7.692 -2.3530 -1.5194  0.4273
  298MOL0     H40205  11.334   2.258   7.536  0.0977  1.4894  1.1898
  298MOL0     H40206  11.083   2.290   7.583 -1.3651  2.9313  3.1348
  298MOL0     H40207  11.219   2.376   7.673  1.2048  0.2196 -1.0883
  298MOL0     H40208  11.045   2.141   7.766 -1.2352  0.5506 -1.6337
  298MOL0     H40209  11.159   2.226   7.872  0.0928  0.7704  0.8370
  298MOL0     H40210  11.706   1.947   7.015  0.0732  2.4558  1.8019
  298MOL0     H40211  11.902   1.995   6.878  0.9566 -0.9845 -0.5421
  298MOL0     H40212  12.281   2.234   6.779  0.2567  0.8746  0.1366
  298MOL0     H40213  12.393   2.255   6.556 -0.6896 -0.4146 -3.3994
  298MOL0     H40214  11.383   1.933   6.282 -1.2498 -3.5182 -3.5781
  298MOL0     H40215  11.144   1.857   6.349 -0.0474  0.2394 -0.1339
  298MOL0     H40216  10.844   1.642   6.426 -0.1262 -0.5920 -0.6455
  298MOL0     H40217  10.654   1.564   6.390  1.5323  0.8278 -1.3651
  298MOL0     H40218  10.461   1.375   6.401 -3.1526 -2.5403  0.7945
  298MOL0     H40219  10.422   1.546   6.423  0.4804  0.3403  0.2737
  298MOL0     H40220  10.287   1.311   6.566 -0.5881  0.2746 -0.8112
  298MOL0     H40221  10.223   1.358   6.414 -0.9015  0.4100 -0.6462
  298MOL0     H40222  10.165   1.577   6.489  0.5013 -1.5431 -1.8155
  298MOL0     H40223  10.214   1.534   6.666 -0.6677 -1.7172  0.6590
  298MOL0     H40224   9.966   1.524   6.598 -2.9232 -3.0103  1.8384
  298MOL0     H40225  10.023   1.379   6.500 -0.2457 -2.1993  1.6356
  298MOL0     H40226  10.053   1.217   6.877 -0.6635 -0.3663 -0.1507
  298MOL0     H40227  10.652   1.405   6.803  0.8042  1.6648  2.2402
  298MOL0     H40228  10.991   1.441   6.857  0.8836  2.7358 -1.2738
  298MOL0     H40229  10.890   1.570   6.932 -1.0277 -2.3056  2.0230
  298MOL0     H40230  10.838   1.408   6.929 -0.3053 -1.1523 -2.2384
  299MOL0     O40231   8.268   3.811   2.517  0.6489  0.3164 -0.0364
  299MOL0     C40232   8.264   3.834   2.637  0.2991 -0.0755  0.6202
  299MOL0     O40233   8.331   3.934   2.700  0.1851 -0.5050  0.8334
  299MOL0     C40234   8.443   3.993   2.641 -0.0084 -0.4397 -0.8917
  299MOL0     C40235   8.451   4.132   2.644 -0.0199 -0.0798 -0.2896
  299MOL0     C40236   8.570   4.191   2.590  0.7011 -0.4252 -0.0398
  299MOL0     C40237   8.673   4.119   2.535  0.6562 -1.2800 -0.1320
  299MOL0     O40238   8.772   4.204   2.484 -0.2890  0.9378 -0.5261
  299MOL0     C40239   8.885   4.143   2.415 -0.4943 -0.0958 -1.1395
  299MOL0     C40240   8.974   4.234   2.351  0.0311 -0.6989  0.2243
  299MOL0     C40241   9.028   4.336   2.453  0.5346 -0.2579 -0.3540
  299MOL0     C40242   9.159   4.427   2.409 -0.8790 -0.7076 -0.3532
  299MOL0     C40243   9.136   4.566   2.357  0.2198  0.3739 -0.4498
  299MOL0     C40244   9.261   4.639   2.332 -0.0782  0.4910  0.2980
  299MOL0     C40245   9.247   4.792   2.297 -0.2920 -0.7804 -0.7938
  299MOL0     C40246   9.388   4.840   2.276  0.5299 -0.3853  0.0717
  299MOL0     N40247   9.390   4.983   2.243 -0.5881 -0.2282 -0.0719
  299MOL0     C40248   9.312   5.040   2.149  0.0573  0.1980  1.0316
  299MOL0     C40249   9.333   5.177   2.167  0.3492 -0.3571  0.8028
  299MOL0     C40250   9.259   5.284   2.100  0.4233  0.1197  0.4475
  299MOL0     C40251   9.333   5.392   2.023  0.2253  0.2267 -0.1938
  299MOL0     C40252   9.381   5.351   1.887  0.1750 -0.1462 -0.0262
  299MOL0     C40253   9.489   5.450   1.844 -0.4832 -0.4128  0.3206
  299MOL0     O40254   9.418   5.578   1.844  0.2575 -0.3066  0.1947
  299MOL0     C40255   9.499   5.687   1.849  0.0192 -0.6230 -1.2163
  299MOL0     C40256   9.632   5.704   1.793  0.4449  0.9586  0.5708
  299MOL0     C40257   9.686   5.828   1.779  1.0630  0.7236 -0.2136
  299MOL0     C40258   9.624   5.940   1.834 -0.0978 -0.7974 -0.2442
  299MOL0     C40259   9.689   6.065   1.822  0.1808 -0.4828  0.0023
  299MOL0     O40260   9.828   6.052   1.806 -0.3160  0.1930 -0.3010
  299MOL0     C40261   9.892   6.172   1.795  0.3097  0.0913  0.4021
  299MOL0     C40262   9.952   6.241   1.891  0.0888  0.2999 -0.1906
  299MOL0     C40263  10.011   6.374   1.869 -0.2936  0.2879 -0.1127
  299MOL0     C40264  10.003   6.432   1.745 -0.4325 -0.1686  0.5174
  299MOL0     O40265  10.047   6.562   1.725 -0.5652  0.1225  0.6707
  299MOL0     C40266  10.145   6.619   1.814  0.0210 -0.6133 -0.1924
  299MOL0     C40267  10.211   6.731   1.732 -0.4379 -0.1321 -0.0339
  299MOL0     C40268  10.349   6.698   1.666  0.3740 -0.7275  1.0101
  299MOL0     C40269  10.463   6.728   1.753  0.5158 -0.4256 -0.4735
  299MOL0     C40270  10.592   6.744   1.675  0.1465  0.1601  0.5858
  299MOL0     C40271  10.651   6.602   1.637  1.1950 -0.0661  0.5615
  299MOL0     C40272  10.785   6.611   1.567  0.7894  0.5997 -0.3548
  299MOL0     C40273  10.848   6.473   1.535 -0.3314  0.0090 -0.8340
  299MOL0    Cl40274  10.991   6.500   1.426 -0.1770 -0.3988 -0.3581
  299MOL0     C40275   9.947   6.356   1.647  0.0612  0.3411  0.8746
  299MOL0     C40276   9.896   6.231   1.671  0.7957  0.5691 -0.4398
  299MOL0     O40277   9.627   6.169   1.837 -0.1521  0.0337 -0.6703
  299MOL0     C40278   9.504   5.929   1.906  0.1899 -0.0546  0.2881
  299MOL0     C40279   9.436   5.800   1.903 -0.4625 -0.4362  0.8373
  299MOL0     N40280   9.411   5.193   2.285 -0.1090 -0.4309  0.2730
  299MOL0     N40281   9.432   5.080   2.331  0.1892  0.8918  1.3022
  299MOL0     C40282   8.660   3.979   2.533 -0.0548 -0.6474 -0.7292
  299MOL0     C40283   8.544   3.916   2.586 -0.7577  0.3906  0.5540
  299MOL0     C40284   8.168   3.763   2.726  0.0725 -1.1429  0.0099
  299MOL0     C40285   8.140   3.812   2.860 -0.4205 -0.1935 -0.7123
  299MOL0     C40286   8.052   3.742   2.943 -0.6713 -0.1417 -0.0756
  299MOL0     C40287   7.990   3.624   2.907  0.4814 -0.2692  0.0158
  299MOL0     O40288   7.907   3.555   2.996  0.8800 -0.9240  0.0860
  299MOL0     C40289   7.790   3.627   3.031  0.5697 -0.4962  0.3503
  299MOL0     C40290   7.680   3.530   3.072  0.4129  0.7396  1.0902
  299MOL0     C40291   7.724   3.458   3.192  0.5558  0.8847  0.2746
  299MOL0     C40292   7.621   3.383   3.277  0.1481  0.3230  0.8417
  299MOL0     C40293   7.537   3.295   3.199 -0.5861 -0.3084 -0.5704
  299MOL0     C40294   7.448   3.222   3.167  0.1242 -0.3967 -0.0406
  299MOL0     C40295   8.013   3.581   2.778 -0.2950 -0.0480  0.1224
  299MOL0     C40296   8.095   3.649   2.684  0.5186 -0.7251  0.1921
  299MOL0     C40297   8.113   3.596   2.546  0.9528  0.4498  0.0374
  299MOL0     H40298   8.371   4.194   2.685  0.2499  3.5152 -4.5039
  299MOL0     H40299   8.576   4.298   2.606 -3.1452 -0.2299  0.9583
  299MOL0     H40300   8.941   4.074   2.479  0.4077  2.1294  0.5801
  299MOL0     H40301   8.841   4.069   2.348  0.0878 -2.5793  1.0657
  299MOL0     H40302   8.918   4.295   2.280  1.4021  0.5614  0.1728
  299MOL0     H40303   9.046   4.173   2.294  0.5658  1.8277 -2.0305
  299MOL0     H40304   9.048   4.286   2.549 -1.4685 -0.2780  0.1084
  299MOL0     H40305   8.948   4.409   2.469  0.2262 -0.7492  0.4520
  299MOL0     H40306   9.221   4.441   2.498 -1.1495  1.9171 -0.4840
  299MOL0     H40307   9.224   4.367   2.345  3.3760  1.4207  1.6093
  299MOL0     H40308   9.075   4.574   2.267  0.0163 -2.4764 -0.6668
  299MOL0     H40309   9.077   4.611   2.438 -0.3929 -0.3494 -0.4803
  299MOL0     H40310   9.324   4.629   2.421  1.1956  1.0048 -0.5102
  299MOL0     H40311   9.306   4.601   2.240  0.9405 -0.1514  1.0394
  299MOL0     H40312   9.192   4.842   2.378 -2.6393 -2.5106 -1.2145
  299MOL0     H40313   9.197   4.807   2.202 -2.3760  0.2400  0.4071
  299MOL0     H40314   9.442   4.817   2.369  3.1515  1.1733 -0.9493
  299MOL0     H40315   9.421   4.780   2.190 -2.7766  0.3359 -1.8393
  299MOL0     H40316   9.255   5.000   2.065  1.1057  0.1163  0.3343
  299MOL0     H40317   9.196   5.230   2.029 -0.7455  0.4435  1.2101
  299MOL0     H40318   9.200   5.333   2.178  0.7388  3.0441 -0.9992
  299MOL0     H40319   9.275   5.484   2.013  0.2647  0.2150 -0.5241
  299MOL0     H40320   9.403   5.425   2.100  0.0247 -3.0099  1.5674
  299MOL0     H40321   9.300   5.353   1.814  0.8043 -4.2415 -1.1071
  299MOL0     H40322   9.423   5.251   1.900  0.5637  0.2104  1.6688
  299MOL0     H40323   9.523   5.432   1.742  1.3991  1.2596  0.5728
  299MOL0     H40324   9.574   5.437   1.912 -0.4988  1.1548  0.6869
  299MOL0     H40325   9.690   5.625   1.745 -0.3631  0.3991  0.4849
  299MOL0     H40326   9.780   5.839   1.726  0.3434 -0.2256 -1.7306
  299MOL0     H40327   9.940   6.197   1.990 -1.0700  2.3144  0.6536
  299MOL0     H40328  10.049   6.429   1.954  2.2960 -2.6256  0.8058
  299MOL0     H40329  10.097   6.656   1.905 -0.1616 -1.4121  0.0464
  299MOL0     H40330  10.219   6.543   1.842 -0.7377 -0.9192  1.0799
  299MOL0     H40331  10.143   6.768   1.654 -0.0265 -0.6856 -0.6654
  299MOL0     H40332  10.226   6.817   1.798 -2.3612  1.4627 -1.5213
  299MOL0     H40333  10.353   6.589   1.654  0.3137 -0.8504  2.0315
  299MOL0     H40334  10.359   6.755   1.573  3.0310 -0.4369  1.4033
  299MOL0     H40335  10.483   6.655   1.832  3.5004  2.1508  1.4273
  299MOL0     H40336  10.441   6.824   1.800  1.2464 -0.7460  0.5617
  299MOL0     H40337  10.668   6.797   1.732 -0.3886  2.9350 -1.1155
  299MOL0     H40338  10.569   6.803   1.586  0.0762 -0.4318  0.2066
  299MOL0     H40339  10.678   6.555   1.732  1.0335  1.0521  1.1780
  299MOL0     H40340  10.574   6.539   1.593  2.5952 -0.8019 -0.9389
  299MOL0     H40341  10.856   6.662   1.632 -0.5477  0.9865  0.8701
  299MOL0     H40342  10.770   6.675   1.480  2.0523 -1.1311 -1.9138
  299MOL0     H40343  10.879   6.426   1.628  0.9470 -2.4388 -2.3863
  299MOL0     H40344  10.770   6.417   1.482  0.4287 -0.8256 -1.0908
  299MOL0     H40345   9.940   6.409   1.552 -2.1392  0.8663  1.2794
  299MOL0     H40346   9.852   6.175   1.590  1.0654  0.5878 -0.5982
  299MOL0     H40347   9.461   6.018   1.950  2.5022 -0.3626  3.5639
  299MOL0     H40348   9.337   5.793   1.947 -1.3315 -0.2819 -1.0250
  299MOL0     H40349   8.747   3.929   2.492  1.1358  0.4778  0.3043
  299MOL0     H40350   8.539   3.808   2.581 -0.7506  0.4099  0.0404
  299MOL0     H40351   8.190   3.895   2.908 -0.4653 -1.6869  2.1507
  299MOL0     H40352   8.044   3.779   3.044  0.0846  2.2160 -0.7997
  299MOL0     H40353   7.757   3.688   2.946  1.1293 -1.5435 -0.6411
  299MOL0     H40354   7.811   3.700   3.110  0.3854  0.6768 -0.6447
  299MOL0     H40355   7.666   3.467   2.983 -0.2949  1.0521  0.9744
  299MOL0     H40356   7.591   3.589   3.095  0.6801  1.0777  1.2606
  299MOL0     H40357   7.781   3.519   3.262 -1.5954  0.0386  2.9621
  299MOL0     H40358   7.805   3.390   3.166  0.2361  0.3053  0.7533
  299MOL0     H40359   7.670   3.329   3.359  1.5196  0.1823 -0.0303
  299MOL0     H40360   7.555   3.458   3.322 -2.0612 -1.4541  0.7016
  299MOL0     H40361   7.367   3.155   3.147 -0.6285  0.3420  0.4845
  299MOL0     H40362   7.962   3.491   2.745 -0.6283  0.0657  0.3235
  299MOL0     H40363   8.051   3.508   2.528 -0.2550  1.1486  0.6511
  299MOL0     H40364   8.075   3.675   2.480 -0.6951  0.7273  1.2421
  299MOL0     H40365   8.217   3.566   2.530  0.9187 -1.0174  2.0686
  300MOL0     O40366   1.792   7.618   8.491 -0.0851 -0.3156 -0.6784
  300MOL0     C40367   1.816   7.626   8.375 -0.4007  1.0429 -0.4649
  300MOL0     O40368   1.942   7.640   8.331 -0.6342  0.4097  0.6355
  300MOL0     C40369   2.039   7.701   8.404 -0.0094 -0.7268  0.2707
  300MOL0     C40370   2.167   7.643   8.432 -0.0031 -0.6196  0.1105
  300MOL0     C40371   2.257   7.697   8.519 -0.3545  0.7955 -1.0392
  300MOL0     C40372   2.229   7.828   8.568  0.4750 -0.6310 -0.9998
  300MOL0     O40373   2.333   7.874   8.651 -0.2807  0.0069  0.1863
  300MOL0     C40374   2.357   8.015   8.653  0.8238 -0.0943  0.0783
  300MOL0     C40375   2.463   8.025   8.761  0.2733 -0.5011  0.2805
  300MOL0     C40376   2.531   8.160   8.767  0.2914 -0.1451  0.0057
  300MOL0     C40377   2.594   8.187   8.899 -0.0927 -0.4926  0.1663
  300MOL0     C40378   2.659   8.326   8.913  0.1771 -0.4459  0.1273
  300MOL0     C40379   2.752   8.380   8.804  0.9578  0.2633 -0.1802
  300MOL0     C40380   2.867   8.296   8.786  0.5946  0.1188  0.8622
  300MOL0     C40381   2.940   8.334   8.660  0.0426 -0.0455  0.6686
  300MOL0     N40382   3.072   8.280   8.663  0.4943 -0.0843 -0.2131
  300MOL0     C40383   3.113   8.147   8.676 -1.0760  0.7497  0.2885
  300MOL0     C40384   3.234   8.146   8.713 -0.5689 -0.6634 -0.4724
  300MOL0     C40385   3.310   8.030   8.764  0.5218 -0.2416 -0.4647
  300MOL0     C40386   3.460   8.051   8.760  0.9427  0.5618 -0.4778
  300MOL0     C40387   3.516   8.125   8.878 -0.4723  0.1576  0.0970
  300MOL0     C40388   3.665   8.167   8.857  0.3626  0.1079  0.8610
  300MOL0     O40389   3.701   8.258   8.963 -0.0823  0.4843 -0.7717
  300MOL0     C40390   3.771   8.199   9.074 -0.0173 -0.1351  0.4348
  300MOL0     C40391   3.706   8.127   9.183  0.0814 -0.1355 -0.4337
  300MOL0     C40392   3.785   8.097   9.298 -0.3964 -0.0019  0.2764
  300MOL0     C40393   3.932   8.120   9.297  0.2320 -0.0916  0.1945
  300MOL0     C40394   4.017   8.073   9.416 -0.3750 -0.0443 -0.6927
  300MOL0     O40395   3.960   8.006   9.505 -0.1073  0.2761 -0.9300
  300MOL0     C40396   4.028   7.990   9.629 -0.4994  0.0776 -0.8459
  300MOL0     C40397   4.035   7.870   9.695 -0.3750  0.5453 -0.0767
  300MOL0     C40398   4.098   7.848   9.818  0.8181 -0.0055  0.2447
  300MOL0     C40399   4.148   7.952   9.892  0.5308  0.4562  0.1624
  300MOL0     O40400   4.192   7.929  10.017  0.3763 -0.4300 -0.1577
  300MOL0     C40401   4.273   8.012  10.095  0.0520  0.6730 -0.2957
  300MOL0     C40402   4.418   8.003  10.050 -0.0522 -0.0411 -0.0908
  300MOL0     C40403   4.489   7.872  10.079  0.0583 -0.0729  0.0534
  300MOL0     C40404   4.499   7.841  10.228 -0.0304 -0.4381  0.0699
  300MOL0     C40405   4.599   7.729  10.256  0.1296  0.1152  0.1699
  300MOL0     C40406   4.549   7.590  10.221  0.0041  0.2884  0.2305
  300MOL0     C40407   4.664   7.491  10.199  0.4292  0.4715 -0.3879
  300MOL0     C40408   4.737   7.475  10.333  0.3792 -0.8261 -0.4092
  300MOL0    Cl40409   4.626   7.422  10.463 -0.0834 -0.0571  0.5100
  300MOL0     C40410   4.148   8.073   9.824  0.2223  0.0995 -0.1239
  300MOL0     C40411   4.087   8.096   9.706 -0.0514 -0.4627  1.0076
  300MOL0     O40412   4.128   8.126   9.421  0.0779  1.1830  0.0470
  300MOL0     C40413   3.993   8.174   9.183 -0.4383 -0.3604 -0.1139
  300MOL0     C40414   3.909   8.210   9.077 -0.2629 -0.3686  0.7571
  300MOL0     N40415   3.282   8.279   8.710 -0.1323  0.1435  0.9721
  300MOL0     N40416   3.188   8.357   8.690 -0.0377 -0.0648  0.6287
  300MOL0     C40417   2.115   7.896   8.531 -0.2498 -0.2404 -0.6682
  300MOL0     C40418   2.020   7.834   8.450 -0.3850 -0.5406  0.7617
  300MOL0     C40419   1.696   7.653   8.281  0.0439 -0.2343 -0.1917
  300MOL0     C40420   1.715   7.690   8.140  0.2955 -0.4416 -0.6006
  300MOL0     C40421   1.623   7.701   8.051 -1.2136  0.2247 -0.3344
  300MOL0     C40422   1.491   7.699   8.082 -0.4915 -0.4298  0.7707
  300MOL0     O40423   1.399   7.721   7.983  0.4886  0.1204 -0.2693
  300MOL0     C40424   1.255   7.720   8.011 -1.3225  0.1329 -0.1251
  300MOL0     C40425   1.215   7.850   8.075 -0.2997  0.5015 -0.3575
  300MOL0     C40426   1.231   7.966   7.974 -0.4632  0.2707 -0.3056
  300MOL0     C40427   1.106   7.995   7.885 -0.2588 -0.3574 -0.2533
  300MOL0     C40428   0.981   8.034   7.950  0.7013 -0.1117  0.9588
  300MOL0     C40429   0.876   8.074   7.993  0.4843 -0.5214 -0.2927
  300MOL0     C40430   1.457   7.675   8.209  0.1571  0.9636 -0.2192
  300MOL0     C40431   1.558   7.649   8.307 -0.2913 -0.8720  0.0765
  300MOL0     C40432   1.509   7.588   8.433  0.7243  0.0269 -1.2867
  300MOL0     H40433   2.185   7.538   8.410  0.5884 -0.5198  0.1013
  300MOL0     H40434   2.344   7.650   8.564  0.4227  1.1942 -2.0735
  300MOL0     H40435   2.368   8.055   8.551 -0.4128 -0.7875 -0.3465
  300MOL0     H40436   2.265   8.056   8.695  0.6344 -0.2587 -0.1709
  300MOL0     H40437   2.541   7.952   8.736 -1.4186 -2.8918  1.6154
  300MOL0     H40438   2.417   8.001   8.857 -0.4854 -2.2977 -0.4903
  300MOL0     H40439   2.456   8.240   8.758  0.7158  0.1878 -0.7054
  300MOL0     H40440   2.598   8.159   8.680  0.1110 -2.4295 -0.1618
  300MOL0     H40441   2.513   8.182   8.972  2.6336  0.2656  3.4829
  300MOL0     H40442   2.657   8.100   8.919 -1.3046 -2.0978 -2.5165
  300MOL0     H40443   2.584   8.405   8.927 -0.3652 -0.6793 -1.2594
  300MOL0     H40444   2.715   8.327   9.006  0.6701 -0.5289 -0.1646
  300MOL0     H40445   2.690   8.384   8.714  0.3173 -1.4871  0.1540
  300MOL0     H40446   2.786   8.479   8.835  7.1914 -1.5555  0.1896
  300MOL0     H40447   2.830   8.196   8.767 -0.5157  0.9436 -1.7670
  300MOL0     H40448   2.938   8.283   8.869  3.2783  1.5987 -1.0123
  300MOL0     H40449   2.889   8.305   8.568 -2.4975  2.0780  1.2731
  300MOL0     H40450   2.958   8.442   8.657  4.4684 -0.6335 -1.1342
  300MOL0     H40451   3.058   8.057   8.647  2.1131 -0.6486 -1.9944
  300MOL0     H40452   3.278   8.006   8.865  2.5066 -2.4359 -0.2730
  300MOL0     H40453   3.287   7.942   8.703 -0.0462  0.0880 -0.7327
  300MOL0     H40454   3.510   7.956   8.737  1.5196  1.5185 -3.6469
  300MOL0     H40455   3.478   8.108   8.669 -1.3859 -0.0276 -1.3935
  300MOL0     H40456   3.521   8.047   8.955 -2.0334 -0.8468 -0.7662
  300MOL0     H40457   3.452   8.210   8.899  0.6228  1.2276 -0.7586
  300MOL0     H40458   3.688   8.210   8.759  1.0080  1.1692  1.4552
  300MOL0     H40459   3.718   8.071   8.860 -1.2276 -0.9741 -2.1973
  300MOL0     H40460   3.599   8.108   9.175 -0.1513  1.0763 -0.2627
  300MOL0     H40461   3.746   8.054   9.389  2.6974  1.2411  2.3216
  300MOL0     H40462   3.977   7.789   9.653  0.5236  1.0318 -2.3754
  300MOL0     H40463   4.093   7.749   9.863 -1.1965 -0.3374 -0.5936
  300MOL0     H40464   4.232   8.113  10.104 -2.3788 -0.3327  1.1642
  300MOL0     H40465   4.266   7.980  10.200 -0.4873 -3.1611 -1.3626
  300MOL0     H40466   4.412   8.016   9.941 -0.7378  2.8156  0.2281
  300MOL0     H40467   4.481   8.081  10.091  2.4997 -0.4053 -2.9501
  300MOL0     H40468   4.431   7.791  10.036 -1.6737  1.5807 -0.8815
  300MOL0     H40469   4.584   7.869  10.024 -1.0542 -0.9909 -1.9137
  300MOL0     H40470   4.400   7.817  10.267  0.0876 -2.9078 -0.9137
  300MOL0     H40471   4.530   7.937  10.269  2.1868 -0.6512 -0.9478
  300MOL0     H40472   4.625   7.738  10.362  1.2847  0.7387 -0.1459
  300MOL0     H40473   4.695   7.746  10.205  1.1367 -3.9747  0.3765
  300MOL0     H40474   4.471   7.565  10.294 -2.8888  3.1795 -1.5971
  300MOL0     H40475   4.488   7.590  10.130  0.4598 -0.7968 -0.0858
  300MOL0     H40476   4.739   7.537  10.134  0.3540  3.1451  1.2577
  300MOL0     H40477   4.628   7.398  10.153 -1.3136  2.4338 -3.3278
  300MOL0     H40478   4.822   7.408  10.319  0.5879 -0.4164 -1.2128
  300MOL0     H40479   4.784   7.569  10.364  0.2141 -1.8285  3.3142
  300MOL0     H40480   4.197   8.155   9.878 -0.3318  0.3623 -0.0129
  300MOL0     H40481   4.087   8.198   9.669 -1.8930 -0.4285  0.9976
  300MOL0     H40482   4.100   8.188   9.170 -0.3861 -1.3039 -0.8713
  300MOL0     H40483   3.951   8.254   8.987  0.5835  0.1816  1.4106
  300MOL0     H40484   2.089   7.991   8.578 -2.8583 -1.9740  1.7698
  300MOL0     H40485   1.922   7.875   8.427 -0.4905 -0.9911  0.3976
  300MOL0     H40486   1.818   7.690   8.105  0.7290 -1.3774  0.6140
  300MOL0     H40487   1.656   7.706   7.948 -2.1046  2.7887 -0.5621
  300MOL0     H40488   1.228   7.638   8.079 -0.7665  0.2505  0.2467
  300MOL0     H40489   1.196   7.706   7.920 -1.1509  2.5578 -0.6816
  300MOL0     H40490   1.282   7.865   8.160  1.3886 -2.3933 -1.0281
  300MOL0     H40491   1.108   7.839   8.096 -0.7140  2.3970 -1.2380
  300MOL0     H40492   1.322   7.947   7.916 -0.0821  0.4429  0.2295
  300MOL0     H40493   1.271   8.050   8.032  2.3956 -0.3353 -1.2046
  300MOL0     H40494   1.134   8.082   7.825  1.4790  0.5898  1.7816
  300MOL0     H40495   1.090   7.913   7.814 -2.5358 -1.0070  0.9397
  300MOL0     H40496   0.788   8.111   8.042  0.0822  0.7900 -1.8706
  300MOL0     H40497   1.352   7.672   8.236  0.2025 -1.4488 -0.1456
  300MOL0     H40498   1.402   7.566   8.419  0.8306 -0.8098 -0.7719
  300MOL0     H40499   1.563   7.495   8.452 -2.3910 -1.2222  3.0778
  300MOL0     H40500   1.524   7.660   8.514  2.9084 -0.4061 -1.2573
  301MOL0     O40501   6.304   4.216   9.602  0.2705  0.4213  0.1064
  301MOL0     C40502   6.214   4.181   9.533  1.0368  0.7596 -0.8027
  301MOL0     O40503   6.209   4.065   9.468 -0.3472  0.1038  0.8335
  301MOL0     C40504   6.315   3.975   9.481 -0.4412  1.1113 -0.5752
  301MOL0     C40505   6.422   3.992   9.396 -0.4016 -0.0122 -0.5093
  301MOL0     C40506   6.540   3.916   9.421  0.1176 -1.1952 -0.8872
  301MOL0     C40507   6.545   3.807   9.514 -0.2325 -0.3224 -0.0007
  301MOL0     O40508   6.657   3.720   9.523  0.2596  0.4563  0.3211
  301MOL0     C40509   6.649   3.601   9.597  0.0326 -1.0724  0.7407
  301MOL0     C40510   6.781   3.536   9.571  0.4522  0.6733 -0.5523
  301MOL0     C40511   6.778   3.386   9.602  0.2807 -0.9914  0.3765
  301MOL0     C40512   6.913   3.330   9.606 -0.6446 -0.5368 -0.9137
  301MOL0     C40513   6.919   3.200   9.687  0.3270 -0.2453 -0.1229
  301MOL0     C40514   7.057   3.130   9.688 -0.3159 -0.3076  0.0487
  301MOL0     C40515   7.100   3.075   9.559  0.2220  0.2501 -0.0410
  301MOL0     C40516   7.179   2.944   9.600 -0.4091 -0.2329 -0.8125
  301MOL0     N40517   7.244   2.889   9.484  0.5594  0.1291  0.4248
  301MOL0     C40518   7.327   2.956   9.392 -0.3153 -0.3531  0.1332
  301MOL0     C40519   7.354   2.865   9.296 -0.1157 -0.8276 -0.3797
  301MOL0     C40520   7.469   2.877   9.206 -1.1820  1.0208  0.4262
  301MOL0     C40521   7.585   2.784   9.250  0.1745 -0.0025 -0.3300
  301MOL0     C40522   7.709   2.792   9.163  0.1918 -0.7111  0.1451
  301MOL0     C40523   7.773   2.935   9.155  0.4796  0.0702  0.4018
  301MOL0     O40524   7.896   2.934   9.072  0.3131 -0.8436  0.5258
  301MOL0     C40525   7.999   2.873   9.132 -1.0618 -0.6849  0.4793
  301MOL0     C40526   8.028   2.734   9.113  0.3871  0.2506  0.6306
  301MOL0     C40527   8.144   2.686   9.166  0.6884  0.4535 -0.0198
  301MOL0     C40528   8.226   2.770   9.240  0.2982 -0.5738 -0.0639
  301MOL0     C40529   8.356   2.716   9.276 -0.3126 -1.2444  0.7006
  301MOL0     O40530   8.422   2.623   9.205  0.3058  0.3915 -0.0955
  301MOL0     C40531   8.562   2.609   9.221  0.0963 -0.6125  0.0279
  301MOL0     C40532   8.619   2.479   9.223 -0.0829 -0.7467 -0.8917
  301MOL0     C40533   8.755   2.468   9.210 -0.2501  0.3977 -0.0431
  301MOL0     C40534   8.847   2.575   9.210 -0.2912  0.0438 -0.0333
  301MOL0     O40535   8.973   2.547   9.188 -0.6058 -0.5649  0.2052
  301MOL0     C40536   9.048   2.629   9.099 -0.1133 -0.6228  0.1279
  301MOL0     C40537   9.189   2.560   9.083 -0.2873 -0.2897 -0.2559
  301MOL0     C40538   9.268   2.647   8.991 -0.2572 -1.2295  1.1701
  301MOL0     C40539   9.413   2.591   8.986 -0.3241  0.1010  0.2329
  301MOL0     C40540   9.511   2.687   8.910 -0.0630  1.1062  0.2612
  301MOL0     C40541   9.662   2.641   8.916 -0.3972 -0.1275 -0.6050
  301MOL0     C40542   9.759   2.763   8.860  0.9005  0.0446 -0.3358
  301MOL0     C40543   9.901   2.715   8.847 -0.0919 -0.2619  0.4469
  301MOL0    Cl40544  10.025   2.825   8.776  0.4961 -0.1189 -0.4214
  301MOL0     C40545   8.788   2.704   9.216 -0.0716 -0.5093  0.4267
  301MOL0     C40546   8.650   2.722   9.215 -0.3933 -0.0012 -0.5676
  301MOL0     O40547   8.404   2.774   9.370 -0.4363 -0.6482 -0.4674
  301MOL0     C40548   8.187   2.903   9.265  0.4443 -0.0209 -0.3845
  301MOL0     C40549   8.074   2.955   9.214  0.6592  0.1422 -0.6480
  301MOL0     N40550   7.285   2.750   9.323  0.2620 -0.6992  0.1903
  301MOL0     N40551   7.222   2.760   9.433 -0.2066  0.3579  0.1579
  301MOL0     C40552   6.427   3.782   9.591 -0.4597  0.1400 -0.1530
  301MOL0     C40553   6.320   3.871   9.584  0.1786  0.6366 -0.1600
  301MOL0     C40554   6.089   4.256   9.536 -0.2959  0.3946  0.2693
  301MOL0     C40555   5.997   4.238   9.427  0.1051  0.0818 -1.2108
  301MOL0     C40556   5.876   4.316   9.423  0.3746  0.4575 -0.5323
  301MOL0     C40557   5.838   4.399   9.534 -0.5690 -0.9733 -0.3749
  301MOL0     O40558   5.732   4.481   9.541  0.1504 -0.3698 -0.6440
  301MOL0     C40559   5.638   4.466   9.442 -0.4506 -0.2959  0.3322
  301MOL0     C40560   5.501   4.520   9.487  0.5303 -0.2989  0.1250
  301MOL0     C40561   5.493   4.676   9.495 -0.3822  0.4118  0.3599
  301MOL0     C40562   5.372   4.726   9.568  0.6278 -0.5468 -0.6647
  301MOL0     C40563   5.242   4.703   9.500 -0.0657 -0.0451 -0.5733
  301MOL0     C40564   5.149   4.683   9.423 -0.3242 -0.2478  0.0621
  301MOL0     C40565   5.925   4.406   9.645 -0.1775  0.2617 -0.0864
  301MOL0     C40566   6.048   4.340   9.642  0.2587  0.4733 -0.0073
  301MOL0     C40567   6.123   4.361   9.776 -0.5955  0.2299 -0.2985
  301MOL0     H40568   6.414   4.065   9.317  0.3785  2.4254  1.5243
  301MOL0     H40569   6.627   3.946   9.363  1.3316 -1.5803  0.6746
  301MOL0     H40570   6.632   3.619   9.704 -1.7591  1.6571  0.1006
  301MOL0     H40571   6.572   3.533   9.557  0.4947 -0.1097 -1.9566
  301MOL0     H40572   6.854   3.592   9.631  0.4077  3.7702 -3.1266
  301MOL0     H40573   6.818   3.547   9.469  0.3886  1.9899 -0.4511
  301MOL0     H40574   6.720   3.346   9.518  0.2443  1.5929 -0.9398
  301MOL0     H40575   6.732   3.374   9.701 -2.2430 -1.6570 -0.8157
  301MOL0     H40576   6.952   3.308   9.507  1.4159  1.8389 -0.7421
  301MOL0     H40577   6.995   3.393   9.644 -0.3289 -2.8035  2.7394
  301MOL0     H40578   6.887   3.221   9.789  0.8369 -0.9525  0.1895
  301MOL0     H40579   6.841   3.132   9.651  0.2918 -0.2393 -0.0583
  301MOL0     H40580   7.138   3.198   9.714  0.8749 -1.6753  0.0486
  301MOL0     H40581   7.048   3.059   9.771 -1.7115  1.5954  1.6227
  301MOL0     H40582   7.160   3.148   9.505  0.3627  0.9841  1.0575
  301MOL0     H40583   7.008   3.056   9.502  1.3250 -2.6568 -1.0209
  301MOL0     H40584   7.262   2.970   9.667  0.0599 -0.8395 -1.1431
  301MOL0     H40585   7.113   2.873   9.650  0.0298 -1.2505 -1.6485
  301MOL0     H40586   7.371   3.055   9.398  0.5300 -0.7255  0.2837
  301MOL0     H40587   7.422   2.854   9.110  0.6804  0.2409 -0.3519
  301MOL0     H40588   7.508   2.979   9.210 -0.1767  0.6882 -0.4990
  301MOL0     H40589   7.626   2.808   9.349  2.6277  2.5458 -1.7994
  301MOL0     H40590   7.546   2.682   9.251 -0.0501  0.0831 -0.0184
  301MOL0     H40591   7.683   2.763   9.061  0.3611 -2.5451  0.5876
  301MOL0     H40592   7.774   2.713   9.202 -0.6229 -1.6270 -0.2995
  301MOL0     H40593   7.805   2.966   9.255 -1.8061  3.1542  0.3293
  301MOL0     H40594   7.717   3.018   9.111 -0.2354  0.1857  1.5103
  301MOL0     H40595   7.972   2.671   9.044  0.9187 -0.4260  0.8080
  301MOL0     H40596   8.180   2.586   9.150 -0.6636  0.1637 -1.5909
  301MOL0     H40597   8.541   2.404   9.224  1.4867 -2.4553 -1.2853
  301MOL0     H40598   8.806   2.373   9.196 -0.8536  0.1235 -0.4066
  301MOL0     H40599   9.002   2.643   9.001 -2.6296 -1.4294  1.1191
  301MOL0     H40600   9.062   2.729   9.143  1.9549 -1.4469  1.5343
  301MOL0     H40601   9.238   2.559   9.181 -1.3835  1.2696  0.3508
  301MOL0     H40602   9.196   2.458   9.044  1.6175  0.3743 -1.8129
  301MOL0     H40603   9.236   2.656   8.887 -0.9168  0.4380  1.4746
  301MOL0     H40604   9.258   2.753   9.018 -1.6921 -1.2310  0.7251
  301MOL0     H40605   9.412   2.494   8.936  0.2253  1.1927 -2.0385
  301MOL0     H40606   9.448   2.566   9.086  0.8879  0.2904 -0.1179
  301MOL0     H40607   9.511   2.795   8.925  0.4076  1.3232 -1.1432
  301MOL0     H40608   9.491   2.681   8.803  0.3875  2.1635  0.1051
  301MOL0     H40609   9.682   2.617   9.021 -4.0546  0.3780  0.3550
  301MOL0     H40610   9.697   2.553   8.861  3.7629  0.6831  0.3613
  301MOL0     H40611   9.749   2.846   8.930 -1.1141 -0.5164  0.1272
  301MOL0     H40612   9.728   2.801   8.762  5.1518  0.2915 -1.7818
  301MOL0     H40613   9.947   2.680   8.939  0.1654  0.2100  0.5006
  301MOL0     H40614   9.897   2.634   8.773  3.6662 -0.3557  0.1742
  301MOL0     H40615   8.848   2.792   9.199 -0.5596  0.0080  1.3197
  301MOL0     H40616   8.600   2.818   9.215 -1.1369 -0.3693  0.3304
  301MOL0     H40617   8.247   2.975   9.320 -0.6565  0.7958 -0.2204
  301MOL0     H40618   8.040   3.057   9.229 -1.3808 -0.5679 -0.1104
  301MOL0     H40619   6.428   3.694   9.655  1.8211 -1.8070 -2.6523
  301MOL0     H40620   6.246   3.863   9.664 -0.4656  0.0615 -0.8007
  301MOL0     H40621   6.012   4.171   9.342  0.3463 -0.9093 -0.4160
  301MOL0     H40622   5.832   4.285   9.329 -0.6842 -3.7291  1.1354
  301MOL0     H40623   5.619   4.365   9.405  0.0532 -0.3608  0.2469
  301MOL0     H40624   5.667   4.517   9.350  1.9474 -0.2034  1.0697
  301MOL0     H40625   5.494   4.489   9.592  0.0042  0.9191  0.4754
  301MOL0     H40626   5.419   4.479   9.428  1.6909 -0.5715 -1.3687
  301MOL0     H40627   5.490   4.719   9.394 -0.3810  1.4022  0.7643
  301MOL0     H40628   5.583   4.712   9.546 -1.7232  2.9092  1.1412
  301MOL0     H40629   5.368   4.688   9.671 -0.2799 -0.9259 -0.8306
  301MOL0     H40630   5.378   4.831   9.598 -0.6975  0.0045 -2.2043
  301MOL0     H40631   5.086   4.643   9.346 -0.4193 -0.1570  0.0909
  301MOL0     H40632   5.889   4.456   9.734 -1.6964 -1.4033  0.3144
  301MOL0     H40633   6.055   4.403   9.850 -1.9521 -2.0251 -0.1713
  301MOL0     H40634   6.159   4.264   9.813  2.5545 -0.2213 -3.9214
  301MOL0     H40635   6.213   4.423   9.765 -1.2911  1.4122  0.4651
  302MOL0     O40636   7.081   6.203  10.011  0.0627 -0.0757 -0.1455
  302MOL0     C40637   7.083   6.327  10.017 -0.3546  0.5396 -0.2697
  302MOL0     O40638   7.188   6.399   9.969  0.0486  0.0254 -0.6926
  302MOL0     C40639   7.319   6.365  10.006  0.1017 -0.0996 -0.0225
  302MOL0     C40640   7.410   6.464  10.038 -0.0157  0.1788  0.3696
  302MOL0     C40641   7.547   6.439  10.053  0.5345 -0.0103 -0.3236
  302MOL0     C40642   7.600   6.308  10.049  0.2914 -1.1180 -0.1144
  302MOL0     O40643   7.732   6.287  10.070 -0.2292  0.1150 -1.0760
  302MOL0     C40644   7.792   6.178   9.992 -0.4204 -0.7743 -0.4585
  302MOL0     C40645   7.947   6.191  10.001 -0.0362 -0.3385  0.6712
  302MOL0     C40646   7.993   6.307   9.911 -0.2899 -0.4243 -0.5157
  302MOL0     C40647   8.108   6.388   9.959 -0.7984 -0.0606  0.0604
  302MOL0     C40648   8.246   6.316   9.970  0.5463 -0.5470 -0.0603
  302MOL0     C40649   8.362   6.423  10.016 -0.2611 -0.0156 -0.2376
  302MOL0     C40650   8.498   6.366  10.036  0.5451 -0.8012 -0.2290
  302MOL0     C40651   8.604   6.468   9.997 -0.2321  1.0601 -0.6487
  302MOL0     N40652   8.736   6.419  10.021 -0.5793 -0.2617  0.3334
  302MOL0     C40653   8.804   6.414  10.140 -0.1759 -0.4076  0.0102
  302MOL0     C40654   8.916   6.353  10.110  0.7180 -0.1819  0.2075
  302MOL0     C40655   9.016   6.321  10.216 -0.8293  0.0472 -0.1600
  302MOL0     C40656   9.160   6.334  10.159 -0.2853  0.6187 -0.7335
  302MOL0     C40657   9.184   6.471  10.098 -0.0973  0.1180 -0.1713
  302MOL0     C40658   9.332   6.511  10.048  0.2315  0.1577 -0.2143
  302MOL0     O40659   9.422   6.483  10.156 -0.5704  0.1872  0.0835
  302MOL0     C40660   9.554   6.516  10.162  0.2416  0.3675 -0.2757
  302MOL0     C40661   9.617   6.476  10.282  0.3187  0.4063  0.1087
  302MOL0     C40662   9.748   6.520  10.305  0.3821  0.0945 -0.4706
  302MOL0     C40663   9.827   6.585  10.216 -0.1015  0.2906  0.3376
  302MOL0     C40664   9.964   6.634  10.249 -0.3956  0.5001 -0.3551
  302MOL0     O40665  10.023   6.733  10.168  0.3169 -1.0071 -0.6267
  302MOL0     C40666  10.155   6.772  10.192 -0.2372 -1.4954  0.4678
  302MOL0     C40667  10.193   6.911  10.176 -0.6756 -0.0729  0.2067
  302MOL0     C40668  10.327   6.952  10.192  0.3301  0.0450  0.7700
  302MOL0     C40669  10.430   6.866  10.214  0.1159  0.2113 -0.0030
  302MOL0     O40670  10.550   6.928  10.231  0.8668  0.3934 -0.4637
  302MOL0     C40671  10.675   6.851  10.219  0.1869  0.2410  0.4004
  302MOL0     C40672  10.790   6.943  10.247 -0.0298  0.5832 -0.3166
  302MOL0     C40673  10.926   6.860  10.232 -0.4452  0.4698 -0.0058
  302MOL0     C40674  11.047   6.949  10.248  0.5532 -0.7154  0.2722
  302MOL0     C40675  11.171   6.879  10.308  0.3750  0.3789  0.4330
  302MOL0     C40676  11.160   6.858  10.454 -0.4864 -0.4239 -0.3886
  302MOL0     C40677  11.290   6.825  10.526  1.0632 -0.2779 -0.3008
  302MOL0     C40678  11.392   6.757  10.449 -0.4829 -0.0876 -0.2683
  302MOL0    Cl40679  11.519   6.750  10.569 -0.2778 -0.3819 -0.1792
  302MOL0     C40680  10.402   6.727  10.219 -0.0769  0.4494  0.8184
  302MOL0     C40681  10.265   6.687  10.219  0.7263 -0.0150 -0.2962
  302MOL0     O40682  10.019   6.584  10.345  0.0019  0.0088 -0.0999
  302MOL0     C40683   9.768   6.622  10.094 -0.0647  0.0577  0.8192
  302MOL0     C40684   9.634   6.591  10.067  0.4055  0.1061  0.1318
  302MOL0     N40685   8.917   6.316   9.977  0.0571  0.5640  0.3207
  302MOL0     N40686   8.812   6.358   9.927  0.0051  0.3421 -0.0037
  302MOL0     C40687   7.508   6.205  10.021  0.2206 -0.3117 -0.1483
  302MOL0     C40688   7.372   6.236   9.992 -0.5071  0.4530 -1.2668
  302MOL0     C40689   6.957   6.388  10.053 -0.6920  0.0529 -0.1109
  302MOL0     C40690   6.839   6.319  10.024 -0.1039 -1.3931 -0.2562
  302MOL0     C40691   6.713   6.372  10.056  0.6246  0.3718  0.2540
  302MOL0     C40692   6.696   6.494  10.116 -0.3676 -0.3627 -0.2000
  302MOL0     O40693   6.565   6.523  10.154  0.1185 -0.3813 -0.6338
  302MOL0     C40694   6.538   6.659  10.194  0.0964  0.0822 -0.6743
  302MOL0     C40695   6.400   6.682  10.249  0.6908 -0.4709 -0.0233
  302MOL0     C40696   6.289   6.591  10.180 -0.3699  0.8618  0.5145
  302MOL0     C40697   6.148   6.644  10.232 -0.0616 -0.7047 -0.3143
  302MOL0     C40698   6.065   6.641  10.116  0.6713 -0.2113 -0.7891
  302MOL0     C40699   5.996   6.655  10.014 -0.2757 -0.4354 -0.1392
  302MOL0     C40700   6.809   6.566  10.147 -0.1999  0.2706  0.2536
  302MOL0     C40701   6.936   6.517  10.112 -0.0961  0.0060 -0.6834
  302MOL0     C40702   7.046   6.612  10.130  0.7639 -0.1595  0.4518
  302MOL0     H40703   7.382   6.569  10.043  1.7126  0.5957  2.6470
  302MOL0     H40704   7.620   6.518  10.067  2.9032 -2.2382  0.7644
  302MOL0     H40705   7.764   6.080  10.033 -2.3697  0.3485  1.1005
  302MOL0     H40706   7.770   6.199   9.886 -0.6599  3.1420  0.2074
  302MOL0     H40707   7.992   6.095   9.973 -1.1346 -0.5488 -0.4668
  302MOL0     H40708   7.977   6.222  10.101  1.3190 -0.0037  0.1810
  302MOL0     H40709   7.917   6.386   9.913  0.2185  0.0578 -0.0180
  302MOL0     H40710   8.014   6.274   9.809 -1.9243  0.2162 -1.1061
  302MOL0     H40711   8.122   6.464   9.882 -0.8026 -0.9697 -0.8596
  302MOL0     H40712   8.079   6.428  10.057 -1.9880 -0.3079 -0.1830
  302MOL0     H40713   8.234   6.237  10.045 -3.8138 -0.1050  0.0042
  302MOL0     H40714   8.277   6.277   9.873  3.6129 -1.0512  1.0269
  302MOL0     H40715   8.367   6.509   9.949  2.2876  0.1468  0.0730
  302MOL0     H40716   8.324   6.465  10.110 -0.4314 -0.3591 -0.1535
  302MOL0     H40717   8.514   6.271   9.986 -1.7056 -0.1631 -2.3388
  302MOL0     H40718   8.507   6.333  10.140  1.3837 -1.8627 -0.6223
  302MOL0     H40719   8.625   6.475   9.890  1.1906  3.5402 -0.2738
  302MOL0     H40720   8.582   6.564  10.045 -0.6473  0.7780 -0.2684
  302MOL0     H40721   8.772   6.449  10.237 -1.8971 -0.9193 -0.3456
  302MOL0     H40722   9.012   6.393  10.298  3.0104 -0.4852  0.6484
  302MOL0     H40723   9.015   6.220  10.257  0.7379 -0.4754 -1.3259
  302MOL0     H40724   9.234   6.332  10.239 -0.1631  0.3024 -0.8553
  302MOL0     H40725   9.174   6.258  10.082 -3.7165 -1.8873  0.8807
  302MOL0     H40726   9.157   6.551  10.168 -1.8007  2.7149 -3.4682
  302MOL0     H40727   9.117   6.478  10.011  0.0735 -0.8754 -0.3940
  302MOL0     H40728   9.320   6.617  10.026 -1.7889  0.7268  2.9552
  302MOL0     H40729   9.350   6.442   9.965  1.3557 -0.4638  0.5189
  302MOL0     H40730   9.562   6.413  10.351  1.7546 -0.5519  0.4255
  302MOL0     H40731   9.791   6.496  10.402 -1.1204  0.0170  0.2081
  302MOL0     H40732  10.112   6.977  10.147  0.1722  0.8498 -0.1359
  302MOL0     H40733  10.356   7.056  10.193 -0.2419  0.2320  2.4760
  302MOL0     H40734  10.680   6.779  10.301  0.0465  2.0299  2.0465
  302MOL0     H40735  10.690   6.803  10.122 -0.3502 -2.2541  1.4638
  302MOL0     H40736  10.790   7.030  10.180 -1.1314  2.8526  2.4459
  302MOL0     H40737  10.774   6.986  10.346  0.7501 -1.0989  0.5738
  302MOL0     H40738  10.919   6.783  10.310 -2.0102 -0.1407 -0.6955
  302MOL0     H40739  10.939   6.821  10.131 -0.3596  1.2119 -0.2835
  302MOL0     H40740  11.016   7.023  10.322 -1.0630 -0.8681 -0.2098
  302MOL0     H40741  11.078   6.997  10.155 -0.3599  1.1021  0.8604
  302MOL0     H40742  11.259   6.944  10.300  1.0261  0.0125  3.3821
  302MOL0     H40743  11.187   6.783  10.260  3.2476 -0.9263  3.5938
  302MOL0     H40744  11.119   6.950  10.496  1.5935 -0.4801  2.0014
  302MOL0     H40745  11.083   6.784  10.478  1.8003 -2.7707  0.1169
  302MOL0     H40746  11.260   6.767  10.615  0.8934 -0.9614 -0.7934
  302MOL0     H40747  11.337   6.917  10.561  0.1536 -0.2910  1.0313
  302MOL0     H40748  11.353   6.661  10.414  0.7220 -0.4344 -0.7251
  302MOL0     H40749  11.431   6.816  10.365  2.3572 -1.0312  0.2826
  302MOL0     H40750  10.473   6.645  10.228  0.1218  0.5798  0.4580
  302MOL0     H40751  10.245   6.581  10.234  2.0057 -0.1478  0.7108
  302MOL0     H40752   9.823   6.674  10.018 -2.5985  1.4882 -0.1555
  302MOL0     H40753   9.593   6.620   9.970  4.2355  0.2203 -1.6314
  302MOL0     H40754   7.531   6.100  10.032 -1.2195 -0.5898  0.4214
  302MOL0     H40755   7.309   6.152   9.965  0.8932 -1.0490 -0.1213
  302MOL0     H40756   6.843   6.218   9.984  1.5147 -1.7905  0.7857
  302MOL0     H40757   6.623   6.321  10.022  0.4148  2.4598 -2.6745
  302MOL0     H40758   6.572   6.715  10.107 -0.5491 -1.5933 -2.0470
  302MOL0     H40759   6.610   6.681  10.274 -0.7001  0.1580  0.0388
  302MOL0     H40760   6.373   6.788  10.243  0.5478 -0.3469  2.1360
  302MOL0     H40761   6.396   6.658  10.355 -1.2780 -1.4836 -0.2748
  302MOL0     H40762   6.297   6.485  10.207 -0.3568  0.7154 -0.0392
  302MOL0     H40763   6.296   6.601  10.071 -2.0255 -1.6213  0.0877
  302MOL0     H40764   6.095   6.590  10.310 -0.6618 -1.8019 -1.4463
  302MOL0     H40765   6.150   6.747  10.270 -3.1751 -0.1931 -1.2435
  302MOL0     H40766   5.922   6.674   9.939 -2.0724 -1.9048  1.1415
  302MOL0     H40767   6.799   6.667  10.186  2.5573  1.0731 -0.8577
  302MOL0     H40768   7.136   6.554  10.151  0.3665 -0.5590  1.1346
  302MOL0     H40769   7.058   6.664  10.035  3.2858  1.3022  1.4908
  302MOL0     H40770   7.021   6.677  10.215 -1.0988 -3.6840  2.8623
  303MOL0     O40771   8.938   6.544   0.410 -0.1274  0.3445  0.6502
  303MOL0     C40772   8.864   6.616   0.471  0.5211 -0.5344 -0.6722
  303MOL0     O40773   8.909   6.713   0.556 -0.2788 -0.4856 -0.3429
  303MOL0     C40774   9.047   6.737   0.555  0.9468 -0.0789 -0.1915
  303MOL0     C40775   9.113   6.722   0.670  0.5825  0.1647 -0.4444
  303MOL0     C40776   9.243   6.765   0.687  0.5758  0.3284 -0.2152
  303MOL0     C40777   9.321   6.808   0.583  0.9441 -0.1004 -0.3995
  303MOL0     O40778   9.447   6.847   0.614 -0.2925  0.3628  0.1958
  303MOL0     C40779   9.552   6.843   0.514 -0.4057 -0.1047 -0.6256
  303MOL0     C40780   9.673   6.909   0.575 -0.1551  0.2684 -0.4011
  303MOL0     C40781   9.804   6.863   0.503 -0.7929  0.3885 -0.0635
  303MOL0     C40782   9.807   6.887   0.347 -0.0098 -0.5318 -1.2719
  303MOL0     C40783   9.936   6.824   0.284 -0.2290 -0.5602  0.1291
  303MOL0     C40784   9.940   6.858   0.134  0.3862  0.0862  0.4438
  303MOL0     C40785  10.066   6.795   0.075  0.0922 -0.6499  0.3507
  303MOL0     C40786  10.188   6.881   0.092  0.5014  0.1689 -0.2907
  303MOL0     N40787  10.296   6.813   0.023  0.9785  0.6309 -0.8961
  303MOL0     C40788  10.365   6.696   0.060 -0.6147 -0.6512  0.3894
  303MOL0     C40789  10.453   6.680  -0.045 -0.2998  0.3189  0.5168
  303MOL0     C40790  10.559   6.566  -0.051 -0.7242 -0.1216 -0.3258
  303MOL0     C40791  10.677   6.603  -0.143  0.5652 -0.5990  0.7658
  303MOL0     C40792  10.802   6.521  -0.108  0.3952 -0.3497 -0.4541
  303MOL0     C40793  10.926   6.588  -0.155 -0.7893  0.2866 -0.0629
  303MOL0     O40794  11.031   6.491  -0.136 -0.1271  0.3874 -0.6104
  303MOL0     C40795  11.155   6.529  -0.187  0.5909 -0.0748  0.0620
  303MOL0     C40796  11.180   6.596  -0.309  0.2878 -0.0451  0.6186
  303MOL0     C40797  11.306   6.625  -0.363 -0.6261  0.0666 -0.2841
  303MOL0     C40798  11.422   6.584  -0.293  0.0071 -0.2600 -0.1137
  303MOL0     C40799  11.560   6.614  -0.341  0.7880  0.2440  0.1021
  303MOL0     O40800  11.652   6.569  -0.250  0.2982  0.3572  1.0848
  303MOL0     C40801  11.792   6.571  -0.266 -0.0863  0.6283  0.0323
  303MOL0     C40802  11.863   6.565  -0.150 -0.1729  0.8605 -0.8619
  303MOL0     C40803  12.002   6.576  -0.159 -0.3625 -1.0490 -0.3284
  303MOL0     C40804  12.074   6.565  -0.286 -0.3726  0.0911 -0.1604
  303MOL0     O40805  12.211   6.567  -0.275 -0.5491  0.4346  0.3967
  303MOL0     C40806  12.282   6.642  -0.378 -0.1317  1.3793 -0.1187
  303MOL0     C40807  12.399   6.568  -0.418 -0.4183  0.0428 -0.3118
  303MOL0     C40808  12.504   6.561  -0.306 -0.2248 -0.4630 -0.7026
  303MOL0     C40809  12.627   6.468  -0.335  0.4441 -0.1199  0.5459
  303MOL0     C40810  12.702   6.453  -0.206  0.4556  0.1435 -0.0882
  303MOL0     C40811  12.633   6.336  -0.126 -0.5921 -0.2115  0.0260
  303MOL0     C40812  12.622   6.357   0.027 -0.7393  0.6407 -0.0920
  303MOL0     C40813  12.574   6.245   0.119  0.5767 -0.7902 -0.1869
  303MOL0    Cl40814  12.573   6.317   0.285 -0.4577 -0.4598 -0.4030
  303MOL0     C40815  11.996   6.552  -0.407  1.5846  0.4019  0.7450
  303MOL0     C40816  11.854   6.555  -0.392 -0.5191  0.2060  0.5546
  303MOL0     O40817  11.582   6.672  -0.453  0.0316  0.2797  0.0121
  303MOL0     C40818  11.397   6.513  -0.173  0.3109  0.2678 -0.8649
  303MOL0     C40819  11.270   6.489  -0.124 -1.1561 -0.7539  0.4085
  303MOL0     N40820  10.425   6.771  -0.145  0.2549  0.0413  0.8460
  303MOL0     N40821  10.354   6.859  -0.091  0.3230 -0.4063 -0.6879
  303MOL0     C40822   9.254   6.823   0.459  0.3994  0.9231 -0.8427
  303MOL0     C40823   9.121   6.782   0.445 -0.8873  0.2361 -0.3002
  303MOL0     C40824   8.717   6.605   0.458  0.2055 -0.7459 -0.0794
  303MOL0     C40825   8.630   6.711   0.500  0.2118  0.8189  0.1202
  303MOL0     C40826   8.488   6.698   0.491 -0.2200 -0.4014  0.8807
  303MOL0     C40827   8.426   6.581   0.425 -0.0485  0.4523  0.4871
  303MOL0     O40828   8.290   6.577   0.395 -0.3321  0.2654  0.1106
  303MOL0     C40829   8.204   6.689   0.438  1.0304  0.6225  0.0892
  303MOL0     C40830   8.058   6.648   0.386  0.8283 -0.7062  0.1707
  303MOL0     C40831   8.050   6.675   0.232  0.6482  0.3454  0.4478
  303MOL0     C40832   7.922   6.623   0.174 -1.0159  0.7743  0.0205
  303MOL0     C40833   7.948   6.591   0.035 -0.3040 -0.1297  0.8323
  303MOL0     C40834   7.948   6.562  -0.082 -0.1863 -1.0354 -0.2843
  303MOL0     C40835   8.506   6.482   0.382 -0.2736  0.2427 -0.0069
  303MOL0     C40836   8.651   6.489   0.400  0.8421 -0.4156 -1.3668
  303MOL0     C40837   8.726   6.369   0.343  0.4996  0.3025 -0.6831
  303MOL0     H40838   9.056   6.698   0.759 -1.8796 -1.0299 -2.2086
  303MOL0     H40839   9.277   6.744   0.788 -1.1224  2.1595  0.7984
  303MOL0     H40840   9.572   6.737   0.495  0.9058 -0.7133  3.2762
  303MOL0     H40841   9.511   6.897   0.428 -3.3939  1.4034  1.5810
  303MOL0     H40842   9.688   6.900   0.683 -1.8194  0.8658 -0.0961
  303MOL0     H40843   9.654   7.017   0.575  2.0410  0.7740  2.3880
  303MOL0     H40844   9.814   6.757   0.530  0.8615  0.4253 -0.4432
  303MOL0     H40845   9.883   6.925   0.546 -0.4448  0.2075 -0.4395
  303MOL0     H40846   9.721   6.841   0.297  0.3952 -1.1514 -1.4114
  303MOL0     H40847   9.805   6.994   0.328  1.7457  0.0641  1.3105
  303MOL0     H40848  10.023   6.865   0.337 -0.3247 -2.4806  1.8919
  303MOL0     H40849   9.945   6.717   0.303  1.0259 -1.0070 -2.5379
  303MOL0     H40850   9.855   6.802   0.094  0.0624  0.4046  0.6927
  303MOL0     H40851   9.941   6.964   0.108  2.2375 -0.4513 -2.0784
  303MOL0     H40852  10.050   6.790  -0.033  0.5398  2.4988  0.0229
  303MOL0     H40853  10.081   6.692   0.108  0.2599 -0.8606 -0.3702
  303MOL0     H40854  10.169   6.982   0.053 -0.7120  0.7880  1.7805
  303MOL0     H40855  10.211   6.895   0.197 -2.8563  0.6403  0.5057
  303MOL0     H40856  10.367   6.635   0.150  1.1761 -0.8111  0.2749
  303MOL0     H40857  10.593   6.561   0.053 -4.6730 -0.2473  1.1278
  303MOL0     H40858  10.519   6.471  -0.087  1.8026 -0.9662 -1.1332
  303MOL0     H40859  10.644   6.580  -0.245  2.7156 -1.4985  0.2304
  303MOL0     H40860  10.695   6.710  -0.131  3.3883 -0.7081 -1.4500
  303MOL0     H40861  10.791   6.430  -0.168 -1.2127  0.6288 -1.7496
  303MOL0     H40862  10.795   6.491  -0.003 -2.3480 -1.1210 -0.7665
  303MOL0     H40863  10.951   6.678  -0.097 -0.1816 -0.1445  0.3532
  303MOL0     H40864  10.918   6.622  -0.258 -2.5412  1.0279  0.2763
  303MOL0     H40865  11.098   6.624  -0.374  1.6555 -1.4589 -1.8460
  303MOL0     H40866  11.312   6.683  -0.455  2.0204  0.7329  0.2288
  303MOL0     H40867  11.801   6.556  -0.061  0.4692  0.9338 -0.3952
  303MOL0     H40868  12.061   6.589  -0.069  0.7673  2.1134 -1.4149
  303MOL0     H40869  12.222   6.647  -0.470  0.1179  1.4507 -0.2802
  303MOL0     H40870  12.293   6.746  -0.347 -0.5123  0.5766  2.9919
  303MOL0     H40871  12.368   6.468  -0.449 -4.0339  1.2538 -1.1445
  303MOL0     H40872  12.440   6.629  -0.499  0.2151  0.8949  0.6300
  303MOL0     H40873  12.549   6.659  -0.295  0.2925 -0.7111 -0.5960
  303MOL0     H40874  12.462   6.540  -0.207  1.7197  2.2412  0.8421
  303MOL0     H40875  12.682   6.529  -0.406 -3.7402  1.5384 -1.5674
  303MOL0     H40876  12.590   6.373  -0.375  0.9854 -0.5823  1.1035
  303MOL0     H40877  12.691   6.545  -0.148 -3.2298 -0.9809  1.3152
  303MOL0     H40878  12.806   6.423  -0.218  0.1212 -0.7448 -0.9034
  303MOL0     H40879  12.531   6.318  -0.163 -2.1246  1.7602  2.8297
  303MOL0     H40880  12.704   6.255  -0.139  1.1639  1.3499 -0.5196
  303MOL0     H40881  12.542   6.430   0.038  0.0451  1.1688  3.4599
  303MOL0     H40882  12.720   6.390   0.065 -0.0282 -1.9335  0.5223
  303MOL0     H40883  12.485   6.196   0.079  3.2524 -6.6164  0.0274
  303MOL0     H40884  12.638   6.157   0.110  1.2730 -0.2815 -0.3240
  303MOL0     H40885  12.046   6.546  -0.503 -2.1567  0.3702 -1.3810
  303MOL0     H40886  11.791   6.554  -0.481 -0.7284  1.4466  0.6668
  303MOL0     H40887  11.482   6.467  -0.124  0.9843  3.9272  1.8966
  303MOL0     H40888  11.256   6.441  -0.027  1.7345 -1.3107  0.6408
  303MOL0     H40889   9.291   6.869   0.368 -4.6041  4.1380 -1.6172
  303MOL0     H40890   9.069   6.790   0.351 -0.8482 -0.9928 -0.4432
  303MOL0     H40891   8.658   6.791   0.568  1.8818  0.0591  0.3699
  303MOL0     H40892   8.445   6.793   0.520 -0.1467 -0.4001  0.9879
  303MOL0     H40893   8.231   6.785   0.396  0.4168  0.2604 -1.1793
  303MOL0     H40894   8.200   6.683   0.547  0.1576 -3.3401  0.0183
  303MOL0     H40895   7.982   6.710   0.434  2.4298  0.4840  1.2729
  303MOL0     H40896   8.029   6.547   0.417 -1.2615 -0.3148 -0.3632
  303MOL0     H40897   8.138   6.633   0.184  0.1138 -3.0783  2.1577
  303MOL0     H40898   8.045   6.783   0.216  1.2085  0.8405  3.1335
  303MOL0     H40899   7.878   6.534   0.220 -2.7440  1.5584 -0.0260
  303MOL0     H40900   7.847   6.702   0.181 -1.1129  0.5620  4.4579
  303MOL0     H40901   7.946   6.537  -0.186  1.8362 -0.8068 -0.4055
  303MOL0     H40902   8.465   6.398   0.327  1.0507 -0.8144  0.5737
  303MOL0     H40903   8.662   6.283   0.317  0.4405  0.1616 -0.0830
  303MOL0     H40904   8.786   6.400   0.257  2.7862  1.2786  1.1537
  303MOL0     H40905   8.791   6.336   0.425  1.8293  0.5413 -1.6101
  304MOL0     O40906   1.418   3.717   8.529  0.0281 -0.0956 -0.8268
  304MOL0     C40907   1.391   3.659   8.427 -0.0460  0.1808 -0.0472
  304MOL0     O40908   1.482   3.637   8.326  0.1964  0.1535 -0.7091
  304MOL0     C40909   1.610   3.695   8.339  0.0186  0.5072 -0.1667
  304MOL0     C40910   1.700   3.643   8.433  0.7466 -0.9287 -0.3823
  304MOL0     C40911   1.822   3.698   8.431 -0.7245  0.1234  0.4671
  304MOL0     C40912   1.860   3.809   8.361  0.4750  0.0702  0.3886
  304MOL0     O40913   1.989   3.865   8.344  0.3259  1.0089  0.3230
  304MOL0     C40914   2.093   3.828   8.438  0.0627 -0.6209  0.1564
  304MOL0     C40915   2.213   3.914   8.412 -0.2150  0.1143 -0.2510
  304MOL0     C40916   2.358   3.863   8.417  0.1015 -0.5901  0.1370
  304MOL0     C40917   2.447   3.990   8.396 -0.1583 -0.0151 -0.0409
  304MOL0     C40918   2.590   3.939   8.426  0.0877  1.3841 -0.3161
  304MOL0     C40919   2.687   4.056   8.443 -0.8529 -0.4208 -0.8164
  304MOL0     C40920   2.712   4.138   8.323  0.5779  0.6126 -0.6531
  304MOL0     C40921   2.804   4.256   8.345 -0.7083 -0.9208  0.0295
  304MOL0     N40922   2.927   4.227   8.420 -0.5845 -0.4732 -0.7025
  304MOL0     C40923   3.051   4.218   8.365 -0.2450  0.8021 -0.3903
  304MOL0     C40924   3.137   4.217   8.471  0.2617 -0.0463 -0.1560
  304MOL0     C40925   3.283   4.180   8.476 -0.1960  0.2225 -0.4047
  304MOL0     C40926   3.352   4.292   8.545 -0.4539 -1.4187  0.6469
  304MOL0     C40927   3.504   4.262   8.569  0.0065 -0.1742  0.1249
  304MOL0     C40928   3.575   4.304   8.437  0.2686  0.7835  0.1892
  304MOL0     O40929   3.691   4.219   8.401  0.4402  0.2805 -0.0054
  304MOL0     C40930   3.818   4.276   8.417  0.7233  0.3994  0.9800
  304MOL0     C40931   3.848   4.357   8.522 -0.4557 -1.0687 -0.4164
  304MOL0     C40932   3.982   4.406   8.531 -0.0530 -0.0614 -0.2623
  304MOL0     C40933   4.076   4.365   8.442  1.2142  0.2445  0.0715
  304MOL0     C40934   4.217   4.411   8.462  0.9092  1.4550 -0.3230
  304MOL0     O40935   4.308   4.357   8.381 -0.5233  0.3370  0.2595
  304MOL0     C40936   4.443   4.367   8.417  0.6892  1.3241  0.0698
  304MOL0     C40937   4.515   4.253   8.460  0.8895 -0.2292  0.6168
  304MOL0     C40938   4.647   4.268   8.490  0.2394  0.1645  0.0630
  304MOL0     C40939   4.719   4.388   8.470 -0.3384 -0.2040 -0.3680
  304MOL0     O40940   4.851   4.406   8.508 -0.2363 -0.6571  0.5162
  304MOL0     C40941   4.926   4.285   8.527 -0.9401  0.2195 -0.1164
  304MOL0     C40942   5.072   4.310   8.556 -1.5506  0.4149 -0.5609
  304MOL0     C40943   5.166   4.181   8.537  0.1839  0.1656  0.1900
  304MOL0     C40944   5.195   4.116   8.674  0.1362 -0.2215  0.4308
  304MOL0     C40945   5.288   4.210   8.762  0.3341 -0.0590  0.4264
  304MOL0     C40946   5.436   4.201   8.726  0.5953 -1.1036 -0.2804
  304MOL0     C40947   5.509   4.300   8.820  0.9618  0.4572  0.3563
  304MOL0     C40948   5.655   4.295   8.797  1.3581  0.2703  0.6301
  304MOL0    Cl40949   5.697   4.337   8.634 -0.0699  0.2030  0.5223
  304MOL0     C40950   4.641   4.498   8.430 -0.7084 -0.9413 -0.5939
  304MOL0     C40951   4.505   4.494   8.397 -0.3623 -0.0850 -0.4597
  304MOL0     O40952   4.248   4.467   8.567  0.2347 -0.1374 -0.0312
  304MOL0     C40953   4.045   4.281   8.338  0.4557  0.2100 -1.4144
  304MOL0     C40954   3.911   4.241   8.328 -0.1261 -0.5137  0.1088
  304MOL0     N40955   3.060   4.247   8.586 -0.3715  0.1483  0.2327
  304MOL0     N40956   2.938   4.252   8.551 -0.2590 -0.2253  0.1362
  304MOL0     C40957   1.771   3.859   8.276 -0.0763 -0.1440 -0.0988
  304MOL0     C40958   1.639   3.802   8.261 -0.1749 -0.0331  0.4876
  304MOL0     C40959   1.246   3.625   8.408 -0.9189 -0.1206 -0.3200
  304MOL0     C40960   1.208   3.580   8.276 -0.8015 -0.5194  0.0151
  304MOL0     C40961   1.078   3.545   8.258  0.0338  0.4272  0.2552
  304MOL0     C40962   0.985   3.542   8.360  0.0078 -0.1675  0.5292
  304MOL0     O40963   0.860   3.525   8.317 -0.2506  0.7504  0.0883
  304MOL0     C40964   0.766   3.437   8.397  0.1559 -0.3198 -0.5666
  304MOL0     C40965   0.658   3.537   8.435  0.1188 -0.6462 -1.5176
  304MOL0     C40966   0.580   3.585   8.311  0.4120  0.0215  0.6603
  304MOL0     C40967   0.443   3.531   8.279 -0.2587 -0.2571 -0.2120
  304MOL0     C40968   0.443   3.385   8.243  0.3585 -0.2140 -0.2418
  304MOL0     C40969   0.444   3.267   8.198 -0.2453 -0.1573 -0.2347
  304MOL0     C40970   1.019   3.578   8.490  0.4927  0.0041  0.4733
  304MOL0     C40971   1.149   3.620   8.513 -0.0539 -0.0957  0.3922
  304MOL0     C40972   1.175   3.667   8.656 -0.3650 -0.6534 -0.2068
  304MOL0     H40973   1.680   3.556   8.494 -0.6254  0.6038  1.4904
  304MOL0     H40974   1.902   3.640   8.476  0.2984  0.8073 -0.4389
  304MOL0     H40975   2.051   3.842   8.538 -3.6852  1.2516 -1.4961
  304MOL0     H40976   2.120   3.722   8.433  1.0196 -0.3879  0.0660
  304MOL0     H40977   2.200   3.997   8.483  2.5153 -1.8546  2.8669
  304MOL0     H40978   2.200   3.939   8.306  0.9581 -2.8038 -1.1800
  304MOL0     H40979   2.381   3.784   8.345  0.4283  0.9631 -1.5170
  304MOL0     H40980   2.367   3.822   8.518  0.8765  1.6511  1.0473
  304MOL0     H40981   2.441   4.030   8.294 -1.9896 -1.8962 -0.7295
  304MOL0     H40982   2.429   4.070   8.469 -1.8890 -1.4149  1.1344
  304MOL0     H40983   2.581   3.890   8.523  0.6067 -0.5005 -1.1798
  304MOL0     H40984   2.630   3.864   8.357  1.4527  0.8947  0.9699
  304MOL0     H40985   2.649   4.128   8.516  0.2000 -0.3144 -0.3555
  304MOL0     H40986   2.783   4.028   8.487  0.2472  2.4467 -1.1885
  304MOL0     H40987   2.617   4.181   8.290 -0.7105  1.3649  3.4296
  304MOL0     H40988   2.754   4.072   8.247  0.7087 -1.9578  1.4983
  304MOL0     H40989   2.823   4.286   8.241  1.2748 -3.4471 -0.4386
  304MOL0     H40990   2.756   4.342   8.391  0.1560 -0.4840  0.1296
  304MOL0     H40991   3.077   4.213   8.259 -0.2170  1.9788 -0.4625
  304MOL0     H40992   3.289   4.089   8.535  0.1105  0.5078  0.0143
  304MOL0     H40993   3.323   4.166   8.375 -3.8173 -3.0202 -1.5982
  304MOL0     H40994   3.348   4.390   8.497 -2.4576 -0.4313  2.5947
  304MOL0     H40995   3.303   4.304   8.643  1.3773 -2.0722  1.6946
  304MOL0     H40996   3.513   4.154   8.583  0.9928 -0.0152  0.8386
  304MOL0     H40997   3.543   4.313   8.657 -0.9974 -0.3405  0.6917
  304MOL0     H40998   3.608   4.406   8.457 -0.0995  0.6765  1.4038
  304MOL0     H40999   3.514   4.303   8.346  1.5591 -0.5672 -0.7226
  304MOL0     H41000   3.768   4.369   8.595 -0.8161  1.7297 -1.1816
  304MOL0     H41001   4.010   4.477   8.608  1.6300 -1.7198  0.7280
  304MOL0     H41002   4.473   4.153   8.468 -0.7765  0.2438 -1.3942
  304MOL0     H41003   4.697   4.175   8.515 -1.6507 -1.7635 -2.6874
  304MOL0     H41004   4.886   4.233   8.614  0.5086  1.5044  1.3801
  304MOL0     H41005   4.921   4.222   8.437  0.6335 -2.3023  1.4234
  304MOL0     H41006   5.109   4.376   8.478 -0.6152 -0.4454 -0.8686
  304MOL0     H41007   5.089   4.368   8.647  0.9878 -0.1959 -0.5621
  304MOL0     H41008   5.124   4.112   8.464 -0.2753  0.9879 -0.3468
  304MOL0     H41009   5.254   4.222   8.486 -1.0814  1.9095 -0.7050
  304MOL0     H41010   5.245   4.019   8.664 -0.0043 -0.5700  2.5734
  304MOL0     H41011   5.100   4.095   8.723 -0.7356 -0.7927 -1.4195
  304MOL0     H41012   5.276   4.181   8.867 -0.1404 -0.6177  0.2266
  304MOL0     H41013   5.256   4.314   8.756 -0.8974 -0.2775  2.4272
  304MOL0     H41014   5.473   4.100   8.747 -2.0639 -2.2164 -0.4746
  304MOL0     H41015   5.463   4.222   8.622  0.4365  0.2218 -0.0704
  304MOL0     H41016   5.479   4.277   8.923  1.3294  0.2883  0.4264
  304MOL0     H41017   5.467   4.398   8.797  1.0572  0.0450 -1.7723
  304MOL0     H41018   5.694   4.378   8.857 -1.7936  3.3767 -1.2213
  304MOL0     H41019   5.694   4.195   8.821 -0.5046 -0.1678  2.0870
  304MOL0     H41020   4.685   4.597   8.429 -3.4550  0.4112  0.9126
  304MOL0     H41021   4.455   4.585   8.365  0.9082  1.4141  1.5170
  304MOL0     H41022   4.112   4.255   8.257 -0.0255 -3.2266 -0.8747
  304MOL0     H41023   3.885   4.183   8.241  1.6738  1.0359 -1.5601
  304MOL0     H41024   1.798   3.952   8.228  1.7751  0.2398  1.5814
  304MOL0     H41025   1.561   3.855   8.207 -0.7686  0.7315  2.0227
  304MOL0     H41026   1.271   3.586   8.188 -1.6375 -3.0562 -0.8340
  304MOL0     H41027   1.044   3.524   8.157  3.4209  2.2466 -1.4687
  304MOL0     H41028   0.819   3.393   8.483 -1.0674 -2.8512 -1.0045
  304MOL0     H41029   0.727   3.349   8.344  0.3960 -0.0083 -1.2718
  304MOL0     H41030   0.695   3.631   8.477 -3.6128  0.3675 -0.1467
  304MOL0     H41031   0.593   3.497   8.514  0.3627  0.2422 -0.8476
  304MOL0     H41032   0.646   3.562   8.227  0.2221 -1.1282  0.8065
  304MOL0     H41033   0.578   3.694   8.311  1.3204  0.0521  0.9170
  304MOL0     H41034   0.375   3.546   8.364  1.3355 -1.4807  1.3371
  304MOL0     H41035   0.404   3.593   8.197  0.2471  1.3991  0.7693
  304MOL0     H41036   0.477   3.172   8.160  1.3524  0.4519 -0.4357
  304MOL0     H41037   0.938   3.581   8.562 -0.0744  3.0438 -0.1419
  304MOL0     H41038   1.270   3.628   8.694 -0.4044  0.6774  1.3442
  304MOL0     H41039   1.178   3.777   8.659 -2.1272 -0.5977  0.6376
  304MOL0     H41040   1.095   3.632   8.721 -1.2960  1.1217 -0.3319
  305MOL0     O41041   0.367   2.112   0.568  0.4464  0.2315  0.2450
  305MOL0     C41042   0.375   2.124   0.446  1.2166  0.8632 -0.7753
  305MOL0     O41043   0.490   2.114   0.371  0.3294 -0.2323 -0.6541
  305MOL0     C41044   0.610   2.083   0.441  0.1746  0.3723  0.6508
  305MOL0     C41045   0.627   1.975   0.532 -0.5452  0.0711 -0.2727
  305MOL0     C41046   0.743   1.977   0.607 -0.2545 -0.4106  0.7348
  305MOL0     C41047   0.847   2.071   0.587  0.2493  0.6418 -0.0411
  305MOL0     O41048   0.950   2.088   0.670  1.0893  0.2389 -0.2683
  305MOL0     C41049   1.033   1.974   0.692  0.5449  0.3216  0.3790
  305MOL0     C41050   1.164   2.031   0.744  0.3652 -0.1865 -0.6951
  305MOL0     C41051   1.276   1.925   0.755 -0.7344  0.5334  0.2203
  305MOL0     C41052   1.415   1.987   0.811 -0.9344 -0.4303  1.0538
  305MOL0     C41053   1.525   1.885   0.786  0.4291  0.5680  0.4170
  305MOL0     C41054   1.661   1.919   0.836 -0.5709  0.2305  0.4244
  305MOL0     C41055   1.682   1.931   0.986  0.4780 -0.5881  1.2624
  305MOL0     C41056   1.806   1.848   1.023 -0.4887 -0.2690  0.3889
  305MOL0     N41057   1.922   1.918   0.964  0.1981  0.0228 -0.0263
  305MOL0     C41058   1.952   2.052   0.964  1.2666  0.0063  0.5345
  305MOL0     C41059   2.041   2.056   0.865 -0.2192  0.3672  1.2061
  305MOL0     C41060   2.121   2.183   0.824  0.9701  0.4214 -0.0524
  305MOL0     C41061   2.245   2.218   0.900 -0.0018 -0.1969  0.4764
  305MOL0     C41062   2.348   2.111   0.891  0.1552 -0.2851 -0.7685
  305MOL0     C41063   2.482   2.163   0.952  1.1483 -0.6318  0.8059
  305MOL0     O41064   2.476   2.168   1.094 -0.4785  0.1530  0.5378
  305MOL0     C41065   2.571   2.110   1.174 -0.3635 -0.3685 -0.1810
  305MOL0     C41066   2.670   2.013   1.140  0.2138  0.0028 -0.8529
  305MOL0     C41067   2.753   1.962   1.243 -0.2626  0.0878 -0.4414
  305MOL0     C41068   2.741   1.988   1.379 -0.1395 -1.1367  0.0202
  305MOL0     C41069   2.828   1.923   1.483  0.3579  0.1827 -0.3713
  305MOL0     O41070   2.933   1.843   1.436  0.4942 -0.3768  0.2587
  305MOL0     C41071   3.031   1.795   1.518  0.8001  0.0521 -0.4070
  305MOL0     C41072   3.098   1.682   1.478  0.2460 -0.5613  0.3702
  305MOL0     C41073   3.208   1.630   1.549 -0.3279 -0.4979  0.2142
  305MOL0     C41074   3.254   1.694   1.662 -0.2139 -1.2961 -0.1290
  305MOL0     O41075   3.347   1.647   1.757 -0.3614  0.4953 -0.4229
  305MOL0     C41076   3.412   1.519   1.742  0.0383 -1.1214 -0.1902
  305MOL0     C41077   3.507   1.485   1.853  0.3572 -0.0703 -0.5957
  305MOL0     C41078   3.438   1.440   1.975  0.4412  0.1212  0.2370
  305MOL0     C41079   3.530   1.375   2.083  0.3269  0.6535  0.5732
  305MOL0     C41080   3.649   1.470   2.111  0.1925  0.0767 -0.5217
  305MOL0     C41081   3.727   1.426   2.235  0.5755  0.4827  0.8569
  305MOL0     C41082   3.840   1.531   2.256 -0.6453  0.3783  0.8855
  305MOL0     C41083   3.957   1.460   2.343  0.3651 -0.7049 -0.3539
  305MOL0    Cl41084   4.099   1.575   2.382 -0.1302 -0.1082 -0.1396
  305MOL0     C41085   3.184   1.806   1.710 -0.0840  0.2396 -0.7397
  305MOL0     C41086   3.077   1.855   1.637  0.1380  0.5483 -0.3775
  305MOL0     O41087   2.807   1.954   1.594  0.3145  0.1338  0.1341
  305MOL0     C41088   2.640   2.080   1.408  0.6002  0.1691 -0.4813
  305MOL0     C41089   2.554   2.133   1.312  0.2969  0.1823 -0.6064
  305MOL0     N41090   2.080   1.929   0.835 -0.2914 -0.2953 -0.7625
  305MOL0     N41091   2.006   1.842   0.885 -0.1915 -0.3570  0.2314
  305MOL0     C41092   0.824   2.168   0.490  0.5945 -0.5867  0.7375
  305MOL0     C41093   0.711   2.179   0.415  0.2368 -0.6744 -0.4602
  305MOL0     C41094   0.245   2.158   0.377  0.0605 -0.6409 -0.7556
  305MOL0     C41095   0.123   2.120   0.441  1.3287  0.0002  0.3943
  305MOL0     C41096   0.004   2.134   0.380 -0.6618  0.2695  1.3065
  305MOL0     C41097   0.000   2.215   0.265  0.2055 -0.0171 -0.2675
  305MOL0     O41098  -0.128   2.244   0.219 -0.2533  0.7238  0.5691
  305MOL0     C41099  -0.160   2.339   0.112  0.4890  0.0487 -1.2220
  305MOL0     C41100  -0.133   2.284  -0.028  0.5687 -0.3674  0.1054
  305MOL0     C41101  -0.261   2.233  -0.110  0.0549 -0.5886  0.3647
  305MOL0     C41102  -0.372   2.337  -0.130 -0.0219 -0.2412 -1.5036
  305MOL0     C41103  -0.495   2.273  -0.191 -0.7816 -0.6826 -0.3325
  305MOL0     C41104  -0.597   2.233  -0.241 -0.1807 -0.5844  0.4861
  305MOL0     C41105   0.115   2.264   0.199 -0.4245 -1.1629 -0.0223
  305MOL0     C41106   0.238   2.231   0.256  0.1400  0.7271  0.7371
  305MOL0     C41107   0.352   2.303   0.187 -0.8821 -1.0196  0.0017
  305MOL0     H41108   0.561   1.890   0.548  0.8477 -0.8959  0.5570
  305MOL0     H41109   0.758   1.908   0.690  0.0338 -0.1357  0.9155
  305MOL0     H41110   1.005   1.915   0.780  0.4481 -0.0195  0.1245
  305MOL0     H41111   1.053   1.913   0.603 -0.5394 -0.0913  0.4035
  305MOL0     H41112   1.143   2.077   0.841 -1.0508  1.8565 -1.8950
  305MOL0     H41113   1.204   2.102   0.671  1.8355 -2.2549 -2.0177
  305MOL0     H41114   1.289   1.908   0.648 -3.7880  2.4952 -0.6083
  305MOL0     H41115   1.254   1.831   0.805 -0.6672  0.8560  0.8636
  305MOL0     H41116   1.443   2.081   0.764 -1.1727 -0.8604  0.0124
  305MOL0     H41117   1.389   1.997   0.917 -0.8450 -0.8493  1.1200
  305MOL0     H41118   1.506   1.784   0.825  1.7791  0.7228  1.5507
  305MOL0     H41119   1.534   1.871   0.678  1.1197 -1.6155  0.7019
  305MOL0     H41120   1.724   1.842   0.791 -2.0973  0.6569 -2.7303
  305MOL0     H41121   1.696   2.011   0.789  3.3289 -2.3013 -2.2981
  305MOL0     H41122   1.595   1.899   1.043  0.4693 -1.6933  0.6701
  305MOL0     H41123   1.695   2.034   1.020 -1.6989  0.2308 -0.1677
  305MOL0     H41124   1.818   1.837   1.131  1.3603 -2.1944  0.0616
  305MOL0     H41125   1.799   1.751   0.974 -0.9407  0.2847 -0.6789
  305MOL0     H41126   1.900   2.133   1.014 -2.6121 -1.5170 -0.6529
  305MOL0     H41127   2.155   2.168   0.722 -0.3306 -2.8220 -0.1198
  305MOL0     H41128   2.044   2.259   0.813  0.2990  0.0965  1.9812
  305MOL0     H41129   2.287   2.316   0.877 -0.3468  0.0741  0.9672
  305MOL0     H41130   2.219   2.225   1.006 -0.8715  1.0028  0.1972
  305MOL0     H41131   2.361   2.083   0.786  1.3457 -0.9516 -0.4710
  305MOL0     H41132   2.308   2.022   0.940 -2.3509  0.2027 -1.7982
  305MOL0     H41133   2.510   2.259   0.906  3.0685 -2.4152 -2.0096
  305MOL0     H41134   2.563   2.095   0.927 -0.0870 -1.6397 -0.5944
  305MOL0     H41135   2.690   1.990   1.036  1.4975  0.8664 -0.8136
  305MOL0     H41136   2.831   1.894   1.210 -1.8649 -1.4192 -1.2657
  305MOL0     H41137   3.065   1.650   1.379  0.1386  2.4502 -0.6454
  305MOL0     H41138   3.246   1.530   1.532 -3.8004 -2.1636  1.4193
  305MOL0     H41139   3.334   1.443   1.740 -3.0068  1.7919 -1.7837
  305MOL0     H41140   3.458   1.524   1.644 -5.1020 -1.6530 -2.9781
  305MOL0     H41141   3.590   1.419   1.824  0.1188 -1.8111  2.2592
  305MOL0     H41142   3.556   1.580   1.878 -0.7903  0.3525  0.1238
  305MOL0     H41143   3.391   1.523   2.028  0.3341 -0.3715  0.9304
  305MOL0     H41144   3.362   1.366   1.947 -0.3756  1.8481 -2.5453
  305MOL0     H41145   3.570   1.281   2.041  3.6347  2.2691 -0.2488
  305MOL0     H41146   3.463   1.358   2.168 -0.5831  0.3057 -0.1958
  305MOL0     H41147   3.609   1.569   2.138 -3.0461 -1.4683  0.8563
  305MOL0     H41148   3.717   1.478   2.025  2.9709  1.2977  1.6149
  305MOL0     H41149   3.661   1.405   2.320  2.2855 -2.1684  1.6715
  305MOL0     H41150   3.774   1.332   2.203  0.5880  0.6992  0.2181
  305MOL0     H41151   3.812   1.626   2.303 -0.4886  1.4788 -1.1152
  305MOL0     H41152   3.884   1.560   2.160  1.0531  0.5181  1.6776
  305MOL0     H41153   3.924   1.417   2.438  0.1421 -0.0526 -0.1310
  305MOL0     H41154   3.984   1.368   2.289  0.4076 -1.1065  0.3465
  305MOL0     H41155   3.213   1.868   1.795 -2.0108  0.8959 -0.5186
  305MOL0     H41156   3.042   1.949   1.678 -3.0250 -0.0439 -1.4208
  305MOL0     H41157   2.629   2.106   1.513  1.3345  0.3254 -0.4375
  305MOL0     H41158   2.476   2.203   1.341  1.4720  1.6321 -0.8207
  305MOL0     H41159   0.909   2.235   0.480  0.1170 -0.2862 -2.6765
  305MOL0     H41160   0.689   2.270   0.360  0.6150 -0.4816 -0.2902
  305MOL0     H41161   0.120   2.076   0.540 -0.9304 -2.5368 -0.6994
  305MOL0     H41162  -0.090   2.110   0.429 -2.7199  0.6585 -2.1410
  305MOL0     H41163  -0.108   2.435   0.116  1.1083 -0.2980 -0.8558
  305MOL0     H41164  -0.266   2.365   0.121  0.3948 -0.0891 -1.8933
  305MOL0     H41165  -0.070   2.196  -0.013  1.0324 -0.2535 -1.0954
  305MOL0     H41166  -0.078   2.357  -0.088 -0.5989  0.8596  0.4733
  305MOL0     H41167  -0.297   2.143  -0.060  0.4479 -1.7131 -1.3111
  305MOL0     H41168  -0.218   2.218  -0.210  0.2029  3.3291 -0.3423
  305MOL0     H41169  -0.410   2.390  -0.043 -1.1864  1.4292 -2.9544
  305MOL0     H41170  -0.342   2.414  -0.202 -2.6990  0.5852 -1.8490
  305MOL0     H41171  -0.678   2.187  -0.293  0.4126 -1.5996  0.4218
  305MOL0     H41172   0.113   2.321   0.107  0.5255 -1.4721 -0.2487
  305MOL0     H41173   0.427   2.233   0.149  1.1209  1.4436 -0.9719
  305MOL0     H41174   0.329   2.368   0.102 -0.2869 -1.7410 -0.7200
  305MOL0     H41175   0.411   2.363   0.258 -0.8993  1.2845 -1.7753
  306MOL0     O41176   4.898   4.161   4.022 -0.3736  0.7320 -0.8987
  306MOL0     C41177   4.929   4.272   4.065 -1.0863  0.6601  0.2969
  306MOL0     O41178   5.055   4.320   4.075 -0.5379  0.4943  0.4463
  306MOL0     C41179   5.165   4.251   4.047  1.0065  0.5270  0.6100
  306MOL0     C41180   5.262   4.237   4.144 -0.4114 -0.5066  0.1049
  306MOL0     C41181   5.370   4.152   4.133  1.1279  0.9162 -0.1640
  306MOL0     C41182   5.385   4.073   4.021 -0.6182 -0.2833  0.0074
  306MOL0     O41183   5.502   3.993   4.013  0.0966 -0.1937 -0.5185
  306MOL0     C41184   5.537   3.923   3.897  0.2162 -0.7088  0.9953
  306MOL0     C41185   5.690   3.878   3.904 -0.2956  0.3800  0.9966
  306MOL0     C41186   5.789   3.989   3.859 -0.5774  0.2017  0.5509
  306MOL0     C41187   5.931   3.928   3.868  0.0403 -0.4579  0.3524
  306MOL0     C41188   6.037   4.039   3.859 -0.6010  0.3444  0.3088
  306MOL0     C41189   6.175   3.976   3.842  0.0484 -0.3553  0.2982
  306MOL0     C41190   6.280   4.085   3.803  0.0252 -0.1705 -0.0069
  306MOL0     C41191   6.347   4.180   3.905  0.5277 -0.2946  0.1760
  306MOL0     N41192   6.467   4.129   3.978 -0.4935  0.2990  0.2607
  306MOL0     C41193   6.598   4.139   3.941  0.0650 -0.5658  0.1816
  306MOL0     C41194   6.662   4.091   4.044 -0.3954 -0.5298 -0.2496
  306MOL0     C41195   6.814   4.092   4.057  0.1089 -0.3708  0.3145
  306MOL0     C41196   6.873   3.955   4.105  0.8049  0.7968  0.5310
  306MOL0     C41197   7.011   3.965   4.161  0.0187 -0.3036 -0.0598
  306MOL0     C41198   7.048   3.846   4.249  0.0655 -0.3301 -0.3821
  306MOL0     O41199   7.175   3.858   4.311  0.6496  0.3608 -0.4371
  306MOL0     C41200   7.284   3.824   4.232 -0.8378  0.3937 -0.1409
  306MOL0     C41201   7.313   3.688   4.201 -0.5727  1.0029 -0.0747
  306MOL0     C41202   7.441   3.654   4.132  0.2798 -0.7505  0.4723
  306MOL0     C41203   7.542   3.749   4.118 -0.2633 -0.3605  0.4995
  306MOL0     C41204   7.668   3.714   4.063 -0.3078  0.0418 -0.9636
  306MOL0     O41205   7.757   3.819   4.068 -0.7050  0.3880 -0.3028
  306MOL0     C41206   7.887   3.789   4.023 -0.4917 -0.1550  0.7067
  306MOL0     C41207   7.931   3.796   3.888  0.1126  0.4360 -0.1211
  306MOL0     C41208   8.056   3.765   3.856  0.3590  0.3675  0.6442
  306MOL0     C41209   8.158   3.740   3.948  0.0179  0.0771 -0.0259
  306MOL0     O41210   8.287   3.735   3.919 -0.1037 -0.4908  0.3928
  306MOL0     C41211   8.379   3.737   4.023  0.0386  0.5513 -0.2791
  306MOL0     C41212   8.529   3.748   3.994  0.3986 -0.1614  0.1757
  306MOL0     C41213   8.625   3.674   4.096 -0.5424 -0.7746  0.0699
  306MOL0     C41214   8.775   3.699   4.053 -0.2751  0.2138  0.2502
  306MOL0     C41215   8.882   3.678   4.162  0.4467  0.1111  0.2237
  306MOL0     C41216   8.876   3.532   4.218 -0.0572  0.5629 -1.2612
  306MOL0     C41217   8.958   3.522   4.354  0.2449 -0.7326  1.1300
  306MOL0     C41218   8.972   3.382   4.409  0.4139  0.4928 -1.2731
  306MOL0    Cl41219   9.057   3.280   4.293 -0.2518  0.3194 -0.3234
  306MOL0     C41220   8.108   3.728   4.083 -0.0586 -0.2116  0.0662
  306MOL0     C41221   7.979   3.749   4.115 -0.2358  0.0091 -0.7816
  306MOL0     O41222   7.683   3.606   4.003 -0.7193  0.8335 -0.4452
  306MOL0     C41223   7.503   3.877   4.156  0.1540  0.0344 -0.4665
  306MOL0     C41224   7.385   3.920   4.212 -0.3476 -0.3477  0.3249
  306MOL0     N41225   6.572   4.048   4.143 -0.8462  0.3950  1.1331
  306MOL0     N41226   6.453   4.065   4.096  0.2520 -0.5143  0.0067
  306MOL0     C41227   5.293   4.084   3.927 -0.0699 -0.1843 -0.2153
  306MOL0     C41228   5.178   4.166   3.935 -0.2774  0.2459  0.2863
  306MOL0     C41229   4.831   4.362   4.125  0.6521 -0.1050  0.2213
  306MOL0     C41230   4.868   4.474   4.202  1.3997 -0.0916  0.0000
  306MOL0     C41231   4.765   4.566   4.242  0.3106  0.2188 -0.4891
  306MOL0     C41232   4.634   4.529   4.229  0.2334 -0.2135  0.3749
  306MOL0     O41233   4.526   4.609   4.269  0.3115  0.2303 -0.3952
  306MOL0     C41234   4.552   4.744   4.314 -0.2335 -0.5526  0.4825
  306MOL0     C41235   4.581   4.845   4.199 -0.7451 -0.1166 -0.5699
  306MOL0     C41236   4.455   4.856   4.112 -0.1920  0.3533 -0.4052
  306MOL0     C41237   4.462   4.975   4.016 -0.2482  0.0033 -0.8908
  306MOL0     C41238   4.471   5.104   4.084 -0.2558  0.8559  0.2387
  306MOL0     C41239   4.488   5.214   4.131  0.3625  0.0218  0.3701
  306MOL0     C41240   4.594   4.424   4.153 -0.4527  0.2808  0.4573
  306MOL0     C41241   4.687   4.338   4.094  0.1883 -0.6733 -0.4899
  306MOL0     C41242   4.635   4.224   4.012  0.4045 -0.3702  0.0897
  306MOL0     H41243   5.261   4.306   4.227 -1.4197  1.0314 -1.1289
  306MOL0     H41244   5.438   4.155   4.217 -1.8077  1.7278  2.3537
  306MOL0     H41245   5.466   3.841   3.880 -2.8846  2.3882 -3.2214
  306MOL0     H41246   5.529   3.979   3.803  1.2711 -1.5687  0.3634
  306MOL0     H41247   5.694   3.792   3.837  0.4188  0.7648  0.5275
  306MOL0     H41248   5.711   3.835   4.003  0.5220 -5.9041 -1.4552
  306MOL0     H41249   5.778   4.075   3.925 -3.2596  0.8094 -0.5406
  306MOL0     H41250   5.769   4.025   3.757 -0.4233 -0.7086  0.1869
  306MOL0     H41251   5.941   3.898   3.973 -1.4473  1.2284  1.0246
  306MOL0     H41252   5.947   3.831   3.820  1.3210 -1.6493  2.9504
  306MOL0     H41253   6.018   4.104   3.773  2.4192  2.8315  1.3378
  306MOL0     H41254   6.051   4.100   3.949  0.2539 -1.5077  1.4957
  306MOL0     H41255   6.209   3.929   3.935  4.0540  1.8833  0.1788
  306MOL0     H41256   6.172   3.892   3.772 -0.1636  0.6612 -0.9402
  306MOL0     H41257   6.232   4.148   3.727 -0.2819 -2.9328 -2.2395
  306MOL0     H41258   6.369   4.041   3.758  0.8525  0.3349  1.0711
  306MOL0     H41259   6.395   4.259   3.847 -0.7123  0.8677  0.6729
  306MOL0     H41260   6.271   4.223   3.971  0.4186 -0.9520  0.4841
  306MOL0     H41261   6.641   4.189   3.854  0.1582  0.1160  0.6177
  306MOL0     H41262   6.841   4.106   3.952 -0.9638  1.3749  0.2284
  306MOL0     H41263   6.862   4.174   4.111  1.0102 -1.9563  2.0092
  306MOL0     H41264   6.800   3.914   4.177 -3.7260 -1.1842 -4.5140
  306MOL0     H41265   6.861   3.880   4.027 -1.0506 -0.8543  2.2760
  306MOL0     H41266   7.024   4.058   4.218 -0.0994 -0.7192  0.6475
  306MOL0     H41267   7.088   3.971   4.084  1.6359 -0.6546  1.4623
  306MOL0     H41268   7.050   3.757   4.186 -0.5329 -0.0809 -0.7589
  306MOL0     H41269   6.973   3.817   4.325 -0.1711 -1.1145 -0.9041
  306MOL0     H41270   7.243   3.608   4.222  1.8409 -0.9574  1.0423
  306MOL0     H41271   7.455   3.553   4.096  0.8453 -1.5968  2.8860
  306MOL0     H41272   7.859   3.813   3.810  0.8073 -1.4537 -1.2340
  306MOL0     H41273   8.078   3.761   3.750  0.8418 -1.4526  0.7781
  306MOL0     H41274   8.359   3.813   4.099  0.3760 -0.4232  0.8250
  306MOL0     H41275   8.366   3.645   4.082  2.2400 -0.3820 -1.1593
  306MOL0     H41276   8.546   3.725   3.888  2.8985 -0.0283  0.4778
  306MOL0     H41277   8.553   3.854   4.000  2.7540 -0.7035  4.4809
  306MOL0     H41278   8.614   3.724   4.193 -4.5264 -4.5195  1.8660
  306MOL0     H41279   8.592   3.570   4.096  0.0224 -0.9973 -1.8839
  306MOL0     H41280   8.794   3.802   4.022  2.8403 -0.9578 -2.3840
  306MOL0     H41281   8.799   3.651   3.957  2.6312  1.3264  0.3192
  306MOL0     H41282   8.875   3.754   4.240 -1.2764  0.5302 -0.3065
  306MOL0     H41283   8.978   3.683   4.109 -0.5101 -1.7483 -1.8602
  306MOL0     H41284   8.773   3.497   4.231  0.3818 -0.1224  0.8505
  306MOL0     H41285   8.924   3.469   4.143 -1.0874 -1.0754 -0.5842
  306MOL0     H41286   8.905   3.584   4.426  0.0844  1.0603 -0.4392
  306MOL0     H41287   9.051   3.578   4.337 -1.6130  2.3111  0.2137
  306MOL0     H41288   9.021   3.389   4.507  1.3969 -2.1734 -1.4860
  306MOL0     H41289   8.872   3.342   4.426  0.5002  0.9341  0.4964
  306MOL0     H41290   8.174   3.700   4.165 -1.9346 -0.4944  1.5641
  306MOL0     H41291   7.945   3.742   4.218 -3.1569  0.1910 -1.6434
  306MOL0     H41292   7.582   3.951   4.150 -0.3290  1.5327  5.4372
  306MOL0     H41293   7.371   4.025   4.233  2.9859  0.1832  0.5260
  306MOL0     H41294   5.304   4.021   3.839 -1.9671  1.0583 -1.4286
  306MOL0     H41295   5.106   4.162   3.854  1.0603 -0.0688 -0.9147
  306MOL0     H41296   4.971   4.484   4.234  0.8267  0.8253  1.7124
  306MOL0     H41297   4.792   4.652   4.302 -0.1043  0.1108 -0.1412
  306MOL0     H41298   4.633   4.762   4.385  1.9345  0.7964 -2.1233
  306MOL0     H41299   4.471   4.794   4.367 -0.5457  0.5007 -0.9148
  306MOL0     H41300   4.667   4.820   4.135  0.0840  2.2567 -0.4787
  306MOL0     H41301   4.603   4.943   4.243 -0.5278  0.3434 -1.6691
  306MOL0     H41302   4.365   4.861   4.175 -0.4610 -1.1587 -0.6397
  306MOL0     H41303   4.438   4.765   4.055  1.4273 -1.2813  1.5317
  306MOL0     H41304   4.550   4.964   3.952  1.0444  1.5820  0.5289
  306MOL0     H41305   4.377   4.977   3.946  3.0683  1.3205 -5.3441
  306MOL0     H41306   4.507   5.312   4.170  0.7470  0.0921  0.0105
  306MOL0     H41307   4.488   4.410   4.131 -0.3657  0.2044  0.0770
  306MOL0     H41308   4.663   4.127   4.055  2.5229  0.3478  0.4378
  306MOL0     H41309   4.527   4.222   3.994  0.4563  0.5504 -0.3415
  306MOL0     H41310   4.681   4.215   3.913  0.8437 -3.6020  0.4563
  307MOL0     O41311   5.632   3.119  10.422 -0.6926  0.3597  0.3175
  307MOL0     C41312   5.554   3.187  10.486  0.1503  0.6040 -0.0724
  307MOL0     O41313   5.585   3.255  10.602 -0.3508 -0.2798 -0.2187
  307MOL0     C41314   5.703   3.241  10.661 -0.2639  0.0241  0.4640
  307MOL0     C41315   5.802   3.139  10.644  0.7016  0.6188 -0.1809
  307MOL0     C41316   5.924   3.146  10.715  0.0258 -0.9492  0.8836
  307MOL0     C41317   5.946   3.242  10.819  0.5560 -0.5099  0.1048
  307MOL0     O41318   6.063   3.236  10.885  0.6124  0.0885  0.2356
  307MOL0     C41319   6.104   3.366  10.922  0.4292 -0.8887 -0.2974
  307MOL0     C41320   6.250   3.351  10.965 -0.1887 -0.4217 -0.6015
  307MOL0     C41321   6.256   3.291  11.115  0.9286 -0.4384 -0.1470
  307MOL0     C41322   6.403   3.266  11.151 -0.1353  0.2759  0.3256
  307MOL0     C41323   6.427   3.215  11.288 -0.4554 -0.1600  0.1966
  307MOL0     C41324   6.583   3.201  11.312  0.7573  0.2933 -0.5125
  307MOL0     C41325   6.610   3.106  11.434 -0.6745  0.3109  0.4595
  307MOL0     C41326   6.763   3.090  11.439  0.0985  0.4489 -0.5327
  307MOL0     N41327   6.824   3.218  11.484  0.3725  0.6816  0.0386
  307MOL0     C41328   6.876   3.315  11.403  0.0388 -0.0498  0.5820
  307MOL0     C41329   6.905   3.415  11.490 -0.2128  0.5145  0.8785
  307MOL0     C41330   6.951   3.556  11.475 -0.6726 -0.5876 -0.1519
  307MOL0     C41331   6.827   3.648  11.469 -0.4616  0.0915 -0.1752
  307MOL0     C41332   6.741   3.645  11.335 -0.2980  0.0746  0.0624
  307MOL0     C41333   6.624   3.751  11.336 -0.0695  0.0915 -0.1904
  307MOL0     O41334   6.564   3.738  11.206 -0.4319 -0.2142 -0.0101
  307MOL0     C41335   6.439   3.750  11.166 -0.2739  0.0182  0.2493
  307MOL0     C41336   6.417   3.739  11.029 -0.5977  0.2552  0.6261
  307MOL0     C41337   6.282   3.728  10.983  0.0335  0.4026  0.3394
  307MOL0     C41338   6.181   3.758  11.072  0.2425 -0.0631  0.2838
  307MOL0     C41339   6.043   3.754  11.017  0.3158  0.0287  0.9923
  307MOL0     O41340   6.032   3.774  10.880  0.3142  0.3482  0.1455
  307MOL0     C41341   5.906   3.758  10.818  0.5192  0.0454  0.7638
  307MOL0     C41342   5.795   3.841  10.853  0.5965 -0.6140 -0.0680
  307MOL0     C41343   5.671   3.845  10.793 -0.4550  0.1935 -0.1103
  307MOL0     C41344   5.646   3.761  10.685  0.2876 -0.2540  0.1728
  307MOL0     O41345   5.520   3.757  10.624 -0.5155 -0.1066  0.0446
  307MOL0     C41346   5.451   3.883  10.602  0.9421  0.6634  0.0184
  307MOL0     C41347   5.336   3.859  10.492  0.1708 -0.2597  0.0938
  307MOL0     C41348   5.210   3.786  10.552  0.1656 -0.7063  0.3612
  307MOL0     C41349   5.111   3.895  10.577 -0.0244 -0.1989 -0.6654
  307MOL0     C41350   4.997   3.829  10.660 -0.7436  0.0567 -0.3260
  307MOL0     C41351   4.876   3.914  10.641 -0.0912 -0.3749 -0.2559
  307MOL0     C41352   4.764   3.871  10.741 -0.7699 -0.2010  0.9558
  307MOL0     C41353   4.643   3.959  10.732  0.4083 -0.1750 -0.0258
  307MOL0    Cl41354   4.676   4.110  10.633  0.2545  0.0385  0.1805
  307MOL0     C41355   5.749   3.676  10.642  0.9240  0.3975 -0.1336
  307MOL0     C41356   5.876   3.675  10.704  0.6428 -0.7218 -0.2143
  307MOL0     O41357   5.947   3.754  11.093  0.0458  0.0653 -0.3241
  307MOL0     C41358   6.200   3.774  11.213  0.7506 -0.1382  0.3072
  307MOL0     C41359   6.336   3.759  11.254 -0.7530  0.3598  0.3128
  307MOL0     N41360   6.889   3.370  11.619 -0.3883 -0.3834 -1.0731
  307MOL0     N41361   6.838   3.255  11.612 -0.4157 -0.6523  0.9423
  307MOL0     C41362   5.856   3.350  10.828 -0.1893  0.2351  0.4128
  307MOL0     C41363   5.739   3.346  10.747 -0.1872 -0.3065  0.4387
  307MOL0     C41364   5.407   3.168  10.452 -0.0388 -0.3828 -0.3412
  307MOL0     C41365   5.368   3.042  10.411  0.7698  0.1546 -0.4112
  307MOL0     C41366   5.235   3.021  10.375  0.3298  0.0796 -0.3652
  307MOL0     C41367   5.141   3.121  10.374  0.4878 -0.5228  0.7279
  307MOL0     O41368   5.020   3.076  10.333 -0.2438 -1.1095 -0.1078
  307MOL0     C41369   4.916   3.173  10.357 -0.7337  0.3293 -0.6175
  307MOL0     C41370   4.785   3.121  10.302 -0.3180  0.6800 -0.7826
  307MOL0     C41371   4.716   3.033  10.412 -0.6639  0.0823 -0.2681
  307MOL0     C41372   4.581   2.973  10.356  0.3190  0.5298  0.7306
  307MOL0     C41373   4.499   3.071  10.286 -0.4644  0.6906  0.3080
  307MOL0     C41374   4.438   3.159  10.239 -0.7572 -0.3235 -0.3679
  307MOL0     C41375   5.184   3.260  10.396  0.4031 -0.3254 -0.4401
  307MOL0     C41376   5.315   3.285  10.440  0.4269 -0.5901 -0.8212
  307MOL0     C41377   5.363   3.427  10.481 -0.1951  0.0810  0.1985
  307MOL0     H41378   5.779   3.052  10.582 -2.6110  2.1691 -1.3226
  307MOL0     H41379   6.014   3.086  10.704  1.8725  2.1263 -4.7318
  307MOL0     H41380   6.107   3.437  10.840 -0.6897  1.4254  1.5467
  307MOL0     H41381   6.048   3.404  11.008  2.6371 -0.5578  1.0922
  307MOL0     H41382   6.292   3.450  10.987 -0.4030 -0.7580  1.5432
  307MOL0     H41383   6.303   3.290  10.891  0.2308  0.9761 -1.4965
  307MOL0     H41384   6.195   3.201  11.123 -0.9849  0.5156 -2.7827
  307MOL0     H41385   6.211   3.361  11.185 -1.1590 -2.1428  0.3274
  307MOL0     H41386   6.461   3.217  11.072 -0.4463 -0.2968  0.4523
  307MOL0     H41387   6.440   3.368  11.135 -2.0005  0.8487 -0.5928
  307MOL0     H41388   6.394   3.282  11.367  1.1294 -0.8301  1.4916
  307MOL0     H41389   6.383   3.115  11.291 -0.5142 -0.3405 -3.0478
  307MOL0     H41390   6.619   3.163  11.216 -0.3321  4.2997 -2.7188
  307MOL0     H41391   6.616   3.303  11.332 -2.3180  1.4707 -0.8176
  307MOL0     H41392   6.559   3.012  11.414 -1.3375  1.1661 -2.1951
  307MOL0     H41393   6.573   3.162  11.521  0.6418  0.0725  1.2113
  307MOL0     H41394   6.791   3.012  11.510  4.5614  1.5735 -0.7463
  307MOL0     H41395   6.792   3.073  11.335 -2.8312 -0.9717 -1.2411
  307MOL0     H41396   6.880   3.302  11.296 -1.0725 -3.3292  0.8011
  307MOL0     H41397   7.003   3.589  11.565 -0.2344 -3.6331  0.8296
  307MOL0     H41398   7.019   3.562  11.389  1.2173  0.7194  1.3403
  307MOL0     H41399   6.755   3.629  11.550 -0.3866 -0.8547 -0.3234
  307MOL0     H41400   6.858   3.752  11.482 -4.1912  1.2023  1.2615
  307MOL0     H41401   6.689   3.550  11.324 -0.3666  0.2255 -1.0041
  307MOL0     H41402   6.808   3.654  11.249  0.3274  0.3036  0.5657
  307MOL0     H41403   6.659   3.850  11.364  0.1068  0.3200 -1.1772
  307MOL0     H41404   6.558   3.729  11.420  2.0239  1.8081  2.0333
  307MOL0     H41405   6.501   3.725  10.963 -0.7103  0.4864  0.4320
  307MOL0     H41406   6.259   3.697  10.881 -1.4303 -1.9660  1.2903
  307MOL0     H41407   5.801   3.918  10.929 -2.2050 -0.9152  0.5651
  307MOL0     H41408   5.599   3.918  10.829 -0.6274  0.2502 -0.5618
  307MOL0     H41409   5.391   3.911  10.689 -2.2225 -2.3787 -0.9355
  307MOL0     H41410   5.514   3.961  10.559  2.2032  0.9239  2.1766
  307MOL0     H41411   5.304   3.957  10.456  0.7908 -0.0068  0.2046
  307MOL0     H41412   5.371   3.799  10.407 -0.1868  2.5590 -2.2061
  307MOL0     H41413   5.174   3.713  10.479 -0.2913 -0.7392  0.6192
  307MOL0     H41414   5.224   3.731  10.645 -2.9791 -0.2175  1.2373
  307MOL0     H41415   5.068   3.937  10.485 -0.7565  1.8083  0.5270
  307MOL0     H41416   5.165   3.974  10.629 -0.2036  1.1050 -2.3856
  307MOL0     H41417   5.038   3.821  10.761  1.1130 -1.8483 -1.1549
  307MOL0     H41418   4.973   3.731  10.620 -0.8294 -0.3222  0.6162
  307MOL0     H41419   4.899   4.019  10.659  0.1398 -0.3338 -0.7708
  307MOL0     H41420   4.834   3.915  10.540 -2.7003  0.6963  0.7433
  307MOL0     H41421   4.800   3.861  10.844  1.2629 -0.1135  0.3037
  307MOL0     H41422   4.725   3.772  10.713 -0.4120 -0.5580  1.6844
  307MOL0     H41423   4.557   3.908  10.690  1.5488 -0.8983 -1.5884
  307MOL0     H41424   4.615   3.994  10.832 -0.4240 -0.4148 -0.1747
  307MOL0     H41425   5.726   3.610  10.559  0.4552  1.8554 -1.2032
  307MOL0     H41426   5.957   3.609  10.673  3.2379  2.3444 -0.5299
  307MOL0     H41427   6.117   3.775  11.282  1.3242 -0.9847  1.0261
  307MOL0     H41428   6.341   3.758  11.362 -2.3133 -0.7754  0.4143
  307MOL0     H41429   5.874   3.444  10.879  0.9656 -0.0811  0.6029
  307MOL0     H41430   5.675   3.433  10.750 -1.3162 -0.7456 -4.2205
  307MOL0     H41431   5.441   2.962  10.411 -2.7747 -3.4623 -2.0744
  307MOL0     H41432   5.206   2.920  10.345  3.7731 -1.0870 -0.1487
  307MOL0     H41433   4.934   3.268  10.305  0.1438  1.7078  1.9761
  307MOL0     H41434   4.907   3.195  10.464  0.2311 -1.7869 -0.0578
  307MOL0     H41435   4.802   3.064  10.211  1.3852  0.5362 -0.4058
  307MOL0     H41436   4.714   3.202  10.284 -1.8953 -0.0514  1.6479
  307MOL0     H41437   4.692   3.095  10.499 -1.1286  0.5162 -0.6943
  307MOL0     H41438   4.776   2.947  10.443 -0.7103  0.0328 -0.3170
  307MOL0     H41439   4.607   2.888  10.292 -0.9771 -0.4143  1.4203
  307MOL0     H41440   4.535   2.938  10.450  0.4225  1.9958  1.3505
  307MOL0     H41441   4.400   3.252  10.204  0.5702  1.5300  2.7083
  307MOL0     H41442   5.114   3.343  10.391 -0.9555 -1.5248 -3.2218
  307MOL0     H41443   5.453   3.459  10.429 -0.4303  0.0251 -0.2500
  307MOL0     H41444   5.280   3.499  10.474 -0.9017 -0.3331  3.0107
  307MOL0     H41445   5.396   3.422  10.585  1.5882  1.0284 -0.2745
  308MOL0     O41446   7.782   7.583   7.132 -0.4200 -0.4173  0.0294
  308MOL0     C41447   7.771   7.511   7.228 -0.3937 -0.0056 -1.1892
  308MOL0     O41448   7.845   7.522   7.345 -0.1521 -0.8701 -0.1587
  308MOL0     C41449   7.931   7.623   7.359  0.5567 -0.6742 -0.5577
  308MOL0     C41450   7.912   7.770   7.350  0.6048  0.8185 -0.1155
  308MOL0     C41451   8.019   7.858   7.359 -0.8149  0.1444  0.6561
  308MOL0     C41452   8.150   7.809   7.371 -0.8010  0.0658  0.4586
  308MOL0     O41453   8.255   7.894   7.388 -0.4704 -0.3141  0.0775
  308MOL0     C41454   8.219   8.022   7.452  0.2235 -1.2211 -0.0067
  308MOL0     C41455   8.347   8.118   7.473  0.7413  0.6412 -0.1877
  308MOL0     C41456   8.434   8.064   7.594  0.3732  0.1473  0.1611
  308MOL0     C41457   8.570   8.139   7.588 -0.6262 -0.1130  0.4010
  308MOL0     C41458   8.669   8.104   7.698  0.1965  0.1065  0.9311
  308MOL0     C41459   8.816   8.125   7.654 -0.3278 -0.9186  0.1986
  308MOL0     C41460   8.915   8.089   7.759  0.1273 -0.1062  1.6880
  308MOL0     C41461   8.983   7.958   7.725  0.8683 -0.4032  0.9958
  308MOL0     N41462   9.071   7.915   7.831 -0.4741 -0.7693 -0.6349
  308MOL0     C41463   9.206   7.951   7.854 -0.1458  0.1340  1.2379
  308MOL0     C41464   9.235   7.904   7.970  0.1133  0.0832  0.4154
  308MOL0     C41465   9.378   7.909   8.031 -0.8323 -0.0874  0.7514
  308MOL0     C41466   9.420   8.052   8.068 -0.4959 -0.3104  0.0248
  308MOL0     C41467   9.552   8.039   8.158 -0.1503 -1.1549  0.5061
  308MOL0     C41468   9.604   8.180   8.198  0.2318  0.6626 -0.3079
  308MOL0     O41469   9.648   8.250   8.088 -0.2483 -0.2424  0.2664
  308MOL0     C41470   9.779   8.217   8.042 -0.4352  0.0057 -0.2031
  308MOL0     C41471   9.868   8.132   8.099 -0.2755  1.4731 -0.1746
  308MOL0     C41472   9.993   8.104   8.043  0.6080  0.6477 -0.0946
  308MOL0     C41473  10.034   8.167   7.928  0.4291  0.5329 -0.0938
  308MOL0     C41474  10.176   8.149   7.868  0.6913  0.4266 -0.2853
  308MOL0     O41475  10.239   8.028   7.876  0.6684  0.7697 -0.1902
  308MOL0     C41476  10.364   8.011   7.808  0.0332 -0.6484  0.7314
  308MOL0     C41477  10.488   8.003   7.875  0.0314 -0.0457 -0.1008
  308MOL0     C41478  10.607   7.986   7.810 -0.4554 -0.5690 -0.2343
  308MOL0     C41479  10.608   7.965   7.670  0.0184  0.2948  0.6336
  308MOL0     O41480  10.728   7.960   7.599  0.2885  0.5404  0.4056
  308MOL0     C41481  10.718   7.938   7.451  0.3898 -0.1142  0.2567
  308MOL0     C41482  10.855   7.916   7.403 -0.5153 -0.2807 -0.7100
  308MOL0     C41483  10.925   8.047   7.359 -0.2759  0.4194  0.4204
  308MOL0     C41484  11.057   8.008   7.288  0.3091  1.0601  0.1541
  308MOL0     C41485  11.132   8.130   7.245  0.3142  0.1342  0.3119
  308MOL0     C41486  11.270   8.086   7.191  0.0968 -0.1090 -0.0560
  308MOL0     C41487  11.350   8.208   7.143 -0.2357 -0.7167 -0.3033
  308MOL0     C41488  11.456   8.165   7.053 -0.7483 -0.0324 -0.3765
  308MOL0    Cl41489  11.564   8.299   7.056  0.2332  0.4802  0.4728
  308MOL0     C41490  10.481   7.967   7.603 -0.0223  0.3454  0.1426
  308MOL0     C41491  10.362   7.976   7.673  0.1584 -0.2717  0.0385
  308MOL0     O41492  10.215   8.248   7.802 -0.6626 -0.4973 -0.2216
  308MOL0     C41493   9.953   8.273   7.878  0.4224  0.3132 -1.3858
  308MOL0     C41494   9.829   8.295   7.937  0.1149  0.9626  0.5318
  308MOL0     N41495   9.129   7.836   8.022  0.0603  0.7351 -0.4890
  308MOL0     N41496   9.030   7.839   7.939  0.8482  0.7253  0.9447
  308MOL0     C41497   8.175   7.672   7.388 -0.4454  0.9474 -0.0690
  308MOL0     C41498   8.067   7.580   7.374 -0.0375  0.4999  0.0478
  308MOL0     C41499   7.669   7.402   7.211  0.1266  0.2806 -0.2091
  308MOL0     C41500   7.615   7.383   7.088 -0.7235  0.0773  0.3244
  308MOL0     C41501   7.552   7.271   7.046  0.0555  0.3186  0.6983
  308MOL0     C41502   7.508   7.185   7.149  0.4517 -0.6573 -0.1372
  308MOL0     O41503   7.443   7.064   7.128 -0.0064  0.1078  0.6921
  308MOL0     C41504   7.421   7.009   6.997 -0.7786  0.2958 -0.5343
  308MOL0     C41505   7.276   7.033   6.962  0.3094 -0.3826  0.7082
  308MOL0     C41506   7.182   6.967   7.054  0.3732 -0.2171  0.1459
  308MOL0     C41507   7.052   6.930   6.979 -0.1154  0.6193 -0.4033
  308MOL0     C41508   6.990   7.050   6.917 -0.0262  0.0556  0.3736
  308MOL0     C41509   6.948   7.148   6.860  0.6208 -0.1071 -0.2391
  308MOL0     C41510   7.527   7.224   7.284  0.4828  0.7491  0.1651
  308MOL0     C41511   7.624   7.318   7.319 -0.2784  0.0497  1.3076
  308MOL0     C41512   7.673   7.341   7.455 -0.4815 -0.2149  1.0575
  308MOL0     H41513   7.814   7.814   7.334  0.8240  0.5516 -2.6822
  308MOL0     H41514   7.996   7.964   7.357 -0.0191  0.3153 -0.5699
  308MOL0     H41515   8.154   8.077   7.383 -1.3928 -1.6228  1.1399
  308MOL0     H41516   8.167   8.025   7.548 -0.3545 -1.3825 -0.3071
  308MOL0     H41517   8.308   8.217   7.498  1.1168  1.1082 -1.4088
  308MOL0     H41518   8.408   8.125   7.383  0.4595  2.3678 -0.2792
  308MOL0     H41519   8.449   7.956   7.598  0.0827  0.0614 -0.8624
  308MOL0     H41520   8.372   8.094   7.680 -1.0710 -0.9147 -0.4631
  308MOL0     H41521   8.614   8.132   7.488  1.2730  1.0016  1.1107
  308MOL0     H41522   8.544   8.245   7.591 -1.4028 -0.2972  0.3230
  308MOL0     H41523   8.644   8.158   7.791 -1.7078 -0.5260  0.8354
  308MOL0     H41524   8.655   7.996   7.706  2.9215 -0.4256 -0.6298
  308MOL0     H41525   8.833   8.086   7.553  0.1155  1.8597 -0.8795
  308MOL0     H41526   8.816   8.234   7.647 -0.6315 -0.9718 -0.8503
  308MOL0     H41527   8.867   8.086   7.857 -1.7341  1.1308  0.8734
  308MOL0     H41528   8.988   8.170   7.764 -2.6732  2.6660  1.1500
  308MOL0     H41529   8.904   7.886   7.703  0.6677 -0.2639  1.2606
  308MOL0     H41530   9.041   7.965   7.632  0.4841  0.0502  0.7805
  308MOL0     H41531   9.276   7.999   7.787  0.0967 -1.8144  0.0158
  308MOL0     H41532   9.370   7.857   8.127  1.1266  2.3460  2.3663
  308MOL0     H41533   9.448   7.857   7.965  0.7139  0.1464  2.1376
  308MOL0     H41534   9.428   8.120   7.983 -4.4803  1.5522  0.9346
  308MOL0     H41535   9.335   8.092   8.124 -0.4404  0.9859 -0.7909
  308MOL0     H41536   9.631   7.977   8.115 -0.6065 -1.1131 -0.4265
  308MOL0     H41537   9.516   7.984   8.246 -1.7625 -1.5254 -0.3438
  308MOL0     H41538   9.681   8.178   8.275  1.7530 -2.6773 -1.7447
  308MOL0     H41539   9.529   8.246   8.244  2.8140  2.4793  1.5997
  308MOL0     H41540   9.845   8.078   8.191  1.6279 -0.8232 -0.9345
  308MOL0     H41541  10.050   8.018   8.077 -2.3750 -1.9096 -1.0540
  308MOL0     H41542  10.490   8.028   7.981 -0.4434  2.3681 -0.5987
  308MOL0     H41543  10.701   7.981   7.865  0.1689  1.2793 -1.0453
  308MOL0     H41544  10.662   7.847   7.429 -0.4351  0.1508  1.2073
  308MOL0     H41545  10.682   8.029   7.402  0.4615  1.1928  2.5020
  308MOL0     H41546  10.914   7.881   7.488  0.3964 -0.0143 -1.2313
  308MOL0     H41547  10.857   7.836   7.328 -1.1766 -1.5382  0.5455
  308MOL0     H41548  10.860   8.107   7.296 -1.0839 -0.6141  0.2462
  308MOL0     H41549  10.941   8.098   7.454  0.9557  3.3606 -1.2577
  308MOL0     H41550  11.023   7.947   7.204  1.4418  0.2276  0.2783
  308MOL0     H41551  11.126   7.959   7.358  0.2712  0.4842 -0.2086
  308MOL0     H41552  11.137   8.203   7.327  0.4627 -1.7744  2.0756
  308MOL0     H41553  11.073   8.179   7.167 -2.8642 -1.4492  1.5626
  308MOL0     H41554  11.323   8.039   7.274  0.1234 -1.2027 -0.6593
  308MOL0     H41555  11.263   8.013   7.109 -1.1375  2.3300 -2.2625
  308MOL0     H41556  11.382   8.268   7.229  2.8490  2.3557 -3.3243
  308MOL0     H41557  11.278   8.276   7.096  0.1704 -0.6776 -0.8697
  308MOL0     H41558  11.516   8.096   7.113 -0.5883  1.4800  1.3099
  308MOL0     H41559  11.425   8.139   6.952 -0.5070  4.0806 -1.7076
  308MOL0     H41560  10.470   7.942   7.498 -0.4717  1.3941 -0.0725
  308MOL0     H41561  10.269   7.963   7.619 -0.4093 -0.3774  1.0068
  308MOL0     H41562   9.977   8.348   7.803 -2.7542  3.6583  0.5955
  308MOL0     H41563   9.766   8.361   7.879 -0.0939 -1.6081 -2.4632
  308MOL0     H41564   8.276   7.634   7.401 -0.5624 -1.0220 -3.6277
  308MOL0     H41565   8.084   7.473   7.381 -0.9551  0.4436  2.6039
  308MOL0     H41566   7.630   7.449   7.003  3.2067 -2.1579 -0.9746
  308MOL0     H41567   7.527   7.264   6.941  0.3149  0.6595  0.6075
  308MOL0     H41568   7.457   6.906   7.004  0.2923  0.6805 -0.2860
  308MOL0     H41569   7.484   7.047   6.916 -1.4048  2.2488 -0.1741
  308MOL0     H41570   7.264   7.016   6.855  1.0512 -2.7051  0.9450
  308MOL0     H41571   7.263   7.140   6.981 -0.0558 -0.3865  0.4973
  308MOL0     H41572   7.157   7.038   7.133 -5.6071 -0.2151 -1.2735
  308MOL0     H41573   7.234   6.876   7.085  0.5056  0.1622  1.0483
  308MOL0     H41574   7.077   6.864   6.896 -0.7113 -2.2248  1.5529
  308MOL0     H41575   6.987   6.877   7.048 -1.2182  0.9461 -1.1706
  308MOL0     H41576   6.924   7.225   6.790 -1.2426 -1.1224 -0.8005
  308MOL0     H41577   7.487   7.154   7.356  0.2444  0.7587  0.0430
  308MOL0     H41578   7.782   7.333   7.455 -0.4630 -0.7940 -1.4358
  308MOL0     H41579   7.661   7.444   7.488  1.1468  0.9340 -1.5732
  308MOL0     H41580   7.625   7.276   7.529 -5.2301  0.1018 -1.3754
  309MOL0     O41581   4.382   0.030  11.000  0.0911 -0.0337  0.4054
  309MOL0     C41582   4.329   0.122  11.068  0.2125  0.4513 -0.3009
  309MOL0     O41583   4.381   0.177  11.184  0.9104  0.0733 -0.2845
  309MOL0     C41584   4.510   0.184  11.220 -0.7380  0.5929 -0.1696
  309MOL0     C41585   4.612   0.157  11.132  0.3992 -0.3147  0.9725
  309MOL0     C41586   4.741   0.183  11.167 -0.6659  0.3586 -0.0264
  309MOL0     C41587   4.770   0.222  11.303 -0.8204  0.3770 -0.1343
  309MOL0     O41588   4.897   0.253  11.360  0.2827  0.1629 -0.2705
  309MOL0     C41589   5.010   0.262  11.271  0.6219  0.0653 -0.2111
  309MOL0     C41590   5.129   0.287  11.358  0.1769 -0.8679  0.2135
  309MOL0     C41591   5.203   0.172  11.411 -0.1684  0.3411 -0.8459
  309MOL0     C41592   5.254   0.208  11.551  0.1863 -0.6805  0.3011
  309MOL0     C41593   5.339   0.109  11.629  0.0507 -0.0542  0.3957
  309MOL0     C41594   5.459   0.049  11.553 -0.1263 -0.9710  0.0276
  309MOL0     C41595   5.494  -0.086  11.608  0.1622 -0.0167  0.4600
  309MOL0     C41596   5.597  -0.156  11.519 -0.6427 -0.3879  0.9247
  309MOL0     N41597   5.734  -0.085  11.526 -0.0368  1.4252  0.3522
  309MOL0     C41598   5.818  -0.123  11.620  0.2158 -0.1064  0.3507
  309MOL0     C41599   5.920  -0.031  11.615 -0.7054  0.2389 -0.5108
  309MOL0     C41600   6.035  -0.001  11.712 -0.5911 -0.5466  0.6438
  309MOL0     C41601   6.013  -0.029  11.858 -0.6010 -0.4405  0.3925
  309MOL0     C41602   6.125   0.056  11.941 -0.3910  1.1361 -0.1069
  309MOL0     C41603   6.118   0.015  12.084  0.7485  0.0801  0.2593
  309MOL0     O41604   6.132  -0.126  12.109  0.1706 -0.1800 -0.2864
  309MOL0     C41605   6.262  -0.177  12.114  0.0791  0.0445  0.0438
  309MOL0     C41606   6.378  -0.102  12.106 -0.5234  0.5001  0.3967
  309MOL0     C41607   6.504  -0.167  12.099  0.0781  0.1534  0.3389
  309MOL0     C41608   6.514  -0.304  12.104 -0.8290 -0.3135 -0.2287
  309MOL0     C41609   6.652  -0.369  12.104  0.2860 -0.3512  0.3018
  309MOL0     O41610   6.663  -0.504  12.099  0.1433  0.3030  0.7033
  309MOL0     C41611   6.785  -0.562  12.080  0.2336 -0.9010 -0.2516
  309MOL0     C41612   6.795  -0.668  11.981 -0.6677 -0.1070  0.1761
  309MOL0     C41613   6.907  -0.752  11.965  0.2141  0.1307 -0.8004
  309MOL0     C41614   7.017  -0.721  12.043 -0.8589 -0.8996 -0.2795
  309MOL0     O41615   7.129  -0.797  12.024  0.4267 -0.2692  0.4239
  309MOL0     C41616   7.257  -0.768  12.077 -0.0677 -0.5219  0.3627
  309MOL0     C41617   7.364  -0.870  12.031  0.3612  0.4408  0.4432
  309MOL0     C41618   7.489  -0.852  12.113  0.0364 -0.5496 -0.3460
  309MOL0     C41619   7.566  -0.720  12.068  0.9519 -0.2996 -0.4966
  309MOL0     C41620   7.700  -0.693  12.138  0.3205  0.1427 -0.8992
  309MOL0     C41621   7.810  -0.808  12.130 -0.1917  0.0187 -0.3986
  309MOL0     C41622   7.937  -0.762  12.191 -0.0843 -0.2948  0.0388
  309MOL0     C41623   8.059  -0.798  12.118  0.1463  0.1835 -0.1050
  309MOL0    Cl41624   8.070  -0.713  11.971 -0.1381  0.0964  0.5285
  309MOL0     C41625   7.010  -0.626  12.146 -0.4069 -0.6979  0.1032
  309MOL0     C41626   6.903  -0.541  12.158  0.3667 -0.2356  0.3354
  309MOL0     O41627   6.750  -0.294  12.113  0.1061  0.1280 -0.1536
  309MOL0     C41628   6.397  -0.379  12.124  0.1757  0.7772  0.3237
  309MOL0     C41629   6.268  -0.316  12.127 -0.7769  0.4023  1.6191
  309MOL0     N41630   5.891   0.052  11.504 -0.2160 -0.7129 -0.2282
  309MOL0     N41631   5.779   0.019  11.448  0.2876  0.0074 -0.4714
  309MOL0     C41632   4.667   0.242  11.388  0.7595 -0.5752  0.3449
  309MOL0     C41633   4.541   0.237  11.341 -0.7093  0.7352 -0.6560
  309MOL0     C41634   4.195   0.188  11.028  0.3796  1.4236  1.5491
  309MOL0     C41635   4.119   0.254  11.129 -0.5503  0.2581 -0.1210
  309MOL0     C41636   4.004   0.314  11.095 -0.5171 -0.0580  0.3485
  309MOL0     C41637   3.952   0.311  10.962 -0.0247 -1.2377 -0.1735
  309MOL0     O41638   3.837   0.372  10.925 -0.1398 -0.5669 -0.0777
  309MOL0     C41639   3.745   0.444  11.011  0.0417  0.2023 -0.3996
  309MOL0     C41640   3.634   0.518  10.940  0.4225  0.3452  0.0692
  309MOL0     C41641   3.694   0.656  10.873  0.2099  0.3721 -0.6117
  309MOL0     C41642   3.617   0.698  10.749  0.6918 -0.8677  0.4264
  309MOL0     C41643   3.509   0.782  10.803  0.5590 -0.0216  0.0823
  309MOL0     C41644   3.426   0.862  10.852  0.0798  0.7721 -0.0672
  309MOL0     C41645   4.031   0.251  10.862 -0.9569  0.9549  0.3220
  309MOL0     C41646   4.154   0.198  10.893 -0.1638  0.6921  0.6482
  309MOL0     C41647   4.230   0.137  10.772 -0.1578  0.0498  0.0254
  309MOL0     H41648   4.597   0.134  11.027  0.7763 -1.6284  1.1898
  309MOL0     H41649   4.821   0.166  11.096 -1.2500 -0.8497 -0.4172
  309MOL0     H41650   5.039   0.175  11.211  2.4138 -0.2936  1.0924
  309MOL0     H41651   4.993   0.342  11.199  1.2100 -0.1112 -0.5553
  309MOL0     H41652   5.103   0.361  11.433  2.4227 -0.4674  0.6621
  309MOL0     H41653   5.201   0.343  11.298  1.1689  0.4961  2.5515
  309MOL0     H41654   5.285   0.148  11.344 -0.1636 -1.4139 -0.2596
  309MOL0     H41655   5.133   0.088  11.403 -0.5320  0.6866 -1.3377
  309MOL0     H41656   5.295   0.304  11.520 -0.7267 -0.7940 -1.4158
  309MOL0     H41657   5.174   0.226  11.624  1.3996  0.1576  1.4535
  309MOL0     H41658   5.380   0.163  11.714 -2.1288  1.2401  0.6841
  309MOL0     H41659   5.272   0.032  11.668 -0.9834 -0.7952 -2.5635
  309MOL0     H41660   5.434   0.023  11.449  0.4601 -1.7391  0.0725
  309MOL0     H41661   5.537   0.125  11.546 -0.9904 -0.0318  0.2890
  309MOL0     H41662   5.404  -0.149  11.603  0.0860 -0.1743  2.5815
  309MOL0     H41663   5.523  -0.070  11.713  0.4067  0.4082  0.3285
  309MOL0     H41664   5.606  -0.264  11.536  3.0450 -0.6498 -1.5048
  309MOL0     H41665   5.554  -0.151  11.419  0.4225 -4.5232  0.0592
  309MOL0     H41666   5.796  -0.195  11.698  1.8720 -0.7900  0.2290
  309MOL0     H41667   6.119  -0.065  11.683 -0.2956 -0.1741  0.6841
  309MOL0     H41668   6.063   0.103  11.694  1.1165 -1.2600 -1.1764
  309MOL0     H41669   5.917   0.012  11.894 -1.4697 -4.1306  2.8091
  309MOL0     H41670   6.020  -0.137  11.873  3.5020 -0.5062 -0.9205
  309MOL0     H41671   6.118   0.165  11.930 -0.2029  1.0743 -0.9612
  309MOL0     H41672   6.226   0.031  11.905  0.9147  2.9423  2.0159
  309MOL0     H41673   6.019   0.045  12.121  0.3310 -1.7871  0.7734
  309MOL0     H41674   6.186   0.070  12.150 -0.9455  2.8577 -0.1326
  309MOL0     H41675   6.381   0.004  12.083  0.8310  0.4164  0.1118
  309MOL0     H41676   6.586  -0.098  12.081  0.3273  0.7949  3.3874
  309MOL0     H41677   6.714  -0.678  11.909  1.8056 -0.0991 -2.8070
  309MOL0     H41678   6.913  -0.826  11.886  1.9166  0.5002 -1.0625
  309MOL0     H41679   7.295  -0.672  12.042  1.0759 -0.7645  0.8885
  309MOL0     H41680   7.251  -0.762  12.186 -0.9097 -1.6415  0.4011
  309MOL0     H41681   7.343  -0.976  12.042  0.4809  0.0064 -2.6407
  309MOL0     H41682   7.379  -0.848  11.925 -3.4199 -1.1014 -0.5720
  309MOL0     H41683   7.472  -0.832  12.220 -1.8199  4.5914 -1.3146
  309MOL0     H41684   7.558  -0.936  12.104 -0.2904 -0.6598 -2.1900
  309MOL0     H41685   7.513  -0.625  12.082  1.7866 -0.2243  2.8607
  309MOL0     H41686   7.585  -0.733  11.961  0.0774  3.3944 -1.2371
  309MOL0     H41687   7.683  -0.671  12.244 -1.3462  0.1265 -1.1470
  309MOL0     H41688   7.745  -0.605  12.092  1.2372 -0.2384 -0.7704
  309MOL0     H41689   7.769  -0.897  12.178  2.8880 -1.2264  0.1629
  309MOL0     H41690   7.832  -0.830  12.025 -2.8956  0.7476 -1.2111
  309MOL0     H41691   7.973  -0.818  12.278  0.9474  0.3260  0.0262
  309MOL0     H41692   7.934  -0.654  12.209  3.2322  0.2939 -2.2404
  309MOL0     H41693   8.143  -0.769  12.182 -0.9112  1.0156  0.9395
  309MOL0     H41694   8.076  -0.906  12.114  0.3708  0.0175  3.0288
  309MOL0     H41695   7.086  -0.620  12.224 -1.5598  1.1280  1.1663
  309MOL0     H41696   6.901  -0.463  12.233  0.4691 -0.3432  0.4496
  309MOL0     H41697   6.400  -0.487  12.125  1.4530  0.6198 -3.2853
  309MOL0     H41698   6.174  -0.371  12.137 -0.4070 -0.4853  0.4100
  309MOL0     H41699   4.656   0.282  11.488 -2.7781 -0.5891  0.0756
  309MOL0     H41700   4.470   0.260  11.421  1.2847  0.3507  1.3415
  309MOL0     H41701   4.152   0.250  11.232 -0.4493 -2.3601 -0.1667
  309MOL0     H41702   3.954   0.366  11.176  2.1574 -0.6232  2.4919
  309MOL0     H41703   3.795   0.515  11.076  2.0672  0.6427 -2.3129
  309MOL0     H41704   3.689   0.384  11.083 -1.4803  2.4165  0.3659
  309MOL0     H41705   3.559   0.544  11.014  0.9761 -0.9786  1.1400
  309MOL0     H41706   3.601   0.449  10.861  1.5291 -0.1948  0.0560
  309MOL0     H41707   3.803   0.650  10.861  0.5370 -0.1532  1.9714
  309MOL0     H41708   3.693   0.729  10.955  1.1267 -1.4961  1.1631
  309MOL0     H41709   3.673   0.764  10.682  0.0650  0.3949  1.0831
  309MOL0     H41710   3.578   0.611  10.696  1.5355 -0.3366 -1.1254
  309MOL0     H41711   3.354   0.929  10.896  1.8166  1.7663  1.3675
  309MOL0     H41712   3.991   0.249  10.761  1.0218  1.0413 -0.5086
  309MOL0     H41713   4.338   0.152  10.781 -0.3666  1.8359  0.0188
  309MOL0     H41714   4.227   0.028  10.772  1.5969 -0.0814 -2.6001
  309MOL0     H41715   4.185   0.176  10.680 -0.2563  0.4076  0.2242
  310MOL0     O41716   5.579  10.449   1.457  0.0096 -0.2611 -1.3928
  310MOL0     C41717   5.542  10.452   1.344  0.1657 -0.6466 -0.2258
  310MOL0     O41718   5.626  10.454   1.237 -0.2758 -0.3280 -0.0380
  310MOL0     C41719   5.757  10.447   1.264  0.1022 -0.0110 -0.1958
  310MOL0     C41720   5.822  10.324   1.303  0.4078 -0.4606 -0.6345
  310MOL0     C41721   5.961  10.331   1.316  0.6084 -1.1943  0.0930
  310MOL0     C41722   6.040  10.451   1.310  0.0077 -0.4405 -0.0419
  310MOL0     O41723   6.172  10.436   1.316  0.3694  0.3702  0.1726
  310MOL0     C41724   6.248  10.560   1.326 -1.1029  0.0612  0.1017
  310MOL0     C41725   6.395  10.507   1.339  0.1845 -0.0274 -0.0431
  310MOL0     C41726   6.499  10.618   1.342  0.1417  0.3715 -0.6764
  310MOL0     C41727   6.639  10.556   1.349  0.8571  0.5631 -1.0886
  310MOL0     C41728   6.739  10.658   1.307  0.8019 -0.3566  0.2545
  310MOL0     C41729   6.881  10.607   1.317 -0.1536  0.0691 -0.5981
  310MOL0     C41730   6.967  10.728   1.281  0.2157  0.2394 -0.0754
  310MOL0     C41731   7.110  10.694   1.286 -0.1708 -0.3427  0.7595
  310MOL0     N41732   7.196  10.803   1.245  0.4104  0.3551  0.1454
  310MOL0     C41733   7.232  10.918   1.318 -0.0889 -0.7423  0.6791
  310MOL0     C41734   7.345  10.956   1.253 -0.2559 -0.2059  0.5868
  310MOL0     C41735   7.449  11.048   1.322  0.0526  0.2441  0.3207
  310MOL0     C41736   7.570  10.968   1.366  0.5720  0.0112 -0.0049
  310MOL0     C41737   7.539  10.879   1.492 -1.0959  0.3274 -0.0860
  310MOL0     C41738   7.671  10.817   1.543 -0.5317 -0.5299  0.4962
  310MOL0     O41739   7.758  10.925   1.582  0.5219 -0.0469  0.2383
  310MOL0     C41740   7.881  10.904   1.633  0.1658 -0.0784  0.0563
  310MOL0     C41741   7.949  11.010   1.696  0.5372 -0.4642  0.3355
  310MOL0     C41742   8.073  10.993   1.755 -0.2298 -0.0276  0.9775
  310MOL0     C41743   8.126  10.862   1.769 -0.4420 -0.1276  0.4646
  310MOL0     C41744   8.247  10.835   1.853  0.6808 -0.4051  1.3400
  310MOL0     O41745   8.297  10.706   1.847  0.4106  0.3576  0.1140
  310MOL0     C41746   8.419  10.686   1.912  0.8905 -0.7290 -0.2518
  310MOL0     C41747   8.408  10.620   2.030  0.3533  0.5977 -0.1278
  310MOL0     C41748   8.526  10.572   2.091 -0.9378  0.6453 -0.9089
  310MOL0     C41749   8.647  10.601   2.036 -0.5674  0.2532  0.4593
  310MOL0     O41750   8.756  10.555   2.106  0.3724  0.0187 -0.3688
  310MOL0     C41751   8.843  10.658   2.143  0.4996 -0.2568  0.3488
  310MOL0     C41752   8.952  10.612   2.243  0.4171 -0.4012 -0.2704
  310MOL0     C41753   9.039  10.507   2.179 -0.2350  0.7257  0.7895
  310MOL0     C41754   9.117  10.428   2.283  0.4468  0.4006  0.3361
  310MOL0     C41755   9.270  10.404   2.246 -0.0074 -0.0596 -0.6387
  310MOL0     C41756   9.356  10.523   2.254 -0.2879 -0.4003 -0.4021
  310MOL0     C41757   9.410  10.556   2.392 -0.2905  0.3006  0.2101
  310MOL0     C41758   9.538  10.638   2.382 -0.6107 -0.3132  0.0737
  310MOL0    Cl41759   9.676  10.540   2.314 -0.1949  0.4811  0.0850
  310MOL0     C41760   8.655  10.678   1.918  0.5692  0.6829  0.4071
  310MOL0     C41761   8.542  10.723   1.853  0.8838 -0.4257  1.3749
  310MOL0     O41762   8.304  10.937   1.889 -0.1938 -0.1795 -1.0635
  310MOL0     C41763   8.071  10.762   1.692  0.3813  0.5026  0.8994
  310MOL0     C41764   7.944  10.774   1.628 -0.5491  0.1184  0.0262
  310MOL0     N41765   7.371  10.884   1.138  0.3105  0.3385  0.1516
  310MOL0     N41766   7.278  10.794   1.133 -0.5923 -0.2785 -0.1496
  310MOL0     C41767   5.973  10.568   1.287 -0.0816  0.2730  0.3377
  310MOL0     C41768   5.830  10.566   1.257  0.3070 -0.4816 -0.5038
  310MOL0     C41769   5.394  10.433   1.321 -0.9337  0.1589  0.4784
  310MOL0     C41770   5.341  10.494   1.200 -0.3642  0.3637  0.5690
  310MOL0     C41771   5.201  10.499   1.167 -0.5111  0.2953  0.2470
  310MOL0     C41772   5.117  10.437   1.254 -0.1722  0.2075 -0.4382
  310MOL0     O41773   4.987  10.425   1.218 -0.1607 -1.0557 -0.1890
  310MOL0     C41774   4.891  10.337   1.284  0.2414 -0.6809  0.4743
  310MOL0     C41775   4.749  10.339   1.232 -0.6485  0.0006 -0.5811
  310MOL0     C41776   4.684  10.470   1.245  0.1328 -0.6900 -0.4526
  310MOL0     C41777   4.536  10.474   1.221 -0.3134 -0.3190  0.8578
  310MOL0     C41778   4.501  10.428   1.084  0.2652 -0.0928  0.0561
  310MOL0     C41779   4.477  10.396   0.966  0.3890  0.3565 -0.5324
  310MOL0     C41780   5.171  10.368   1.371 -0.0468 -0.8300 -0.0588
  310MOL0     C41781   5.307  10.365   1.405  0.1097  0.8486 -0.7151
  310MOL0     C41782   5.341  10.286   1.534 -0.1198  0.5633 -0.2872
  310MOL0     H41783   5.769  10.231   1.323  3.5945 -2.1644  0.6547
  310MOL0     H41784   6.015  10.237   1.329  5.5104  1.2768 -0.3054
  310MOL0     H41785   6.241  10.627   1.239 -1.3167  1.9105  1.4846
  310MOL0     H41786   6.223  10.623   1.412  2.1772  2.6644 -0.6457
  310MOL0     H41787   6.408  10.444   1.250 -0.3981 -0.4708  0.1832
  310MOL0     H41788   6.406  10.461   1.437  1.1959  1.1192  0.4108
  310MOL0     H41789   6.489  10.675   1.435  1.8848 -2.9949  1.7760
  310MOL0     H41790   6.485  10.674   1.249 -0.9360 -2.3152 -2.2461
  310MOL0     H41791   6.654  10.510   1.447 -2.6810  0.8124 -0.2887
  310MOL0     H41792   6.647  10.465   1.290  1.4907 -0.2577  0.2272
  310MOL0     H41793   6.719  10.687   1.204  0.1475  1.7286  0.9053
  310MOL0     H41794   6.720  10.750   1.364 -0.6382 -0.0317 -0.6984
  310MOL0     H41795   6.924  10.597   1.418 -0.6380 -1.9348 -0.5377
  310MOL0     H41796   6.895  10.519   1.253  1.7377  0.6368 -1.0344
  310MOL0     H41797   6.944  10.809   1.351  1.3086 -0.0320  0.6164
  310MOL0     H41798   6.950  10.761   1.178  0.7050  2.8802  0.6267
  310MOL0     H41799   7.121  10.658   1.388  0.1174 -0.8492  0.5568
  310MOL0     H41800   7.132  10.613   1.215  0.7423  1.6167 -1.3315
  310MOL0     H41801   7.214  10.943   1.422 -1.0724  0.7559  0.1778
  310MOL0     H41802   7.481  11.123   1.249  1.1060  0.5472  1.0773
  310MOL0     H41803   7.402  11.106   1.402  0.8193  1.1005  0.1629
  310MOL0     H41804   7.598  10.895   1.290 -1.1998 -2.4583  1.5709
  310MOL0     H41805   7.657  11.033   1.376  1.3374 -1.1086  0.9433
  310MOL0     H41806   7.461  10.804   1.476  0.1504 -0.8941 -0.6479
  310MOL0     H41807   7.500  10.950   1.566  0.2165  1.1095 -0.1106
  310MOL0     H41808   7.716  10.762   1.460  1.3055  1.2088  0.2443
  310MOL0     H41809   7.652  10.755   1.630  1.5860 -0.9896  0.6765
  310MOL0     H41810   7.905  11.109   1.689 -0.6468 -0.9879 -0.1285
  310MOL0     H41811   8.114  11.082   1.802 -0.9235  0.6656  0.3060
  310MOL0     H41812   8.320  10.582   2.080  0.0127  0.4083 -0.8619
  310MOL0     H41813   8.519  10.513   2.182 -0.7583  4.5180  1.8928
  310MOL0     H41814   8.892  10.713   2.062 -0.2407  0.3601  0.3156
  310MOL0     H41815   8.784  10.735   2.193  0.5423  1.4874 -2.1599
  310MOL0     H41816   8.997  10.703   2.284 -3.5772  1.6342  0.1611
  310MOL0     H41817   8.893  10.565   2.323  1.1476 -2.1089 -0.7039
  310MOL0     H41818   8.976  10.432   2.130 -0.3661  1.4393 -0.1529
  310MOL0     H41819   9.103  10.549   2.101  1.6724 -3.0268  0.1304
  310MOL0     H41820   9.079  10.329   2.307  0.1061  0.3346 -0.4414
  310MOL0     H41821   9.120  10.497   2.369 -3.8508 -1.7875  2.5991
  310MOL0     H41822   9.270  10.371   2.141 -0.6380  1.3631 -1.1139
  310MOL0     H41823   9.303  10.326   2.316  0.3993  0.9740  0.3413
  310MOL0     H41824   9.442  10.492   2.193 -0.3700 -0.7639 -0.3374
  310MOL0     H41825   9.303  10.610   2.214 -1.4373 -0.7425  0.3208
  310MOL0     H41826   9.443  10.466   2.445 -0.2042  2.2730  3.7741
  310MOL0     H41827   9.335  10.604   2.455  0.6023  1.5971  0.3317
  310MOL0     H41828   9.514  10.733   2.333 -3.8065 -0.8456  0.3656
  310MOL0     H41829   9.574  10.662   2.482 -0.0494 -0.2277 -0.1415
  310MOL0     H41830   8.749  10.685   1.865  0.8585 -0.0693  0.8157
  310MOL0     H41831   8.544  10.779   1.760  2.8841 -0.8741  1.0950
  310MOL0     H41832   8.121  10.668   1.670  0.3962  0.8321 -0.5459
  310MOL0     H41833   7.902  10.685   1.581  0.2333 -1.0931  1.4991
  310MOL0     H41834   6.015  10.667   1.303 -1.0907  1.0229 -1.4262
  310MOL0     H41835   5.775  10.658   1.241  0.6599 -0.2043 -0.1742
  310MOL0     H41836   5.404  10.557   1.139  0.3543  1.2976  2.2162
  310MOL0     H41837   5.167  10.533   1.070 -0.1633 -1.7938 -0.6561
  310MOL0     H41838   4.893  10.359   1.391  0.1622  0.4218  0.2557
  310MOL0     H41839   4.926  10.233   1.286 -1.0284 -1.1269  0.5204
  310MOL0     H41840   4.690  10.274   1.297  2.7990 -2.8667  0.0218
  310MOL0     H41841   4.737  10.305   1.129 -2.7272  0.2945 -0.4616
  310MOL0     H41842   4.742  10.529   1.173 -0.1550  0.7905  0.4913
  310MOL0     H41843   4.707  10.518   1.340  1.0413 -0.2014 -0.9056
  310MOL0     H41844   4.482  10.413   1.294  0.0953 -3.7113 -1.4031
  310MOL0     H41845   4.512  10.580   1.225  0.2371 -0.1317 -0.2255
  310MOL0     H41846   4.450  10.388   0.863  3.0040 -3.9604 -1.0934
  310MOL0     H41847   5.100  10.314   1.432 -2.1469  0.6504 -1.0917
  310MOL0     H41848   5.264  10.209   1.547  1.5410 -2.6923 -5.8634
  310MOL0     H41849   5.430  10.228   1.506 -0.1173  1.5655 -2.6491
  310MOL0     H41850   5.350  10.361   1.613  2.7886 -0.5423  0.5610
  311MOL0     O41851  10.884   2.040   8.801  0.0573  0.2525 -0.8057
  311MOL0     C41852  11.006   2.044   8.823  0.2850 -0.2261 -0.0176
  311MOL0     O41853  11.069   2.148   8.883 -0.0914  0.1873  0.2964
  311MOL0     C41854  10.992   2.262   8.902  0.3886 -0.1659  0.2693
  311MOL0     C41855  10.918   2.335   8.796 -0.3644 -0.4340  0.7493
  311MOL0     C41856  10.846   2.450   8.821  0.2638  0.5058 -0.0981
  311MOL0     C41857  10.843   2.494   8.951  0.3521 -0.4411 -0.4842
  311MOL0     O41858  10.768   2.607   8.977  0.8096  0.5081  0.9853
  311MOL0     C41859  10.785   2.683   9.100 -0.5278 -0.2566 -0.0710
  311MOL0     C41860  10.746   2.834   9.076 -0.0339  0.2883  0.0019
  311MOL0     C41861  10.845   2.899   8.978 -0.5669 -0.2128 -0.5905
  311MOL0     C41862  10.818   3.045   8.948  0.9154  0.5935  0.0299
  311MOL0     C41863  10.883   3.098   8.815 -0.5566 -0.3642  0.2502
  311MOL0     C41864  10.830   3.233   8.778  0.5807  0.2247 -0.5486
  311MOL0     C41865  10.903   3.290   8.659  0.5552  0.4296  0.3100
  311MOL0     C41866  10.870   3.228   8.526  0.1778  0.0840 -0.0102
  311MOL0     N41867  10.950   3.281   8.419  0.4993 -0.2572 -0.4790
  311MOL0     C41868  11.091   3.285   8.409 -0.4086  1.5052  0.0791
  311MOL0     C41869  11.117   3.344   8.290 -0.2607  0.4920 -0.0826
  311MOL0     C41870  11.257   3.394   8.249  1.4141  0.0711  0.1453
  311MOL0     C41871  11.344   3.294   8.170 -0.3739  0.2211 -0.4088
  311MOL0     C41872  11.301   3.282   8.024 -0.2384  0.2702 -0.0330
  311MOL0     C41873  11.330   3.410   7.944  0.6477  0.6278 -0.6876
  311MOL0     O41874  11.393   3.383   7.811  0.2591 -0.0162 -0.2266
  311MOL0     C41875  11.523   3.345   7.789 -0.9042 -0.4028 -0.2741
  311MOL0     C41876  11.615   3.335   7.881 -0.4022 -0.0192 -0.6080
  311MOL0     C41877  11.746   3.290   7.852 -0.1446 -0.8798 -0.3078
  311MOL0     C41878  11.779   3.270   7.716  0.0118  0.7559  0.4490
  311MOL0     C41879  11.915   3.222   7.675 -1.6445  0.7239  0.1367
  311MOL0     O41880  12.002   3.167   7.765 -0.3239 -1.0650  0.5367
  311MOL0     C41881  12.139   3.150   7.732 -0.3038  0.0541 -0.1864
  311MOL0     C41882  12.213   3.269   7.706  0.5860  0.1398 -0.0205
  311MOL0     C41883  12.358   3.274   7.689  0.2050 -0.2757  0.1926
  311MOL0     C41884  12.429   3.155   7.685  0.5112  1.0341 -0.0825
  311MOL0     O41885  12.564   3.149   7.668  0.5662 -0.3391  1.3619
  311MOL0     C41886  12.643   3.085   7.776 -0.4248 -0.2985 -0.0774
  311MOL0     C41887  12.741   3.185   7.836 -0.6582 -0.2037  0.4101
  311MOL0     C41888  12.662   3.310   7.892 -1.0673  0.5524 -0.5618
  311MOL0     C41889  12.770   3.419   7.931 -1.0008 -0.6687  0.0733
  311MOL0     C41890  12.759   3.552   7.857 -0.0978  0.3673  0.2091
  311MOL0     C41891  12.664   3.649   7.920  0.1634 -0.4762  0.4240
  311MOL0     C41892  12.659   3.783   7.835 -0.5479  0.9576 -0.9205
  311MOL0     C41893  12.538   3.869   7.889  0.7348 -0.4987 -0.0782
  311MOL0    Cl41894  12.376   3.783   7.889  0.0979  0.1423 -0.5828
  311MOL0     C41895  12.352   3.040   7.706 -1.0210 -0.1882 -0.3232
  311MOL0     C41896  12.212   3.033   7.724  0.4815 -0.0290  0.1191
  311MOL0     O41897  11.947   3.241   7.559 -1.0142 -0.0273 -0.3723
  311MOL0     C41898  11.681   3.276   7.617 -0.2695 -0.1674 -0.1791
  311MOL0     C41899  11.555   3.307   7.655 -0.7274 -0.0315 -0.4095
  311MOL0     N41900  10.991   3.354   8.220 -0.6762 -0.2389 -0.6945
  311MOL0     N41901  10.897   3.327   8.301  0.1369  0.9499 -0.0069
  311MOL0     C41902  10.915   2.432   9.057 -0.2517 -0.5711  1.6082
  311MOL0     C41903  10.987   2.318   9.032  0.1144  0.0292 -0.8280
  311MOL0     C41904  11.080   1.924   8.779  0.1671 -0.0843  0.4254
  311MOL0     C41905  11.019   1.829   8.703  0.1176 -0.1416  0.7488
  311MOL0     C41906  11.078   1.712   8.654  1.0237  0.3893 -0.1324
  311MOL0     C41907  11.204   1.674   8.698  0.3010  0.2798  0.2710
  311MOL0     O41908  11.252   1.551   8.660 -0.3150  0.3298 -0.2687
  311MOL0     C41909  11.353   1.495   8.743  0.5000  0.5354  0.2999
  311MOL0     C41910  11.352   1.345   8.713 -0.4440  0.7320  0.3382
  311MOL0     C41911  11.479   1.285   8.786 -0.0609 -0.4466 -1.1491
  311MOL0     C41912  11.585   1.210   8.699 -0.4464  0.0058 -0.6304
  311MOL0     C41913  11.636   1.295   8.593 -0.0979  0.1983  0.5817
  311MOL0     C41914  11.676   1.373   8.507 -0.9596  0.4358  0.4651
  311MOL0     C41915  11.264   1.762   8.787 -0.4439  0.0365 -0.5940
  311MOL0     C41916  11.207   1.886   8.829 -0.4651  0.0212  0.1040
  311MOL0     C41917  11.293   1.963   8.930 -0.6419 -0.9275 -0.2541
  311MOL0     H41918  10.921   2.289   8.697  0.2636 -3.2490  1.9751
  311MOL0     H41919  10.790   2.503   8.745  0.8332 -1.8625 -2.3352
  311MOL0     H41920  10.729   2.632   9.178 -0.0906 -1.3980 -0.4864
  311MOL0     H41921  10.891   2.682   9.130 -0.6326 -1.1036  0.2954
  311MOL0     H41922  10.735   2.890   9.170  0.0221 -0.5091  0.4914
  311MOL0     H41923  10.648   2.839   9.027  0.2487  0.5564 -0.5449
  311MOL0     H41924  10.862   2.838   8.889 -0.9161  1.1164 -1.6074
  311MOL0     H41925  10.946   2.905   9.020 -0.2192 -2.5923 -0.9701
  311MOL0     H41926  10.710   3.058   8.940  1.1125  2.0660 -0.7071
  311MOL0     H41927  10.849   3.103   9.036 -1.4451  1.6975  0.2052
  311MOL0     H41928  10.992   3.101   8.828 -0.4948 -3.7131  1.4206
  311MOL0     H41929  10.865   3.023   8.738  1.4889 -0.0085 -0.6450
  311MOL0     H41930  10.722   3.222   8.763  0.6483  0.0307 -0.9109
  311MOL0     H41931  10.847   3.297   8.865 -0.7434 -1.4549  1.0308
  311MOL0     H41932  11.011   3.288   8.677  1.0205  2.4056 -1.7212
  311MOL0     H41933  10.870   3.394   8.655  0.1554  0.3816  1.7932
  311MOL0     H41934  10.886   3.120   8.526  1.9774  0.1935 -3.6666
  311MOL0     H41935  10.765   3.253   8.508  0.1653  2.7779  2.8600
  311MOL0     H41936  11.149   3.250   8.494 -1.2405  0.3413  0.1899
  311MOL0     H41937  11.254   3.487   8.191  2.9330 -0.3819 -0.7070
  311MOL0     H41938  11.314   3.424   8.337  1.8619  3.8823 -1.2281
  311MOL0     H41939  11.448   3.326   8.168  0.0839 -1.1738  0.0233
  311MOL0     H41940  11.320   3.199   8.219 -2.0269  0.8144  0.0019
  311MOL0     H41941  11.194   3.257   8.017 -1.5749  4.2439  2.4949
  311MOL0     H41942  11.361   3.205   7.975  0.4897  0.3319  0.7461
  311MOL0     H41943  11.399   3.473   8.001  2.8232  0.0936 -2.5596
  311MOL0     H41944  11.228   3.449   7.935  0.2141 -0.1312  0.6317
  311MOL0     H41945  11.596   3.358   7.986 -3.2752 -2.6073 -0.3795
  311MOL0     H41946  11.815   3.281   7.936 -2.5640  0.4851  1.9739
  311MOL0     H41947  12.161   3.364   7.712  1.6084  0.8220 -1.3359
  311MOL0     H41948  12.400   3.366   7.650 -0.6589 -0.7006 -1.8201
  311MOL0     H41949  12.585   3.048   7.861  0.6679  2.1097  1.8188
  311MOL0     H41950  12.708   3.006   7.738 -1.5499 -1.2332 -0.1103
  311MOL0     H41951  12.803   3.149   7.919 -2.8888 -1.9071  1.4593
  311MOL0     H41952  12.803   3.222   7.754 -1.3488  1.6721  0.6757
  311MOL0     H41953  12.592   3.337   7.811 -0.9184  2.3415 -0.1293
  311MOL0     H41954  12.606   3.286   7.983  0.5713 -1.8957 -0.1156
  311MOL0     H41955  12.871   3.377   7.931 -0.0213  1.5395  0.7647
  311MOL0     H41956  12.761   3.451   8.035 -0.2017 -0.9182  0.2262
  311MOL0     H41957  12.718   3.526   7.759 -1.7470 -0.0274  0.9593
  311MOL0     H41958  12.858   3.598   7.854  0.7397 -1.3903 -0.3150
  311MOL0     H41959  12.565   3.603   7.923  0.3783 -0.9783 -0.0693
  311MOL0     H41960  12.712   3.674   8.016  0.8682  0.3182 -0.1223
  311MOL0     H41961  12.648   3.763   7.728 -3.6625  0.7403 -0.6497
  311MOL0     H41962  12.754   3.837   7.839  1.1558 -1.9279  1.0689
  311MOL0     H41963  12.563   3.901   7.990  0.2538  0.6435 -0.3095
  311MOL0     H41964  12.527   3.962   7.834  0.4111 -0.7683 -0.4759
  311MOL0     H41965  12.398   2.942   7.715 -0.4611 -0.2433 -2.8870
  311MOL0     H41966  12.150   2.945   7.736 -2.5508  2.0373  0.7541
  311MOL0     H41967  11.716   3.251   7.517  2.4349 -4.0697  1.5105
  311MOL0     H41968  11.485   3.300   7.572  0.1694  1.1005 -1.3001
  311MOL0     H41969  10.923   2.475   9.157 -3.8703  1.1514  1.3458
  311MOL0     H41970  11.039   2.259   9.107 -0.1883  4.4149  3.3192
  311MOL0     H41971  10.920   1.848   8.663  1.0452 -3.6800 -4.1480
  311MOL0     H41972  11.030   1.635   8.595 -0.9010  2.2896 -1.1710
  311MOL0     H41973  11.322   1.519   8.845 -2.8315  1.6809 -0.8292
  311MOL0     H41974  11.451   1.533   8.714  0.1091 -0.6422 -2.9728
  311MOL0     H41975  11.344   1.318   8.607 -0.5585  0.6949  0.3560
  311MOL0     H41976  11.266   1.305   8.767  0.1298  2.6676  2.8597
  311MOL0     H41977  11.445   1.206   8.854  2.6215 -0.7408 -0.0514
  311MOL0     H41978  11.520   1.368   8.844 -1.1760  0.5978 -1.7995
  311MOL0     H41979  11.674   1.184   8.756  0.6327 -0.1289 -2.2850
  311MOL0     H41980  11.552   1.118   8.650 -1.8386  1.3762 -2.4367
  311MOL0     H41981  11.711   1.437   8.429 -0.5462  0.2777  0.5215
  311MOL0     H41982  11.363   1.745   8.826 -0.9863 -0.7893  0.4716
  311MOL0     H41983  11.256   2.063   8.954 -1.7697 -1.4002  0.0227
  311MOL0     H41984  11.294   1.915   9.028 -0.4668 -1.1103 -0.3434
  311MOL0     H41985  11.397   1.971   8.896 -0.3911 -0.0683  0.6770
  312MOL0     O41986   2.306   5.459   2.173  0.0750 -0.0131  0.0761
  312MOL0     C41987   2.290   5.582   2.178  0.2536  0.3750 -0.7518
  312MOL0     O41988   2.394   5.675   2.167  0.4882 -0.9037 -0.7111
  312MOL0     C41989   2.527   5.640   2.189 -0.0491  0.2021  0.1819
  312MOL0     C41990   2.629   5.712   2.129 -0.0885 -0.5406  0.7016
  312MOL0     C41991   2.759   5.707   2.184  0.1366  0.2528 -0.6434
  312MOL0     C41992   2.789   5.622   2.285  1.5481 -0.8622  0.0830
  312MOL0     O41993   2.913   5.633   2.341  0.4899 -0.2704  0.4139
  312MOL0     C41994   2.948   5.567   2.466 -0.1882 -0.8815 -0.9963
  312MOL0     C41995   3.098   5.602   2.501  0.2138  0.2790  0.0777
  312MOL0     C41996   3.145   5.548   2.637 -0.1512  0.6360 -0.0664
  312MOL0     C41997   3.279   5.481   2.627 -0.7641 -0.2983 -0.1636
  312MOL0     C41998   3.327   5.459   2.770  1.2419 -0.7215 -0.1607
  312MOL0     C41999   3.436   5.358   2.758  0.6982  0.4250  0.2662
  312MOL0     C42000   3.498   5.310   2.892  0.4312 -0.1225 -0.1130
  312MOL0     C42001   3.557   5.431   2.958  0.0712 -0.3069  0.3344
  312MOL0     N42002   3.660   5.498   2.877 -0.6582 -0.4602  1.0648
  312MOL0     C42003   3.661   5.629   2.841  0.0575 -0.2180 -0.2567
  312MOL0     C42004   3.768   5.649   2.765  0.0693  0.5185 -0.0900
  312MOL0     C42005   3.824   5.778   2.714 -0.0932  0.4741  0.1422
  312MOL0     C42006   3.952   5.831   2.792 -0.4561  0.5509  1.0613
  312MOL0     C42007   4.051   5.726   2.828 -0.2195  0.4219  0.4355
  312MOL0     C42008   4.166   5.781   2.901 -0.4827 -0.3802  0.3077
  312MOL0     O42009   4.259   5.675   2.925 -0.4621 -0.1728 -0.1132
  312MOL0     C42010   4.368   5.695   3.011 -0.0802 -0.0588  0.0007
  312MOL0     C42011   4.384   5.800   3.104  0.6118 -0.8119  0.7288
  312MOL0     C42012   4.484   5.811   3.197 -1.3079  0.3328  1.5488
  312MOL0     C42013   4.581   5.711   3.196 -0.5182  0.4439  0.1916
  312MOL0     C42014   4.696   5.713   3.292 -0.4130 -0.2440 -0.2718
  312MOL0     O42015   4.772   5.605   3.314  1.0698  0.5635 -0.2460
  312MOL0     C42016   4.879   5.621   3.399 -0.0916 -0.9252 -0.7149
  312MOL0     C42017   4.998   5.542   3.374 -0.5369 -0.1292  0.1982
  312MOL0     C42018   5.116   5.563   3.448  0.2849  0.7157  0.0822
  312MOL0     C42019   5.119   5.646   3.560  0.2064  0.0759  0.2861
  312MOL0     O42020   5.229   5.643   3.643 -0.1941  0.1158 -0.7758
  312MOL0     C42021   5.193   5.609   3.774  0.1617  0.4550 -0.5923
  312MOL0     C42022   5.321   5.589   3.863 -1.1998 -0.3561 -0.2769
  312MOL0     C42023   5.416   5.718   3.859 -0.4889  0.6593  0.2358
  312MOL0     C42024   5.535   5.713   3.952 -0.7463 -0.3562  1.3669
  312MOL0     C42025   5.580   5.851   3.966  1.1167 -0.0461 -0.3699
  312MOL0     C42026   5.721   5.864   4.035  0.0627 -0.3024 -0.4216
  312MOL0     C42027   5.770   6.005   4.054 -1.1398 -0.7000  0.2318
  312MOL0     C42028   5.912   6.024   4.113  0.2146 -0.3281 -0.1016
  312MOL0    Cl42029   5.924   5.964   4.287  0.1275  0.0378  0.2978
  312MOL0     C42030   4.995   5.716   3.592  0.3902  0.2702  0.2668
  312MOL0     C42031   4.882   5.705   3.516  0.1308  0.3708 -1.2694
  312MOL0     O42032   4.721   5.824   3.337 -0.1055  0.0579  0.6342
  312MOL0     C42033   4.571   5.607   3.094 -0.0181 -0.2971 -0.0901
  312MOL0     C42034   4.464   5.596   3.003 -0.8352  0.0032  1.2709
  312MOL0     N42035   3.832   5.530   2.758 -0.1948 -0.0670  0.0056
  312MOL0     N42036   3.763   5.433   2.815  0.3591 -1.2765  0.3095
  312MOL0     C42037   2.700   5.530   2.322  0.1573 -0.0694  0.3604
  312MOL0     C42038   2.563   5.544   2.288 -0.2359 -0.1750  0.1213
  312MOL0     C42039   2.146   5.620   2.172 -0.1291 -0.2397  0.1889
  312MOL0     C42040   2.051   5.553   2.248  0.3765 -0.2397  0.6178
  312MOL0     C42041   1.926   5.600   2.270  0.2581 -0.4525  0.5307
  312MOL0     C42042   1.886   5.723   2.209 -0.6878 -0.2261 -0.4315
  312MOL0     O42043   1.760   5.759   2.243  0.1109 -0.0240  0.5389
  312MOL0     C42044   1.697   5.876   2.191 -0.7587 -0.5099 -0.0124
  312MOL0     C42045   1.548   5.880   2.226 -0.2110  0.6652  0.7776
  312MOL0     C42046   1.455   5.797   2.135 -0.5385  0.1360 -0.2042
  312MOL0     C42047   1.314   5.782   2.189  0.4667  0.2323  0.1383
  312MOL0     C42048   1.310   5.691   2.304  0.5013  0.2881 -0.1925
  312MOL0     C42049   1.302   5.598   2.390  0.4814 -0.5812  0.2053
  312MOL0     C42050   1.971   5.787   2.117 -0.2755 -0.6037  0.5734
  312MOL0     C42051   2.100   5.741   2.108  0.7694 -0.5935 -1.0839
  312MOL0     C42052   2.190   5.828   2.029  0.4443 -0.3533  0.1582
  312MOL0     H42053   2.621   5.774   2.041  3.6550 -1.6927 -0.6414
  312MOL0     H42054   2.834   5.763   2.129  0.0866  2.2256  1.2176
  312MOL0     H42055   2.880   5.607   2.542 -0.0342 -1.9487 -0.2745
  312MOL0     H42056   2.931   5.459   2.465 -1.1859 -0.7333 -0.8223
  312MOL0     H42057   3.104   5.711   2.506 -0.0806  0.3201 -0.3953
  312MOL0     H42058   3.149   5.561   2.413  0.3751  0.2190  0.1994
  312MOL0     H42059   3.078   5.467   2.666  1.8514 -1.5830 -1.2493
  312MOL0     H42060   3.161   5.631   2.706  0.5595  1.1228 -0.7920
  312MOL0     H42061   3.271   5.382   2.581  2.7692 -0.3019 -1.0665
  312MOL0     H42062   3.346   5.549   2.574  0.8999 -1.4147  0.4376
  312MOL0     H42063   3.355   5.557   2.809 -2.6878  0.3643  0.3695
  312MOL0     H42064   3.247   5.427   2.837  0.2308  0.9464 -0.5130
  312MOL0     H42065   3.393   5.264   2.722  0.9519 -0.4261  2.0492
  312MOL0     H42066   3.508   5.385   2.681  0.5219  1.5498  0.4680
  312MOL0     H42067   3.581   5.239   2.880 -0.3629 -1.0687 -0.1595
  312MOL0     H42068   3.430   5.255   2.957  1.4533 -0.9450  0.2909
  312MOL0     H42069   3.485   5.508   2.987 -0.4842 -1.2453  1.5247
  312MOL0     H42070   3.594   5.388   3.051  0.3581  0.1357  0.4287
  312MOL0     H42071   3.596   5.710   2.872  1.1611  1.5196 -2.2004
  312MOL0     H42072   3.840   5.772   2.606 -5.5403  1.3210 -1.0120
  312MOL0     H42073   3.746   5.853   2.732 -1.3608 -0.7231 -0.1738
  312MOL0     H42074   4.008   5.903   2.731 -2.8989 -0.5802 -2.9024
  312MOL0     H42075   3.911   5.873   2.884 -1.3911  1.7144  0.1533
  312MOL0     H42076   4.086   5.672   2.739  0.1482  0.3008  0.6508
  312MOL0     H42077   4.004   5.655   2.896 -2.0015 -1.7965 -2.8027
  312MOL0     H42078   4.137   5.828   2.996 -3.1623  0.6637 -0.9052
  312MOL0     H42079   4.217   5.859   2.844 -0.7740  0.5978  1.3575
  312MOL0     H42080   4.304   5.872   3.120  0.9981 -0.7849  2.8730
  312MOL0     H42081   4.490   5.894   3.267 -0.4201  0.4930  1.2944
  312MOL0     H42082   4.998   5.472   3.291 -0.9721  0.6730 -0.4962
  312MOL0     H42083   5.202   5.500   3.423  1.2853  3.0159 -2.9164
  312MOL0     H42084   5.134   5.689   3.820  0.4540  0.1812  0.2711
  312MOL0     H42085   5.138   5.515   3.761  0.1475  0.3121  0.4575
  312MOL0     H42086   5.293   5.549   3.961 -2.1550 -0.1718 -0.4632
  312MOL0     H42087   5.377   5.508   3.815  1.3647  0.7080  0.7274
  312MOL0     H42088   5.452   5.732   3.756 -3.0315  1.1694 -0.6731
  312MOL0     H42089   5.347   5.797   3.891 -0.6664  1.3061 -1.5957
  312MOL0     H42090   5.606   5.641   3.912 -2.5247 -1.0398 -0.7583
  312MOL0     H42091   5.508   5.678   4.052  1.4097  1.3255  2.6191
  312MOL0     H42092   5.507   5.896   4.034 -0.0022 -0.9847 -0.9130
  312MOL0     H42093   5.571   5.903   3.870 -2.5820  2.3729  1.1157
  312MOL0     H42094   5.724   5.811   4.130 -1.8571  0.8368  0.3189
  312MOL0     H42095   5.795   5.812   3.972  0.4755  0.5388 -0.6501
  312MOL0     H42096   5.701   6.065   4.114 -0.3873 -0.6403  1.0729
  312MOL0     H42097   5.783   6.044   3.953  2.0094  3.2014  1.8399
  312MOL0     H42098   5.991   5.973   4.057  1.3134 -0.4481  1.4912
  312MOL0     H42099   5.941   6.129   4.105  4.9984 -1.5454 -2.0957
  312MOL0     H42100   4.995   5.778   3.681  1.0360  0.0374  0.4360
  312MOL0     H42101   4.792   5.755   3.549  0.6611 -0.4908  1.7902
  312MOL0     H42102   4.646   5.531   3.073  0.6046  0.2149  0.2506
  312MOL0     H42103   4.448   5.516   2.930  0.0715 -0.0652  1.1320
  312MOL0     H42104   2.723   5.449   2.391  2.9375  0.5727  0.3126
  312MOL0     H42105   2.497   5.481   2.346 -0.1043 -0.9227 -0.5347
  312MOL0     H42106   2.086   5.462   2.295  3.0576  0.7420  0.7252
  312MOL0     H42107   1.859   5.552   2.341 -0.3507 -1.1817 -0.5092
  312MOL0     H42108   1.713   5.881   2.083 -0.8000 -1.3475 -0.0580
  312MOL0     H42109   1.752   5.966   2.220 -0.4996 -1.0652  1.2757
  312MOL0     H42110   1.515   5.985   2.220  0.4236  0.8357  0.1691
  312MOL0     H42111   1.549   5.845   2.329  0.2057 -0.2790  0.4598
  312MOL0     H42112   1.501   5.698   2.124  0.4845  0.3522  1.7058
  312MOL0     H42113   1.456   5.853   2.041 -4.0822 -0.1666 -0.5805
  312MOL0     H42114   1.278   5.878   2.228 -0.8900  0.4352 -1.4665
  312MOL0     H42115   1.239   5.746   2.118 -0.9103 -2.1101  2.5974
  312MOL0     H42116   1.310   5.520   2.462  0.3635  0.0190  0.8732
  312MOL0     H42117   1.936   5.874   2.062  0.3362 -1.1910 -0.7974
  312MOL0     H42118   2.151   5.906   1.963  3.6937  0.7490 -0.6593
  312MOL0     H42119   2.243   5.887   2.105 -1.6713 -1.4813  2.6837
  312MOL0     H42120   2.272   5.782   1.974  0.9147  1.3872 -0.6719
  313MOL0     O42121   0.612   8.541  10.998  0.6157  0.3084 -0.2990
  313MOL0     C42122   0.614   8.514  10.881  0.5779 -0.7070 -0.4551
  313MOL0     O42123   0.721   8.540  10.805  0.5408  1.1211  0.2849
  313MOL0     C42124   0.836   8.570  10.865 -0.0173 -0.0521 -0.7440
  313MOL0     C42125   0.856   8.685  10.940 -0.6484 -0.4564 -0.8816
  313MOL0     C42126   0.978   8.718  11.002  0.7457  0.4540  0.1613
  313MOL0     C42127   1.083   8.625  11.000  0.6602  0.3459 -0.2247
  313MOL0     O42128   1.203   8.656  11.066 -1.0921  0.1728 -0.5137
  313MOL0     C42129   1.328   8.605  11.013 -0.2417  0.2315  0.5271
  313MOL0     C42130   1.361   8.651  10.874  0.3373  0.8605  0.9537
  313MOL0     C42131   1.513   8.640  10.841  0.3607  0.4051 -0.3386
  313MOL0     C42132   1.539   8.673  10.697 -0.9112 -0.0198 -0.3637
  313MOL0     C42133   1.682   8.627  10.671  0.3190 -0.0337 -0.0523
  313MOL0     C42134   1.728   8.665  10.534 -1.0510  0.2451  0.1537
  313MOL0     C42135   1.884   8.685  10.511 -0.2537 -0.5226 -0.3902
  313MOL0     C42136   1.966   8.552  10.502 -0.0020 -0.0876  0.3696
  313MOL0     N42137   2.096   8.572  10.436  0.2637  0.2726  0.9999
  313MOL0     C42138   2.213   8.604  10.494  0.7059 -0.0082 -0.2709
  313MOL0     C42139   2.303   8.593  10.394 -0.4051 -0.1633 -0.6575
  313MOL0     C42140   2.443   8.625  10.419  0.1022  0.0739 -0.1565
  313MOL0     C42141   2.529   8.519  10.344 -0.3459 -0.1352  0.2052
  313MOL0     C42142   2.676   8.544  10.376  0.9715  0.6045  0.3670
  313MOL0     C42143   2.761   8.529  10.243 -0.1725 -0.4770 -0.1911
  313MOL0     O42144   2.901   8.505  10.253 -0.3100  0.0615  0.2860
  313MOL0     C42145   2.949   8.383  10.271  0.0896  0.2385 -0.8001
  313MOL0     C42146   2.869   8.264  10.282  0.3411  0.2350 -0.2523
  313MOL0     C42147   2.928   8.131  10.289  0.4052 -0.4165 -0.1683
  313MOL0     C42148   3.068   8.125  10.304 -0.1350  0.3851  1.1454
  313MOL0     C42149   3.142   8.003  10.312 -0.1155 -0.0574  0.5081
  313MOL0     O42150   3.281   7.998  10.293  0.4067  0.0104 -0.4123
  313MOL0     C42151   3.352   7.879  10.313  0.8179  0.4255 -0.3346
  313MOL0     C42152   3.430   7.832  10.204 -0.1546  0.2372 -0.4220
  313MOL0     C42153   3.494   7.709  10.214 -0.6806  0.6119  0.6945
  313MOL0     C42154   3.479   7.632  10.325 -0.1801 -1.1147 -0.1492
  313MOL0     O42155   3.525   7.510  10.366 -0.6025 -0.0346 -0.3129
  313MOL0     C42156   3.652   7.469  10.322  0.5823 -0.2687 -0.0436
  313MOL0     C42157   3.663   7.317  10.344 -0.1613  0.6477  0.7524
  313MOL0     C42158   3.579   7.221  10.244 -0.3696 -1.1278 -0.3339
  313MOL0     C42159   3.454   7.161  10.315  0.0722  0.6874  0.0199
  313MOL0     C42160   3.390   7.072  10.208 -0.3632 -0.3531  0.0115
  313MOL0     C42161   3.272   7.000  10.265 -0.4106 -0.3822 -0.6354
  313MOL0     C42162   3.264   6.847  10.227 -0.0501 -0.2615 -0.0829
  313MOL0     C42163   3.166   6.816  10.111  0.5632  0.3429 -1.0163
  313MOL0    Cl42164   3.006   6.865  10.163 -0.6888  0.4975 -0.0235
  313MOL0     C42165   3.394   7.672  10.430  0.4417  1.1386  0.4361
  313MOL0     C42166   3.334   7.799  10.426  0.3418 -0.2431 -0.5958
  313MOL0     O42167   3.072   7.908  10.328 -0.1607 -0.2603  0.2716
  313MOL0     C42168   3.141   8.238  10.289 -0.5997 -0.0270 -0.3862
  313MOL0     C42169   3.089   8.360  10.278  1.0950  0.4719  0.1189
  313MOL0     N42170   2.245   8.584  10.274  0.5150 -0.4693  0.5740
  313MOL0     N42171   2.124   8.559  10.299  0.1820  0.4308 -0.2633
  313MOL0     C42172   1.070   8.501  10.942 -0.4985 -0.3387 -0.0546
  313MOL0     C42173   0.945   8.479  10.876  0.7809 -0.0064  0.2832
  313MOL0     C42174   0.499   8.438  10.826  0.0141 -0.6243 -0.2904
  313MOL0     C42175   0.506   8.417  10.689 -0.8793 -0.1057 -0.7928
  313MOL0     C42176   0.409   8.351  10.622  0.9128 -0.2082 -0.3812
  313MOL0     C42177   0.295   8.302  10.693 -0.0017  0.1975 -1.0381
  313MOL0     O42178   0.204   8.235  10.614  0.7194  0.0141 -0.4734
  313MOL0     C42179   0.105   8.155  10.679  0.2797 -0.3539  1.2427
  313MOL0     C42180   0.014   8.079  10.585  0.7114 -0.5983  0.2323
  313MOL0     C42181  -0.117   8.029  10.656  1.1030  0.6961  0.4620
  313MOL0     C42182  -0.211   7.932  10.585  0.0529 -0.7323  0.2432
  313MOL0     C42183  -0.143   7.837  10.503 -0.5266 -0.6709 -0.0409
  313MOL0     C42184  -0.082   7.759  10.436  0.1705  0.0562 -0.7782
  313MOL0     C42185   0.288   8.322  10.831 -0.1027  0.7966 -0.0097
  313MOL0     C42186   0.387   8.394  10.900 -0.2008  0.8370 -0.8343
  313MOL0     C42187   0.359   8.416  11.043 -0.1232  0.0647 -0.5034
  313MOL0     H42188   0.771   8.748  10.965 -1.2008 -2.0315  1.6025
  313MOL0     H42189   0.993   8.811  11.055  0.3232  0.5858  0.0564
  313MOL0     H42190   1.404   8.644  11.082  0.0049 -1.5091  1.3038
  313MOL0     H42191   1.340   8.496  11.016  2.3050  0.4380  0.0961
  313MOL0     H42192   1.343   8.759  10.868  0.8347  1.2463  4.3386
  313MOL0     H42193   1.298   8.600  10.801 -0.5370 -2.3842  3.7342
  313MOL0     H42194   1.552   8.541  10.868  3.2613  1.9206  1.5249
  313MOL0     H42195   1.556   8.711  10.913  0.4432 -2.0414  2.1975
  313MOL0     H42196   1.472   8.617  10.631 -0.4308 -1.4679  0.3237
  313MOL0     H42197   1.532   8.781  10.681  0.3616 -0.2409 -2.9608
  313MOL0     H42198   1.746   8.683  10.738 -1.4779  1.8885  0.1668
  313MOL0     H42199   1.693   8.519  10.685 -1.1051 -0.0233  1.3456
  313MOL0     H42200   1.680   8.598  10.461  1.9481 -0.1660 -1.6211
  313MOL0     H42201   1.699   8.767  10.509 -1.8039  0.4563  1.7780
  313MOL0     H42202   1.932   8.753  10.583  0.3966  1.9437 -2.9834
  313MOL0     H42203   1.886   8.732  10.413  0.6769  0.5760  0.1293
  313MOL0     H42204   1.985   8.500  10.596  1.8831 -0.7519 -0.3411
  313MOL0     H42205   1.910   8.477  10.446  0.6608  0.0074 -0.4405
  313MOL0     H42206   2.233   8.639  10.595 -4.7370  1.4537  0.6299
  313MOL0     H42207   2.466   8.722  10.376  3.2386 -0.7685 -0.6301
  313MOL0     H42208   2.463   8.626  10.526 -1.2882  0.2450  0.1253
  313MOL0     H42209   2.510   8.418  10.382 -0.5967  0.0898  0.6931
  313MOL0     H42210   2.517   8.522  10.236  0.2621  1.3592  0.1519
  313MOL0     H42211   2.714   8.476  10.453 -2.4748  0.1141  1.8006
  313MOL0     H42212   2.691   8.651  10.393 -1.5658  1.3417 -1.5414
  313MOL0     H42213   2.744   8.625  10.192 -3.0760 -0.9101 -0.1923
  313MOL0     H42214   2.710   8.462  10.174 -1.0735  0.5391 -0.5375
  313MOL0     H42215   2.760   8.266  10.286  0.4017  1.0443  2.5127
  313MOL0     H42216   2.871   8.040  10.303  0.4596 -0.3014  0.9251
  313MOL0     H42217   3.444   7.891  10.114  0.7460 -0.9570 -1.0976
  313MOL0     H42218   3.558   7.675  10.134 -0.8816  2.4699 -0.3078
  313MOL0     H42219   3.676   7.503  10.220  0.7421 -2.7858 -0.9002
  313MOL0     H42220   3.727   7.512  10.389 -0.4058 -0.1825  1.0356
  313MOL0     H42221   3.768   7.298  10.321 -0.0977 -0.0534  1.5701
  313MOL0     H42222   3.644   7.293  10.449  0.5848  1.8022  1.1606
  313MOL0     H42223   3.548   7.284  10.160  3.4872 -2.0906 -2.7125
  313MOL0     H42224   3.638   7.132  10.218 -0.1849 -0.6382 -1.6505
  313MOL0     H42225   3.384   7.238  10.349 -0.7559 -0.2458  0.5007
  313MOL0     H42226   3.480   7.103  10.404 -1.2300 -2.1526 -1.3223
  313MOL0     H42227   3.458   6.996  10.167 -0.9928 -0.6163 -0.5697
  313MOL0     H42228   3.355   7.136  10.127  0.8133 -0.1182 -0.3265
  313MOL0     H42229   3.246   7.012  10.370 -0.9908  2.0295 -0.9958
  313MOL0     H42230   3.189   7.048  10.213  0.0775  0.0856 -1.0072
  313MOL0     H42231   3.262   6.798  10.324  2.1383  0.7471  0.5480
  313MOL0     H42232   3.360   6.816  10.185 -0.0316 -0.6799  0.2616
  313MOL0     H42233   3.193   6.886  10.032  0.5125  2.5687  0.8410
  313MOL0     H42234   3.174   6.710  10.086 -0.2933 -1.0173  3.5950
  313MOL0     H42235   3.377   7.617  10.521 -2.6308  0.4583 -0.4192
  313MOL0     H42236   3.263   7.828  10.502  1.8390  3.0213 -0.2822
  313MOL0     H42237   3.249   8.232  10.288 -0.5881 -0.2723  0.6141
  313MOL0     H42238   3.148   8.450  10.266  1.9059 -0.1272 -0.5017
  313MOL0     H42239   1.155   8.436  10.959  1.2021  1.6524 -0.5203
  313MOL0     H42240   0.937   8.392  10.810 -0.2559  0.2331  0.0734
  313MOL0     H42241   0.584   8.460  10.627  0.8491  0.6663  1.7401
  313MOL0     H42242   0.402   8.328  10.516 -1.3941 -1.9665  0.0681
  313MOL0     H42243   0.034   8.216  10.735 -0.6795 -0.5907  0.3175
  313MOL0     H42244   0.145   8.090  10.758 -2.1167 -2.6800  0.6837
  313MOL0     H42245   0.071   7.996  10.542  3.4202  1.2205  0.1210
  313MOL0     H42246  -0.008   8.142  10.498 -0.4933  0.0142  0.9470
  313MOL0     H42247  -0.181   8.113  10.683  1.4136  1.4595 -1.0769
  313MOL0     H42248  -0.087   7.990  10.754 -0.6640  1.5438  1.3820
  313MOL0     H42249  -0.267   7.880  10.663 -0.6876 -0.8217 -0.3363
  313MOL0     H42250  -0.286   7.986  10.527  1.1308  1.7790  1.0610
  313MOL0     H42251  -0.024   7.704  10.365  2.0398  1.6996 -0.5950
  313MOL0     H42252   0.199   8.285  10.882  0.7986  0.2612  1.2374
  313MOL0     H42253   0.430   8.366  11.110 -0.8716  0.4427  0.5976
  313MOL0     H42254   0.364   8.523  11.063  1.5109  0.2650 -1.7431
  313MOL0     H42255   0.260   8.377  11.066 -0.4741  0.5326 -1.2037
  314MOL0     O42256  10.724  10.304   8.159 -0.7392  0.0775  0.1217
  314MOL0     C42257  10.672  10.231   8.247 -0.6730  1.6665 -0.6804
  314MOL0     O42258  10.741  10.156   8.343 -0.1093  0.1772 -0.2258
  314MOL0     C42259  10.879  10.161   8.351 -0.5359 -0.6800 -0.5233
  314MOL0     C42260  10.963  10.089   8.257  0.0148 -0.1019 -1.0332
  314MOL0     C42261  11.099  10.081   8.271 -0.2451 -0.4057  0.3574
  314MOL0     C42262  11.167  10.135   8.392  0.3345  0.1593 -0.3512
  314MOL0     O42263  11.303  10.133   8.405  0.1983  0.5891 -0.1221
  314MOL0     C42264  11.381  10.200   8.306 -0.2444 -0.7685 -0.3449
  314MOL0     C42265  11.509  10.116   8.285 -0.0735 -0.3651 -0.7095
  314MOL0     C42266  11.622  10.203   8.222 -0.3859 -0.2541 -0.2553
  314MOL0     C42267  11.755  10.146   8.173 -0.5842  0.5200  0.2430
  314MOL0     C42268  11.836  10.091   8.296 -0.5430 -0.2749  0.0078
  314MOL0     C42269  11.904   9.951   8.268 -0.3346  0.1020 -0.1643
  314MOL0     C42270  12.025   9.962   8.187  0.0111  0.0425 -0.2923
  314MOL0     C42271  12.088   9.831   8.130  0.1796 -0.4170 -0.5426
  314MOL0     N42272  12.180   9.776   8.230 -0.6599  0.0192 -0.1802
  314MOL0     C42273  12.149   9.708   8.345 -0.3416  0.1944 -0.4242
  314MOL0     C42274  12.260   9.645   8.389 -0.8479  1.2581  0.0489
  314MOL0     C42275  12.271   9.551   8.505  0.1121  0.7734  0.0437
  314MOL0     C42276  12.246   9.617   8.648 -0.3121  0.5309  0.7722
  314MOL0     C42277  12.102   9.647   8.694  0.0007 -0.3232 -0.9895
  314MOL0     C42278  12.103   9.711   8.841  0.1929 -0.5407  0.1935
  314MOL0     O42279  12.052   9.621   8.936  0.0380  0.1472  0.0149
  314MOL0     C42280  11.917   9.610   8.960 -0.7295 -0.3868 -0.7447
  314MOL0     C42281  11.821   9.681   8.886 -0.2488  0.3022  0.0816
  314MOL0     C42282  11.686   9.677   8.928  0.4816 -0.8836  0.1874
  314MOL0     C42283  11.655   9.610   9.043 -0.4773 -0.4427  0.2369
  314MOL0     C42284  11.514   9.620   9.087 -0.4025  0.5000  0.1453
  314MOL0     O42285  11.419   9.683   9.003 -0.6410  0.7016 -0.5716
  314MOL0     C42286  11.316   9.749   9.068 -0.6873 -0.2637  0.8639
  314MOL0     C42287  11.344   9.845   9.161  1.0400 -0.7880  0.2272
  314MOL0     C42288  11.238   9.923   9.225  0.0733  0.1122 -0.0175
  314MOL0     C42289  11.110   9.898   9.202  1.5298  0.7991  0.4301
  314MOL0     O42290  11.023   9.971   9.279 -0.2295  0.4733  1.1775
  314MOL0     C42291  10.887   9.962   9.250  0.0657 -0.0545 -0.2685
  314MOL0     C42292  10.819  10.081   9.331  0.8891 -0.1777 -0.0350
  314MOL0     C42293  10.663  10.089   9.311  0.0083  0.4466  0.0737
  314MOL0     C42294  10.605  10.191   9.411 -0.7309 -0.7261 -0.5537
  314MOL0     C42295  10.455  10.185   9.398 -0.3083  0.0939  0.9019
  314MOL0     C42296  10.388  10.054   9.452 -0.3994  0.4820 -0.5426
  314MOL0     C42297  10.252  10.072   9.505  0.4866  0.1334 -0.4965
  314MOL0     C42298  10.186   9.969   9.601  0.1254  0.1240  0.4948
  314MOL0    Cl42299  10.285   9.975   9.744  0.3217  0.2160  0.1980
  314MOL0     C42300  11.072   9.801   9.106 -0.3346 -0.2170  0.1077
  314MOL0     C42301  11.177   9.730   9.037  0.2649 -0.4561  0.5957
  314MOL0     O42302  11.485   9.576   9.197 -0.2117 -0.7855 -1.2560
  314MOL0     C42303  11.739   9.527   9.114 -0.1658  0.5525 -1.0451
  314MOL0     C42304  11.875   9.542   9.079  0.2277  0.0795  0.1989
  314MOL0     N42305  12.368   9.694   8.305  0.9999 -0.8626 -0.2977
  314MOL0     N42306  12.314   9.778   8.220 -0.8691 -0.2319  0.5706
  314MOL0     C42307  11.078  10.202   8.491 -0.0317  0.2761 -0.0903
  314MOL0     C42308  10.944  10.202   8.469 -0.2326 -1.0225 -0.3605
  314MOL0     C42309  10.529  10.208   8.240 -0.9970  0.2316 -0.3847
  314MOL0     C42310  10.471  10.084   8.284 -0.0861 -0.6534  0.0902
  314MOL0     C42311  10.334  10.061   8.275 -0.2802 -0.6195 -1.1534
  314MOL0     C42312  10.254  10.157   8.205  0.0524  0.4287 -1.7477
  314MOL0     O42313  10.120  10.127   8.207 -0.3628  0.5146  0.0469
  314MOL0     C42314  10.024  10.217   8.154  0.5392 -0.6714 -0.0590
  314MOL0     C42315   9.881  10.169   8.178 -0.1709  0.5513 -0.3536
  314MOL0     C42316   9.861  10.049   8.077  0.6338  0.2279 -0.7845
  314MOL0     C42317   9.811   9.919   8.142 -0.4837  0.2228  0.2005
  314MOL0     C42318   9.662   9.895   8.127 -0.5843 -0.1662  0.3017
  314MOL0     C42319   9.547   9.869   8.121  0.0478 -0.0414  1.0147
  314MOL0     C42320  10.305  10.272   8.157  0.0715  0.1783  0.3813
  314MOL0     C42321  10.443  10.308   8.185  0.6762  0.4326 -0.5145
  314MOL0     C42322  10.479  10.456   8.142 -0.0899 -0.4017  0.2743
  314MOL0     H42323  10.908  10.054   8.169  0.4130 -1.5595 -0.7250
  314MOL0     H42324  11.162  10.034   8.196 -2.3100 -3.8502  0.5792
  314MOL0     H42325  11.329  10.210   8.210 -2.8841  0.1815  1.0594
  314MOL0     H42326  11.411  10.298   8.346 -1.0789 -0.1703 -1.1296
  314MOL0     H42327  11.487  10.032   8.219 -1.4067  0.6416 -1.6008
  314MOL0     H42328  11.546  10.088   8.384 -1.1174  2.5936  0.6357
  314MOL0     H42329  11.652  10.277   8.297  0.8468 -1.1327  0.1563
  314MOL0     H42330  11.578  10.255   8.136 -0.5379 -1.1834 -0.7548
  314MOL0     H42331  11.737  10.065   8.102  2.7498  1.8182 -2.4199
  314MOL0     H42332  11.815  10.225   8.126  0.3874 -0.4963 -0.2780
  314MOL0     H42333  11.920  10.157   8.320  0.6956 -1.7393 -0.0400
  314MOL0     H42334  11.765  10.091   8.378 -1.9101 -3.4386 -0.9937
  314MOL0     H42335  11.936   9.907   8.363 -1.3151 -0.5092 -0.0979
  314MOL0     H42336  11.839   9.874   8.224 -2.1731  0.6798  1.3918
  314MOL0     H42337  12.098  10.018   8.245  0.4209 -0.8424  0.0693
  314MOL0     H42338  11.999  10.026   8.103  0.0014 -0.3416 -0.5849
  314MOL0     H42339  12.018   9.759   8.087  0.0484  0.1143 -1.2547
  314MOL0     H42340  12.136   9.873   8.041 -1.2246  0.5289 -0.8905
  314MOL0     H42341  12.047   9.689   8.377 -0.3724 -1.0114 -1.1798
  314MOL0     H42342  12.203   9.467   8.488 -0.8218  1.0772  1.9851
  314MOL0     H42343  12.374   9.516   8.511  0.2135  0.9027 -0.8447
  314MOL0     H42344  12.280   9.545   8.723  2.6437  1.9935  0.9884
  314MOL0     H42345  12.296   9.714   8.640 -1.3394  0.9518 -1.2092
  314MOL0     H42346  12.039   9.558   8.694 -0.9307  0.3169 -0.0168
  314MOL0     H42347  12.070   9.727   8.628 -0.1426 -0.4975 -1.1308
  314MOL0     H42348  12.034   9.796   8.833 -0.1095 -0.6863  1.1131
  314MOL0     H42349  12.204   9.745   8.863 -0.3008  0.5756  0.8168
  314MOL0     H42350  11.841   9.717   8.786 -0.2371 -2.5718 -1.0339
  314MOL0     H42351  11.617   9.744   8.877 -0.7984 -1.8830  0.5447
  314MOL0     H42352  11.446   9.873   9.185  0.7176  0.2888  0.4018
  314MOL0     H42353  11.258  10.005   9.293  2.4714 -0.3424 -0.0954
  314MOL0     H42354  10.866   9.983   9.145  0.8942  0.4506 -0.3361
  314MOL0     H42355  10.850   9.861   9.273  1.4249 -0.4661  0.1899
  314MOL0     H42356  10.837  10.055   9.436  0.8176 -0.9909 -0.2190
  314MOL0     H42357  10.852  10.183   9.311  0.2471  0.2636  1.0618
  314MOL0     H42358  10.647  10.121   9.207 -0.7762  0.7282  0.2751
  314MOL0     H42359  10.625   9.987   9.324  0.3383 -0.2014 -3.0839
  314MOL0     H42360  10.641  10.289   9.379  3.0084 -1.9550 -0.6817
  314MOL0     H42361  10.619  10.184   9.520 -0.0011  0.1957 -0.5778
  314MOL0     H42362  10.420  10.199   9.295 -2.4011 -0.3170  1.5024
  314MOL0     H42363  10.425  10.269   9.462  1.3654  0.1817  1.6127
  314MOL0     H42364  10.393   9.978   9.372  0.9084 -2.4140  2.0787
  314MOL0     H42365  10.452   9.998   9.520  0.1641 -0.3001 -1.6740
  314MOL0     H42366  10.184  10.085   9.420  0.6437  0.3071 -0.5975
  314MOL0     H42367  10.250  10.167   9.558  0.8110  1.3291 -2.5069
  314MOL0     H42368  10.087   9.996   9.637  0.5323 -0.0184  1.7672
  314MOL0     H42369  10.191   9.864   9.573 -0.0422 -0.2090  1.6578
  314MOL0     H42370  10.968   9.777   9.084 -0.6496  0.5744  0.6724
  314MOL0     H42371  11.154   9.668   8.951 -1.3278 -0.0720  0.7092
  314MOL0     H42372  11.708   9.479   9.206  2.5552  0.9821  0.2071
  314MOL0     H42373  11.952   9.507   9.147 -2.3543 -0.6164  3.0039
  314MOL0     H42374  11.124  10.248   8.578 -1.1598  2.0033 -0.3790
  314MOL0     H42375  10.887  10.238   8.554  0.0241 -0.9111 -0.2344
  314MOL0     H42376  10.535  10.006   8.324  1.9813 -0.0115 -1.7898
  314MOL0     H42377  10.282   9.975   8.317  0.6449 -0.7107 -0.1570
  314MOL0     H42378  10.034  10.232   8.046 -0.1783 -0.9179 -0.1666
  314MOL0     H42379  10.035  10.310   8.211  1.6074 -0.0948 -1.1702
  314MOL0     H42380   9.810  10.247   8.150 -0.2421  1.2371  1.5674
  314MOL0     H42381   9.868  10.144   8.284 -1.0966 -0.1135 -0.6099
  314MOL0     H42382   9.955  10.012   8.035  0.4299 -2.6684  1.0585
  314MOL0     H42383   9.796  10.083   7.995  0.6389  1.8456 -0.1418
  314MOL0     H42384   9.861   9.838   8.088 -2.6039 -2.8529  2.5323
  314MOL0     H42385   9.844   9.917   8.246  0.1660  2.2697  0.0811
  314MOL0     H42386   9.442   9.855   8.131 -0.2179 -0.9690 -2.0602
  314MOL0     H42387  10.241  10.343   8.106 -0.0156 -0.8264 -0.9616
  314MOL0     H42388  10.393  10.521   8.157  1.2308  1.2691  0.8497
  314MOL0     H42389  10.568  10.494   8.192  0.4429 -1.2498  0.0047
  314MOL0     H42390  10.506  10.446   8.036 -0.2143  0.5998  0.1458
  315MOL0     O42391   1.078   5.870   5.283 -1.2936 -0.1135  0.5379
  315MOL0     C42392   1.052   5.972   5.217  0.3739  0.9846  0.4477
  315MOL0     O42393   1.143   6.054   5.154  1.0156 -0.0480 -1.1368
  315MOL0     C42394   1.275   6.021   5.170  0.4663 -0.8756  0.2081
  315MOL0     C42395   1.331   5.903   5.117  0.7812  0.1485 -0.8494
  315MOL0     C42396   1.467   5.883   5.130 -0.7215  0.4879  0.3429
  315MOL0     C42397   1.547   5.981   5.196 -0.5312 -0.1056  0.4027
  315MOL0     O42398   1.680   5.944   5.220 -0.7242 -0.1122  0.5472
  315MOL0     C42399   1.729   5.962   5.356  0.0240  0.1683  0.7409
  315MOL0     C42400   1.882   5.956   5.363  0.9494  0.4488  0.0722
  315MOL0     C42401   1.929   5.829   5.293  0.3874 -0.8777  0.3063
  315MOL0     C42402   2.078   5.825   5.308 -0.3418  0.6708  1.0226
  315MOL0     C42403   2.135   5.709   5.217 -0.8620 -0.5566 -0.2680
  315MOL0     C42404   2.287   5.723   5.215  0.3668  1.0612  0.0089
  315MOL0     C42405   2.337   5.667   5.347  0.4313 -0.9903  0.5998
  315MOL0     C42406   2.487   5.651   5.334  0.1542  0.8461  0.5607
  315MOL0     N42407   2.547   5.609   5.469 -0.6202 -0.0291 -0.5061
  315MOL0     C42408   2.487   5.561   5.584 -0.4086 -0.4752  0.1988
  315MOL0     C42409   2.579   5.564   5.680  0.0477 -0.7054  0.0388
  315MOL0     C42410   2.569   5.513   5.818  0.1072  0.5982 -0.0160
  315MOL0     C42411   2.706   5.456   5.874  0.0962  0.0609  0.5222
  315MOL0     C42412   2.759   5.339   5.788 -0.5602 -0.2266  0.2123
  315MOL0     C42413   2.900   5.309   5.836  0.5221  0.8177 -1.4247
  315MOL0     O42414   2.942   5.172   5.802 -0.0395  0.1946 -0.2257
  315MOL0     C42415   3.077   5.140   5.830 -0.2850  0.6334 -0.3867
  315MOL0     C42416   3.184   5.199   5.762  0.4392  0.4816  0.0038
  315MOL0     C42417   3.315   5.159   5.784  0.2720 -0.1018 -0.0182
  315MOL0     C42418   3.342   5.053   5.876 -0.7476 -0.2242  0.6168
  315MOL0     C42419   3.478   5.018   5.897  0.2429 -0.9095 -0.5886
  315MOL0     O42420   3.586   5.087   5.839 -0.1334 -0.1827  0.1905
  315MOL0     C42421   3.721   5.042   5.858 -0.3194  0.4838  0.5048
  315MOL0     C42422   3.757   4.906   5.837  0.0855  0.2657 -0.1595
  315MOL0     C42423   3.892   4.866   5.858  0.8092  0.0637  0.8213
  315MOL0     C42424   4.001   4.952   5.884  0.3875 -0.3256  0.2566
  315MOL0     O42425   4.132   4.923   5.905 -0.2588  0.3507 -0.0721
  315MOL0     C42426   4.191   4.813   5.828  0.5668 -0.3637  0.3557
  315MOL0     C42427   4.329   4.777   5.880  0.3520  0.2323  0.5172
  315MOL0     C42428   4.439   4.885   5.874  0.5437 -0.1116  0.1934
  315MOL0     C42429   4.571   4.824   5.943 -0.2307 -0.3002 -0.2656
  315MOL0     C42430   4.697   4.900   5.897 -0.8712 -0.0128 -0.1914
  315MOL0     C42431   4.829   4.824   5.934  0.3587  0.7963  0.1183
  315MOL0     C42432   4.945   4.920   5.923  0.1399 -0.1075 -0.8806
  315MOL0     C42433   5.082   4.848   5.929  0.4412  0.5834  0.1026
  315MOL0    Cl42434   5.155   4.835   6.089  0.1890 -0.2794  0.4365
  315MOL0     C42435   3.959   5.091   5.886  0.2612  0.2107 -0.3545
  315MOL0     C42436   3.823   5.135   5.880 -0.1593 -0.1633  0.6599
  315MOL0     O42437   3.486   4.931   5.978  0.6200 -0.2953 -0.2437
  315MOL0     C42438   3.236   4.995   5.947 -0.0724  0.7036 -0.3094
  315MOL0     C42439   3.102   5.039   5.922 -0.0327 -0.4435 -0.6513
  315MOL0     N42440   2.695   5.622   5.622  0.0947 -0.3005 -0.4449
  315MOL0     N42441   2.671   5.652   5.504 -0.2823 -0.0220  0.4640
  315MOL0     C42442   1.495   6.095   5.229  0.0583 -0.3072  1.1604
  315MOL0     C42443   1.362   6.113   5.216  0.4055  0.1427 -0.6711
  315MOL0     C42444   0.908   5.991   5.182  0.0850  0.7610 -0.0856
  315MOL0     C42445   0.882   6.080   5.071  0.0606  0.1436 -0.4415
  315MOL0     C42446   0.750   6.113   5.038 -0.3288  0.4418  0.8344
  315MOL0     C42447   0.642   6.053   5.100 -0.8590  0.1657 -0.4510
  315MOL0     O42448   0.512   6.087   5.065 -0.3830 -0.0420 -0.0247
  315MOL0     C42449   0.397   6.032   5.119 -0.0522  0.6881  0.1120
  315MOL0     C42450   0.278   6.089   5.048  0.0896 -0.2835 -0.3462
  315MOL0     C42451   0.287   6.079   4.896  0.6681  0.0086  0.1550
  315MOL0     C42452   0.154   6.131   4.837 -0.6041  0.0860 -0.1184
  315MOL0     C42453   0.148   6.092   4.696  0.2622 -0.2674  0.9416
  315MOL0     C42454   0.120   6.059   4.579  0.6981 -0.4455 -0.1489
  315MOL0     C42455   0.667   5.966   5.203  0.4044  0.4275  1.9544
  315MOL0     C42456   0.794   5.933   5.243 -0.5176 -0.6549  0.8830
  315MOL0     C42457   0.811   5.831   5.355  0.4606  0.2485  0.7631
  315MOL0     H42458   1.264   5.833   5.069  1.5035 -0.7932 -0.5091
  315MOL0     H42459   1.521   5.791   5.108 -0.3081  0.2250  2.3070
  315MOL0     H42460   1.698   6.061   5.392  1.5128  0.5926  0.9542
  315MOL0     H42461   1.693   5.887   5.427 -0.4953  1.0623  1.4495
  315MOL0     H42462   1.910   5.957   5.468  0.9955 -1.0388  0.0860
  315MOL0     H42463   1.925   6.047   5.320  0.2814  0.3861 -0.7723
  315MOL0     H42464   1.900   5.845   5.189 -0.7166 -2.1095  0.4021
  315MOL0     H42465   1.887   5.741   5.343  1.7619 -1.1315  1.0676
  315MOL0     H42466   2.115   5.922   5.273 -1.9677  1.4832  1.4688
  315MOL0     H42467   2.117   5.820   5.410 -0.9794  0.3569  1.2553
  315MOL0     H42468   2.114   5.612   5.263  0.7886  0.5009  3.0189
  315MOL0     H42469   2.092   5.705   5.116 -1.0228  0.4344 -0.2469
  315MOL0     H42470   2.321   5.661   5.131 -0.2100  2.2517 -1.1420
  315MOL0     H42471   2.313   5.827   5.195 -1.5168  1.1631 -2.3300
  315MOL0     H42472   2.282   5.574   5.367 -2.3599  0.7099  1.4651
  315MOL0     H42473   2.314   5.733   5.430  1.0275 -0.1219  0.0871
  315MOL0     H42474   2.504   5.563   5.271  0.6060  0.4977  1.1556
  315MOL0     H42475   2.541   5.737   5.293 -2.5024  1.6764 -1.4285
  315MOL0     H42476   2.385   5.523   5.587 -1.0299  1.0750 -0.3221
  315MOL0     H42477   2.539   5.597   5.881 -2.2545  0.5688 -0.9795
  315MOL0     H42478   2.487   5.440   5.818  1.0083 -0.4629 -1.4266
  315MOL0     H42479   2.765   5.546   5.858 -0.4325  0.0626 -1.6869
  315MOL0     H42480   2.713   5.437   5.982  2.6409  1.2728  0.6503
  315MOL0     H42481   2.770   5.372   5.684  1.6422  0.1799  0.5183
  315MOL0     H42482   2.704   5.245   5.780  1.3327 -1.4194  0.5441
  315MOL0     H42483   2.886   5.302   5.944 -3.1961  3.0944 -1.5703
  315MOL0     H42484   2.977   5.384   5.817  2.5480 -0.2007  1.9899
  315MOL0     H42485   3.164   5.272   5.685  0.8846  1.3098  0.6552
  315MOL0     H42486   3.397   5.206   5.731 -0.4136  2.3888  1.0216
  315MOL0     H42487   3.699   4.822   5.803  1.7775 -2.8343  3.7266
  315MOL0     H42488   3.911   4.760   5.852 -1.2126 -0.2597 -1.3251
  315MOL0     H42489   4.123   4.729   5.842 -0.3338  0.0025 -1.4943
  315MOL0     H42490   4.204   4.841   5.723 -2.3442 -1.5748 -0.4355
  315MOL0     H42491   4.313   4.732   5.978  0.9965  0.3786  0.6964
  315MOL0     H42492   4.362   4.689   5.823 -0.1366 -1.1441  2.2634
  315MOL0     H42493   4.443   4.903   5.766 -0.5411 -0.2952  0.1068
  315MOL0     H42494   4.410   4.977   5.925 -0.6554  0.5399 -1.5404
  315MOL0     H42495   4.577   4.721   5.907  0.4838  0.3495 -2.1299
  315MOL0     H42496   4.564   4.824   6.052  0.9595  1.0480 -0.1477
  315MOL0     H42497   4.696   5.001   5.937 -0.5114  0.3932 -1.1669
  315MOL0     H42498   4.687   4.911   5.788  1.3457  1.2765 -0.3045
  315MOL0     H42499   4.824   4.779   6.033 -2.1598  0.7634  0.0328
  315MOL0     H42500   4.834   4.743   5.861 -1.5232  0.2062  0.5981
  315MOL0     H42501   4.935   4.991   6.006  1.0884 -1.9849  0.9431
  315MOL0     H42502   4.946   4.971   5.826  2.0437  1.1751 -0.2495
  315MOL0     H42503   5.075   4.747   5.887  3.3817  1.3573 -2.6531
  315MOL0     H42504   5.156   4.902   5.869  0.2184 -0.2680 -0.9797
  315MOL0     H42505   4.040   5.163   5.900  2.8150 -1.1097 -5.7821
  315MOL0     H42506   3.800   5.241   5.885 -1.8758 -0.4358 -0.9102
  315MOL0     H42507   3.257   4.919   6.021  0.7454  0.7398 -0.4952
  315MOL0     H42508   3.018   5.002   5.980 -1.0139  1.6423 -0.6778
  315MOL0     H42509   1.551   6.180   5.268 -1.2215  0.5335  1.2526
  315MOL0     H42510   1.316   6.207   5.246 -0.4420 -0.3485 -0.3842
  315MOL0     H42511   0.965   6.127   5.020  1.4703 -1.2312  0.4556
  315MOL0     H42512   0.748   6.170   4.946 -1.0426 -3.7131 -1.9925
  315MOL0     H42513   0.390   6.044   5.227  2.4731  0.5147  0.3521
  315MOL0     H42514   0.381   5.924   5.112 -2.7813  0.9313  1.2898
  315MOL0     H42515   0.265   6.192   5.082 -0.1603 -0.8716  1.4102
  315MOL0     H42516   0.191   6.030   5.078  0.0616 -0.8238 -1.4155
  315MOL0     H42517   0.299   5.972   4.876 -2.4223 -0.6768  1.3889
  315MOL0     H42518   0.369   6.142   4.861 -1.7855  2.3694 -1.7427
  315MOL0     H42519   0.071   6.076   4.883 -3.3281  2.3283 -2.0177
  315MOL0     H42520   0.150   6.238   4.857 -0.3594  0.4660 -1.9474
  315MOL0     H42521   0.070   6.035   4.487 -0.7815 -2.4795  1.1058
  315MOL0     H42522   0.588   5.908   5.250  1.5222 -3.1921 -0.2536
  315MOL0     H42523   0.864   5.877   5.438 -2.6101  4.2589  0.7905
  315MOL0     H42524   0.719   5.798   5.404 -0.9098  1.7896 -0.6382
  315MOL0     H42525   0.864   5.741   5.322  0.8677 -0.1598  2.4605
  316MOL0     O42526  10.322   5.610   9.549  0.7573  0.3457  1.4232
  316MOL0     C42527  10.316   5.543   9.653 -0.5318  0.6522  0.4025
  316MOL0     O42528  10.418   5.486   9.705 -0.0103  0.2897  0.4289
  316MOL0     C42529  10.543   5.525   9.652  0.4565 -1.2872 -1.4301
  316MOL0     C42530  10.626   5.624   9.719  0.8175 -0.5207  0.0585
  316MOL0     C42531  10.751   5.659   9.661 -0.2251 -0.2219  0.3185
  316MOL0     C42532  10.787   5.606   9.538 -0.3836  0.0019 -0.5570
  316MOL0     O42533  10.902   5.647   9.462 -0.1303 -0.0047 -0.1792
  316MOL0     C42534  10.976   5.760   9.517 -1.0123  0.1007  1.2154
  316MOL0     C42535  10.902   5.890   9.489  1.0819  0.2268  0.4470
  316MOL0     C42536  10.940   6.000   9.584 -0.4488  0.5788  0.1348
  316MOL0     C42537  10.973   6.134   9.518 -0.0183  0.2764 -0.4924
  316MOL0     C42538  11.127   6.152   9.493 -0.3084  0.3155 -0.1260
  316MOL0     C42539  11.197   6.216   9.617  0.3300 -0.9390  0.0837
  316MOL0     C42540  11.351   6.220   9.622  0.2649 -0.2368  0.0715
  316MOL0     C42541  11.437   6.097   9.585 -0.2689  0.4375  0.8278
  316MOL0     N42542  11.390   5.986   9.668 -0.2280 -0.3131  0.2139
  316MOL0     C42543  11.444   5.940   9.785 -0.5512  0.6307 -0.1757
  316MOL0     C42544  11.382   5.818   9.799 -0.4338 -0.4977  0.2148
  316MOL0     C42545  11.400   5.723   9.908  0.0662  0.1362  0.3035
  316MOL0     C42546  11.540   5.672   9.909  0.3498  0.8625 -0.6137
  316MOL0     C42547  11.555   5.562   9.799  0.0443  0.5722  0.4681
  316MOL0     C42548  11.627   5.437   9.862 -0.3838  0.3533 -0.8919
  316MOL0     O42549  11.751   5.462   9.929 -0.3007 -0.3423 -0.1991
  316MOL0     C42550  11.863   5.449   9.854 -0.0396 -0.5307 -0.3113
  316MOL0     C42551  11.873   5.466   9.713  0.7449 -0.0043  0.2610
  316MOL0     C42552  11.994   5.453   9.642  0.3147 -0.4690  0.2072
  316MOL0     C42553  12.112   5.411   9.710 -0.1951  1.1541 -0.4205
  316MOL0     C42554  12.241   5.394   9.643 -0.9865  0.4035 -0.5868
  316MOL0     O42555  12.352   5.400   9.730 -0.0602  0.0883  0.1154
  316MOL0     C42556  12.474   5.445   9.706 -0.0359  1.1872  0.4296
  316MOL0     C42557  12.502   5.513   9.587 -1.0279 -0.5282 -0.1708
  316MOL0     C42558  12.628   5.567   9.576  0.0007  0.2264  0.4979
  316MOL0     C42559  12.729   5.549   9.671  0.5942  0.5406 -0.0806
  316MOL0     O42560  12.860   5.591   9.643  0.2844 -0.8711  0.0858
  316MOL0     C42561  12.971   5.527   9.705 -0.1588 -0.6113 -0.1643
  316MOL0     C42562  13.100   5.551   9.625  0.5933 -0.0548 -0.2537
  316MOL0     C42563  13.129   5.700   9.581  0.1035 -0.4929 -0.7437
  316MOL0     C42564  13.279   5.728   9.577  0.1541 -0.4225 -0.1734
  316MOL0     C42565  13.344   5.670   9.448 -0.2599  1.5645  0.0001
  316MOL0     C42566  13.496   5.653   9.456  0.0980 -0.6361 -0.1164
  316MOL0     C42567  13.564   5.789   9.492 -0.5646 -0.1359 -0.2741
  316MOL0     C42568  13.674   5.833   9.402 -0.1591  0.5604  0.0132
  316MOL0    Cl42569  13.749   5.980   9.458  0.2551 -0.3253  0.1600
  316MOL0     C42570  12.698   5.477   9.793  0.5218  0.3796  1.4552
  316MOL0     C42571  12.566   5.427   9.807  0.1717  0.4072  0.0116
  316MOL0     O42572  12.251   5.393   9.520 -0.3270 -0.3752  0.1792
  316MOL0     C42573  12.095   5.399   9.847  0.1762  0.2752  0.2502
  316MOL0     C42574  11.984   5.418   9.918  0.1571  0.3116 -0.1922
  316MOL0     N42575  11.306   5.784   9.690  0.5948 -0.7345  1.0608
  316MOL0     N42576  11.310   5.890   9.615  0.2959 -0.0127 -0.2022
  316MOL0     C42577  10.697   5.519   9.473 -1.3642  0.5808 -0.4619
  316MOL0     C42578  10.581   5.480   9.531  0.0208  0.5566 -0.4527
  316MOL0     C42579  10.191   5.523   9.735  0.0996  0.1472 -0.1251
  316MOL0     C42580  10.190   5.417   9.832  0.8864  0.7131  0.2242
  316MOL0     C42581  10.078   5.384   9.897 -0.3590  0.0623 -0.3176
  316MOL0     C42582   9.953   5.445   9.865  0.2005  0.1003 -0.1318
  316MOL0     O42583   9.842   5.416   9.948 -1.1735  0.1950  0.0873
  316MOL0     C42584   9.709   5.427   9.893 -0.8506 -0.8558  0.0939
  316MOL0     C42585   9.608   5.353   9.983  0.0290 -0.0721  0.0636
  316MOL0     C42586   9.630   5.203   9.999 -0.2634  0.5875  0.1027
  316MOL0     C42587   9.538   5.123  10.097  0.2669 -0.4726 -0.3063
  316MOL0     C42588   9.518   4.986  10.068  0.4099 -0.5933 -0.1018
  316MOL0     C42589   9.516   4.877  10.035 -0.3046  0.8560 -0.3187
  316MOL0     C42590   9.954   5.557   9.782 -0.6940  0.3082 -0.0034
  316MOL0     C42591  10.070   5.598   9.716  0.0519  0.6681 -0.4659
  316MOL0     C42592  10.048   5.704   9.610  0.2657 -0.2537 -0.3277
  316MOL0     H42593  10.585   5.663   9.812  0.2386 -0.0635 -0.3826
  316MOL0     H42594  10.814   5.730   9.715  0.9995 -1.8901  1.1828
  316MOL0     H42595  10.999   5.753   9.624  0.7921  0.8246  0.9056
  316MOL0     H42596  11.070   5.773   9.463 -0.2110 -0.2663  2.4781
  316MOL0     H42597  10.795   5.867   9.494  1.9287 -5.1759  0.5110
  316MOL0     H42598  10.924   5.923   9.387  0.1757  1.1845  0.5443
  316MOL0     H42599  11.025   5.974   9.648  0.8365  1.5363 -1.1426
  316MOL0     H42600  10.857   6.026   9.651 -0.4666  1.9034 -0.3673
  316MOL0     H42601  10.920   6.155   9.424  0.1205 -0.7308 -0.8061
  316MOL0     H42602  10.939   6.209   9.589  2.9091 -0.5263  1.9568
  316MOL0     H42603  11.168   6.051   9.476  0.4335  0.8581 -1.7589
  316MOL0     H42604  11.148   6.218   9.409 -1.7976  0.6668 -0.2499
  316MOL0     H42605  11.152   6.315   9.630  1.5836 -0.1857 -1.0441
  316MOL0     H42606  11.168   6.156   9.704  0.2997 -0.5649  0.3345
  316MOL0     H42607  11.380   6.255   9.721  0.9982  2.3756 -0.9784
  316MOL0     H42608  11.374   6.292   9.543  1.0280 -0.7344 -0.1691
  316MOL0     H42609  11.420   6.070   9.480  3.6070  1.2719 -0.1709
  316MOL0     H42610  11.544   6.116   9.596 -0.0385 -0.3880  0.0594
  316MOL0     H42611  11.532   5.968   9.841 -0.1783  0.9460 -0.9060
  316MOL0     H42612  11.377   5.783   9.996  1.9781  0.5215  0.5859
  316MOL0     H42613  11.330   5.639   9.903 -1.3406  1.3423 -1.5816
  316MOL0     H42614  11.610   5.754   9.891 -0.0341  0.8318 -2.4190
  316MOL0     H42615  11.564   5.633  10.008  5.5743  0.6245 -1.6933
  316MOL0     H42616  11.616   5.604   9.718 -1.3634  1.0218 -0.3863
  316MOL0     H42617  11.463   5.535   9.747 -0.9455  2.2599  1.2691
  316MOL0     H42618  11.644   5.353   9.794  3.5115  0.7183 -0.5846
  316MOL0     H42619  11.553   5.396   9.932 -1.2224  4.2816  0.8165
  316MOL0     H42620  11.791   5.486   9.644  1.7965 -1.6242 -1.5726
  316MOL0     H42621  11.986   5.454   9.534 -0.5736  1.2242  0.2597
  316MOL0     H42622  12.437   5.531   9.502 -0.7123 -2.4526 -0.8639
  316MOL0     H42623  12.647   5.620   9.484 -1.3987  2.2103  1.2691
  316MOL0     H42624  12.986   5.568   9.806  1.1329  0.3798 -0.7334
  316MOL0     H42625  12.948   5.420   9.711 -1.7473 -0.3319 -1.0078
  316MOL0     H42626  13.184   5.517   9.687 -0.5198  0.5099  1.6602
  316MOL0     H42627  13.097   5.497   9.530 -1.3253  0.2851 -0.4280
  316MOL0     H42628  13.081   5.731   9.488 -1.6344 -0.2156  0.2000
  316MOL0     H42629  13.096   5.773   9.656  0.3997 -0.4048 -0.6992
  316MOL0     H42630  13.328   5.686   9.665 -0.0376  1.2590  0.7769
  316MOL0     H42631  13.289   5.837   9.583 -0.9850 -0.3851  1.7863
  316MOL0     H42632  13.314   5.725   9.358  2.0958  0.3030 -1.6616
  316MOL0     H42633  13.304   5.569   9.431 -1.7006  2.5439 -3.4103
  316MOL0     H42634  13.518   5.578   9.532 -0.3755 -0.2945  0.3671
  316MOL0     H42635  13.532   5.605   9.364 -0.1798 -0.1935 -0.4585
  316MOL0     H42636  13.611   5.771   9.590 -0.5536  1.8858  0.1413
  316MOL0     H42637  13.485   5.864   9.504 -2.4487 -1.2951 -3.9655
  316MOL0     H42638  13.751   5.756   9.398  0.6034  1.1844  1.7086
  316MOL0     H42639  13.646   5.855   9.299  1.9473  1.8701 -0.3512
  316MOL0     H42640  12.771   5.465   9.872  1.5675  0.6468  0.5721
  316MOL0     H42641  12.539   5.377   9.900 -1.3037 -2.6132 -1.8727
  316MOL0     H42642  12.179   5.364   9.907 -0.2535 -0.7077  0.3037
  316MOL0     H42643  11.983   5.408  10.026 -2.2987 -2.3532 -0.3047
  316MOL0     H42644  10.726   5.495   9.371  4.5346 -1.4014  1.2735
  316MOL0     H42645  10.504   5.423   9.480 -2.1355 -1.2611  4.3131
  316MOL0     H42646  10.266   5.341   9.849  0.0571  0.0436  1.0655
  316MOL0     H42647  10.087   5.311   9.977 -0.4645  2.4549  2.0230
  316MOL0     H42648   9.709   5.372   9.798 -0.5194 -1.5914  0.5060
  316MOL0     H42649   9.674   5.530   9.887 -5.8574 -2.3359 -0.9795
  316MOL0     H42650   9.510   5.364   9.936 -0.7506 -1.5556  1.2822
  316MOL0     H42651   9.607   5.391  10.085 -0.9873 -0.1171  0.0838
  316MOL0     H42652   9.730   5.190  10.043 -0.9379 -1.4461  1.1123
  316MOL0     H42653   9.625   5.162   9.898 -0.6681  2.9212 -0.8980
  316MOL0     H42654   9.590   5.127  10.193 -0.0949  0.3898 -0.1347
  316MOL0     H42655   9.437   5.165  10.104  0.7621  0.9046 -1.0656
  316MOL0     H42656   9.517   4.775  10.002 -2.9390  0.6705 -0.0100
  316MOL0     H42657   9.870   5.625   9.772  0.7702  1.9260 -1.9052
  316MOL0     H42658  10.008   5.655   9.520  4.0351 -2.1005 -1.1934
  316MOL0     H42659   9.988   5.791   9.637  0.2226 -0.4037  0.0724
  316MOL0     H42660  10.142   5.749   9.578  0.6010  0.0820  1.0780
  317MOL0     O42661   6.844   5.380   5.719  0.0590  0.2531 -0.7340
  317MOL0     C42662   6.768   5.471   5.675  0.4360  0.5358 -0.2908
  317MOL0     O42663   6.802   5.571   5.588  0.2817 -0.7389  0.2485
  317MOL0     C42664   6.936   5.581   5.551  0.5963  0.2934 -0.1853
  317MOL0     C42665   6.977   5.566   5.418  1.2501  0.2579  1.1911
  317MOL0     C42666   7.113   5.583   5.378  0.7767 -0.2589  0.1836
  317MOL0     C42667   7.213   5.600   5.476  0.5298  0.1109  0.4469
  317MOL0     O42668   7.344   5.629   5.454 -0.1257  0.7388  0.1441
  317MOL0     C42669   7.389   5.615   5.317 -0.4308  0.3377 -0.2881
  317MOL0     C42670   7.542   5.624   5.327  0.8083 -0.2386  0.0193
  317MOL0     C42671   7.609   5.534   5.424 -0.8674 -0.6124  1.6875
  317MOL0     C42672   7.763   5.536   5.415  0.9923 -0.1961 -0.6659
  317MOL0     C42673   7.819   5.421   5.505 -0.9496  0.4178  0.6556
  317MOL0     C42674   7.981   5.421   5.510 -0.0533  0.2115 -0.4139
  317MOL0     C42675   8.034   5.326   5.613  0.0795 -0.6186 -0.3364
  317MOL0     C42676   8.179   5.287   5.607 -0.2579  0.6212 -0.3703
  317MOL0     N42677   8.257   5.406   5.648 -0.4990 -0.1742 -0.1428
  317MOL0     C42678   8.277   5.456   5.772 -0.5931 -0.1456 -0.1772
  317MOL0     C42679   8.366   5.558   5.764  0.6613  0.4149  0.6214
  317MOL0     C42680   8.419   5.651   5.862 -0.4980  0.6736 -0.7397
  317MOL0     C42681   8.571   5.647   5.877  0.7313 -0.4372 -0.3718
  317MOL0     C42682   8.627   5.513   5.925 -0.5749 -0.1357  0.3095
  317MOL0     C42683   8.768   5.497   5.889 -0.4204 -0.1970  0.0638
  317MOL0     O42684   8.857   5.599   5.940  0.2064 -0.2839 -0.5141
  317MOL0     C42685   8.984   5.606   5.904 -0.4637  0.0880  0.1135
  317MOL0     C42686   9.014   5.646   5.777 -0.3160  0.2266 -0.1171
  317MOL0     C42687   9.145   5.670   5.732  0.4909  0.7664 -0.2330
  317MOL0     C42688   9.247   5.639   5.820  0.1797 -0.0575 -0.2454
  317MOL0     C42689   9.393   5.659   5.774  0.2167 -0.6185 -0.7023
  317MOL0     O42690   9.401   5.657   5.631 -0.8045 -0.9018  0.1051
  317MOL0     C42691   9.518   5.669   5.570 -0.9045  1.0280 -0.3200
  317MOL0     C42692   9.636   5.608   5.621 -0.6791 -0.1915  0.3204
  317MOL0     C42693   9.755   5.630   5.552  0.2953  0.5578 -0.2547
  317MOL0     C42694   9.762   5.703   5.437 -0.7915 -0.1811 -0.4125
  317MOL0     O42695   9.884   5.718   5.374  0.2105 -0.3366 -0.0529
  317MOL0     C42696   9.965   5.830   5.408 -0.0634  0.1544  0.1000
  317MOL0     C42697  10.068   5.803   5.517  0.6043 -0.1061 -0.2222
  317MOL0     C42698  10.140   5.943   5.539  0.1185 -0.7243 -0.6058
  317MOL0     C42699  10.074   6.020   5.656  0.1692  0.5850 -0.1238
  317MOL0     C42700  10.146   6.158   5.674 -0.2921  0.2286 -0.6589
  317MOL0     C42701  10.062   6.234   5.781  0.2014 -0.3434 -0.3261
  317MOL0     C42702  10.067   6.173   5.924 -0.1024  1.0729 -0.6583
  317MOL0     C42703   9.924   6.164   5.980  0.6322 -0.2054  0.1399
  317MOL0    Cl42704   9.831   6.042   5.883 -0.3165 -0.1283 -0.1880
  317MOL0     C42705   9.654   5.765   5.381 -0.0076  0.7724 -0.4077
  317MOL0     C42706   9.534   5.752   5.452  0.3076 -0.5207  0.3165
  317MOL0     O42707   9.485   5.665   5.855 -0.2819  0.6289 -0.0233
  317MOL0     C42708   9.221   5.594   5.948 -1.0142  0.1273 -0.5788
  317MOL0     C42709   9.088   5.575   5.993  0.6659 -1.0294  0.5526
  317MOL0     N42710   8.401   5.563   5.631  0.0735 -0.3045  0.2435
  317MOL0     N42711   8.323   5.488   5.563 -0.0281 -0.0136  0.8043
  317MOL0     C42712   7.166   5.612   5.611  0.0529 -0.1566  0.8042
  317MOL0     C42713   7.033   5.599   5.647 -0.6387 -0.3208 -0.8777
  317MOL0     C42714   6.628   5.496   5.724  0.2842  0.6248  0.5273
  317MOL0     C42715   6.550   5.604   5.687 -0.0357 -0.0089 -0.2659
  317MOL0     C42716   6.422   5.628   5.732  0.1823 -0.2499  0.1371
  317MOL0     C42717   6.363   5.544   5.816  0.4199 -0.4547 -0.8259
  317MOL0     O42718   6.240   5.571   5.872 -0.2274 -0.3168 -0.0842
  317MOL0     C42719   6.157   5.682   5.836  0.2034  0.1450  0.8336
  317MOL0     C42720   6.020   5.702   5.909  0.1371 -0.9361  0.0950
  317MOL0     C42721   6.016   5.645   6.048  0.5852 -0.2810 -0.3829
  317MOL0     C42722   5.883   5.667   6.119 -0.7379  1.1916  0.1587
  317MOL0     C42723   5.842   5.803   6.114  0.3367  0.7000  0.1557
  317MOL0     C42724   5.798   5.912   6.095  0.7696  0.2040 -0.0203
  317MOL0     C42725   6.437   5.438   5.874 -0.1616  0.5068 -0.0084
  317MOL0     C42726   6.556   5.403   5.814 -0.3417  0.2194  0.2740
  317MOL0     C42727   6.626   5.267   5.853  0.1708  0.3472 -0.3797
  317MOL0     H42728   6.895   5.545   5.349  0.1525  0.0187  2.5284
  317MOL0     H42729   7.130   5.594   5.272 -2.9919  0.8363 -0.4471
  317MOL0     H42730   7.353   5.518   5.282 -1.4554 -0.3048  2.2801
  317MOL0     H42731   7.356   5.692   5.248  0.6140  1.5727  0.5411
  317MOL0     H42732   7.568   5.720   5.373  1.0189 -0.2230 -0.1328
  317MOL0     H42733   7.592   5.623   5.230  1.8152  1.3228  0.4793
  317MOL0     H42734   7.581   5.430   5.406 -1.9768 -0.2943  1.4612
  317MOL0     H42735   7.572   5.570   5.521  0.3719  1.9646  1.2870
  317MOL0     H42736   7.805   5.518   5.316  2.7452 -1.4571  0.2458
  317MOL0     H42737   7.790   5.637   5.448 -1.9125  0.2000  0.8095
  317MOL0     H42738   7.768   5.410   5.601  1.1420  2.6555  2.1469
  317MOL0     H42739   7.801   5.330   5.447 -0.4734 -0.8586  2.4195
  317MOL0     H42740   8.026   5.395   5.414  0.4063 -3.3039  0.6312
  317MOL0     H42741   8.013   5.522   5.540 -4.0251  0.7559  2.9134
  317MOL0     H42742   7.986   5.228   5.622  1.4919 -1.1914  1.7493
  317MOL0     H42743   8.018   5.381   5.706 -0.8995 -1.1397 -0.1789
  317MOL0     H42744   8.203   5.206   5.677  0.2551  2.4465  1.6503
  317MOL0     H42745   8.205   5.256   5.505 -0.9837 -0.7384 -0.1681
  317MOL0     H42746   8.242   5.428   5.871 -0.4905  1.1810  0.2627
  317MOL0     H42747   8.387   5.752   5.834 -2.2002 -0.0654 -1.6232
  317MOL0     H42748   8.375   5.627   5.960  1.0780  1.6070  0.2395
  317MOL0     H42749   8.622   5.677   5.785  5.3053 -2.2247  1.2780
  317MOL0     H42750   8.576   5.728   5.951 -1.4219 -2.0533  1.7088
  317MOL0     H42751   8.580   5.429   5.873 -1.6213  1.8941 -2.2974
  317MOL0     H42752   8.623   5.509   6.034 -0.2165 -1.8997  0.2834
  317MOL0     H42753   8.769   5.501   5.779 -2.0812  2.2207  0.0620
  317MOL0     H42754   8.802   5.396   5.914  2.8389 -0.3186 -3.8276
  317MOL0     H42755   8.929   5.676   5.716 -1.0279  1.9082  1.5842
  317MOL0     H42756   9.156   5.707   5.630 -2.8990  2.2038 -0.2095
  317MOL0     H42757   9.642   5.565   5.721  1.6440  2.6203  1.5476
  317MOL0     H42758   9.846   5.580   5.582  1.2733 -0.1677 -3.8694
  317MOL0     H42759  10.018   5.869   5.320 -0.1656 -0.2053 -0.1222
  317MOL0     H42760   9.904   5.915   5.441  3.1137  2.3963  0.6622
  317MOL0     H42761  10.011   5.777   5.607  2.5346  0.4696  1.2328
  317MOL0     H42762  10.139   5.727   5.481 -0.1140  0.2658 -2.6107
  317MOL0     H42763  10.243   5.922   5.567  0.1074  1.0352  0.9677
  317MOL0     H42764  10.141   6.004   5.448 -0.8592  0.1523 -0.0441
  317MOL0     H42765  10.092   5.965   5.750  0.8176 -3.9542 -2.5969
  317MOL0     H42766   9.967   6.030   5.637 -0.4695  0.6542  2.9917
  317MOL0     H42767  10.144   6.215   5.580 -2.6515  0.1186 -0.7359
  317MOL0     H42768  10.246   6.136   5.711 -2.1393 -1.2268  4.2145
  317MOL0     H42769  10.109   6.332   5.792  1.5922 -1.2501  4.8400
  317MOL0     H42770   9.963   6.249   5.738 -0.1344  1.6553  0.9746
  317MOL0     H42771  10.133   6.236   5.984  0.4815  0.3199 -0.5016
  317MOL0     H42772  10.112   6.074   5.931 -0.6787  0.8399 -0.1461
  317MOL0     H42773   9.925   6.143   6.088  2.0490 -0.5357  0.0849
  317MOL0     H42774   9.875   6.259   5.961 -1.2387 -0.9465  1.0293
  317MOL0     H42775   9.663   5.824   5.290 -2.3996  1.8260 -0.0353
  317MOL0     H42776   9.440   5.799   5.423  0.8698 -0.8805 -2.3904
  317MOL0     H42777   9.301   5.569   6.017 -1.1504 -0.3613 -0.5949
  317MOL0     H42778   9.066   5.549   6.096  0.4332 -1.9737  0.2665
  317MOL0     H42779   7.234   5.609   5.696 -0.3440 -0.8020  1.1117
  317MOL0     H42780   6.994   5.619   5.747  1.2139  0.0441 -0.1877
  317MOL0     H42781   6.587   5.669   5.608 -2.5170  1.1546 -0.6073
  317MOL0     H42782   6.382   5.720   5.690 -0.1464 -1.7325 -3.0305
  317MOL0     H42783   6.147   5.681   5.727  0.2686 -0.0261  0.8301
  317MOL0     H42784   6.221   5.765   5.869 -1.5489  2.1064 -0.4116
  317MOL0     H42785   5.946   5.643   5.854 -0.9981 -2.7527  3.2982
  317MOL0     H42786   5.988   5.807   5.909  0.3927 -0.8228  1.9198
  317MOL0     H42787   6.091   5.697   6.110 -0.7266  1.2250 -0.0066
  317MOL0     H42788   6.010   5.536   6.056 -0.7052 -0.2225 -0.3686
  317MOL0     H42789   5.812   5.602   6.067  0.7203 -1.8470  1.7514
  317MOL0     H42790   5.894   5.627   6.220  3.7684  1.5238  0.0195
  317MOL0     H42791   5.760   6.011   6.080  1.2432  0.4168  0.1636
  317MOL0     H42792   6.391   5.373   5.948  1.4694  0.1393  0.7275
  317MOL0     H42793   6.557   5.211   5.916 -0.9649  1.1481 -0.8716
  317MOL0     H42794   6.660   5.215   5.763  3.1595 -1.2912  1.5641
  317MOL0     H42795   6.714   5.290   5.914  0.3939 -1.7283  0.1496
  318MOL0     O42796   4.810   7.757   6.363 -0.1395 -0.0502 -0.4138
  318MOL0     C42797   4.766   7.865   6.399 -0.5831 -0.3199  0.2437
  318MOL0     O42798   4.821   7.986   6.357  0.5133 -0.1093  0.2180
  318MOL0     C42799   4.946   7.994   6.306 -0.0666  0.2715  0.7799
  318MOL0     C42800   4.977   8.098   6.219 -1.3939  0.6737 -0.3961
  318MOL0     C42801   5.103   8.104   6.160  0.2214 -0.5291 -0.6324
  318MOL0     C42802   5.202   8.009   6.186 -0.4583 -0.7823  0.4376
  318MOL0     O42803   5.322   8.018   6.125 -0.5461  0.4149  0.1915
  318MOL0     C42804   5.384   8.143   6.084  1.0382 -0.0169 -0.3754
  318MOL0     C42805   5.528   8.124   6.066 -0.5598 -0.0116 -0.1879
  318MOL0     C42806   5.572   8.031   5.953 -0.2662  0.4746 -0.0216
  318MOL0     C42807   5.484   8.055   5.827 -0.6936 -0.3880  0.7740
  318MOL0     C42808   5.530   7.978   5.699  0.0947  0.1794  0.3431
  318MOL0     C42809   5.454   8.007   5.571 -0.5317  0.0755 -0.3480
  318MOL0     C42810   5.499   7.910   5.460 -0.3079 -0.3073 -0.0019
  318MOL0     C42811   5.439   7.951   5.329 -0.2346  0.4372  0.2190
  318MOL0     N42812   5.298   7.924   5.314  0.1782  1.0321  0.2187
  318MOL0     C42813   5.191   8.014   5.306 -0.1239  0.2117 -0.8183
  318MOL0     C42814   5.081   7.933   5.294 -0.0181  0.4080  0.0035
  318MOL0     C42815   4.940   7.983   5.288 -0.6283  0.0849  0.2963
  318MOL0     C42816   4.903   7.993   5.145 -0.3657  0.6275  0.7049
  318MOL0     C42817   4.769   8.050   5.129  0.8541  0.1530 -0.0062
  318MOL0     C42818   4.757   8.200   5.147 -0.4866 -0.2448  0.0726
  318MOL0     O42819   4.630   8.244   5.100 -0.2312 -0.6566 -0.0010
  318MOL0     C42820   4.599   8.375   5.077  1.2403  0.4228  0.1436
  318MOL0     C42821   4.691   8.475   5.049 -0.0847  0.7643 -0.1297
  318MOL0     C42822   4.652   8.613   5.040 -0.1923  0.1645 -0.5623
  318MOL0     C42823   4.514   8.654   5.043  0.0521  0.0852 -0.0267
  318MOL0     C42824   4.470   8.780   4.992  0.6618  0.5836  0.1048
  318MOL0     O42825   4.331   8.801   4.985 -0.7006 -1.2493 -0.4603
  318MOL0     C42826   4.281   8.915   4.933 -0.2577  0.4987  0.6483
  318MOL0     C42827   4.237   8.905   4.803  0.2214 -0.5248  0.3334
  318MOL0     C42828   4.169   9.017   4.736 -0.1024 -0.5223 -0.7197
  318MOL0     C42829   4.147   9.131   4.815  0.3128  0.7674  0.2040
  318MOL0     O42830   4.094   9.232   4.742 -0.1458 -0.1169  0.4574
  318MOL0     C42831   4.080   9.360   4.817 -0.6280 -0.4062 -0.8119
  318MOL0     C42832   4.028   9.473   4.730  0.6334 -0.0666  0.7987
  318MOL0     C42833   3.892   9.452   4.698  0.2825  0.3288  0.0418
  318MOL0     C42834   3.840   9.560   4.607 -0.3000 -0.3616 -0.5521
  318MOL0     C42835   3.686   9.542   4.589 -0.2970  0.4777  0.6361
  318MOL0     C42836   3.639   9.646   4.481  0.1177  1.6622  0.2421
  318MOL0     C42837   3.489   9.636   4.440 -0.3924 -0.3539  0.2121
  318MOL0     C42838   3.412   9.718   4.542 -0.0324 -0.0110 -0.9294
  318MOL0    Cl42839   3.454   9.885   4.557  0.5764 -0.4340  0.1054
  318MOL0     C42840   4.177   9.128   4.951  0.8455 -0.0201 -0.2811
  318MOL0     C42841   4.238   9.021   5.014 -0.6696 -0.5801  0.6407
  318MOL0     O42842   4.558   8.853   4.948 -0.3083 -0.3722 -0.3427
  318MOL0     C42843   4.432   8.549   5.072  0.8059  0.1586  0.1020
  318MOL0     C42844   4.468   8.415   5.092  0.2888 -0.1105  0.3472
  318MOL0     N42845   5.114   7.797   5.312 -0.3705 -0.3833 -0.0433
  318MOL0     N42846   5.243   7.799   5.315 -0.1027  0.8686 -0.3408
  318MOL0     C42847   5.170   7.902   6.272 -0.5537  0.3081  0.2504
  318MOL0     C42848   5.042   7.898   6.336 -0.5118 -0.3725  0.2923
  318MOL0     C42849   4.639   7.870   6.465 -0.0022 -0.5192  0.5117
  318MOL0     C42850   4.549   7.978   6.449 -0.0851  0.9754 -0.1004
  318MOL0     C42851   4.435   7.991   6.533 -0.0147  0.1062  0.1149
  318MOL0     C42852   4.404   7.894   6.621 -0.0980 -0.8066 -0.4614
  318MOL0     O42853   4.287   7.907   6.683  0.0047  0.1777  0.2449
  318MOL0     C42854   4.227   7.805   6.757  0.4663  0.3094  0.0477
  318MOL0     C42855   4.076   7.786   6.717 -0.4427  0.2581 -0.6298
  318MOL0     C42856   3.995   7.731   6.835 -0.1772 -0.2073  0.3501
  318MOL0     C42857   3.859   7.705   6.775 -0.1845  0.2044  0.3196
  318MOL0     C42858   3.799   7.599   6.849  0.0072  0.3848  0.1529
  318MOL0     C42859   3.774   7.493   6.901 -0.5738  0.8060  0.3603
  318MOL0     C42860   4.498   7.791   6.650 -0.2172 -0.0651  0.2084
  318MOL0     C42861   4.616   7.781   6.574  1.2222 -0.5484  0.1418
  318MOL0     C42862   4.717   7.676   6.623 -0.2374  0.5995 -0.7525
  318MOL0     H42863   4.896   8.160   6.181  0.4945  2.5981 -1.5279
  318MOL0     H42864   5.110   8.188   6.092 -1.2091 -0.1687 -0.3721
  318MOL0     H42865   5.326   8.184   6.000 -0.9556 -0.6685  0.6086
  318MOL0     H42866   5.365   8.216   6.163 -2.3781 -1.0460 -0.0710
  318MOL0     H42867   5.554   8.071   6.158 -3.4184 -3.0506 -0.9270
  318MOL0     H42868   5.582   8.219   6.068 -1.3574  0.5085  3.4955
  318MOL0     H42869   5.570   7.926   5.986  3.1179  0.4020  0.2914
  318MOL0     H42870   5.674   8.059   5.928  0.7114 -5.2622 -4.6065
  318MOL0     H42871   5.378   8.035   5.847 -0.5830 -0.3390  1.4248
  318MOL0     H42872   5.494   8.160   5.796 -1.0598 -0.4305  0.4945
  318MOL0     H42873   5.630   8.019   5.683 -0.9944  2.9439 -0.0337
  318MOL0     H42874   5.531   7.871   5.722  0.3205  0.4954  1.9862
  318MOL0     H42875   5.351   7.990   5.603 -0.9275  1.0170 -1.0963
  318MOL0     H42876   5.464   8.110   5.538 -1.3664  0.3970  0.3725
  318MOL0     H42877   5.466   7.809   5.486 -0.0802  0.4988  4.1450
  318MOL0     H42878   5.608   7.911   5.457 -0.3030  1.4866  0.1598
  318MOL0     H42879   5.459   8.057   5.311  0.6252  0.0633 -1.1370
  318MOL0     H42880   5.488   7.896   5.248  1.5874  0.2759  1.3870
  318MOL0     H42881   5.195   8.122   5.299 -0.1740  0.4626  1.9936
  318MOL0     H42882   4.867   7.919   5.338 -0.2634 -1.5624 -1.1741
  318MOL0     H42883   4.937   8.085   5.327 -1.8511  0.8330 -1.5967
  318MOL0     H42884   4.982   8.050   5.095  1.4358 -2.0174  0.3433
  318MOL0     H42885   4.902   7.893   5.101 -1.2555  1.3170 -0.9698
  318MOL0     H42886   4.695   7.995   5.189  1.6991  1.4839  2.3944
  318MOL0     H42887   4.744   8.025   5.026  2.4382  0.1076 -0.4021
  318MOL0     H42888   4.842   8.246   5.096  1.3138 -2.2428  1.0842
  318MOL0     H42889   4.767   8.230   5.252  3.6897  2.5907 -0.8858
  318MOL0     H42890   4.796   8.463   5.023  0.4090  4.3878 -0.2620
  318MOL0     H42891   4.726   8.686   5.009 -0.5772  0.8905  0.2046
  318MOL0     H42892   4.258   8.813   4.749  2.0179 -0.5345  0.9808
  318MOL0     H42893   4.132   9.014   4.634 -1.0359 -0.5169 -0.3939
  318MOL0     H42894   4.016   9.344   4.905  1.7214  0.4310  1.1748
  318MOL0     H42895   4.183   9.380   4.847  0.1459 -0.3544 -3.3216
  318MOL0     H42896   4.040   9.568   4.782 -0.3772  0.5942 -0.1186
  318MOL0     H42897   4.080   9.470   4.633  2.5083  0.9111  1.7286
  318MOL0     H42898   3.878   9.352   4.657  0.7477  0.0126  0.6283
  318MOL0     H42899   3.833   9.455   4.790  0.5903  1.3365  0.2164
  318MOL0     H42900   3.891   9.558   4.510  0.8752 -3.4697  0.0098
  318MOL0     H42901   3.862   9.660   4.645 -0.5116 -0.0490 -1.2346
  318MOL0     H42902   3.648   9.558   4.690  1.2999 -2.9688  1.9661
  318MOL0     H42903   3.660   9.438   4.568  2.2625 -0.5177  1.8939
  318MOL0     H42904   3.671   9.743   4.521  0.7880  2.1078 -1.2963
  318MOL0     H42905   3.706   9.628   4.397  1.2466 -2.1561  1.7466
  318MOL0     H42906   3.456   9.531   4.442  2.2463 -1.3541 -2.2966
  318MOL0     H42907   3.464   9.685   4.345  1.2122 -0.0171 -0.0618
  318MOL0     H42908   3.306   9.707   4.515 -0.5130  0.5998  0.5999
  318MOL0     H42909   3.418   9.663   4.637 -2.3505 -2.2070 -1.9196
  318MOL0     H42910   4.153   9.208   5.020  0.2523  0.0984 -0.6081
  318MOL0     H42911   4.244   9.019   5.122  3.7141 -0.1724  0.5566
  318MOL0     H42912   4.327   8.563   5.094 -0.3037 -1.1102 -3.6186
  318MOL0     H42913   4.391   8.343   5.118 -1.1335  1.6970  1.3911
  318MOL0     H42914   5.234   7.818   6.293  0.1472  0.9203  0.6187
  318MOL0     H42915   5.029   7.809   6.397  2.6249 -0.7915  0.5231
  318MOL0     H42916   4.562   8.064   6.384  0.1382  2.7145  2.0747
  318MOL0     H42917   4.360   8.067   6.515  1.1067  1.8420  2.4155
  318MOL0     H42918   4.234   7.837   6.862  1.5769  0.7937 -0.1699
  318MOL0     H42919   4.284   7.712   6.744  1.1108  0.8762 -1.3381
  318MOL0     H42920   4.070   7.710   6.639  0.7066 -0.7207  0.1973
  318MOL0     H42921   4.041   7.883   6.683  5.3841  2.9500 -0.2437
  318MOL0     H42922   3.994   7.800   6.920  1.4202  1.5849 -0.9690
  318MOL0     H42923   4.050   7.644   6.870  1.7495  0.2710 -1.2891
  318MOL0     H42924   3.796   7.794   6.765 -1.4429  0.5133  6.6365
  318MOL0     H42925   3.885   7.671   6.675  4.1823 -1.0268  1.6295
  318MOL0     H42926   3.763   7.402   6.957  1.8407  0.6778  0.7349
  318MOL0     H42927   4.479   7.711   6.721 -3.2726 -2.2489 -2.7401
  318MOL0     H42928   4.672   7.620   6.705 -0.9085  2.1797  0.0052
  318MOL0     H42929   4.743   7.607   6.542 -1.1696 -1.4255  0.5989
  318MOL0     H42930   4.810   7.721   6.658 -0.1469 -0.0816 -0.0937
  319MOL0     O42931   3.833   6.405   9.178 -0.0744  0.2158 -0.3028
  319MOL0     C42932   3.845   6.297   9.125 -0.2639  0.0020 -0.3002
  319MOL0     O42933   3.917   6.267   9.012  0.1207  0.2426  0.0710
  319MOL0     C42934   3.986   6.362   8.953  0.6312  0.3054 -0.8198
  319MOL0     C42935   3.951   6.420   8.831  0.2279  0.7770 -0.4269
  319MOL0     C42936   4.039   6.510   8.774  0.0192 -1.0649  0.3435
  319MOL0     C42937   4.162   6.545   8.829 -0.0694  0.0684 -0.2210
  319MOL0     O42938   4.245   6.619   8.757 -0.5138 -0.1739  0.3711
  319MOL0     C42939   4.339   6.533   8.688  1.0194 -1.1789  0.0197
  319MOL0     C42940   4.451   6.614   8.630  1.1053 -0.5385 -0.0521
  319MOL0     C42941   4.578   6.546   8.578 -0.1167 -0.2587 -0.2822
  319MOL0     C42942   4.609   6.566   8.429 -0.0320 -0.0223 -1.4660
  319MOL0     C42943   4.740   6.495   8.387 -0.1167 -0.4626 -0.3174
  319MOL0     C42944   4.857   6.588   8.420  0.1875 -0.8026 -0.3555
  319MOL0     C42945   4.984   6.529   8.392 -0.4545 -0.6445  0.4515
  319MOL0     C42946   5.092   6.616   8.433  0.4330 -0.2556 -0.3580
  319MOL0     N42947   5.220   6.544   8.413 -0.0990 -1.1840  0.1473
  319MOL0     C42948   5.308   6.569   8.312  0.0249 -0.0697  0.6167
  319MOL0     C42949   5.407   6.473   8.325 -0.3461 -0.6963 -0.1835
  319MOL0     C42950   5.521   6.460   8.234  0.0770 -0.2383 -0.0385
  319MOL0     C42951   5.656   6.497   8.303  0.0728  0.1320 -0.3012
  319MOL0     C42952   5.746   6.590   8.221 -0.3396 -0.3215 -0.3405
  319MOL0     C42953   5.885   6.562   8.272  0.0908  0.7502 -0.1975
  319MOL0     O42954   5.975   6.643   8.198 -0.7042  0.3146  1.3060
  319MOL0     C42955   6.092   6.660   8.260  0.1267 -0.0766 -0.5953
  319MOL0     C42956   6.176   6.769   8.212 -0.4981  0.1022  0.1296
  319MOL0     C42957   6.295   6.797   8.287 -0.2210  0.0305 -0.7529
  319MOL0     C42958   6.339   6.726   8.400 -0.8650 -0.1647 -0.1855
  319MOL0     C42959   6.477   6.747   8.459 -0.0591  0.3163  0.3048
  319MOL0     O42960   6.523   6.645   8.539 -0.1940  0.2602  0.1445
  319MOL0     C42961   6.634   6.656   8.611  0.2090 -0.1011 -1.0915
  319MOL0     C42962   6.636   6.606   8.747 -0.6663 -0.2945  0.7401
  319MOL0     C42963   6.754   6.615   8.824  0.6305 -0.4223 -0.6697
  319MOL0     C42964   6.868   6.666   8.780 -0.1282 -0.2376  0.3408
  319MOL0     O42965   6.981   6.660   8.856 -0.3671 -0.6001  1.0423
  319MOL0     C42966   7.089   6.749   8.836 -0.8977 -0.7564  0.3131
  319MOL0     C42967   7.095   6.840   8.963  0.2652 -0.1690 -0.1220
  319MOL0     C42968   7.219   6.934   8.937 -0.1460  0.6251 -0.1858
  319MOL0     C42969   7.345   6.879   9.005 -1.0931 -0.1415  0.1418
  319MOL0     C42970   7.448   6.993   9.033  1.0817 -0.1817 -0.9830
  319MOL0     C42971   7.520   6.978   9.169 -0.4779  0.5620  0.5860
  319MOL0     C42972   7.574   6.839   9.196  0.1503 -0.9607 -0.2498
  319MOL0     C42973   7.704   6.812   9.114 -0.0379 -0.3018 -0.3735
  319MOL0    Cl42974   7.777   6.656   9.158  0.2826 -0.0883 -0.0502
  319MOL0     C42975   6.875   6.698   8.641  0.2404 -0.0162  0.3937
  319MOL0     C42976   6.760   6.700   8.566 -0.1401  0.0446 -0.0925
  319MOL0     O42977   6.536   6.849   8.430 -0.1166  0.0533 -0.8703
  319MOL0     C42978   6.262   6.612   8.432  0.0849  0.3332 -0.1012
  319MOL0     C42979   6.140   6.579   8.364 -0.2486 -0.5366 -0.2263
  319MOL0     N42980   5.371   6.395   8.429 -0.2595 -0.3429  0.5586
  319MOL0     N42981   5.261   6.438   8.483  0.3990  0.2456  0.5275
  319MOL0     C42982   4.185   6.501   8.960  0.2241 -0.1814 -0.0027
  319MOL0     C42983   4.100   6.407   9.015  0.3220  1.1873  1.0554
  319MOL0     C42984   3.777   6.184   9.176  0.6100 -0.1339  1.1782
  319MOL0     C42985   3.673   6.131   9.094  0.7080 -0.3585  0.3893
  319MOL0     C42986   3.587   6.033   9.141  0.2843  0.3088 -0.3268
  319MOL0     C42987   3.623   5.965   9.261 -0.3554 -0.7565  0.4640
  319MOL0     O42988   3.549   5.845   9.286 -0.4981 -0.0135 -0.3013
  319MOL0     C42989   3.558   5.791   9.413 -0.4174  0.0709 -0.7046
  319MOL0     C42990   3.461   5.675   9.406  0.8525  0.0953 -0.2485
  319MOL0     C42991   3.315   5.724   9.448  0.1058  0.0966 -0.2389
  319MOL0     C42992   3.226   5.597   9.480 -0.3822  0.2520  0.2237
  319MOL0     C42993   3.094   5.626   9.526  0.0377 -0.4811  0.2018
  319MOL0     C42994   2.986   5.674   9.571 -0.2310  0.3060  0.4857
  319MOL0     C42995   3.723   6.016   9.338  0.6535  0.3228 -0.3779
  319MOL0     C42996   3.792   6.135   9.302  0.1244 -0.4566 -0.2297
  319MOL0     C42997   3.894   6.178   9.404  0.7393  0.0984 -0.2090
  319MOL0     H42998   3.855   6.396   8.786  1.7335 -0.0512 -3.5015
  319MOL0     H42999   4.004   6.550   8.680 -2.2818  0.6523  1.8209
  319MOL0     H43000   4.378   6.462   8.761 -0.7722 -1.0594  1.1735
  319MOL0     H43001   4.293   6.469   8.612 -1.0863 -1.3708  1.3673
  319MOL0     H43002   4.492   6.684   8.704  5.7990 -0.6464 -2.1599
  319MOL0     H43003   4.404   6.669   8.549  1.3456 -3.3532 -2.2589
  319MOL0     H43004   4.556   6.440   8.591 -0.0285 -0.3589 -0.8975
  319MOL0     H43005   4.659   6.569   8.648 -0.4686 -0.2022  0.1100
  319MOL0     H43006   4.520   6.526   8.379 -2.2135  1.9598  0.5578
  319MOL0     H43007   4.615   6.674   8.418 -0.8954  0.4285  1.5580
  319MOL0     H43008   4.758   6.405   8.447  1.3164  0.8580  1.3583
  319MOL0     H43009   4.725   6.467   8.283 -0.3979  2.6867 -1.2498
  319MOL0     H43010   4.847   6.681   8.362  0.6603  0.5356  1.5942
  319MOL0     H43011   4.857   6.618   8.525 -0.0999 -0.7722 -0.3633
  319MOL0     H43012   4.989   6.526   8.283  2.4702  0.5538  0.4728
  319MOL0     H43013   5.000   6.431   8.438  1.1616 -0.6456 -0.0615
  319MOL0     H43014   5.090   6.707   8.372  0.4131 -0.0603 -0.0686
  319MOL0     H43015   5.087   6.635   8.541 -0.4396 -1.2999 -0.1901
  319MOL0     H43016   5.295   6.647   8.238  0.7559  0.6304  1.2065
  319MOL0     H43017   5.518   6.359   8.192  0.6558 -0.0021 -0.6683
  319MOL0     H43018   5.521   6.533   8.152  3.6930 -2.3288 -2.1691
  319MOL0     H43019   5.639   6.554   8.394  1.0924  0.3099 -0.2140
  319MOL0     H43020   5.702   6.403   8.335 -0.7577 -1.4145 -3.2197
  319MOL0     H43021   5.722   6.690   8.259 -3.3466 -2.1999  3.3344
  319MOL0     H43022   5.748   6.580   8.112 -0.9956  1.5718 -0.5574
  319MOL0     H43023   5.922   6.460   8.255  1.2257  0.7965  1.7054
  319MOL0     H43024   5.874   6.572   8.381  0.3312 -1.1322  0.0349
  319MOL0     H43025   6.150   6.841   8.135  2.4612  1.5797  0.3690
  319MOL0     H43026   6.353   6.884   8.260  2.9002 -2.3838 -2.6652
  319MOL0     H43027   6.547   6.581   8.804 -0.7283  2.2218  1.8649
  319MOL0     H43028   6.749   6.574   8.925 -1.9593 -0.0886 -0.5837
  319MOL0     H43029   7.181   6.694   8.817  0.2487  1.1020  0.2513
  319MOL0     H43030   7.086   6.807   8.743 -0.1818 -0.4464  0.4800
  319MOL0     H43031   7.006   6.904   8.968  0.4715  0.3005 -1.7839
  319MOL0     H43032   7.114   6.781   9.053  2.0255  2.3319  1.2991
  319MOL0     H43033   7.235   6.940   8.829  3.1275 -0.7546  0.1039
  319MOL0     H43034   7.196   7.032   8.980  1.0901 -0.5435  3.5136
  319MOL0     H43035   7.402   6.808   8.945  1.5831  1.9275  0.0316
  319MOL0     H43036   7.317   6.829   9.099  2.0609 -0.6049  0.9429
  319MOL0     H43037   7.397   7.088   9.051  0.3264 -1.0530  1.9096
  319MOL0     H43038   7.510   7.001   8.943 -1.0816  1.3455 -2.4423
  319MOL0     H43039   7.608   7.041   9.181  0.3549 -0.4822  0.1280
  319MOL0     H43040   7.451   7.000   9.251  1.8940  1.1681  2.5419
  319MOL0     H43041   7.508   6.754   9.178 -0.4151 -0.3986 -0.8579
  319MOL0     H43042   7.589   6.828   9.304 -3.1535 -0.8916  0.3075
  319MOL0     H43043   7.675   6.820   9.009  0.0834  1.3501 -0.3064
  319MOL0     H43044   7.790   6.880   9.119  1.8613 -2.4526 -1.5963
  319MOL0     H43045   6.971   6.726   8.598 -0.4248 -2.7774 -3.2867
  319MOL0     H43046   6.773   6.739   8.466  4.1531 -0.9007 -0.0777
  319MOL0     H43047   6.299   6.551   8.514  2.5431  0.6939 -0.8764
  319MOL0     H43048   6.100   6.486   8.402 -0.7251 -0.8484 -1.4450
  319MOL0     H43049   4.278   6.528   9.009  1.0428  0.3826 -1.8005
  319MOL0     H43050   4.134   6.367   9.110  0.8811 -1.6699 -0.2467
  319MOL0     H43051   3.656   6.182   9.000  0.6873  1.1625  1.1799
  319MOL0     H43052   3.511   5.987   9.079 -0.1300  0.7064 -0.1135
  319MOL0     H43053   3.535   5.871   9.484  0.1988  2.3734 -2.9610
  319MOL0     H43054   3.659   5.752   9.432 -0.2405  1.0933  0.6344
  319MOL0     H43055   3.497   5.595   9.471  1.1871  2.4595  2.6643
  319MOL0     H43056   3.461   5.626   9.308 -0.9532 -0.4967  0.0017
  319MOL0     H43057   3.271   5.784   9.368 -1.4063 -0.7808 -0.1203
  319MOL0     H43058   3.321   5.775   9.544  0.7039  0.1144 -0.2865
  319MOL0     H43059   3.203   5.538   9.391 -6.1370 -0.8977  2.0890
  319MOL0     H43060   3.282   5.535   9.551  0.3303 -2.1088 -2.2332
  319MOL0     H43061   2.891   5.710   9.606  0.4898  0.8273  1.9964
  319MOL0     H43062   3.741   5.976   9.437 -0.9302 -0.4400 -0.3688
  319MOL0     H43063   3.917   6.102   9.479  1.9985 -1.1055 -1.7423
  319MOL0     H43064   3.990   6.211   9.362  1.4881 -0.3441  1.1115
  319MOL0     H43065   3.842   6.261   9.453  1.2708 -0.5284  1.4861
  320MOL0     O43066   1.595   2.123   5.047 -0.1533 -0.3278  0.1158
  320MOL0     C43067   1.495   2.176   5.092 -0.6255  0.5121 -0.3990
  320MOL0     O43068   1.497   2.266   5.203 -0.0668  0.0824  0.5437
  320MOL0     C43069   1.612   2.297   5.264  0.7095 -0.3486 -0.1196
  320MOL0     C43070   1.701   2.394   5.221  0.2880  0.0071 -0.4111
  320MOL0     C43071   1.820   2.421   5.296  0.0957  0.1789  0.0392
  320MOL0     C43072   1.842   2.345   5.414 -0.8801 -0.0258 -0.2620
  320MOL0     O43073   1.955   2.357   5.496  0.1384  0.6398  0.2410
  320MOL0     C43074   2.070   2.438   5.445 -0.1249  0.4325 -0.0482
  320MOL0     C43075   2.172   2.455   5.554  0.0805  0.5533 -0.1158
  320MOL0     C43076   2.279   2.556   5.530 -0.3610  0.1553  0.1974
  320MOL0     C43077   2.380   2.557   5.643  0.1673 -0.1185  0.1640
  320MOL0     C43078   2.490   2.664   5.609  0.1158  0.0649  0.4925
  320MOL0     C43079   2.573   2.706   5.722  0.5138  0.1372  0.0619
  320MOL0     C43080   2.624   2.588   5.807 -0.4791 -0.6534 -0.0059
  320MOL0     C43081   2.751   2.527   5.754  0.4267 -0.1789  0.2667
  320MOL0     N43082   2.864   2.595   5.812 -0.5003 -0.7272  0.4307
  320MOL0     C43083   2.917   2.571   5.941 -0.2829 -0.0587  0.1536
  320MOL0     C43084   2.997   2.680   5.973  0.0753 -0.0290  0.6820
  320MOL0     C43085   3.071   2.724   6.099  0.5574  0.5441  0.2522
  320MOL0     C43086   3.156   2.605   6.156  0.1982 -0.8707  0.8370
  320MOL0     C43087   3.243   2.644   6.276 -0.1235 -0.0077  0.3260
  320MOL0     C43088   3.302   2.511   6.332  0.2475  0.2952 -0.1865
  320MOL0     O43089   3.391   2.520   6.450 -1.2671  0.2176 -0.0329
  320MOL0     C43090   3.529   2.540   6.424  0.3773 -0.1672  0.7504
  320MOL0     C43091   3.614   2.512   6.529  0.8451  0.6455  0.1489
  320MOL0     C43092   3.752   2.514   6.509  0.3446  0.2467  0.1061
  320MOL0     C43093   3.813   2.542   6.387  0.0082 -0.3030 -0.5243
  320MOL0     C43094   3.964   2.558   6.370  0.8504 -0.2461  0.1108
  320MOL0     O43095   4.051   2.518   6.469 -0.1997  0.7341 -0.3014
  320MOL0     C43096   4.180   2.512   6.431 -0.5442  0.5359  1.7167
  320MOL0     C43097   4.277   2.544   6.524  0.2712 -0.3308  0.5903
  320MOL0     C43098   4.413   2.528   6.505 -0.1954 -0.3138 -0.3449
  320MOL0     C43099   4.463   2.507   6.380 -0.1683  0.3758  0.3409
  320MOL0     O43100   4.599   2.509   6.364  0.0849 -0.3043 -0.3839
  320MOL0     C43101   4.643   2.457   6.239 -0.3509 -0.4107 -0.4775
  320MOL0     C43102   4.792   2.430   6.254  0.4936 -0.3377 -1.4734
  320MOL0     C43103   4.888   2.552   6.267  0.3344  0.7774 -0.0782
  320MOL0     C43104   5.026   2.512   6.228 -0.0212 -0.2977  0.1259
  320MOL0     C43105   5.112   2.641   6.233  0.4525  0.4243  0.2829
  320MOL0     C43106   5.262   2.627   6.210  0.5923  0.2243 -0.4119
  320MOL0     C43107   5.356   2.742   6.254  0.0900 -0.2657  0.3364
  320MOL0     C43108   5.492   2.737   6.192  0.4090  0.5122  0.1236
  320MOL0    Cl43109   5.590   2.875   6.230 -0.3156  0.2496 -0.1642
  320MOL0     C43110   4.366   2.475   6.279 -0.5602  0.9247 -0.0405
  320MOL0     C43111   4.232   2.464   6.304  1.0433  0.1523  1.1017
  320MOL0     O43112   3.998   2.603   6.259 -0.0304 -0.1978  0.2419
  320MOL0     C43113   3.728   2.573   6.282 -0.0869 -0.3826  0.8038
  320MOL0     C43114   3.583   2.574   6.296 -0.9141  0.7219  0.7714
  320MOL0     N43115   2.999   2.768   5.864  0.0104 -0.3375 -0.7838
  320MOL0     N43116   2.916   2.725   5.775 -0.0538 -0.6671 -0.6511
  320MOL0     C43117   1.753   2.247   5.450  0.4275 -0.2614 -0.9374
  320MOL0     C43118   1.639   2.226   5.380 -0.0530 -1.3056 -0.1365
  320MOL0     C43119   1.359   2.134   5.051  0.3572  0.5127 -0.3360
  320MOL0     C43120   1.252   2.200   5.104 -0.3758  0.0158 -0.0262
  320MOL0     C43121   1.123   2.160   5.093 -0.1574  0.4999 -0.2202
  320MOL0     C43122   1.094   2.050   5.011  0.7927 -0.1969  0.2947
  320MOL0     O43123   0.958   2.014   5.009  0.0623  0.3050 -0.2840
  320MOL0     C43124   0.914   1.904   4.926 -0.4884 -0.0991  0.0041
  320MOL0     C43125   0.757   1.887   4.935 -0.7937  0.2180  0.0775
  320MOL0     C43126   0.700   1.880   5.076 -0.5810 -0.4618  0.2080
  320MOL0     C43127   0.563   1.833   5.068 -0.4300 -0.0389 -0.0155
  320MOL0     C43128   0.496   1.789   5.197 -0.3986 -0.1578 -0.0433
  320MOL0     C43129   0.449   1.761   5.306  0.9046  0.1049 -0.2926
  320MOL0     C43130   1.198   1.986   4.942 -0.4011 -0.2303 -0.2262
  320MOL0     C43131   1.331   2.026   4.957  1.1201  1.2752 -0.5397
  320MOL0     C43132   1.439   1.939   4.887  0.6234  0.0097  0.3678
  320MOL0     H43133   1.665   2.446   5.133 -2.3611 -0.6838  0.1743
  320MOL0     H43134   1.896   2.488   5.256  0.3913 -0.0324  0.2443
  320MOL0     H43135   2.120   2.389   5.361  0.2153  0.7408 -0.0259
  320MOL0     H43136   2.032   2.535   5.411  2.5897  0.9939 -1.8056
  320MOL0     H43137   2.229   2.362   5.547 -0.4332  0.3445 -2.1930
  320MOL0     H43138   2.114   2.462   5.647 -5.0227  0.9170 -2.9170
  320MOL0     H43139   2.242   2.659   5.537 -2.4769 -0.6416  1.6524
  320MOL0     H43140   2.325   2.530   5.435 -1.7468  2.5394 -1.2223
  320MOL0     H43141   2.317   2.594   5.725 -2.4278  5.2584 -3.6509
  320MOL0     H43142   2.411   2.455   5.668 -1.5354 -1.5027 -2.8384
  320MOL0     H43143   2.553   2.624   5.529 -0.7807  3.2779 -1.9870
  320MOL0     H43144   2.433   2.751   5.577 -1.5335 -1.4263 -0.8352
  320MOL0     H43145   2.665   2.758   5.692  1.4935  0.0895  2.7408
  320MOL0     H43146   2.509   2.770   5.782 -2.8258 -0.1979 -2.8235
  320MOL0     H43147   2.543   2.516   5.827 -0.7576  0.2555  2.4666
  320MOL0     H43148   2.644   2.614   5.912 -1.3250  0.5925 -0.1360
  320MOL0     H43149   2.762   2.420   5.774 -0.7979  0.1196  3.0664
  320MOL0     H43150   2.758   2.539   5.646 -0.5857 -0.7040  0.1392
  320MOL0     H43151   2.887   2.489   6.006 -1.9646  1.9395  2.0069
  320MOL0     H43152   3.135   2.809   6.073 -0.5922  0.9963 -1.2738
  320MOL0     H43153   3.001   2.765   6.172 -1.5958  0.8987 -1.8791
  320MOL0     H43154   3.081   2.529   6.180 -0.9334 -0.6592 -1.7325
  320MOL0     H43155   3.222   2.583   6.072 -1.8962  0.4997 -1.2614
  320MOL0     H43156   3.170   2.687   6.345 -2.0473  0.3163 -1.7836
  320MOL0     H43157   3.325   2.711   6.247 -0.3394 -1.0987 -3.3739
  320MOL0     H43158   3.348   2.447   6.256 -0.3601  0.6681 -0.8802
  320MOL0     H43159   3.216   2.455   6.368  0.9416 -0.4158  0.3928
  320MOL0     H43160   3.559   2.495   6.622 -2.4924 -0.4549 -1.8391
  320MOL0     H43161   3.812   2.494   6.598 -1.8434  0.5777  1.7323
  320MOL0     H43162   4.232   2.567   6.620  1.3054 -0.5609  1.1492
  320MOL0     H43163   4.474   2.540   6.594 -1.0793 -1.9509  0.5295
  320MOL0     H43164   4.594   2.361   6.221  0.9645 -1.3317  0.5565
  320MOL0     H43165   4.619   2.520   6.153 -3.8878 -2.4292 -1.1340
  320MOL0     H43166   4.807   2.366   6.342 -0.3072  0.2977 -0.8576
  320MOL0     H43167   4.809   2.364   6.169 -3.9166 -1.5341 -1.6614
  320MOL0     H43168   4.855   2.629   6.198 -1.7361  1.2430  1.3386
  320MOL0     H43169   4.881   2.597   6.367 -3.9779 -1.0320  0.6460
  320MOL0     H43170   5.040   2.478   6.125 -0.7368 -2.3725  0.6880
  320MOL0     H43171   5.062   2.428   6.287  2.7415 -2.0538 -3.6226
  320MOL0     H43172   5.099   2.676   6.336  2.2947  0.9015  0.3973
  320MOL0     H43173   5.069   2.711   6.161  1.1867  1.7383  1.0745
  320MOL0     H43174   5.306   2.536   6.250  0.8045 -0.0565 -1.2588
  320MOL0     H43175   5.264   2.617   6.101 -1.3356 -0.3367 -0.4261
  320MOL0     H43176   5.380   2.745   6.361  1.2655  0.2556  0.0809
  320MOL0     H43177   5.309   2.836   6.224 -1.3978 -0.6524  1.3494
  320MOL0     H43178   5.541   2.645   6.226 -0.3229 -0.1747 -0.6381
  320MOL0     H43179   5.470   2.726   6.086 -2.9514  1.6582  0.5790
  320MOL0     H43180   4.403   2.449   6.180 -0.8199  0.2622  0.0323
  320MOL0     H43181   4.174   2.440   6.216 -2.2364  1.7963  2.6326
  320MOL0     H43182   3.774   2.585   6.185 -0.5343  1.5749  0.7861
  320MOL0     H43183   3.524   2.582   6.206  2.3597 -2.9910 -2.0873
  320MOL0     H43184   1.770   2.195   5.543 -1.2026  2.0070  0.7499
  320MOL0     H43185   1.567   2.153   5.414 -1.3569 -0.1459 -0.3139
  320MOL0     H43186   1.263   2.280   5.177 -3.1814 -0.3114  0.9090
  320MOL0     H43187   1.034   2.201   5.141 -0.8815  0.1509 -1.2312
  320MOL0     H43188   0.976   1.822   4.965 -0.2147 -0.7918 -1.7796
  320MOL0     H43189   0.945   1.929   4.825 -2.2918 -0.1771 -0.6063
  320MOL0     H43190   0.747   1.790   4.886 -1.4697  1.3412 -2.1511
  320MOL0     H43191   0.700   1.962   4.879 -2.0562 -0.5628  0.2749
  320MOL0     H43192   0.712   1.977   5.124  0.7307 -1.4669  2.0045
  320MOL0     H43193   0.758   1.809   5.135  0.7765  0.5375  0.1327
  320MOL0     H43194   0.510   1.924   5.040 -0.3841  0.1480  0.4940
  320MOL0     H43195   0.552   1.748   5.001 -2.3637 -0.7145  1.0728
  320MOL0     H43196   0.437   1.749   5.412  0.2742  0.5838 -0.3025
  320MOL0     H43197   1.173   1.896   4.886 -0.5835 -0.9896  1.0404
  320MOL0     H43198   1.495   1.881   4.961 -1.3084 -0.9498  1.1313
  320MOL0     H43199   1.399   1.870   4.813  1.2706 -0.4195  0.4109
  320MOL0     H43200   1.492   2.017   4.831 -0.3203  1.0875  0.9281
  321MOL0     O43201   9.492   7.297   1.707 -1.0010  0.0824  0.0886
  321MOL0     C43202   9.505   7.423   1.701  0.6241 -0.3304 -0.3877
  321MOL0     O43203   9.614   7.497   1.730  0.7964  0.3635 -0.4995
  321MOL0     C43204   9.737   7.458   1.768  0.2894  0.1110 -0.4378
  321MOL0     C43205   9.771   7.324   1.807 -0.5252  0.0415  0.1795
  321MOL0     C43206   9.898   7.279   1.837 -0.8608 -0.2827 -0.4737
  321MOL0     C43207  10.001   7.374   1.832 -0.0359 -0.3207 -0.3222
  321MOL0     O43208  10.128   7.370   1.859 -0.6541 -0.3234  0.6159
  321MOL0     C43209  10.178   7.239   1.893 -0.4055  0.0233  0.5334
  321MOL0     C43210  10.318   7.263   1.958  0.1678 -1.2466 -0.3295
  321MOL0     C43211  10.417   7.339   1.862  0.4486 -0.0365  0.3532
  321MOL0     C43212  10.459   7.253   1.732  0.3529 -0.2278 -0.5830
  321MOL0     C43213  10.543   7.129   1.763 -0.1933 -0.5819 -0.3882
  321MOL0     C43214  10.688   7.161   1.807  0.5570 -0.6597 -0.1102
  321MOL0     C43215  10.769   7.027   1.833  0.2258  0.2715  0.6907
  321MOL0     C43216  10.896   7.049   1.911 -0.0983 -0.9747 -0.3448
  321MOL0     N43217  10.964   6.921   1.931  1.1382 -0.3189  0.0064
  321MOL0     C43218  11.060   6.862   1.848 -0.0287 -0.5869 -0.4929
  321MOL0     C43219  11.062   6.728   1.883 -0.1602 -0.3893  0.0115
  321MOL0     C43220  11.156   6.622   1.839  0.4209 -0.3557 -0.2656
  321MOL0     C43221  11.306   6.652   1.871  0.4449 -0.0562  0.6647
  321MOL0     C43222  11.348   6.622   2.012  0.2529  0.0618  0.1427
  321MOL0     C43223  11.356   6.746   2.091  0.6817  0.5238  0.2053
  321MOL0     O43224  11.417   6.728   2.222 -0.3583 -0.0799 -1.0298
  321MOL0     C43225  11.522   6.808   2.267 -1.2119 -0.0219 -0.5311
  321MOL0     C43226  11.626   6.741   2.338 -0.1760 -0.0336  0.1368
  321MOL0     C43227  11.724   6.824   2.402 -0.1339  0.0337 -0.0723
  321MOL0     C43228  11.716   6.972   2.391  0.6170  0.1991  0.2958
  321MOL0     C43229  11.826   7.058   2.438  0.5619 -0.1330 -0.6666
  321MOL0     O43230  11.934   7.006   2.500  0.3994 -0.0820 -0.3379
  321MOL0     C43231  12.027   7.098   2.552  0.5890  0.2624  0.2530
  321MOL0     C43232  12.000   7.229   2.603  0.2429 -0.8935  0.2289
  321MOL0     C43233  12.109   7.315   2.653  0.0716 -1.2382 -0.3137
  321MOL0     C43234  12.242   7.270   2.654 -0.0447  0.2274 -0.8280
  321MOL0     O43235  12.340   7.353   2.714  0.6073 -0.4132  0.6890
  321MOL0     C43236  12.477   7.328   2.697 -0.1466  0.2265  0.6973
  321MOL0     C43237  12.577   7.433   2.756 -0.2645  0.0047 -0.4774
  321MOL0     C43238  12.561   7.576   2.702 -0.5200 -0.5515  0.0098
  321MOL0     C43239  12.635   7.687   2.777  0.9609  0.5030 -0.3890
  321MOL0     C43240  12.661   7.799   2.677 -1.0742  0.5838  0.5124
  321MOL0     C43241  12.727   7.923   2.752 -0.3403 -0.1215  0.4824
  321MOL0     C43242  12.793   8.018   2.655 -0.6932  0.2851 -0.4848
  321MOL0     C43243  12.679   8.096   2.577  0.7950 -0.5252  0.3678
  321MOL0    Cl43244  12.757   8.225   2.472  0.4206  0.0228 -0.4870
  321MOL0     C43245  12.267   7.132   2.606 -0.1947 -0.8432 -0.1264
  321MOL0     C43246  12.154   7.054   2.570  0.2304  0.0093 -0.6325
  321MOL0     O43247  11.813   7.177   2.406  0.0023 -0.1780 -0.2852
  321MOL0     C43248  11.601   7.023   2.328 -0.2066 -0.4242  0.2639
  321MOL0     C43249  11.516   6.945   2.258 -0.0352  0.1102  0.1959
  321MOL0     N43250  10.966   6.707   1.981  1.3128  0.5877  0.0921
  321MOL0     N43251  10.912   6.820   2.003 -0.6203  0.1105 -0.4516
  321MOL0     C43252   9.972   7.509   1.791  0.3514  0.2686 -0.3402
  321MOL0     C43253   9.839   7.545   1.759 -0.1693 -0.3800 -0.0817
  321MOL0     C43254   9.392   7.503   1.651 -1.3839 -0.3618  0.0865
  321MOL0     C43255   9.411   7.607   1.552  0.4931  0.5282  0.7929
  321MOL0     C43256   9.309   7.679   1.487  0.0225 -0.1639  0.2596
  321MOL0     C43257   9.176   7.654   1.523 -0.0583 -0.1125  0.9883
  321MOL0     O43258   9.073   7.723   1.468  0.1327  0.0163 -0.4126
  321MOL0     C43259   9.089   7.798   1.344  0.8659 -0.8155 -0.4964
  321MOL0     C43260   9.107   7.945   1.380 -0.7954 -0.3333 -0.6715
  321MOL0     C43261   9.062   8.050   1.270  0.1044  0.7042  0.8220
  321MOL0     C43262   9.156   8.030   1.149  0.3345  0.3343  0.3917
  321MOL0     C43263   9.089   8.069   1.023  0.4389 -0.0206 -0.4169
  321MOL0     C43264   9.043   8.112   0.920 -0.9217 -0.6185 -0.4397
  321MOL0     C43265   9.154   7.557   1.629 -0.0155 -0.2672  0.1400
  321MOL0     C43266   9.262   7.481   1.693 -0.0633 -0.5988  0.4332
  321MOL0     C43267   9.224   7.385   1.809  0.4598  0.3745 -0.5967
  321MOL0     H43268   9.687   7.259   1.826 -1.7388  1.2532 -0.8313
  321MOL0     H43269   9.911   7.177   1.871 -0.5554  0.1175  0.6407
  321MOL0     H43270  10.116   7.177   1.958 -1.0610  0.6414  0.5072
  321MOL0     H43271  10.178   7.177   1.802 -1.6153  0.5429  0.1665
  321MOL0     H43272  10.356   7.169   1.999  1.7298 -0.2388  0.6980
  321MOL0     H43273  10.300   7.327   2.045  0.3828 -3.9199  1.8265
  321MOL0     H43274  10.509   7.362   1.917 -0.9924  0.5814  2.6281
  321MOL0     H43275  10.386   7.434   1.817 -2.3078 -0.3762  1.3460
  321MOL0     H43276  10.367   7.219   1.685 -1.7363  2.3805  1.2818
  321MOL0     H43277  10.517   7.314   1.662  2.1312  1.1362  1.8862
  321MOL0     H43278  10.503   7.076   1.849  1.2291  2.2505  2.2012
  321MOL0     H43279  10.557   7.065   1.675 -0.1804  0.4991 -1.2091
  321MOL0     H43280  10.732   7.213   1.722  0.0555 -3.3220 -2.1556
  321MOL0     H43281  10.693   7.229   1.892  0.8211 -1.4844  0.5537
  321MOL0     H43282  10.779   6.975   1.737 -3.1216  1.5025 -0.4969
  321MOL0     H43283  10.710   6.952   1.886 -0.2597 -2.5883 -3.4041
  321MOL0     H43284  10.956   7.131   1.871 -3.1840  1.8562  0.4384
  321MOL0     H43285  10.878   7.090   2.011 -0.2767  1.6876 -1.3905
  321MOL0     H43286  11.100   6.921   1.766 -3.9288  0.4055 -1.9068
  321MOL0     H43287  11.122   6.530   1.889 -1.3446  0.1912 -0.3984
  321MOL0     H43288  11.150   6.611   1.730 -0.8875  1.8424 -0.4714
  321MOL0     H43289  11.369   6.598   1.799  1.9032  1.3914  0.7991
  321MOL0     H43290  11.331   6.755   1.843  0.5704 -0.2595  0.0016
  321MOL0     H43291  11.451   6.584   2.014  0.4716  0.6481  1.8210
  321MOL0     H43292  11.283   6.546   2.055  0.0236  0.3871  0.3770
  321MOL0     H43293  11.252   6.777   2.103 -0.3217 -2.3973 -0.3052
  321MOL0     H43294  11.415   6.820   2.034 -1.5562  1.1677 -1.4366
  321MOL0     H43295  11.624   6.633   2.349 -0.3391 -0.2396 -1.5923
  321MOL0     H43296  11.806   6.768   2.446  0.2440 -0.8654 -1.8402
  321MOL0     H43297  11.900   7.269   2.610  0.9684  0.8296  1.8880
  321MOL0     H43298  12.086   7.404   2.710  0.4749 -2.7242  2.3409
  321MOL0     H43299  12.495   7.228   2.737  2.2205  0.9347  1.5032
  321MOL0     H43300  12.491   7.326   2.588  1.2081 -0.5888  0.8697
  321MOL0     H43301  12.571   7.424   2.865  0.8328 -2.0804 -0.5250
  321MOL0     H43302  12.672   7.393   2.720  0.0725 -1.0662  1.4554
  321MOL0     H43303  12.578   7.577   2.594  0.3647  2.1854  0.1045
  321MOL0     H43304  12.455   7.593   2.723 -0.4367 -1.4955  1.3264
  321MOL0     H43305  12.732   7.646   2.808  0.5978 -0.3343 -0.3243
  321MOL0     H43306  12.571   7.715   2.861  1.4692  0.0121  0.1745
  321MOL0     H43307  12.561   7.835   2.648 -0.7688  3.9809  3.1328
  321MOL0     H43308  12.718   7.754   2.595 -0.6633 -0.3106  1.2675
  321MOL0     H43309  12.652   7.980   2.808  0.4488  1.2142  0.2064
  321MOL0     H43310  12.801   7.886   2.823 -0.4488  0.0531  0.6881
  321MOL0     H43311  12.857   7.973   2.578 -0.6717  1.6438 -1.2914
  321MOL0     H43312  12.861   8.085   2.709 -1.8096  0.2279  1.0427
  321MOL0     H43313  12.622   8.029   2.512  1.6473  0.9754 -2.0471
  321MOL0     H43314  12.624   8.146   2.657 -1.5095 -0.3999 -1.1958
  321MOL0     H43315  12.366   7.089   2.614 -0.2541 -0.5479  3.7637
  321MOL0     H43316  12.168   6.948   2.550  0.4420  0.2911 -2.0828
  321MOL0     H43317  11.587   7.130   2.344 -0.2565 -0.5789  1.3027
  321MOL0     H43318  11.428   6.988   2.212 -1.0185  0.4284  2.2475
  321MOL0     H43319  10.060   7.572   1.783  2.2880 -1.8690  2.3332
  321MOL0     H43320   9.816   7.647   1.729 -1.4578 -0.1781  1.4278
  321MOL0     H43321   9.516   7.627   1.533  0.3077  0.1505 -0.7540
  321MOL0     H43322   9.322   7.771   1.431  0.4234  0.0666  0.7305
  321MOL0     H43323   8.998   7.779   1.285  0.6596  0.3675 -0.5815
  321MOL0     H43324   9.166   7.762   1.275  0.1633 -1.3347 -1.0228
  321MOL0     H43325   9.209   7.955   1.417 -0.5274 -3.6375 -0.1932
  321MOL0     H43326   9.051   7.956   1.473  1.3652 -0.9078  0.7565
  321MOL0     H43327   9.077   8.152   1.308 -0.5975  0.9818  0.3726
  321MOL0     H43328   8.956   8.032   1.252  0.5353 -2.1601  0.7096
  321MOL0     H43329   9.247   8.089   1.159  0.1891  0.3590  1.6566
  321MOL0     H43330   9.181   7.926   1.128 -0.2312  0.1416  0.6391
  321MOL0     H43331   9.011   8.167   0.834  2.3049  1.3453 -0.5383
  321MOL0     H43332   9.056   7.546   1.674  0.8221 -0.2041  2.0659
  321MOL0     H43333   9.231   7.283   1.769 -0.5700  0.7690 -1.8749
  321MOL0     H43334   9.279   7.415   1.898 -3.6839  0.4232  2.2379
  321MOL0     H43335   9.120   7.402   1.841  0.3324  1.0162 -1.3101
  322MOL0     O43336   1.779   9.588   4.745 -0.1245 -0.1464 -0.2118
  322MOL0     C43337   1.795   9.709   4.760  0.0834  0.2552  0.3192
  322MOL0     O43338   1.917   9.774   4.782  0.6850  0.4098 -0.0500
  322MOL0     C43339   2.042   9.721   4.809  0.4555  0.1562  0.0281
  322MOL0     C43340   2.071   9.621   4.905 -0.2384 -0.3055 -0.0262
  322MOL0     C43341   2.191   9.567   4.922  0.1432 -0.1012  0.3767
  322MOL0     C43342   2.298   9.615   4.845 -0.0530  0.2452  0.1221
  322MOL0     O43343   2.414   9.543   4.862 -0.4630 -1.1102 -0.2884
  322MOL0     C43344   2.537   9.606   4.841 -0.4965 -0.8602  0.4100
  322MOL0     C43345   2.555   9.713   4.955 -0.7549 -0.2043  1.2516
  322MOL0     C43346   2.698   9.765   4.960 -0.0688 -0.0412 -0.2643
  322MOL0     C43347   2.790   9.680   5.053 -0.4264 -0.6221 -0.1376
  322MOL0     C43348   2.934   9.732   5.032  0.5425 -0.3569  0.6516
  322MOL0     C43349   3.029   9.645   5.105 -0.5050 -0.3909  0.4866
  322MOL0     C43350   3.174   9.706   5.103  0.5403  0.3375  0.0761
  322MOL0     C43351   3.257   9.704   4.973 -0.8258  0.3031  0.2623
  322MOL0     N43352   3.206   9.784   4.865  0.7363  0.3101 -0.2190
  322MOL0     C43353   3.210   9.915   4.876 -0.1489  0.4501 -0.2365
  322MOL0     C43354   3.161   9.965   4.755 -0.3403 -0.3588  0.2739
  322MOL0     C43355   3.152  10.109   4.709 -0.5641 -0.3430  0.4101
  322MOL0     C43356   3.058  10.193   4.801 -0.8307  0.0015  1.3112
  322MOL0     C43357   2.921  10.164   4.755 -0.4873  0.6170 -0.1327
  322MOL0     C43358   2.811  10.218   4.849 -0.5847 -0.0470 -0.0073
  322MOL0     O43359   2.692  10.157   4.804  0.1881 -0.3647 -0.5352
  322MOL0     C43360   2.585  10.176   4.886  0.5937  0.8996 -0.2889
  322MOL0     C43361   2.572  10.267   4.992 -0.0469  0.2535  0.0370
  322MOL0     C43362   2.442  10.283   5.050 -0.9485  0.0296  0.9026
  322MOL0     C43363   2.335  10.197   5.007  0.7272  0.5841  0.2825
  322MOL0     C43364   2.196  10.201   5.071 -0.3620  1.3702  0.2005
  322MOL0     O43365   2.125  10.083   5.061  0.3547 -0.2529 -0.1996
  322MOL0     C43366   1.993  10.093   5.101 -0.8253 -1.0282 -1.0005
  322MOL0     C43367   1.903  10.058   5.014 -0.0082 -0.6182  0.3353
  322MOL0     C43368   1.775  10.049   5.060 -0.2620 -0.1312  0.0799
  322MOL0     C43369   1.737  10.077   5.190  0.7825 -0.5778 -0.4118
  322MOL0     O43370   1.608  10.068   5.240  0.6260  0.6103  0.3106
  322MOL0     C43371   1.503  10.045   5.139 -0.9777 -0.2373  0.2646
  322MOL0     C43372   1.372  10.021   5.214  0.1428  0.1431  0.7442
  322MOL0     C43373   1.248  10.022   5.119 -0.2592  0.4627 -0.3062
  322MOL0     C43374   1.128  10.072   5.199 -0.3008 -0.4232  0.0903
  322MOL0     C43375   1.090   9.966   5.301 -0.3134  0.9087  0.4019
  322MOL0     C43376   0.949   9.992   5.367  0.0466  0.2159  0.8312
  322MOL0     C43377   0.941  10.139   5.411  0.3079 -0.1389  0.6070
  322MOL0     C43378   0.829  10.149   5.507 -0.5172  0.4670  0.1738
  322MOL0    Cl43379   0.807  10.318   5.543 -0.5318 -0.1156  0.2567
  322MOL0     C43380   1.836  10.114   5.282 -1.0355  0.2573  0.0326
  322MOL0     C43381   1.973  10.116   5.237  0.3418  0.4445 -0.7589
  322MOL0     O43382   2.162  10.300   5.138 -0.3681  0.2204  0.0046
  322MOL0     C43383   2.364  10.095   4.918  0.5532  1.5068  0.3835
  322MOL0     C43384   2.487  10.087   4.853 -0.6605 -1.6399 -0.2857
  322MOL0     N43385   3.129   9.850   4.684 -0.7320  0.2868  0.4101
  322MOL0     N43386   3.160   9.742   4.748  0.3624 -0.0779  0.9893
  322MOL0     C43387   2.281   9.727   4.760 -0.5628  0.7626 -0.1470
  322MOL0     C43388   2.152   9.775   4.741  0.1977 -0.6843  0.1037
  322MOL0     C43389   1.677   9.787   4.734  0.7087  0.6978  0.4947
  322MOL0     C43390   1.578   9.783   4.836  0.6536  0.0861  0.6137
  322MOL0     C43391   1.461   9.862   4.823  0.8064  0.6911 -0.1823
  322MOL0     C43392   1.439   9.938   4.706 -0.0674 -0.3726 -0.9857
  322MOL0     O43393   1.335  10.020   4.716 -0.0434 -0.7086  0.6150
  322MOL0     C43394   1.314  10.114   4.606  0.3742  0.2417  0.6690
  322MOL0     C43395   1.194  10.211   4.610 -0.3956  0.4023  0.9102
  322MOL0     C43396   1.186  10.331   4.699  0.9891 -0.6487 -0.2843
  322MOL0     C43397   1.147  10.294   4.841 -0.0727  0.8291  0.0576
  322MOL0     C43398   1.002  10.253   4.848 -0.7751  0.3354 -0.4852
  322MOL0     C43399   0.889  10.220   4.865 -0.6515  0.1202  0.1335
  322MOL0     C43400   1.542   9.942   4.605 -0.9849  0.5215 -0.2031
  322MOL0     C43401   1.663   9.863   4.617  1.1990 -0.3076 -0.8331
  322MOL0     C43402   1.754   9.860   4.497  0.4067 -0.2159 -0.3693
  322MOL0     H43403   1.989   9.588   4.969  0.2127 -0.5326  0.4465
  322MOL0     H43404   2.213   9.481   4.984  2.4394 -1.6486 -2.3441
  322MOL0     H43405   2.616   9.530   4.838  1.6851  1.3339 -0.0583
  322MOL0     H43406   2.538   9.645   4.739  0.5613 -1.6248  0.1117
  322MOL0     H43407   2.535   9.674   5.055 -1.1115 -1.5353  0.6926
  322MOL0     H43408   2.494   9.802   4.936  1.3990  1.2942  0.9838
  322MOL0     H43409   2.689   9.869   4.991  0.4045 -0.3639  1.0344
  322MOL0     H43410   2.740   9.771   4.859 -0.3973 -0.6135 -0.4394
  322MOL0     H43411   2.741   9.693   5.150 -2.1018 -1.3534 -0.8391
  322MOL0     H43412   2.777   9.574   5.029  0.9327 -1.1079  1.1551
  322MOL0     H43413   2.972   9.733   4.929 -3.5090 -0.9338 -1.0325
  322MOL0     H43414   2.940   9.835   5.067  0.6743 -0.7093  1.6918
  322MOL0     H43415   3.020   9.642   5.214  2.4386 -3.9128  0.8683
  322MOL0     H43416   3.050   9.547   5.060 -0.9338  0.2285 -1.1183
  322MOL0     H43417   3.223   9.653   5.186 -2.4030 -0.8996  1.1769
  322MOL0     H43418   3.174   9.807   5.143 -1.9637  0.2285  0.5343
  322MOL0     H43419   3.358   9.742   4.990 -1.0418  2.7883 -2.9426
  322MOL0     H43420   3.270   9.599   4.946  1.4374  0.2457  1.3398
  322MOL0     H43421   3.231   9.983   4.958  1.8136  1.7462 -1.7054
  322MOL0     H43422   3.255  10.141   4.722 -0.9211  1.8020 -1.4300
  322MOL0     H43423   3.131  10.115   4.602 -0.2413  0.9672  0.4035
  322MOL0     H43424   3.076  10.155   4.902  1.7414 -2.6974  0.0077
  322MOL0     H43425   3.079  10.299   4.789 -1.8398 -0.0691 -2.3737
  322MOL0     H43426   2.909  10.056   4.770  0.6021  0.4210 -0.5812
  322MOL0     H43427   2.892  10.198   4.656 -4.0181 -1.2616  0.0874
  322MOL0     H43428   2.802  10.326   4.844  1.5931  0.1535 -0.6066
  322MOL0     H43429   2.837  10.177   4.948  2.0471 -0.5658 -0.8313
  322MOL0     H43430   2.651  10.335   5.023  0.0042  0.3846 -0.3644
  322MOL0     H43431   2.413  10.369   5.110  1.9442  1.7262  0.1033
  322MOL0     H43432   1.921  10.028   4.912 -0.2809  1.9837 -0.5615
  322MOL0     H43433   1.706  10.024   4.980 -0.2383  1.1367 -0.3638
  322MOL0     H43434   1.490  10.135   5.080 -3.5355 -0.5037  0.3249
  322MOL0     H43435   1.533   9.959   5.079  0.8193  0.4081  0.1702
  322MOL0     H43436   1.368   9.926   5.269 -4.5160  0.0291  0.5737
  322MOL0     H43437   1.365  10.110   5.278  4.9107  3.0283 -2.1398
  322MOL0     H43438   1.262  10.095   5.039 -0.5610 -1.6194 -2.3933
  322MOL0     H43439   1.228   9.926   5.070 -2.4788  1.2652 -1.0456
  322MOL0     H43440   1.043  10.090   5.133 -1.4304 -0.2115  1.5383
  322MOL0     H43441   1.150  10.166   5.252 -2.1514 -1.1664  2.3762
  322MOL0     H43442   1.161   9.973   5.384  1.7786 -0.2323 -1.1743
  322MOL0     H43443   1.114   9.866   5.264  2.0346  1.0316  1.4123
  322MOL0     H43444   0.864   9.985   5.298 -0.2602  0.5927  1.1675
  322MOL0     H43445   0.941   9.916   5.444  3.4714 -2.9640 -1.5714
  322MOL0     H43446   0.918  10.200   5.323 -0.9299  0.0214  1.0108
  322MOL0     H43447   1.036  10.174   5.451  1.6964  1.2358 -3.3453
  322MOL0     H43448   0.734  10.112   5.466 -0.9524  0.1877  1.3668
  322MOL0     H43449   0.852  10.094   5.599 -0.5988  0.9141  0.4629
  322MOL0     H43450   1.804  10.138   5.383  0.7837  0.6523  0.5687
  322MOL0     H43451   2.045  10.139   5.315 -2.2317  1.2590  1.5115
  322MOL0     H43452   2.281  10.026   4.906  0.3935  1.5605  1.0899
  322MOL0     H43453   2.499  10.004   4.785 -1.3924 -2.4433  0.5335
  322MOL0     H43454   2.367   9.764   4.706 -0.8539  1.0072 -0.4462
  322MOL0     H43455   2.125   9.864   4.686  1.4076 -0.2258  0.2287
  322MOL0     H43456   1.593   9.737   4.933 -0.5578  0.7472  1.1477
  322MOL0     H43457   1.390   9.861   4.904  0.1228  0.7773 -0.7714
  322MOL0     H43458   1.294  10.056   4.515 -2.8701 -0.7101  1.8398
  322MOL0     H43459   1.400  10.178   4.584 -1.1588  1.4425 -2.4321
  322MOL0     H43460   1.103  10.151   4.610 -0.8691  0.9822 -1.7779
  322MOL0     H43461   1.183  10.257   4.512 -1.0642  0.1641  0.8708
  322MOL0     H43462   1.106  10.402   4.677 -0.5776 -1.3365  2.7346
  322MOL0     H43463   1.269  10.402   4.691 -0.4849  1.1451 -0.0738
  322MOL0     H43464   1.210  10.211   4.871 -4.5029 -2.2318  1.9289
  322MOL0     H43465   1.155  10.384   4.903 -1.3480  1.3941 -0.5628
  322MOL0     H43466   0.783  10.205   4.874 -0.5260 -0.0378  1.5298
  322MOL0     H43467   1.540  10.002   4.514 -0.8522 -2.0101 -1.9589
  322MOL0     H43468   1.739   9.951   4.437  0.9612  1.0169  1.2784
  322MOL0     H43469   1.854   9.878   4.538  1.0539  0.2499 -2.0433
  322MOL0     H43470   1.743   9.773   4.432 -1.7415  2.6976 -4.3965
  323MOL0     O43471   0.064   2.027   7.036  0.3086  0.1317  0.1465
  323MOL0     C43472  -0.014   2.120   7.017  1.3645 -0.2346  0.8370
  323MOL0     O43473   0.002   2.228   6.932  0.1472 -0.0771  0.2212
  323MOL0     C43474   0.121   2.250   6.865 -0.0135  0.3066 -0.5694
  323MOL0     C43475   0.189   2.147   6.794  0.4473 -0.2734  0.1877
  323MOL0     C43476   0.298   2.171   6.712 -0.3537 -0.0740  0.2331
  323MOL0     C43477   0.344   2.309   6.701 -0.6403  0.0414 -0.3026
  323MOL0     O43478   0.455   2.356   6.633  0.2323 -0.7110  0.2839
  323MOL0     C43479   0.524   2.256   6.559 -0.7825 -0.5659 -0.4208
  323MOL0     C43480   0.611   2.343   6.468 -0.0982 -0.6499 -0.1851
  323MOL0     C43481   0.718   2.257   6.412  0.5328  0.1281  0.1324
  323MOL0     C43482   0.797   2.303   6.291 -0.4407  0.3979 -0.1849
  323MOL0     C43483   0.869   2.441   6.325  0.2158  0.2103 -0.0303
  323MOL0     C43484   0.967   2.470   6.211  1.5007  0.9584 -0.0603
  323MOL0     C43485   1.056   2.594   6.227 -0.2525  0.5391  0.1753
  323MOL0     C43486   1.162   2.577   6.337 -0.3176 -0.7969 -0.7006
  323MOL0     N43487   1.254   2.467   6.330  0.1239  0.3858 -1.0712
  323MOL0     C43488   1.312   2.425   6.216  0.0992  0.0385  0.2167
  323MOL0     C43489   1.393   2.317   6.255  0.1218 -0.8399  0.9649
  323MOL0     C43490   1.495   2.276   6.152  0.2108  0.0356  0.9180
  323MOL0     C43491   1.635   2.248   6.206 -0.7873 -0.5111 -0.1514
  323MOL0     C43492   1.705   2.369   6.280 -0.4835 -0.5305  0.8798
  323MOL0     C43493   1.845   2.338   6.336 -0.1921  0.4996  0.0529
  323MOL0     O43494   1.928   2.283   6.231  0.0449 -0.0540  1.2103
  323MOL0     C43495   2.044   2.226   6.266  0.5301  0.1847  0.0576
  323MOL0     C43496   2.080   2.117   6.193 -0.1496  0.6166  0.1460
  323MOL0     C43497   2.199   2.050   6.204 -0.0637 -0.2356 -0.5967
  323MOL0     C43498   2.299   2.104   6.288  0.4419 -0.7792 -0.3867
  323MOL0     C43499   2.422   2.035   6.323  0.1737  0.4435  1.0065
  323MOL0     O43500   2.490   2.085   6.431 -0.7667  0.0171 -0.1650
  323MOL0     C43501   2.627   2.063   6.459  0.4803 -0.7326  0.6130
  323MOL0     C43502   2.724   2.015   6.373  0.2566 -0.0017 -0.4428
  323MOL0     C43503   2.859   1.983   6.408 -0.2676  0.1236 -0.5381
  323MOL0     C43504   2.898   2.009   6.540 -0.4686  0.0191 -0.1879
  323MOL0     O43505   3.015   1.993   6.594 -0.6089 -0.1137 -0.8633
  323MOL0     C43506   3.114   1.915   6.520  0.5972  0.1359  0.2253
  323MOL0     C43507   3.257   1.920   6.581 -0.4121 -0.7540 -0.1186
  323MOL0     C43508   3.359   1.838   6.510 -0.0132  0.1064 -0.2824
  323MOL0     C43509   3.492   1.836   6.596 -0.5427 -0.1905  0.0097
  323MOL0     C43510   3.598   1.729   6.538 -0.0145 -0.2254 -0.0438
  323MOL0     C43511   3.541   1.590   6.496  0.1582  0.3872  0.4507
  323MOL0     C43512   3.503   1.490   6.609 -0.3255 -0.4753  0.2422
  323MOL0     C43513   3.505   1.351   6.563 -0.9485 -0.2081 -0.0447
  323MOL0    Cl43514   3.670   1.305   6.510 -0.5705 -0.0706  0.3754
  323MOL0     C43515   2.807   2.060   6.631  0.6006  0.3373  0.8121
  323MOL0     C43516   2.676   2.086   6.595  0.4740  0.1085  0.0594
  323MOL0     O43517   2.448   1.937   6.262 -0.3494 -0.2872  0.2970
  323MOL0     C43518   2.262   2.224   6.365 -0.7888  0.7017 -0.4282
  323MOL0     C43519   2.133   2.284   6.355  0.2220 -0.6785 -0.2845
  323MOL0     N43520   1.376   2.301   6.387 -0.1484  0.2307  0.1288
  323MOL0     N43521   1.279   2.376   6.432  0.0151 -0.4253  0.6896
  323MOL0     C43522   0.280   2.412   6.766 -0.5881  0.1247 -1.0152
  323MOL0     C43523   0.168   2.386   6.843 -0.5132 -0.9683  0.1806
  323MOL0     C43524  -0.139   2.130   7.102 -0.0932 -1.0703 -1.8699
  323MOL0     C43525  -0.202   2.259   7.125  0.3684 -0.0945 -0.4529
  323MOL0     C43526  -0.312   2.270   7.207 -0.7236  0.0531  0.7611
  323MOL0     C43527  -0.378   2.157   7.247  0.5214  0.8155 -0.4069
  323MOL0     O43528  -0.499   2.155   7.312  0.0750 -0.0859  0.3738
  323MOL0     C43529  -0.505   2.225   7.441  1.1013 -1.2230  0.3064
  323MOL0     C43530  -0.655   2.247   7.485 -1.3206 -0.6588 -0.5338
  323MOL0     C43531  -0.713   2.357   7.402 -0.5632 -1.1153 -1.2368
  323MOL0     C43532  -0.849   2.406   7.439  0.3981 -0.8837  0.3281
  323MOL0     C43533  -0.961   2.314   7.453  0.0040 -0.4254 -0.3848
  323MOL0     C43534  -1.057   2.237   7.485 -0.0202  0.1089 -0.0599
  323MOL0     C43535  -0.333   2.036   7.212  0.2504  0.7234 -0.2982
  323MOL0     C43536  -0.209   2.020   7.153 -0.0845 -0.0770 -0.1199
  323MOL0     C43537  -0.167   1.872   7.121  0.2767 -1.2408  0.0946
  323MOL0     H43538   0.130   2.056   6.786 -1.3610  0.6207  2.1878
  323MOL0     H43539   0.338   2.094   6.646  1.7082 -0.3941  1.7229
  323MOL0     H43540   0.587   2.189   6.616  0.2269 -1.2675 -2.2731
  323MOL0     H43541   0.454   2.211   6.487 -0.2310  0.6245 -1.7614
  323MOL0     H43542   0.654   2.432   6.515 -1.6802  0.6035 -0.9750
  323MOL0     H43543   0.549   2.387   6.389 -1.4784 -0.0916  1.1477
  323MOL0     H43544   0.671   2.169   6.367  0.8494  1.3043 -2.6855
  323MOL0     H43545   0.786   2.223   6.491  0.8477  0.9383  0.2199
  323MOL0     H43546   0.883   2.238   6.273  2.6881  2.5857  4.6587
  323MOL0     H43547   0.730   2.318   6.206  0.7226  1.3575 -0.9811
  323MOL0     H43548   0.804   2.526   6.346 -0.8523 -0.6209  0.0884
  323MOL0     H43549   0.921   2.431   6.421 -3.2306 -0.0453  1.9871
  323MOL0     H43550   1.009   2.372   6.186 -1.2114 -0.0555 -0.9503
  323MOL0     H43551   0.904   2.494   6.125 -0.6076 -0.1028  1.0998
  323MOL0     H43552   0.985   2.671   6.260 -0.3722  0.7406 -0.5326
  323MOL0     H43553   1.100   2.624   6.131 -0.7235  2.5877  0.5527
  323MOL0     H43554   1.225   2.667   6.336  1.8210 -2.1682 -3.3634
  323MOL0     H43555   1.114   2.568   6.434  2.1339  2.4817  1.0183
  323MOL0     H43556   1.313   2.469   6.117  1.4665  0.0998  0.2299
  323MOL0     H43557   1.456   2.194   6.090  2.1990 -0.7565  0.6266
  323MOL0     H43558   1.493   2.362   6.084 -4.2999  0.8735  1.8404
  323MOL0     H43559   1.632   2.163   6.275  0.9847 -0.7481 -0.3156
  323MOL0     H43560   1.703   2.224   6.124  0.6107  0.5526  0.6418
  323MOL0     H43561   1.647   2.405   6.366 -0.9656  1.2850 -0.1470
  323MOL0     H43562   1.722   2.455   6.214 -0.9785  2.3527  4.1951
  323MOL0     H43563   1.847   2.265   6.418  3.1169  1.2741  0.7857
  323MOL0     H43564   1.889   2.433   6.367 -0.1908  0.0407  1.5191
  323MOL0     H43565   2.010   2.079   6.119 -1.0473  1.3964  0.5805
  323MOL0     H43566   2.226   1.951   6.168  0.3173 -0.0531 -0.8200
  323MOL0     H43567   2.691   1.990   6.273  2.7885 -2.4453 -0.7866
  323MOL0     H43568   2.922   1.931   6.337 -2.7320 -2.6494 -0.8673
  323MOL0     H43569   3.066   1.818   6.506  0.7676  0.2839 -1.6703
  323MOL0     H43570   3.122   1.943   6.414 -0.7227  1.0228  0.3436
  323MOL0     H43571   3.292   2.024   6.578 -0.0782 -0.8332  0.6868
  323MOL0     H43572   3.249   1.901   6.689  2.9116 -0.1577  0.3531
  323MOL0     H43573   3.315   1.738   6.500 -0.3676  0.1702  0.5751
  323MOL0     H43574   3.382   1.868   6.407  1.4564 -1.3401 -0.4076
  323MOL0     H43575   3.469   1.817   6.701 -0.1355  0.3773  0.2073
  323MOL0     H43576   3.539   1.935   6.598  0.2869 -0.5570  2.5062
  323MOL0     H43577   3.675   1.715   6.614  0.7691  3.6838  0.0844
  323MOL0     H43578   3.646   1.770   6.449  0.1064  0.2901  0.2554
  323MOL0     H43579   3.454   1.596   6.430 -1.3032 -3.2544  1.7595
  323MOL0     H43580   3.617   1.553   6.427 -0.0316  1.1007 -0.1448
  323MOL0     H43581   3.402   1.519   6.641 -0.6144 -1.2493  0.0510
  323MOL0     H43582   3.576   1.500   6.690 -0.1440 -0.7122  0.1087
  323MOL0     H43583   3.486   1.299   6.657  1.0245  1.0333  1.0854
  323MOL0     H43584   3.423   1.329   6.494 -2.9480 -2.9806  2.9288
  323MOL0     H43585   2.849   2.080   6.729 -0.5278  1.4683  1.0893
  323MOL0     H43586   2.611   2.124   6.674 -0.4032 -1.6458  0.2353
  323MOL0     H43587   2.326   2.270   6.439 -0.7395 -0.2946  0.1735
  323MOL0     H43588   2.111   2.369   6.419 -1.4870 -0.8089 -0.6539
  323MOL0     H43589   0.327   2.510   6.762 -0.9473  0.3139 -0.6856
  323MOL0     H43590   0.124   2.472   6.892 -0.5805 -0.8990 -0.0018
  323MOL0     H43591  -0.168   2.353   7.084  1.5864 -0.0237  0.6610
  323MOL0     H43592  -0.360   2.362   7.241 -0.6974  0.2516  0.2635
  323MOL0     H43593  -0.456   2.322   7.450 -0.2285 -0.6247  1.7581
  323MOL0     H43594  -0.454   2.169   7.520  0.8458  0.1117  1.4627
  323MOL0     H43595  -0.657   2.264   7.593 -0.6163  1.6404 -0.8071
  323MOL0     H43596  -0.716   2.161   7.457 -0.3678 -0.9292 -1.8399
  323MOL0     H43597  -0.710   2.329   7.296 -3.8220 -0.3046 -1.6503
  323MOL0     H43598  -0.649   2.446   7.405 -2.6504  0.4514 -1.1261
  323MOL0     H43599  -0.838   2.472   7.526  0.0252  1.7310 -1.4713
  323MOL0     H43600  -0.880   2.480   7.365  0.1744  1.0037  2.2023
  323MOL0     H43601  -1.144   2.191   7.527 -0.2065  0.5781  0.0834
  323MOL0     H43602  -0.399   1.955   7.242 -1.0791  1.3939 -1.3210
  323MOL0     H43603  -0.150   1.862   7.013  0.4137  1.1084 -0.1473
  323MOL0     H43604  -0.067   1.854   7.162 -0.6686 -2.9926  1.8097
  323MOL0     H43605  -0.232   1.795   7.164 -3.4162  2.7579  2.4981
  324MOL0     O43606   8.312   5.202   3.830  0.3446  0.7392  0.5618
  324MOL0     C43607   8.296   5.109   3.748  0.4778 -1.4588 -0.1276
  324MOL0     O43608   8.179   5.043   3.733 -0.4671  0.3784 -1.2058
  324MOL0     C43609   8.083   5.080   3.822  0.9231 -1.0038  0.1645
  324MOL0     C43610   7.956   5.111   3.773 -0.0310 -0.7513 -0.3186
  324MOL0     C43611   7.849   5.130   3.862  0.4116 -0.2210  0.3078
  324MOL0     C43612   7.863   5.106   3.996  0.9563  0.1191  0.5604
  324MOL0     O43613   7.751   5.136   4.069 -0.5508 -0.2144  0.5443
  324MOL0     C43614   7.760   5.128   4.218 -0.1953 -1.0795  0.0788
  324MOL0     C43615   7.625   5.149   4.290 -0.4222  0.4563  0.1827
  324MOL0     C43616   7.553   5.280   4.266  0.9616 -0.1979 -0.6888
  324MOL0     C43617   7.501   5.283   4.121 -0.5502  0.3846 -0.0679
  324MOL0     C43618   7.408   5.402   4.087 -0.5348 -0.2818  0.1695
  324MOL0     C43619   7.497   5.526   4.044  0.3613  0.6442 -0.3616
  324MOL0     C43620   7.396   5.643   4.020  0.3328 -0.2330  0.1108
  324MOL0     C43621   7.465   5.786   3.999  0.0941  0.0582 -0.5533
  324MOL0     N43622   7.500   5.804   3.855 -0.0538  0.3059  0.3708
  324MOL0     C43623   7.633   5.808   3.811 -0.2271  0.0690  0.2950
  324MOL0     C43624   7.612   5.842   3.682  0.0458 -0.4491  0.1559
  324MOL0     C43625   7.730   5.837   3.581  0.9092 -0.8242 -0.0961
  324MOL0     C43626   7.835   5.953   3.613  0.2433  0.7006 -0.0522
  324MOL0     C43627   7.931   5.987   3.495  0.5608 -0.8571 -0.5055
  324MOL0     C43628   8.029   6.102   3.528  0.5022  0.2505  0.0780
  324MOL0     O43629   8.103   6.125   3.407 -0.8122 -0.2132 -0.4930
  324MOL0     C43630   8.221   6.192   3.410  0.2277  0.1916  0.7224
  324MOL0     C43631   8.294   6.212   3.288  0.0819  0.2936 -0.4769
  324MOL0     C43632   8.422   6.263   3.286 -0.6242 -0.0474 -0.8827
  324MOL0     C43633   8.489   6.302   3.403 -0.0027 -0.0925  0.7239
  324MOL0     C43634   8.629   6.349   3.395 -1.3939 -0.8309 -0.3993
  324MOL0     O43635   8.698   6.358   3.276 -0.5733  0.5168  0.1305
  324MOL0     C43636   8.834   6.386   3.289 -0.1058 -0.9087 -0.0394
  324MOL0     C43637   8.924   6.305   3.349  0.0218  1.1617  0.1688
  324MOL0     C43638   9.062   6.331   3.366  0.0837 -0.0392 -0.0534
  324MOL0     C43639   9.122   6.441   3.324  0.5534 -0.5536  0.5639
  324MOL0     O43640   9.256   6.467   3.351  0.2234  0.1650  0.1257
  324MOL0     C43641   9.312   6.586   3.300 -0.3785 -0.5687  0.6132
  324MOL0     C43642   9.374   6.586   3.160  0.0698  0.5444  0.2122
  324MOL0     C43643   9.475   6.692   3.140  0.0410 -0.8685  0.5556
  324MOL0     C43644   9.528   6.679   3.005 -0.1871  0.0156  0.5308
  324MOL0     C43645   9.617   6.799   2.969  0.1652  0.6134 -0.1302
  324MOL0     C43646   9.752   6.796   3.036  0.0976 -0.3449 -0.3585
  324MOL0     C43647   9.803   6.942   3.060 -0.8657 -0.0605  0.4509
  324MOL0     C43648   9.955   6.952   3.104  0.1379  0.3677 -0.6024
  324MOL0    Cl43649   9.993   7.119   3.127 -0.1233 -0.4585 -0.1889
  324MOL0     C43650   9.030   6.529   3.253 -1.1167  0.0427 -0.7978
  324MOL0     C43651   8.888   6.504   3.232  0.5257  0.3703  0.5661
  324MOL0     O43652   8.672   6.392   3.499  0.2238  0.2626 -0.1359
  324MOL0     C43653   8.414   6.299   3.518 -0.2807 -0.6143 -0.7321
  324MOL0     C43654   8.281   6.244   3.522 -0.3315 -0.8869 -1.1490
  324MOL0     N43655   7.476   5.853   3.650  0.0751 -0.0259 -0.1369
  324MOL0     N43656   7.412   5.830   3.758  0.2098  0.6111 -0.1097
  324MOL0     C43657   7.990   5.067   4.050  0.2396  0.5479  0.3110
  324MOL0     C43658   8.087   5.038   3.954 -0.8774 -0.0482  0.4344
  324MOL0     C43659   8.412   5.051   3.674 -0.6009  0.2975 -0.2421
  324MOL0     C43660   8.387   4.940   3.594  0.1225 -0.1073  0.5868
  324MOL0     C43661   8.492   4.868   3.547  0.4706  0.5217  1.0105
  324MOL0     C43662   8.628   4.888   3.572 -0.1074 -0.4603  0.0717
  324MOL0     O43663   8.716   4.794   3.527 -0.0654  0.4189 -0.0252
  324MOL0     C43664   8.860   4.808   3.548  0.6814 -0.9599 -0.5877
  324MOL0     C43665   8.947   4.704   3.473  0.1679  0.8913 -0.8442
  324MOL0     C43666   8.923   4.701   3.327 -0.2096 -0.7083 -0.3638
  324MOL0     C43667   8.999   4.579   3.267  0.1243 -0.3335  0.7060
  324MOL0     C43668   9.143   4.614   3.265 -0.9046  0.4798  0.8540
  324MOL0     C43669   9.268   4.637   3.257  0.6288 -0.6560 -0.5596
  324MOL0     C43670   8.654   5.004   3.651  0.1217 -0.2160 -0.4952
  324MOL0     C43671   8.548   5.083   3.702 -0.5811 -0.5318  0.6855
  324MOL0     C43672   8.594   5.207   3.777  0.3168  0.0903  0.2137
  324MOL0     H43673   7.947   5.133   3.667 -0.6773  0.4192 -0.0454
  324MOL0     H43674   7.750   5.161   3.830  0.4948 -1.3109 -1.1041
  324MOL0     H43675   7.804   5.033   4.248 -0.1070 -1.7404 -2.0457
  324MOL0     H43676   7.823   5.211   4.253  0.6568 -2.3535  1.7222
  324MOL0     H43677   7.643   5.149   4.398 -3.1823  5.0393  0.9244
  324MOL0     H43678   7.559   5.068   4.257 -1.1779  1.6591 -1.3981
  324MOL0     H43679   7.621   5.364   4.282  1.8659 -1.0156 -0.1967
  324MOL0     H43680   7.470   5.301   4.334  0.2538 -1.7400 -1.0396
  324MOL0     H43681   7.583   5.281   4.049  0.6098 -0.5339  1.2242
  324MOL0     H43682   7.444   5.192   4.102 -1.7297  1.2347 -0.7243
  324MOL0     H43683   7.344   5.382   4.000 -0.7669 -1.1269  0.5246
  324MOL0     H43684   7.353   5.420   4.180  0.9038  0.5072  0.8911
  324MOL0     H43685   7.565   5.551   4.126 -1.8156 -1.8465  2.3945
  324MOL0     H43686   7.549   5.509   3.949 -0.6574  1.0379 -1.0081
  324MOL0     H43687   7.320   5.652   4.098 -0.7141  2.2618 -1.0989
  324MOL0     H43688   7.341   5.624   3.927  2.1834 -0.1522 -1.0656
  324MOL0     H43689   7.384   5.855   4.025 -2.7304 -4.0550  3.0542
  324MOL0     H43690   7.546   5.801   4.071  0.2314  1.8868 -1.0508
  324MOL0     H43691   7.734   5.796   3.848  0.2307  1.7760 -0.2950
  324MOL0     H43692   7.774   5.736   3.583 -1.6414 -2.0321 -0.8926
  324MOL0     H43693   7.696   5.851   3.478 -3.7693  0.0594  1.3298
  324MOL0     H43694   7.782   6.044   3.643 -0.0203 -0.5079  3.8083
  324MOL0     H43695   7.888   5.923   3.704 -1.5502 -1.1232  0.4749
  324MOL0     H43696   7.868   6.018   3.410 -0.1626 -1.0789 -0.0626
  324MOL0     H43697   7.990   5.897   3.474  0.3194 -1.2696  0.5103
  324MOL0     H43698   8.105   6.071   3.600  1.7063 -0.4002 -1.4071
  324MOL0     H43699   7.981   6.189   3.573 -1.3639 -1.2668  1.1747
  324MOL0     H43700   8.251   6.178   3.194  0.3103 -2.7828  0.4439
  324MOL0     H43701   8.481   6.277   3.196  2.9875 -0.9060  1.1233
  324MOL0     H43702   8.902   6.208   3.393  0.8387  0.8163 -0.1654
  324MOL0     H43703   9.114   6.249   3.414 -3.3355 -1.9166  0.7569
  324MOL0     H43704   9.248   6.674   3.297  0.3816 -0.0459 -1.8217
  324MOL0     H43705   9.387   6.618   3.373 -2.5112  1.9279  1.8613
  324MOL0     H43706   9.415   6.485   3.151  1.9546  1.0973  1.8919
  324MOL0     H43707   9.293   6.599   3.088  0.6029  1.4715 -0.2277
  324MOL0     H43708   9.432   6.792   3.151 -0.4955 -0.8913 -1.1207
  324MOL0     H43709   9.558   6.698   3.212 -0.0979  3.0419  0.6278
  324MOL0     H43710   9.449   6.676   2.929  2.3404 -0.2739 -2.2812
  324MOL0     H43711   9.579   6.585   2.983 -0.0191  0.2764 -0.2112
  324MOL0     H43712   9.567   6.892   2.996 -0.9399 -0.3240  1.1572
  324MOL0     H43713   9.644   6.798   2.863  1.4827 -3.2130  0.0886
  324MOL0     H43714   9.745   6.754   3.137  1.3071  2.0646  0.8044
  324MOL0     H43715   9.823   6.733   2.982  0.6997  0.6384 -0.7375
  324MOL0     H43716   9.739   6.999   3.128 -0.6046  4.6167 -2.7328
  324MOL0     H43717   9.794   7.000   2.967 -1.9875 -1.7445 -0.5376
  324MOL0     H43718   9.985   6.900   3.195 -0.6466  0.9172 -0.0135
  324MOL0     H43719  10.012   6.914   3.019  0.1588  0.0398 -0.4425
  324MOL0     H43720   9.073   6.611   3.197  1.6338  0.4880  1.7135
  324MOL0     H43721   8.820   6.573   3.185 -1.6345  0.7996  4.0019
  324MOL0     H43722   8.456   6.343   3.608  0.6478  0.8110 -1.8029
  324MOL0     H43723   8.239   6.255   3.621  0.9396  0.1007 -0.6904
  324MOL0     H43724   8.006   5.040   4.154 -3.9155  1.9371  1.5488
  324MOL0     H43725   8.177   4.988   3.988 -0.1516  1.2711  0.4852
  324MOL0     H43726   8.287   4.906   3.568 -0.1554 -0.4971  2.0881
  324MOL0     H43727   8.456   4.782   3.492 -1.0360  0.7070  1.6638
  324MOL0     H43728   8.876   4.804   3.656 -3.0312 -0.5297  0.1207
  324MOL0     H43729   8.888   4.908   3.513 -0.3175 -0.5271 -0.2038
  324MOL0     H43730   8.929   4.607   3.521 -0.2148  2.2974  2.0741
  324MOL0     H43731   9.053   4.711   3.500 -0.0723 -1.0260  0.8127
  324MOL0     H43732   8.957   4.790   3.274 -0.3615 -1.9257 -2.6495
  324MOL0     H43733   8.818   4.693   3.294 -0.2151 -0.2755 -0.4599
  324MOL0     H43734   8.971   4.482   3.309  0.7947 -1.8998 -2.1928
  324MOL0     H43735   8.984   4.563   3.160 -2.2296 -0.1101  0.9543
  324MOL0     H43736   9.373   4.649   3.246  1.2043 -5.2810 -2.1154
  324MOL0     H43737   8.757   5.028   3.675 -0.0324 -2.5225  3.2440
  324MOL0     H43738   8.559   5.214   3.880 -1.1423  0.9127 -0.3025
  324MOL0     H43739   8.701   5.221   3.789  0.2648 -0.9747  2.2009
  324MOL0     H43740   8.552   5.291   3.719 -1.2984 -0.2923  0.7616
  325MOL0     O43741   0.944   3.631   9.311  0.8304  0.2343 -0.1567
  325MOL0     C43742   0.821   3.660   9.344 -0.4761 -0.2331  0.5662
  325MOL0     O43743   0.769   3.782   9.341  0.2317  0.3596 -0.0449
  325MOL0     C43744   0.852   3.878   9.293  0.0892  0.0974 -0.1932
  325MOL0     C43745   0.943   3.932   9.385 -0.0263  0.5192  0.4368
  325MOL0     C43746   1.043   4.018   9.340  0.4254 -0.3432  0.4946
  325MOL0     C43747   1.037   4.064   9.204  0.7248  1.1079 -0.6319
  325MOL0     O43748   1.115   4.157   9.132 -0.4070 -0.1988 -0.3844
  325MOL0     C43749   1.233   4.206   9.202  0.8570 -0.3732 -0.3510
  325MOL0     C43750   1.210   4.311   9.315  0.1349 -0.3691 -0.0117
  325MOL0     C43751   1.076   4.399   9.300 -0.7002  0.2707  0.0770
  325MOL0     C43752   1.077   4.471   9.164  0.4519  0.0778 -0.6028
  325MOL0     C43753   0.940   4.504   9.126  0.4014 -1.0968  0.4209
  325MOL0     C43754   0.937   4.571   8.986 -0.8256 -0.0060 -1.0562
  325MOL0     C43755   0.800   4.614   8.949 -0.7544 -0.7837  0.6374
  325MOL0     C43756   0.760   4.747   9.016 -0.9407 -0.5883  0.1151
  325MOL0     N43757   0.864   4.856   9.040  0.5072 -0.0005 -0.2351
  325MOL0     C43758   0.895   4.931   9.159 -0.4322 -0.0739 -0.4893
  325MOL0     C43759   0.996   5.012   9.119  0.3495 -0.1794 -0.0695
  325MOL0     C43760   1.071   5.121   9.193  0.6938 -0.9515 -0.4518
  325MOL0     C43761   1.160   5.078   9.311 -0.0039 -0.1452 -0.0729
  325MOL0     C43762   1.239   5.210   9.362  0.4535  0.6043 -0.9183
  325MOL0     C43763   1.312   5.190   9.498 -0.4633 -1.1157 -0.1346
  325MOL0     O43764   1.415   5.097   9.485  0.1011  0.3592 -0.5308
  325MOL0     C43765   1.534   5.124   9.416  0.3630  0.7121  0.8792
  325MOL0     C43766   1.580   5.259   9.390 -0.0337  0.8373 -0.2479
  325MOL0     C43767   1.700   5.276   9.320  0.3639  0.8841  0.2796
  325MOL0     C43768   1.790   5.170   9.285  0.3795 -0.0493  0.5037
  325MOL0     C43769   1.934   5.189   9.235 -0.0615 -0.2109 -0.0172
  325MOL0     O43770   1.979   5.322   9.224  0.2438 -0.7722  0.1057
  325MOL0     C43771   2.099   5.366   9.182  0.6768 -0.2445  0.1490
  325MOL0     C43772   2.219   5.292   9.187  0.7916 -0.1934  0.8440
  325MOL0     C43773   2.341   5.344   9.142  0.2814  0.1618 -0.4513
  325MOL0     C43774   2.350   5.471   9.091 -0.3010  0.1847  0.4883
  325MOL0     O43775   2.471   5.523   9.053 -0.0268  0.1516  0.2599
  325MOL0     C43776   2.475   5.663   9.014 -0.0584  0.1972  0.1936
  325MOL0     C43777   2.603   5.693   8.934  0.7336  0.1485 -0.2751
  325MOL0     C43778   2.626   5.832   8.886  0.3762  0.0179 -0.6428
  325MOL0     C43779   2.744   5.837   8.798 -0.3551  0.0397  0.6431
  325MOL0     C43780   2.759   5.970   8.721  0.2007 -0.2132  0.1480
  325MOL0     C43781   2.890   5.948   8.637  0.1380 -0.2470  0.4480
  325MOL0     C43782   2.881   6.043   8.518 -0.6727  1.0493  0.0359
  325MOL0     C43783   2.812   5.962   8.410  0.7325  0.0769  1.2936
  325MOL0    Cl43784   2.939   5.844   8.345  0.7792  0.4275 -0.1455
  325MOL0     C43785   2.223   5.537   9.066 -0.1469  0.1211 -0.3925
  325MOL0     C43786   2.102   5.487   9.111  0.4562 -0.4577  0.9194
  325MOL0     O43787   1.993   5.095   9.184 -0.6931  0.8521 -0.2981
  325MOL0     C43788   1.736   5.045   9.310  0.3724  0.5388  0.8911
  325MOL0     C43789   1.616   5.016   9.377  0.7110 -0.1178  1.1847
  325MOL0     N43790   1.021   4.983   8.989  0.2098  0.4534 -0.2394
  325MOL0     N43791   0.945   4.900   8.942 -0.4509  0.3567 -0.0281
  325MOL0     C43792   0.925   4.021   9.120 -0.3575  0.2660 -0.1082
  325MOL0     C43793   0.835   3.927   9.167 -0.7909  0.0003  0.3957
  325MOL0     C43794   0.734   3.548   9.399  0.0600 -0.3859  0.3826
  325MOL0     C43795   0.594   3.567   9.414 -0.0307 -0.2293  0.7664
  325MOL0     C43796   0.511   3.473   9.472  0.5712 -0.2487 -0.3661
  325MOL0     C43797   0.565   3.354   9.510  0.4343 -0.0950 -0.0021
  325MOL0     O43798   0.488   3.256   9.564 -0.4066  0.0762  0.0803
  325MOL0     C43799   0.488   3.258   9.711  0.3100 -0.3344 -0.0280
  325MOL0     C43800   0.415   3.376   9.783 -1.7267  0.1550  0.5335
  325MOL0     C43801   0.368   3.330   9.919 -0.2509  0.1663 -0.2960
  325MOL0     C43802   0.285   3.425  10.010  0.6999  0.8769 -0.0635
  325MOL0     C43803   0.364   3.541  10.049  0.0952  0.0155 -0.9434
  325MOL0     C43804   0.441   3.632  10.078  0.0539 -0.3350  1.4716
  325MOL0     C43805   0.705   3.331   9.503 -0.0443  0.5942  0.3214
  325MOL0     C43806   0.792   3.434   9.467  0.1564  0.3982 -0.3066
  325MOL0     C43807   0.937   3.418   9.497  0.6282  0.5545 -0.0414
  325MOL0     H43808   0.927   3.909   9.490 -0.6563  3.1593  0.9925
  325MOL0     H43809   1.110   4.068   9.410 -1.0868  1.0686  1.0199
  325MOL0     H43810   1.277   4.116   9.245  0.4426 -1.3585 -1.9130
  325MOL0     H43811   1.303   4.256   9.136  2.7779 -0.7945  1.2697
  325MOL0     H43812   1.291   4.385   9.321 -0.3020  0.1130 -0.0311
  325MOL0     H43813   1.203   4.256   9.409 -0.5004  0.6541  0.5594
  325MOL0     H43814   1.071   4.472   9.382  1.3353 -0.9831  1.4360
  325MOL0     H43815   0.990   4.333   9.308  0.3843 -1.0899  0.9680
  325MOL0     H43816   1.144   4.557   9.177  1.9682 -1.2493  0.9035
  325MOL0     H43817   1.125   4.408   9.088  0.8968 -1.2878  0.7588
  325MOL0     H43818   0.878   4.416   9.112 -3.2631  1.5279 -1.6732
  325MOL0     H43819   0.876   4.573   9.182 -0.5834 -0.8610 -0.9571
  325MOL0     H43820   0.997   4.662   8.973 -1.7400  1.1816  2.1568
  325MOL0     H43821   0.954   4.491   8.914  2.2198 -0.5618  0.1140
  325MOL0     H43822   0.727   4.536   8.973 -2.7182  0.7105 -0.1574
  325MOL0     H43823   0.806   4.610   8.840  4.3513 -3.4910  0.7750
  325MOL0     H43824   0.677   4.791   8.960 -0.7695 -1.1391 -0.5774
  325MOL0     H43825   0.707   4.721   9.109  3.6594  0.3158  3.3210
  325MOL0     H43826   0.841   4.924   9.253  0.8565 -1.0207  0.2091
  325MOL0     H43827   1.123   5.187   9.123  0.4539 -0.8808 -0.5639
  325MOL0     H43828   0.985   5.182   9.222  0.8624 -0.0468 -1.7700
  325MOL0     H43829   1.102   5.039   9.395  2.2821 -3.4396  0.1782
  325MOL0     H43830   1.231   5.002   9.278  1.2734 -0.0820  2.2975
  325MOL0     H43831   1.174   5.298   9.371  0.5664  0.5712  0.5650
  325MOL0     H43832   1.316   5.231   9.287 -0.7039  0.1666 -2.2432
  325MOL0     H43833   1.247   5.146   9.574 -0.3675 -0.7941  0.1316
  325MOL0     H43834   1.351   5.285   9.534  0.5498 -0.7099 -2.1776
  325MOL0     H43835   1.538   5.346   9.439  1.1615  0.2847  1.8531
  325MOL0     H43836   1.742   5.375   9.307 -0.8212  1.3663 -0.0274
  325MOL0     H43837   2.208   5.192   9.229  0.4856 -0.0939  1.0014
  325MOL0     H43838   2.435   5.295   9.167  0.5687  0.7733 -0.3106
  325MOL0     H43839   2.397   5.692   8.943  0.6647  0.2416 -0.5914
  325MOL0     H43840   2.482   5.717   9.109  2.3614  0.6910 -0.2125
  325MOL0     H43841   2.678   5.655   9.004 -0.6840 -2.5596 -0.0834
  325MOL0     H43842   2.597   5.627   8.846 -0.0447  1.9905 -1.6704
  325MOL0     H43843   2.540   5.867   8.829 -1.3092 -1.4061  0.8760
  325MOL0     H43844   2.649   5.898   8.970 -0.8995 -0.0178 -0.2532
  325MOL0     H43845   2.741   5.759   8.721  1.3703  0.9458 -0.3945
  325MOL0     H43846   2.831   5.811   8.859  2.0419  0.3473 -2.3914
  325MOL0     H43847   2.773   6.060   8.782 -0.9670  0.6182 -0.7714
  325MOL0     H43848   2.671   5.984   8.657 -1.6173 -0.9058  2.3385
  325MOL0     H43849   2.977   5.969   8.699 -0.0120  1.4979  0.1145
  325MOL0     H43850   2.891   5.849   8.590 -1.2921  0.8870 -2.2373
  325MOL0     H43851   2.984   6.065   8.490  0.8258 -2.1824  2.4021
  325MOL0     H43852   2.836   6.139   8.544  0.8750  2.9512 -3.6275
  325MOL0     H43853   2.726   5.908   8.451 -1.0680  1.6698 -0.2132
  325MOL0     H43854   2.775   6.028   8.331  1.2017 -0.5705  0.5211
  325MOL0     H43855   2.208   5.625   9.003 -0.8565 -2.3000 -3.9057
  325MOL0     H43856   2.015   5.546   9.084  1.9044  0.8252 -1.2236
  325MOL0     H43857   1.798   4.964   9.273  2.9414  2.3188  1.0209
  325MOL0     H43858   1.592   4.912   9.397  2.8867 -0.4123  2.5369
  325MOL0     H43859   0.912   4.070   9.024 -0.7654  2.8725  1.1830
  325MOL0     H43860   0.746   3.905   9.107 -1.5507  0.5142  1.3138
  325MOL0     H43861   0.551   3.645   9.352  2.3866  1.1925  0.7427
  325MOL0     H43862   0.403   3.465   9.481  0.6629 -1.1641  0.1268
  325MOL0     H43863   0.589   3.246   9.750  1.2671  0.2493 -2.1925
  325MOL0     H43864   0.433   3.170   9.747  1.3330 -0.0485  2.4655
  325MOL0     H43865   0.334   3.406   9.716  0.9796  1.2539 -2.4831
  325MOL0     H43866   0.485   3.458   9.799  1.1395 -1.6747 -1.6398
  325MOL0     H43867   0.455   3.303   9.979 -1.1528 -1.2264  0.4559
  325MOL0     H43868   0.311   3.238   9.905 -0.7461  0.1944  1.2864
  325MOL0     H43869   0.195   3.452   9.955  1.2756  0.4471 -1.2507
  325MOL0     H43870   0.244   3.378  10.100  0.0459  2.8275  0.6924
  325MOL0     H43871   0.491   3.725  10.098 -0.9818  0.3163  1.1449
  325MOL0     H43872   0.743   3.236   9.539  0.8313  1.4150  1.6666
  325MOL0     H43873   0.973   3.509   9.545 -1.2336  0.6563  1.2778
  325MOL0     H43874   0.957   3.327   9.554  0.3421  0.1731 -0.5326
  325MOL0     H43875   0.999   3.405   9.408  3.6559  1.4842  1.7846
  326MOL0     O43876   0.079   0.624   9.655 -0.0898  0.4164  0.1474
  326MOL0     C43877  -0.033   0.567   9.644 -0.0732  0.4815 -0.5296
  326MOL0     O43878  -0.064   0.444   9.683  0.0954 -0.9578 -0.2251
  326MOL0     C43879   0.029   0.373   9.749  0.3520 -0.3406 -0.5520
  326MOL0     C43880   0.077   0.408   9.887 -0.3352  0.0492 -0.2367
  326MOL0     C43881   0.154   0.320   9.960 -0.1076 -0.9919 -0.4640
  326MOL0     C43882   0.208   0.199   9.902  0.3758 -0.6056  0.5124
  326MOL0     O43883   0.306   0.123   9.963  0.6303 -0.2680 -0.5183
  326MOL0     C43884   0.330   0.143  10.102  0.3867  0.1498 -0.5430
  326MOL0     C43885   0.449   0.063  10.160 -0.3972  0.0109  0.7393
  326MOL0     C43886   0.575   0.090  10.081  0.3053 -0.3998 -0.2582
  326MOL0     C43887   0.681  -0.009  10.130  0.5750 -0.6075 -0.2382
  326MOL0     C43888   0.788  -0.032  10.022  0.1992 -0.2908 -0.4082
  326MOL0     C43889   0.888   0.084  10.036  0.1490  0.5168  0.5974
  326MOL0     C43890   0.985   0.060   9.919 -0.2667  0.1520 -0.2382
  326MOL0     C43891   1.090   0.173   9.918  0.5403  0.2564  0.9497
  326MOL0     N43892   1.183   0.172  10.032 -0.0319 -0.1322  0.6200
  326MOL0     C43893   1.262   0.069  10.074 -0.6137  0.1856 -0.3155
  326MOL0     C43894   1.351   0.122  10.156  0.4003 -0.5645 -0.6144
  326MOL0     C43895   1.470   0.046  10.228  0.9966  0.2577  0.9054
  326MOL0     C43896   1.475   0.078  10.381 -0.4026 -0.7213 -0.8345
  326MOL0     C43897   1.535   0.214  10.418  0.0003  0.2007  0.0225
  326MOL0     C43898   1.682   0.235  10.376 -0.6322 -0.1644  0.3097
  326MOL0     O43899   1.769   0.134  10.424  0.0540  0.1597 -0.3732
  326MOL0     C43900   1.894   0.109  10.390 -0.1852  0.1790 -0.0599
  326MOL0     C43901   1.968   0.191  10.305 -0.1269  0.3466  1.1609
  326MOL0     C43902   2.101   0.163  10.279  1.0190 -0.8432 -0.0179
  326MOL0     C43903   2.165   0.055  10.338  0.1333  0.5347  0.0411
  326MOL0     C43904   2.317   0.036  10.322 -0.5004  0.5960 -1.0499
  326MOL0     O43905   2.377   0.097  10.215 -0.1239 -0.0489  0.8661
  326MOL0     C43906   2.515   0.082  10.200  0.8650 -0.4245 -0.5044
  326MOL0     C43907   2.570  -0.005  10.107  0.2758  1.3231  0.0275
  326MOL0     C43908   2.711  -0.019  10.100  0.0497 -0.8005  1.0576
  326MOL0     C43909   2.795   0.056  10.183  1.0602  0.1225  0.5649
  326MOL0     O43910   2.927   0.036  10.174 -0.5400  0.5994  0.4270
  326MOL0     C43911   3.034   0.102  10.244  0.0800  0.3957  0.9698
  326MOL0     C43912   3.056   0.041  10.376  0.9433  0.0792 -0.0939
  326MOL0     C43913   3.172   0.101  10.468  0.9323  0.1109  0.5886
  326MOL0     C43914   3.316   0.071  10.417  0.0154  0.6806 -0.7383
  326MOL0     C43915   3.429   0.078  10.520  0.0506 -0.9286  0.3915
  326MOL0     C43916   3.563   0.058  10.446 -0.8708  0.3104 -0.0986
  326MOL0     C43917   3.683   0.050  10.550 -0.2464  0.1632  0.4332
  326MOL0     C43918   3.815   0.042  10.464 -0.3503  0.3780  0.2871
  326MOL0    Cl43919   3.954   0.066  10.569  0.0410  0.2029  0.2080
  326MOL0     C43920   2.739   0.155  10.263  0.4242 -0.8835 -0.0194
  326MOL0     C43921   2.602   0.167  10.276 -0.5619 -0.5329 -0.2456
  326MOL0     O43922   2.384  -0.039  10.407  0.8945 -0.2117  0.1880
  326MOL0     C43923   2.084  -0.035  10.416 -1.3814 -0.0254  0.3156
  326MOL0     C43924   1.954  -0.003  10.450  0.2210  0.0646  0.3100
  326MOL0     N43925   1.326   0.257  10.176 -0.0761  0.0469 -0.4605
  326MOL0     N43926   1.225   0.277  10.100 -0.0242 -0.1242  0.8932
  326MOL0     C43927   0.165   0.167   9.769 -0.4490  0.7726  0.2789
  326MOL0     C43928   0.070   0.244   9.701 -0.7507 -0.3771 -1.1460
  326MOL0     C43929  -0.137   0.649   9.596  1.4443  0.4248 -0.3614
  326MOL0     C43930  -0.108   0.752   9.498  1.1211  0.0455  0.0439
  326MOL0     C43931  -0.205   0.843   9.455  0.3782  0.2380  0.2237
  326MOL0     C43932  -0.339   0.830   9.503  0.3631 -0.2354  1.0859
  326MOL0     O43933  -0.426   0.925   9.446 -0.8704 -1.0296 -0.2325
  326MOL0     C43934  -0.547   0.960   9.517  0.0592  0.0729 -0.6040
  326MOL0     C43935  -0.624   1.072   9.450 -0.4572  0.1696  0.4425
  326MOL0     C43936  -0.532   1.200   9.432  0.0065 -0.4584 -0.1893
  326MOL0     C43937  -0.485   1.272   9.565 -0.3392  0.6392  0.3508
  326MOL0     C43938  -0.356   1.231   9.618 -0.3721  1.3515  0.0173
  326MOL0     C43939  -0.243   1.198   9.650  0.4207 -0.1595 -0.0035
  326MOL0     C43940  -0.362   0.737   9.605  0.6843 -0.7828 -0.2022
  326MOL0     C43941  -0.269   0.652   9.645 -0.9733 -0.7528 -0.3668
  326MOL0     C43942  -0.328   0.536   9.739  0.1587  0.4401 -0.5631
  326MOL0     H43943   0.044   0.503   9.927 -1.1098 -0.0814 -0.5562
  326MOL0     H43944   0.202   0.360  10.049  2.3831  0.7265 -2.4102
  326MOL0     H43945   0.337   0.249  10.129 -0.0079 -0.3381  1.6611
  326MOL0     H43946   0.247   0.100  10.158 -1.4599  2.8816 -0.9893
  326MOL0     H43947   0.429  -0.044  10.152  1.3069 -0.2477 -0.5213
  326MOL0     H43948   0.457   0.077  10.268  0.2388 -0.5630  0.7718
  326MOL0     H43949   0.619   0.190  10.090  1.3465 -0.6445 -2.0280
  326MOL0     H43950   0.562   0.067   9.975 -0.0666  3.9408 -1.3400
  326MOL0     H43951   0.734   0.031  10.217 -0.5210 -0.4315  0.3572
  326MOL0     H43952   0.635  -0.106  10.151 -0.8754 -0.2182 -1.4868
  326MOL0     H43953   0.841  -0.123  10.053  1.0205  0.2020 -0.3130
  326MOL0     H43954   0.740  -0.054   9.926  1.9836 -0.2404 -1.3759
  326MOL0     H43955   0.832   0.177  10.022  0.4233  0.3622 -1.9412
  326MOL0     H43956   0.950   0.077  10.126  2.1136  1.4289 -0.6192
  326MOL0     H43957   0.936   0.062   9.821  1.4807  2.0179 -1.1387
  326MOL0     H43958   1.034  -0.037   9.933 -2.0752 -0.4184  3.3366
  326MOL0     H43959   1.144   0.172   9.823 -1.0049  0.6752  0.0202
  326MOL0     H43960   1.042   0.271   9.907  0.6274  0.1946 -0.1261
  326MOL0     H43961   1.263  -0.036  10.045  1.0977 -0.0529  0.4345
  326MOL0     H43962   1.462  -0.062  10.211 -1.3360  0.4731  0.3235
  326MOL0     H43963   1.560   0.088  10.183  2.4266 -2.5900  0.8305
  326MOL0     H43964   1.374   0.082  10.423  1.0605  0.1831  3.0369
  326MOL0     H43965   1.533  -0.010  10.411  0.4184  0.5179  1.4288
  326MOL0     H43966   1.536   0.226  10.527 -0.0534 -1.4192  0.2296
  326MOL0     H43967   1.469   0.300  10.403  2.5672  3.1216  3.6087
  326MOL0     H43968   1.724   0.328  10.413  1.1975  0.8413 -3.6878
  326MOL0     H43969   1.689   0.239  10.266 -2.3955 -0.8824  0.1380
  326MOL0     H43970   1.924   0.282  10.267  0.2929 -0.8169 -2.5445
  326MOL0     H43971   2.154   0.243  10.229  0.2770 -0.2679  0.0969
  326MOL0     H43972   2.510  -0.062  10.038  0.7563 -0.2240  0.8313
  326MOL0     H43973   2.750  -0.086  10.024 -0.0056  2.8155 -2.4744
  326MOL0     H43974   3.127   0.084  10.189 -0.3785 -1.1605  0.6557
  326MOL0     H43975   3.028   0.211  10.244  2.6065  0.6603 -1.2130
  326MOL0     H43976   2.965   0.065  10.432  1.4592  0.7143  0.4942
  326MOL0     H43977   3.060  -0.067  10.363  0.6521 -0.4454  3.2433
  326MOL0     H43978   3.158   0.208  10.482 -0.3704  0.0269  0.0628
  326MOL0     H43979   3.170   0.047  10.564  1.2779  1.5103  1.4095
  326MOL0     H43980   3.335   0.138  10.332  1.7245  1.4857  0.2231
  326MOL0     H43981   3.315  -0.029  10.374 -0.1748  0.6535 -0.6695
  326MOL0     H43982   3.414   0.001  10.597  0.6388  0.3141  1.8014
  326MOL0     H43983   3.444   0.174  10.571  2.5159 -1.8655  1.6434
  326MOL0     H43984   3.552  -0.040  10.398  0.2301 -0.2263  0.7057
  326MOL0     H43985   3.584   0.141  10.377  0.2989  2.4856  2.6521
  326MOL0     H43986   3.666  -0.046  10.601  0.9265  0.8388  2.1876
  326MOL0     H43987   3.682   0.139  10.614  2.3246 -1.0743  2.4093
  326MOL0     H43988   3.816  -0.052  10.408 -0.7290  1.3158 -1.3708
  326MOL0     H43989   3.836   0.123  10.393 -0.3903 -1.2710 -1.6985
  326MOL0     H43990   2.799   0.231  10.313 -2.0656 -0.0421  1.9122
  326MOL0     H43991   2.559   0.253  10.326 -0.4953  0.1741 -1.3931
  326MOL0     H43992   2.131  -0.120  10.464 -0.4772  0.5609  0.5040
  326MOL0     H43993   1.905  -0.062  10.527 -1.0174 -0.8159 -1.1006
  326MOL0     H43994   0.196   0.074   9.723 -3.5118  0.2605 -1.0198
  326MOL0     H43995   0.028   0.219   9.604 -2.8288 -0.8885 -0.1578
  326MOL0     H43996  -0.011   0.758   9.449  0.3643  0.3409 -1.4728
  326MOL0     H43997  -0.186   0.917   9.379 -2.3995 -0.7361 -1.5606
  326MOL0     H43998  -0.529   0.984   9.623 -4.0827 -3.8574  1.3301
  326MOL0     H43999  -0.601   0.865   9.513  0.2611 -0.1229  0.6417
  326MOL0     H44000  -0.711   1.091   9.512  0.7773  1.6940  1.7794
  326MOL0     H44001  -0.653   1.031   9.353  1.8703 -1.1203  0.2076
  326MOL0     H44002  -0.599   1.274   9.386 -0.4264  0.5943  1.9917
  326MOL0     H44003  -0.446   1.178   9.368 -0.0529 -1.9441  0.2178
  326MOL0     H44004  -0.449   1.373   9.542  1.7028  0.5557  2.7429
  326MOL0     H44005  -0.567   1.280   9.636 -2.6598  3.1259 -2.3750
  326MOL0     H44006  -0.143   1.179   9.684  0.2805  0.0080  0.5054
  326MOL0     H44007  -0.463   0.729   9.644  1.0090 -1.7940  0.4837
  326MOL0     H44008  -0.321   0.444   9.682 -0.3727  0.1111 -0.1088
  326MOL0     H44009  -0.273   0.523   9.833  0.6069 -4.0238 -1.2452
  326MOL0     H44010  -0.432   0.555   9.768  0.6885 -0.4778  2.2865
  327MOL0     O44011   5.593   8.509  10.501  0.3101  1.1410 -0.4667
  327MOL0     C44012   5.606   8.575  10.605  1.0042 -0.2667 -0.2577
  327MOL0     O44013   5.715   8.576  10.686 -0.1532  0.0453 -0.2699
  327MOL0     C44014   5.805   8.477  10.663  0.4319  0.0852  0.3587
  327MOL0     C44015   5.773   8.344  10.648  0.0050  0.4500 -0.6227
  327MOL0     C44016   5.877   8.248  10.639 -0.0622  0.6548 -0.1966
  327MOL0     C44017   6.016   8.284  10.617  0.5797 -0.3126 -0.0021
  327MOL0     O44018   6.112   8.191  10.598 -0.0716 -0.4508 -0.1606
  327MOL0     C44019   6.207   8.186  10.708  0.0817  0.2338 -0.2136
  327MOL0     C44020   6.348   8.153  10.661 -0.0369 -0.3123  0.2009
  327MOL0     C44021   6.447   8.167  10.780  0.3087  0.1618 -0.2176
  327MOL0     C44022   6.588   8.145  10.719 -0.5441 -0.0010 -0.8650
  327MOL0     C44023   6.702   8.179  10.817  0.4467 -0.1941  0.0485
  327MOL0     C44024   6.703   8.076  10.932  0.0493 -0.6378  0.0662
  327MOL0     C44025   6.839   8.079  11.005  0.0708 -0.8885  0.2770
  327MOL0     C44026   6.839   8.006  11.136 -0.8717 -0.5274 -0.3726
  327MOL0     N44027   6.809   7.865  11.135  0.6310 -0.0324  0.1009
  327MOL0     C44028   6.687   7.811  11.154  0.3277 -0.1718  0.1876
  327MOL0     C44029   6.712   7.683  11.165  0.6859  0.0230 -0.2208
  327MOL0     C44030   6.610   7.577  11.175  0.3142  0.4956 -0.6328
  327MOL0     C44031   6.475   7.617  11.235 -0.2720 -0.4051 -0.7035
  327MOL0     C44032   6.376   7.504  11.265 -0.1884 -0.6337  0.2073
  327MOL0     C44033   6.254   7.545  11.340 -0.8202 -1.1205 -0.5286
  327MOL0     O44034   6.173   7.432  11.349 -0.0135 -0.0305  0.0152
  327MOL0     C44035   6.047   7.444  11.318  0.4172 -0.4633 -0.5687
  327MOL0     C44036   5.963   7.350  11.374 -0.2123 -0.0781 -0.8097
  327MOL0     C44037   5.826   7.346  11.343 -0.0102  0.2254 -0.3598
  327MOL0     C44038   5.767   7.439  11.259  0.1211  0.5385  0.8224
  327MOL0     C44039   5.618   7.434  11.246  0.4161  0.0553  1.2490
  327MOL0     O44040   5.561   7.310  11.258  0.4064 -0.3111 -0.3189
  327MOL0     C44041   5.426   7.289  11.236  0.1972  0.4685 -0.6258
  327MOL0     C44042   5.332   7.377  11.184 -0.5884 -0.4390 -0.0267
  327MOL0     C44043   5.202   7.340  11.180 -0.6029  0.7710  0.4140
  327MOL0     C44044   5.145   7.229  11.233 -0.0712  0.6980 -0.8172
  327MOL0     O44045   5.011   7.211  11.228  0.0111  0.0102 -0.3966
  327MOL0     C44046   4.944   7.148  11.339 -0.7230 -0.6055  1.2284
  327MOL0     C44047   4.886   7.023  11.288  0.3569  1.3528 -0.4786
  327MOL0     C44048   4.750   7.052  11.224  0.3737 -0.1863 -0.3471
  327MOL0     C44049   4.694   6.923  11.156 -1.0573  0.7339 -0.3163
  327MOL0     C44050   4.573   6.955  11.055 -1.0561  1.3710 -0.1720
  327MOL0     C44051   4.449   7.001  11.139  0.4985 -0.7446 -0.5487
  327MOL0     C44052   4.321   6.985  11.075 -0.2623 -0.2344  0.9843
  327MOL0     C44053   4.295   7.070  10.953 -0.0983 -0.4225  0.4261
  327MOL0    Cl44054   4.230   7.223  11.025  0.2338 -0.1227  0.1756
  327MOL0     C44055   5.233   7.131  11.284 -0.3567 -0.1509 -0.7803
  327MOL0     C44056   5.372   7.168  11.291 -0.3149  0.2839 -0.5048
  327MOL0     O44057   5.562   7.541  11.227  0.1257  0.0533  0.4828
  327MOL0     C44058   5.861   7.522  11.192  0.7904  0.0357 -0.5142
  327MOL0     C44059   5.997   7.518  11.213 -0.4669 -0.8976  0.2139
  327MOL0     N44060   6.848   7.659  11.152 -0.2914 -0.3575 -0.5438
  327MOL0     N44061   6.904   7.770  11.122  0.5410  0.0802 -0.4759
  327MOL0     C44062   6.036   8.422  10.623 -0.3985  0.6628  1.6623
  327MOL0     C44063   5.938   8.516  10.646  0.3235 -0.0943  0.1577
  327MOL0     C44064   5.488   8.651  10.642  0.2406 -0.9548 -0.2819
  327MOL0     C44065   5.365   8.595  10.602 -0.2178  0.3350 -0.6121
  327MOL0     C44066   5.251   8.660  10.646 -0.2345 -0.1604  1.4945
  327MOL0     C44067   5.252   8.764  10.740 -0.0602  0.3307  0.0449
  327MOL0     O44068   5.139   8.815  10.792 -0.3978  0.3364 -0.4007
  327MOL0     C44069   5.060   8.898  10.705 -0.3103 -0.0431 -0.0204
  327MOL0     C44070   5.027   9.040  10.775 -0.5678  0.3780 -0.3244
  327MOL0     C44071   5.156   9.115  10.819  0.1143 -0.0281 -0.4042
  327MOL0     C44072   5.140   9.229  10.916  0.9141  0.1420 -0.0559
  327MOL0     C44073   5.037   9.329  10.863 -0.3873 -0.7334  0.0471
  327MOL0     C44074   4.956   9.410  10.820 -0.0171 -0.2960 -0.9305
  327MOL0     C44075   5.370   8.809  10.783 -0.2559  0.0840  1.1589
  327MOL0     C44076   5.488   8.766  10.727  0.4148  0.4227  0.0300
  327MOL0     C44077   5.606   8.846  10.782 -0.3434 -0.5745  0.2675
  327MOL0     H44078   5.673   8.302  10.648  0.6528 -1.2108 -2.3298
  327MOL0     H44079   5.856   8.142  10.650  5.8406 -0.6939  1.0025
  327MOL0     H44080   6.215   8.277  10.768 -1.6274  1.4145 -1.6732
  327MOL0     H44081   6.182   8.105  10.777 -2.1055 -1.5727 -2.9187
  327MOL0     H44082   6.371   8.242  10.602 -0.8176  1.2788  2.1900
  327MOL0     H44083   6.344   8.053  10.617  1.6371 -1.4469  2.4000
  327MOL0     H44084   6.431   8.101  10.866  1.9507 -0.4565 -0.3530
  327MOL0     H44085   6.446   8.270  10.818 -0.3649 -0.1627  0.6788
  327MOL0     H44086   6.590   8.040  10.689 -1.4326 -1.1088  2.4834
  327MOL0     H44087   6.583   8.209  10.630  0.0878 -1.0801 -1.6963
  327MOL0     H44088   6.799   8.183  10.767  0.2366  1.7728 -0.2705
  327MOL0     H44089   6.681   8.277  10.860  2.0659  1.1150 -2.0068
  327MOL0     H44090   6.615   8.097  10.993 -0.5216 -0.9009 -0.6537
  327MOL0     H44091   6.705   7.978  10.883  1.2585  0.5502 -2.4830
  327MOL0     H44092   6.867   8.183  11.024 -2.2758  0.2249 -1.7736
  327MOL0     H44093   6.905   8.037  10.929  1.5219  0.1562  0.9259
  327MOL0     H44094   6.943   8.013  11.170 -0.1264 -0.3397 -2.5253
  327MOL0     H44095   6.784   8.058  11.215 -2.8428  1.3486 -2.8103
  327MOL0     H44096   6.595   7.869  11.151  0.0940 -0.5879 -2.1442
  327MOL0     H44097   6.588   7.530  11.079 -1.9921  0.7036 -0.2572
  327MOL0     H44098   6.645   7.506  11.251 -0.1531  0.0327 -0.8495
  327MOL0     H44099   6.487   7.676  11.327 -1.1263  1.8119 -1.9490
  327MOL0     H44100   6.428   7.682  11.162 -1.0854 -2.8639 -2.5203
  327MOL0     H44101   6.421   7.428  11.329  2.4286  0.0010 -0.7210
  327MOL0     H44102   6.345   7.463  11.169  3.4374 -2.8798 -0.1944
  327MOL0     H44103   6.200   7.631  11.300 -0.8020 -1.1839 -0.6916
  327MOL0     H44104   6.289   7.570  11.440 -0.4541  1.8327 -1.2987
  327MOL0     H44105   6.006   7.273  11.436  1.5208  1.1015 -0.4779
  327MOL0     H44106   5.769   7.275  11.403 -1.7871  1.0709 -0.9558
  327MOL0     H44107   5.366   7.465  11.129  0.5428 -1.4629 -1.0161
  327MOL0     H44108   5.132   7.414  11.141  1.0409  1.3722 -1.5926
  327MOL0     H44109   5.024   7.120  11.408  0.2399 -0.0081  0.3899
  327MOL0     H44110   4.869   7.210  11.387 -1.7994 -1.4439  0.6853
  327MOL0     H44111   4.957   6.977  11.219 -0.4124  1.3974 -1.3153
  327MOL0     H44112   4.862   6.960  11.374  0.2313  2.4117  0.2854
  327MOL0     H44113   4.684   7.085  11.305  0.7766 -1.8771  0.7243
  327MOL0     H44114   4.769   7.122  11.142  0.2777 -1.2160 -1.2645
  327MOL0     H44115   4.667   6.846  11.228  1.1089 -0.6345 -0.9040
  327MOL0     H44116   4.775   6.882  11.095  1.2423 -2.6353  4.4112
  327MOL0     H44117   4.554   6.865  10.997  1.3948  0.0219  0.9723
  327MOL0     H44118   4.591   7.027  10.975  1.0800  1.2874  0.1619
  327MOL0     H44119   4.453   6.949  11.235 -1.8443 -1.5149 -0.8184
  327MOL0     H44120   4.461   7.107  11.161 -3.0953 -0.2003 -0.6238
  327MOL0     H44121   4.243   6.993  11.151  1.0078 -1.0791  2.4156
  327MOL0     H44122   4.321   6.880  11.042 -1.0894  0.5479 -1.7824
  327MOL0     H44123   4.388   7.100  10.903  0.4619 -1.0318  1.0900
  327MOL0     H44124   4.217   7.017  10.898 -0.1319  0.1757 -0.1166
  327MOL0     H44125   5.199   7.044  11.339  0.5280  1.6502  2.9222
  327MOL0     H44126   5.439   7.096  11.337  1.0496  2.8530  1.8789
  327MOL0     H44127   5.822   7.590  11.118 -0.4939  0.3149  0.3937
  327MOL0     H44128   6.059   7.583  11.152  0.7161 -0.5599  1.7057
  327MOL0     H44129   6.139   8.455  10.613 -1.1796  2.4857 -2.1911
  327MOL0     H44130   5.959   8.622  10.654 -0.1611 -0.0501  0.8734
  327MOL0     H44131   5.353   8.506  10.541 -0.2047 -0.6488  0.7712
  327MOL0     H44132   5.153   8.627  10.615  0.0265  1.2099 -1.0914
  327MOL0     H44133   4.969   8.845  10.675  0.3115 -2.2952  1.8267
  327MOL0     H44134   5.114   8.931  10.616 -3.0602  1.0486 -1.4077
  327MOL0     H44135   4.959   9.022  10.859  1.0103 -1.1493  0.7156
  327MOL0     H44136   4.968   9.094  10.701 -2.8806 -2.1265 -0.4933
  327MOL0     H44137   5.202   9.159  10.729 -1.5966  2.1546 -0.2782
  327MOL0     H44138   5.221   9.047  10.875 -0.5894 -0.0733  0.3791
  327MOL0     H44139   5.109   9.192  11.014 -0.1765  1.2417  0.0323
  327MOL0     H44140   5.239   9.272  10.931  2.8321 -3.0161 -2.2579
  327MOL0     H44141   4.892   9.486  10.779 -0.0979  0.4639  0.5064
  327MOL0     H44142   5.364   8.870  10.872  1.3908 -1.5932  2.4946
  327MOL0     H44143   5.636   8.805  10.879 -1.1203  2.2233  1.7925
  327MOL0     H44144   5.682   8.857  10.703  1.5276 -1.4356  1.8528
  327MOL0     H44145   5.579   8.948  10.813 -0.3407 -0.3055 -0.5844
  328MOL0     O44146   3.772   9.521   2.714 -0.2063 -0.1758 -0.4204
  328MOL0     C44147   3.700   9.436   2.762  0.4536  0.6908  0.0515
  328MOL0     O44148   3.711   9.371   2.881 -0.5217 -0.7858  0.3405
  328MOL0     C44149   3.811   9.385   2.970 -0.4981  0.1118  0.1427
  328MOL0     C44150   3.945   9.395   2.941 -0.7177  0.0524 -0.3103
  328MOL0     C44151   4.043   9.405   3.040 -0.1113 -0.6978 -0.0360
  328MOL0     C44152   4.010   9.420   3.173  0.3412 -0.0424  0.3754
  328MOL0     O44153   4.099   9.445   3.271  0.4698 -0.3185 -0.5755
  328MOL0     C44154   4.193   9.553   3.241 -1.0387  0.3965  0.5502
  328MOL0     C44155   4.337   9.502   3.264  0.6158  0.4184  0.7348
  328MOL0     C44156   4.439   9.605   3.239  0.2472  0.3847 -0.1535
  328MOL0     C44157   4.580   9.546   3.254  0.3212  0.5057  0.1571
  328MOL0     C44158   4.685   9.640   3.201 -0.4484  0.6966 -0.0900
  328MOL0     C44159   4.825   9.569   3.188  0.4333 -0.1400 -0.9403
  328MOL0     C44160   4.931   9.669   3.121  1.0698  0.8533  0.2629
  328MOL0     C44161   5.077   9.622   3.139 -0.0259  0.0091  0.2130
  328MOL0     N44162   5.168   9.711   3.060 -0.0749  0.2109 -0.5239
  328MOL0     C44163   5.276   9.768   3.106 -0.1949 -0.3844  0.0439
  328MOL0     C44164   5.324   9.839   3.000  0.4754 -0.0545 -0.7255
  328MOL0     C44165   5.443   9.927   3.010  0.6535  0.0267  0.4364
  328MOL0     C44166   5.574   9.839   3.010  0.2743 -0.0492  0.5703
  328MOL0     C44167   5.596   9.744   3.131  0.0005  0.9354 -0.0202
  328MOL0     C44168   5.743   9.704   3.143 -0.5146 -0.3362  0.4667
  328MOL0     O44169   5.804   9.820   3.183  0.2609  0.6985  0.7611
  328MOL0     C44170   5.932   9.816   3.231 -0.1540  0.2685  0.4575
  328MOL0     C44171   6.014   9.698   3.235  0.6915 -0.5793  0.0287
  328MOL0     C44172   6.143   9.715   3.278  0.7797  0.3702  0.2998
  328MOL0     C44173   6.204   9.837   3.310  1.0593 -1.0433  0.2038
  328MOL0     C44174   6.352   9.852   3.330  1.0971  0.3777 -0.2857
  328MOL0     O44175   6.411   9.973   3.338  0.4159 -0.3687  0.1270
  328MOL0     C44176   6.547   9.967   3.359 -0.0365 -0.3975  0.1600
  328MOL0     C44177   6.633   9.954   3.241 -0.3397 -0.2275 -0.4422
  328MOL0     C44178   6.771   9.953   3.253 -0.4792 -0.0896 -0.1378
  328MOL0     C44179   6.827   9.966   3.380  0.5921 -0.5850  0.9204
  328MOL0     O44180   6.963   9.969   3.400 -0.7029  0.3997  0.1120
  328MOL0     C44181   7.017  10.100   3.371  0.2367  0.7294  0.7776
  328MOL0     C44182   7.011  10.192   3.496 -0.0775  0.0671  0.2508
  328MOL0     C44183   7.086  10.117   3.609  0.1268 -0.5301  0.5629
  328MOL0     C44184   7.147  10.213   3.714  0.5067 -0.5228  0.0968
  328MOL0     C44185   7.227  10.137   3.816 -0.2068  1.1759  0.5525
  328MOL0     C44186   7.261  10.242   3.929 -1.1211 -0.6917  0.0091
  328MOL0     C44187   7.333  10.175   4.042 -0.3114  0.2650 -0.0674
  328MOL0     C44188   7.241  10.118   4.146  0.5723  0.3260 -0.3761
  328MOL0    Cl44189   7.346  10.047   4.277 -0.0620 -0.1720 -0.0889
  328MOL0     C44190   6.741   9.973   3.490  0.0823 -0.2742 -0.4783
  328MOL0     C44191   6.604   9.981   3.483  0.1746 -0.0478 -0.3203
  328MOL0     O44192   6.410   9.747   3.341  0.1931  0.3708  0.1716
  328MOL0     C44193   6.120   9.950   3.305 -0.3773 -0.0530  0.0119
  328MOL0     C44194   5.988   9.939   3.264 -0.0555  0.5560  0.0976
  328MOL0     N44195   5.244   9.811   2.885  0.0959  0.6733 -1.3919
  328MOL0     N44196   5.144   9.741   2.932 -0.5552 -0.2946 -0.5446
  328MOL0     C44197   3.869   9.402   3.203 -0.3408  0.5149  0.6221
  328MOL0     C44198   3.773   9.378   3.103 -0.8323 -0.3004 -0.4232
  328MOL0     C44199   3.576   9.403   2.681  0.1130 -0.5820  0.2116
  328MOL0     C44200   3.517   9.279   2.710 -0.1346 -0.3534 -0.5323
  328MOL0     C44201   3.406   9.233   2.634 -0.0382  0.1477  0.2570
  328MOL0     C44202   3.353   9.312   2.535  0.2696  0.0098 -0.7751
  328MOL0     O44203   3.245   9.259   2.470 -0.8685 -0.2014  0.2550
  328MOL0     C44204   3.141   9.351   2.446  1.2573  0.4310  0.2451
  328MOL0     C44205   3.013   9.277   2.415  0.3167  0.5268  0.2084
  328MOL0     C44206   2.958   9.198   2.526  0.2762 -0.3284 -0.3224
  328MOL0     C44207   2.807   9.155   2.501  0.7206 -0.0565  0.6900
  328MOL0     C44208   2.793   9.076   2.373  0.0761 -0.8012  0.0525
  328MOL0     C44209   2.770   9.000   2.277 -0.0306  0.7080 -0.1118
  328MOL0     C44210   3.411   9.439   2.510  0.8053 -0.4491 -0.2097
  328MOL0     C44211   3.524   9.480   2.573  0.5423  0.5489  0.7178
  328MOL0     C44212   3.586   9.606   2.512 -0.0876 -0.1924 -0.1922
  328MOL0     H44213   3.974   9.383   2.837  1.7148 -0.6797  0.3965
  328MOL0     H44214   4.148   9.407   3.012  0.2025 -0.0074  1.1218
  328MOL0     H44215   4.195   9.582   3.135  1.8034 -0.2104  0.3349
  328MOL0     H44216   4.177   9.638   3.307  0.7228  1.5279 -0.3849
  328MOL0     H44217   4.342   9.420   3.192 -0.8619  0.2852  0.7520
  328MOL0     H44218   4.349   9.469   3.367  0.1390 -3.0299 -0.1879
  328MOL0     H44219   4.428   9.699   3.293  2.7788  1.6366 -1.5957
  328MOL0     H44220   4.436   9.629   3.132 -2.1629 -2.0020 -0.7119
  328MOL0     H44221   4.592   9.534   3.362 -0.2004  0.9336  0.2693
  328MOL0     H44222   4.589   9.451   3.202  4.1557 -0.4908  2.2930
  328MOL0     H44223   4.657   9.659   3.097  1.1903  0.1639 -0.6736
  328MOL0     H44224   4.685   9.730   3.265  0.9837  0.0260  0.9092
  328MOL0     H44225   4.863   9.557   3.290  1.1179  0.8809 -1.0624
  328MOL0     H44226   4.824   9.470   3.141  2.8862  0.1020 -1.6093
  328MOL0     H44227   4.920   9.765   3.172 -2.4019  1.0031 -0.4621
  328MOL0     H44228   4.908   9.675   3.014  0.0646  0.8257  0.4621
  328MOL0     H44229   5.099   9.621   3.246 -1.7276 -0.5602  0.6027
  328MOL0     H44230   5.095   9.522   3.100 -2.9105 -0.4971 -0.0653
  328MOL0     H44231   5.300   9.787   3.210  0.7676  0.1781 -0.2608
  328MOL0     H44232   5.454   9.986   2.919  1.4499 -1.1169 -0.2304
  328MOL0     H44233   5.435  10.004   3.088  0.8887  0.2549  0.2382
  328MOL0     H44234   5.585   9.782   2.917 -1.9989  0.3625  0.0025
  328MOL0     H44235   5.658   9.908   2.999  0.4102 -0.5354 -1.9987
  328MOL0     H44236   5.542   9.653   3.106  1.2141  0.2065 -0.0969
  328MOL0     H44237   5.560   9.781   3.227 -0.4736  0.4958 -0.0261
  328MOL0     H44238   5.776   9.661   3.048 -0.7220 -0.0776  0.2744
  328MOL0     H44239   5.756   9.619   3.210  2.2688 -2.4891 -2.4932
  328MOL0     H44240   5.968   9.603   3.211  0.0577 -0.6615  1.4685
  328MOL0     H44241   6.204   9.626   3.285 -0.2282 -0.3158  0.6495
  328MOL0     H44242   6.587   9.954   3.143  0.9246 -1.8113 -1.0916
  328MOL0     H44243   6.829   9.935   3.163 -0.1606 -1.3094  0.2950
  328MOL0     H44244   7.117  10.085   3.329  0.6089  1.3450  1.4044
  328MOL0     H44245   6.966  10.153   3.291 -1.1259 -0.9754  0.4715
  328MOL0     H44246   7.067  10.283   3.470  0.1423  0.1224  0.8949
  328MOL0     H44247   6.904  10.209   3.511 -0.1502  1.3839 -1.4324
  328MOL0     H44248   7.006  10.058   3.656 -2.4785  0.8522 -1.8328
  328MOL0     H44249   7.160  10.044   3.574  0.3318 -0.7974  1.5163
  328MOL0     H44250   7.074  10.270   3.771  0.9644 -2.5510  2.9310
  328MOL0     H44251   7.211  10.279   3.654 -1.5742  1.7893  0.2532
  328MOL0     H44252   7.323  10.101   3.777 -1.7315 -0.7871 -1.6549
  328MOL0     H44253   7.165  10.055   3.853  3.0449 -2.9060 -2.1308
  328MOL0     H44254   7.316  10.325   3.884 -2.0644 -0.7324 -1.2755
  328MOL0     H44255   7.170  10.290   3.968  0.8748  0.7933  3.2373
  328MOL0     H44256   7.388  10.258   4.088 -3.6288  2.4704  0.2694
  328MOL0     H44257   7.407  10.099   4.016  1.7946  0.5443  4.1587
  328MOL0     H44258   7.173  10.188   4.195  1.2021  0.4995  0.2557
  328MOL0     H44259   7.184  10.032   4.107 -0.2188  0.8877 -0.4792
  328MOL0     H44260   6.786   9.975   3.589 -0.8179 -4.1561  0.1658
  328MOL0     H44261   6.540   9.990   3.570  1.5638 -2.3396  1.0515
  328MOL0     H44262   6.158  10.047   3.336 -0.0744 -0.6011  1.4299
  328MOL0     H44263   5.927  10.027   3.248  0.7362  1.0097 -0.5254
  328MOL0     H44264   3.847   9.400   3.309  1.6982  0.6313  1.0822
  328MOL0     H44265   3.668   9.368   3.125 -1.1604 -2.8782 -2.6230
  328MOL0     H44266   3.551   9.216   2.792 -1.1648 -0.7028 -0.3552
  328MOL0     H44267   3.368   9.132   2.643 -0.1380  0.2737  1.3739
  328MOL0     H44268   3.161   9.417   2.361  0.5830 -2.6441 -2.4976
  328MOL0     H44269   3.115   9.417   2.529 -0.4668  2.7873 -2.0013
  328MOL0     H44270   3.022   9.212   2.328  3.0388  3.9767 -2.3639
  328MOL0     H44271   2.945   9.357   2.387  0.8873  0.5608 -1.1483
  328MOL0     H44272   2.972   9.253   2.619  5.1670 -2.6150  0.6231
  328MOL0     H44273   3.015   9.106   2.540  0.8381  0.1991  1.0457
  328MOL0     H44274   2.775   9.087   2.581  2.0156  0.2972  1.5422
  328MOL0     H44275   2.745   9.245   2.501 -0.1297 -0.6163 -0.3839
  328MOL0     H44276   2.757   8.925   2.201 -0.0214 -0.1970  0.7545
  328MOL0     H44277   3.362   9.510   2.443 -1.2030 -1.5409  0.0178
  328MOL0     H44278   3.559   9.684   2.584 -0.1443  1.4322 -1.9199
  328MOL0     H44279   3.695   9.607   2.499 -0.3460  4.0122 -4.3548
  328MOL0     H44280   3.548   9.625   2.412 -0.7568 -0.1018  0.0735
  329MOL0     O44281   3.493   6.275   0.239 -0.9925  0.3222  0.1019
  329MOL0     C44282   3.494   6.335   0.349  0.2191 -0.4921  0.7390
  329MOL0     O44283   3.598   6.407   0.406  0.0350  0.0780 -0.7487
  329MOL0     C44284   3.709   6.429   0.327 -0.2626  0.2720 -0.6816
  329MOL0     C44285   3.716   6.547   0.251 -0.1537 -0.2451  0.1044
  329MOL0     C44286   3.823   6.569   0.165 -0.5551 -1.4805 -0.5798
  329MOL0     C44287   3.918   6.468   0.152 -0.2548 -0.4898  0.5437
  329MOL0     O44288   4.036   6.484   0.095 -0.4768  0.4643 -0.9174
  329MOL0     C44289   4.059   6.589   0.001  0.1029  0.1286 -0.5780
  329MOL0     C44290   4.166   6.544  -0.091 -0.4317 -0.6442  0.4470
  329MOL0     C44291   4.150   6.631  -0.217  0.1798 -0.2579  0.2253
  329MOL0     C44292   4.254   6.592  -0.318 -0.3876 -0.7267  0.2263
  329MOL0     C44293   4.209   6.649  -0.453 -1.0657  0.0639 -0.1765
  329MOL0     C44294   4.315   6.626  -0.559  0.1160 -0.2287 -0.5685
  329MOL0     C44295   4.348   6.486  -0.594  0.2604  0.1630 -0.2947
  329MOL0     C44296   4.460   6.471  -0.696 -0.5300 -1.0733  0.2392
  329MOL0     N44297   4.435   6.549  -0.817  0.5683 -0.4736  0.5267
  329MOL0     C44298   4.465   6.677  -0.842 -0.7714  0.2628  0.7078
  329MOL0     C44299   4.413   6.698  -0.961 -0.7883  0.1973  0.5844
  329MOL0     C44300   4.442   6.818  -1.034 -0.1288  0.4070  0.1641
  329MOL0     C44301   4.589   6.821  -1.086 -0.1832 -0.3956  0.3252
  329MOL0     C44302   4.623   6.961  -1.155  0.0635  0.7152  0.6178
  329MOL0     C44303   4.764   6.984  -1.200 -0.4961  1.0519 -0.0228
  329MOL0     O44304   4.789   6.872  -1.288 -0.0664 -0.2430 -0.4813
  329MOL0     C44305   4.903   6.869  -1.371  0.7050  0.6638  0.3038
  329MOL0     C44306   4.929   6.743  -1.427 -0.9834 -0.2219 -0.7665
  329MOL0     C44307   5.030   6.735  -1.524  0.5107  0.1954 -0.2414
  329MOL0     C44308   5.127   6.835  -1.546 -0.2324 -0.1583  0.0024
  329MOL0     C44309   5.239   6.829  -1.639 -0.6007  0.5466 -0.0863
  329MOL0     O44310   5.259   6.702  -1.694 -0.0349 -0.5906  0.1561
  329MOL0     C44311   5.364   6.673  -1.778 -0.1245 -0.7899  0.2758
  329MOL0     C44312   5.504   6.700  -1.743  0.3738  0.1667 -0.5826
  329MOL0     C44313   5.608   6.693  -1.832 -0.0309 -1.0513 -0.4203
  329MOL0     C44314   5.576   6.665  -1.970  0.6927  0.7431 -0.6798
  329MOL0     O44315   5.665   6.624  -2.063  0.0706 -0.0772 -0.1620
  329MOL0     C44316   5.806   6.666  -2.045  1.4313  0.7916 -0.3038
  329MOL0     C44317   5.899   6.629  -2.164  0.9377  0.3810  0.4524
  329MOL0     C44318   6.043   6.658  -2.120  0.3584  0.6662  0.4452
  329MOL0     C44319   6.145   6.594  -2.209 -0.3170 -0.7783  0.7416
  329MOL0     C44320   6.277   6.609  -2.136 -0.5780  0.6124 -0.4944
  329MOL0     C44321   6.308   6.488  -2.053 -0.1746  0.2072  0.0939
  329MOL0     C44322   6.445   6.494  -2.007 -0.0110 -0.0146 -0.4780
  329MOL0     C44323   6.469   6.399  -1.880  0.6185  0.1171 -0.2811
  329MOL0    Cl44324   6.639   6.402  -1.844 -0.3492 -0.0731 -0.2124
  329MOL0     C44325   5.441   6.632  -2.006  0.5444 -0.7004  0.2223
  329MOL0     C44326   5.340   6.646  -1.910  0.8182 -0.4408  0.3927
  329MOL0     O44327   5.299   6.932  -1.663 -0.3904 -0.2312  0.1267
  329MOL0     C44328   5.096   6.961  -1.481 -0.3091  0.1974 -0.5857
  329MOL0     C44329   4.986   6.975  -1.395 -0.4176 -0.0855  0.1148
  329MOL0     N44330   4.376   6.579  -1.013 -0.5226  0.2211 -0.0102
  329MOL0     N44331   4.392   6.489  -0.926 -0.4580 -0.0120 -0.2407
  329MOL0     C44332   3.917   6.355   0.225  0.1872 -0.3790  0.2456
  329MOL0     C44333   3.802   6.333   0.308 -0.5233  0.3057 -0.6981
  329MOL0     C44334   3.361   6.340   0.424  0.0665  0.2463  0.3064
  329MOL0     C44335   3.294   6.219   0.453 -1.1212  0.1645 -0.3901
  329MOL0     C44336   3.158   6.217   0.487  0.2313 -0.5260 -0.5525
  329MOL0     C44337   3.090   6.342   0.491 -0.1879 -0.0990  0.1792
  329MOL0     O44338   2.957   6.361   0.504  0.5099 -0.4393  0.7416
  329MOL0     C44339   2.885   6.237   0.500 -0.4810  0.6575 -0.1698
  329MOL0     C44340   2.870   6.190   0.363 -0.2301  0.1376  0.8673
  329MOL0     C44341   2.757   6.273   0.291 -0.3875 -0.7364  0.0269
  329MOL0     C44342   2.612   6.261   0.334  0.3997  0.1756  0.6029
  329MOL0     C44343   2.582   6.112   0.343 -1.3568 -0.1108 -1.3912
  329MOL0     C44344   2.541   5.999   0.348 -0.0569 -0.0534  0.4652
  329MOL0     C44345   3.158   6.460   0.480  1.8455  0.0618  0.3715
  329MOL0     C44346   3.291   6.459   0.451 -0.4596  0.7624  0.1656
  329MOL0     C44347   3.357   6.588   0.416 -0.8193  0.5279  0.0141
  329MOL0     H44348   3.636   6.620   0.261 -1.0878 -1.1871 -0.2396
  329MOL0     H44349   3.848   6.664   0.119 -0.0807 -1.7528 -0.8854
  329MOL0     H44350   3.970   6.610  -0.060 -1.0674  2.4630  1.7300
  329MOL0     H44351   4.087   6.684   0.046 -2.6427  3.6766 -5.3860
  329MOL0     H44352   4.150   6.437  -0.107  0.8332 -0.5449 -1.9500
  329MOL0     H44353   4.263   6.551  -0.039  0.5451 -0.3398 -1.3479
  329MOL0     H44354   4.158   6.738  -0.196  1.0527 -0.4792  1.0606
  329MOL0     H44355   4.048   6.621  -0.255  0.2595 -0.8253  0.1591
  329MOL0     H44356   4.350   6.638  -0.294 -0.3147  0.1041 -1.4645
  329MOL0     H44357   4.242   6.483  -0.324 -1.9708 -0.5013 -2.7351
  329MOL0     H44358   4.119   6.595  -0.484 -0.3959 -0.0048 -2.1260
  329MOL0     H44359   4.189   6.756  -0.442 -0.6568  0.0198  1.1310
  329MOL0     H44360   4.270   6.660  -0.653 -0.5249 -2.4182 -1.1126
  329MOL0     H44361   4.408   6.678  -0.534  1.3861 -1.8760 -1.6329
  329MOL0     H44362   4.260   6.438  -0.638 -0.6018  3.3763 -2.4264
  329MOL0     H44363   4.387   6.433  -0.507 -0.3784  1.4529  0.8193
  329MOL0     H44364   4.549   6.509  -0.645 -1.1210  0.3745  0.2269
  329MOL0     H44365   4.483   6.366  -0.718  1.6219 -0.2619 -1.8620
  329MOL0     H44366   4.520   6.737  -0.771 -0.1226 -0.2196  0.6216
  329MOL0     H44367   4.377   6.830  -1.121  0.0701  0.3823  0.0120
  329MOL0     H44368   4.421   6.902  -0.968  1.8987  1.2293 -0.1608
  329MOL0     H44369   4.669   6.806  -1.012  1.9193 -0.7837 -1.8917
  329MOL0     H44370   4.603   6.744  -1.162  1.5621  1.6219 -1.5166
  329MOL0     H44371   4.597   7.031  -1.074 -0.5543  2.3888 -0.9566
  329MOL0     H44372   4.551   6.982  -1.234 -0.2570  0.7882  0.9262
  329MOL0     H44373   4.822   6.975  -1.108  1.6819  0.2538 -1.4007
  329MOL0     H44374   4.776   7.084  -1.241  0.1190  1.2839  0.7056
  329MOL0     H44375   4.869   6.654  -1.412 -4.6708  1.3972 -4.1735
  329MOL0     H44376   5.031   6.635  -1.568  0.1841 -0.5458  1.3755
  329MOL0     H44377   5.520   6.734  -1.641  0.4385  0.3755 -0.6617
  329MOL0     H44378   5.702   6.728  -1.791 -0.5582  0.6133 -0.5927
  329MOL0     H44379   5.811   6.775  -2.037  1.5504  0.6813  1.8242
  329MOL0     H44380   5.844   6.636  -1.947 -2.0366  2.0672  1.5934
  329MOL0     H44381   5.880   6.524  -2.188  1.0941  0.4409  0.0641
  329MOL0     H44382   5.877   6.685  -2.255  1.1004 -0.9166 -0.4154
  329MOL0     H44383   6.052   6.767  -2.130 -3.1836  1.1288  0.9057
  329MOL0     H44384   6.058   6.634  -2.014 -2.6013  0.8746  0.9909
  329MOL0     H44385   6.150   6.656  -2.299  0.8979  3.2235  3.2883
  329MOL0     H44386   6.114   6.490  -2.218  1.8547 -1.6234  2.2478
  329MOL0     H44387   6.296   6.703  -2.083 -0.4686  0.5646 -0.4482
  329MOL0     H44388   6.352   6.619  -2.216 -3.4210  1.5307 -3.2418
  329MOL0     H44389   6.236   6.484  -1.971 -0.5522 -4.2056 -0.2167
  329MOL0     H44390   6.284   6.399  -2.112 -0.7538  1.1973 -1.2513
  329MOL0     H44391   6.465   6.597  -1.979 -2.2363  1.2367 -3.0067
  329MOL0     H44392   6.518   6.466  -2.084 -0.8057 -0.9576 -0.9092
  329MOL0     H44393   6.417   6.436  -1.791 -0.8916  1.4682 -1.6626
  329MOL0     H44394   6.425   6.303  -1.908 -0.2949  1.1314 -2.5848
  329MOL0     H44395   5.433   6.598  -2.109  3.5752  0.0878 -0.3719
  329MOL0     H44396   5.238   6.627  -1.943  0.9207 -1.5755  0.6876
  329MOL0     H44397   5.154   7.051  -1.498 -1.2474  1.0749  0.7214
  329MOL0     H44398   4.976   7.078  -1.363 -0.4346 -0.1971  0.4732
  329MOL0     H44399   4.000   6.286   0.222 -0.1120 -0.7209 -1.5722
  329MOL0     H44400   3.782   6.230   0.338 -2.1811 -0.6857 -4.6041
  329MOL0     H44401   3.344   6.123   0.451  1.2900  1.3056  0.8234
  329MOL0     H44402   3.114   6.119   0.506 -2.2935  0.6490  0.1882
  329MOL0     H44403   2.791   6.258   0.550  0.2333  1.5820  0.8261
  329MOL0     H44404   2.931   6.162   0.566  3.9839  2.6824 -0.5924
  329MOL0     H44405   2.853   6.082   0.360 -0.8382  0.2257  1.0957
  329MOL0     H44406   2.959   6.208   0.302 -0.0491 -0.5085  0.9290
  329MOL0     H44407   2.770   6.266   0.182 -3.8445  3.9590 -1.0022
  329MOL0     H44408   2.779   6.377   0.315 -0.4153 -1.6389  4.7878
  329MOL0     H44409   2.581   6.311   0.427 -1.3876 -0.9258  0.6542
  329MOL0     H44410   2.565   6.294   0.241  2.5583  0.1480 -0.5461
  329MOL0     H44411   2.507   5.898   0.336 -0.1347  0.0998 -0.7242
  329MOL0     H44412   3.097   6.548   0.498  0.9259 -0.5260  0.1815
  329MOL0     H44413   3.440   6.591   0.487 -1.2922 -3.8695  1.0179
  329MOL0     H44414   3.383   6.601   0.310 -1.1126  2.2582  0.1191
  329MOL0     H44415   3.291   6.674   0.436 -2.5846 -0.6884 -0.3628
  330MOL0     O44416   3.386   9.454   4.194  0.0933 -0.9184  0.3435
  330MOL0     C44417   3.357   9.473   4.079  0.0294  0.4133  0.2848
  330MOL0     O44418   3.444   9.466   3.972  0.9497 -0.1688 -0.6021
  330MOL0     C44419   3.578   9.443   4.008 -0.0627  1.3417 -0.1331
  330MOL0     C44420   3.609   9.332   4.091  0.6918  0.6851  0.1138
  330MOL0     C44421   3.742   9.314   4.133  0.3167  0.8002  0.2300
  330MOL0     C44422   3.846   9.383   4.081  0.2595  0.3181  0.2774
  330MOL0     O44423   3.972   9.368   4.125  0.2749 -0.3306  0.4205
  330MOL0     C44424   4.019   9.249   4.198 -0.3193  0.4213 -0.2748
  330MOL0     C44425   4.169   9.244   4.239 -0.4011  0.5153 -0.3600
  330MOL0     C44426   4.198   9.365   4.328  0.2020 -0.4993 -0.2464
  330MOL0     C44427   4.343   9.380   4.363  0.3103  0.7168 -0.3343
  330MOL0     C44428   4.373   9.290   4.490  0.6031 -0.6247 -0.1625
  330MOL0     C44429   4.520   9.283   4.511 -0.2636 -0.0614  0.2520
  330MOL0     C44430   4.576   9.207   4.635  1.0717 -1.2246  0.1325
  330MOL0     C44431   4.722   9.175   4.637  0.1644 -0.0811 -0.0677
  330MOL0     N44432   4.816   9.263   4.569  0.5163 -0.4105 -0.5892
  330MOL0     C44433   4.892   9.359   4.633  0.6871 -0.0290 -0.1926
  330MOL0     C44434   4.978   9.405   4.535  0.1366 -0.1988 -0.3180
  330MOL0     C44435   5.075   9.521   4.528  0.0208  0.8067  0.2558
  330MOL0     C44436   5.212   9.470   4.507 -1.2570 -0.1498  0.3662
  330MOL0     C44437   5.319   9.586   4.484  0.0388 -0.5503 -0.7007
  330MOL0     C44438   5.456   9.524   4.446  0.9870  0.4204 -0.5423
  330MOL0     O44439   5.560   9.627   4.439 -0.0044  0.4041 -0.4842
  330MOL0     C44440   5.682   9.612   4.494  0.6028 -1.3189  0.6451
  330MOL0     C44441   5.731   9.492   4.546 -0.2428 -0.1485  0.0916
  330MOL0     C44442   5.857   9.492   4.603 -0.4617  0.2328  0.2242
  330MOL0     C44443   5.939   9.603   4.597 -0.3248  0.5567 -0.0808
  330MOL0     C44444   6.078   9.585   4.641 -0.2968 -0.9527 -0.2689
  330MOL0     O44445   6.145   9.465   4.651 -0.1219  0.6090  0.3514
  330MOL0     C44446   6.281   9.471   4.640 -0.6854  0.5358  0.0661
  330MOL0     C44447   6.354   9.383   4.729 -0.3773 -0.6181  0.8863
  330MOL0     C44448   6.493   9.367   4.724 -0.4479 -0.6320 -0.1441
  330MOL0     C44449   6.569   9.443   4.631  0.8037 -0.8504  0.4467
  330MOL0     O44450   6.699   9.424   4.620 -0.8685  0.3851 -0.9806
  330MOL0     C44451   6.783   9.542   4.609  0.2988 -0.9337 -0.2988
  330MOL0     C44452   6.919   9.547   4.668 -0.5305  1.0133  0.1534
  330MOL0     C44453   6.981   9.680   4.691 -0.1940  0.6930 -0.7928
  330MOL0     C44454   7.060   9.730   4.567 -0.1000 -0.1621 -0.7314
  330MOL0     C44455   7.179   9.814   4.606 -0.1650 -0.0098  0.0972
  330MOL0     C44456   7.298   9.721   4.653  0.5165  1.0887 -0.2095
  330MOL0     C44457   7.421   9.815   4.672  1.0600  0.0318  0.2245
  330MOL0     C44458   7.551   9.742   4.680  0.1030  0.7429 -0.5506
  330MOL0    Cl44459   7.669   9.874   4.720  0.4692  0.6767 -0.2954
  330MOL0     C44460   6.498   9.532   4.543 -0.9385  0.2206  0.4273
  330MOL0     C44461   6.355   9.545   4.551 -0.2827 -0.3066 -1.1175
  330MOL0     O44462   6.139   9.692   4.661  0.5998 -0.0096 -0.4071
  330MOL0     C44463   5.886   9.719   4.542  0.2301  0.0211  0.5136
  330MOL0     C44464   5.758   9.723   4.494  0.6602  0.2555  0.4783
  330MOL0     N44465   4.959   9.333   4.418  0.0836  0.5757  0.3895
  330MOL0     N44466   4.849   9.261   4.439  0.4962 -0.3630  1.2023
  330MOL0     C44467   3.821   9.492   3.990 -0.5746  0.4459 -0.4543
  330MOL0     C44468   3.685   9.527   3.961  0.0794 -0.4031  0.5155
  330MOL0     C44469   3.217   9.507   4.054 -0.0008  0.4900 -0.2461
  330MOL0     C44470   3.170   9.464   3.930 -0.2673  0.4041 -0.4844
  330MOL0     C44471   3.041   9.487   3.878 -0.2679 -0.5791 -0.0389
  330MOL0     C44472   2.955   9.569   3.955 -0.8069  0.2798 -0.1978
  330MOL0     O44473   2.826   9.588   3.904 -0.3985 -0.2654  0.7982
  330MOL0     C44474   2.722   9.660   3.972 -0.4696  0.8587  0.4839
  330MOL0     C44475   2.590   9.597   3.952  0.4229  0.3562 -0.6216
  330MOL0     C44476   2.472   9.682   3.997 -0.0423  0.5281  0.3610
  330MOL0     C44477   2.335   9.605   3.982  0.1083  0.6444  0.1897
  330MOL0     C44478   2.220   9.702   3.981 -0.0706  0.5839  0.2914
  330MOL0     C44479   2.116   9.757   3.964  0.3188  0.3197  0.2518
  330MOL0     C44480   3.005   9.620   4.078  0.1800  0.2813  0.6263
  330MOL0     C44481   3.133   9.598   4.125 -0.0117  0.2011  0.4001
  330MOL0     C44482   3.176   9.664   4.248 -0.5987 -0.5963 -0.6833
  330MOL0     H44483   3.535   9.261   4.129  1.3938 -1.8794 -2.8434
  330MOL0     H44484   3.742   9.235   4.207 -1.3486 -0.2880 -0.8295
  330MOL0     H44485   3.968   9.250   4.295  0.6388 -0.2023  0.2523
  330MOL0     H44486   3.992   9.156   4.148 -1.6988  0.6802 -0.0593
  330MOL0     H44487   4.228   9.227   4.149 -3.0845 -0.5888 -2.0543
  330MOL0     H44488   4.177   9.161   4.310 -0.9563  1.9602  1.5048
  330MOL0     H44489   4.139   9.349   4.418  0.7644  2.1935  0.6747
  330MOL0     H44490   4.154   9.449   4.274 -0.9040  0.1239  1.5607
  330MOL0     H44491   4.405   9.343   4.280  3.1316  0.1227  1.8419
  330MOL0     H44492   4.364   9.487   4.369 -1.4003  1.1833 -1.8487
  330MOL0     H44493   4.331   9.329   4.583 -0.2153 -2.2707  0.2015
  330MOL0     H44494   4.330   9.189   4.482  0.8396 -1.4232  5.0515
  330MOL0     H44495   4.567   9.251   4.418  0.3163  3.1038 -0.6389
  330MOL0     H44496   4.549   9.388   4.524  0.1049 -0.3906  2.3962
  330MOL0     H44497   4.517   9.116   4.649  0.5130 -0.7089  1.2731
  330MOL0     H44498   4.549   9.262   4.725 -0.3848 -4.3783  1.8006
  330MOL0     H44499   4.749   9.176   4.743  0.4485  1.4568 -0.1311
  330MOL0     H44500   4.734   9.078   4.587  0.9803  1.9120 -4.2069
  330MOL0     H44501   4.890   9.393   4.737 -2.3877  1.6761 -0.6849
  330MOL0     H44502   5.049   9.586   4.444  1.9845  0.6576 -0.5331
  330MOL0     H44503   5.065   9.567   4.627 -1.0307  0.2706  0.4109
  330MOL0     H44504   5.252   9.415   4.593  1.5536  0.1428 -0.6550
  330MOL0     H44505   5.211   9.411   4.415 -0.5608 -0.4975  0.5722
  330MOL0     H44506   5.313   9.648   4.574  1.9320 -0.8595 -0.3285
  330MOL0     H44507   5.288   9.648   4.400  0.6346 -0.3876 -0.8059
  330MOL0     H44508   5.453   9.467   4.352  2.2865 -0.4689 -0.0676
  330MOL0     H44509   5.468   9.445   4.521 -0.0389 -0.7867 -1.5876
  330MOL0     H44510   5.676   9.398   4.541 -0.1664 -0.4566  3.0314
  330MOL0     H44511   5.896   9.395   4.629 -1.7667 -0.0192  1.3151
  330MOL0     H44512   6.302   9.318   4.798  5.2742 -2.0637  4.4135
  330MOL0     H44513   6.558   9.306   4.785  3.9571  0.5085 -3.2136
  330MOL0     H44514   6.799   9.580   4.508  0.4508 -0.7295 -0.1975
  330MOL0     H44515   6.735   9.617   4.672  1.7787  0.1129 -0.3726
  330MOL0     H44516   6.899   9.503   4.766 -0.0971  0.3675 -0.0460
  330MOL0     H44517   6.992   9.484   4.618 -1.6911 -0.6067  0.4102
  330MOL0     H44518   6.906   9.757   4.709 -0.4066  0.4240 -0.5247
  330MOL0     H44519   7.044   9.663   4.779  1.1568 -0.4360 -1.9207
  330MOL0     H44520   6.999   9.806   4.516  1.3647  1.4971 -0.0987
  330MOL0     H44521   7.094   9.657   4.494  0.6784  1.8283 -2.4653
  330MOL0     H44522   7.140   9.883   4.682 -1.8303 -1.0711  0.2773
  330MOL0     H44523   7.212   9.865   4.515  0.9431  0.6523  0.8437
  330MOL0     H44524   7.283   9.670   4.749  4.8810 -1.6072 -0.7196
  330MOL0     H44525   7.325   9.645   4.580 -1.7171  0.5054 -0.4956
  330MOL0     H44526   7.412   9.874   4.763  1.7529  1.3568 -0.5333
  330MOL0     H44527   7.436   9.889   4.593  0.1447 -0.3587 -0.3210
  330MOL0     H44528   7.549   9.660   4.753 -1.2294 -0.3558 -1.7753
  330MOL0     H44529   7.569   9.695   4.583 -0.8187  1.3634 -1.0366
  330MOL0     H44530   6.555   9.589   4.471 -2.4799 -0.4813 -1.4417
  330MOL0     H44531   6.295   9.602   4.480 -0.9786  0.7618  0.2623
  330MOL0     H44532   5.951   9.804   4.528  1.9847 -1.3145  0.1910
  330MOL0     H44533   5.725   9.814   4.445 -0.7146  0.2597  1.3545
  330MOL0     H44534   3.904   9.553   3.957 -0.7641  0.2466 -1.3196
  330MOL0     H44535   3.654   9.612   3.901  0.3002 -2.3168 -2.4976
  330MOL0     H44536   3.233   9.418   3.854  0.6162  2.2725 -0.9507
  330MOL0     H44537   3.015   9.470   3.774  0.7690  4.3739 -1.3641
  330MOL0     H44538   2.713   9.760   3.928  0.4778  0.6755 -0.1430
  330MOL0     H44539   2.750   9.672   4.077  0.7179  1.9972  0.0657
  330MOL0     H44540   2.586   9.510   4.019 -2.0864 -0.2069 -1.3873
  330MOL0     H44541   2.572   9.553   3.854 -1.6376  2.4615 -1.2773
  330MOL0     H44542   2.466   9.771   3.934  2.1678  0.6193  0.2055
  330MOL0     H44543   2.472   9.713   4.102 -0.5175  2.2200 -0.1031
  330MOL0     H44544   2.333   9.564   3.881 -2.3161  3.8707 -1.2914
  330MOL0     H44545   2.318   9.526   4.055  0.1754 -0.4763 -0.9802
  330MOL0     H44546   2.021   9.803   3.948  0.8030  0.4122 -2.8997
  330MOL0     H44547   2.951   9.701   4.127 -0.1412  0.4253  0.0532
  330MOL0     H44548   3.103   9.739   4.281  1.9770  2.7873 -2.0685
  330MOL0     H44549   3.192   9.606   4.340 -0.1031  0.7310  0.1079
  330MOL0     H44550   3.259   9.733   4.230 -1.1331  0.5838  1.0612
  331MOL0     O44551   7.097   5.420   8.413 -0.2694  0.7858 -0.2930
  331MOL0     C44552   7.141   5.356   8.315  0.2090 -0.0365 -0.2863
  331MOL0     O44553   7.228   5.398   8.225  0.5747 -0.4414 -0.2358
  331MOL0     C44554   7.290   5.524   8.231  0.5819  0.3091  0.5953
  331MOL0     C44555   7.337   5.561   8.104 -0.5426  1.0550  0.1018
  331MOL0     C44556   7.404   5.682   8.091 -0.6883  0.4681 -0.0059
  331MOL0     C44557   7.431   5.764   8.206 -0.0218 -0.2826  0.5005
  331MOL0     O44558   7.514   5.872   8.183 -0.2485  0.3922 -0.4303
  331MOL0     C44559   7.556   5.958   8.290 -0.0721 -0.8226  0.2770
  331MOL0     C44560   7.663   6.070   8.255  0.2365 -0.0383  0.5223
  331MOL0     C44561   7.662   6.182   8.362 -0.4055  0.1241  1.1197
  331MOL0     C44562   7.774   6.291   8.342  0.3935  0.7641  0.0992
  331MOL0     C44563   7.793   6.380   8.472  0.6655 -0.1793  0.0181
  331MOL0     C44564   7.852   6.518   8.438  0.5240  0.3385  0.2346
  331MOL0     C44565   8.003   6.502   8.405 -0.8996 -0.0493 -0.7732
  331MOL0     C44566   8.079   6.481   8.537 -0.7966  0.5062  0.0279
  331MOL0     N44567   8.230   6.496   8.513  0.1329  0.4527 -0.2088
  331MOL0     C44568   8.305   6.413   8.431  0.6418 -0.0101  0.2884
  331MOL0     C44569   8.429   6.460   8.427 -0.3230 -0.4861 -0.2754
  331MOL0     C44570   8.554   6.399   8.359  0.0053  0.4081 -0.0547
  331MOL0     C44571   8.594   6.266   8.425  0.6540  0.4619  0.8354
  331MOL0     C44572   8.667   6.281   8.552  0.2423 -0.0498  0.1917
  331MOL0     C44573   8.815   6.314   8.538  0.1784 -0.0334  0.2416
  331MOL0     O44574   8.851   6.399   8.425 -0.0380  0.6467 -0.4339
  331MOL0     C44575   8.993   6.404   8.414 -0.6480 -0.2430 -0.5554
  331MOL0     C44576   9.078   6.418   8.528  0.2461  0.4843  0.1405
  331MOL0     C44577   9.213   6.415   8.506  0.2452 -0.9689  0.0576
  331MOL0     C44578   9.278   6.397   8.381  0.8352 -0.3325 -0.4623
  331MOL0     C44579   9.420   6.401   8.374  0.6932  0.1508 -0.7250
  331MOL0     O44580   9.492   6.399   8.489  0.0912  0.3013  0.4362
  331MOL0     C44581   9.608   6.325   8.508  0.4327  0.1242  0.2324
  331MOL0     C44582   9.705   6.366   8.598  0.2085  0.4445  0.4303
  331MOL0     C44583   9.831   6.306   8.605 -1.5791 -0.4817 -0.2120
  331MOL0     C44584   9.867   6.200   8.516 -0.0895  0.7430 -0.4263
  331MOL0     O44585   9.987   6.144   8.500 -0.1934 -0.0001 -1.0968
  331MOL0     C44586  10.088   6.242   8.466 -0.3190  0.0660  0.0063
  331MOL0     C44587  10.199   6.177   8.391  0.1432  0.5389  0.0027
  331MOL0     C44588  10.312   6.274   8.366  1.0228 -0.0812  0.6879
  331MOL0     C44589  10.292   6.354   8.238  0.4969 -0.5096  0.2097
  331MOL0     C44590  10.429   6.381   8.174 -0.3194  0.1077  1.1526
  331MOL0     C44591  10.537   6.458   8.251 -0.3169 -0.1780  0.1754
  331MOL0     C44592  10.649   6.515   8.156 -1.0676  0.4770 -0.2840
  331MOL0     C44593  10.737   6.416   8.082 -0.3978  0.8265  0.1070
  331MOL0    Cl44594  10.872   6.498   8.000  0.1765  0.3991  0.1855
  331MOL0     C44595   9.761   6.150   8.442 -0.2399 -0.1615 -0.0484
  331MOL0     C44596   9.631   6.205   8.448  0.0946  0.3901 -0.0158
  331MOL0     O44597   9.476   6.404   8.263  0.1643 -0.2981 -0.6653
  331MOL0     C44598   9.192   6.393   8.273  0.0496  0.1355  0.7710
  331MOL0     C44599   9.051   6.397   8.289  0.1054  0.2162  0.3842
  331MOL0     N44600   8.434   6.561   8.522 -0.7147 -0.6288 -1.0961
  331MOL0     N44601   8.320   6.588   8.571  0.3624  0.0842 -0.0073
  331MOL0     C44602   7.377   5.725   8.332 -0.9598  0.0467  0.4397
  331MOL0     C44603   7.307   5.605   8.344 -0.4886  0.0400  0.2409
  331MOL0     C44604   7.068   5.211   8.289 -0.6187  0.2597 -0.2727
  331MOL0     C44605   7.077   5.165   8.155 -0.3685 -1.2945  0.6501
  331MOL0     C44606   7.022   5.038   8.120 -0.5637 -0.2331  0.5773
  331MOL0     C44607   6.961   4.949   8.209  0.4191 -0.4872  0.0645
  331MOL0     O44608   6.943   4.820   8.181 -0.1430  0.2561  0.3540
  331MOL0     C44609   6.852   4.790   8.068  0.6093  0.0019 -0.2811
  331MOL0     C44610   6.706   4.843   8.110  0.7511 -0.0375 -0.0335
  331MOL0     C44611   6.588   4.795   8.022  0.3234 -0.5031  0.4790
  331MOL0     C44612   6.522   4.678   8.080 -0.2240 -0.1407 -0.0032
  331MOL0     C44613   6.381   4.667   8.036 -0.4004 -0.3669 -0.8526
  331MOL0     C44614   6.261   4.659   8.019  0.7149  0.7638  0.1994
  331MOL0     C44615   6.947   4.995   8.341  0.3301 -0.2426  0.0460
  331MOL0     C44616   7.002   5.124   8.380  0.8340 -0.5713  1.3171
  331MOL0     C44617   6.976   5.183   8.511 -0.1398 -0.0874 -0.3727
  331MOL0     H44618   7.329   5.507   8.010  4.9687  2.7996 -1.8020
  331MOL0     H44619   7.449   5.704   7.994  0.2817 -0.8514  0.1310
  331MOL0     H44620   7.468   6.019   8.313  2.1287  3.0368 -0.5435
  331MOL0     H44621   7.588   5.901   8.378 -0.9536 -1.1499  0.3942
  331MOL0     H44622   7.655   6.101   8.150  0.2411 -3.5691 -0.6328
  331MOL0     H44623   7.766   6.034   8.255  0.5820  0.7675 -1.6689
  331MOL0     H44624   7.696   6.131   8.454  1.4182 -0.1462  0.3505
  331MOL0     H44625   7.565   6.228   8.378  0.8276  2.4237  2.5923
  331MOL0     H44626   7.866   6.258   8.292 -1.2419 -0.3337 -2.3993
  331MOL0     H44627   7.733   6.361   8.268 -3.2294  0.1325  1.3086
  331MOL0     H44628   7.690   6.397   8.507  0.3476  1.5468 -1.6075
  331MOL0     H44629   7.848   6.331   8.553  3.2264  2.6695  0.1720
  331MOL0     H44630   7.804   6.576   8.358  2.2390  1.7392  0.1652
  331MOL0     H44631   7.846   6.584   8.525  2.3752 -1.0244  1.4445
  331MOL0     H44632   8.041   6.598   8.370  2.5922 -1.5564 -1.5603
  331MOL0     H44633   8.027   6.432   8.324 -0.9707 -0.0268 -0.8144
  331MOL0     H44634   8.040   6.555   8.609 -0.0121  0.3844  0.5989
  331MOL0     H44635   8.063   6.383   8.582  3.1174  0.4890  1.7697
  331MOL0     H44636   8.276   6.320   8.382  0.7830  0.2782 -0.3599
  331MOL0     H44637   8.517   6.376   8.259  0.3963  2.0787 -0.6104
  331MOL0     H44638   8.637   6.469   8.347  1.8335 -1.9626 -2.5615
  331MOL0     H44639   8.497   6.215   8.428  0.5950  0.2985 -1.9337
  331MOL0     H44640   8.651   6.204   8.355  1.3290  1.5980  0.3473
  331MOL0     H44641   8.661   6.180   8.593  1.7480 -0.1442  0.2558
  331MOL0     H44642   8.615   6.352   8.618  2.0410 -1.3934  3.2599
  331MOL0     H44643   8.866   6.218   8.533  0.1910  0.0455 -3.0023
  331MOL0     H44644   8.846   6.358   8.633 -0.9053 -1.3481  1.2481
  331MOL0     H44645   9.054   6.423   8.633 -0.9020  3.6071 -0.1413
  331MOL0     H44646   9.279   6.438   8.589 -0.0939 -2.2611  0.7181
  331MOL0     H44647   9.675   6.442   8.671 -0.6677 -0.1317  0.6918
  331MOL0     H44648   9.917   6.329   8.667 -0.2467 -2.6309 -1.1560
  331MOL0     H44649  10.037   6.322   8.411 -0.2619 -0.1695 -0.4011
  331MOL0     H44650  10.136   6.284   8.554  0.4748  3.0963 -1.7308
  331MOL0     H44651  10.241   6.102   8.457 -2.4630  0.8411  2.1455
  331MOL0     H44652  10.171   6.134   8.294  0.1303 -2.3415  1.2079
  331MOL0     H44653  10.319   6.343   8.450 -1.6685  1.6300 -0.3702
  331MOL0     H44654  10.406   6.222   8.343  0.7425  0.5336 -2.3908
  331MOL0     H44655  10.245   6.447   8.271 -0.1679 -0.8380  0.1959
  331MOL0     H44656  10.221   6.306   8.170 -0.2908 -1.2028  1.4855
  331MOL0     H44657  10.410   6.434   8.080 -0.2346 -0.7518  0.6367
  331MOL0     H44658  10.462   6.283   8.138  0.6771  0.8509 -0.0185
  331MOL0     H44659  10.486   6.552   8.273 -0.1066 -0.2036  0.7910
  331MOL0     H44660  10.565   6.406   8.343  0.5820 -1.3540 -0.7412
  331MOL0     H44661  10.720   6.576   8.213  1.8011 -1.3408 -1.6667
  331MOL0     H44662  10.598   6.573   8.079 -3.0339  1.7578  1.8628
  331MOL0     H44663  10.769   6.338   8.152 -1.4596  1.8813  1.8405
  331MOL0     H44664  10.674   6.360   8.012  0.8486 -1.7914  0.9325
  331MOL0     H44665   9.771   6.053   8.394 -0.1721 -0.8998  1.3814
  331MOL0     H44666   9.550   6.170   8.384 -2.1964  1.3977  2.1418
  331MOL0     H44667   9.229   6.392   8.172 -1.5069  1.7825  0.1372
  331MOL0     H44668   8.990   6.408   8.200  1.7605  1.1233 -0.6950
  331MOL0     H44669   7.405   5.793   8.412 -0.8738  0.2214  0.2651
  331MOL0     H44670   7.264   5.578   8.440 -1.5452 -2.6421 -0.8916
  331MOL0     H44671   7.128   5.222   8.078  0.7956 -0.5344  1.9221
  331MOL0     H44672   7.040   5.009   8.017  0.4329  0.0101  0.6748
  331MOL0     H44673   6.854   4.685   8.038 -0.8155  0.0425 -0.6174
  331MOL0     H44674   6.895   4.847   7.985  0.1611  0.1111 -0.4404
  331MOL0     H44675   6.716   4.952   8.112  1.8981 -0.1264  2.0922
  331MOL0     H44676   6.685   4.810   8.212 -1.7311  1.1227 -0.1032
  331MOL0     H44677   6.613   4.760   7.921 -1.7666  1.3279 -0.7728
  331MOL0     H44678   6.511   4.871   8.009 -1.7054 -2.4435  0.5403
  331MOL0     H44679   6.578   4.585   8.066 -2.9457 -1.5665 -2.1929
  331MOL0     H44680   6.515   4.690   8.189 -1.9741  2.0097 -0.2833
  331MOL0     H44681   6.155   4.644   8.017  0.6432  0.5838 -4.1366
  331MOL0     H44682   6.900   4.934   8.418  2.5805 -1.2882  0.6971
  331MOL0     H44683   6.946   5.100   8.576 -2.0557  1.3194  0.6424
  331MOL0     H44684   7.064   5.233   8.552 -1.2485  2.9514 -1.3971
  331MOL0     H44685   6.892   5.251   8.497 -0.1274  0.3967  1.5940
  332MOL0     O44686   4.385   7.259   6.799 -0.4358  0.4767  0.5184
  332MOL0     C44687   4.358   7.237   6.917  0.1723  0.3443  0.4959
  332MOL0     O44688   4.415   7.294   7.019  0.2453 -0.2526  0.1021
  332MOL0     C44689   4.508   7.397   6.991  0.5525 -0.1194 -0.9085
  332MOL0     C44690   4.487   7.538   7.014  0.2809  0.2140 -0.1485
  332MOL0     C44691   4.585   7.630   7.008 -0.5020 -0.9326 -0.7079
  332MOL0     C44692   4.714   7.586   6.972 -0.6198 -0.0582 -0.1175
  332MOL0     O44693   4.816   7.680   6.981 -0.1554  0.0662  0.1892
  332MOL0     C44694   4.948   7.643   6.951  0.5600 -0.4639 -0.2460
  332MOL0     C44695   5.029   7.771   6.942 -0.0522 -0.2318 -0.0183
  332MOL0     C44696   5.168   7.729   6.905 -0.3983 -0.7865  0.6196
  332MOL0     C44697   5.182   7.719   6.753 -1.1431  0.2344 -0.0014
  332MOL0     C44698   5.333   7.684   6.720  1.0781 -1.3043  0.1008
  332MOL0     C44699   5.359   7.656   6.570 -0.8151  0.5268  0.2853
  332MOL0     C44700   5.464   7.537   6.551  0.6384 -0.4093  0.0783
  332MOL0     C44701   5.540   7.542   6.421  1.0203 -0.3666 -0.1477
  332MOL0     N44702   5.444   7.517   6.305 -0.6257  0.1956 -0.0340
  332MOL0     C44703   5.339   7.440   6.297  0.2147  1.3289  0.0913
  332MOL0     C44704   5.293   7.463   6.175 -0.4523  0.0209  0.5171
  332MOL0     C44705   5.172   7.401   6.118 -0.5725 -0.8532  0.2235
  332MOL0     C44706   5.047   7.478   6.161 -0.6321  0.8246 -0.3740
  332MOL0     C44707   4.917   7.421   6.105 -0.4852 -0.0886  0.2583
  332MOL0     C44708   4.796   7.498   6.155  0.0346  1.0906  0.0410
  332MOL0     O44709   4.675   7.434   6.103 -0.5006 -0.1045 -0.5497
  332MOL0     C44710   4.554   7.486   6.138 -0.0560 -0.7223  0.4910
  332MOL0     C44711   4.540   7.600   6.217 -0.0239  0.6359  0.5123
  332MOL0     C44712   4.425   7.627   6.281 -0.6337 -0.1695 -0.8083
  332MOL0     C44713   4.305   7.554   6.248  0.5206  0.0784  0.9546
  332MOL0     C44714   4.171   7.579   6.310 -0.3415  0.7277 -0.4033
  332MOL0     O44715   4.069   7.504   6.275  0.7167 -0.5600 -0.3402
  332MOL0     C44716   3.947   7.529   6.332  0.2008  0.6453  0.4172
  332MOL0     C44717   3.898   7.459   6.447  0.5992  0.5547 -0.3642
  332MOL0     C44718   3.766   7.485   6.495 -0.3066 -0.3470  0.8034
  332MOL0     C44719   3.678   7.573   6.436  0.0740  0.2746  0.2635
  332MOL0     O44720   3.553   7.602   6.480  0.5282 -0.5750 -0.1893
  332MOL0     C44721   3.526   7.580   6.621  0.4636 -0.5675  0.0012
  332MOL0     C44722   3.380   7.625   6.632 -0.4429  0.1014 -0.2760
  332MOL0     C44723   3.281   7.546   6.548 -0.0532  0.1463  0.4182
  332MOL0     C44724   3.224   7.631   6.444  0.9326 -1.2615 -0.5057
  332MOL0     C44725   3.103   7.564   6.376 -0.0369  0.2267 -0.5313
  332MOL0     C44726   2.965   7.561   6.451 -0.7145 -0.4029  0.6288
  332MOL0     C44727   2.886   7.688   6.439  0.1866 -0.0492  0.0452
  332MOL0     C44728   2.761   7.693   6.541 -0.1134  0.1848 -0.9824
  332MOL0    Cl44729   2.639   7.585   6.469 -0.1923 -0.2344  0.0155
  332MOL0     C44730   3.725   7.640   6.326  0.3906 -0.1844 -0.9421
  332MOL0     C44731   3.856   7.621   6.279 -0.0156  0.2749  0.5603
  332MOL0     O44732   4.172   7.657   6.401 -0.4036 -0.9426 -0.3615
  332MOL0     C44733   4.310   7.445   6.151 -0.8420  0.0464 -0.5068
  332MOL0     C44734   4.439   7.406   6.110  0.1092  0.1876  0.0172
  332MOL0     N44735   5.373   7.552   6.108 -0.0097 -0.6853 -0.2972
  332MOL0     N44736   5.465   7.583   6.188  0.6893  0.2522  0.0327
  332MOL0     C44737   4.735   7.451   6.930  0.9103  0.6393  0.3195
  332MOL0     C44738   4.633   7.359   6.949  0.2010 -0.0379 -0.8975
  332MOL0     C44739   4.261   7.136   6.953 -0.9860 -0.9540 -0.3623
  332MOL0     C44740   4.293   7.053   7.070  0.6387 -0.3984  0.2752
  332MOL0     C44741   4.206   6.956   7.110  0.0463  0.7548  0.1937
  332MOL0     C44742   4.076   6.940   7.045 -0.0267  0.0244  0.1721
  332MOL0     O44743   3.977   6.858   7.093  0.1565 -0.5285 -0.1394
  332MOL0     C44744   4.025   6.760   7.190  0.2114  0.6899  0.0101
  332MOL0     C44745   3.927   6.646   7.191  1.0090  1.7542  0.1129
  332MOL0     C44746   3.966   6.523   7.270  0.3465 -0.0360  0.9834
  332MOL0     C44747   3.859   6.423   7.291 -0.5516  0.8333 -0.6608
  332MOL0     C44748   3.785   6.385   7.174 -0.3903 -0.2420  1.0844
  332MOL0     C44749   3.728   6.367   7.069 -0.4053 -0.4809 -0.6762
  332MOL0     C44750   4.050   7.016   6.936 -0.4748 -0.6120 -0.4213
  332MOL0     C44751   4.139   7.111   6.887  0.1003 -0.1376  0.2289
  332MOL0     C44752   4.101   7.194   6.760  0.1451  0.0588  0.3346
  332MOL0     H44753   4.392   7.573   7.052 -0.4672 -1.0599 -0.7568
  332MOL0     H44754   4.562   7.729   7.046  0.8751  0.1173 -2.4972
  332MOL0     H44755   4.996   7.579   7.026  1.3484  1.4419  0.9530
  332MOL0     H44756   4.958   7.596   6.853  1.3664  0.5105 -0.6404
  332MOL0     H44757   5.031   7.814   7.043  2.0840 -1.6960  0.6441
  332MOL0     H44758   4.997   7.851   6.875  1.3891  0.6002  0.2438
  332MOL0     H44759   5.202   7.639   6.958 -0.5901 -1.7348 -0.8338
  332MOL0     H44760   5.235   7.810   6.936 -0.7164 -0.1808 -0.2357
  332MOL0     H44761   5.118   7.635   6.724 -0.6226 -0.8804  1.9172
  332MOL0     H44762   5.144   7.802   6.692  4.6465  2.1828 -1.6694
  332MOL0     H44763   5.399   7.764   6.756 -0.2823 -0.3765  0.6111
  332MOL0     H44764   5.351   7.598   6.785  2.6245 -0.2568  1.1468
  332MOL0     H44765   5.271   7.637   6.509  2.1807 -1.6481 -3.8012
  332MOL0     H44766   5.406   7.749   6.536  1.0167 -0.3707  0.2664
  332MOL0     H44767   5.405   7.445   6.552 -1.8924  1.0119 -2.1581
  332MOL0     H44768   5.530   7.537   6.638  0.7801  0.0554 -0.0228
  332MOL0     H44769   5.599   7.634   6.424 -0.8848  0.9901  4.0003
  332MOL0     H44770   5.614   7.462   6.428 -0.6867 -1.9003  1.1952
  332MOL0     H44771   5.302   7.366   6.367 -1.4251  2.6413  0.6524
  332MOL0     H44772   5.177   7.423   6.011  0.3477  0.6965  0.5534
  332MOL0     H44773   5.175   7.293   6.135 -0.4118 -1.2301 -1.8691
  332MOL0     H44774   5.038   7.459   6.269 -2.6343  1.7677 -0.3263
  332MOL0     H44775   5.053   7.586   6.144  1.7076  0.5709 -1.5615
  332MOL0     H44776   4.905   7.315   6.130 -1.5886  0.0343  0.3053
  332MOL0     H44777   4.921   7.422   5.996  1.7292 -0.1846  0.2980
  332MOL0     H44778   4.789   7.599   6.116 -2.4691  0.6386 -0.9172
  332MOL0     H44779   4.810   7.501   6.264  1.3163  1.4943 -0.1254
  332MOL0     H44780   4.628   7.658   6.244  0.0663  0.8666 -0.2670
  332MOL0     H44781   4.420   7.712   6.349  0.8495 -1.9242  1.6380
  332MOL0     H44782   3.957   7.377   6.486  1.1272  1.3811  0.6284
  332MOL0     H44783   3.741   7.428   6.584 -0.7457  0.8385  1.4611
  332MOL0     H44784   3.535   7.474   6.649 -2.3157 -1.0887 -0.7386
  332MOL0     H44785   3.587   7.649   6.679 -1.1244  0.8257  0.0970
  332MOL0     H44786   3.352   7.609   6.736 -0.3358  1.0343 -0.1015
  332MOL0     H44787   3.366   7.733   6.621 -2.4509  0.2323  2.5011
  332MOL0     H44788   3.325   7.456   6.503 -0.6141  0.1593 -0.1809
  332MOL0     H44789   3.196   7.511   6.607 -0.7809 -0.9033 -1.1533
  332MOL0     H44790   3.298   7.651   6.366 -2.3307 -1.8987 -4.1092
  332MOL0     H44791   3.188   7.727   6.481 -0.4799 -1.5395 -1.0873
  332MOL0     H44792   3.120   7.461   6.346  0.5811  0.8501 -2.4839
  332MOL0     H44793   3.087   7.620   6.283  0.5611 -0.5178 -1.0961
  332MOL0     H44794   2.909   7.475   6.412 -1.6723  1.2998 -1.9912
  332MOL0     H44795   2.978   7.535   6.557 -2.0167 -0.5169  0.7726
  332MOL0     H44796   2.862   7.700   6.333 -0.3135 -0.9929  0.0442
  332MOL0     H44797   2.940   7.782   6.457  0.7870  0.0034 -1.8073
  332MOL0     H44798   2.795   7.660   6.640 -0.1916 -2.3197 -1.7048
  332MOL0     H44799   2.717   7.792   6.552  0.6992  0.6484 -1.8134
  332MOL0     H44800   3.661   7.717   6.283 -2.4760  0.0368  3.1306
  332MOL0     H44801   3.902   7.682   6.201  4.4367  0.8262  3.2846
  332MOL0     H44802   4.229   7.376   6.131  0.9364 -2.2065 -0.2800
  332MOL0     H44803   4.461   7.313   6.058  0.6056  0.4587 -0.2613
  332MOL0     H44804   4.831   7.415   6.893  0.3767 -1.3729  0.7421
  332MOL0     H44805   4.638   7.251   6.940 -1.8357 -0.2967  0.4267
  332MOL0     H44806   4.388   7.060   7.122 -1.1583  0.7106  3.7465
  332MOL0     H44807   4.236   6.917   7.206  0.1200 -0.5880 -0.3487
  332MOL0     H44808   4.024   6.798   7.292  0.3565  0.7863 -0.0232
  332MOL0     H44809   4.119   6.724   7.147  0.5132  0.5984  0.7324
  332MOL0     H44810   3.907   6.632   7.085  0.9685 -1.9409  0.4918
  332MOL0     H44811   3.838   6.685   7.241 -0.4627 -1.5011  0.2434
  332MOL0     H44812   4.018   6.545   7.363  1.8025  2.2968 -0.2642
  332MOL0     H44813   4.038   6.469   7.208 -1.3756 -2.2827  0.8046
  332MOL0     H44814   3.911   6.334   7.327 -2.7257 -0.6200 -0.9275
  332MOL0     H44815   3.797   6.463   7.372 -1.3331  0.9313 -1.2946
  332MOL0     H44816   3.681   6.361   6.973 -1.8098  0.1542 -0.0578
  332MOL0     H44817   3.956   6.995   6.886 -2.6748 -1.7875  3.7373
  332MOL0     H44818   4.124   7.301   6.768  3.8691 -0.3718 -2.1740
  332MOL0     H44819   4.152   7.152   6.674 -1.2275 -0.5699 -0.2030
  332MOL0     H44820   3.992   7.200   6.747  0.1943  0.1501 -0.0430
  333MOL0     O44821   3.791   3.820  10.888 -0.6660  0.3157  0.4151
  333MOL0     C44822   3.736   3.711  10.922 -0.7987 -0.5296  0.3780
  333MOL0     O44823   3.802   3.599  10.966  0.0604  0.0683  0.3710
  333MOL0     C44824   3.935   3.604  10.963  0.4874  0.0213 -0.4309
  333MOL0     C44825   4.014   3.569  10.848 -0.1752 -0.4080 -1.0242
  333MOL0     C44826   4.153   3.554  10.856  0.0786 -0.9935  0.4797
  333MOL0     C44827   4.222   3.583  10.974  0.3552  0.7624 -0.1777
  333MOL0     O44828   4.348   3.527  10.971  0.5580  0.0077 -0.3897
  333MOL0     C44829   4.446   3.554  11.078 -0.2180  0.4324  0.4600
  333MOL0     C44830   4.499   3.695  11.067 -0.3977  0.8465  0.3380
  333MOL0     C44831   4.649   3.695  11.036  0.5781 -0.3159 -0.8098
  333MOL0     C44832   4.737   3.628  11.139  0.6513  0.8668 -0.3239
  333MOL0     C44833   4.885   3.658  11.110  0.0633 -1.0087 -0.4648
  333MOL0     C44834   4.937   3.796  11.171  0.9332 -0.3965  0.0181
  333MOL0     C44835   5.080   3.814  11.132 -0.7644  0.1790 -0.3429
  333MOL0     C44836   5.130   3.951  11.184  0.4822 -0.1308 -0.9270
  333MOL0     N44837   5.266   3.987  11.162  1.2888  0.0687 -0.4880
  333MOL0     C44838   5.365   3.969  11.254 -0.8172 -0.2875  0.7514
  333MOL0     C44839   5.481   4.008  11.190 -0.2970  0.7973 -0.0729
  333MOL0     C44840   5.608   4.014  11.255  0.1647  0.5399 -0.2289
  333MOL0     C44841   5.631   4.151  11.332  0.9179 -0.2057  0.5934
  333MOL0     C44842   5.706   4.141  11.465  0.2048  0.3973  0.2934
  333MOL0     C44843   5.858   4.102  11.441 -0.5247  0.8694 -0.5803
  333MOL0     O44844   5.890   4.040  11.565  0.0386  0.1845  0.2136
  333MOL0     C44845   6.027   4.047  11.587 -0.3143 -0.0208  0.8860
  333MOL0     C44846   6.119   4.031  11.477  0.2389  1.1669 -0.4258
  333MOL0     C44847   6.257   4.030  11.507 -0.8568  0.6564  1.1775
  333MOL0     C44848   6.304   4.028  11.642 -0.2261 -0.7275  0.7714
  333MOL0     C44849   6.449   4.016  11.679  0.5261 -0.3789  0.8609
  333MOL0     O44850   6.487   4.011  11.809 -0.2488 -0.2407  0.4023
  333MOL0     C44851   6.610   3.980  11.855 -0.0108 -0.2150  0.6513
  333MOL0     C44852   6.626   4.014  11.991  0.2564 -0.1030  0.5163
  333MOL0     C44853   6.745   3.984  12.061 -0.0590  0.1100  0.0295
  333MOL0     C44854   6.847   3.908  12.000 -0.8899 -0.5869  0.7278
  333MOL0     O44855   6.961   3.862  12.062  0.4765  0.5584 -0.3008
  333MOL0     C44856   7.003   3.903  12.197  0.2624  0.2544  0.1996
  333MOL0     C44857   7.131   3.835  12.231  0.3843 -0.3863  0.6485
  333MOL0     C44858   7.179   3.879  12.369 -0.4960 -0.1141 -0.9163
  333MOL0     C44859   7.306   3.802  12.414 -0.1503 -0.8563 -1.9670
  333MOL0     C44860   7.351   3.832  12.556 -0.9671  0.3956  0.7547
  333MOL0     C44861   7.435   3.716  12.601 -0.2096  0.0065 -1.0660
  333MOL0     C44862   7.567   3.687  12.539  0.4094  0.3522 -0.0538
  333MOL0     C44863   7.657   3.601  12.616 -0.4487 -0.1553  0.2514
  333MOL0    Cl44864   7.731   3.709  12.737  0.0240  0.2846  0.1071
  333MOL0     C44865   6.835   3.889  11.865  0.3274 -0.4836  0.2812
  333MOL0     C44866   6.719   3.928  11.795 -0.1012 -0.0443 -0.3553
  333MOL0     O44867   6.522   4.016  11.577 -0.0948 -0.9245 -0.5477
  333MOL0     C44868   6.210   4.039  11.742 -0.2911 -0.1014 -0.3311
  333MOL0     C44869   6.069   4.052  11.721  0.6430  1.3298  0.2027
  333MOL0     N44870   5.451   4.055  11.062  0.0986 -0.7644  0.6824
  333MOL0     N44871   5.320   4.038  11.049 -0.4698 -0.0051  0.4034
  333MOL0     C44872   4.139   3.610  11.093 -0.2977  0.8013  0.7346
  333MOL0     C44873   3.999   3.619  11.083  0.0274 -0.7918 -0.4060
  333MOL0     C44874   3.594   3.700  10.914  0.7313  0.7579 -0.2465
  333MOL0     C44875   3.519   3.806  10.868  0.0421 -0.0801  0.3896
  333MOL0     C44876   3.384   3.800  10.854  0.2839  0.7437 -0.2969
  333MOL0     C44877   3.314   3.684  10.884  0.0219 -0.6837 -0.5289
  333MOL0     O44878   3.174   3.692  10.855  0.0961 -0.4200  0.4922
  333MOL0     C44879   3.095   3.578  10.900  0.8017 -0.8238  0.1781
  333MOL0     C44880   2.954   3.606  10.865 -0.2417  0.1807  1.0632
  333MOL0     C44881   2.890   3.712  10.958 -0.0349  0.0213  0.1249
  333MOL0     C44882   2.736   3.727  10.938 -0.2662  0.1905 -0.3707
  333MOL0     C44883   2.689   3.839  11.029  0.1305  0.4153 -0.0017
  333MOL0     C44884   2.666   3.922  11.112  0.5229 -0.6555 -0.9484
  333MOL0     C44885   3.376   3.575  10.939 -0.9884  0.1341 -0.9179
  333MOL0     C44886   3.520   3.581  10.956  0.2032  0.4487  0.2408
  333MOL0     C44887   3.573   3.449  11.003  1.5148 -0.0476 -0.1223
  333MOL0     H44888   3.969   3.562  10.750  0.5042 -1.5927 -1.2632
  333MOL0     H44889   4.199   3.535  10.759  4.0751 -1.6376  2.3216
  333MOL0     H44890   4.393   3.522  11.168  0.3920 -2.4660 -0.0906
  333MOL0     H44891   4.528   3.483  11.064 -1.4953 -0.6185 -2.4897
  333MOL0     H44892   4.481   3.735  11.167  1.7301 -3.3659  2.6970
  333MOL0     H44893   4.442   3.747  10.989 -2.4575 -2.9271 -0.9069
  333MOL0     H44894   4.667   3.802  11.041 -0.5959 -0.1183  3.3574
  333MOL0     H44895   4.662   3.663  10.933  2.0998  1.2942 -1.1661
  333MOL0     H44896   4.709   3.658  11.240  4.2273 -1.8031  1.6865
  333MOL0     H44897   4.739   3.519  11.143  1.2841  0.8697 -0.5695
  333MOL0     H44898   4.933   3.576  11.165 -1.3918  0.7653  3.9921
  333MOL0     H44899   4.902   3.654  11.002  0.2576 -1.2421 -0.4279
  333MOL0     H44900   4.876   3.878  11.131  0.9433 -0.4552 -0.1185
  333MOL0     H44901   4.915   3.800  11.278  1.1539  1.6716  0.0324
  333MOL0     H44902   5.087   3.811  11.023 -2.3539 -0.7269 -0.4474
  333MOL0     H44903   5.145   3.739  11.178 -0.2386  1.0705  0.4027
  333MOL0     H44904   5.070   4.033  11.144  0.3604  0.9335  1.2774
  333MOL0     H44905   5.110   3.957  11.291 -2.8954 -1.0728 -1.3828
  333MOL0     H44906   5.357   3.923  11.352 -0.3276 -1.9070  0.0741
  333MOL0     H44907   5.619   3.930  11.325  1.3698 -1.1527 -2.3192
  333MOL0     H44908   5.685   4.003  11.179  1.0834 -2.0902  0.9636
  333MOL0     H44909   5.697   4.207  11.266  2.1754 -1.8880  0.3668
  333MOL0     H44910   5.536   4.204  11.343  0.5023 -1.1265  1.7348
  333MOL0     H44911   5.647   4.073  11.527 -0.1979  0.9474  0.5282
  333MOL0     H44912   5.698   4.240  11.510  2.6959  0.5615  0.4961
  333MOL0     H44913   5.917   4.192  11.421  2.7955 -0.5285  1.9843
  333MOL0     H44914   5.869   4.043  11.349 -2.2406  0.1131 -0.3268
  333MOL0     H44915   6.093   4.035  11.371 -1.3192  0.7750 -0.0824
  333MOL0     H44916   6.331   4.033  11.429  0.2593 -0.0470  2.1837
  333MOL0     H44917   6.561   4.073  12.056  0.2519 -0.6808  1.0381
  333MOL0     H44918   6.756   3.994  12.169  0.6961 -0.7273  0.0436
  333MOL0     H44919   7.002   4.012  12.210  0.7789  0.4892 -1.4173
  333MOL0     H44920   6.930   3.869  12.271 -0.7761  0.7888 -0.5491
  333MOL0     H44921   7.128   3.726  12.222  0.7204 -0.3250 -0.4473
  333MOL0     H44922   7.202   3.866  12.153  1.9388  0.2090  2.2465
  333MOL0     H44923   7.202   3.986  12.362  1.3830 -0.5254 -1.5379
  333MOL0     H44924   7.106   3.866  12.449  1.4977  1.8457  1.4183
  333MOL0     H44925   7.395   3.819  12.352  0.0311 -1.5998 -1.9280
  333MOL0     H44926   7.285   3.695  12.411 -0.6330 -0.8365 -0.3434
  333MOL0     H44927   7.267   3.836  12.627  0.5930 -2.6583  3.0058
  333MOL0     H44928   7.407   3.926  12.553 -2.4477  1.5289 -5.4956
  333MOL0     H44929   7.454   3.735  12.707 -2.6738  1.3551 -0.7688
  333MOL0     H44930   7.378   3.623  12.615  3.1992 -2.1788 -0.6666
  333MOL0     H44931   7.620   3.780  12.518 -2.4705  2.1788  0.2145
  333MOL0     H44932   7.553   3.623  12.451 -0.2668 -1.8986  1.5870
  333MOL0     H44933   7.599   3.522  12.665 -1.7091 -0.7586 -2.0831
  333MOL0     H44934   7.728   3.562  12.542 -2.0531 -0.9299 -0.9313
  333MOL0     H44935   6.914   3.838  11.811  0.0279  0.2234 -0.8675
  333MOL0     H44936   6.710   3.907  11.688  1.2433  0.0906 -0.5093
  333MOL0     H44937   6.251   4.023  11.842  0.3938 -0.4505 -0.6590
  333MOL0     H44938   5.999   4.048  11.804  2.2767 -0.1113  1.5875
  333MOL0     H44939   4.184   3.629  11.190 -1.5162  1.3587  1.2233
  333MOL0     H44940   3.938   3.627  11.172  1.9028 -2.7692  1.1517
  333MOL0     H44941   3.560   3.904  10.848 -1.8792  0.7435  0.2302
  333MOL0     H44942   3.333   3.894  10.836  2.7249  2.6857  2.1309
  333MOL0     H44943   3.103   3.557  11.007 -1.3198  0.4820  0.6564
  333MOL0     H44944   3.127   3.489  10.845 -1.4049  0.1727 -2.9998
  333MOL0     H44945   2.893   3.515  10.869 -1.4600  0.8810 -0.4466
  333MOL0     H44946   2.958   3.638  10.760 -1.4027 -0.4969  0.7901
  333MOL0     H44947   2.949   3.803  10.950  1.3814 -0.8517  0.2103
  333MOL0     H44948   2.915   3.678  11.059  3.0164 -2.7307 -1.3439
  333MOL0     H44949   2.717   3.760  10.835  3.1751 -0.3028 -1.2879
  333MOL0     H44950   2.678   3.637  10.958  0.7272 -0.0576  1.6206
  333MOL0     H44951   2.676   4.003  11.181 -0.6449 -1.1612 -0.1603
  333MOL0     H44952   3.327   3.483  10.969  2.0755 -1.3021  0.1386
  333MOL0     H44953   3.634   3.462  11.093 -3.0334  2.1448  3.0472
  333MOL0     H44954   3.500   3.372  11.027  1.7152 -0.6564 -1.3771
  333MOL0     H44955   3.646   3.418  10.928  1.8101 -1.9412  0.9111
  334MOL0     O44956   8.148   3.648   8.023 -0.2001  0.1179  0.3855
  334MOL0     C44957   8.055   3.709   7.969  0.2816 -1.1038  0.3149
  334MOL0     O44958   8.071   3.819   7.881  0.4444  0.7754 -0.6266
  334MOL0     C44959   8.198   3.860   7.865  0.2656 -1.0756 -0.1196
  334MOL0     C44960   8.227   3.990   7.913  0.4054  0.4769  0.2207
  334MOL0     C44961   8.345   4.047   7.900  0.2054  0.3809 -0.6380
  334MOL0     C44962   8.450   3.979   7.829 -0.6285  0.3892 -0.3888
  334MOL0     O44963   8.574   4.038   7.818 -0.4722  0.6560 -0.3847
  334MOL0     C44964   8.680   3.970   7.757 -0.8873 -0.4186 -0.1424
  334MOL0     C44965   8.804   4.059   7.768  0.1253 -0.3264  0.1018
  334MOL0     C44966   8.844   4.069   7.915  0.5545  0.3320  0.1183
  334MOL0     C44967   8.995   4.083   7.925 -0.1943 -0.4805 -0.7359
  334MOL0     C44968   9.040   4.107   8.070 -0.7887 -0.1926  0.3400
  334MOL0     C44969   9.195   4.119   8.078 -0.7652 -0.4048 -0.1250
  334MOL0     C44970   9.254   4.193   8.203 -0.1762 -0.9068  0.0578
  334MOL0     C44971   9.401   4.159   8.230 -0.0093  1.0907 -0.3528
  334MOL0     N44972   9.497   4.235   8.139 -0.2944  0.2814  0.5413
  334MOL0     C44973   9.526   4.208   8.006 -0.0364  0.0422  0.9104
  334MOL0     C44974   9.632   4.285   7.980 -0.9373 -0.2411  0.5476
  334MOL0     C44975   9.734   4.270   7.862 -0.5437  0.7670  0.2172
  334MOL0     C44976   9.822   4.144   7.859  0.7462  0.2553  0.2976
  334MOL0     C44977   9.909   4.144   7.989 -0.0462 -0.2285 -0.2259
  334MOL0     C44978   9.991   4.270   8.005  0.2845  0.5378  0.2871
  334MOL0     O44979  10.085   4.288   7.895  1.3656  0.5891 -0.3260
  334MOL0     C44980  10.199   4.216   7.893  0.4110  0.2757 -0.6869
  334MOL0     C44981  10.235   4.115   7.992 -0.8223  0.4616  1.0238
  334MOL0     C44982  10.355   4.052   7.992 -0.8976  0.8366 -0.6199
  334MOL0     C44983  10.450   4.090   7.891  0.1866  0.0039 -0.2493
  334MOL0     C44984  10.580   4.020   7.882  0.5566  0.5183 -0.2959
  334MOL0     O44985  10.608   3.930   7.987  0.4782 -0.4546 -0.0545
  334MOL0     C44986  10.738   3.884   7.994  0.5038  0.3214 -0.8884
  334MOL0     C44987  10.828   3.900   8.101  0.3615 -1.2553 -0.2405
  334MOL0     C44988  10.961   3.851   8.107  0.1264  0.3332  0.6830
  334MOL0     C44989  11.010   3.783   8.000  0.2362 -0.0954  0.2825
  334MOL0     O44990  11.141   3.760   8.008  0.0098 -0.1166 -0.3428
  334MOL0     C44991  11.213   3.773   7.890 -0.5708 -0.3707 -0.5653
  334MOL0     C44992  11.359   3.776   7.935  0.0116 -0.6058  0.4878
  334MOL0     C44993  11.459   3.730   7.827 -0.1585 -0.5525 -0.7481
  334MOL0     C44994  11.602   3.713   7.885  0.4840 -0.3119 -0.5551
  334MOL0     C44995  11.711   3.669   7.780  0.7501  0.0121 -0.2857
  334MOL0     C44996  11.847   3.667   7.844  0.5969 -0.0966 -0.1941
  334MOL0     C44997  11.950   3.624   7.740 -0.7987  0.0854 -0.4300
  334MOL0     C44998  12.021   3.739   7.674 -0.6764 -0.7837 -0.5011
  334MOL0    Cl44999  12.180   3.709   7.601 -0.3757  0.1818  0.6029
  334MOL0     C45000  10.923   3.749   7.892  0.2097  0.1431 -0.3593
  334MOL0     C45001  10.793   3.797   7.889 -0.1607 -0.4486 -0.5174
  334MOL0     O45002  10.651   4.030   7.778 -0.2007  0.0060 -0.3342
  334MOL0     C45003  10.419   4.184   7.784 -0.9294 -0.5672  0.2849
  334MOL0     C45004  10.292   4.242   7.791 -1.1167 -0.1701  0.0298
  334MOL0     N45005   9.661   4.361   8.095  0.2760  0.5271 -0.2197
  334MOL0     N45006   9.572   4.328   8.185  0.0234 -0.4757 -0.1393
  334MOL0     C45007   8.422   3.843   7.788 -0.0820  0.0816  0.1666
  334MOL0     C45008   8.293   3.786   7.794  0.4471  0.4221 -0.2142
  334MOL0     C45009   7.908   3.686   8.002 -0.2751 -0.1825  0.1787
  334MOL0     C45010   7.806   3.782   7.967 -0.0429  0.4347 -0.8778
  334MOL0     C45011   7.670   3.769   7.998 -0.4463 -0.2591 -0.6331
  334MOL0     C45012   7.628   3.665   8.074 -0.3135  0.5355  0.2653
  334MOL0     O45013   7.500   3.649   8.120  0.3703 -0.2817 -0.0107
  334MOL0     C45014   7.411   3.760   8.159 -0.5505 -0.0568  0.1206
  334MOL0     C45015   7.277   3.751   8.084 -0.0063  1.1419 -0.2800
  334MOL0     C45016   7.192   3.627   8.101  0.2337  0.7707 -1.2345
  334MOL0     C45017   7.038   3.658   8.082 -0.0405 -0.5836 -0.5457
  334MOL0     C45018   6.986   3.756   8.176  0.1294  0.5871  0.0263
  334MOL0     C45019   6.962   3.847   8.261 -0.4664  0.0529  0.2165
  334MOL0     C45020   7.721   3.566   8.116  0.4994  1.0218 -0.1917
  334MOL0     C45021   7.858   3.577   8.077  0.2301 -1.0713 -0.7349
  334MOL0     C45022   7.949   3.482   8.137  0.6113 -0.1804 -0.0537
  334MOL0     H45023   8.140   4.034   7.961  0.7423  2.1371 -0.5876
  334MOL0     H45024   8.366   4.147   7.937 -1.8069  1.5211 -2.3751
  334MOL0     H45025   8.704   3.873   7.802  1.7490  0.3043  0.1399
  334MOL0     H45026   8.653   3.962   7.651  1.3132  0.2348 -0.8061
  334MOL0     H45027   8.781   4.152   7.715  2.2299  0.5411  0.5922
  334MOL0     H45028   8.878   3.999   7.715 -3.1551 -1.3942 -3.7739
  334MOL0     H45029   8.829   3.973   7.966 -0.2641  0.9768  1.1283
  334MOL0     H45030   8.782   4.141   7.969 -0.9866 -1.9375  1.5201
  334MOL0     H45031   9.042   3.995   7.881 -0.9335 -1.1029 -0.2977
  334MOL0     H45032   9.024   4.169   7.863 -1.6160  0.2137 -0.4774
  334MOL0     H45033   8.989   4.189   8.121 -2.4994 -0.7146 -0.4765
  334MOL0     H45034   9.010   4.020   8.129 -3.3798 -1.0522 -2.0930
  334MOL0     H45035   9.230   4.016   8.078 -1.2219 -0.5787  1.2896
  334MOL0     H45036   9.233   4.163   7.985 -0.4724  0.0874  0.2220
  334MOL0     H45037   9.203   4.153   8.291  1.6988 -2.9978  0.2792
  334MOL0     H45038   9.253   4.302   8.202  3.7166 -0.6969 -2.7267
  334MOL0     H45039   9.432   4.189   8.331  0.1082 -0.8097  0.2269
  334MOL0     H45040   9.417   4.051   8.235  0.3938  1.1964  2.6348
  334MOL0     H45041   9.466   4.143   7.943  2.0341  0.5452 -1.7384
  334MOL0     H45042   9.674   4.265   7.771 -1.4989  3.7171  0.5876
  334MOL0     H45043   9.791   4.363   7.861 -1.6732  1.4632 -0.3847
  334MOL0     H45044   9.757   4.056   7.856 -2.9002  2.6288  1.5413
  334MOL0     H45045   9.884   4.153   7.769  1.3277 -2.2476  0.3902
  334MOL0     H45046   9.992   4.073   7.984  2.2749  2.3725 -1.8343
  334MOL0     H45047   9.843   4.130   8.075  0.2202  2.2593  0.4615
  334MOL0     H45048  10.049   4.263   8.098 -1.2784 -2.1583  1.1486
  334MOL0     H45049   9.933   4.361   8.024 -2.5619 -0.8087 -1.3841
  334MOL0     H45050  10.178   4.090   8.081  0.2116 -2.7161  0.8949
  334MOL0     H45051  10.391   3.978   8.064 -1.8801  2.7105  1.9789
  334MOL0     H45052  10.798   3.957   8.188  0.1136 -2.1810  0.3026
  334MOL0     H45053  11.025   3.886   8.188 -1.2169  1.4847  1.3061
  334MOL0     H45054  11.214   3.681   7.831 -1.3744  0.6776 -2.2812
  334MOL0     H45055  11.176   3.860   7.835  0.4806  0.7359  0.4315
  334MOL0     H45056  11.389   3.872   7.976  2.0827  0.6377 -3.4090
  334MOL0     H45057  11.361   3.709   8.022 -0.7197  0.2823  1.2010
  334MOL0     H45058  11.431   3.637   7.778 -0.8780 -1.8711  1.9416
  334MOL0     H45059  11.456   3.811   7.753 -4.0803 -1.8117 -2.2436
  334MOL0     H45060  11.601   3.634   7.961 -1.7680 -0.3213 -0.5031
  334MOL0     H45061  11.634   3.812   7.917 -1.6157  0.5495 -0.9325
  334MOL0     H45062  11.724   3.733   7.692  0.7397 -0.4529 -0.6300
  334MOL0     H45063  11.680   3.571   7.742 -0.7307  0.3488  0.0117
  334MOL0     H45064  11.880   3.759   7.893  0.5703 -0.5654  0.7230
  334MOL0     H45065  11.845   3.592   7.924  2.8268  1.6263  1.6033
  334MOL0     H45066  11.901   3.565   7.662 -2.3989  0.4894  0.2170
  334MOL0     H45067  12.023   3.558   7.788 -1.8675 -0.5953  0.3229
  334MOL0     H45068  11.956   3.779   7.596 -0.5629 -0.1648 -0.2868
  334MOL0     H45069  12.043   3.814   7.751 -2.3518 -1.8334  1.1008
  334MOL0     H45070  10.960   3.694   7.806  0.2848  1.4598 -1.1956
  334MOL0     H45071  10.725   3.784   7.805 -0.3251 -1.4613 -0.2377
  334MOL0     H45072  10.483   4.207   7.700 -0.2453 -0.6898  0.7635
  334MOL0     H45073  10.246   4.309   7.719 -0.8085 -0.2662 -0.2576
  334MOL0     H45074   8.499   3.774   7.757 -0.2038 -0.4863  1.0772
  334MOL0     H45075   8.274   3.686   7.755 -1.0751  0.5394  0.1527
  334MOL0     H45076   7.833   3.870   7.909 -2.1591  1.8730  0.1932
  334MOL0     H45077   7.599   3.846   7.971 -0.0298  0.8925  1.3612
  334MOL0     H45078   7.453   3.860   8.143  0.3252 -0.0342  2.2323
  334MOL0     H45079   7.397   3.756   8.267 -0.5696  2.6086  0.2879
  334MOL0     H45080   7.306   3.763   7.979  1.4923  3.1363  0.2956
  334MOL0     H45081   7.220   3.837   8.120 -0.6819  0.0548  1.3403
  334MOL0     H45082   7.213   3.585   8.200  0.7111  0.3473 -1.5084
  334MOL0     H45083   7.220   3.547   8.031 -3.0818 -1.3364 -0.4159
  334MOL0     H45084   7.005   3.668   7.979 -2.5502  1.8949  0.3550
  334MOL0     H45085   6.987   3.566   8.113 -0.3439 -0.7250 -1.4346
  334MOL0     H45086   6.946   3.932   8.324 -2.7913 -0.5871  0.6125
  334MOL0     H45087   7.691   3.479   8.175  2.4095 -0.4547 -1.2756
  334MOL0     H45088   7.994   3.422   8.058 -0.2274 -0.9895  0.0586
  334MOL0     H45089   8.019   3.537   8.201  0.5326 -1.7836  1.5062
  334MOL0     H45090   7.908   3.410   8.208 -4.8757  2.3793 -0.1178
  335MOL0     O45091  10.491   5.107   5.259 -0.1017  1.0133  0.1253
  335MOL0     C45092  10.422   5.026   5.324 -0.3422 -0.0537 -0.2717
  335MOL0     O45093  10.460   4.979   5.447  0.3008  0.3078  0.2292
  335MOL0     C45094  10.580   4.983   5.504  0.5193 -0.7077  0.0808
  335MOL0     C45095  10.609   4.876   5.583  0.7846  0.1322  0.7713
  335MOL0     C45096  10.722   4.862   5.651 -0.0255 -0.1517 -0.0746
  335MOL0     C45097  10.818   4.963   5.644 -0.9348 -0.2788  0.6345
  335MOL0     O45098  10.927   4.935   5.719 -0.8148  0.5163  0.4242
  335MOL0     C45099  11.023   5.044   5.725 -0.3163  0.1486  1.3598
  335MOL0     C45100  11.138   4.998   5.822 -0.2767 -0.0412 -0.0303
  335MOL0     C45101  11.278   5.011   5.754  0.4097 -0.1195  0.1560
  335MOL0     C45102  11.380   4.943   5.844 -0.4087  0.1576  0.6193
  335MOL0     C45103  11.526   4.967   5.805 -0.0550  0.0560 -0.0184
  335MOL0     C45104  11.615   4.853   5.866 -0.5649 -0.0509 -0.1261
  335MOL0     C45105  11.763   4.875   5.828 -0.5730 -0.5414  0.7828
  335MOL0     C45106  11.851   4.781   5.900  0.6450  0.2913 -0.1936
  335MOL0     N45107  11.987   4.798   5.859  0.2419  0.2675 -0.1140
  335MOL0     C45108  12.070   4.703   5.804 -0.0293 -0.2474 -0.3761
  335MOL0     C45109  12.189   4.756   5.792  0.6714 -0.5647 -0.7769
  335MOL0     C45110  12.300   4.681   5.723 -0.4223 -0.2532  0.1581
  335MOL0     C45111  12.366   4.566   5.805 -0.3705 -0.1389 -0.1512
  335MOL0     C45112  12.472   4.618   5.904 -1.0300  0.7830 -0.3527
  335MOL0     C45113  12.583   4.696   5.837  1.1160  0.7435 -0.0808
  335MOL0     O45114  12.695   4.690   5.918  0.4318  0.4504  0.1241
  335MOL0     C45115  12.797   4.627   5.848 -0.4164 -1.0030 -0.4649
  335MOL0     C45116  12.799   4.496   5.804 -0.6974 -0.7283 -0.1105
  335MOL0     C45117  12.909   4.443   5.743 -0.2594  0.4648 -0.1378
  335MOL0     C45118  13.021   4.519   5.728 -0.3117  0.3919  0.7011
  335MOL0     C45119  13.142   4.445   5.679  0.9045 -0.3219 -0.3687
  335MOL0     O45120  13.237   4.528   5.632 -0.0193  0.5968 -0.0415
  335MOL0     C45121  13.369   4.492   5.620  0.6340  0.0371  0.3120
  335MOL0     C45122  13.450   4.593   5.576 -0.2460  0.9588 -0.3049
  335MOL0     C45123  13.585   4.564   5.550 -0.0525 -1.1005  0.0988
  335MOL0     C45124  13.645   4.436   5.581  0.3248  0.1953  0.5598
  335MOL0     O45125  13.775   4.408   5.558  0.0094 -0.1687 -0.4428
  335MOL0     C45126  13.874   4.508   5.542  0.1305  0.0523  0.0852
  335MOL0     C45127  14.013   4.457   5.568  0.2576  0.4438  0.1984
  335MOL0     C45128  14.067   4.380   5.448 -0.7621 -0.5977  0.4882
  335MOL0     C45129  14.220   4.360   5.447 -0.2867  0.4499 -0.5957
  335MOL0     C45130  14.276   4.268   5.340  0.2568 -0.0716  0.0625
  335MOL0     C45131  14.431   4.276   5.333 -0.2652  0.5119  0.6042
  335MOL0     C45132  14.485   4.408   5.290  0.1189 -0.1933 -0.4497
  335MOL0     C45133  14.631   4.441   5.335  0.0357 -1.4684  0.4494
  335MOL0    Cl45134  14.737   4.312   5.274  0.2490 -0.1184  0.1150
  335MOL0     C45135  13.564   4.349   5.649 -0.5288  0.4859 -0.2559
  335MOL0     C45136  13.428   4.367   5.665  0.1178  0.8797 -0.9048
  335MOL0     O45137  13.140   4.321   5.683 -0.0111  0.7014  0.1933
  335MOL0     C45138  13.024   4.649   5.761  0.0433  0.1399 -0.2985
  335MOL0     C45139  12.906   4.708   5.813 -0.0273  0.0701 -0.2134
  335MOL0     N45140  12.186   4.877   5.847 -0.2930 -0.0830 -0.3921
  335MOL0     N45141  12.063   4.908   5.888 -0.0437  0.6223 -0.0467
  335MOL0     C45142  10.802   5.078   5.567 -0.3190 -0.5826  0.4773
  335MOL0     C45143  10.678   5.090   5.493 -0.4291  0.3762 -0.1999
  335MOL0     C45144  10.289   4.989   5.271  0.2398  0.5013 -0.6684
  335MOL0     C45145  10.255   5.027   5.138 -0.2590  0.2575 -0.1186
  335MOL0     C45146  10.127   4.993   5.081  0.1945  0.3155 -0.5469
  335MOL0     C45147  10.026   4.934   5.160  0.2497  0.1071  0.4665
  335MOL0     O45148   9.912   4.902   5.090  0.7409 -1.0320 -0.5798
  335MOL0     C45149   9.812   4.832   5.162  0.3373 -0.1299 -0.8528
  335MOL0     C45150   9.732   4.929   5.259  0.5252  0.2466 -0.4055
  335MOL0     C45151   9.628   4.861   5.348  0.4540  0.3141 -0.5904
  335MOL0     C45152   9.502   4.826   5.273 -0.3285  0.7886  0.7917
  335MOL0     C45153   9.432   4.947   5.224  0.0170  0.6806  0.0336
  335MOL0     C45154   9.370   5.049   5.184 -0.3661  0.7825  0.3584
  335MOL0     C45155  10.053   4.900   5.295  0.2465 -0.8759 -0.6175
  335MOL0     C45156  10.179   4.934   5.352 -0.3000 -0.3953 -0.4266
  335MOL0     C45157  10.189   4.898   5.497 -0.8470  0.3133  0.0800
  335MOL0     H45158  10.539   4.795   5.602  0.2826  0.2780 -0.3576
  335MOL0     H45159  10.730   4.770   5.707 -0.2731  0.5426  1.1572
  335MOL0     H45160  11.062   5.052   5.624 -0.8294  0.2513  1.1657
  335MOL0     H45161  10.992   5.139   5.770  3.0942  1.3263  1.5041
  335MOL0     H45162  11.115   4.900   5.865 -1.3792 -0.6511 -1.9117
  335MOL0     H45163  11.135   5.073   5.902  3.0097 -0.1856  0.3941
  335MOL0     H45164  11.300   5.118   5.752 -1.7673  0.4781  2.8365
  335MOL0     H45165  11.280   4.964   5.655  0.2694  0.8014 -0.2879
  335MOL0     H45166  11.368   4.988   5.943 -0.5086  0.6046  0.4109
  335MOL0     H45167  11.341   4.841   5.842 -2.3550  0.7604 -3.7235
  335MOL0     H45168  11.522   4.963   5.696 -2.5032 -3.1194  0.0504
  335MOL0     H45169  11.557   5.069   5.829  0.6569  0.1117 -1.1099
  335MOL0     H45170  11.606   4.861   5.975  1.0164  1.5565 -0.0765
  335MOL0     H45171  11.585   4.755   5.827 -2.5404 -0.3027  1.8104
  335MOL0     H45172  11.789   4.978   5.854  3.2834 -0.5491 -2.1510
  335MOL0     H45173  11.780   4.856   5.721  0.5885 -3.1643  1.3677
  335MOL0     H45174  11.850   4.797   6.008 -0.8023 -0.0008 -0.1350
  335MOL0     H45175  11.815   4.678   5.885  1.4648  0.3553 -3.5471
  335MOL0     H45176  12.040   4.603   5.775 -1.6423 -0.7868  2.6285
  335MOL0     H45177  12.263   4.635   5.631  0.1336  1.4657 -0.9703
  335MOL0     H45178  12.373   4.759   5.699 -2.9036  2.2749  0.3254
  335MOL0     H45179  12.291   4.515   5.865 -1.7610  0.3968 -1.3616
  335MOL0     H45180  12.417   4.496   5.739 -0.2402 -0.3321  0.1535
  335MOL0     H45181  12.510   4.527   5.952 -2.2051 -0.9879 -2.5808
  335MOL0     H45182  12.430   4.681   5.982  0.9737 -0.2035  1.6465
  335MOL0     H45183  12.528   4.790   5.842 -2.4684 -1.2328  2.3855
  335MOL0     H45184  12.603   4.664   5.734 -0.6035 -0.2156 -0.1508
  335MOL0     H45185  12.715   4.427   5.797 -1.4406  0.1581  0.0089
  335MOL0     H45186  12.901   4.338   5.716  0.4401  0.6786 -1.2238
  335MOL0     H45187  13.402   4.684   5.542 -0.9824  0.0004 -1.9708
  335MOL0     H45188  13.653   4.631   5.497  0.9837 -0.5541  2.0173
  335MOL0     H45189  13.865   4.558   5.445  0.8027  0.3816  0.1897
  335MOL0     H45190  13.855   4.589   5.613  1.5468  0.9841 -0.5563
  335MOL0     H45191  14.077   4.540   5.599  2.9482 -1.4382  0.0435
  335MOL0     H45192  14.018   4.387   5.652  2.3363  2.9807  2.3553
  335MOL0     H45193  14.022   4.280   5.440 -2.6646  0.2428  0.2114
  335MOL0     H45194  14.050   4.434   5.354  3.0275 -3.6893 -2.3244
  335MOL0     H45195  14.248   4.326   5.547  1.1597  2.6660 -0.1880
  335MOL0     H45196  14.263   4.459   5.431  0.1419  1.0924  3.5709
  335MOL0     H45197  14.240   4.292   5.239  0.6857 -2.1035 -0.6034
  335MOL0     H45198  14.237   4.168   5.361  0.5651 -0.0378  0.8065
  335MOL0     H45199  14.479   4.247   5.428  0.9443 -0.9256 -0.3969
  335MOL0     H45200  14.480   4.205   5.265 -0.3530 -0.0798  1.1413
  335MOL0     H45201  14.421   4.490   5.325  1.3062 -0.2107  1.9538
  335MOL0     H45202  14.476   4.403   5.181 -3.4540 -3.4828 -0.2268
  335MOL0     H45203  14.675   4.538   5.307  0.9728 -1.9501  0.1959
  335MOL0     H45204  14.616   4.438   5.443 -1.2527  0.4853  0.3743
  335MOL0     H45205  13.609   4.251   5.662 -2.6456 -0.4674  0.2759
  335MOL0     H45206  13.362   4.294   5.710 -1.2476  1.8416 -1.2674
  335MOL0     H45207  13.116   4.707   5.766  0.8687 -1.1862  0.9589
  335MOL0     H45208  12.907   4.810   5.849  0.0502  0.2349 -0.6644
  335MOL0     H45209  10.875   5.159   5.559 -1.4390  0.2602 -2.4819
  335MOL0     H45210  10.660   5.178   5.432  1.4682  1.5370  0.8117
  335MOL0     H45211  10.330   5.080   5.080 -1.0196  1.5520  0.0324
  335MOL0     H45212  10.109   5.028   4.980 -4.1859  1.0298  0.3006
  335MOL0     H45213   9.842   4.734   5.201  0.2183  0.5147  0.9705
  335MOL0     H45214   9.732   4.796   5.096 -0.9486  0.9495  0.0425
  335MOL0     H45215   9.683   5.006   5.200 -2.7363  1.4414  3.4066
  335MOL0     H45216   9.802   4.983   5.324  0.1383  0.7128 -0.3698
  335MOL0     H45217   9.591   4.927   5.427 -1.1418  4.7163 -4.5057
  335MOL0     H45218   9.664   4.768   5.393 -4.5257 -2.3881 -1.5655
  335MOL0     H45219   9.516   4.766   5.182  0.0431 -0.1627  1.4573
  335MOL0     H45220   9.434   4.763   5.331 -1.5577  0.6191 -0.7671
  335MOL0     H45221   9.312   5.135   5.156 -0.8460  0.2246 -0.4255
  335MOL0     H45222   9.979   4.850   5.356  0.5928 -1.4149 -0.6369
  335MOL0     H45223  10.109   4.831   5.532  0.4337 -0.6059  1.3511
  335MOL0     H45224  10.280   4.842   5.520 -1.3532 -0.7478 -0.4227
  335MOL0     H45225  10.194   4.986   5.561  1.0655  1.6918 -1.8501
  336MOL0     O45226   4.840   1.000   1.312  0.6361 -0.3642 -0.1449
  336MOL0     C45227   4.829   0.896   1.241 -0.4498  0.2719 -0.8893
  336MOL0     O45228   4.920   0.785   1.235 -0.5596 -0.1006 -0.4728
  336MOL0     C45229   5.040   0.810   1.299  0.8553  0.0264 -0.3088
  336MOL0     C45230   5.154   0.843   1.229  0.5820  1.7628 -0.4883
  336MOL0     C45231   5.274   0.858   1.288 -0.6761  0.0010  0.1119
  336MOL0     C45232   5.292   0.823   1.426 -0.3924 -0.0023 -0.0503
  336MOL0     O45233   5.413   0.833   1.492 -0.3631 -0.1203 -0.7525
  336MOL0     C45234   5.514   0.917   1.447  0.1252 -0.4042  0.3393
  336MOL0     C45235   5.629   0.901   1.547 -1.0373 -0.2138  0.1491
  336MOL0     C45236   5.751   0.988   1.496  0.7598 -0.1325 -0.8534
  336MOL0     C45237   5.870   0.977   1.585  0.2680 -0.3335 -0.1197
  336MOL0     C45238   5.968   1.080   1.524  0.9783  0.4769  0.1737
  336MOL0     C45239   6.117   1.051   1.558  0.6567  0.7815 -0.1554
  336MOL0     C45240   6.143   1.099   1.703 -0.3303 -0.0513  0.4548
  336MOL0     C45241   6.289   1.079   1.749  0.0081 -0.0897 -0.8724
  336MOL0     N45242   6.392   1.111   1.655 -0.2886  0.1114 -0.1773
  336MOL0     C45243   6.493   1.024   1.626  0.2894  0.8290  0.1853
  336MOL0     C45244   6.585   1.094   1.551  0.3690 -0.3042 -0.5138
  336MOL0     C45245   6.724   1.053   1.515 -0.5065 -0.4126  1.3919
  336MOL0     C45246   6.824   1.124   1.609  0.0403  0.5279  0.3291
  336MOL0     C45247   6.966   1.124   1.554 -1.3039  0.1313  0.5073
  336MOL0     C45248   7.067   1.193   1.647 -0.3514  0.2961 -0.9221
  336MOL0     O45249   7.077   1.124   1.771 -0.0635  1.7219  0.4245
  336MOL0     C45250   7.133   1.178   1.882 -0.2243 -0.2741 -0.3228
  336MOL0     C45251   7.204   1.299   1.888  0.4428  0.3700  0.5590
  336MOL0     C45252   7.269   1.337   1.999  0.2864  0.2756  0.8687
  336MOL0     C45253   7.241   1.272   2.120 -0.0778 -0.2279 -0.7207
  336MOL0     C45254   7.298   1.323   2.249  0.0535 -0.3393  0.5651
  336MOL0     O45255   7.277   1.246   2.361  0.1768  0.7721 -0.6394
  336MOL0     C45256   7.351   1.289   2.475 -0.4088  0.2425  0.1257
  336MOL0     C45257   7.489   1.253   2.484  0.0354 -0.6097 -1.1027
  336MOL0     C45258   7.558   1.293   2.601 -0.0910  0.5778  0.8327
  336MOL0     C45259   7.490   1.362   2.706 -0.1328  0.2549 -0.2782
  336MOL0     O45260   7.568   1.401   2.820  0.4864  0.7341  0.7717
  336MOL0     C45261   7.713   1.405   2.806 -0.1154  0.0702 -0.1758
  336MOL0     C45262   7.793   1.457   2.932  0.1721 -0.4060 -0.4979
  336MOL0     C45263   7.778   1.359   3.056 -0.6417  0.3650  0.3263
  336MOL0     C45264   7.852   1.409   3.179 -0.1825  0.0665  1.0437
  336MOL0     C45265   7.823   1.312   3.293 -0.0352 -0.3155  0.1464
  336MOL0     C45266   7.879   1.368   3.427  0.2186 -0.2463  0.5822
  336MOL0     C45267   7.860   1.276   3.553 -0.7207 -0.5521 -1.2207
  336MOL0     C45268   7.875   1.365   3.686 -0.1031 -0.6975 -0.3704
  336MOL0    Cl45269   7.743   1.474   3.725  0.1207 -0.0226  0.4401
  336MOL0     C45270   7.357   1.401   2.693 -0.9234 -0.4578  1.1632
  336MOL0     C45271   7.281   1.367   2.579 -0.2306  0.7586 -0.0143
  336MOL0     O45272   7.360   1.430   2.239 -0.9088  0.7877  0.0987
  336MOL0     C45273   7.164   1.151   2.118  0.4568  0.3712 -1.0172
  336MOL0     C45274   7.100   1.112   2.004 -0.4247 -0.6478  0.0314
  336MOL0     N45275   6.522   1.220   1.525 -0.4393  0.2545 -0.3275
  336MOL0     N45276   6.402   1.222   1.573  0.0380 -0.1992  0.1965
  336MOL0     C45277   5.178   0.777   1.496 -0.2419  0.3813  0.5162
  336MOL0     C45278   5.056   0.773   1.436 -0.4897  0.7016 -0.4579
  336MOL0     C45279   4.705   0.876   1.179 -0.4769  0.4640  0.1066
  336MOL0     C45280   4.584   0.921   1.241 -0.2516 -0.1788 -0.0476
  336MOL0     C45281   4.459   0.912   1.184  0.3095  0.1462  0.5742
  336MOL0     C45282   4.450   0.859   1.050 -0.7041 -0.2893  0.5693
  336MOL0     O45283   4.328   0.826   0.991  0.2876 -0.1167 -0.6294
  336MOL0     C45284   4.316   0.703   0.912 -0.2862 -0.2447 -0.0938
  336MOL0     C45285   4.167   0.667   0.903  2.1464  0.0866 -0.1094
  336MOL0     C45286   4.077   0.776   0.837  0.2329  0.0504  0.1721
  336MOL0     C45287   3.960   0.705   0.760  0.3638 -0.0452 -0.0959
  336MOL0     C45288   4.002   0.614   0.646 -0.8244 -0.4424 -0.0101
  336MOL0     C45289   4.011   0.536   0.553 -0.1994  0.1071  0.0154
  336MOL0     C45290   4.576   0.819   0.985  0.3130  0.0709  0.4743
  336MOL0     C45291   4.701   0.834   1.046 -0.6899  0.1954  0.4131
  336MOL0     C45292   4.827   0.821   0.963  0.3456  0.6663  0.6845
  336MOL0     H45293   5.149   0.877   1.126 -2.5816  0.5990 -0.8317
  336MOL0     H45294   5.350   0.905   1.227 -1.4195  2.0688  0.6966
  336MOL0     H45295   5.554   0.888   1.349 -2.6546 -3.6211 -0.0260
  336MOL0     H45296   5.477   1.020   1.445  2.8608  0.6302  0.0540
  336MOL0     H45297   5.645   0.793   1.544  0.6870  0.0325 -0.4628
  336MOL0     H45298   5.589   0.932   1.644 -0.1248 -2.1266  1.1957
  336MOL0     H45299   5.712   1.089   1.483  0.5339 -0.2215 -0.8656
  336MOL0     H45300   5.779   0.961   1.394 -0.3416  1.7185 -1.6841
  336MOL0     H45301   5.844   0.996   1.690  0.8962  0.2295 -0.0540
  336MOL0     H45302   5.911   0.876   1.577 -0.9078 -0.8654  0.4588
  336MOL0     H45303   5.958   1.088   1.416  1.3248  1.3883  0.2060
  336MOL0     H45304   5.939   1.176   1.566  0.1247 -0.2834  1.4126
  336MOL0     H45305   6.147   0.946   1.564  0.0115  0.6406  1.1715
  336MOL0     H45306   6.173   1.093   1.475  0.7156 -1.4003 -1.2899
  336MOL0     H45307   6.074   1.059   1.778  2.1308 -3.2091  1.3032
  336MOL0     H45308   6.120   1.206   1.705 -0.7446 -0.1297 -0.0018
  336MOL0     H45309   6.300   1.133   1.843  0.1057 -1.7054  0.0865
  336MOL0     H45310   6.293   0.972   1.773 -0.3573 -0.0831 -0.7747
  336MOL0     H45311   6.505   0.924   1.667  0.3514  1.3854  1.5800
  336MOL0     H45312   6.736   0.944   1.521 -1.8515 -0.8319 -1.5433
  336MOL0     H45313   6.723   1.077   1.408 -1.8507 -1.1346  1.2091
  336MOL0     H45314   6.788   1.226   1.627 -2.2502 -0.0723 -0.4580
  336MOL0     H45315   6.830   1.072   1.705  2.1847 -4.8720 -2.3531
  336MOL0     H45316   6.971   1.169   1.454  2.1239 -0.5052  0.2548
  336MOL0     H45317   6.984   1.016   1.547 -2.9539 -0.1170 -0.6372
  336MOL0     H45318   7.049   1.299   1.670 -1.0317 -0.6583  4.3206
  336MOL0     H45319   7.164   1.185   1.598  0.2112 -2.3139  0.4162
  336MOL0     H45320   7.225   1.349   1.794  2.6393 -2.1698 -0.4539
  336MOL0     H45321   7.322   1.431   1.989  3.7042 -1.6621 -1.3120
  336MOL0     H45322   7.536   1.212   2.394  0.8737  1.6103 -1.7484
  336MOL0     H45323   7.664   1.270   2.596  0.1471  1.5666  1.1927
  336MOL0     H45324   7.756   1.307   2.780  1.7215  1.2642 -1.9016
  336MOL0     H45325   7.739   1.472   2.724  0.2788 -1.4534 -1.3349
  336MOL0     H45326   7.899   1.470   2.909  0.3413 -1.6573 -0.4925
  336MOL0     H45327   7.750   1.553   2.962 -0.0519 -0.9985  1.1785
  336MOL0     H45328   7.671   1.343   3.071 -0.0574 -5.1230  0.4734
  336MOL0     H45329   7.818   1.261   3.030  0.6562  1.3323 -1.5680
  336MOL0     H45330   7.816   1.506   3.214  0.8507  1.0748 -0.5294
  336MOL0     H45331   7.954   1.422   3.141  0.2923 -2.4286  1.2724
  336MOL0     H45332   7.880   1.221   3.268  1.3656  0.5141  0.2033
  336MOL0     H45333   7.717   1.285   3.299  0.1685 -2.0884 -2.5021
  336MOL0     H45334   7.985   1.392   3.416  0.3333 -1.1960 -0.4959
  336MOL0     H45335   7.823   1.461   3.448 -0.2432 -0.8745  2.3536
  336MOL0     H45336   7.935   1.197   3.544  0.1248  0.4093 -3.1604
  336MOL0     H45337   7.758   1.237   3.556 -1.0386  0.2888 -0.9626
  336MOL0     H45338   7.893   1.315   3.782  0.9799  1.3025  0.5126
  336MOL0     H45339   7.966   1.424   3.671 -0.5964  0.4091  0.8302
  336MOL0     H45340   7.299   1.438   2.777 -0.6760  0.8916  0.7668
  336MOL0     H45341   7.173   1.374   2.564 -0.3137  0.1409  0.2754
  336MOL0     H45342   7.165   1.090   2.208  0.0887 -1.4154 -2.1705
  336MOL0     H45343   7.042   1.020   1.998  0.9089 -1.6140  1.3048
  336MOL0     H45344   5.192   0.740   1.598 -0.4575  1.8424  1.0998
  336MOL0     H45345   4.972   0.728   1.488 -1.2209  1.1966 -1.1795
  336MOL0     H45346   4.593   0.974   1.335 -1.0093 -1.6008  0.8589
  336MOL0     H45347   4.381   0.976   1.225  0.5776  1.3820 -0.7567
  336MOL0     H45348   4.368   0.621   0.962  0.3749  0.3555  0.2196
  336MOL0     H45349   4.360   0.731   0.816 -1.2029  1.9552  0.0622
  336MOL0     H45350   4.121   0.660   1.002 -0.6781 -1.0391 -1.3791
  336MOL0     H45351   4.154   0.571   0.851  1.4777  0.4645 -0.6517
  336MOL0     H45352   4.145   0.833   0.773 -0.9072  0.8150 -0.4002
  336MOL0     H45353   4.030   0.845   0.907  2.3597  2.1969 -0.3849
  336MOL0     H45354   3.902   0.649   0.834  0.4602  0.4354  0.3456
  336MOL0     H45355   3.895   0.783   0.719 -1.6977  0.2727  3.3502
  336MOL0     H45356   4.025   0.466   0.474  1.1430 -0.4355  0.7091
  336MOL0     H45357   4.585   0.796   0.880  3.1301 -2.7403  1.1524
  336MOL0     H45358   4.879   0.914   0.938  1.2902 -0.5496 -2.3082
  336MOL0     H45359   4.899   0.751   1.005 -1.1409 -1.3304  0.0666
  336MOL0     H45360   4.812   0.772   0.867 -1.7450 -0.9909  1.7676
  337MOL0     O45361   4.590   8.730   6.014  0.0144  0.1362 -0.0011
  337MOL0     C45362   4.541   8.640   5.958  0.0788  0.6944  0.1358
  337MOL0     O45363   4.578   8.590   5.836  0.0452 -0.2488  0.7712
  337MOL0     C45364   4.703   8.630   5.795  0.7885 -0.0406  1.2180
  337MOL0     C45365   4.720   8.738   5.701  0.0598 -0.3547 -0.5754
  337MOL0     C45366   4.848   8.775   5.663  0.4447 -0.2562 -0.5608
  337MOL0     C45367   4.960   8.709   5.713 -0.7774 -0.4054  0.8328
  337MOL0     O45368   5.087   8.764   5.672  1.0305  0.1757  0.7402
  337MOL0     C45369   5.170   8.666   5.608  0.2428  0.0967 -0.2134
  337MOL0     C45370   5.297   8.726   5.554  0.7973 -0.5105  0.4178
  337MOL0     C45371   5.387   8.802   5.662 -0.6645 -0.6787 -1.1980
  337MOL0     C45372   5.532   8.820   5.612 -0.4628  0.0997 -1.0914
  337MOL0     C45373   5.613   8.898   5.710  0.2600  0.2422 -0.6959
  337MOL0     C45374   5.752   8.911   5.653  0.1521 -0.5354  0.0575
  337MOL0     C45375   5.843   9.002   5.740  0.8396  0.0802  0.4192
  337MOL0     C45376   5.863   8.944   5.883  0.0198 -0.4611  0.1051
  337MOL0     N45377   5.971   9.013   5.944  0.2458  0.1744 -0.5076
  337MOL0     C45378   6.105   8.987   5.921  0.2468  0.4621 -0.0192
  337MOL0     C45379   6.165   9.079   5.997 -1.0601  0.2889 -0.1876
  337MOL0     C45380   6.322   9.080   6.005  0.2754  0.6582 -0.1158
  337MOL0     C45381   6.371   9.157   6.128 -0.9752 -0.4118  0.0216
  337MOL0     C45382   6.523   9.174   6.117  0.2241  0.1862  0.1466
  337MOL0     C45383   6.583   9.258   6.227 -0.8464  0.0551 -0.2550
  337MOL0     O45384   6.727   9.273   6.210 -0.1551  0.3488 -0.1822
  337MOL0     C45385   6.801   9.338   6.308  0.5303  0.6531  0.0150
  337MOL0     C45386   6.936   9.361   6.270 -0.5999  0.5990  0.2172
  337MOL0     C45387   7.014   9.437   6.354  0.7875  0.4547 -0.1388
  337MOL0     C45388   6.980   9.475   6.489  0.3437 -0.1705  0.3519
  337MOL0     C45389   7.070   9.548   6.586 -0.5614 -0.2699  0.3804
  337MOL0     O45390   7.196   9.567   6.537 -0.1477  0.6539  0.6061
  337MOL0     C45391   7.294   9.644   6.594 -0.2047  0.3733  1.0307
  337MOL0     C45392   7.298   9.697   6.721  0.0023 -0.3953  0.4057
  337MOL0     C45393   7.417   9.767   6.764 -0.2070 -0.0437  1.0477
  337MOL0     C45394   7.516   9.807   6.672 -0.3076 -0.2543  0.4256
  337MOL0     O45395   7.615   9.884   6.720  0.5934  0.3612  0.0352
  337MOL0     C45396   7.705   9.937   6.619 -0.4716  0.7986 -0.2819
  337MOL0     C45397   7.810  10.032   6.674 -1.3470  0.3969  0.3485
  337MOL0     C45398   7.761  10.105   6.797 -0.5269 -0.1237 -0.6911
  337MOL0     C45399   7.873  10.199   6.839 -0.2067 -0.2304  0.0924
  337MOL0     C45400   7.845  10.274   6.970  0.2717  0.3111  0.6397
  337MOL0     C45401   7.969  10.335   7.031  0.2391 -0.1582 -1.1022
  337MOL0     C45402   7.925  10.422   7.153  0.3477  0.6864 -0.0543
  337MOL0     C45403   8.034  10.490   7.229 -0.5913 -0.0583  1.2938
  337MOL0    Cl45404   8.133  10.360   7.311  0.2400 -0.3840  0.0200
  337MOL0     C45405   7.503   9.755   6.544  0.2824 -0.1629 -0.1885
  337MOL0     C45406   7.403   9.665   6.506 -0.5144  0.0837 -0.1175
  337MOL0     O45407   7.025   9.586   6.694 -0.0643  0.3354 -0.2819
  337MOL0     C45408   6.845   9.462   6.521  0.3758 -1.1378  0.5004
  337MOL0     C45409   6.752   9.394   6.431  0.5900 -1.5915  0.0394
  337MOL0     N45410   6.063   9.144   6.072 -0.5604  0.4708 -0.0207
  337MOL0     N45411   5.949   9.104   6.039 -0.4263 -0.2605  0.0128
  337MOL0     C45412   4.947   8.601   5.803 -0.1098  0.6841  0.6379
  337MOL0     C45413   4.816   8.558   5.840 -0.5730  0.2340 -0.1640
  337MOL0     C45414   4.405   8.582   5.999  0.2199 -0.2060  0.1315
  337MOL0     C45415   4.338   8.652   6.100  1.2134 -0.4408 -0.1492
  337MOL0     C45416   4.214   8.614   6.155 -0.5888  0.5063  1.2122
  337MOL0     C45417   4.152   8.506   6.100 -0.1740 -0.7721  1.3064
  337MOL0     O45418   4.019   8.468   6.134 -0.4226  0.9439  0.5542
  337MOL0     C45419   3.930   8.560   6.197  0.1689  0.1866 -0.6130
  337MOL0     C45420   3.917   8.510   6.337 -0.2073  0.7163 -0.6164
  337MOL0     C45421   3.863   8.369   6.349  0.7427  0.2286 -0.4588
  337MOL0     C45422   3.821   8.332   6.491  0.6604 -0.3196 -0.5940
  337MOL0     C45423   3.935   8.322   6.575  0.0458 -0.8361  0.2603
  337MOL0     C45424   4.026   8.318   6.648 -0.8583  0.4464  0.0264
  337MOL0     C45425   4.218   8.432   5.998  0.1179 -0.2085 -0.1723
  337MOL0     C45426   4.347   8.467   5.949  0.2783 -0.0057 -0.8815
  337MOL0     C45427   4.415   8.372   5.855  0.5345  0.0300 -0.1314
  337MOL0     H45428   4.636   8.792   5.659 -0.4821 -2.0845 -1.8764
  337MOL0     H45429   4.867   8.858   5.597 -0.3744 -1.3420 -2.2422
  337MOL0     H45430   5.197   8.581   5.671  0.5710 -0.6843 -1.3734
  337MOL0     H45431   5.118   8.623   5.522 -0.0399 -1.3027  0.6408
  337MOL0     H45432   5.262   8.805   5.488  0.9696 -2.0492 -1.6279
  337MOL0     H45433   5.345   8.644   5.500 -1.1954 -0.4912 -1.5414
  337MOL0     H45434   5.384   8.743   5.754 -2.0414  0.0799 -0.7259
  337MOL0     H45435   5.338   8.897   5.682 -2.5743 -2.2800  2.9206
  337MOL0     H45436   5.579   8.721   5.619  1.7712  1.1619 -0.1247
  337MOL0     H45437   5.520   8.846   5.507 -0.3420 -1.6514 -1.5705
  337MOL0     H45438   5.563   8.993   5.729 -1.4129 -0.9059  0.9873
  337MOL0     H45439   5.627   8.842   5.802 -0.5213  1.0078 -0.0981
  337MOL0     H45440   5.788   8.809   5.642  1.2675 -0.0754 -0.7504
  337MOL0     H45441   5.749   8.949   5.550 -0.3466 -0.6110  0.0417
  337MOL0     H45442   5.794   9.099   5.753 -1.0312 -0.5227 -1.5079
  337MOL0     H45443   5.940   9.017   5.692  0.9460 -0.2056  0.5420
  337MOL0     H45444   5.769   8.943   5.940  0.3474 -4.0886  0.8224
  337MOL0     H45445   5.889   8.839   5.865  0.6133 -0.2077 -0.5538
  337MOL0     H45446   6.146   8.910   5.857  1.2768  0.5459  0.5217
  337MOL0     H45447   6.364   8.979   6.007  1.0050  0.9473 -0.5118
  337MOL0     H45448   6.356   9.129   5.913  1.7873  1.2114  0.7032
  337MOL0     H45449   6.313   9.250   6.136 -0.7150 -0.1640 -0.8586
  337MOL0     H45450   6.361   9.096   6.218  2.0738 -0.5476  0.3926
  337MOL0     H45451   6.528   9.227   6.021  1.8952 -0.4895 -0.1623
  337MOL0     H45452   6.563   9.074   6.099  0.9082  0.6754 -1.1750
  337MOL0     H45453   6.571   9.199   6.318  0.9982  0.1038  0.0591
  337MOL0     H45454   6.538   9.358   6.223  0.2164  0.5219 -1.2273
  337MOL0     H45455   6.970   9.338   6.169  1.1309  0.9012  0.6932
  337MOL0     H45456   7.117   9.458   6.327  0.7496  1.6766  0.6105
  337MOL0     H45457   7.230   9.681   6.803  3.0265 -1.0867  2.9555
  337MOL0     H45458   7.422   9.803   6.866  0.7965 -0.4576  1.1508
  337MOL0     H45459   7.746   9.854   6.561  0.4359  1.5922 -0.7999
  337MOL0     H45460   7.660  10.004   6.545  1.2099  1.6275 -0.6066
  337MOL0     H45461   7.898   9.978   6.709 -0.4308  2.9764  2.3376
  337MOL0     H45462   7.848  10.100   6.597  3.2243 -4.3653 -2.2583
  337MOL0     H45463   7.668  10.158   6.775 -1.5477 -1.7161 -0.3621
  337MOL0     H45464   7.742  10.031   6.875  0.1104  0.4985  0.0728
  337MOL0     H45465   7.893  10.274   6.762 -0.7252  0.1115  0.2811
  337MOL0     H45466   7.964  10.141   6.853 -1.2752 -1.5509  2.1930
  337MOL0     H45467   7.814  10.199   7.043  1.1957 -0.1581  0.5678
  337MOL0     H45468   7.765  10.347   6.962 -0.7699 -0.5370  2.5526
  337MOL0     H45469   8.038  10.255   7.061 -2.7372 -2.9479 -1.0826
  337MOL0     H45470   8.027  10.393   6.960 -0.6492 -0.6348 -2.2466
  337MOL0     H45471   7.880  10.351   7.224  2.9367 -1.9001 -0.7642
  337MOL0     H45472   7.859  10.493   7.104  1.9248  0.0753 -3.3483
  337MOL0     H45473   8.094  10.555   7.164 -0.2288 -2.2425 -0.7406
  337MOL0     H45474   7.997  10.541   7.318  0.3088  0.8402  1.1702
  337MOL0     H45475   7.583   9.774   6.473  0.8410  3.4927  1.1749
  337MOL0     H45476   7.407   9.618   6.409 -1.0358 -1.2282  0.4833
  337MOL0     H45477   6.810   9.501   6.615 -2.1255 -0.4917 -0.5978
  337MOL0     H45478   6.646   9.392   6.454  0.5865  0.6304  0.4626
  337MOL0     H45479   5.032   8.551   5.848 -0.9590  0.5792  2.2318
  337MOL0     H45480   4.807   8.461   5.889  0.1576 -0.1010 -0.6721
  337MOL0     H45481   4.378   8.738   6.152 -2.0922  1.4968 -0.5779
  337MOL0     H45482   4.168   8.687   6.221 -0.4711  1.1181  0.6305
  337MOL0     H45483   3.838   8.567   6.139  0.1310  1.3322 -0.4236
  337MOL0     H45484   3.959   8.665   6.194 -0.4081  0.3432 -0.9119
  337MOL0     H45485   3.856   8.577   6.398  1.0868  1.5638 -0.2073
  337MOL0     H45486   4.020   8.505   6.375 -0.2305 -0.7448 -0.7029
  337MOL0     H45487   3.936   8.296   6.312 -0.5021 -1.1916 -0.2215
  337MOL0     H45488   3.774   8.359   6.286  1.8310 -0.9212 -1.8883
  337MOL0     H45489   3.749   8.399   6.539  3.0746  0.6701  1.8958
  337MOL0     H45490   3.766   8.239   6.470 -2.1091  1.8868 -4.6601
  337MOL0     H45491   4.100   8.326   6.725 -1.8907  0.5202  1.0168
  337MOL0     H45492   4.167   8.343   5.963 -0.5100 -0.0211  0.2446
  337MOL0     H45493   4.426   8.414   5.754 -0.9325  0.3031 -0.1968
  337MOL0     H45494   4.519   8.348   5.880  0.9800  0.7824 -1.1550
  337MOL0     H45495   4.358   8.279   5.849  0.6314  0.0129 -0.9990
  338MOL0     O45496   3.169   6.013   1.606 -0.2660  0.5025 -0.4275
  338MOL0     C45497   3.204   5.907   1.554  0.5855  0.1576 -0.0452
  338MOL0     O45498   3.331   5.866   1.517  0.3235  0.4195 -0.3603
  338MOL0     C45499   3.432   5.930   1.583 -0.3710 -0.2574 -0.4940
  338MOL0     C45500   3.481   5.892   1.711 -0.4132 -0.0388 -0.0868
  338MOL0     C45501   3.593   5.956   1.776 -0.3701 -0.0126  0.8868
  338MOL0     C45502   3.654   6.067   1.723 -0.0504  0.7043  0.3723
  338MOL0     O45503   3.769   6.125   1.764  0.0459 -0.4015 -0.6500
  338MOL0     C45504   3.824   6.081   1.882 -0.7203  0.1550 -0.3804
  338MOL0     C45505   3.958   6.149   1.929 -0.0496  0.4074 -0.4963
  338MOL0     C45506   3.948   6.288   1.996  0.2267 -0.0076  0.6212
  338MOL0     C45507   3.934   6.397   1.890  0.2337 -0.4227  0.0064
  338MOL0     C45508   3.973   6.534   1.930 -1.2622 -0.1191 -1.7011
  338MOL0     C45509   3.881   6.628   2.007  0.9990  0.0679  0.4644
  338MOL0     C45510   3.742   6.660   1.941  0.3384  0.2215 -0.3020
  338MOL0     C45511   3.643   6.702   2.044  0.0133 -0.5111 -0.2268
  338MOL0     N45512   3.513   6.737   1.981  0.5341  0.7097  0.0733
  338MOL0     C45513   3.384   6.683   2.004 -1.0242  0.7187 -0.6130
  338MOL0     C45514   3.304   6.766   1.935  0.5092 -0.2223  0.4211
  338MOL0     C45515   3.158   6.768   1.905 -0.7328 -0.4722  0.1221
  338MOL0     C45516   3.092   6.899   1.962  0.4197 -0.9925 -0.2391
  338MOL0     C45517   3.077   6.914   2.111 -0.2498  0.9029  0.1267
  338MOL0     C45518   3.022   6.798   2.192 -0.6552 -1.2210 -0.6313
  338MOL0     O45519   3.024   6.824   2.334 -0.5125  0.5042 -0.2395
  338MOL0     C45520   3.136   6.810   2.416 -0.2768 -0.3752 -0.2616
  338MOL0     C45521   3.272   6.806   2.377 -0.3839  0.1941  0.0038
  338MOL0     C45522   3.370   6.808   2.477  1.3267  0.6748  0.0201
  338MOL0     C45523   3.346   6.802   2.614 -0.1744 -0.5405 -0.5231
  338MOL0     C45524   3.466   6.810   2.706  0.1916  0.5171 -0.2308
  338MOL0     O45525   3.456   6.891   2.818  0.6402  0.1885  0.4096
  338MOL0     C45526   3.562   6.879   2.903 -1.2412  0.3063  0.0121
  338MOL0     C45527   3.602   6.751   2.952 -0.2200 -0.5784  0.0830
  338MOL0     C45528   3.717   6.730   3.026 -0.8785  0.3170 -0.0452
  338MOL0     C45529   3.810   6.836   3.032 -0.0878 -0.1767  0.0359
  338MOL0     O45530   3.920   6.834   3.114  0.2570  0.7007 -0.6073
  338MOL0     C45531   4.019   6.737   3.071  0.0614  0.8974 -0.3380
  338MOL0     C45532   4.026   6.624   3.165 -0.7994  0.3339  0.0418
  338MOL0     C45533   4.106   6.512   3.093 -0.5394 -0.8919 -0.4587
  338MOL0     C45534   4.256   6.552   3.060  0.6663 -0.6232 -0.0305
  338MOL0     C45535   4.342   6.430   3.017  0.8093  0.0505 -0.5700
  338MOL0     C45536   4.495   6.453   3.032 -0.1453 -0.1399 -0.1328
  338MOL0     C45537   4.538   6.573   2.953 -0.5444 -0.5240  0.4002
  338MOL0     C45538   4.695   6.592   2.947  0.6290  0.0136 -0.7476
  338MOL0    Cl45539   4.765   6.479   2.827  0.3980  0.2636 -0.2896
  338MOL0     C45540   3.765   6.966   2.991 -0.4628  0.2185  0.3157
  338MOL0     C45541   3.646   6.991   2.920  0.3596  0.9006 -0.1234
  338MOL0     O45542   3.559   6.739   2.678 -0.3493 -0.1197  0.4279
  338MOL0     C45543   3.212   6.815   2.654  0.4265 -0.8782  0.0100
  338MOL0     C45544   3.111   6.813   2.551 -0.3115  0.0959 -0.3453
  338MOL0     N45545   3.379   6.862   1.883  0.1655  0.1753 -0.4508
  338MOL0     N45546   3.492   6.853   1.924 -1.0676 -0.8986  0.2480
  338MOL0     C45547   3.603   6.108   1.597 -0.3638 -0.0781  0.0093
  338MOL0     C45548   3.496   6.042   1.530 -0.9077 -0.8780  0.0384
  338MOL0     C45549   3.102   5.802   1.558  0.2111  0.0218  0.5091
  338MOL0     C45550   2.969   5.846   1.525 -0.3115 -0.5858  0.3015
  338MOL0     C45551   2.862   5.772   1.512  0.1022 -0.0769 -0.7983
  338MOL0     C45552   2.875   5.636   1.516 -0.3836  0.6555  0.0013
  338MOL0     O45553   2.778   5.545   1.494  0.0353 -0.4919  0.1359
  338MOL0     C45554   2.655   5.593   1.428 -0.3134  0.5540  0.0188
  338MOL0     C45555   2.553   5.491   1.391 -0.2058  0.6014  0.7665
  338MOL0     C45556   2.430   5.531   1.305  0.4275 -0.2729 -0.2633
  338MOL0     C45557   2.332   5.416   1.274 -0.4245 -1.1857 -0.3633
  338MOL0     C45558   2.405   5.332   1.187 -0.5119  0.7052 -0.6428
  338MOL0     C45559   2.448   5.245   1.111 -0.6475  0.6514  0.7501
  338MOL0     C45560   3.002   5.588   1.555  0.4831  0.3987 -0.2106
  338MOL0     C45561   3.114   5.667   1.573 -0.3881 -0.4617  0.4437
  338MOL0     C45562   3.247   5.599   1.613 -0.7357 -0.0531  0.2512
  338MOL0     H45563   3.428   5.809   1.756  1.4411 -0.7667  0.8721
  338MOL0     H45564   3.632   5.902   1.862 -0.2810  0.2216  0.9917
  338MOL0     H45565   3.749   6.092   1.961  0.4078 -1.5582  1.0193
  338MOL0     H45566   3.841   5.973   1.881 -0.9986  0.1041 -0.0283
  338MOL0     H45567   4.018   6.140   1.838 -0.4002 -1.5572 -0.5841
  338MOL0     H45568   4.010   6.080   1.995  0.7679  0.5740 -0.9511
  338MOL0     H45569   4.041   6.302   2.053  0.3280  2.2660  0.0090
  338MOL0     H45570   3.865   6.297   2.067  0.4929  2.4512  0.7111
  338MOL0     H45571   4.002   6.371   1.809 -0.9599  2.1892 -2.0035
  338MOL0     H45572   3.829   6.401   1.858 -0.2048  2.1160  1.5003
  338MOL0     H45573   4.063   6.524   1.990 -0.0514 -3.0250 -3.7247
  338MOL0     H45574   4.004   6.588   1.840  0.9733  1.7905  0.1012
  338MOL0     H45575   3.863   6.571   2.099  2.9139 -1.6330 -0.1371
  338MOL0     H45576   3.941   6.716   2.031  0.7056 -0.1582  2.1551
  338MOL0     H45577   3.701   6.568   1.898 -0.2099  0.1587  0.3315
  338MOL0     H45578   3.747   6.734   1.860 -0.2875 -0.2552 -0.7875
  338MOL0     H45579   3.636   6.632   2.128 -4.2447  0.2935  0.3032
  338MOL0     H45580   3.684   6.799   2.074 -2.3343  0.5232 -0.1517
  338MOL0     H45581   3.352   6.587   2.044 -0.9381  0.5870 -0.8550
  338MOL0     H45582   3.150   6.768   1.796 -0.6442  1.3453  0.0922
  338MOL0     H45583   3.102   6.679   1.937 -0.3450 -0.1453  1.8241
  338MOL0     H45584   3.145   6.986   1.922  0.8641 -1.6599 -1.1349
  338MOL0     H45585   2.994   6.891   1.915  0.8333  1.5836 -1.7421
  338MOL0     H45586   3.006   6.998   2.117 -1.2325  0.2372 -1.4888
  338MOL0     H45587   3.164   6.959   2.158  0.4268  1.2348 -1.3726
  338MOL0     H45588   3.082   6.707   2.185 -1.0714 -1.6445  0.9734
  338MOL0     H45589   2.919   6.775   2.164 -1.5267  2.5819 -1.1682
  338MOL0     H45590   3.301   6.798   2.273  0.4673 -1.4505  0.3386
  338MOL0     H45591   3.475   6.827   2.457  1.5329  1.0461  1.3303
  338MOL0     H45592   3.538   6.664   2.944  1.8331 -2.1750  0.2522
  338MOL0     H45593   3.714   6.636   3.080 -1.5158 -0.2226 -0.9769
  338MOL0     H45594   4.002   6.713   2.965 -2.5480  1.6898 -0.1679
  338MOL0     H45595   4.115   6.790   3.071  0.9429 -0.6425 -1.3883
  338MOL0     H45596   4.068   6.646   3.264 -1.5334 -2.0644  0.9481
  338MOL0     H45597   3.930   6.575   3.180  0.7059 -2.4580  1.3789
  338MOL0     H45598   4.095   6.426   3.160 -0.1016  1.1081  2.3471
  338MOL0     H45599   4.059   6.490   2.996  0.0028 -2.0445 -0.4781
  338MOL0     H45600   4.311   6.595   3.144  2.0387  0.3949 -1.3929
  338MOL0     H45601   4.261   6.629   2.983  5.1931  1.1024  1.6632
  338MOL0     H45602   4.322   6.409   2.911  3.0816 -0.1159 -1.0207
  338MOL0     H45603   4.312   6.343   3.076 -0.1109  1.2324  0.7580
  338MOL0     H45604   4.520   6.479   3.135 -1.4748  0.8262 -0.0287
  338MOL0     H45605   4.556   6.368   3.000  1.1881  0.9309 -0.5323
  338MOL0     H45606   4.495   6.666   2.991 -0.8097  1.1061 -3.4598
  338MOL0     H45607   4.502   6.563   2.850 -2.0350 -2.6852  1.0513
  338MOL0     H45608   4.726   6.691   2.912  2.3121 -0.9169 -2.0694
  338MOL0     H45609   4.723   6.560   3.047  0.8272 -0.7447 -1.0435
  338MOL0     H45610   3.835   7.049   3.002 -1.6147  1.3627 -0.7133
  338MOL0     H45611   3.603   7.080   2.876  1.5277  2.4127  1.6502
  338MOL0     H45612   3.204   6.829   2.761  0.2769  0.7424 -0.1952
  338MOL0     H45613   3.008   6.803   2.584 -0.1329  1.2695  0.6421
  338MOL0     H45614   3.658   6.192   1.556  1.2473 -1.5353 -0.9647
  338MOL0     H45615   3.476   6.069   1.427  1.5723  1.5246  0.0519
  338MOL0     H45616   2.954   5.952   1.508  1.3485 -0.2123  0.9769
  338MOL0     H45617   2.774   5.828   1.483 -2.6881 -3.7887 -0.2251
  338MOL0     H45618   2.686   5.648   1.339  3.2122 -1.0695  0.0860
  338MOL0     H45619   2.599   5.660   1.493 -1.6707  0.1220 -0.6565
  338MOL0     H45620   2.522   5.445   1.485 -3.1713  0.9942  0.0994
  338MOL0     H45621   2.613   5.415   1.340 -1.9614  0.0419 -0.5918
  338MOL0     H45622   2.445   5.588   1.213 -0.6737  2.4901  1.1482
  338MOL0     H45623   2.369   5.593   1.371  0.6361  0.3792 -0.6723
  338MOL0     H45624   2.297   5.367   1.365 -1.7344 -2.7619 -1.6552
  338MOL0     H45625   2.247   5.464   1.223 -1.0935  0.6218  2.2665
  338MOL0     H45626   2.464   5.171   1.035 -1.1767  1.0963  0.1901
  338MOL0     H45627   3.019   5.480   1.557  1.0610  0.4740 -0.7380
  338MOL0     H45628   3.308   5.592   1.522 -0.5385  0.2245  0.3616
  338MOL0     H45629   3.287   5.663   1.692 -1.1837  1.9260 -1.0519
  338MOL0     H45630   3.220   5.501   1.653 -2.2731  0.7990  1.4216
  339MOL0     O45631   4.638   7.591   2.213  0.6092 -0.7037 -0.3101
  339MOL0     C45632   4.651   7.498   2.140 -0.6673 -0.3765 -0.3397
  339MOL0     O45633   4.752   7.403   2.155  0.1117 -0.2101  0.3500
  339MOL0     C45634   4.846   7.440   2.254  0.3019  0.5186  0.4773
  339MOL0     C45635   4.974   7.485   2.221  0.7298  0.6797  0.1370
  339MOL0     C45636   5.075   7.513   2.317 -0.1603  0.6703 -0.5953
  339MOL0     C45637   5.053   7.484   2.453  0.4591  0.3508  0.2245
  339MOL0     O45638   5.157   7.492   2.534 -0.0226 -0.3389 -0.1267
  339MOL0     C45639   5.136   7.462   2.681  0.4259  0.0962 -0.2600
  339MOL0     C45640   5.260   7.470   2.775  0.8310 -0.5766  0.0047
  339MOL0     C45641   5.309   7.610   2.789 -0.1320 -0.0060 -0.0426
  339MOL0     C45642   5.426   7.621   2.885  0.8868 -0.1070 -0.2198
  339MOL0     C45643   5.557   7.536   2.863  0.7317 -0.0129  0.3303
  339MOL0     C45644   5.634   7.570   2.733  0.0524  0.1703 -0.8409
  339MOL0     C45645   5.779   7.498   2.730  0.5152  0.0141  1.1889
  339MOL0     C45646   5.828   7.482   2.582  0.5005  0.3723  0.7501
  339MOL0     N45647   5.954   7.398   2.583 -0.2004 -0.2309 -0.0186
  339MOL0     C45648   5.953   7.269   2.626 -0.2119  0.0781  0.1907
  339MOL0     C45649   6.082   7.244   2.637 -1.3851  0.3531 -0.0158
  339MOL0     C45650   6.134   7.114   2.690  0.2389 -0.3356  0.6016
  339MOL0     C45651   6.120   7.022   2.566  0.3417  0.0500  0.2598
  339MOL0     C45652   6.231   7.042   2.468  0.4964 -0.3883  0.0071
  339MOL0     C45653   6.211   6.965   2.328 -0.2464 -0.1794 -0.4939
  339MOL0     O45654   6.256   6.829   2.328  0.2149  0.2926 -0.3419
  339MOL0     C45655   6.389   6.806   2.369 -0.0276 -0.2360  0.3568
  339MOL0     C45656   6.408   6.706   2.466 -0.1229 -0.1619  0.3530
  339MOL0     C45657   6.528   6.659   2.502 -0.3821 -0.1200 -0.1072
  339MOL0     C45658   6.648   6.717   2.459 -0.3075 -0.2782  0.2409
  339MOL0     C45659   6.774   6.670   2.517 -0.7061 -0.5875  0.0461
  339MOL0     O45660   6.765   6.583   2.618 -0.4044 -0.5607 -0.1687
  339MOL0     C45661   6.878   6.529   2.665 -0.0698 -0.4113 -0.7451
  339MOL0     C45662   6.893   6.387   2.645  0.0937 -0.8462 -0.0576
  339MOL0     C45663   7.012   6.330   2.691  0.4407  0.1922  0.0370
  339MOL0     C45664   7.112   6.396   2.767  0.9571 -0.3690 -0.2108
  339MOL0     O45665   7.217   6.324   2.813 -0.0152  0.8832  0.1438
  339MOL0     C45666   7.262   6.204   2.742 -0.1226  0.3803  0.5894
  339MOL0     C45667   7.380   6.128   2.820 -1.2269  0.1864 -0.5927
  339MOL0     C45668   7.354   6.070   2.958 -0.4489  0.8983 -1.0593
  339MOL0     C45669   7.440   5.951   3.008  0.1925  0.4432  1.2090
  339MOL0     C45670   7.393   5.878   3.130 -0.7552 -0.2505  0.3316
  339MOL0     C45671   7.462   5.940   3.257  0.1688 -0.8630  0.7473
  339MOL0     C45672   7.417   6.075   3.285  0.3576 -0.8113 -0.5034
  339MOL0     C45673   7.418   6.097   3.437 -0.0930 -0.1974 -0.6851
  339MOL0    Cl45674   7.582   6.150   3.488  0.1736 -0.2830 -0.2970
  339MOL0     C45675   7.100   6.531   2.777 -0.3284  0.6966  0.1734
  339MOL0     C45676   6.984   6.600   2.728 -0.0178  0.5179 -0.3121
  339MOL0     O45677   6.878   6.722   2.466 -0.0836  0.7528 -0.7158
  339MOL0     C45678   6.633   6.823   2.367 -0.2012  0.4274 -0.0013
  339MOL0     C45679   6.504   6.871   2.325 -0.2347 -0.2882 -0.3715
  339MOL0     N45680   6.158   7.354   2.614 -0.1196  0.0986  0.5199
  339MOL0     N45681   6.081   7.452   2.590  0.0709  0.9196  0.4045
  339MOL0     C45682   4.924   7.437   2.489 -0.9256  0.0415  0.4409
  339MOL0     C45683   4.825   7.408   2.389 -0.3504  0.3108  0.1716
  339MOL0     C45684   4.559   7.459   2.038  0.3462 -0.2508  0.3504
  339MOL0     C45685   4.592   7.371   1.935 -0.3872  0.3434  0.7961
  339MOL0     C45686   4.500   7.342   1.839  0.2148  0.3290 -0.4310
  339MOL0     C45687   4.372   7.389   1.843 -0.1857  0.5885 -0.6861
  339MOL0     O45688   4.285   7.366   1.735  0.0039  1.0709  0.4480
  339MOL0     C45689   4.157   7.416   1.723  0.2247  0.9225  0.9319
  339MOL0     C45690   4.092   7.408   1.589  1.0465 -0.1830  0.6529
  339MOL0     C45691   3.943   7.452   1.596  0.0564 -0.2608  0.3020
  339MOL0     C45692   3.876   7.471   1.461  0.4780  0.6399  0.1644
  339MOL0     C45693   3.855   7.334   1.405 -0.7850  0.8255  0.4286
  339MOL0     C45694   3.832   7.222   1.359 -0.9545  0.0206  0.8712
  339MOL0     C45695   4.336   7.491   1.932  0.0450 -0.3150  0.3108
  339MOL0     C45696   4.428   7.528   2.037 -0.0535  0.3722  0.4343
  339MOL0     C45697   4.380   7.635   2.134  0.3586  0.4358 -0.2429
  339MOL0     H45698   5.014   7.492   2.120 -1.7210  3.3872 -0.7886
  339MOL0     H45699   5.172   7.556   2.295  0.3474  0.1607  0.5898
  339MOL0     H45700   5.056   7.524   2.723 -1.5356 -1.6512 -1.2573
  339MOL0     H45701   5.108   7.358   2.699  3.9773 -1.0799 -0.6049
  339MOL0     H45702   5.338   7.406   2.732  1.3459  1.8938 -3.1170
  339MOL0     H45703   5.238   7.434   2.876  0.8006  0.3079  0.3175
  339MOL0     H45704   5.224   7.672   2.820  0.4641 -0.0238  1.7661
  339MOL0     H45705   5.341   7.649   2.692 -1.3358  1.7713  0.2210
  339MOL0     H45706   5.450   7.727   2.900  1.2096 -0.4851  2.3691
  339MOL0     H45707   5.383   7.591   2.981  0.8478  1.8493  0.4154
  339MOL0     H45708   5.632   7.559   2.939  0.0288  2.8610  0.2601
  339MOL0     H45709   5.536   7.429   2.868 -1.6289  0.3365 -0.7983
  339MOL0     H45710   5.573   7.531   2.651 -0.0527  1.2872 -1.3126
  339MOL0     H45711   5.635   7.678   2.716  1.1018  0.5639  1.4054
  339MOL0     H45712   5.764   7.401   2.777  1.5577 -1.0076 -0.4563
  339MOL0     H45713   5.857   7.552   2.784  2.0253  0.9893 -1.7127
  339MOL0     H45714   5.756   7.421   2.526 -0.2872  1.2530  0.7807
  339MOL0     H45715   5.845   7.574   2.526  0.5961 -0.7677 -1.1949
  339MOL0     H45716   5.874   7.195   2.632  0.1804 -0.2689  1.9450
  339MOL0     H45717   6.239   7.122   2.722 -0.0507  0.8412  1.3224
  339MOL0     H45718   6.072   7.082   2.775  0.8730 -3.5666 -0.0450
  339MOL0     H45719   6.141   6.918   2.595 -1.0608 -0.6875 -1.1964
  339MOL0     H45720   6.015   7.013   2.534  1.0138  0.6865 -2.2628
  339MOL0     H45721   6.329   7.035   2.516  1.3434  2.0855 -1.1911
  339MOL0     H45722   6.230   7.147   2.437 -3.6501 -0.5427 -1.0197
  339MOL0     H45723   6.264   7.019   2.250  2.0370  0.0592  1.1383
  339MOL0     H45724   6.106   6.973   2.297 -0.1740  2.8978 -0.1831
  339MOL0     H45725   6.325   6.666   2.524  1.1121 -1.4701  1.3013
  339MOL0     H45726   6.524   6.577   2.573 -0.1050 -0.5523 -0.5842
  339MOL0     H45727   6.810   6.324   2.615 -0.7199  0.0095  0.3684
  339MOL0     H45728   7.020   6.224   2.669 -0.8407 -0.1070  0.8532
  339MOL0     H45729   7.176   6.136   2.745 -0.5848  0.6605 -2.5453
  339MOL0     H45730   7.284   6.234   2.639 -1.7170 -0.7359 -0.1242
  339MOL0     H45731   7.420   6.048   2.757 -0.6221  1.3197 -1.7197
  339MOL0     H45732   7.469   6.191   2.835  0.7928 -2.7027  0.5216
  339MOL0     H45733   7.373   6.142   3.038 -1.4685  2.5218 -2.2237
  339MOL0     H45734   7.249   6.040   2.968  0.0158 -1.2220 -1.8672
  339MOL0     H45735   7.533   6.003   3.034  0.4041  0.4130  0.5197
  339MOL0     H45736   7.434   5.880   2.925 -2.2994  0.8918  0.9385
  339MOL0     H45737   7.424   5.774   3.114  2.0816  0.7646 -1.6170
  339MOL0     H45738   7.285   5.862   3.123 -0.5363 -1.1088 -2.2217
  339MOL0     H45739   7.445   5.870   3.339 -0.5977 -2.2140 -0.5193
  339MOL0     H45740   7.571   5.947   3.248  0.1385 -1.8877 -0.8748
  339MOL0     H45741   7.315   6.095   3.249  0.0160  0.4217  1.0446
  339MOL0     H45742   7.481   6.153   3.243  0.6430  1.3703  3.5191
  339MOL0     H45743   7.341   6.170   3.463 -0.3507 -0.6139 -0.2542
  339MOL0     H45744   7.382   6.007   3.488  1.6469 -0.7270 -0.3461
  339MOL0     H45745   7.178   6.581   2.834  0.8303 -1.3058  0.4062
  339MOL0     H45746   6.969   6.707   2.742 -0.6295  0.2349  1.4327
  339MOL0     H45747   6.720   6.870   2.321 -1.7369  2.2862 -1.1346
  339MOL0     H45748   6.500   6.950   2.250 -3.9787  0.3659  0.3240
  339MOL0     H45749   4.902   7.404   2.590 -4.2163 -0.5816 -0.3768
  339MOL0     H45750   4.733   7.361   2.421  0.1827 -1.3376 -0.6014
  339MOL0     H45751   4.687   7.320   1.922 -0.1002  1.3837 -1.6289
  339MOL0     H45752   4.527   7.287   1.750  0.3533  0.9653 -0.7866
  339MOL0     H45753   4.162   7.523   1.745  0.1214  0.6083  2.5905
  339MOL0     H45754   4.094   7.370   1.799  0.2172 -0.6052  0.0488
  339MOL0     H45755   4.094   7.309   1.543 -0.3439 -0.1814  0.5330
  339MOL0     H45756   4.148   7.478   1.527 -0.2091 -1.1206 -1.6482
  339MOL0     H45757   3.922   7.539   1.659 -1.7991 -1.2917  1.2058
  339MOL0     H45758   3.893   7.376   1.658 -0.6936 -0.4406 -0.5170
  339MOL0     H45759   3.778   7.516   1.475  0.2425  0.2925 -0.3314
  339MOL0     H45760   3.937   7.525   1.388 -0.7533  2.4289  0.3987
  339MOL0     H45761   3.830   7.122   1.323 -0.9158  0.4557 -0.3983
  339MOL0     H45762   4.248   7.550   1.910  1.0480  0.5016 -1.7440
  339MOL0     H45763   4.390   7.593   2.234 -2.0748 -1.6717 -0.7625
  339MOL0     H45764   4.440   7.724   2.116 -0.5099  1.3029  1.0398
  339MOL0     H45765   4.272   7.653   2.127 -0.6186 -3.4248  1.6720
  340MOL0     O45766   5.853  11.309   2.680 -0.0111 -0.5932 -0.0069
  340MOL0     C45767   5.736  11.289   2.722  0.1580 -0.2883  0.6280
  340MOL0     O45768   5.696  11.260   2.850 -0.4266  0.0465  0.5896
  340MOL0     C45769   5.790  11.268   2.949 -0.1165  0.0263  0.5898
  340MOL0     C45770   5.914  11.186   2.951  0.0392  0.1020  0.4093
  340MOL0     C45771   6.007  11.198   3.059 -0.2122  0.3439 -0.0336
  340MOL0     C45772   5.979  11.282   3.163  0.6098 -0.2023  0.4839
  340MOL0     O45773   6.061  11.299   3.268 -0.0953 -0.3864 -0.3672
  340MOL0     C45774   6.200  11.278   3.260  0.2384  1.1228  0.3533
  340MOL0     C45775   6.277  11.328   3.385 -0.3261  0.3662 -0.0958
  340MOL0     C45776   6.426  11.299   3.370  0.3873 -0.4147 -0.0399
  340MOL0     C45777   6.499  11.308   3.503  0.1574 -0.3546 -0.0934
  340MOL0     C45778   6.655  11.291   3.482  0.3465 -0.2365 -0.0490
  340MOL0     C45779   6.691  11.164   3.403  0.2941 -0.8809  0.2687
  340MOL0     C45780   6.846  11.148   3.388  0.6768 -1.0075  1.1108
  340MOL0     C45781   6.878  11.033   3.295  0.1028 -0.7106 -0.8194
  340MOL0     N45782   7.020  10.999   3.291  0.2114  0.2617 -0.1774
  340MOL0     C45783   7.109  11.028   3.194  0.7560  1.0983 -0.0028
  340MOL0     C45784   7.226  10.965   3.233  0.4142 -0.1573  0.1856
  340MOL0     C45785   7.360  10.980   3.157 -0.1617  0.1399 -0.0976
  340MOL0     C45786   7.479  10.995   3.255  0.3516  0.5268 -0.2822
  340MOL0     C45787   7.488  11.134   3.309 -0.4654  0.0391  0.1871
  340MOL0     C45788   7.541  11.233   3.204 -0.4992  0.8649 -0.6597
  340MOL0     O45789   7.674  11.257   3.250 -0.3100  0.0860  0.6407
  340MOL0     C45790   7.738  11.352   3.181 -0.3137 -0.6690  0.0156
  340MOL0     C45791   7.868  11.385   3.218  0.0281  0.2604 -0.1717
  340MOL0     C45792   7.944  11.472   3.146  0.0830  0.5337  0.2847
  340MOL0     C45793   7.889  11.551   3.043 -0.1026 -0.2358  0.1261
  340MOL0     C45794   7.958  11.667   2.980 -0.5242  0.3370  1.0049
  340MOL0     O45795   8.087  11.703   3.030  0.1032  0.1319 -0.7104
  340MOL0     C45796   8.146  11.824   3.002 -0.0630 -0.3964  0.3824
  340MOL0     C45797   8.272  11.839   3.056  0.1281 -0.3053  0.0348
  340MOL0     C45798   8.349  11.955   3.037 -0.4065 -0.4768 -0.3821
  340MOL0     C45799   8.303  12.059   2.955  1.3846  0.8949  0.2226
  340MOL0     O45800   8.368  12.180   2.962  0.0129 -0.3827  0.6430
  340MOL0     C45801   8.309  12.299   2.911 -0.0740  0.2922  0.0013
  340MOL0     C45802   8.334  12.318   2.752  0.0745  0.0255 -0.1144
  340MOL0     C45803   8.481  12.317   2.719 -0.4412  0.1898  0.4749
  340MOL0     C45804   8.540  12.453   2.754 -0.0908 -0.3115  0.5952
  340MOL0     C45805   8.694  12.452   2.725 -0.8603 -0.2443  0.7581
  340MOL0     C45806   8.748  12.594   2.746  0.9766  0.9547 -0.6886
  340MOL0     C45807   8.885  12.605   2.678  0.3081 -0.0161 -0.1099
  340MOL0     C45808   8.872  12.672   2.538  0.1324 -0.7127  0.2818
  340MOL0    Cl45809   9.038  12.667   2.462  0.2245  0.1603  0.2558
  340MOL0     C45810   8.181  12.037   2.895  0.1608  0.1606 -0.5740
  340MOL0     C45811   8.096  11.923   2.912 -0.2758  0.3532  0.2206
  340MOL0     O45812   7.905  11.713   2.875 -0.7492  0.5227 -0.5313
  340MOL0     C45813   7.756  11.527   3.007  0.3584 -0.2859  0.0151
  340MOL0     C45814   7.679  11.436   3.084  0.3644  0.4775  0.4509
  340MOL0     N45815   7.203  10.902   3.350  0.7073 -0.3387 -0.7333
  340MOL0     N45816   7.080  10.921   3.387  0.7718  0.8650  1.2122
  340MOL0     C45817   5.856  11.336   3.169  0.4305 -0.8556 -0.3540
  340MOL0     C45818   5.760  11.326   3.066 -0.0256 -0.2854 -0.7242
  340MOL0     C45819   5.622  11.290   2.618 -0.3171 -0.5128  0.5623
  340MOL0     C45820   5.490  11.301   2.670 -0.8935  0.6259  0.0596
  340MOL0     C45821   5.380  11.292   2.589  0.1044 -0.0147 -0.4203
  340MOL0     C45822   5.392  11.288   2.452 -0.2948 -0.1885  0.8211
  340MOL0     O45823   5.290  11.298   2.361  0.3030  0.0155  0.3340
  340MOL0     C45824   5.152  11.301   2.407 -0.7886  0.6503 -0.1499
  340MOL0     C45825   5.053  11.293   2.284 -0.6681 -0.1508  0.3813
  340MOL0     C45826   5.051  11.429   2.214 -0.7641  0.4867 -0.3579
  340MOL0     C45827   4.981  11.423   2.086  0.7994  0.0459  0.3446
  340MOL0     C45828   4.836  11.413   2.089  0.1447  1.0240 -0.3919
  340MOL0     C45829   4.718  11.382   2.099 -0.3499 -0.2050  0.1392
  340MOL0     C45830   5.522  11.289   2.397  0.2100 -0.1188 -0.6342
  340MOL0     C45831   5.635  11.281   2.479  0.7038  0.1659  0.2212
  340MOL0     C45832   5.761  11.266   2.406  0.8317  0.4471 -0.0458
  340MOL0     H45833   5.922  11.119   2.866  1.0074 -0.6741  1.0843
  340MOL0     H45834   6.099  11.142   3.056  0.7673  1.8700  0.3940
  340MOL0     H45835   6.213  11.171   3.241 -4.4007  0.4047  0.1172
  340MOL0     H45836   6.245  11.329   3.174  1.1331  0.8224  0.6256
  340MOL0     H45837   6.224  11.280   3.467 -1.4392  2.4686  0.5023
  340MOL0     H45838   6.250  11.433   3.403 -0.9482 -0.4851  5.6271
  340MOL0     H45839   6.471  11.367   3.297 -1.8216 -0.5305 -1.5786
  340MOL0     H45840   6.425  11.197   3.330 -2.0471 -0.9046  1.0799
  340MOL0     H45841   6.484  11.409   3.544  0.3404  0.5411 -2.1162
  340MOL0     H45842   6.452  11.240   3.574 -2.2815 -3.0063 -3.8984
  340MOL0     H45843   6.693  11.383   3.439 -0.6061  1.7766  3.0371
  340MOL0     H45844   6.706  11.284   3.579  1.2923 -1.2584 -0.5944
  340MOL0     H45845   6.658  11.071   3.452  0.4949 -1.2756 -0.3410
  340MOL0     H45846   6.650  11.188   3.305  1.9068  0.6936 -0.0549
  340MOL0     H45847   6.896  11.147   3.485 -1.0335 -0.2166  2.0571
  340MOL0     H45848   6.873  11.239   3.333  1.4872 -1.1946  1.1886
  340MOL0     H45849   6.826  10.942   3.329  0.1141 -0.6968 -0.7638
  340MOL0     H45850   6.846  11.064   3.195  0.5183 -2.9717 -1.7190
  340MOL0     H45851   7.087  11.093   3.110  0.5014 -3.3305 -3.7484
  340MOL0     H45852   7.377  10.888   3.100 -0.7109 -1.8290  2.7112
  340MOL0     H45853   7.355  11.071   3.096 -0.2698  0.9838  1.1194
  340MOL0     H45854   7.471  10.928   3.341 -3.3838  0.8679 -0.2016
  340MOL0     H45855   7.578  10.968   3.216  0.6969  0.8522  0.3442
  340MOL0     H45856   7.551  11.117   3.396 -1.6725  4.1930  2.0775
  340MOL0     H45857   7.394  11.172   3.348 -0.2944  0.4969  0.1523
  340MOL0     H45858   7.471  11.317   3.200 -1.0050  0.4523 -0.5671
  340MOL0     H45859   7.536  11.187   3.105 -3.5098 -1.3189  0.3754
  340MOL0     H45860   7.900  11.345   3.313  0.2649 -0.5702 -0.5901
  340MOL0     H45861   8.039  11.504   3.187  0.0810  1.1531 -0.1628
  340MOL0     H45862   8.317  11.762   3.116  1.2213 -0.7219 -1.2780
  340MOL0     H45863   8.436  11.962   3.103 -1.3315 -1.6255  1.0170
  340MOL0     H45864   8.201  12.303   2.928  0.1361  0.8015  1.3741
  340MOL0     H45865   8.356  12.380   2.968 -0.1942 -1.5461  2.9594
  340MOL0     H45866   8.273  12.249   2.692  2.3225 -1.1535 -1.1743
  340MOL0     H45867   8.303  12.417   2.718  2.8657  0.1198 -2.8161
  340MOL0     H45868   8.526  12.232   2.770 -0.0240 -0.8415 -1.5106
  340MOL0     H45869   8.486  12.291   2.613 -1.1094 -0.0714  0.5046
  340MOL0     H45870   8.524  12.472   2.860  1.6474 -2.1895  1.2458
  340MOL0     H45871   8.493  12.525   2.685  1.5206  0.1229 -0.1204
  340MOL0     H45872   8.710  12.421   2.622 -1.5670 -0.1199  0.6081
  340MOL0     H45873   8.737  12.378   2.794  1.4557  0.7440  0.4846
  340MOL0     H45874   8.683  12.664   2.692 -0.9645 -1.2488 -1.3639
  340MOL0     H45875   8.746  12.602   2.855  1.3848 -1.5585 -0.4281
  340MOL0     H45876   8.937  12.510   2.674 -3.1860 -2.0684 -1.7697
  340MOL0     H45877   8.941  12.680   2.735  0.9564  0.3861 -1.2417
  340MOL0     H45878   8.815  12.606   2.473  1.0059 -1.7347  0.5310
  340MOL0     H45879   8.838  12.776   2.532  2.0272  0.1243  2.3702
  340MOL0     H45880   8.134  12.116   2.838  0.7159  0.8457 -0.0862
  340MOL0     H45881   7.995  11.922   2.870  0.7090  0.7904 -2.3762
  340MOL0     H45882   7.711  11.589   2.930  0.1024 -0.5521 -0.0513
  340MOL0     H45883   7.576  11.425   3.053 -0.2521  0.4571  2.3913
  340MOL0     H45884   5.836  11.398   3.256 -0.7927  0.8592 -1.7842
  340MOL0     H45885   5.667  11.381   3.055 -0.8454 -0.9251  2.1185
  340MOL0     H45886   5.497  11.309   2.778  1.6398  0.7259 -0.0397
  340MOL0     H45887   5.282  11.321   2.626  0.6546  3.1755 -1.1951
  340MOL0     H45888   5.118  11.380   2.474  2.0297  2.1126 -0.3242
  340MOL0     H45889   5.131  11.203   2.451  0.7808 -0.0896 -0.9605
  340MOL0     H45890   4.956  11.260   2.322 -0.3276 -2.6061 -0.6789
  340MOL0     H45891   5.082  11.217   2.211 -1.4439  0.4017 -0.5204
  340MOL0     H45892   5.153  11.467   2.202 -1.1824  1.6089 -0.4634
  340MOL0     H45893   5.001  11.512   2.266  0.5285 -0.5137  2.7503
  340MOL0     H45894   4.997  11.522   2.042 -0.6040  1.4529  2.7722
  340MOL0     H45895   5.021  11.346   2.020 -0.4133  0.6545 -1.1418
  340MOL0     H45896   4.616  11.351   2.110 -0.8555  0.7363 -1.5318
  340MOL0     H45897   5.531  11.304   2.290 -0.0121 -1.2987 -0.8305
  340MOL0     H45898   5.813  11.181   2.452  0.3889  1.3914  2.3161
  340MOL0     H45899   5.742  11.246   2.300 -1.6730 -0.3042  0.4521
  340MOL0     H45900   5.823  11.354   2.420 -0.8849  2.1567 -2.3486
  341MOL0     O45901   6.961   8.104   8.463  0.1722 -0.2002 -0.0682
  341MOL0     C45902   6.895   8.193   8.404  0.5299  0.3055  0.1521
  341MOL0     O45903   6.944   8.316   8.375  0.7538 -1.0191  0.1297
  341MOL0     C45904   7.068   8.345   8.412 -0.9087  0.1969 -0.3149
  341MOL0     C45905   7.164   8.365   8.320  0.0926  0.0386  0.4666
  341MOL0     C45906   7.295   8.398   8.358 -0.4846  0.5485 -0.3824
  341MOL0     C45907   7.331   8.405   8.487 -0.8972 -0.3596 -0.7102
  341MOL0     O45908   7.452   8.464   8.511  0.1233  0.6691  0.5762
  341MOL0     C45909   7.493   8.489   8.651 -0.4632  0.1186 -0.1459
  341MOL0     C45910   7.623   8.556   8.642  0.2877 -0.9204 -0.4006
  341MOL0     C45911   7.639   8.687   8.564 -0.0274  0.6423  0.0886
  341MOL0     C45912   7.788   8.728   8.568 -0.6865  0.4923 -0.0652
  341MOL0     C45913   7.814   8.869   8.507  0.6509 -0.1095 -0.8433
  341MOL0     C45914   7.760   8.885   8.363 -0.7644  0.4585  0.4704
  341MOL0     C45915   7.804   9.010   8.292 -0.8092 -0.4963  0.1062
  341MOL0     C45916   7.750   9.018   8.148 -0.2495 -0.5456  0.7637
  341MOL0     N45917   7.807   9.137   8.091 -0.6078  0.2995  0.1977
  341MOL0     C45918   7.935   9.151   8.034  0.3565 -0.1554 -0.6854
  341MOL0     C45919   7.945   9.282   7.995  0.3609  0.2238  0.1704
  341MOL0     C45920   8.049   9.356   7.923 -0.1660  0.1399  0.6643
  341MOL0     C45921   8.167   9.397   8.010 -0.4189  0.4501  0.3567
  341MOL0     C45922   8.287   9.439   7.913  0.4229 -0.6662 -0.0470
  341MOL0     C45923   8.427   9.402   7.962  0.2787 -0.2610  0.5350
  341MOL0     O45924   8.491   9.488   8.069 -0.2976  0.5324  0.0491
  341MOL0     C45925   8.614   9.458   8.115 -0.3246 -0.1884 -0.1504
  341MOL0     C45926   8.695   9.557   8.186  0.4943  0.5589  0.2325
  341MOL0     C45927   8.827   9.527   8.225  0.3769  0.0996 -0.2892
  341MOL0     C45928   8.877   9.397   8.226 -0.4424  1.6148  0.0874
  341MOL0     C45929   9.007   9.351   8.272 -0.6859 -0.3386 -0.1871
  341MOL0     O45930   9.087   9.458   8.312 -0.2103  0.0315 -0.0931
  341MOL0     C45931   9.223   9.435   8.352  0.8264  0.2935  0.3496
  341MOL0     C45932   9.321   9.524   8.307  0.1573  0.2287  0.5533
  341MOL0     C45933   9.456   9.510   8.334  0.0757 -0.6988  1.0588
  341MOL0     C45934   9.503   9.402   8.407  0.0872 -0.8044  0.1690
  341MOL0     O45935   9.640   9.373   8.418 -0.6135  0.0924 -0.4969
  341MOL0     C45936   9.736   9.465   8.359  0.2709 -0.2129  0.2471
  341MOL0     C45937   9.876   9.417   8.384 -0.3743  0.2980  0.6772
  341MOL0     C45938   9.989   9.517   8.367 -0.2077 -0.1670  0.1926
  341MOL0     C45939  10.119   9.441   8.349  0.8857  0.2363 -0.4117
  341MOL0     C45940  10.242   9.539   8.351  0.1330 -0.3630 -0.5682
  341MOL0     C45941  10.275   9.585   8.501  0.0949  0.3241 -0.0682
  341MOL0     C45942  10.398   9.666   8.501 -0.5785  0.5468 -0.6198
  341MOL0     C45943  10.525   9.587   8.467 -0.8894  0.1600  1.2855
  341MOL0    Cl45944  10.666   9.688   8.458  0.1610 -0.1743 -0.4365
  341MOL0     C45945   9.411   9.314   8.462  0.4886 -0.0189  0.6966
  341MOL0     C45946   9.269   9.320   8.431  0.7465  0.4836 -0.2164
  341MOL0     O45947   9.046   9.237   8.253 -0.2287  0.2734 -0.2692
  341MOL0     C45948   8.795   9.299   8.153  0.8125  0.4679 -0.4954
  341MOL0     C45949   8.673   9.334   8.087 -0.1926  0.4295 -0.2921
  341MOL0     N45950   7.830   9.346   8.040  0.6647  0.1665 -0.4178
  341MOL0     N45951   7.747   9.259   8.094  0.2051  0.7532 -0.3663
  341MOL0     C45952   7.234   8.379   8.582 -0.3193 -0.3307 -0.3474
  341MOL0     C45953   7.104   8.349   8.546  0.6562  0.0345  0.7521
  341MOL0     C45954   6.759   8.150   8.356 -0.4188  0.5637 -0.4187
  341MOL0     C45955   6.661   8.104   8.451  0.1426  1.2234 -0.0139
  341MOL0     C45956   6.540   8.057   8.411  0.2914  0.5874 -0.5061
  341MOL0     C45957   6.499   8.070   8.273 -0.1976  0.2494 -0.3831
  341MOL0     O45958   6.382   8.030   8.219  0.6656 -0.6617  0.7607
  341MOL0     C45959   6.300   7.933   8.281 -0.3809 -0.4680  1.2117
  341MOL0     C45960   6.190   8.005   8.360 -0.2799 -0.4526  0.0371
  341MOL0     C45961   6.117   8.120   8.283  0.7675  0.4997  0.0647
  341MOL0     C45962   5.987   8.066   8.221  0.3005  0.4723 -0.0118
  341MOL0     C45963   5.890   8.026   8.320 -0.7606 -0.0084  0.1684
  341MOL0     C45964   5.810   8.009   8.408 -0.0851 -0.1184 -0.4377
  341MOL0     C45965   6.594   8.126   8.191 -0.5594 -1.4849  0.7543
  341MOL0     C45966   6.720   8.161   8.225 -0.1042  1.2235  0.5190
  341MOL0     C45967   6.811   8.202   8.116  0.5931 -0.0126  0.4763
  341MOL0     H45968   7.136   8.361   8.215 -1.6333  1.9788  0.7924
  341MOL0     H45969   7.376   8.414   8.288 -1.5685 -0.4306 -1.9290
  341MOL0     H45970   7.420   8.551   8.705 -2.2128 -0.3605 -1.8450
  341MOL0     H45971   7.506   8.394   8.702 -3.6399 -0.4149 -0.1181
  341MOL0     H45972   7.679   8.476   8.593  0.4446 -1.2248  0.2690
  341MOL0     H45973   7.653   8.562   8.747  1.4034 -3.6954 -0.4847
  341MOL0     H45974   7.567   8.763   8.597 -0.1348  0.7306 -0.3331
  341MOL0     H45975   7.616   8.681   8.457  2.8217  0.5864 -0.5998
  341MOL0     H45976   7.835   8.726   8.667 -0.7650 -2.1925  0.0049
  341MOL0     H45977   7.850   8.655   8.515  0.2637  0.4560  1.0770
  341MOL0     H45978   7.755   8.935   8.572  4.5263  0.7531  2.2102
  341MOL0     H45979   7.918   8.900   8.518  0.8247 -0.6715 -0.8913
  341MOL0     H45980   7.805   8.801   8.310  2.9037  1.2395  2.0708
  341MOL0     H45981   7.651   8.873   8.368 -1.1292  2.1965 -1.7685
  341MOL0     H45982   7.912   9.018   8.279 -1.0606  2.5771 -0.8943
  341MOL0     H45983   7.773   9.102   8.341 -2.1899  0.5426 -2.5390
  341MOL0     H45984   7.782   8.944   8.074 -0.4407  0.9651 -0.8796
  341MOL0     H45985   7.641   9.020   8.144 -0.2178 -0.8736 -1.7333
  341MOL0     H45986   8.012   9.076   8.025 -1.1954 -2.1927  1.7334
  341MOL0     H45987   8.094   9.290   7.848 -2.1352  0.1020 -0.5406
  341MOL0     H45988   8.013   9.443   7.868 -1.6016 -1.3356 -0.8482
  341MOL0     H45989   8.139   9.488   8.064 -3.7781 -0.5219  0.5060
  341MOL0     H45990   8.191   9.316   8.078  0.9946  1.0794  0.6472
  341MOL0     H45991   8.271   9.545   7.895 -1.0111 -0.5968  1.3686
  341MOL0     H45992   8.276   9.398   7.812  0.0835 -1.3445  0.2536
  341MOL0     H45993   8.488   9.412   7.871 -0.4794 -1.1692 -0.0874
  341MOL0     H45994   8.420   9.297   7.992 -1.8655 -0.9803 -2.1240
  341MOL0     H45995   8.644   9.652   8.194 -1.7426 -0.7416  3.3664
  341MOL0     H45996   8.892   9.590   8.285  1.2198 -2.6520  1.8486
  341MOL0     H45997   9.301   9.604   8.236 -0.5539  0.4937  1.0469
  341MOL0     H45998   9.517   9.595   8.304 -0.5944 -0.7948 -0.6586
  341MOL0     H45999   9.722   9.467   8.251  0.7797 -1.3545  0.1486
  341MOL0     H46000   9.726   9.563   8.407  0.4297 -1.6526  3.4751
  341MOL0     H46001   9.889   9.387   8.488  3.7144  2.1185  0.8539
  341MOL0     H46002   9.898   9.335   8.314 -1.3182  1.4964 -1.1134
  341MOL0     H46003   9.981   9.586   8.283  1.9979  0.4046  0.3957
  341MOL0     H46004   9.984   9.584   8.453  2.0754  0.1759  0.1242
  341MOL0     H46005  10.116   9.406   8.245  0.4884 -0.4383 -0.1777
  341MOL0     H46006  10.137   9.352   8.410 -0.9229  0.2378  0.1940
  341MOL0     H46007  10.232   9.632   8.295  1.8958 -0.3647 -0.9498
  341MOL0     H46008  10.324   9.482   8.305  0.9552  2.7390 -3.3301
  341MOL0     H46009  10.198   9.647   8.547  0.6720 -0.8781  2.7286
  341MOL0     H46010  10.280   9.496   8.564  0.4045 -0.1938 -0.8058
  341MOL0     H46011  10.418   9.715   8.597  0.6240  0.7462 -0.9559
  341MOL0     H46012  10.395   9.745   8.425  2.3954  1.0693 -0.3250
  341MOL0     H46013  10.527   9.506   8.540 -1.8891 -0.7591  0.3289
  341MOL0     H46014  10.518   9.544   8.367 -0.8718 -1.2500  1.8688
  341MOL0     H46015   9.454   9.223   8.502 -0.3809 -1.4467 -1.3934
  341MOL0     H46016   9.200   9.243   8.463  3.2648 -2.5636 -1.6791
  341MOL0     H46017   8.847   9.207   8.127  2.2611  1.5063 -1.4004
  341MOL0     H46018   8.640   9.259   8.016 -1.0244 -0.3904  0.9237
  341MOL0     H46019   7.262   8.395   8.686 -6.2741  2.1006  1.3533
  341MOL0     H46020   7.024   8.332   8.618 -1.5598  2.1254 -1.0540
  341MOL0     H46021   6.682   8.121   8.556 -0.5426 -0.0478  0.3555
  341MOL0     H46022   6.469   8.021   8.485 -0.9827  0.7291 -1.6285
  341MOL0     H46023   6.354   7.854   8.335 -1.8532 -3.0985 -0.9036
  341MOL0     H46024   6.238   7.890   8.201  2.3717 -1.2209 -0.6893
  341MOL0     H46025   6.244   8.030   8.452  0.4485  0.6223 -0.6664
  341MOL0     H46026   6.107   7.940   8.389  0.0337 -1.0483 -0.3993
  341MOL0     H46027   6.184   8.155   8.203 -0.0929 -0.6685 -1.2154
  341MOL0     H46028   6.104   8.209   8.345  0.9364  0.2382  0.4791
  341MOL0     H46029   5.938   8.143   8.161 -0.7834  1.7995  2.4411
  341MOL0     H46030   5.995   7.979   8.155 -0.4231 -0.6540  1.3281
  341MOL0     H46031   5.737   7.991   8.485 -0.2870 -2.0480 -1.0207
  341MOL0     H46032   6.560   8.143   8.089  0.3004  3.1366  1.0387
  341MOL0     H46033   6.763   8.251   8.031  0.4076 -0.3846  0.3655
  341MOL0     H46034   6.894   8.264   8.151 -0.1162  0.4894  1.3273
  341MOL0     H46035   6.848   8.107   8.078 -0.3420 -0.5516  0.8707
  342MOL0     O46036   1.371   5.224   5.234 -0.1361  0.5112  0.2743
  342MOL0     C46037   1.352   5.334   5.286  0.5830 -0.3632  1.0203
  342MOL0     O46038   1.441   5.438   5.289  0.3168 -0.8347  0.4610
  342MOL0     C46039   1.579   5.412   5.259  0.7474 -1.2196 -0.2735
  342MOL0     C46040   1.646   5.514   5.189 -0.7929  0.3567 -0.1936
  342MOL0     C46041   1.789   5.492   5.170  0.1723 -0.3208  0.0912
  342MOL0     C46042   1.855   5.370   5.204 -0.7192  1.1882 -0.6234
  342MOL0     O46043   1.993   5.365   5.191 -0.0742  0.6052  0.2306
  342MOL0     C46044   2.056   5.240   5.213 -0.4029 -0.5159  0.1051
  342MOL0     C46045   2.206   5.262   5.200  0.6962 -0.2819 -0.0185
  342MOL0     C46046   2.277   5.124   5.207  0.5070  0.4346  0.4917
  342MOL0     C46047   2.404   5.118   5.107  0.7474 -0.6739 -0.0202
  342MOL0     C46048   2.512   5.238   5.125 -0.1900 -0.4867 -0.0354
  342MOL0     C46049   2.576   5.236   5.265 -0.1159 -0.2985  0.4635
  342MOL0     C46050   2.723   5.274   5.255  0.3090  0.5366 -1.0876
  342MOL0     C46051   2.784   5.232   5.387 -0.5745  0.1900 -0.0075
  342MOL0     N46052   2.926   5.286   5.392  0.0187 -0.0005  0.4854
  342MOL0     C46053   2.973   5.405   5.443  0.5547  0.9220  1.0295
  342MOL0     C46054   3.098   5.407   5.407  0.4056  0.0458 -0.7866
  342MOL0     C46055   3.185   5.519   5.462 -0.1071 -0.1526  0.2795
  342MOL0     C46056   3.333   5.493   5.420 -0.5925 -0.2615 -0.5781
  342MOL0     C46057   3.420   5.599   5.495  0.8999 -0.8983 -0.0760
  342MOL0     C46058   3.562   5.591   5.434  0.8219 -0.0323  0.5385
  342MOL0     O46059   3.637   5.702   5.492 -0.2022 -0.3047 -0.4163
  342MOL0     C46060   3.776   5.694   5.467  0.0538 -0.0030 -0.2754
  342MOL0     C46061   3.846   5.794   5.525 -0.3658 -0.2636  0.2351
  342MOL0     C46062   3.990   5.795   5.531 -0.2626  0.7373 -0.2139
  342MOL0     C46063   4.057   5.689   5.485 -0.3523 -0.5673 -0.3388
  342MOL0     C46064   4.205   5.693   5.494 -0.8353  1.1437 -0.4656
  342MOL0     O46065   4.265   5.583   5.451  0.1812  0.3425  0.3702
  342MOL0     C46066   4.404   5.583   5.451  0.1242 -0.5021  0.0762
  342MOL0     C46067   4.480   5.598   5.333  0.2520  0.4583  0.3471
  342MOL0     C46068   4.615   5.598   5.328 -0.7059  0.2728  0.4517
  342MOL0     C46069   4.689   5.582   5.447  0.0258 -0.3800  0.4332
  342MOL0     O46070   4.826   5.584   5.440 -0.2535 -0.1283 -0.3214
  342MOL0     C46071   4.883   5.480   5.521  0.5861  0.1743  0.6105
  342MOL0     C46072   5.046   5.473   5.497  0.1004 -0.1202  0.4130
  342MOL0     C46073   5.131   5.597   5.530 -0.3839 -0.8262 -0.3015
  342MOL0     C46074   5.278   5.566   5.503  0.2228  0.2364 -0.5315
  342MOL0     C46075   5.363   5.692   5.535 -0.5197 -0.3162  0.7811
  342MOL0     C46076   5.512   5.668   5.503 -0.1687  0.1237 -0.4043
  342MOL0     C46077   5.567   5.537   5.545 -0.6430 -0.9502  0.3083
  342MOL0     C46078   5.707   5.514   5.481 -0.6543 -0.0867 -0.0111
  342MOL0    Cl46079   5.834   5.619   5.545 -0.2498 -0.8355 -0.3281
  342MOL0     C46080   4.612   5.566   5.568  0.9147 -0.1156  0.1607
  342MOL0     C46081   4.476   5.557   5.568  0.6964 -0.3614 -0.7556
  342MOL0     O46082   4.263   5.798   5.512  0.4427 -0.0762  1.1476
  342MOL0     C46083   3.989   5.590   5.416  1.2116  1.4073 -1.2167
  342MOL0     C46084   3.849   5.593   5.404 -0.1879  0.0038 -1.0120
  342MOL0     N46085   3.137   5.293   5.345  0.1040  0.1664  0.9137
  342MOL0     N46086   3.027   5.224   5.331 -0.2056  0.2121  0.1612
  342MOL0     C46087   1.775   5.273   5.271  0.1767 -0.4906 -0.0924
  342MOL0     C46088   1.640   5.294   5.292 -0.1242  1.2490 -0.4918
  342MOL0     C46089   1.213   5.375   5.337 -0.3408  0.6303 -0.8854
  342MOL0     C46090   1.199   5.508   5.380 -0.1806  0.5230  0.4202
  342MOL0     C46091   1.073   5.550   5.427 -0.1304 -0.3811  0.2548
  342MOL0     C46092   0.965   5.467   5.437  0.2353  0.3736 -0.2683
  342MOL0     O46093   0.841   5.524   5.471 -0.1267 -0.7603 -0.3082
  342MOL0     C46094   0.735   5.452   5.531 -0.2610  0.3703  0.3559
  342MOL0     C46095   0.782   5.423   5.662 -0.4689 -0.8482  0.0706
  342MOL0     C46096   0.754   5.537   5.764  0.2319  0.2347  0.7312
  342MOL0     C46097   0.880   5.585   5.836  0.6644 -0.6778  1.1695
  342MOL0     C46098   0.924   5.485   5.936  0.1483  1.1901  0.5929
  342MOL0     C46099   0.956   5.393   6.008  1.6606  0.3237 -0.3325
  342MOL0     C46100   0.981   5.333   5.403 -0.1494 -0.9734  0.3595
  342MOL0     C46101   1.105   5.285   5.352 -0.2355 -1.1392  0.2908
  342MOL0     C46102   1.105   5.133   5.324  0.2556  0.9391  0.1271
  342MOL0     H46103   1.607   5.606   5.146 -1.7315  0.9045  1.7316
  342MOL0     H46104   1.852   5.574   5.136  0.1914  0.0901  1.0704
  342MOL0     H46105   2.037   5.205   5.315  1.6795 -1.7610  0.1249
  342MOL0     H46106   2.017   5.166   5.143  0.9839  0.3729 -1.6863
  342MOL0     H46107   2.247   5.327   5.277  1.8724 -2.3545  1.2104
  342MOL0     H46108   2.223   5.311   5.104  2.9628  0.8607  0.8962
  342MOL0     H46109   2.207   5.044   5.179 -0.1310  0.6531  1.4535
  342MOL0     H46110   2.297   5.123   5.314  0.8178  2.9726  0.5087
  342MOL0     H46111   2.454   5.025   5.134 -0.8468 -2.1662 -1.9002
  342MOL0     H46112   2.372   5.111   5.002  0.6654  0.7808 -0.1171
  342MOL0     H46113   2.586   5.242   5.044 -2.1776 -1.3046 -1.9762
  342MOL0     H46114   2.459   5.333   5.111  0.1202  0.0553  2.0845
  342MOL0     H46115   2.516   5.300   5.330 -0.9170 -0.5206 -0.0502
  342MOL0     H46116   2.567   5.134   5.304 -1.0707 -1.4731 -2.5858
  342MOL0     H46117   2.744   5.380   5.239  2.1365  0.6465  1.4234
  342MOL0     H46118   2.768   5.216   5.174  1.6348  1.8131 -1.3147
  342MOL0     H46119   2.739   5.290   5.468 -0.3434  2.7113 -1.5726
  342MOL0     H46120   2.766   5.127   5.412 -0.4379  0.5096  1.4952
  342MOL0     H46121   2.905   5.473   5.493 -0.5814  0.2051  0.4988
  342MOL0     H46122   3.150   5.613   5.421  0.8774 -0.1696 -0.6427
  342MOL0     H46123   3.179   5.513   5.571  0.6385  0.7610  0.3875
  342MOL0     H46124   3.371   5.394   5.447  0.0039 -0.7219 -2.8793
  342MOL0     H46125   3.342   5.505   5.312  0.4056  1.5978 -0.3255
  342MOL0     H46126   3.422   5.594   5.604 -0.2135  2.6887  0.2343
  342MOL0     H46127   3.374   5.694   5.468 -0.0612 -0.4975  2.6981
  342MOL0     H46128   3.562   5.607   5.326 -1.0401  1.6882  0.7348
  342MOL0     H46129   3.592   5.491   5.465 -2.6641 -0.6316  2.4636
  342MOL0     H46130   3.792   5.880   5.564 -0.0024 -0.2490  0.7113
  342MOL0     H46131   4.037   5.886   5.567 -0.0978  0.2682  0.7713
  342MOL0     H46132   4.424   5.618   5.242 -1.8455 -0.8755  1.2783
  342MOL0     H46133   4.667   5.595   5.233 -0.9194 -2.2870  0.3350
  342MOL0     H46134   4.857   5.495   5.626 -1.0351 -0.9781  0.4046
  342MOL0     H46135   4.849   5.380   5.491  0.5595  0.5950 -0.8802
  342MOL0     H46136   5.084   5.403   5.572 -1.7447  0.0795  1.6043
  342MOL0     H46137   5.072   5.435   5.398  4.4418  2.4469  0.3020
  342MOL0     H46138   5.086   5.683   5.480 -2.8410  0.4572  3.6676
  342MOL0     H46139   5.128   5.623   5.636 -1.9190 -0.6623 -0.3609
  342MOL0     H46140   5.291   5.538   5.398 -2.8583  0.3138 -1.0284
  342MOL0     H46141   5.307   5.484   5.569 -0.7103  1.5485  1.5957
  342MOL0     H46142   5.348   5.712   5.642  0.4068  0.5992  0.7549
  342MOL0     H46143   5.344   5.784   5.479  4.8155  0.4390 -0.3763
  342MOL0     H46144   5.524   5.682   5.395 -5.5475  0.7854 -1.2194
  342MOL0     H46145   5.574   5.744   5.551 -1.3875  0.9359 -0.0566
  342MOL0     H46146   5.504   5.454   5.513 -0.8542 -0.3653 -0.8423
  342MOL0     H46147   5.583   5.533   5.653  2.3579  1.5544  0.1088
  342MOL0     H46148   5.740   5.413   5.507 -1.1811 -0.4502 -0.7133
  342MOL0     H46149   5.703   5.523   5.372  0.1087  1.2313  0.0510
  342MOL0     H46150   4.652   5.563   5.669  0.1839  1.6634  0.5545
  342MOL0     H46151   4.416   5.544   5.658  3.0536 -1.0716  0.7826
  342MOL0     H46152   4.048   5.510   5.375 -0.6431 -2.7283  3.2655
  342MOL0     H46153   3.790   5.515   5.358 -0.3108  0.5915 -1.8670
  342MOL0     H46154   1.813   5.186   5.325 -3.3716 -0.7304  2.3617
  342MOL0     H46155   1.596   5.214   5.352  0.4111  1.4140  0.1374
  342MOL0     H46156   1.284   5.574   5.379  1.1485 -1.1193  0.4151
  342MOL0     H46157   1.064   5.657   5.443 -2.4491 -0.3489 -0.8805
  342MOL0     H46158   0.706   5.359   5.481  0.4217 -1.0272  2.4425
  342MOL0     H46159   0.648   5.518   5.544 -1.0216 -0.5697  0.1031
  342MOL0     H46160   0.889   5.404   5.674  0.0979  1.3713 -0.8828
  342MOL0     H46161   0.732   5.333   5.700  1.3861 -1.5596  0.9073
  342MOL0     H46162   0.676   5.495   5.828 -1.0645  0.1792 -0.8267
  342MOL0     H46163   0.725   5.629   5.713  0.0437 -0.1001  0.2349
  342MOL0     H46164   0.954   5.608   5.758 -0.2759 -3.7847 -0.8633
  342MOL0     H46165   0.849   5.682   5.876 -0.0879 -0.1525 -0.5801
  342MOL0     H46166   0.973   5.307   6.069 -0.6428 -0.0180 -0.0604
  342MOL0     H46167   0.890   5.275   5.410 -0.7202  0.0056  1.5020
  342MOL0     H46168   1.000   5.102   5.333  0.0746  1.4210 -0.2241
  342MOL0     H46169   1.119   5.108   5.219 -1.4071  0.2732  0.0337
  342MOL0     H46170   1.177   5.082   5.389  1.3783  1.7211 -0.4713
  343MOL0     O46171   3.051   2.132   1.167  0.1241 -0.4179 -0.7192
  343MOL0     C46172   3.084   2.117   1.051  0.0347 -0.2444 -0.1943
  343MOL0     O46173   3.204   2.085   1.016 -0.2878  0.1746 -0.0874
  343MOL0     C46174   3.310   2.034   1.094  0.9919  0.1689 -0.6311
  343MOL0     C46175   3.287   1.975   1.223 -0.4198  0.3983  0.0788
  343MOL0     C46176   3.391   1.912   1.287 -0.2214 -0.6980 -0.3930
  343MOL0     C46177   3.524   1.931   1.254  0.4815  0.2105 -0.3047
  343MOL0     O46178   3.630   1.879   1.337  0.4487  0.8550  0.9212
  343MOL0     C46179   3.600   1.753   1.395  0.2907  0.2752 -0.5006
  343MOL0     C46180   3.714   1.706   1.491 -0.9242  1.2324  0.0197
  343MOL0     C46181   3.812   1.613   1.410 -0.1743 -0.0499  0.2819
  343MOL0     C46182   3.946   1.584   1.480 -0.1072  0.3548 -0.9931
  343MOL0     C46183   4.047   1.702   1.487 -0.7738  1.6665 -0.0819
  343MOL0     C46184   4.170   1.634   1.561 -0.5590  0.2001  0.1356
  343MOL0     C46185   4.276   1.737   1.620  0.4166 -0.6110  0.4952
  343MOL0     C46186   4.381   1.669   1.715 -0.5421 -0.3272  0.4731
  343MOL0     N46187   4.486   1.608   1.635 -0.7171  0.0515 -0.8096
  343MOL0     C46188   4.619   1.648   1.651 -0.2501  0.4873  0.5874
  343MOL0     C46189   4.684   1.539   1.598 -0.0275 -0.1337  0.3132
  343MOL0     C46190   4.828   1.521   1.593 -0.0791 -0.1413 -0.3779
  343MOL0     C46191   4.900   1.517   1.735  0.3965 -0.3876  0.9877
  343MOL0     C46192   5.046   1.500   1.708  0.1349  0.5463  0.4934
  343MOL0     C46193   5.137   1.534   1.819  0.2495 -1.2841  0.4979
  343MOL0     O46194   5.138   1.430   1.914  0.6253  0.3128  0.3709
  343MOL0     C46195   5.228   1.434   2.013 -0.7181 -0.2269 -0.4317
  343MOL0     C46196   5.297   1.556   2.040  1.1271 -0.0930 -0.0527
  343MOL0     C46197   5.395   1.547   2.143 -0.4620 -0.7954  0.2039
  343MOL0     C46198   5.430   1.433   2.212  0.2206 -0.1778  0.0905
  343MOL0     C46199   5.547   1.438   2.301  0.3995 -0.6250 -1.0247
  343MOL0     O46200   5.600   1.567   2.330  0.4308 -0.2141  0.4920
  343MOL0     C46201   5.685   1.576   2.442  0.2874  0.1848 -0.3855
  343MOL0     C46202   5.642   1.645   2.554 -0.8114 -0.3681  0.2229
  343MOL0     C46203   5.726   1.672   2.653 -0.1319 -0.1209  0.2663
  343MOL0     C46204   5.855   1.637   2.659  0.4291  0.1996 -0.0814
  343MOL0     O46205   5.930   1.678   2.760 -0.5924 -0.0186 -0.1997
  343MOL0     C46206   6.066   1.641   2.777  0.1687 -0.1119  0.3430
  343MOL0     C46207   6.109   1.685   2.919  0.3379 -0.0926  0.5335
  343MOL0     C46208   6.046   1.617   3.042  0.9104 -0.0589 -0.3447
  343MOL0     C46209   6.055   1.465   3.019 -0.4754  0.2135 -0.1895
  343MOL0     C46210   5.973   1.380   3.119  1.0105 -0.2271  0.5309
  343MOL0     C46211   5.965   1.229   3.098  0.1085 -0.2627  0.0957
  343MOL0     C46212   6.108   1.163   3.107  0.1380 -0.6939  0.2944
  343MOL0     C46213   6.088   1.023   3.155  1.5377  0.3526 -0.2176
  343MOL0    Cl46214   6.242   0.947   3.202  0.3693  0.2438 -0.3556
  343MOL0     C46215   5.900   1.558   2.544  0.1659  0.2596 -0.6261
  343MOL0     C46216   5.815   1.526   2.435  0.7153  0.3711  0.1795
  343MOL0     O46217   5.585   1.340   2.356 -0.1066 -0.3557  0.0640
  343MOL0     C46218   5.358   1.316   2.185  0.0079 -0.5107 -0.7844
  343MOL0     C46219   5.258   1.321   2.088  0.0731  0.8448  1.4006
  343MOL0     N46220   4.596   1.453   1.539  0.2097  0.0004 -0.0493
  343MOL0     N46221   4.474   1.490   1.565 -0.2526 -0.0470 -0.0193
  343MOL0     C46222   3.545   1.994   1.129  0.0895 -0.2960  0.4981
  343MOL0     C46223   3.443   2.033   1.049  0.7717  0.1892 -0.1179
  343MOL0     C46224   2.984   2.153   0.946  0.5757 -0.1856  0.2356
  343MOL0     C46225   2.877   2.242   0.990 -0.0633  0.1175 -0.0316
  343MOL0     C46226   2.804   2.308   0.891  0.4851  0.3557 -0.0417
  343MOL0     C46227   2.810   2.274   0.754  0.3608 -0.5208  0.1127
  343MOL0     O46228   2.730   2.345   0.670  0.0803  0.3241 -0.2378
  343MOL0     C46229   2.666   2.474   0.693  0.3113  0.2111 -0.4107
  343MOL0     C46230   2.663   2.559   0.560  1.2502 -0.2442 -0.5498
  343MOL0     C46231   2.591   2.698   0.580 -0.1762  0.3312 -1.2989
  343MOL0     C46232   2.446   2.717   0.539  0.9789  0.2587 -0.6882
  343MOL0     C46233   2.358   2.600   0.555 -0.5396  1.4147  0.0239
  343MOL0     C46234   2.285   2.506   0.583 -0.3689  0.3168 -0.6780
  343MOL0     C46235   2.900   2.184   0.714 -0.1298 -0.3941  1.0941
  343MOL0     C46236   2.993   2.128   0.808 -0.2552  0.7690 -0.3450
  343MOL0     C46237   3.094   2.028   0.750  0.3527  0.3546  0.1022
  343MOL0     H46238   3.191   1.977   1.275 -0.5085  2.3695 -0.0858
  343MOL0     H46239   3.352   1.870   1.378 -2.4824  1.6619 -0.1599
  343MOL0     H46240   3.512   1.748   1.460  0.3687  0.5605 -0.3728
  343MOL0     H46241   3.587   1.686   1.309 -1.7104 -0.1618  0.0971
  343MOL0     H46242   3.679   1.639   1.570  1.1103 -1.5896 -1.3079
  343MOL0     H46243   3.756   1.794   1.541 -1.3817 -0.1577  3.0380
  343MOL0     H46244   3.820   1.661   1.312  0.1940  2.8002  1.6273
  343MOL0     H46245   3.770   1.513   1.398  3.3289 -1.4338 -2.4702
  343MOL0     H46246   3.912   1.547   1.578 -1.6263 -1.0238 -1.9921
  343MOL0     H46247   3.983   1.494   1.431  0.7027  0.5457 -0.7542
  343MOL0     H46248   4.074   1.743   1.389  2.6527  1.6042  0.7038
  343MOL0     H46249   4.010   1.782   1.552  1.0393  0.1029  3.0706
  343MOL0     H46250   4.136   1.574   1.646 -1.5627  2.2710  1.2760
  343MOL0     H46251   4.216   1.573   1.483 -0.0006  2.5531 -1.4701
  343MOL0     H46252   4.222   1.807   1.685 -2.2574 -1.8308 -0.2829
  343MOL0     H46253   4.324   1.789   1.537  0.0118  2.2611  1.9044
  343MOL0     H46254   4.415   1.748   1.783  1.5997 -0.3393 -0.5176
  343MOL0     H46255   4.338   1.596   1.784 -0.8324  0.5836  1.2875
  343MOL0     H46256   4.666   1.734   1.698 -0.6833  0.2404  1.5079
  343MOL0     H46257   4.841   1.416   1.565 -1.0328 -0.2045 -0.6096
  343MOL0     H46258   4.880   1.591   1.527  1.6149  0.1260  1.1524
  343MOL0     H46259   4.894   1.620   1.773  2.5634 -0.2241  0.9715
  343MOL0     H46260   4.851   1.438   1.793  1.2519 -1.0701  0.7930
  343MOL0     H46261   5.080   1.559   1.622  0.3381  1.0686  0.9303
  343MOL0     H46262   5.062   1.396   1.679  1.3667  1.3842 -2.2041
  343MOL0     H46263   5.104   1.631   1.856  0.2531  0.1470 -2.8974
  343MOL0     H46264   5.238   1.545   1.779 -0.6879  1.6218 -1.3344
  343MOL0     H46265   5.288   1.650   1.986  0.5866 -0.9006 -1.4313
  343MOL0     H46266   5.456   1.633   2.167 -0.0305 -0.8159 -0.7893
  343MOL0     H46267   5.543   1.688   2.559 -1.4555 -1.5065 -1.6383
  343MOL0     H46268   5.695   1.732   2.739 -1.8758  0.1702 -0.5287
  343MOL0     H46269   6.083   1.536   2.750 -0.1837 -0.2128  0.5021
  343MOL0     H46270   6.122   1.698   2.704  0.1490 -0.2266  0.2372
  343MOL0     H46271   6.218   1.677   2.917  0.3416  0.1335 -0.3947
  343MOL0     H46272   6.092   1.792   2.934 -2.9015 -0.2160 -1.4623
  343MOL0     H46273   6.103   1.635   3.134 -0.4778 -2.5401  1.1167
  343MOL0     H46274   5.941   1.637   3.064  0.5365  1.6310 -3.1445
  343MOL0     H46275   6.159   1.431   3.027 -0.0291  1.6232  0.5145
  343MOL0     H46276   6.022   1.446   2.917 -1.3241 -0.2684  0.1629
  343MOL0     H46277   5.868   1.413   3.118  0.3233 -2.2755 -0.9600
  343MOL0     H46278   6.011   1.398   3.220  0.1168  1.0467  0.6646
  343MOL0     H46279   5.906   1.191   3.182 -2.2251 -0.9482 -1.7367
  343MOL0     H46280   5.905   1.201   3.011 -0.2855 -0.2709  0.3644
  343MOL0     H46281   6.170   1.217   3.179  0.4335 -2.4401  1.4405
  343MOL0     H46282   6.171   1.170   3.018 -3.1238 -1.5523 -2.2781
  343MOL0     H46283   6.010   1.017   3.232  1.3908  0.2671 -0.3730
  343MOL0     H46284   6.041   0.969   3.072  0.5528  0.1570  0.4468
  343MOL0     H46285   6.006   1.537   2.548  0.7283  2.8696  1.2902
  343MOL0     H46286   5.842   1.469   2.347 -3.3783  0.7385 -1.5539
  343MOL0     H46287   5.386   1.220   2.228  3.3968 -0.3337 -2.2818
  343MOL0     H46288   5.201   1.231   2.073 -0.3754  1.1493  1.2571
  343MOL0     H46289   3.644   2.033   1.108  0.2023 -1.8498 -2.3783
  343MOL0     H46290   3.471   2.086   0.959  0.3847 -1.6484 -1.3762
  343MOL0     H46291   2.863   2.277   1.092  4.8052  1.1417  0.5598
  343MOL0     H46292   2.746   2.394   0.923  1.3667 -0.0290  2.8429
  343MOL0     H46293   2.731   2.516   0.769  1.6583 -3.6777  0.8411
  343MOL0     H46294   2.567   2.458   0.737  0.0709  3.0877  0.2391
  343MOL0     H46295   2.597   2.506   0.491 -2.3282 -0.3344  2.5727
  343MOL0     H46296   2.763   2.572   0.519  0.5685  1.8021 -1.7080
  343MOL0     H46297   2.668   2.765   0.543  4.6581 -1.7957  3.4677
  343MOL0     H46298   2.587   2.710   0.689 -3.0955 -2.0823 -0.9951
  343MOL0     H46299   2.392   2.786   0.605  0.0940 -1.0216 -0.0313
  343MOL0     H46300   2.433   2.752   0.437 -0.6380  1.5753 -0.0788
  343MOL0     H46301   2.211   2.437   0.620 -0.7463  1.7731  1.4873
  343MOL0     H46302   2.907   2.148   0.612 -1.6010 -1.3150  1.2987
  343MOL0     H46303   3.193   2.074   0.744  0.7619 -0.2776  1.4209
  343MOL0     H46304   3.092   1.938   0.813 -4.2902  0.3887  0.3376
  343MOL0     H46305   3.065   1.994   0.650 -0.4598  2.0836 -0.2701
  344MOL0     O46306   9.765   5.084   7.722  0.5428 -0.5105 -0.4267
  344MOL0     C46307   9.736   4.993   7.649 -0.5359  0.2613 -0.8008
  344MOL0     O46308   9.816   4.926   7.571 -0.0391 -0.3340  0.9976
  344MOL0     C46309   9.952   4.964   7.567  0.0788 -0.8244 -0.2958
  344MOL0     C46310  10.045   4.927   7.664 -0.0844 -0.2311 -0.7032
  344MOL0     C46311  10.176   4.984   7.658 -0.0221  0.2706  0.8729
  344MOL0     C46312  10.216   5.066   7.552 -0.6056 -0.6967  0.1853
  344MOL0     O46313  10.345   5.106   7.538 -0.3837  0.6807  0.6172
  344MOL0     C46314  10.432   5.125   7.654  0.3810 -0.2571  0.1404
  344MOL0     C46315  10.555   5.196   7.606 -0.4438 -0.6518 -0.1918
  344MOL0     C46316  10.667   5.192   7.709  0.2483 -0.6550 -0.4845
  344MOL0     C46317  10.740   5.058   7.705 -0.5429  0.0949  1.2746
  344MOL0     C46318  10.868   5.042   7.790 -0.6127 -0.2685 -0.0451
  344MOL0     C46319  10.967   5.157   7.769  0.4334 -0.0081 -0.4475
  344MOL0     C46320  11.100   5.110   7.824 -0.1233 -0.2100  0.9030
  344MOL0     C46321  11.189   5.032   7.726 -0.3007  0.9374 -0.3879
  344MOL0     N46322  11.330   5.081   7.741  0.9282  0.2018  0.9319
  344MOL0     C46323  11.397   5.170   7.658 -0.4822 -0.7115 -0.1912
  344MOL0     C46324  11.510   5.206   7.724 -0.0386  0.4558  0.5338
  344MOL0     C46325  11.601   5.294   7.665 -0.1137  0.2954  0.4666
  344MOL0     C46326  11.645   5.249   7.525 -0.4050 -0.0391  0.4385
  344MOL0     C46327  11.706   5.101   7.524 -0.4726  0.5675  0.1219
  344MOL0     C46328  11.837   5.065   7.594 -0.3397  0.5865  0.5656
  344MOL0     O46329  11.938   5.108   7.508 -0.2659 -0.5823 -0.6537
  344MOL0     C46330  12.069   5.063   7.532  0.3241 -0.2669 -0.4422
  344MOL0     C46331  12.162   5.077   7.430 -0.2255 -0.5212 -0.2892
  344MOL0     C46332  12.294   5.040   7.443  0.3651  0.2919 -0.4081
  344MOL0     C46333  12.332   4.963   7.552 -0.1794 -0.4332 -1.0656
  344MOL0     C46334  12.466   4.903   7.563 -0.2600  0.7040 -0.2656
  344MOL0     O46335  12.494   4.800   7.659  0.6241  0.2207  0.1401
  344MOL0     C46336  12.620   4.756   7.669 -0.4271 -0.6978  0.2820
  344MOL0     C46337  12.685   4.706   7.557  0.7889 -1.0684  0.1627
  344MOL0     C46338  12.804   4.646   7.567 -0.6326 -0.2966  0.2966
  344MOL0     C46339  12.866   4.619   7.693 -0.6376 -0.2344  0.2890
  344MOL0     O46340  12.984   4.542   7.702  0.3160 -0.1428  0.5288
  344MOL0     C46341  13.041   4.520   7.829  0.2120  0.3923  0.4771
  344MOL0     C46342  13.136   4.403   7.815  0.4021 -0.5226 -0.0590
  344MOL0     C46343  13.200   4.367   7.953 -0.5237 -0.2355 -0.1897
  344MOL0     C46344  13.278   4.234   7.938 -1.0529  0.5046  1.0241
  344MOL0     C46345  13.387   4.214   8.042 -0.0060 -0.2539  0.1249
  344MOL0     C46346  13.461   4.082   8.011 -0.0895 -0.1072  0.1747
  344MOL0     C46347  13.613   4.072   8.037  1.2174 -0.2416 -0.4722
  344MOL0     C46348  13.661   3.948   7.973 -0.0362  0.0542 -0.0617
  344MOL0    Cl46349  13.600   3.813   8.064 -0.4420  0.1722 -0.0023
  344MOL0     C46350  12.800   4.674   7.809  0.1566  1.3869 -0.5636
  344MOL0     C46351  12.684   4.749   7.791 -0.2239  0.7148 -0.3528
  344MOL0     O46352  12.550   4.951   7.487 -0.8298  0.3602  0.6060
  344MOL0     C46353  12.238   4.948   7.660 -1.2416 -0.1728  0.4674
  344MOL0     C46354  12.110   4.999   7.652 -0.2606  0.0946 -0.8509
  344MOL0     N46355  11.521   5.125   7.829  0.4369 -0.7680  0.2867
  344MOL0     N46356  11.413   5.061   7.848  0.5026 -0.1176  0.7287
  344MOL0     C46357  10.125   5.100   7.458  0.6531 -0.5851  1.0219
  344MOL0     C46358   9.987   5.064   7.474  0.1198  0.0839  0.5618
  344MOL0     C46359   9.588   4.957   7.630 -0.7425 -0.3497 -0.2862
  344MOL0     C46360   9.553   4.875   7.523  0.6021  0.1028  0.2399
  344MOL0     C46361   9.419   4.843   7.488 -1.1791  0.3854 -0.1447
  344MOL0     C46362   9.312   4.896   7.555 -0.7075  1.2408 -0.5291
  344MOL0     O46363   9.176   4.864   7.534  0.2100 -0.3330 -0.1754
  344MOL0     C46364   9.081   4.957   7.594  0.3784 -0.5197  0.2135
  344MOL0     C46365   8.937   4.939   7.549  0.3653 -0.7206  1.3380
  344MOL0     C46366   8.916   4.998   7.407  0.4244 -0.0400 -0.3158
  344MOL0     C46367   8.775   4.984   7.362  0.0969 -0.7551 -0.1828
  344MOL0     C46368   8.741   4.848   7.331  0.5624  0.2614 -0.1576
  344MOL0     C46369   8.703   4.738   7.297  0.8696  0.0043  0.4847
  344MOL0     C46370   9.346   4.972   7.674  0.0867 -0.6247  0.3847
  344MOL0     C46371   9.479   5.002   7.713  0.2066 -0.3474  0.6717
  344MOL0     C46372   9.498   5.095   7.830  0.1701 -0.6912  0.1103
  344MOL0     H46373  10.018   4.858   7.743  0.5668  2.0850  1.7043
  344MOL0     H46374  10.240   4.958   7.742  1.1097  0.6669  0.1528
  344MOL0     H46375  10.367   5.170   7.730 -2.1444 -2.9184 -0.2692
  344MOL0     H46376  10.454   5.026   7.695  3.5779 -0.3953 -1.6065
  344MOL0     H46377  10.533   5.301   7.586  1.3465 -0.2008  0.0097
  344MOL0     H46378  10.588   5.158   7.509 -1.4410 -0.1032 -0.7597
  344MOL0     H46379  10.622   5.227   7.803 -0.5484  1.4617 -1.5709
  344MOL0     H46380  10.735   5.276   7.690 -0.8254  0.1331 -0.9735
  344MOL0     H46381  10.666   4.992   7.752 -2.0823  1.5689  1.0279
  344MOL0     H46382  10.757   5.018   7.605 -1.8734 -0.7267  1.3479
  344MOL0     H46383  10.842   5.033   7.896  0.8716 -3.6419  0.1556
  344MOL0     H46384  10.906   4.945   7.757 -1.6123  0.2480 -3.0831
  344MOL0     H46385  10.985   5.185   7.665  0.2711  3.6260  0.3814
  344MOL0     H46386  10.948   5.247   7.827  2.8199  0.3768 -0.1432
  344MOL0     H46387  11.083   5.051   7.914  2.5356 -1.6506  0.5509
  344MOL0     H46388  11.153   5.202   7.852  2.3962 -0.1562 -3.2035
  344MOL0     H46389  11.189   4.923   7.739  0.2093  1.1904  2.0343
  344MOL0     H46390  11.144   5.043   7.626 -1.5980  1.2675  0.2116
  344MOL0     H46391  11.347   5.214   7.572 -1.1372  0.7503  0.8969
  344MOL0     H46392  11.558   5.394   7.649  0.6571  0.8133  1.4964
  344MOL0     H46393  11.684   5.305   7.736 -0.6252  1.4546  0.9202
  344MOL0     H46394  11.571   5.266   7.446  2.5676 -0.0625 -2.6005
  344MOL0     H46395  11.729   5.310   7.490  0.3959 -1.0106  0.6095
  344MOL0     H46396  11.714   5.073   7.419  1.3789  2.7272 -0.3971
  344MOL0     H46397  11.632   5.035   7.571 -0.7882  1.4890  0.9725
  344MOL0     H46398  11.844   4.957   7.609  0.3186  0.4887 -0.3898
  344MOL0     H46399  11.841   5.116   7.691 -0.7829 -2.2405  2.1808
  344MOL0     H46400  12.136   5.126   7.337  3.2303  2.0221 -0.0877
  344MOL0     H46401  12.361   5.067   7.362  2.8075 -0.3427  1.3070
  344MOL0     H46402  12.653   4.737   7.459  0.7282 -1.0133  0.2001
  344MOL0     H46403  12.858   4.617   7.477 -1.0636  1.8674 -0.7338
  344MOL0     H46404  13.098   4.602   7.873 -0.5574  0.6052  1.1185
  344MOL0     H46405  12.968   4.479   7.900  1.4624 -2.1427  0.3859
  344MOL0     H46406  13.094   4.316   7.765  0.5885 -1.3696  1.1908
  344MOL0     H46407  13.225   4.427   7.756  0.3648 -1.1191 -0.3643
  344MOL0     H46408  13.259   4.450   7.992 -1.3971 -0.3932  1.5807
  344MOL0     H46409  13.122   4.348   8.027 -0.6262 -1.3302 -0.5533
  344MOL0     H46410  13.316   4.222   7.836 -2.2574 -0.6835  0.6997
  344MOL0     H46411  13.212   4.147   7.944  0.9356 -0.9999  2.1555
  344MOL0     H46412  13.348   4.202   8.143 -0.2631 -1.2782 -0.0865
  344MOL0     H46413  13.448   4.305   8.041 -1.7161  0.9614  0.9430
  344MOL0     H46414  13.418   4.008   8.079  0.9017 -0.7846  0.0796
  344MOL0     H46415  13.432   4.042   7.914  0.0760 -0.3981  0.2448
  344MOL0     H46416  13.630   4.079   8.145  0.9763  1.2221 -0.5046
  344MOL0     H46417  13.670   4.152   7.989  1.1025 -0.4694 -0.9898
  344MOL0     H46418  13.623   3.938   7.871  0.3225  1.6503 -0.3823
  344MOL0     H46419  13.769   3.958   7.978 -0.1508  0.8862  2.2699
  344MOL0     H46420  12.847   4.659   7.906  2.6187 -0.8560 -1.9502
  344MOL0     H46421  12.634   4.802   7.872  1.6109 -0.6288  1.7880
  344MOL0     H46422  12.265   4.888   7.746  0.4695  1.0942  0.8776
  344MOL0     H46423  12.039   5.001   7.735  0.4715 -0.7514 -0.1848
  344MOL0     H46424  10.162   5.161   7.376 -3.1972  1.0017  0.2759
  344MOL0     H46425   9.902   5.075   7.407  0.5086 -3.9633 -0.8949
  344MOL0     H46426   9.631   4.830   7.461  0.9199  2.3035 -1.0679
  344MOL0     H46427   9.397   4.779   7.403 -2.4092  3.1316 -2.0422
  344MOL0     H46428   9.106   5.063   7.581 -1.7063 -0.0021  0.1155
  344MOL0     H46429   9.074   4.945   7.703 -3.6113  1.5516  0.3597
  344MOL0     H46430   8.882   4.997   7.624  1.2239  3.0361 -0.7171
  344MOL0     H46431   8.907   4.834   7.554  1.9275 -1.2261  0.4932
  344MOL0     H46432   8.976   4.936   7.340 -0.0797 -1.6098  0.6235
  344MOL0     H46433   8.930   5.106   7.408 -0.9366  0.2005  2.5264
  344MOL0     H46434   8.710   5.026   7.439  0.0055 -0.3171 -0.4936
  344MOL0     H46435   8.756   5.042   7.271  0.7357  1.4671  1.0305
  344MOL0     H46436   8.657   4.645   7.272 -4.1044  2.2738  0.0231
  344MOL0     H46437   9.264   5.008   7.735  0.1720 -0.9147  0.6697
  344MOL0     H46438   9.411   5.113   7.894  0.8267 -3.2369  1.8603
  344MOL0     H46439   9.573   5.050   7.895 -0.3554  0.9534  1.9681
  344MOL0     H46440   9.530   5.194   7.796  2.7591 -1.3937  0.2925
  345MOL0     O46441  11.074   3.142   0.246 -0.3813 -0.6528 -0.3080
  345MOL0     C46442  11.022   3.082   0.160  0.0133  0.4146  0.5161
  345MOL0     O46443  11.091   3.011   0.065  0.7682  0.3979  0.4281
  345MOL0     C46444  11.229   3.048   0.054  0.2857  0.3451  0.1353
  345MOL0     C46445  11.272   3.120  -0.055 -0.5313  0.3734 -0.4969
  345MOL0     C46446  11.404   3.150  -0.076  0.6216 -0.4020 -0.7315
  345MOL0     C46447  11.501   3.089   0.002 -0.3469 -0.7928  0.0220
  345MOL0     O46448  11.637   3.098  -0.044 -0.0103 -0.4858 -0.3635
  345MOL0     C46449  11.741   3.118   0.058  0.2056 -0.5674  0.4854
  345MOL0     C46450  11.866   3.151  -0.023  0.0211 -0.6637 -0.2487
  345MOL0     C46451  11.984   3.169   0.062 -0.2924  0.7972 -0.5417
  345MOL0     C46452  12.105   3.222  -0.004 -0.1625 -0.0605  0.1237
  345MOL0     C46453  12.186   3.126  -0.080 -0.2593 -0.6035 -0.2181
  345MOL0     C46454  12.318   3.186  -0.120 -0.2197  0.1442 -0.1314
  345MOL0     C46455  12.397   3.113  -0.223  0.1724  0.3041  0.6959
  345MOL0     C46456  12.530   3.190  -0.251 -0.3704  0.3553 -0.0193
  345MOL0     N46457  12.623   3.185  -0.141 -0.1455 -0.2131 -0.4754
  345MOL0     C46458  12.705   3.079  -0.088 -0.1689  0.2744 -0.0755
  345MOL0     C46459  12.755   3.112   0.035  0.2930 -1.4150 -0.3369
  345MOL0     C46460  12.831   3.023   0.133 -0.0196  0.8769  0.0472
  345MOL0     C46461  12.981   3.049   0.109 -0.4057  0.4695 -0.2418
  345MOL0     C46462  13.041   3.018  -0.033  0.2479  0.3447  0.9187
  345MOL0     C46463  13.042   2.863  -0.082  0.2062 -0.0187  0.4499
  345MOL0     O46464  13.143   2.855  -0.182 -0.3273  1.1169 -0.6442
  345MOL0     C46465  13.278   2.829  -0.143 -0.2376 -0.5415 -1.1889
  345MOL0     C46466  13.324   2.833  -0.009  0.0264  0.7810  0.2724
  345MOL0     C46467  13.457   2.813   0.023  0.1865  0.7251 -0.3861
  345MOL0     C46468  13.553   2.785  -0.078 -0.3122  0.8777 -0.4799
  345MOL0     C46469  13.692   2.745  -0.045  0.5503  0.1336  0.2655
  345MOL0     O46470  13.724   2.755   0.088 -1.0201 -0.3575  0.7738
  345MOL0     C46471  13.856   2.728   0.103  0.2872  0.0187  0.0311
  345MOL0     C46472  13.903   2.604   0.154  0.1696 -0.5669  0.5382
  345MOL0     C46473  14.035   2.592   0.191 -0.4914  0.8460  0.0073
  345MOL0     C46474  14.125   2.706   0.171  0.0383 -0.0228  0.1103
  345MOL0     O46475  14.264   2.688   0.189  0.1440  1.3357  0.0453
  345MOL0     C46476  14.362   2.727   0.084  0.3944  0.0571 -0.6730
  345MOL0     C46477  14.509   2.682   0.121 -0.0311  0.3318  0.2404
  345MOL0     C46478  14.550   2.746   0.250  0.4364  1.0879  0.4738
  345MOL0     C46479  14.702   2.719   0.278 -0.1013  0.1169 -0.1254
  345MOL0     C46480  14.749   2.804   0.398 -0.0719 -0.0197  0.4036
  345MOL0     C46481  14.893   2.789   0.411 -0.2724 -0.4985  0.2914
  345MOL0     C46482  14.934   2.876   0.520  0.0765  0.1847 -0.0487
  345MOL0     C46483  15.070   2.836   0.571 -0.0777  0.7573 -1.2626
  345MOL0    Cl46484  15.148   2.964   0.654 -0.4495 -0.4578  0.1646
  345MOL0     C46485  14.075   2.826   0.116  0.8664 -0.7819 -0.4702
  345MOL0     C46486  13.945   2.847   0.088  1.3087  1.0233 -0.8526
  345MOL0     O46487  13.764   2.733  -0.146 -0.2315  0.0971 -0.1887
  345MOL0     C46488  13.511   2.789  -0.214  0.2931  0.7438 -0.4029
  345MOL0     C46489  13.375   2.809  -0.244 -0.0518 -0.7317  0.3277
  345MOL0     N46490  12.708   3.245   0.053  0.2484  0.1961 -0.2152
  345MOL0     N46491  12.631   3.274  -0.045  0.2125 -0.1030  0.3469
  345MOL0     C46492  11.456   3.022   0.118 -0.4271 -0.1837 -0.8461
  345MOL0     C46493  11.322   2.999   0.150 -0.1469  0.2155  0.0064
  345MOL0     C46494  10.874   3.083   0.160  0.0055  0.1654  0.5205
  345MOL0     C46495  10.807   3.077   0.036  0.5038 -1.0376  1.4235
  345MOL0     C46496  10.661   3.086   0.024  0.0158  0.2733  0.5148
  345MOL0     C46497  10.589   3.088   0.143 -0.5106 -1.1595 -0.5500
  345MOL0     O46498  10.456   3.065   0.123 -0.2654 -0.1986 -0.0596
  345MOL0     C46499  10.404   2.981   0.226 -0.2068  0.2919  0.6733
  345MOL0     C46500  10.256   2.969   0.191  0.0950  0.3288 -0.7043
  345MOL0     C46501  10.189   3.088   0.250 -0.0604  0.3515  0.4615
  345MOL0     C46502  10.048   3.090   0.199 -0.3904  0.2870 -0.1978
  345MOL0     C46503   9.972   2.966   0.229  0.0519 -0.5627  0.1232
  345MOL0     C46504   9.917   2.857   0.235  0.1847 -0.6524  0.9709
  345MOL0     C46505  10.655   3.090   0.263 -0.6963 -0.4642 -1.4519
  345MOL0     C46506  10.793   3.103   0.274  0.2477  0.4047  0.2835
  345MOL0     C46507  10.853   3.106   0.410 -0.5339  0.3172 -0.7750
  345MOL0     H46508  11.194   3.148  -0.125 -0.2205 -2.2167 -1.9730
  345MOL0     H46509  11.430   3.218  -0.157  1.3750  0.0698 -0.1031
  345MOL0     H46510  11.714   3.208   0.114  0.7593  0.4864 -0.8715
  345MOL0     H46511  11.753   3.032   0.124  1.5372 -1.1756 -0.5095
  345MOL0     H46512  11.851   3.247  -0.074 -3.0067 -1.8409 -1.8085
  345MOL0     H46513  11.879   3.070  -0.095 -0.4959  0.5928 -1.8312
  345MOL0     H46514  12.014   3.071   0.100  0.2715 -0.0597 -3.0372
  345MOL0     H46515  11.963   3.232   0.148  0.3351 -0.2671  0.4279
  345MOL0     H46516  12.080   3.310  -0.065 -0.2180  0.3063  0.6692
  345MOL0     H46517  12.178   3.255   0.070  1.8443 -0.6687 -1.4844
  345MOL0     H46518  12.213   3.038  -0.021  0.9277 -0.6045 -0.7460
  345MOL0     H46519  12.122   3.109  -0.167 -0.0042  0.4318 -0.6154
  345MOL0     H46520  12.304   3.286  -0.161  1.2063 -0.2844 -1.7845
  345MOL0     H46521  12.376   3.197  -0.027 -1.3224 -1.1286  0.7518
  345MOL0     H46522  12.335   3.109  -0.313  1.2608 -1.0984 -0.0154
  345MOL0     H46523  12.420   3.008  -0.202  0.7294  0.3644  0.3899
  345MOL0     H46524  12.579   3.128  -0.327  0.1661  0.4608  0.2318
  345MOL0     H46525  12.511   3.293  -0.282 -2.6957  0.1721  0.6388
  345MOL0     H46526  12.724   2.978  -0.124  0.9968 -0.0974  1.4526
  345MOL0     H46527  12.815   3.055   0.236  0.9814  0.4423  0.3486
  345MOL0     H46528  12.807   2.918   0.119 -0.8021  0.9084  1.1134
  345MOL0     H46529  13.008   3.152   0.135 -0.5196  0.5592 -0.4753
  345MOL0     H46530  13.038   2.989   0.180 -0.0853  0.1505 -0.7644
  345MOL0     H46531  13.145   3.052  -0.022  0.6850 -0.6836  0.1233
  345MOL0     H46532  12.979   3.079  -0.099 -0.7414 -1.4821  0.1121
  345MOL0     H46533  12.949   2.830  -0.129  0.7761 -0.1079 -0.6373
  345MOL0     H46534  13.069   2.787  -0.008 -1.2482 -1.4231 -0.4095
  345MOL0     H46535  13.262   2.846   0.079  2.4639 -0.1819  2.2846
  345MOL0     H46536  13.486   2.821   0.127 -1.2854  2.5496 -0.0593
  345MOL0     H46537  13.848   2.512   0.174 -1.2069 -0.1867 -1.2480
  345MOL0     H46538  14.073   2.495   0.221  2.0411  2.0638  1.0782
  345MOL0     H46539  14.325   2.684  -0.009 -1.0195  3.5093 -1.8845
  345MOL0     H46540  14.364   2.832   0.054  1.6830  0.2018 -0.1313
  345MOL0     H46541  14.525   2.575   0.132 -3.2967 -0.0764  2.5144
  345MOL0     H46542  14.581   2.713   0.045 -0.6961  0.1659 -0.4770
  345MOL0     H46543  14.527   2.852   0.235 -1.6636  0.5750 -0.3178
  345MOL0     H46544  14.484   2.714   0.332 -1.4869  2.5897 -0.4362
  345MOL0     H46545  14.761   2.746   0.189 -1.5106  0.1240 -1.1003
  345MOL0     H46546  14.716   2.616   0.310  0.0627 -0.1476 -1.0218
  345MOL0     H46547  14.704   2.765   0.491 -0.8997 -2.6055 -0.9848
  345MOL0     H46548  14.728   2.910   0.387  0.1437 -0.0184  0.0209
  345MOL0     H46549  14.929   2.686   0.416  1.5422  0.0645 -0.2687
  345MOL0     H46550  14.934   2.828   0.318 -0.8148 -0.5566  0.0229
  345MOL0     H46551  14.859   2.882   0.599 -1.4047  1.4681 -1.4632
  345MOL0     H46552  14.934   2.979   0.483  0.5694  1.2662  2.7072
  345MOL0     H46553  15.055   2.745   0.630  1.7775  0.2811 -1.4704
  345MOL0     H46554  15.130   2.817   0.482  1.0984 -0.8033 -0.1855
  345MOL0     H46555  14.149   2.900   0.090  1.5429 -2.0514 -2.3206
  345MOL0     H46556  13.913   2.946   0.056 -0.9106  0.0472 -1.8952
  345MOL0     H46557  13.568   2.785  -0.306 -2.0880  2.0230 -2.0409
  345MOL0     H46558  13.346   2.798  -0.348  3.4612 -1.1404 -0.7520
  345MOL0     H46559  11.532   2.980   0.183  0.3098  0.7081 -1.1079
  345MOL0     H46560  11.289   2.937   0.232 -1.9785 -0.9718 -1.5381
  345MOL0     H46561  10.874   3.059  -0.047 -0.3219 -1.1260  0.7632
  345MOL0     H46562  10.615   3.094  -0.074 -1.4938  1.0317  1.2493
  345MOL0     H46563  10.408   3.029   0.324 -1.8349  0.4147  0.6972
  345MOL0     H46564  10.457   2.886   0.225  0.2143  0.5250  0.4677
  345MOL0     H46565  10.209   2.875   0.221 -0.1385 -0.4579 -3.2700
  345MOL0     H46566  10.246   2.965   0.082 -1.0852  0.3362 -0.6025
  345MOL0     H46567  10.244   3.179   0.227  0.0940 -0.2599 -1.8269
  345MOL0     H46568  10.189   3.086   0.360 -0.5862 -3.7060  0.5382
  345MOL0     H46569   9.997   3.167   0.259 -0.4967 -0.8458  1.2293
  345MOL0     H46570  10.046   3.124   0.095 -3.0475 -2.4795 -1.1942
  345MOL0     H46571   9.871   2.761   0.223 -1.8628  0.2060  1.4549
  345MOL0     H46572  10.604   3.095   0.359  0.1979 -3.4062 -0.7146
  345MOL0     H46573  10.912   3.016   0.427 -1.1065  0.2561  1.2372
  345MOL0     H46574  10.916   3.195   0.419  0.3639 -0.3923  0.3043
  345MOL0     H46575  10.779   3.101   0.491  0.4925 -0.9917  0.1106
  346MOL0     O46576   9.999  11.069   0.731 -0.1562 -0.7370  0.4144
  346MOL0     C46577   9.947  11.044   0.838  0.2116  0.7410 -0.5075
  346MOL0     O46578  10.009  11.070   0.963 -0.1308  0.2300  0.4610
  346MOL0     C46579  10.131  11.134   0.953  0.1321 -0.0022  0.3975
  346MOL0     C46580  10.143  11.263   0.973  0.1700 -0.3337  0.6672
  346MOL0     C46581  10.270  11.325   0.977  0.2746 -0.0341  0.5007
  346MOL0     C46582  10.382  11.250   0.964 -0.4413 -0.2386 -0.5450
  346MOL0     O46583  10.510  11.300   0.962  0.2153  0.5002 -0.6181
  346MOL0     C46584  10.527  11.423   1.044  0.1836  0.1302 -0.4133
  346MOL0     C46585  10.674  11.451   1.036 -0.1073 -0.7769  0.2314
  346MOL0     C46586  10.779  11.346   1.090 -0.7369 -0.2696  0.0993
  346MOL0     C46587  10.733  11.289   1.221 -0.1547  0.4235 -0.4184
  346MOL0     C46588  10.831  11.202   1.288  0.0253  0.1119  0.0025
  346MOL0     C46589  10.851  11.073   1.203  0.2903  0.4672  0.2020
  346MOL0     C46590  10.728  11.002   1.165  0.1825  0.0021 -0.0826
  346MOL0     C46591  10.753  10.857   1.136 -0.3590  0.7516  0.0157
  346MOL0     N46592  10.625  10.790   1.100 -0.3478  0.4952  0.7253
  346MOL0     C46593  10.560  10.697   1.179  0.0494 -1.2608 -0.1137
  346MOL0     C46594  10.446  10.661   1.113  0.0193 -0.0148  0.3499
  346MOL0     C46595  10.332  10.574   1.167  0.6508  0.3903 -0.3190
  346MOL0     C46596  10.252  10.646   1.270  0.8011  0.8874  0.3156
  346MOL0     C46597  10.174  10.765   1.213  0.4185 -0.2628 -0.1719
  346MOL0     C46598  10.063  10.726   1.106 -0.1163  1.2458  0.4028
  346MOL0     O46599   9.971  10.626   1.152  0.3920  0.3515 -0.6611
  346MOL0     C46600   9.850  10.659   1.213  0.9481 -1.4410  1.1684
  346MOL0     C46601   9.826  10.782   1.270 -0.5584 -0.3580  0.9732
  346MOL0     C46602   9.701  10.808   1.317 -0.1640  0.2086  0.5151
  346MOL0     C46603   9.610  10.705   1.341 -0.5533  0.1084  0.0872
  346MOL0     C46604   9.466  10.731   1.377 -0.0484 -0.0151  0.2200
  346MOL0     O46605   9.438  10.864   1.400 -0.2627 -0.3752 -0.0772
  346MOL0     C46606   9.315  10.909   1.442  0.1058 -0.0086 -1.0098
  346MOL0     C46607   9.276  11.038   1.423 -0.0483 -0.6822  0.1364
  346MOL0     C46608   9.153  11.094   1.479  0.5716  0.1915  0.3084
  346MOL0     C46609   9.060  11.017   1.549  0.0234 -0.0335  0.3924
  346MOL0     O46610   8.942  11.069   1.585  0.0142 -0.0771 -0.1064
  346MOL0     C46611   8.932  11.099   1.723 -0.3568  0.5141  0.7048
  346MOL0     C46612   8.810  11.169   1.761 -0.2725 -0.7670  0.7903
  346MOL0     C46613   8.813  11.189   1.915 -0.1641 -0.2053 -0.3088
  346MOL0     C46614   8.690  11.253   1.966 -0.5892 -0.6059  0.3864
  346MOL0     C46615   8.590  11.156   2.004 -0.3722  0.1484 -1.3490
  346MOL0     C46616   8.624  11.071   2.131 -0.1999 -0.4659 -1.6768
  346MOL0     C46617   8.501  11.003   2.172  0.6992  0.0558 -0.2243
  346MOL0     C46618   8.512  10.940   2.308  0.3618  0.4672 -0.0445
  346MOL0    Cl46619   8.538  11.067   2.425 -0.2996  0.2145 -0.1077
  346MOL0     C46620   9.092  10.873   1.562 -0.1091 -0.3299 -0.0539
  346MOL0     C46621   9.221  10.828   1.519  0.4147 -0.3545  0.3152
  346MOL0     O46622   9.387  10.637   1.397 -0.0005  0.7759 -0.1281
  346MOL0     C46623   9.643  10.576   1.300  0.3254 -0.2311 -0.4632
  346MOL0     C46624   9.759  10.555   1.228  0.4292 -0.1641  0.8793
  346MOL0     N46625  10.443  10.725   0.989 -0.0756  1.0236  0.2446
  346MOL0     N46626  10.549  10.802   0.982 -0.0009  0.6438  0.0284
  346MOL0     C46627  10.374  11.118   0.949  0.1318  1.4654 -0.3061
  346MOL0     C46628  10.250  11.055   0.952 -0.3346 -0.0431 -0.1355
  346MOL0     C46629   9.801  10.993   0.852 -1.1685 -0.9296  0.3516
  346MOL0     C46630   9.742  11.008   0.979 -0.2220 -0.0485 -0.6438
  346MOL0     C46631   9.609  10.967   0.999 -0.6282  0.7294 -0.1433
  346MOL0     C46632   9.537  10.903   0.894  0.1462  1.1290  1.0413
  346MOL0     O46633   9.405  10.855   0.894 -0.5579 -0.1777  0.8581
  346MOL0     C46634   9.332  10.894   1.012 -1.1353 -0.5023 -0.8767
  346MOL0     C46635   9.192  10.868   0.969  0.4098 -0.8623  0.2387
  346MOL0     C46636   9.093  10.861   1.086  0.9051 -0.6999  0.0236
  346MOL0     C46637   9.029  10.992   1.136 -0.0250 -0.0727 -0.0881
  346MOL0     C46638   8.926  11.053   1.058  0.5560 -0.1905 -0.8250
  346MOL0     C46639   8.844  11.102   0.977  0.0301  0.6585 -0.4673
  346MOL0     C46640   9.605  10.876   0.770  0.1489  0.3129  0.3776
  346MOL0     C46641   9.730  10.922   0.745  0.2632  0.6320  0.1195
  346MOL0     C46642   9.789  10.872   0.623 -0.6412  0.3233 -0.0869
  346MOL0     H46643  10.054  11.324   0.986 -0.5083 -1.2027  0.2111
  346MOL0     H46644  10.275  11.432   0.997  0.3699 -0.0869  0.7579
  346MOL0     H46645  10.480  11.505   0.990  0.2341 -1.4580 -3.0534
  346MOL0     H46646  10.488  11.408   1.145 -0.8094 -0.8628 -0.9244
  346MOL0     H46647  10.698  11.536   1.101 -0.9510  0.0879 -0.5674
  346MOL0     H46648  10.694  11.483   0.934 -0.8515 -0.1857  0.2566
  346MOL0     H46649  10.882  11.384   1.093 -0.8789  0.1419 -0.1469
  346MOL0     H46650  10.783  11.265   1.016  0.9531  0.2678 -0.4563
  346MOL0     H46651  10.723  11.374   1.289  1.0318  1.1496 -1.1077
  346MOL0     H46652  10.635  11.246   1.201 -1.6169  3.8136 -1.1930
  346MOL0     H46653  10.923  11.256   1.312  0.8952 -1.7324  1.0733
  346MOL0     H46654  10.795  11.168   1.385  1.5271 -0.5748  0.3556
  346MOL0     H46655  10.902  11.101   1.111 -0.3264  2.3835  0.3911
  346MOL0     H46656  10.914  11.002   1.257 -1.8574 -1.0032  0.8735
  346MOL0     H46657  10.686  11.055   1.079  3.5226  1.7533 -0.8233
  346MOL0     H46658  10.658  11.014   1.248  2.0686  1.0025  1.4497
  346MOL0     H46659  10.814  10.851   1.046 -1.1139  0.4072 -0.4845
  346MOL0     H46660  10.791  10.807   1.226  1.3449 -0.7165 -1.4440
  346MOL0     H46661  10.593  10.655   1.274 -3.8922 -0.4898  1.8316
  346MOL0     H46662  10.264  10.542   1.088  0.5639 -1.3018  0.3938
  346MOL0     H46663  10.375  10.479   1.203 -2.4580 -0.7165  0.7659
  346MOL0     H46664  10.180  10.586   1.327 -0.7193  1.3109 -1.0874
  346MOL0     H46665  10.324  10.689   1.340  3.1490  1.4373 -2.2922
  346MOL0     H46666  10.254  10.832   1.179 -0.8877  1.8243  0.6483
  346MOL0     H46667  10.113  10.811   1.292 -1.5748 -1.5500 -0.8879
  346MOL0     H46668  10.117  10.682   1.021 -1.0073 -2.1339  1.4513
  346MOL0     H46669  10.025  10.822   1.068  0.1752 -0.0986 -3.8133
  346MOL0     H46670   9.898  10.859   1.246 -2.7050  1.6315  0.5980
  346MOL0     H46671   9.677  10.911   1.342 -0.0294  0.6094 -0.9146
  346MOL0     H46672   9.345  11.101   1.367  1.3018 -1.4729  0.8458
  346MOL0     H46673   9.128  11.197   1.452  1.6536 -0.2469 -2.7604
  346MOL0     H46674   8.935  11.004   1.777  1.3215  1.1256  1.7590
  346MOL0     H46675   9.023  11.153   1.751  1.2749 -2.7385  2.2411
  346MOL0     H46676   8.791  11.263   1.709  1.1897 -0.1235  1.3468
  346MOL0     H46677   8.728  11.103   1.730 -0.1078 -1.0053  0.8578
  346MOL0     H46678   8.837  11.093   1.963  1.5551  1.2185  1.8585
  346MOL0     H46679   8.898  11.253   1.940 -0.6076 -0.3568  1.8511
  346MOL0     H46680   8.647  11.312   1.885 -0.8713 -5.2020 -3.2135
  346MOL0     H46681   8.717  11.318   2.049 -0.3331  0.5318 -0.5758
  346MOL0     H46682   8.569  11.090   1.920 -1.1793 -0.9809 -0.2896
  346MOL0     H46683   8.497  11.209   2.025 -1.0758 -1.7964  0.7880
  346MOL0     H46684   8.702  10.995   2.118  2.5257  1.6648  0.7914
  346MOL0     H46685   8.673  11.136   2.205  0.6028 -1.6476 -1.1311
  346MOL0     H46686   8.491  10.920   2.102 -3.5707 -0.6669  0.9610
  346MOL0     H46687   8.413  11.067   2.169  1.4018  1.1214  0.9212
  346MOL0     H46688   8.426  10.881   2.341  0.7211  0.1000  0.2514
  346MOL0     H46689   8.586  10.860   2.310 -0.1280  0.0188  1.8929
  346MOL0     H46690   9.013  10.823   1.617 -0.2692  1.1237  1.0924
  346MOL0     H46691   9.241  10.727   1.551  0.5535 -1.1762 -2.1513
  346MOL0     H46692   9.571  10.496   1.317  1.7242 -1.9168 -2.0668
  346MOL0     H46693   9.783  10.457   1.191 -1.0690 -1.2004  2.4613
  346MOL0     H46694  10.465  11.063   0.926 -0.5225  0.2898 -0.1870
  346MOL0     H46695  10.238  10.948   0.938 -2.9675  0.4409 -2.6598
  346MOL0     H46696   9.795  11.054   1.061  1.4937 -0.2321 -1.6082
  346MOL0     H46697   9.572  10.994   1.097 -2.2233  0.6404 -0.6864
  346MOL0     H46698   9.348  11.001   1.029  1.6873 -0.9344 -0.3457
  346MOL0     H46699   9.354  10.839   1.103 -2.0890 -0.5684 -0.6689
  346MOL0     H46700   9.187  10.770   0.921  2.1249 -0.1104 -1.5765
  346MOL0     H46701   9.160  10.954   0.910  0.9895  0.3408  1.6265
  346MOL0     H46702   9.155  10.825   1.168  1.7236  0.6049 -0.0045
  346MOL0     H46703   9.017  10.784   1.069  0.1476 -0.5848  2.5424
  346MOL0     H46704   8.992  10.983   1.239  1.3211  1.3166  0.5467
  346MOL0     H46705   9.111  11.063   1.147  1.8605 -1.7412 -2.3252
  346MOL0     H46706   8.781  11.135   0.897 -1.1840 -1.1837 -0.3360
  346MOL0     H46707   9.554  10.812   0.697  2.4693 -1.4325  0.1786
  346MOL0     H46708   9.843  10.950   0.570 -0.8877  0.5560  0.0027
  346MOL0     H46709   9.864  10.800   0.657  0.4840  2.4394  2.2027
  346MOL0     H46710   9.723  10.809   0.561  2.2055 -1.7466 -1.2234
  347MOL0     O46711   2.325   5.192   5.585 -0.4775  0.0771  0.1125
  347MOL0     C46712   2.243   5.106   5.584  0.7089 -0.3888  0.2209
  347MOL0     O46713   2.265   4.973   5.552  0.1750  0.2120  0.2777
  347MOL0     C46714   2.385   4.923   5.514  0.9315  0.1522  0.1493
  347MOL0     C46715   2.397   4.853   5.395  0.2327  0.6084 -0.2769
  347MOL0     C46716   2.524   4.804   5.354 -0.0695  0.0155 -0.4441
  347MOL0     C46717   2.637   4.831   5.436 -0.0697 -0.6667  0.6728
  347MOL0     O46718   2.764   4.779   5.402 -0.0457  0.4049 -0.2155
  347MOL0     C46719   2.795   4.748   5.262 -0.9268  1.1126 -0.1027
  347MOL0     C46720   2.809   4.876   5.176 -0.6935 -0.5270  0.5300
  347MOL0     C46721   2.944   4.941   5.183 -0.3406  0.3630  1.1627
  347MOL0     C46722   3.056   4.853   5.127 -1.0342  0.7546 -0.9421
  347MOL0     C46723   3.192   4.923   5.129  0.0099  0.4003 -0.0504
  347MOL0     C46724   3.255   4.899   5.272  0.1464 -0.7247  0.5459
  347MOL0     C46725   3.374   4.993   5.302 -0.3277 -0.8496 -0.1728
  347MOL0     C46726   3.411   4.996   5.449  0.8244 -0.5815 -0.0247
  347MOL0     N46727   3.531   5.074   5.459 -0.3878 -0.3563 -0.1588
  347MOL0     C46728   3.664   5.024   5.443 -1.4618  0.0239  0.5510
  347MOL0     C46729   3.748   5.116   5.503  0.9874  0.4526  0.1965
  347MOL0     C46730   3.887   5.094   5.521 -0.3050  0.2540 -0.1394
  347MOL0     C46731   3.974   5.196   5.455 -0.1422 -0.1594  0.7504
  347MOL0     C46732   4.125   5.169   5.437 -0.0104 -0.2524  0.5279
  347MOL0     C46733   4.209   5.163   5.566 -0.4007  1.3216 -0.3149
  347MOL0     O46734   4.344   5.132   5.521  0.7669  0.2722 -0.0446
  347MOL0     C46735   4.455   5.175   5.593  0.5316  0.6312  0.5139
  347MOL0     C46736   4.580   5.134   5.533  0.3276  0.5754 -0.7051
  347MOL0     C46737   4.697   5.165   5.605  0.2277  0.9785  1.0316
  347MOL0     C46738   4.688   5.218   5.737  0.5916 -0.7518 -0.4666
  347MOL0     C46739   4.814   5.259   5.814  0.2515  0.2155  0.3290
  347MOL0     O46740   4.922   5.210   5.754  0.3113  0.2744 -0.0399
  347MOL0     C46741   5.056   5.239   5.786  0.0602 -0.2688 -0.7369
  347MOL0     C46742   5.152   5.154   5.736  0.9189 -0.1687  0.2499
  347MOL0     C46743   5.290   5.177   5.765  0.1137 -0.6697  0.4735
  347MOL0     C46744   5.336   5.288   5.836  0.1488  0.2831 -0.1740
  347MOL0     O46745   5.468   5.302   5.866  0.1217 -0.2926  0.2135
  347MOL0     C46746   5.514   5.186   5.945  0.4697  0.7041  0.0152
  347MOL0     C46747   5.643   5.204   6.018 -0.0970  0.8719  0.1807
  347MOL0     C46748   5.748   5.230   5.913  0.4051  0.7663  0.1618
  347MOL0     C46749   5.875   5.240   5.996  0.2114  0.0737 -0.3763
  347MOL0     C46750   5.987   5.309   5.918 -0.7559 -0.3483  0.4465
  347MOL0     C46751   6.044   5.213   5.814 -0.2186  0.0895 -0.5606
  347MOL0     C46752   6.102   5.079   5.850 -0.4650  0.8451  0.0507
  347MOL0     C46753   6.235   5.085   5.929 -0.8327 -0.2493  0.4536
  347MOL0    Cl46754   6.260   4.928   6.027  0.2694 -0.0708 -0.1659
  347MOL0     C46755   5.236   5.377   5.884  0.3451  0.4258  0.7843
  347MOL0     C46756   5.100   5.348   5.855  0.1198 -0.6798 -1.2726
  347MOL0     O46757   4.814   5.330   5.909  0.5924  0.0985  0.0656
  347MOL0     C46758   4.563   5.259   5.793 -0.2490  0.3144  0.0565
  347MOL0     C46759   4.447   5.228   5.727  0.7316  0.2651  0.0176
  347MOL0     N46760   3.669   5.224   5.527 -0.6349 -0.2141  0.3762
  347MOL0     N46761   3.546   5.201   5.506 -0.1742 -0.3813  0.6159
  347MOL0     C46762   2.623   4.914   5.545 -0.8499 -0.0777  0.3099
  347MOL0     C46763   2.496   4.954   5.582 -0.7588 -0.3744 -0.3855
  347MOL0     C46764   2.096   5.131   5.609 -0.3055  0.1025 -1.0541
  347MOL0     C46765   2.002   5.024   5.607 -0.6624  0.0565  0.2934
  347MOL0     C46766   1.871   5.050   5.639 -0.7681  0.5388 -0.7908
  347MOL0     C46767   1.819   5.175   5.659 -0.7102 -0.0602 -0.1279
  347MOL0     O46768   1.684   5.202   5.669 -0.4261  0.2542  0.4670
  347MOL0     C46769   1.597   5.098   5.621  0.3145 -0.6059 -0.4368
  347MOL0     C46770   1.461   5.157   5.613  0.7000 -0.7704 -0.0099
  347MOL0     C46771   1.409   5.221   5.739  0.2476  0.0707  0.6788
  347MOL0     C46772   1.275   5.289   5.709 -0.4354 -0.4906 -0.3822
  347MOL0     C46773   1.163   5.195   5.694  0.4738  0.2299 -0.0388
  347MOL0     C46774   1.072   5.116   5.699  0.2013 -0.1047 -0.5238
  347MOL0     C46775   1.908   5.278   5.671 -0.1737  0.0604  0.7199
  347MOL0     C46776   2.043   5.257   5.646 -0.7219 -0.1775 -0.0385
  347MOL0     C46777   2.111   5.386   5.623  0.0560 -0.8206 -0.1213
  347MOL0     H46778   2.314   4.831   5.329  0.6431 -0.0590 -0.5755
  347MOL0     H46779   2.547   4.744   5.266  0.0548  0.6684 -0.8703
  347MOL0     H46780   2.890   4.697   5.280 -0.1988  2.8530  1.2906
  347MOL0     H46781   2.729   4.676   5.212  0.6783 -1.8588  1.7349
  347MOL0     H46782   2.736   4.952   5.204 -1.0399 -0.4544 -0.5418
  347MOL0     H46783   2.796   4.846   5.072  0.1197  0.5652  0.0967
  347MOL0     H46784   2.965   4.979   5.283 -0.8421  3.0549  0.3263
  347MOL0     H46785   2.936   5.035   5.127 -1.1568  1.0226  2.3562
  347MOL0     H46786   3.062   4.751   5.167 -1.1769  1.6633  1.6030
  347MOL0     H46787   3.039   4.853   5.019  1.9284  1.9030 -1.5147
  347MOL0     H46788   3.270   4.892   5.058 -0.5191  0.6743 -0.7634
  347MOL0     H46789   3.172   5.028   5.105  0.8280  0.2348 -1.6234
  347MOL0     H46790   3.173   4.923   5.341  0.3450 -0.5198  0.7157
  347MOL0     H46791   3.278   4.795   5.294 -0.9947 -1.3141 -0.8610
  347MOL0     H46792   3.347   5.090   5.257 -2.5984 -1.4011 -0.1381
  347MOL0     H46793   3.464   4.963   5.247 -0.4419 -0.4661 -0.5782
  347MOL0     H46794   3.332   5.047   5.504  0.8864  1.7737 -1.9663
  347MOL0     H46795   3.429   4.899   5.498 -0.0198  0.0854  1.6689
  347MOL0     H46796   3.698   4.929   5.402  0.1296  1.2195 -1.0720
  347MOL0     H46797   3.900   5.102   5.630  1.5488  0.2876 -0.3424
  347MOL0     H46798   3.908   4.990   5.496 -1.6793 -0.2554  0.6783
  347MOL0     H46799   3.932   5.220   5.357 -1.7609  1.5739  1.8059
  347MOL0     H46800   3.962   5.294   5.503 -1.6748 -1.3525  3.0100
  347MOL0     H46801   4.153   5.260   5.384  1.4662 -1.4132 -0.8063
  347MOL0     H46802   4.149   5.086   5.369  0.0786  0.0364  0.2075
  347MOL0     H46803   4.180   5.078   5.628 -2.0987  1.3301 -1.0551
  347MOL0     H46804   4.204   5.254   5.626 -0.7610  0.8224  0.4176
  347MOL0     H46805   4.579   5.076   5.441 -1.7917 -2.9056  1.2603
  347MOL0     H46806   4.796   5.146   5.565 -0.5534 -0.2727 -0.4172
  347MOL0     H46807   5.116   5.077   5.668 -1.1226  2.3635 -1.7790
  347MOL0     H46808   5.373   5.118   5.729  1.9164  0.7594  2.0819
  347MOL0     H46809   5.433   5.172   6.017  0.3843 -0.6894 -0.3324
  347MOL0     H46810   5.516   5.087   5.898 -2.0881  0.5078  0.1558
  347MOL0     H46811   5.640   5.293   6.081 -1.2055  0.5011  0.6810
  347MOL0     H46812   5.664   5.112   6.074  2.2264 -0.5271 -2.6856
  347MOL0     H46813   5.749   5.150   5.839 -0.7626 -0.0701  1.0204
  347MOL0     H46814   5.737   5.327   5.864  1.1068  1.3632  1.1383
  347MOL0     H46815   5.894   5.146   6.049 -3.2375  0.3248  1.5950
  347MOL0     H46816   5.852   5.316   6.072  0.9900  0.1035 -0.1574
  347MOL0     H46817   6.073   5.337   5.980 -1.6607  0.1127  1.5073
  347MOL0     H46818   5.952   5.402   5.871  0.1752  0.0466  0.5039
  347MOL0     H46819   5.962   5.194   5.744 -0.9018  1.0562 -0.0519
  347MOL0     H46820   6.120   5.274   5.763 -2.0406  1.5534 -1.6856
  347MOL0     H46821   6.112   5.010   5.765 -0.3349  1.4437 -0.4239
  347MOL0     H46822   6.040   5.026   5.922 -0.5115 -2.4331 -2.1640
  347MOL0     H46823   6.319   5.086   5.859 -0.0653 -0.0922  1.3464
  347MOL0     H46824   6.239   5.171   5.997 -0.9917 -0.3691  0.6155
  347MOL0     H46825   5.253   5.471   5.935  1.5352  0.6112  0.1027
  347MOL0     H46826   5.030   5.426   5.881 -0.7453 -1.5206 -1.0115
  347MOL0     H46827   4.562   5.313   5.887  0.9677  2.7723 -1.2732
  347MOL0     H46828   4.349   5.261   5.759  1.2070  2.1509 -0.3484
  347MOL0     H46829   2.708   4.949   5.602 -1.2070 -0.0864  0.8571
  347MOL0     H46830   2.487   5.027   5.662  0.3582  0.0574 -0.6288
  347MOL0     H46831   2.022   4.918   5.591 -0.9717 -0.0886  0.8174
  347MOL0     H46832   1.803   4.965   5.640 -2.4829  1.8163 -1.9896
  347MOL0     H46833   1.577   5.011   5.684 -2.3181  0.0497 -0.2568
  347MOL0     H46834   1.641   5.061   5.527  0.4573 -2.1842  0.2210
  347MOL0     H46835   1.387   5.078   5.600 -1.1583  0.8234  0.4482
  347MOL0     H46836   1.451   5.227   5.529 -0.7365  0.7886  1.3874
  347MOL0     H46837   1.483   5.285   5.788 -0.1253  1.5638 -0.6164
  347MOL0     H46838   1.408   5.142   5.814 -0.3139 -1.2927 -0.7069
  347MOL0     H46839   1.247   5.368   5.781 -1.5158 -0.8421 -0.3911
  347MOL0     H46840   1.289   5.347   5.618  1.5166 -2.9255 -1.7353
  347MOL0     H46841   0.990   5.048   5.693  1.4406 -1.7115  0.0389
  347MOL0     H46842   1.869   5.377   5.694  0.8020  0.7554 -0.4432
  347MOL0     H46843   2.050   5.473   5.652 -0.7522 -1.2599 -0.4880
  347MOL0     H46844   2.210   5.386   5.668  0.0943 -3.1154 -0.1196
  347MOL0     H46845   2.119   5.404   5.516 -2.4817 -0.2128 -0.2833
  348MOL0     O46846  10.894   2.975   4.914 -0.7559  0.1772 -0.3440
  348MOL0     C46847  10.845   2.895   5.001  0.1193  0.4117 -0.0520
  348MOL0     O46848  10.901   2.779   5.047  0.1014 -0.6843 -0.5356
  348MOL0     C46849  11.009   2.726   4.988 -0.6522  0.3814  0.5622
  348MOL0     C46850  11.016   2.587   4.995 -1.0387 -0.5857 -0.3577
  348MOL0     C46851  11.123   2.518   4.949 -0.0906 -0.1433 -0.4507
  348MOL0     C46852  11.227   2.586   4.897 -0.1190  0.4172  0.1771
  348MOL0     O46853  11.338   2.512   4.854  0.5055  0.2761 -0.1955
  348MOL0     C46854  11.463   2.581   4.812 -0.5663 -0.1243 -0.7050
  348MOL0     C46855  11.561   2.463   4.780  0.1499 -0.4325 -0.7839
  348MOL0     C46856  11.660   2.430   4.896  0.3747 -0.6529 -0.8046
  348MOL0     C46857  11.764   2.324   4.865  0.7456 -0.6741  0.1043
  348MOL0     C46858  11.832   2.294   4.995 -0.6223 -0.3646 -0.8685
  348MOL0     C46859  11.969   2.239   4.977 -0.0487  1.1411  0.5832
  348MOL0     C46860  12.091   2.340   5.003  0.1803 -0.1475 -0.4022
  348MOL0     C46861  12.072   2.453   4.886  0.4587  0.1708 -0.5204
  348MOL0     N46862  12.190   2.533   4.879 -0.8275 -0.1077  0.9698
  348MOL0     C46863  12.202   2.662   4.924  0.7185  0.5085  0.3234
  348MOL0     C46864  12.327   2.687   4.893 -0.8449  0.4265 -0.0208
  348MOL0     C46865  12.389   2.823   4.915  0.5776 -0.1332 -0.5218
  348MOL0     C46866  12.535   2.845   4.861  0.0731 -0.0775 -0.5012
  348MOL0     C46867  12.646   2.803   4.961  0.5693 -0.4232  0.0255
  348MOL0     C46868  12.788   2.861   4.937  0.3775  0.5579 -0.0554
  348MOL0     O46869  12.778   2.995   4.894  1.1562  1.0111  0.4488
  348MOL0     C46870  12.883   3.070   4.854  0.2841 -0.1182 -0.3424
  348MOL0     C46871  13.015   3.035   4.878  0.7134 -0.1571  0.0848
  348MOL0     C46872  13.119   3.113   4.838  0.1048  0.4682  0.0195
  348MOL0     C46873  13.097   3.240   4.786 -0.2172  0.1106  0.6351
  348MOL0     C46874  13.212   3.332   4.763  0.1803  0.0042  0.2498
  348MOL0     O46875  13.188   3.434   4.680  0.1680 -0.0305  0.8123
  348MOL0     C46876  13.289   3.508   4.637 -0.6491 -0.0066  0.2583
  348MOL0     C46877  13.307   3.535   4.498  0.3696  0.3110 -0.2233
  348MOL0     C46878  13.416   3.623   4.451  0.1197 -0.3995 -1.1474
  348MOL0     C46879  13.496   3.688   4.538 -0.4525  0.0234  0.5631
  348MOL0     O46880  13.609   3.753   4.500 -0.0766  0.1024 -0.2987
  348MOL0     C46881  13.583   3.871   4.432 -0.7276 -0.5375 -0.1722
  348MOL0     C46882  13.718   3.936   4.391  0.0820  0.3121 -0.3193
  348MOL0     C46883  13.761   3.873   4.253  0.4430 -0.6647 -0.5525
  348MOL0     C46884  13.896   3.932   4.213  0.0416  0.3815  0.4035
  348MOL0     C46885  14.004   3.824   4.252  0.2426 -0.0198 -0.0930
  348MOL0     C46886  14.021   3.817   4.407 -0.2512  0.9466 -0.3472
  348MOL0     C46887  14.160   3.763   4.441  0.1310 -0.0281  0.2795
  348MOL0     C46888  14.186   3.734   4.592  0.1507 -0.2584  0.4705
  348MOL0    Cl46889  14.180   3.880   4.683  0.1190  0.0757 -0.0184
  348MOL0     C46890  13.472   3.654   4.671 -0.5379 -0.4337 -0.2483
  348MOL0     C46891  13.379   3.573   4.721 -0.7731  0.5353  0.6928
  348MOL0     O46892  13.312   3.314   4.825  0.0002  0.1443 -0.0148
  348MOL0     C46893  12.965   3.283   4.754  0.2069  0.3266 -0.4105
  348MOL0     C46894  12.856   3.192   4.790 -0.7547  0.2504 -0.2689
  348MOL0     N46895  12.394   2.578   4.842 -0.4371 -0.2731 -0.0586
  348MOL0     N46896  12.307   2.489   4.836  0.0836 -1.3284  0.5412
  348MOL0     C46897  11.223   2.722   4.887  0.4226 -0.9005  1.3506
  348MOL0     C46898  11.121   2.793   4.940  0.6279 -0.2475  0.0797
  348MOL0     C46899  10.705   2.918   5.050  0.6663 -0.2013 -0.4043
  348MOL0     C46900  10.657   2.833   5.155 -0.0067  0.8371  0.0982
  348MOL0     C46901  10.525   2.844   5.205  0.7010  0.2411  1.1946
  348MOL0     C46902  10.433   2.932   5.152  0.1900 -0.0737  0.5246
  348MOL0     O46903  10.307   2.923   5.206  0.8626 -0.7761 -0.0960
  348MOL0     C46904  10.241   3.047   5.242 -0.6935 -0.1005 -0.4193
  348MOL0     C46905  10.095   3.058   5.191 -0.6860  0.8015 -0.8349
  348MOL0     C46906  10.081   3.094   5.048 -0.2176  0.6378  0.0466
  348MOL0     C46907  10.033   3.245   5.027 -0.9387  0.2689  0.6818
  348MOL0     C46908  10.146   3.330   5.052 -0.5080  0.0669 -0.4569
  348MOL0     C46909  10.236   3.411   5.067 -0.0242 -0.8928  0.6794
  348MOL0     C46910  10.476   3.015   5.047 -0.3306  0.3262  0.2288
  348MOL0     C46911  10.611   3.005   4.986  0.2874  0.4935 -0.4363
  348MOL0     C46912  10.645   3.083   4.859 -0.1588 -0.1403  0.4728
  348MOL0     H46913  10.931   2.537   5.041 -1.3397  0.1628 -0.0826
  348MOL0     H46914  11.127   2.411   4.965  1.1587 -0.3198 -1.7264
  348MOL0     H46915  11.461   2.652   4.729 -0.4393  0.7984  0.0590
  348MOL0     H46916  11.499   2.634   4.901 -3.1558  1.6683 -0.5939
  348MOL0     H46917  11.614   2.498   4.691  0.1740  0.0422 -0.5854
  348MOL0     H46918  11.500   2.374   4.761 -0.3702 -0.7176  1.8118
  348MOL0     H46919  11.592   2.400   4.976  1.6501 -2.1795 -0.2361
  348MOL0     H46920  11.708   2.526   4.920 -0.9084  0.1237 -1.2440
  348MOL0     H46921  11.716   2.233   4.828  1.3606 -0.3256 -1.6583
  348MOL0     H46922  11.827   2.366   4.786 -0.7337  2.5022  0.4444
  348MOL0     H46923  11.840   2.380   5.063 -1.5115 -0.3671 -0.7484
  348MOL0     H46924  11.781   2.222   5.059  1.1428  1.2768  2.6961
  348MOL0     H46925  11.969   2.155   5.048  0.0542  1.3581  0.8435
  348MOL0     H46926  11.973   2.195   4.877 -0.2369  0.7547  0.7434
  348MOL0     H46927  12.184   2.283   4.997 -0.5887 -2.1639  3.6941
  348MOL0     H46928  12.085   2.382   5.103  2.8393 -1.1627  0.2593
  348MOL0     H46929  12.051   2.408   4.789 -2.4392 -3.2071  1.4195
  348MOL0     H46930  11.989   2.517   4.917  2.2265  2.2783  0.1254
  348MOL0     H46931  12.124   2.725   4.965 -2.8187 -1.6523 -2.5095
  348MOL0     H46932  12.322   2.898   4.873 -0.2027  1.0001  2.4625
  348MOL0     H46933  12.389   2.851   5.021 -0.0608 -1.0274 -0.2776
  348MOL0     H46934  12.545   2.782   4.772 -0.6859 -0.1243 -0.5626
  348MOL0     H46935  12.542   2.950   4.831  1.6653 -0.1838 -0.6009
  348MOL0     H46936  12.655   2.694   4.971 -0.8492 -0.4259  1.9041
  348MOL0     H46937  12.610   2.834   5.059 -0.5737  1.3001 -0.8883
  348MOL0     H46938  12.850   2.805   4.867  2.3528 -0.5978  2.4443
  348MOL0     H46939  12.840   2.850   5.033 -3.3841 -1.0828  2.0151
  348MOL0     H46940  13.031   2.942   4.930  0.2505 -0.3063 -0.0285
  348MOL0     H46941  13.217   3.075   4.865  0.0736  0.1944 -0.2507
  348MOL0     H46942  13.248   3.477   4.427  3.1026 -1.6194 -1.0642
  348MOL0     H46943  13.439   3.627   4.345 -0.1828 -0.5685 -1.2218
  348MOL0     H46944  13.520   3.855   4.344  3.7473 -1.9102 -3.5019
  348MOL0     H46945  13.535   3.942   4.500 -1.0794 -0.0899 -0.8857
  348MOL0     H46946  13.719   4.045   4.385  0.4010  0.3979  1.0035
  348MOL0     H46947  13.787   3.916   4.473 -0.1152  0.2084 -0.1776
  348MOL0     H46948  13.769   3.766   4.277  2.0704 -0.0282  2.1961
  348MOL0     H46949  13.683   3.883   4.177  0.5681 -2.6427 -1.0035
  348MOL0     H46950  13.909   4.022   4.274 -0.2063 -0.8071  2.2733
  348MOL0     H46951  13.897   3.951   4.105 -2.1889  0.1728  0.2860
  348MOL0     H46952  14.094   3.863   4.204 -0.0720  0.9893  0.1022
  348MOL0     H46953  13.986   3.725   4.210 -0.8570  0.1712 -0.1079
  348MOL0     H46954  14.016   3.915   4.456 -1.4702 -0.3124  2.2393
  348MOL0     H46955  13.942   3.755   4.451  1.0807  0.0833  0.9181
  348MOL0     H46956  14.234   3.835   4.405  2.6698 -2.9173 -0.7617
  348MOL0     H46957  14.175   3.666   4.393 -0.8946 -0.8884  1.6024
  348MOL0     H46958  14.122   3.653   4.629 -2.7400  2.2325  1.3155
  348MOL0     H46959  14.292   3.705   4.592  0.1443 -0.2866  0.8683
  348MOL0     H46960  13.534   3.705   4.744 -0.0999  0.1370 -1.0158
  348MOL0     H46961  13.372   3.577   4.830 -5.7773  0.1792  0.6259
  348MOL0     H46962  12.954   3.371   4.692  2.3009  0.5497 -0.5189
  348MOL0     H46963  12.753   3.209   4.762 -0.4357  0.6582 -1.2113
  348MOL0     H46964  11.306   2.787   4.860  0.2306  0.2561  3.3700
  348MOL0     H46965  11.134   2.900   4.929  1.2414 -0.4465 -1.2735
  348MOL0     H46966  10.720   2.759   5.202 -1.2570 -0.7721 -0.6659
  348MOL0     H46967  10.500   2.776   5.286 -0.1786  1.4809  1.9856
  348MOL0     H46968  10.300   3.133   5.210  0.9420 -1.6751 -1.8155
  348MOL0     H46969  10.241   3.053   5.351  1.4953 -1.3215 -0.3055
  348MOL0     H46970  10.044   3.130   5.257  0.3568  0.2934  0.5658
  348MOL0     H46971  10.042   2.964   5.211  1.6823 -0.3436  0.4829
  348MOL0     H46972   9.991   3.040   5.015 -0.4074  0.4233  0.8983
  348MOL0     H46973  10.172   3.054   5.001  0.5317 -0.5921  2.4043
  348MOL0     H46974   9.994   3.253   4.925 -0.5975  1.0336  0.6063
  348MOL0     H46975   9.956   3.270   5.100  1.1170 -0.3373  3.1716
  348MOL0     H46976  10.318   3.480   5.071 -1.4849  1.3926 -3.0034
  348MOL0     H46977  10.410   3.091   5.006 -1.9964 -1.8230 -1.2746
  348MOL0     H46978  10.686   3.025   4.777  0.8259 -0.6258  1.2864
  348MOL0     H46979  10.560   3.136   4.815  1.1326  1.6240 -0.0148
  348MOL0     H46980  10.715   3.163   4.882 -1.8125  0.8547  2.4776
  349MOL0     O46981   6.204   4.926   9.579  0.2596  0.4515 -0.3678
  349MOL0     C46982   6.150   5.019   9.517 -0.6395 -0.0827 -0.2962
  349MOL0     O46983   6.228   5.110   9.444 -0.3363  0.0663  0.0407
  349MOL0     C46984   6.358   5.093   9.444 -0.2391 -0.4196  0.0418
  349MOL0     C46985   6.411   5.008   9.343  0.2689  0.3974  0.1560
  349MOL0     C46986   6.544   4.982   9.347  1.0021 -0.6420  0.8432
  349MOL0     C46987   6.628   5.059   9.420  0.4378 -0.0677 -0.4761
  349MOL0     O46988   6.766   5.046   9.401 -0.3082 -0.3735 -0.2687
  349MOL0     C46989   6.861   5.142   9.460  0.0196 -0.5085  0.7442
  349MOL0     C46990   6.999   5.111   9.401  0.7457  0.1488  0.2127
  349MOL0     C46991   7.012   5.138   9.252 -0.0735  0.0746  0.0909
  349MOL0     C46992   7.147   5.096   9.197 -0.0656  0.3780  0.3782
  349MOL0     C46993   7.261   5.183   9.249 -0.1112 -0.5936  0.1778
  349MOL0     C46994   7.387   5.143   9.178 -0.3621 -1.2232  0.3055
  349MOL0     C46995   7.505   5.230   9.210 -0.0480  0.3524  0.1512
  349MOL0     C46996   7.629   5.172   9.136 -0.4185 -0.6755  0.4141
  349MOL0     N46997   7.736   5.267   9.135  0.0604 -0.0543  0.1858
  349MOL0     C46998   7.829   5.288   9.228 -0.4427  0.3641 -0.6574
  349MOL0     C46999   7.914   5.378   9.175  0.1133 -0.3811  0.6489
  349MOL0     C47000   8.031   5.447   9.236 -0.1742  0.2417 -0.0314
  349MOL0     C47001   8.166   5.375   9.202 -1.4805  1.1390 -0.3155
  349MOL0     C47002   8.227   5.446   9.084 -0.1637 -0.3127  0.6019
  349MOL0     C47003   8.319   5.354   8.997 -0.0591 -0.3404  0.3167
  349MOL0     O47004   8.433   5.327   9.072  0.2241  0.1268  0.5359
  349MOL0     C47005   8.533   5.425   9.070  0.8540  0.3772  0.1915
  349MOL0     C47006   8.571   5.485   9.189 -0.4536  0.9047 -0.0431
  349MOL0     C47007   8.680   5.572   9.196  0.2597  0.4207 -0.4336
  349MOL0     C47008   8.747   5.607   9.081 -0.0244  0.9453 -0.0765
  349MOL0     C47009   8.862   5.708   9.084  0.2013  0.3249 -0.3108
  349MOL0     O47010   8.870   5.806   9.182  0.2584 -0.4429 -1.0281
  349MOL0     C47011   8.983   5.886   9.199 -0.3018  0.4183  0.4724
  349MOL0     C47012   8.973   6.028   9.209 -0.0776 -0.1031  0.7059
  349MOL0     C47013   9.083   6.113   9.232  0.5656  0.4202  0.4376
  349MOL0     C47014   9.210   6.059   9.241 -0.3964  0.3446 -0.5436
  349MOL0     O47015   9.318   6.140   9.257  0.5492  0.5168  0.4469
  349MOL0     C47016   9.451   6.084   9.283  0.3402 -0.6504  0.1247
  349MOL0     C47017   9.539   6.204   9.334 -0.3701 -0.3969  0.1691
  349MOL0     C47018   9.683   6.171   9.354  0.1212  0.2645  0.7726
  349MOL0     C47019   9.768   6.291   9.327  0.4779  0.2685 -0.3515
  349MOL0     C47020   9.917   6.260   9.363 -0.5680 -0.1775  0.3217
  349MOL0     C47021  10.016   6.381   9.334  0.2418 -0.4898  0.5353
  349MOL0     C47022  10.146   6.380   9.409 -0.3172 -0.0823  0.5477
  349MOL0     C47023  10.227   6.501   9.377  0.7450 -0.3933  1.1524
  349MOL0    Cl47024  10.134   6.664   9.366  0.3893  0.2654  0.0560
  349MOL0     C47025   9.219   5.914   9.238 -0.0706  0.1243 -0.2164
  349MOL0     C47026   9.113   5.831   9.212 -0.6210 -0.5563 -0.2707
  349MOL0     O47027   8.948   5.690   8.993  0.3895  0.5458 -0.6079
  349MOL0     C47028   8.710   5.536   8.963 -0.8999  0.3292 -0.2789
  349MOL0     C47029   8.609   5.440   8.963  1.0953  0.1185  0.6840
  349MOL0     N47030   7.864   5.420   9.052  0.0191 -0.6772 -0.0488
  349MOL0     N47031   7.757   5.349   9.030 -0.2105 -0.3688 -0.0211
  349MOL0     C47032   6.581   5.162   9.499 -0.2189 -1.0009  0.8551
  349MOL0     C47033   6.445   5.179   9.518 -0.1269 -0.0516  0.5466
  349MOL0     C47034   5.996   5.028   9.511 -0.4394 -0.5683 -0.7133
  349MOL0     C47035   5.940   5.115   9.417 -0.2595 -0.0375 -0.4677
  349MOL0     C47036   5.801   5.137   9.404 -1.3979 -0.0927  0.3546
  349MOL0     C47037   5.703   5.071   9.473 -0.2162 -0.3154 -0.3827
  349MOL0     O47038   5.569   5.101   9.486 -0.1621 -0.0240 -0.4457
  349MOL0     C47039   5.507   5.191   9.397  0.4303  0.1740  0.4591
  349MOL0     C47040   5.356   5.172   9.383  0.2646  0.0135 -0.2302
  349MOL0     C47041   5.303   5.032   9.337  0.4236  0.4019 -0.3357
  349MOL0     C47042   5.344   4.987   9.196 -0.6937 -0.2925  0.2547
  349MOL0     C47043   5.226   4.994   9.110 -0.2112 -0.1167  0.2623
  349MOL0     C47044   5.141   5.007   9.022 -1.0443  0.4232 -0.2177
  349MOL0     C47045   5.757   4.965   9.548 -0.0813  0.2199  0.8272
  349MOL0     C47046   5.895   4.938   9.557 -0.7476  0.7614  0.6562
  349MOL0     C47047   5.929   4.817   9.638  0.4606  0.5932 -0.5637
  349MOL0     H47048   6.342   4.963   9.273  1.6858 -1.6127 -0.0324
  349MOL0     H47049   6.590   4.908   9.282  0.5065 -1.5285  1.4941
  349MOL0     H47050   6.835   5.244   9.430 -0.0216 -0.1186  2.0599
  349MOL0     H47051   6.852   5.138   9.569  4.6320 -0.9569  1.3426
  349MOL0     H47052   7.008   5.003   9.410  1.1225  0.0001 -1.6480
  349MOL0     H47053   7.070   5.161   9.468  1.3961  0.4890 -0.6988
  349MOL0     H47054   6.998   5.246   9.236 -0.7891 -0.4313 -3.7202
  349MOL0     H47055   6.923   5.099   9.201  0.6898  1.7486 -2.7148
  349MOL0     H47056   7.162   4.988   9.194  2.7221  0.7016 -1.7242
  349MOL0     H47057   7.146   5.114   9.089 -1.8740 -0.2782  0.2495
  349MOL0     H47058   7.230   5.284   9.219 -0.1933  0.4728  3.4905
  349MOL0     H47059   7.287   5.193   9.355  3.2951  1.8197 -0.6952
  349MOL0     H47060   7.419   5.039   9.192  0.6046 -1.4389 -2.7239
  349MOL0     H47061   7.366   5.142   9.070  0.1404 -0.8057  0.2012
  349MOL0     H47062   7.525   5.244   9.317  0.4621  1.6049 -0.0902
  349MOL0     H47063   7.491   5.331   9.171  0.3810  0.6068  0.6491
  349MOL0     H47064   7.662   5.084   9.192  0.1431  0.2169  1.5384
  349MOL0     H47065   7.607   5.145   9.033 -1.4914  0.4524  0.3251
  349MOL0     H47066   7.821   5.237   9.324  1.3811  0.9976 -0.1417
  349MOL0     H47067   8.035   5.554   9.216 -1.1135  0.6660  1.8159
  349MOL0     H47068   8.024   5.440   9.345  2.1866 -1.3388  0.1040
  349MOL0     H47069   8.231   5.387   9.290 -0.2406 -2.2538 -0.6192
  349MOL0     H47070   8.156   5.267   9.193  1.8094  0.5177  1.8306
  349MOL0     H47071   8.269   5.545   9.104  0.3825  0.0822 -2.1061
  349MOL0     H47072   8.154   5.479   9.009  2.2194  2.8397 -0.5631
  349MOL0     H47073   8.356   5.405   8.908  0.3399  1.1221  1.2902
  349MOL0     H47074   8.269   5.260   8.974 -0.6863 -0.3340  1.5917
  349MOL0     H47075   8.519   5.460   9.281  3.7970 -2.6632  1.7979
  349MOL0     H47076   8.702   5.627   9.287  0.1251 -1.3743  0.7426
  349MOL0     H47077   8.880   6.083   9.201  2.6338  4.9969  0.0997
  349MOL0     H47078   9.073   6.220   9.242 -1.3662  0.2288  1.0921
  349MOL0     H47079   9.451   6.021   9.372 -0.5815 -0.0815  0.5418
  349MOL0     H47080   9.504   6.043   9.196  0.5112 -1.8753  0.7904
  349MOL0     H47081   9.530   6.292   9.271  0.7419 -1.3642 -1.4036
  349MOL0     H47082   9.504   6.238   9.432 -0.4653 -4.9800  2.0061
  349MOL0     H47083   9.692   6.124   9.453 -0.0173 -0.5007  0.4319
  349MOL0     H47084   9.710   6.097   9.278  1.3881  1.0376  0.4383
  349MOL0     H47085   9.740   6.372   9.394 -1.3345 -1.4358  1.0681
  349MOL0     H47086   9.762   6.312   9.219 -3.4905 -1.6973 -0.6981
  349MOL0     H47087   9.955   6.180   9.299  2.1029 -0.1712  1.7806
  349MOL0     H47088   9.938   6.237   9.468  2.1444  0.0006 -0.1078
  349MOL0     H47089  10.038   6.387   9.227 -2.4982  0.6746 -0.0559
  349MOL0     H47090   9.963   6.474   9.360 -0.4520 -0.7230 -0.0149
  349MOL0     H47091  10.202   6.287   9.403  0.5099  0.3405  1.4850
  349MOL0     H47092  10.125   6.380   9.516  2.4539 -0.4537  1.1557
  349MOL0     H47093  10.315   6.511   9.441  3.1929  1.8652 -2.1838
  349MOL0     H47094  10.266   6.487   9.276 -1.7624  0.6510 -0.0388
  349MOL0     H47095   9.309   5.856   9.257 -0.8456 -0.9641  0.2455
  349MOL0     H47096   9.118   5.722   9.216 -3.4526 -0.7536  0.0024
  349MOL0     H47097   8.758   5.562   8.869  0.1114  0.5510  0.2923
  349MOL0     H47098   8.590   5.374   8.879 -0.8314  1.4367  0.0186
  349MOL0     H47099   6.648   5.226   9.554 -1.0598  1.0397 -0.3978
  349MOL0     H47100   6.412   5.260   9.583 -1.2790  1.9693 -2.3567
  349MOL0     H47101   6.014   5.172   9.362  2.5276 -1.4118  1.5695
  349MOL0     H47102   5.774   5.206   9.324 -1.2167 -1.4856 -0.9540
  349MOL0     H47103   5.551   5.189   9.296 -4.5507 -1.4168 -1.9836
  349MOL0     H47104   5.519   5.292   9.437 -1.7142 -0.4168  2.8040
  349MOL0     H47105   5.323   5.249   9.312  3.1399  2.7635  1.1305
  349MOL0     H47106   5.314   5.199   9.480  3.1495  1.6721  0.6898
  349MOL0     H47107   5.196   5.024   9.354  0.2338  1.7289 -0.8413
  349MOL0     H47108   5.338   4.959   9.411 -0.2523 -0.0703 -0.4689
  349MOL0     H47109   5.414   5.055   9.146  1.3624 -1.4812  1.3632
  349MOL0     H47110   5.394   4.890   9.201 -2.4778 -1.2686 -0.2605
  349MOL0     H47111   5.087   5.008   8.930 -0.0742  0.8581 -0.7846
  349MOL0     H47112   5.684   4.916   9.612 -0.6659 -1.9021 -1.3314
  349MOL0     H47113   5.979   4.745   9.572 -0.3125 -0.0728 -0.4326
  349MOL0     H47114   5.997   4.851   9.716 -0.3837 -0.9651  0.9213
  349MOL0     H47115   5.843   4.769   9.685  0.9043  1.8599  1.6709
  350MOL0     O47116   7.530   8.327  11.142 -0.1173 -0.0790 -0.4474
  350MOL0     C47117   7.428   8.341  11.203  0.6212 -0.2195 -0.1976
  350MOL0     O47118   7.399   8.279  11.323  0.0634  0.0511  0.0870
  350MOL0     C47119   7.493   8.203  11.378  0.6260  0.6384 -0.1109
  350MOL0     C47120   7.547   8.090  11.309 -0.3907 -0.4137 -0.4372
  350MOL0     C47121   7.645   8.020  11.377 -0.1251 -0.3996 -0.1715
  350MOL0     C47122   7.679   8.044  11.512 -0.1321 -0.7361  0.8222
  350MOL0     O47123   7.766   7.983  11.591 -0.0424 -0.2436  0.8128
  350MOL0     C47124   7.885   7.936  11.527  0.1062  0.3939  0.0827
  350MOL0     C47125   7.974   7.908  11.638 -0.2623 -0.2293 -1.0066
  350MOL0     C47126   8.089   7.824  11.602  0.0754 -0.1206 -0.4008
  350MOL0     C47127   8.164   7.797  11.731  0.0603  0.1445  0.0044
  350MOL0     C47128   8.284   7.714  11.703  0.0008  0.4951  0.2459
  350MOL0     C47129   8.363   7.675  11.833 -0.3079 -0.8155  0.3246
  350MOL0     C47130   8.504   7.606  11.815 -0.1115 -0.3093 -0.1013
  350MOL0     C47131   8.507   7.481  11.728 -0.5550  0.7488  0.6927
  350MOL0     N47132   8.638   7.464  11.658 -0.4034 -0.4860  0.2164
  350MOL0     C47133   8.759   7.515  11.705 -0.3859  0.2958  0.8763
  350MOL0     C47134   8.840   7.505  11.591 -0.3685  0.7525 -0.7317
  350MOL0     C47135   8.988   7.557  11.587  1.0967  0.4484 -0.0255
  350MOL0     C47136   9.045   7.537  11.444  1.1945 -0.6294 -0.2756
  350MOL0     C47137   9.194   7.576  11.440  0.5020 -0.7348  0.0961
  350MOL0     C47138   9.286   7.476  11.501 -0.0244 -0.2026 -0.7506
  350MOL0     O47139   9.424   7.486  11.465 -0.3840  0.3880  0.4898
  350MOL0     C47140   9.502   7.454  11.569  0.0799  0.0813 -0.2037
  350MOL0     C47141   9.551   7.560  11.642  0.4000 -0.3071 -0.5886
  350MOL0     C47142   9.637   7.530  11.754  0.0153 -0.4294  0.6030
  350MOL0     C47143   9.701   7.401  11.763  0.2260 -0.2632 -0.6309
  350MOL0     C47144   9.791   7.371  11.877 -0.1585 -0.8329  0.2529
  350MOL0     O47145   9.780   7.451  11.990  0.3908 -0.3531 -0.0068
  350MOL0     C47146   9.866   7.426  12.100 -0.1769 -0.1397 -1.2891
  350MOL0     C47147   9.895   7.540  12.179 -0.3925 -0.3470  0.3700
  350MOL0     C47148   9.997   7.544  12.272  0.3452 -0.5040 -0.5618
  350MOL0     C47149  10.071   7.430  12.303  0.4918  0.5092 -0.0277
  350MOL0     O47150  10.156   7.439  12.408  0.4618 -0.7633  0.2590
  350MOL0     C47151  10.289   7.382  12.399 -0.4867  0.2370 -0.2956
  350MOL0     C47152  10.343   7.359  12.543 -0.3779 -0.1790 -0.0009
  350MOL0     C47153  10.498   7.317  12.562  0.2379  0.4468  0.1099
  350MOL0     C47154  10.561   7.368  12.696 -0.1395  0.1622 -1.2713
  350MOL0     C47155  10.710   7.318  12.727  0.3473  0.1868  0.1557
  350MOL0     C47156  10.716   7.172  12.712  0.0785 -0.6025 -1.2786
  350MOL0     C47157  10.849   7.121  12.750  0.9183 -0.0504  0.2209
  350MOL0     C47158  10.840   6.966  12.753  0.0022 -0.3727  0.6074
  350MOL0    Cl47159  10.997   6.908  12.827 -0.5065  0.5109  0.0405
  350MOL0     C47160  10.034   7.315  12.242  0.4060  0.1828  0.0616
  350MOL0     C47161   9.936   7.312  12.140  0.2694  0.2693  0.7271
  350MOL0     O47162   9.870   7.278  11.857  0.3048  0.7960 -0.3328
  350MOL0     C47163   9.663   7.304  11.671  0.5027  0.4472 -0.7838
  350MOL0     C47164   9.563   7.326  11.580  0.0099 -0.5439  1.0256
  350MOL0     N47165   8.763   7.450  11.492  0.4196  0.1949  0.5687
  350MOL0     N47166   8.641   7.426  11.525  0.3174  0.5937  0.6605
  350MOL0     C47167   7.608   8.145  11.577  0.3878 -0.8623 -0.3723
  350MOL0     C47168   7.517   8.229  11.512  0.5033  0.7893  0.4169
  350MOL0     C47169   7.325   8.426  11.135  0.2400  0.7358  0.2530
  350MOL0     C47170   7.365   8.544  11.077  0.1955 -0.2251 -0.7183
  350MOL0     C47171   7.270   8.633  11.024 -0.0721 -0.6478  0.5021
  350MOL0     C47172   7.132   8.607  11.025  0.3243 -0.1792  0.0771
  350MOL0     O47173   7.023   8.693  10.998  0.0735  0.2259 -0.0487
  350MOL0     C47174   7.054   8.836  10.983  0.5551 -0.1050 -0.4537
  350MOL0     C47175   6.927   8.918  11.003 -0.0869  1.2420 -0.1058
  350MOL0     C47176   6.819   8.865  10.903 -0.0655  0.2233 -0.0072
  350MOL0     C47177   6.702   8.968  10.901  0.1748  0.7110  0.2561
  350MOL0     C47178   6.621   8.941  10.779  0.8455  0.6147 -0.3658
  350MOL0     C47179   6.556   8.940  10.674 -0.4432  0.9764 -0.1340
  350MOL0     C47180   7.099   8.480  11.073  0.7568  0.5987 -0.2612
  350MOL0     C47181   7.191   8.390  11.124  0.0961 -0.3975  0.4603
  350MOL0     C47182   7.139   8.251  11.152  0.2031  0.2703  0.1107
  350MOL0     H47183   7.530   8.062  11.205 -2.7038 -2.4062  0.3872
  350MOL0     H47184   7.685   7.936  11.321  0.6778  0.0398 -0.2753
  350MOL0     H47185   7.867   7.853  11.459  0.0481  0.0505  0.5122
  350MOL0     H47186   7.926   8.016  11.465  0.2753 -1.0697 -1.7614
  350MOL0     H47187   7.919   7.852  11.715  3.3446 -1.6837  0.7919
  350MOL0     H47188   8.003   8.001  11.687 -1.3423 -0.8394  0.9328
  350MOL0     H47189   8.157   7.865  11.527 -3.1286 -0.2955 -3.6814
  350MOL0     H47190   8.049   7.730  11.562 -0.8508  1.0191 -2.2904
  350MOL0     H47191   8.202   7.895  11.763  2.5779  0.2395 -2.8060
  350MOL0     H47192   8.105   7.737  11.801 -0.4124 -2.6892 -2.6271
  350MOL0     H47193   8.246   7.629  11.646  0.3813  1.3814 -1.3959
  350MOL0     H47194   8.345   7.773  11.634 -0.9733  0.4240 -0.6978
  350MOL0     H47195   8.388   7.774  11.872  0.5026 -0.0711 -1.8874
  350MOL0     H47196   8.300   7.619  11.902  0.9721 -0.0036  2.2510
  350MOL0     H47197   8.529   7.576  11.917 -2.4418 -0.0169  0.6233
  350MOL0     H47198   8.570   7.684  11.775 -0.0340 -0.3056  0.0304
  350MOL0     H47199   8.488   7.401  11.799 -0.5899 -3.0782 -3.2258
  350MOL0     H47200   8.428   7.485  11.652 -0.2047  1.6821  0.3601
  350MOL0     H47201   8.779   7.550  11.806 -1.2054  0.5473  0.9560
  350MOL0     H47202   8.996   7.661  11.620  3.2761  0.7282 -1.2129
  350MOL0     H47203   9.051   7.496  11.652  0.4827 -0.7740 -0.5412
  350MOL0     H47204   9.027   7.430  11.428 -2.7103 -0.2663  0.6177
  350MOL0     H47205   8.997   7.597  11.367  1.1550 -3.6063 -2.7630
  350MOL0     H47206   9.210   7.674  11.486 -1.1431 -0.0033 -0.8268
  350MOL0     H47207   9.216   7.588  11.334 -0.1440  0.1747  0.0548
  350MOL0     H47208   9.257   7.375  11.469  0.6333 -0.5306 -0.3244
  350MOL0     H47209   9.281   7.488  11.609  1.0103  4.5510 -1.0197
  350MOL0     H47210   9.517   7.659  11.614  1.0400 -0.6401 -2.7009
  350MOL0     H47211   9.661   7.608  11.826 -0.7414  3.2697 -2.8069
  350MOL0     H47212   9.845   7.632  12.148  0.8209  0.3047  0.2676
  350MOL0     H47213  10.014   7.633  12.331 -1.1846  2.7641 -4.5129
  350MOL0     H47214  10.288   7.282  12.355  0.2144 -0.1736  0.5755
  350MOL0     H47215  10.352   7.452  12.344 -0.7871 -0.8478 -2.0859
  350MOL0     H47216  10.324   7.448  12.604 -0.7825 -1.6854  2.2176
  350MOL0     H47217  10.287   7.278  12.592 -3.2480  0.3359 -2.1971
  350MOL0     H47218  10.494   7.208  12.571  0.2703  0.5152  1.1317
  350MOL0     H47219  10.558   7.348  12.476 -0.5736 -2.0718 -1.4879
  350MOL0     H47220  10.506   7.329  12.782  0.2947  1.6151 -0.2992
  350MOL0     H47221  10.569   7.477  12.696 -1.0527  0.2835  0.9697
  350MOL0     H47222  10.737   7.353  12.827  0.9734  0.7468 -0.2013
  350MOL0     H47223  10.774   7.373  12.657 -0.5208  0.7907 -0.1769
  350MOL0     H47224  10.641   7.132  12.782  1.4489 -1.7534 -0.4013
  350MOL0     H47225  10.693   7.140  12.610 -1.6098  0.5450 -1.2821
  350MOL0     H47226  10.890   7.159  12.845  0.1839  0.3975  0.3616
  350MOL0     H47227  10.918   7.148  12.670  0.0343 -0.2742 -0.6366
  350MOL0     H47228  10.753   6.932  12.810 -0.7863  0.5670  0.0016
  350MOL0     H47229  10.834   6.924  12.652  1.8499 -4.8203  2.1075
  350MOL0     H47230  10.077   7.220  12.273 -1.8118 -0.2382  2.2107
  350MOL0     H47231   9.923   7.222  12.082 -1.5383 -0.1621  1.7455
  350MOL0     H47232   9.702   7.204  11.686 -2.3255 -0.5534  0.5411
  350MOL0     H47233   9.532   7.251  11.509  1.3699  1.9148 -2.4984
  350MOL0     H47234   7.630   8.160  11.682  2.3698 -2.0438 -0.5605
  350MOL0     H47235   7.452   8.306  11.553 -1.7712 -1.1237  0.6109
  350MOL0     H47236   7.472   8.560  11.085 -0.0092  0.3945  1.9286
  350MOL0     H47237   7.316   8.727  10.993  0.6292 -1.4015 -0.8259
  350MOL0     H47238   7.098   8.860  10.886 -0.4338  2.6887 -0.3243
  350MOL0     H47239   7.126   8.877  11.053 -0.7537  0.9446  0.3317
  350MOL0     H47240   6.956   9.019  10.972 -1.0893  1.4908 -0.2730
  350MOL0     H47241   6.902   8.913  11.109 -0.9780 -1.3502 -0.3852
  350MOL0     H47242   6.769   8.769  10.917 -1.8207  0.9217 -1.1213
  350MOL0     H47243   6.864   8.866  10.804 -1.1918 -0.7073 -0.5418
  350MOL0     H47244   6.641   8.968  10.992 -0.3461  0.7207 -0.0876
  350MOL0     H47245   6.733   9.071  10.884 -0.9300  1.3193  1.6804
  350MOL0     H47246   6.485   8.928  10.595 -3.0030 -3.3906  2.4313
  350MOL0     H47247   6.998   8.445  11.057  0.8374  0.0183  0.4321
  350MOL0     H47248   7.094   8.207  11.063  0.8187  2.2512 -1.2558
  350MOL0     H47249   7.223   8.186  11.178  0.5533 -2.0747 -5.4300
  350MOL0     H47250   7.059   8.249  11.226  0.9246 -0.8247  0.8974
  351MOL0     O47251   0.979  10.154   4.344 -0.7236 -0.3207  0.5284
  351MOL0     C47252   0.911  10.234   4.276 -0.4104  0.7562  0.2213
  351MOL0     O47253   0.964  10.324   4.190  0.5037 -0.4771 -1.0013
  351MOL0     C47254   1.097  10.341   4.178 -0.8096  0.0926 -0.8538
  351MOL0     C47255   1.185  10.309   4.071 -0.3633 -0.0286 -0.0343
  351MOL0     C47256   1.319  10.363   4.062 -0.7928 -0.0890  0.6436
  351MOL0     C47257   1.373  10.445   4.156 -0.0383 -0.3657 -0.7065
  351MOL0     O47258   1.492  10.519   4.158 -0.4442  0.2586  0.6391
  351MOL0     C47259   1.604  10.450   4.092 -0.1466 -0.8103  0.0099
  351MOL0     C47260   1.730  10.536   4.120  0.3470  0.4148 -0.3427
  351MOL0     C47261   1.855  10.475   4.055  0.3358  0.2422  0.4995
  351MOL0     C47262   1.979  10.564   4.092 -1.4073 -0.4156 -0.2085
  351MOL0     C47263   2.042  10.533   4.234  0.2659  0.2195 -0.4869
  351MOL0     C47264   2.176  10.601   4.216 -0.0166 -0.2499 -0.4466
  351MOL0     C47265   2.244  10.597   4.347 -0.7402  1.2355 -0.7327
  351MOL0     C47266   2.391  10.646   4.341  0.0218 -0.2575  0.5573
  351MOL0     N47267   2.467  10.561   4.243 -0.2549 -0.2936 -1.1125
  351MOL0     C47268   2.452  10.425   4.241 -0.2729  0.4424 -0.2061
  351MOL0     C47269   2.498  10.402   4.107 -0.5142 -0.4127 -0.3386
  351MOL0     C47270   2.476  10.281   4.021  0.4310  0.1412  0.4596
  351MOL0     C47271   2.337  10.280   3.968 -0.0555  0.9670  0.4789
  351MOL0     C47272   2.241  10.204   4.066 -0.0615 -0.0952  0.5138
  351MOL0     C47273   2.123  10.138   3.985  0.3276 -0.2034  0.4736
  351MOL0     O47274   2.022  10.078   4.074  0.1527 -0.1719  0.4385
  351MOL0     C47275   1.891  10.068   4.040  0.5356  0.0918  1.2187
  351MOL0     C47276   1.851  10.044   3.907 -0.3315 -0.7877 -0.3854
  351MOL0     C47277   1.723  10.028   3.862  0.6400 -0.0566 -0.0787
  351MOL0     C47278   1.624  10.021   3.965  0.2833 -0.2231  0.1331
  351MOL0     C47279   1.486  10.002   3.938  0.1376 -0.5376  1.0578
  351MOL0     O47280   1.461   9.944   3.816  0.5807  0.0836  0.2316
  351MOL0     C47281   1.336   9.972   3.760 -0.4186 -0.5094  0.1685
  351MOL0     C47282   1.243   9.869   3.745  0.0187 -0.2861 -0.4089
  351MOL0     C47283   1.124   9.903   3.687 -0.0629  0.5181  0.0424
  351MOL0     C47284   1.088  10.036   3.651 -0.2981 -0.3037  0.3480
  351MOL0     O47285   0.974  10.072   3.588  0.2703  0.3018  0.0513
  351MOL0     C47286   0.887   9.974   3.521 -0.0193  0.1847 -0.7523
  351MOL0     C47287   0.758  10.030   3.471  1.3599 -0.1942  0.9111
  351MOL0     C47288   0.656   9.917   3.443 -0.2449 -0.0177 -0.0932
  351MOL0     C47289   0.540   9.948   3.350 -0.1515  0.2101  0.3003
  351MOL0     C47290   0.465   9.826   3.302  0.7226  0.7095  0.3676
  351MOL0     C47291   0.541   9.782   3.180 -0.0805 -0.2879  0.5417
  351MOL0     C47292   0.511   9.630   3.157  0.4238 -0.2909 -0.3004
  351MOL0     C47293   0.607   9.537   3.234  0.5652  0.9076  0.5422
  351MOL0    Cl47294   0.559   9.356   3.210 -0.1324  0.0612  0.2733
  351MOL0     C47295   1.186  10.127   3.670 -0.3353 -0.5975 -0.4076
  351MOL0     C47296   1.310  10.104   3.725  1.1609 -0.2505 -0.2524
  351MOL0     O47297   1.407  10.052   4.015  0.4203 -0.6808 -0.4930
  351MOL0     C47298   1.657  10.036   4.099 -0.9557  0.0421 -0.0955
  351MOL0     C47299   1.791  10.065   4.133 -0.6842  0.4471  0.0654
  351MOL0     N47300   2.539  10.518   4.047 -0.0334  0.4310  0.6214
  351MOL0     N47301   2.513  10.608   4.125 -0.0377 -0.3429 -0.2454
  351MOL0     C47302   1.290  10.470   4.273  0.5141  0.3864  0.0530
  351MOL0     C47303   1.160  10.412   4.286 -0.1233 -0.3553 -0.2578
  351MOL0     C47304   0.762  10.224   4.308 -0.1229 -0.1242  0.9762
  351MOL0     C47305   0.724  10.185   4.442  0.0661 -0.2521  0.8269
  351MOL0     C47306   0.596  10.178   4.473  0.2014 -0.4009  0.0965
  351MOL0     C47307   0.494  10.193   4.383  1.2953  0.4170  0.4205
  351MOL0     O47308   0.356  10.172   4.414  0.1156 -0.4958 -0.3586
  351MOL0     C47309   0.338  10.066   4.505 -0.1403  0.3325 -0.3223
  351MOL0     C47310   0.183  10.058   4.533  0.1145  0.0214  0.4311
  351MOL0     C47311   0.126   9.967   4.423 -0.3940  0.5285 -0.3440
  351MOL0     C47312  -0.018   9.933   4.459 -0.0864  0.0991  0.1124
  351MOL0     C47313  -0.068   9.830   4.372 -0.0930  0.2407 -0.4925
  351MOL0     C47314  -0.125   9.755   4.290 -1.2624  0.0666 -0.2619
  351MOL0     C47315   0.528  10.236   4.258  0.3522  0.4132  0.0891
  351MOL0     C47316   0.659  10.251   4.211  0.6640 -0.8228  0.0308
  351MOL0     C47317   0.670  10.303   4.073  0.1766  0.0840  0.4338
  351MOL0     H47318   1.139  10.251   3.993 -0.2057 -1.4877  0.9234
  351MOL0     H47319   1.386  10.339   3.980 -0.7438  2.2224 -0.0561
  351MOL0     H47320   1.619  10.348   4.129 -0.7716 -0.5662  0.9829
  351MOL0     H47321   1.588  10.453   3.984  0.2737  0.7390 -0.0254
  351MOL0     H47322   1.748  10.540   4.228 -2.2502 -0.6313  0.2080
  351MOL0     H47323   1.706  10.639   4.092 -0.0969  1.4900  3.3564
  351MOL0     H47324   1.850  10.459   3.947 -0.9320  0.5972  0.4862
  351MOL0     H47325   1.884  10.372   4.081  1.3064  0.3973  0.0474
  351MOL0     H47326   2.048  10.541   4.010 -2.2475 -0.2123 -0.9840
  351MOL0     H47327   1.952  10.670   4.087  0.3492  0.1383  1.1965
  351MOL0     H47328   1.977  10.576   4.311 -1.9334 -2.3387 -0.7915
  351MOL0     H47329   2.063  10.431   4.265  1.6035  0.5298 -0.3133
  351MOL0     H47330   2.219  10.537   4.138 -3.1457 -0.1546 -2.4096
  351MOL0     H47331   2.157  10.706   4.190 -0.2614 -0.6825 -2.1139
  351MOL0     H47332   2.251  10.493   4.379  2.4614  2.2710  2.6276
  351MOL0     H47333   2.182  10.648   4.421 -1.0591 -1.9587  1.3967
  351MOL0     H47334   2.392  10.747   4.298 -4.0525  0.0407  0.8317
  351MOL0     H47335   2.435  10.654   4.440 -3.9477 -1.7013  2.6544
  351MOL0     H47336   2.403  10.350   4.303 -1.2909 -0.2001 -1.7345
  351MOL0     H47337   2.541  10.277   3.933 -0.2779 -0.2070 -0.0535
  351MOL0     H47338   2.505  10.190   4.075  0.5424 -1.2970 -1.9180
  351MOL0     H47339   2.304  10.380   3.941  1.0425  1.7922  2.0390
  351MOL0     H47340   2.339  10.223   3.875  0.4618  0.2948  0.8933
  351MOL0     H47341   2.192  10.272   4.136 -1.1089 -1.6104  1.3058
  351MOL0     H47342   2.292  10.123   4.118  2.1751 -0.3015 -1.7936
  351MOL0     H47343   2.166  10.063   3.917  2.1188  1.1276  0.0682
  351MOL0     H47344   2.073  10.219   3.932  0.2779 -0.3255  0.3306
  351MOL0     H47345   1.933  10.038   3.835  0.1496  2.4293 -0.2357
  351MOL0     H47346   1.704  10.017   3.756  0.4313 -0.4129 -0.0069
  351MOL0     H47347   1.265   9.764   3.756  0.1182 -0.4330 -1.8629
  351MOL0     H47348   1.063   9.817   3.658  1.7158 -0.1491 -1.9875
  351MOL0     H47349   0.942   9.937   3.433  2.2190  0.9842  0.2282
  351MOL0     H47350   0.861   9.894   3.590 -1.5399  2.2912  1.2624
  351MOL0     H47351   0.715  10.111   3.531  2.4620 -1.3565  3.4069
  351MOL0     H47352   0.790  10.067   3.373 -0.9022  0.4433  0.3431
  351MOL0     H47353   0.710   9.836   3.392  1.2535  1.5585 -1.1373
  351MOL0     H47354   0.611   9.890   3.539 -1.3483  2.6176  0.2293
  351MOL0     H47355   0.575  10.014   3.270 -0.6087 -0.5288 -0.5293
  351MOL0     H47356   0.465   9.999   3.411 -0.5147 -2.0043  1.8401
  351MOL0     H47357   0.363   9.859   3.284  0.2359 -1.8158 -2.2423
  351MOL0     H47358   0.458   9.745   3.375  0.7553  0.2137 -0.1622
  351MOL0     H47359   0.501   9.835   3.094  1.1542 -0.4724 -0.1734
  351MOL0     H47360   0.650   9.790   3.182 -0.2010  1.7537  0.4780
  351MOL0     H47361   0.526   9.614   3.050  1.9320  0.9576 -0.3057
  351MOL0     H47362   0.407   9.625   3.190  0.7333  3.2568  1.5976
  351MOL0     H47363   0.705   9.541   3.187 -0.2430  1.3332 -1.1613
  351MOL0     H47364   0.622   9.568   3.338  2.1736 -0.3119  0.7045
  351MOL0     H47365   1.176  10.234   3.655  1.4327 -0.0099  1.8827
  351MOL0     H47366   1.378  10.188   3.729 -1.7646  2.3213 -0.1874
  351MOL0     H47367   1.583  10.035   4.179  0.8462 -2.7039  1.7306
  351MOL0     H47368   1.817  10.084   4.237 -4.5788 -0.8900  1.4781
  351MOL0     H47369   1.324  10.549   4.339 -1.6249  1.7384 -0.3723
  351MOL0     H47370   1.115  10.444   4.379  1.1017  3.2062 -0.7341
  351MOL0     H47371   0.789  10.157   4.525  1.3979 -1.8818 -0.6899
  351MOL0     H47372   0.577  10.146   4.575 -0.3370 -0.2001  0.0591
  351MOL0     H47373   0.380  10.089   4.603 -0.0765 -1.0383 -0.0032
  351MOL0     H47374   0.363   9.969   4.461 -2.6595  0.5070 -2.3811
  351MOL0     H47375   0.134  10.156   4.529  0.8207  0.3532 -0.8438
  351MOL0     H47376   0.169  10.012   4.631 -0.7003 -1.7457 -0.4786
  351MOL0     H47377   0.167   9.866   4.414 -2.7843 -0.4190 -1.7084
  351MOL0     H47378   0.143  10.008   4.323 -1.2999 -0.0884 -0.7715
  351MOL0     H47379  -0.022   9.901   4.564 -0.4469 -0.1984  0.0119
  351MOL0     H47380  -0.080  10.023   4.454  0.9233  0.8554  0.8161
  351MOL0     H47381  -0.183   9.698   4.221 -1.0149  0.2716 -0.6476
  351MOL0     H47382   0.446  10.236   4.186 -0.7812  0.1422  1.3523
  351MOL0     H47383   0.579  10.353   4.039 -0.1137 -2.4653 -3.0691
  351MOL0     H47384   0.759  10.366   4.066  0.6710 -0.4803  1.3177
  351MOL0     H47385   0.691  10.215   4.010 -1.5331 -2.2446  2.8766
  352MOL0     O47386   6.213   0.881   0.703 -0.3005  0.3931  0.5704
  352MOL0     C47387   6.220   0.843   0.585  0.3289  0.1233 -0.3280
  352MOL0     O47388   6.316   0.887   0.500 -0.1999  0.3929  0.6930
  352MOL0     C47389   6.394   0.998   0.534  0.0756 -0.8670  0.1069
  352MOL0     C47390   6.501   0.987   0.617  0.4563 -0.2258 -0.6722
  352MOL0     C47391   6.592   1.087   0.646  0.8556 -0.0398 -0.1721
  352MOL0     C47392   6.568   1.220   0.589 -0.7336 -0.0792  0.2697
  352MOL0     O47393   6.648   1.329   0.587  0.1647 -0.0541  0.2255
  352MOL0     C47394   6.778   1.321   0.659 -0.0024 -0.1427  0.3595
  352MOL0     C47395   6.852   1.457   0.678  0.3477 -0.0091  0.0436
  352MOL0     C47396   6.965   1.444   0.778  0.1698  0.3658 -0.0318
  352MOL0     C47397   7.089   1.395   0.714  0.2816  0.0421 -0.1931
  352MOL0     C47398   7.206   1.409   0.812  0.4627  0.3232 -0.2676
  352MOL0     C47399   7.336   1.353   0.751  0.2122  0.4762  0.2379
  352MOL0     C47400   7.454   1.360   0.859 -0.1071 -0.2269  0.1890
  352MOL0     C47401   7.585   1.306   0.792  1.2144 -0.4029  0.2346
  352MOL0     N47402   7.694   1.318   0.887 -0.2753 -0.8029 -0.0295
  352MOL0     C47403   7.762   1.437   0.909  0.2234  0.1620 -0.0204
  352MOL0     C47404   7.862   1.404   0.988  0.3618  0.0420  0.2753
  352MOL0     C47405   7.964   1.497   1.049  0.2773 -0.3010 -0.5822
  352MOL0     C47406   8.037   1.420   1.163 -0.3705  0.5041  0.6304
  352MOL0     C47407   8.135   1.512   1.236  0.3125 -0.2873  0.5970
  352MOL0     C47408   8.277   1.525   1.163 -0.3901 -0.5034  0.3800
  352MOL0     O47409   8.360   1.600   1.252 -1.1572  0.3511  0.0042
  352MOL0     C47410   8.472   1.653   1.197  0.2129  0.1630 -0.1988
  352MOL0     C47411   8.579   1.584   1.140 -0.5413  0.5452 -0.2882
  352MOL0     C47412   8.699   1.654   1.100 -0.1323  0.1393 -0.7066
  352MOL0     C47413   8.718   1.786   1.139 -1.2329 -0.5320  1.4580
  352MOL0     C47414   8.845   1.856   1.110  1.0542  1.1612 -0.3777
  352MOL0     O47415   8.861   1.983   1.160 -0.9948 -0.3791 -0.2062
  352MOL0     C47416   8.984   2.045   1.172 -0.9445  0.0344 -0.4926
  352MOL0     C47417   9.100   2.026   1.091 -0.0580 -0.2772 -0.3333
  352MOL0     C47418   9.218   2.105   1.123 -0.1737 -0.6083 -0.5885
  352MOL0     C47419   9.223   2.194   1.232 -0.0042  0.7986 -0.1145
  352MOL0     O47420   9.331   2.265   1.262 -0.1584 -0.5899  0.0538
  352MOL0     C47421   9.431   2.280   1.163 -0.5720 -0.2028  0.1190
  352MOL0     C47422   9.533   2.376   1.217  0.0926  0.0274  0.8609
  352MOL0     C47423   9.620   2.439   1.114  0.0490  0.1337 -1.1858
  352MOL0     C47424   9.734   2.507   1.183 -0.1786  0.2736  0.7983
  352MOL0     C47425   9.805   2.602   1.074  0.1414 -0.6482  0.3288
  352MOL0     C47426   9.949   2.633   1.106  0.3346 -0.1020 -0.4429
  352MOL0     C47427   9.977   2.725   1.232  0.3486  0.0052 -0.6120
  352MOL0     C47428  10.118   2.796   1.222  0.1355 -0.4545 -0.4917
  352MOL0    Cl47429  10.148   2.916   1.350  0.3670  0.4233 -0.3416
  352MOL0     C47430   9.108   2.202   1.307  0.1536  0.2004  0.0301
  352MOL0     C47431   8.986   2.134   1.275 -0.1980 -1.7389  0.3442
  352MOL0     O47432   8.932   1.785   1.060 -0.6786  0.2099 -0.7486
  352MOL0     C47433   8.611   1.859   1.194  0.3354 -0.4418 -0.0609
  352MOL0     C47434   8.486   1.789   1.214 -0.3397  0.1068 -0.8576
  352MOL0     N47435   7.855   1.272   1.017  0.1929  0.2223  0.8888
  352MOL0     N47436   7.750   1.216   0.953 -0.1072  0.5625  0.4591
  352MOL0     C47437   6.455   1.233   0.505  0.0524  0.6125 -0.8166
  352MOL0     C47438   6.362   1.128   0.481 -0.2089  0.2965 -0.8294
  352MOL0     C47439   6.149   0.717   0.550  0.4803 -0.9758 -0.0525
  352MOL0     C47440   6.169   0.658   0.425  0.1480 -0.2161 -0.0654
  352MOL0     C47441   6.092   0.546   0.383  0.2152  0.0453  0.3222
  352MOL0     C47442   5.988   0.504   0.455  0.7460  1.5207  1.0534
  352MOL0     O47443   5.912   0.402   0.400  0.6851 -0.3846 -0.3415
  352MOL0     C47444   5.820   0.442   0.303 -0.5080 -0.8131  0.8298
  352MOL0     C47445   5.679   0.434   0.349  0.4894  0.5694  0.4681
  352MOL0     C47446   5.590   0.521   0.262 -0.3077  0.4563 -0.8332
  352MOL0     C47447   5.587   0.460   0.121 -0.2448 -0.2994 -0.4540
  352MOL0     C47448   5.488   0.536   0.046 -0.0038  0.1993  0.1101
  352MOL0     C47449   5.390   0.587  -0.000 -0.0875 -0.1313 -0.4509
  352MOL0     C47450   5.975   0.539   0.581  0.0506 -0.6522  0.3723
  352MOL0     C47451   6.049   0.652   0.633  0.3510  0.6534 -1.2067
  352MOL0     C47452   6.005   0.698   0.775  0.1094 -0.0984  1.0570
  352MOL0     H47453   6.518   0.889   0.659  0.1353  0.2636  0.6784
  352MOL0     H47454   6.678   1.052   0.703  2.2760  0.7282 -1.7581
  352MOL0     H47455   6.760   1.269   0.753  2.3995  0.5914  1.3005
  352MOL0     H47456   6.849   1.257   0.605  0.0587  0.8257 -0.7414
  352MOL0     H47457   6.792   1.530   0.734  2.0401 -0.7539  3.0340
  352MOL0     H47458   6.894   1.504   0.589  1.5706  1.5519  1.3701
  352MOL0     H47459   6.944   1.388   0.870  1.7360 -2.7662 -1.4284
  352MOL0     H47460   6.988   1.540   0.825 -1.8445  0.9597 -0.1479
  352MOL0     H47461   7.073   1.290   0.688 -3.0450  0.6118 -0.8752
  352MOL0     H47462   7.119   1.461   0.631  1.0679  1.0204  0.8365
  352MOL0     H47463   7.225   1.515   0.829 -0.5731  0.4253  0.3652
  352MOL0     H47464   7.174   1.350   0.899 -1.2125  1.6456  0.0602
  352MOL0     H47465   7.322   1.247   0.728  0.2276  0.0138  2.1616
  352MOL0     H47466   7.360   1.403   0.657  0.1843  2.0092  1.0034
  352MOL0     H47467   7.427   1.285   0.935  2.5623  0.3226  1.8233
  352MOL0     H47468   7.475   1.459   0.901  0.8891  0.8141 -2.5722
  352MOL0     H47469   7.565   1.199   0.780  0.2104 -0.2338  0.2940
  352MOL0     H47470   7.602   1.348   0.692  1.0764  2.4039  1.3035
  352MOL0     H47471   7.746   1.538   0.871  0.1489 -0.6591 -2.2956
  352MOL0     H47472   8.033   1.525   0.968  2.2929 -1.1599  0.7584
  352MOL0     H47473   7.912   1.584   1.090 -4.1560 -1.6773 -2.7151
  352MOL0     H47474   7.968   1.397   1.245  2.3705  3.9475  4.3200
  352MOL0     H47475   8.084   1.326   1.133  0.4925  1.1765 -0.1773
  352MOL0     H47476   8.152   1.468   1.335 -0.1994  0.5297  1.0661
  352MOL0     H47477   8.090   1.611   1.248 -0.9955 -0.4533 -2.1957
  352MOL0     H47478   8.265   1.581   1.071 -2.5608 -1.3575  0.0810
  352MOL0     H47479   8.326   1.429   1.143  0.4706 -0.0835  0.4237
  352MOL0     H47480   8.568   1.476   1.133  0.4192  0.5406 -2.1300
  352MOL0     H47481   8.786   1.600   1.061 -0.4027  0.1464 -1.3402
  352MOL0     H47482   9.098   1.950   1.014 -1.0936 -2.1356  1.4023
  352MOL0     H47483   9.297   2.093   1.050 -1.2517 -0.4058 -1.8161
  352MOL0     H47484   9.472   2.187   1.122  0.1895  0.1341  0.0947
  352MOL0     H47485   9.383   2.333   1.081 -1.8907 -0.7441  0.5164
  352MOL0     H47486   9.478   2.453   1.272  1.5794  2.6175 -1.0752
  352MOL0     H47487   9.594   2.323   1.291  0.1073  2.0536  2.4178
  352MOL0     H47488   9.662   2.361   1.049  1.8868 -0.4627  0.6311
  352MOL0     H47489   9.564   2.519   1.064 -0.9994  0.4157  0.3699
  352MOL0     H47490   9.801   2.427   1.216  1.1979  0.8578 -0.4912
  352MOL0     H47491   9.705   2.564   1.272 -0.3378 -0.0239  0.9392
  352MOL0     H47492   9.755   2.697   1.054  0.3577 -1.0888 -2.7522
  352MOL0     H47493   9.798   2.538   0.986 -1.5526 -1.1682  0.7940
  352MOL0     H47494  10.012   2.544   1.116  1.4303  0.7957  1.1357
  352MOL0     H47495   9.988   2.681   1.015 -0.3048 -2.6814 -2.2092
  352MOL0     H47496   9.968   2.676   1.330  2.7760  0.3843 -0.1454
  352MOL0     H47497   9.894   2.797   1.234 -0.8470 -1.3403  1.1336
  352MOL0     H47498  10.196   2.720   1.227 -0.7520 -1.4260 -0.9781
  352MOL0     H47499  10.126   2.847   1.126 -2.7180 -0.7731 -0.9759
  352MOL0     H47500   9.114   2.269   1.392 -2.3394 -2.0727  2.1651
  352MOL0     H47501   8.892   2.157   1.325  0.3967  0.4986  0.5562
  352MOL0     H47502   8.610   1.964   1.222  0.3620  0.2051 -2.3295
  352MOL0     H47503   8.402   1.839   1.261  0.8963 -1.1986  3.1301
  352MOL0     H47504   6.444   1.325   0.448  1.8417  2.7477  2.0490
  352MOL0     H47505   6.280   1.137   0.411  0.7409  1.7690 -1.8146
  352MOL0     H47506   6.248   0.691   0.359 -1.6388  0.8816 -1.7529
  352MOL0     H47507   6.108   0.504   0.284 -1.0731  0.0198  0.1128
  352MOL0     H47508   5.816   0.383   0.212 -2.3279  1.7361 -0.9037
  352MOL0     H47509   5.839   0.546   0.274 -1.3908 -0.8057  0.2708
  352MOL0     H47510   5.678   0.487   0.445 -0.7610  1.5649 -0.0672
  352MOL0     H47511   5.646   0.330   0.353 -1.2057  1.1125  1.6631
  352MOL0     H47512   5.622   0.626   0.258  0.0115  0.3453 -1.2449
  352MOL0     H47513   5.490   0.526   0.306 -0.9494 -1.2549 -1.9837
  352MOL0     H47514   5.683   0.473   0.071  1.7888 -1.7615  2.7208
  352MOL0     H47515   5.551   0.357   0.124 -0.8477 -0.1296 -1.4669
  352MOL0     H47516   5.293   0.627  -0.021 -0.9535 -0.2111  2.9462
  352MOL0     H47517   5.898   0.487   0.637 -0.2251 -2.3618 -1.5035
  352MOL0     H47518   5.904   0.659   0.794  0.0237 -0.4634 -0.0378
  352MOL0     H47519   6.078   0.661   0.847  0.7335  1.8705  1.4951
  352MOL0     H47520   5.995   0.806   0.790 -2.7808  0.1522 -1.5365
  353MOL0     O47521   1.185   7.451  11.194  1.2473  0.2378 -0.2156
  353MOL0     C47522   1.086   7.481  11.261 -0.2610 -0.3582  0.2310
  353MOL0     O47523   1.077   7.467  11.397  0.3046  0.0988 -0.6942
  353MOL0     C47524   1.181   7.421  11.478 -0.6045 -0.0737 -0.0307
  353MOL0     C47525   1.275   7.321  11.440  1.0290  0.1363  0.3483
  353MOL0     C47526   1.374   7.283  11.525  0.0560  0.3502 -0.2014
  353MOL0     C47527   1.388   7.335  11.652  0.3367  0.6343  0.5095
  353MOL0     O47528   1.488   7.298  11.738  0.4252  0.9292  0.3275
  353MOL0     C47529   1.489   7.160  11.782 -0.5668  0.4746 -0.8482
  353MOL0     C47530   1.476   7.157  11.937  1.0760  0.8310 -0.0555
  353MOL0     C47531   1.345   7.214  11.983  0.5677 -0.4029 -0.4955
  353MOL0     C47532   1.316   7.155  12.125  0.0802 -0.5731  0.1052
  353MOL0     C47533   1.245   7.261  12.220 -0.7384  0.2856 -0.6730
  353MOL0     C47534   1.224   7.200  12.364 -0.3401  0.4123 -0.0548
  353MOL0     C47535   1.356   7.179  12.438  0.5541  0.3274  0.5453
  353MOL0     C47536   1.355   7.227  12.576  0.7401  0.3156  0.4921
  353MOL0     N47537   1.485   7.204  12.641 -0.7720 -0.0902  0.3125
  353MOL0     C47538   1.615   7.191  12.584  0.7876  0.1154  0.0337
  353MOL0     C47539   1.698   7.158  12.681  0.2422  0.1128 -0.2630
  353MOL0     C47540   1.858   7.165  12.687  0.8924 -0.1845 -0.4331
  353MOL0     C47541   1.895   7.285  12.770  0.5205 -0.3625 -0.7755
  353MOL0     C47542   2.040   7.279  12.810 -0.1291  0.4495  0.0699
  353MOL0     C47543   2.077   7.385  12.919 -0.0864 -0.5256 -0.0966
  353MOL0     O47544   2.118   7.513  12.852 -0.0549  0.4781  0.0400
  353MOL0     C47545   2.202   7.598  12.906 -1.0530  0.2490  0.6281
  353MOL0     C47546   2.257   7.584  13.034  0.1703 -1.2885 -0.7726
  353MOL0     C47547   2.363   7.674  13.069  0.2557 -0.8830 -0.9156
  353MOL0     C47548   2.408   7.770  12.979  0.0738 -0.7530 -0.4549
  353MOL0     C47549   2.514   7.863  13.019  0.1510 -0.2464  0.4701
  353MOL0     O47550   2.568   7.841  13.143  0.1489 -0.8363 -0.4470
  353MOL0     C47551   2.646   7.939  13.194 -0.1636 -0.2802 -0.2470
  353MOL0     C47552   2.576   8.051  13.249  0.7535  0.7644 -0.0473
  353MOL0     C47553   2.645   8.164  13.290  0.0735  0.8505  0.4716
  353MOL0     C47554   2.789   8.178  13.286  0.2294 -0.1441  0.4352
  353MOL0     O47555   2.842   8.301  13.334 -0.0480 -0.0244  0.2147
  353MOL0     C47556   2.987   8.314  13.330  0.3335  0.2338 -0.0567
  353MOL0     C47557   3.035   8.455  13.353 -0.8778 -0.4000  0.9127
  353MOL0     C47558   3.174   8.444  13.416 -1.1082  0.1444  0.9891
  353MOL0     C47559   3.262   8.566  13.374  0.1049  0.5027  0.2128
  353MOL0     C47560   3.384   8.561  13.462 -0.3560  0.6585 -0.3497
  353MOL0     C47561   3.486   8.661  13.401 -0.0380 -0.7551 -0.5165
  353MOL0     C47562   3.605   8.675  13.502 -0.0953  0.5544  0.2940
  353MOL0     C47563   3.739   8.713  13.433  0.0522  0.2485 -0.9051
  353MOL0    Cl47564   3.870   8.744  13.554  0.3637 -0.3256  0.0806
  353MOL0     C47565   2.857   8.065  13.226  0.4513 -0.9067 -0.4167
  353MOL0     C47566   2.786   7.954  13.175 -0.4558  0.1959  0.4853
  353MOL0     O47567   2.550   7.953  12.945  0.0891 -0.4911  0.1201
  353MOL0     C47568   2.342   7.788  12.851  0.5277 -0.5488  0.8303
  353MOL0     C47569   2.237   7.698  12.813 -0.1571 -0.2760  0.0044
  353MOL0     N47570   1.631   7.137  12.795  0.4472 -0.1956 -0.3276
  353MOL0     N47571   1.508   7.166  12.767  0.1341 -0.2166  0.6320
  353MOL0     C47572   1.296   7.432  11.694  0.5877  0.9836 -1.1071
  353MOL0     C47573   1.198   7.475  11.608 -0.1289  0.3437  0.1297
  353MOL0     C47574   0.971   7.540  11.195  0.0964 -0.3004 -0.7274
  353MOL0     C47575   0.873   7.593  11.284  1.0713  0.0771 -0.7722
  353MOL0     C47576   0.757   7.659  11.231 -0.1950  0.6194  0.1070
  353MOL0     C47577   0.740   7.656  11.097  0.1134 -0.6089  0.0632
  353MOL0     O47578   0.624   7.733  11.055  0.0186 -0.6093  0.5811
  353MOL0     C47579   0.543   7.672  10.950 -0.3894  0.5819  0.4968
  353MOL0     C47580   0.497   7.536  10.991  0.9367 -0.2977 -0.9941
  353MOL0     C47581   0.360   7.497  10.927 -0.5513 -0.3861 -0.3819
  353MOL0     C47582   0.324   7.349  10.949 -0.0876  0.3478  0.2166
  353MOL0     C47583   0.286   7.316  11.086  0.5265  0.0038 -0.3490
  353MOL0     C47584   0.263   7.293  11.204  0.2932  0.2268  0.1113
  353MOL0     C47585   0.841   7.615  11.009  0.0010  0.0410 -0.2717
  353MOL0     C47586   0.950   7.553  11.063 -0.3473 -0.0749  0.9073
  353MOL0     C47587   1.056   7.519  10.958  0.6506  0.7973 -0.1652
  353MOL0     H47588   1.249   7.276  11.344 -2.4557 -0.3068  1.3698
  353MOL0     H47589   1.437   7.202  11.491  1.3964  1.5088 -0.6271
  353MOL0     H47590   1.409   7.099  11.737 -2.7179  1.0322  1.9254
  353MOL0     H47591   1.588   7.131  11.746  0.1868  3.7729 -1.8661
  353MOL0     H47592   1.552   7.227  11.972 -0.9218  2.9408  0.2955
  353MOL0     H47593   1.488   7.056  11.978 -0.1900  0.5193 -0.3863
  353MOL0     H47594   1.264   7.182  11.916  0.1797 -1.7089  0.5533
  353MOL0     H47595   1.339   7.323  11.984 -0.6406 -0.3714 -3.4624
  353MOL0     H47596   1.252   7.066  12.126 -1.8002  0.7167  0.7251
  353MOL0     H47597   1.417   7.140  12.163  0.0420  1.4177  1.1070
  353MOL0     H47598   1.319   7.341  12.216  0.6490 -0.9860 -1.3482
  353MOL0     H47599   1.152   7.300  12.177 -0.5445  1.6348  0.0752
  353MOL0     H47600   1.157   7.271  12.414 -0.8278 -0.1777  0.1394
  353MOL0     H47601   1.185   7.099  12.353  1.5357 -0.4212  0.5992
  353MOL0     H47602   1.440   7.230  12.389  0.1720 -1.2318 -1.9473
  353MOL0     H47603   1.366   7.070  12.432 -1.1030  0.2171 -0.9649
  353MOL0     H47604   1.326   7.331  12.561 -1.8146 -0.6538 -2.3806
  353MOL0     H47605   1.277   7.170  12.629 -2.2133 -0.9179 -4.4871
  353MOL0     H47606   1.640   7.222  12.483 -0.3340 -0.3681 -0.4163
  353MOL0     H47607   1.897   7.071  12.725  3.3131  0.8522 -0.1720
  353MOL0     H47608   1.893   7.177  12.584 -0.9454  1.0645 -0.9688
  353MOL0     H47609   1.873   7.372  12.708 -1.1648 -0.7325 -0.7326
  353MOL0     H47610   1.835   7.289  12.861  1.6628  0.0690 -0.0128
  353MOL0     H47611   2.105   7.278  12.723  0.4635  0.3901  0.5072
  353MOL0     H47612   2.054   7.181  12.856 -0.5482  1.8800  3.5579
  353MOL0     H47613   2.165   7.343  12.969 -0.4497  0.4348  1.3930
  353MOL0     H47614   1.994   7.408  12.987 -0.2354  0.8371 -0.7010
  353MOL0     H47615   2.227   7.499  13.095 -1.9897 -0.2540 -0.3258
  353MOL0     H47616   2.404   7.655  13.168 -2.6815 -0.2436  0.5508
  353MOL0     H47617   2.470   8.036  13.269  1.3969 -0.4930  3.0258
  353MOL0     H47618   2.591   8.247  13.335 -2.4123  1.1841 -2.7385
  353MOL0     H47619   3.017   8.252  13.415 -1.1862 -0.3623  0.0768
  353MOL0     H47620   3.034   8.282  13.236 -0.6167  0.1756 -0.5202
  353MOL0     H47621   3.031   8.522  13.267 -2.5148 -0.9261  0.5318
  353MOL0     H47622   2.971   8.511  13.423  0.7188  1.8179  0.7022
  353MOL0     H47623   3.173   8.421  13.523  0.1154  0.5164  1.0990
  353MOL0     H47624   3.226   8.356  13.377  0.7875  1.5951  0.0627
  353MOL0     H47625   3.213   8.664  13.379 -0.5346  0.1996  0.0428
  353MOL0     H47626   3.293   8.547  13.271 -0.1833  0.7643  0.0783
  353MOL0     H47627   3.423   8.460  13.470 -0.2340  0.6600 -0.9004
  353MOL0     H47628   3.359   8.584  13.566 -2.6307 -0.5221 -0.5798
  353MOL0     H47629   3.525   8.628  13.305  0.7063  2.0308 -1.2770
  353MOL0     H47630   3.448   8.764  13.396  1.3509  0.0285  2.3149
  353MOL0     H47631   3.607   8.574  13.542 -1.4012 -0.2615 -1.5323
  353MOL0     H47632   3.569   8.744  13.579  0.6356  1.4253 -0.1188
  353MOL0     H47633   3.771   8.636  13.363  1.4058  0.3306 -0.4116
  353MOL0     H47634   3.726   8.802  13.371 -1.7685  1.0017  0.4727
  353MOL0     H47635   2.965   8.074  13.228  0.3504  0.4675  1.6766
  353MOL0     H47636   2.844   7.886  13.113 -2.3052 -0.6736 -0.3686
  353MOL0     H47637   2.373   7.866  12.783 -2.2334 -1.1656 -1.3121
  353MOL0     H47638   2.187   7.703  12.717  1.7991  2.2394 -1.0117
  353MOL0     H47639   1.302   7.466  11.797  2.0765 -2.2672  0.0407
  353MOL0     H47640   1.115   7.537  11.641  1.3326  2.8841 -0.6956
  353MOL0     H47641   0.885   7.605  11.391  0.6336  1.4214 -0.8535
  353MOL0     H47642   0.680   7.709  11.289 -0.1380 -0.1749  0.8887
  353MOL0     H47643   0.606   7.671  10.860  2.7808  3.7904  2.4371
  353MOL0     H47644   0.459   7.738  10.926 -0.3990  0.4252  0.0897
  353MOL0     H47645   0.474   7.539  11.098 -0.6701 -1.8310 -1.2486
  353MOL0     H47646   0.562   7.451  10.966  1.3086  0.4368 -2.6360
  353MOL0     H47647   0.367   7.506  10.818 -1.7802  2.8587 -0.2957
  353MOL0     H47648   0.273   7.560  10.948 -0.7719 -0.3197 -1.4222
  353MOL0     H47649   0.246   7.310  10.884  1.1424  1.7506 -2.3062
  353MOL0     H47650   0.417   7.294  10.932  0.2006  1.0411 -0.5565
  353MOL0     H47651   0.234   7.264  11.303 -0.6963  1.7681  0.3081
  353MOL0     H47652   0.834   7.622  10.901  1.4311  2.4333 -0.2938
  353MOL0     H47653   1.129   7.600  10.968 -0.4400  2.1448 -2.2214
  353MOL0     H47654   1.113   7.428  10.974  1.0987  1.3452  1.6163
  353MOL0     H47655   1.028   7.526  10.852 -1.9341 -0.5645  0.3319
  354MOL0     O47656   4.076   8.738  10.837 -0.0289 -0.1347 -0.6694
  354MOL0     C47657   4.068   8.623  10.880  0.0908 -0.2304  0.6161
  354MOL0     O47658   3.982   8.526  10.816  0.0112  0.0656  0.4347
  354MOL0     C47659   3.907   8.553  10.712  0.3732 -0.3515 -0.2195
  354MOL0     C47660   3.782   8.611  10.736  0.4412 -0.6248  0.3600
  354MOL0     C47661   3.695   8.628  10.625  0.3699  0.0685  0.5205
  354MOL0     C47662   3.740   8.604  10.492  0.1949  0.2897 -0.4754
  354MOL0     O47663   3.655   8.628  10.383  0.0240  0.4372 -0.5514
  354MOL0     C47664   3.540   8.550  10.376 -0.1529 -0.0763 -0.6999
  354MOL0     C47665   3.525   8.504  10.231  0.0022 -0.5142  0.1573
  354MOL0     C47666   3.596   8.373  10.217  0.1502 -0.1728  0.7324
  354MOL0     C47667   3.614   8.302  10.080 -0.0210  0.0397  0.3651
  354MOL0     C47668   3.684   8.166  10.113 -0.0382 -0.8314  0.2619
  354MOL0     C47669   3.711   8.090   9.977  0.1971 -0.1394  0.0047
  354MOL0     C47670   3.815   7.985   9.990 -0.2319  0.4265  0.1846
  354MOL0     C47671   3.750   7.865  10.062  0.2719 -0.3869 -0.2929
  354MOL0     N47672   3.860   7.768  10.101 -0.1461 -0.0501  0.3707
  354MOL0     C47673   3.953   7.806  10.191  0.3811 -0.3076 -0.3239
  354MOL0     C47674   4.028   7.694  10.200 -0.0033  0.5414 -0.4563
  354MOL0     C47675   4.149   7.676  10.282  0.2351  0.2195 -0.3489
  354MOL0     C47676   4.127   7.617  10.425  0.4465 -0.1619 -0.3242
  354MOL0     C47677   4.099   7.466  10.414 -0.0759  0.6265  0.5891
  354MOL0     C47678   4.077   7.394  10.550  0.7911  0.0017 -0.0016
  354MOL0     O47679   4.178   7.419  10.653  0.2680 -0.5013  0.1082
  354MOL0     C47680   4.291   7.342  10.648  0.4317  0.7360  0.0672
  354MOL0     C47681   4.314   7.234  10.562 -0.7164 -0.2916  0.7948
  354MOL0     C47682   4.435   7.157  10.565  0.7451  0.3380  0.0222
  354MOL0     C47683   4.530   7.184  10.668 -1.0812 -0.0338 -0.4576
  354MOL0     C47684   4.647   7.100  10.677 -0.1670 -0.7317  0.3782
  354MOL0     O47685   4.741   7.153  10.755 -0.4712 -0.9623  0.1154
  354MOL0     C47686   4.865   7.094  10.763  0.1380  0.2631 -0.1444
  354MOL0     C47687   4.933   7.136  10.875  0.5101  0.6266  0.0221
  354MOL0     C47688   5.072   7.109  10.901 -0.8480 -0.2841  0.7492
  354MOL0     C47689   5.137   7.017  10.820 -0.4915 -0.0402 -0.4346
  354MOL0     O47690   5.263   6.966  10.835 -0.1664 -0.3500  0.1840
  354MOL0     C47691   5.347   7.014  10.932 -0.0774 -0.0248  0.8090
  354MOL0     C47692   5.502   6.969  10.916  0.2221 -0.0035 -0.0567
  354MOL0     C47693   5.585   7.042  11.022 -0.7332 -0.2286 -0.3461
  354MOL0     C47694   5.736   7.018  10.989  0.6788 -0.2622  0.9516
  354MOL0     C47695   5.830   7.110  11.066  0.2063  0.3326 -0.1406
  354MOL0     C47696   5.971   7.059  11.053 -0.6369  0.4445  0.0544
  354MOL0     C47697   6.082   7.160  11.084 -0.2299  0.6857 -0.7987
  354MOL0     C47698   6.214   7.131  11.010  0.3887  0.1019  0.3435
  354MOL0    Cl47699   6.343   7.201  11.097 -0.1135 -0.5955 -0.2618
  354MOL0     C47700   5.067   6.977  10.705 -0.5174  0.5586  0.0024
  354MOL0     C47701   4.935   7.021  10.669 -0.1847 -0.6508 -0.3371
  354MOL0     O47702   4.653   6.997  10.609 -0.1778 -0.2714  0.2965
  354MOL0     C47703   4.510   7.300  10.748  0.2015 -0.0902 -0.2743
  354MOL0     C47704   4.391   7.375  10.737  0.3338  0.3352  0.8908
  354MOL0     N47705   3.968   7.594  10.120 -0.0281 -0.1026  0.4700
  354MOL0     N47706   3.870   7.642  10.054  0.1169 -0.5005 -0.0180
  354MOL0     C47707   3.868   8.557  10.477 -0.1915 -0.4103 -0.5473
  354MOL0     C47708   3.948   8.529  10.588  0.0351  0.3199 -0.3557
  354MOL0     C47709   4.157   8.583  10.984 -0.3055 -0.1436  0.0644
  354MOL0     C47710   4.299   8.569  10.961  0.3736 -0.4994 -0.0354
  354MOL0     C47711   4.390   8.557  11.069 -0.0615 -0.0004  0.0613
  354MOL0     C47712   4.348   8.520  11.195  0.2627 -0.5324 -0.3323
  354MOL0     O47713   4.446   8.504  11.288 -0.0816  0.4592 -0.4998
  354MOL0     C47714   4.579   8.558  11.278  0.1090 -0.2558  0.0902
  354MOL0     C47715   4.560   8.705  11.293 -0.2875 -0.7087  0.1706
  354MOL0     C47716   4.704   8.763  11.296 -0.1342 -0.8654  0.6265
  354MOL0     C47717   4.707   8.920  11.275 -0.0946 -0.2150 -0.0864
  354MOL0     C47718   4.844   8.970  11.257 -0.1865 -0.4932 -0.8023
  354MOL0     C47719   4.950   9.025  11.274 -0.2917  0.4879  0.2729
  354MOL0     C47720   4.207   8.518  11.213 -0.5880  0.1641 -0.0450
  354MOL0     C47721   4.112   8.548  11.113  0.0220  0.0316 -0.2535
  354MOL0     C47722   3.964   8.567  11.154  0.1185 -0.1443 -0.9278
  354MOL0     H47723   3.743   8.627  10.836 -0.3992 -0.6907  0.0459
  354MOL0     H47724   3.594   8.667  10.633 -0.1649 -0.5428 -2.2881
  354MOL0     H47725   3.533   8.471  10.451 -0.9061  0.9847  0.3762
  354MOL0     H47726   3.463   8.623  10.404  0.2470 -0.3116  1.1561
  354MOL0     H47727   3.575   8.576  10.165  1.3837  0.5229  2.2367
  354MOL0     H47728   3.423   8.499  10.193 -0.1638  1.7708  0.1679
  354MOL0     H47729   3.543   8.301  10.279 -0.9259 -0.7679 -0.8086
  354MOL0     H47730   3.692   8.381  10.269  1.2278  0.5256 -1.2269
  354MOL0     H47731   3.520   8.276  10.030  1.0706 -0.7017 -1.3779
  354MOL0     H47732   3.684   8.344  10.008  0.3359 -0.6494  0.3003
  354MOL0     H47733   3.787   8.181  10.145  0.1915 -3.0132  0.6607
  354MOL0     H47734   3.619   8.114  10.184 -2.0002  1.5084  0.3088
  354MOL0     H47735   3.610   8.063   9.946 -0.4922  0.7784  1.3020
  354MOL0     H47736   3.757   8.158   9.905  0.6314 -0.5621 -0.1227
  354MOL0     H47737   3.902   8.028  10.041  0.8853  0.1222 -1.4080
  354MOL0     H47738   3.853   7.956   9.892 -1.3205  0.1078 -0.1503
  354MOL0     H47739   3.704   7.899  10.156  1.2450  1.8342 -0.5500
  354MOL0     H47740   3.683   7.812   9.995 -0.0205  0.7665 -0.9308
  354MOL0     H47741   3.958   7.897  10.250 -1.0196  0.5275 -1.4278
  354MOL0     H47742   4.219   7.618  10.221  1.3332  1.4734 -0.3434
  354MOL0     H47743   4.197   7.775  10.278 -0.3288  0.4755 -1.1351
  354MOL0     H47744   4.208   7.631  10.497 -0.6089  0.0926  0.8346
  354MOL0     H47745   4.036   7.663  10.465  0.8687 -0.9633  1.6649
  354MOL0     H47746   4.183   7.420  10.360 -0.9083 -0.0626 -0.1593
  354MOL0     H47747   4.006   7.452  10.359 -1.3719  1.5167  2.4648
  354MOL0     H47748   4.047   7.290  10.529  0.5556  0.6606 -3.6029
  354MOL0     H47749   3.981   7.433  10.585  0.9826  2.5273 -1.9848
  354MOL0     H47750   4.252   7.211  10.476  0.5767 -1.7210  0.1829
  354MOL0     H47751   4.461   7.077  10.496  2.4422  0.7007  0.1903
  354MOL0     H47752   4.891   7.209  10.943 -2.3708  0.4774 -1.4410
  354MOL0     H47753   5.108   7.165  10.987 -2.8120  1.9830  0.2220
  354MOL0     H47754   5.352   7.123  10.919  1.5140 -0.2746 -1.2201
  354MOL0     H47755   5.307   6.988  11.031  0.4634 -2.4388  0.4416
  354MOL0     H47756   5.517   6.861  10.914  0.3055 -0.0111  0.6470
  354MOL0     H47757   5.521   7.001  10.814  3.9579 -0.6964  0.3004
  354MOL0     H47758   5.559   7.148  11.016  2.4753  0.6520 -4.9890
  354MOL0     H47759   5.577   7.010  11.126  1.3068  1.9900  0.5927
  354MOL0     H47760   5.756   7.030  10.882  3.7736  0.5991  1.5125
  354MOL0     H47761   5.755   6.912  11.011  0.8866 -0.6293 -0.8617
  354MOL0     H47762   5.792   7.108  11.169 -1.6429 -3.2409 -0.7298
  354MOL0     H47763   5.825   7.206  11.015 -0.2290  1.0531  1.2280
  354MOL0     H47764   5.988   6.984  11.131  2.2511  2.0660  1.1312
  354MOL0     H47765   6.001   7.019  10.956  1.3552  0.1934  0.7258
  354MOL0     H47766   6.108   7.162  11.190  2.1374 -3.0998 -1.1390
  354MOL0     H47767   6.053   7.262  11.058  2.1408  2.0842  1.5778
  354MOL0     H47768   6.222   7.022  11.008 -1.4709 -0.1076 -2.9446
  354MOL0     H47769   6.205   7.146  10.902 -1.1798 -1.6140  0.1930
  354MOL0     H47770   5.121   6.909  10.642 -2.1032  0.5015 -1.3745
  354MOL0     H47771   4.894   7.001  10.570  2.7339 -2.1664 -1.3828
  354MOL0     H47772   4.586   7.326  10.820  1.6043 -2.4209 -0.8043
  354MOL0     H47773   4.373   7.462  10.800 -0.8531  1.5083 -0.9823
  354MOL0     H47774   3.904   8.546  10.375  1.1141  2.0332 -0.4462
  354MOL0     H47775   4.046   8.484  10.581 -0.2573 -0.6130  1.0891
  354MOL0     H47776   4.331   8.597  10.861 -2.0049  2.7559 -0.0206
  354MOL0     H47777   4.493   8.541  11.038 -0.2452  2.3858 -2.1359
  354MOL0     H47778   4.631   8.542  11.183 -1.0413 -1.3565 -0.3776
  354MOL0     H47779   4.642   8.521  11.359 -0.3423  2.2814  1.7140
  354MOL0     H47780   4.504   8.741  11.380 -1.4540  0.3668 -0.9766
  354MOL0     H47781   4.507   8.751  11.209 -1.5588  0.7715  1.6886
  354MOL0     H47782   4.767   8.727  11.214  0.4932  2.2938 -0.4495
  354MOL0     H47783   4.750   8.743  11.393 -0.7367 -0.5220  0.9917
  354MOL0     H47784   4.640   8.961  11.199  0.0333 -0.0199 -0.0976
  354MOL0     H47785   4.665   8.952  11.370 -4.7411 -2.4623 -1.1147
  354MOL0     H47786   5.041   9.081  11.273  0.0811 -0.1065  0.6160
  354MOL0     H47787   4.174   8.484  11.311 -2.1352  1.3116 -0.1283
  354MOL0     H47788   3.941   8.505  11.241 -0.7737 -1.3519 -2.0062
  354MOL0     H47789   3.932   8.669  11.178 -1.5971 -0.3183 -2.3367
  354MOL0     H47790   3.908   8.534  11.066  0.6853  0.8364 -1.6862
  355MOL0     O47791   6.515   5.035   8.390  0.6092 -0.2272 -0.6500
  355MOL0     C47792   6.408   5.060   8.332  0.0788  0.0861 -0.8612
  355MOL0     O47793   6.383   5.185   8.278 -0.1452  0.1634  0.4378
  355MOL0     C47794   6.484   5.276   8.269  0.4605  0.0640  0.1666
  355MOL0     C47795   6.450   5.409   8.287  1.0008 -0.1415 -0.4896
  355MOL0     C47796   6.534   5.515   8.269 -0.6644  0.3891  0.2517
  355MOL0     C47797   6.654   5.488   8.208 -0.1435  0.5365  1.6352
  355MOL0     O47798   6.732   5.600   8.181  0.1252  0.3627  0.1803
  355MOL0     C47799   6.876   5.583   8.168  0.1497  0.1455  0.1353
  355MOL0     C47800   6.962   5.714   8.202  0.2921 -0.0157  0.0419
  355MOL0     C47801   7.020   5.779   8.070 -0.2525  0.9610  0.0614
  355MOL0     C47802   7.096   5.899   8.104 -0.7475 -0.6095  0.3398
  355MOL0     C47803   7.172   5.951   7.989 -0.9182 -0.3945 -0.2732
  355MOL0     C47804   7.272   6.062   8.028 -0.1397  0.3555  0.0902
  355MOL0     C47805   7.387   6.072   7.917  0.3991  0.2458 -0.2754
  355MOL0     C47806   7.347   6.105   7.771 -0.0706 -0.3245  0.2615
  355MOL0     N47807   7.325   6.252   7.766  0.3044  0.3710  0.6999
  355MOL0     C47808   7.424   6.347   7.742 -0.7607 -0.4082  0.0497
  355MOL0     C47809   7.353   6.459   7.719  0.0331 -0.9825  0.0327
  355MOL0     C47810   7.408   6.596   7.685 -1.0290 -0.2335 -0.1843
  355MOL0     C47811   7.516   6.657   7.775  0.5235 -0.2168 -0.5938
  355MOL0     C47812   7.591   6.764   7.696 -0.7020 -0.8455  1.4123
  355MOL0     C47813   7.680   6.849   7.793 -0.1948 -0.0296  0.5311
  355MOL0     O47814   7.769   6.939   7.715  0.9087  0.8575  0.0655
  355MOL0     C47815   7.890   6.888   7.666 -0.5555  1.2204  0.0569
  355MOL0     C47816   7.925   6.902   7.527  0.3811 -0.7043  0.5524
  355MOL0     C47817   8.055   6.860   7.485 -0.5631 -0.2856  0.6088
  355MOL0     C47818   8.140   6.794   7.567 -0.0786  0.1757 -0.6067
  355MOL0     C47819   8.276   6.748   7.524 -0.5067  0.1984  0.1117
  355MOL0     O47820   8.317   6.786   7.402 -0.0077  0.6896  0.8949
  355MOL0     C47821   8.427   6.753   7.331  0.2656 -0.6861 -0.0896
  355MOL0     C47822   8.433   6.797   7.202 -0.2311  0.3421  0.0883
  355MOL0     C47823   8.540   6.759   7.115  0.2939 -0.0343 -0.0610
  355MOL0     C47824   8.648   6.686   7.161  0.4283 -0.2583  0.5994
  355MOL0     O47825   8.748   6.664   7.074 -0.5054  0.5693 -0.6983
  355MOL0     C47826   8.878   6.633   7.127 -0.2264  0.5322 -0.2318
  355MOL0     C47827   8.987   6.587   7.025  0.0020 -0.0040  0.1014
  355MOL0     C47828   9.023   6.696   6.930  0.6268 -0.3161  0.2407
  355MOL0     C47829   9.164   6.666   6.878  0.1621  0.0621  0.4427
  355MOL0     C47830   9.218   6.760   6.777 -0.3083 -0.9802  0.6457
  355MOL0     C47831   9.355   6.723   6.725  0.5276 -0.0364 -0.6979
  355MOL0     C47832   9.408   6.842   6.659 -0.3532  0.5541  0.9851
  355MOL0     C47833   9.542   6.825   6.593 -0.8957  0.7519 -0.0168
  355MOL0    Cl47834   9.671   6.813   6.698 -0.1576  0.0455 -0.2796
  355MOL0     C47835   8.644   6.651   7.298  0.4359  0.0177  0.9191
  355MOL0     C47836   8.540   6.686   7.384  1.2829 -0.4651 -0.4575
  355MOL0     O47837   8.328   6.668   7.595 -0.9943  0.5157 -0.4441
  355MOL0     C47838   8.109   6.777   7.704  0.8414 -0.5166 -0.0478
  355MOL0     C47839   7.976   6.819   7.748 -0.2281  0.1717 -0.0012
  355MOL0     N47840   7.216   6.426   7.730  0.7332 -0.2197  0.1726
  355MOL0     N47841   7.203   6.302   7.755 -0.2000 -0.3658 -0.5434
  355MOL0     C47842   6.699   5.360   8.190  0.8592  1.3701 -0.1557
  355MOL0     C47843   6.607   5.250   8.210 -0.6755  0.5960  0.0346
  355MOL0     C47844   6.307   4.950   8.319  0.1873 -0.0040  0.5691
  355MOL0     C47845   6.181   4.986   8.261  0.5760  0.0749 -0.5742
  355MOL0     C47846   6.079   4.895   8.263 -0.7999 -0.1760 -0.0758
  355MOL0     C47847   6.090   4.768   8.325 -0.8147 -1.0373  0.2165
  355MOL0     O47848   5.985   4.690   8.340 -0.3086  0.1290  0.2581
  355MOL0     C47849   6.003   4.567   8.263  0.1800  0.2857  0.0420
  355MOL0     C47850   5.900   4.579   8.146 -0.3612 -0.2264 -0.5945
  355MOL0     C47851   5.755   4.561   8.205  0.0028  0.6915  0.6825
  355MOL0     C47852   5.710   4.414   8.220  0.6276  0.3114  1.1942
  355MOL0     C47853   5.590   4.387   8.292 -0.3241  0.4512 -0.5027
  355MOL0     C47854   5.476   4.369   8.338  0.5631 -0.2531 -0.8537
  355MOL0     C47855   6.214   4.732   8.380 -0.1476 -0.3220 -0.6189
  355MOL0     C47856   6.319   4.823   8.379 -0.4915  0.3732 -0.2194
  355MOL0     C47857   6.440   4.783   8.456  0.0744  0.5601  0.0928
  355MOL0     H47858   6.352   5.439   8.322 -0.1534 -1.5710 -2.3155
  355MOL0     H47859   6.521   5.618   8.300 -1.1628 -0.6269  3.8913
  355MOL0     H47860   6.917   5.507   8.234  2.8697  1.1292 -0.2930
  355MOL0     H47861   6.899   5.556   8.064 -1.4522 -0.3798 -0.1150
  355MOL0     H47862   7.044   5.691   8.271 -0.1954  0.7338  0.8855
  355MOL0     H47863   6.897   5.784   8.255 -2.7141 -1.3217 -1.7192
  355MOL0     H47864   6.933   5.796   8.006 -0.2197  0.7305 -0.0468
  355MOL0     H47865   7.086   5.705   8.024  0.7748  0.3271  2.3989
  355MOL0     H47866   7.025   5.979   8.126  1.4870  1.8975 -0.9126
  355MOL0     H47867   7.170   5.881   8.183  1.0800  1.8780 -0.6449
  355MOL0     H47868   7.241   5.876   7.949  1.8076  1.4259  0.7450
  355MOL0     H47869   7.103   5.987   7.912 -0.5630  1.6685  0.3362
  355MOL0     H47870   7.216   6.155   8.041  2.1198  2.1763 -2.3121
  355MOL0     H47871   7.324   6.034   8.120  0.6826  0.7960 -0.2292
  355MOL0     H47872   7.437   5.975   7.912 -1.0915 -0.7303  2.1359
  355MOL0     H47873   7.458   6.151   7.944  1.5043 -0.8255  0.0552
  355MOL0     H47874   7.424   6.083   7.696 -0.5684 -2.7579  0.3704
  355MOL0     H47875   7.251   6.063   7.740  0.3277 -0.7733 -0.3963
  355MOL0     H47876   7.532   6.338   7.748 -0.5789  1.5190  0.6932
  355MOL0     H47877   7.448   6.572   7.586  3.0111 -0.1386  1.2309
  355MOL0     H47878   7.331   6.673   7.687  1.2292  2.1713  2.0954
  355MOL0     H47879   7.463   6.704   7.858 -0.5580  0.7566 -1.7838
  355MOL0     H47880   7.587   6.581   7.809  1.3722  1.1702  0.8815
  355MOL0     H47881   7.521   6.822   7.636  0.2693 -3.9193 -3.1402
  355MOL0     H47882   7.645   6.708   7.620 -1.9707 -0.7351  0.4019
  355MOL0     H47883   7.748   6.785   7.851  2.9973  0.6265 -2.1660
  355MOL0     H47884   7.614   6.906   7.858 -1.9019 -0.6229 -0.6333
  355MOL0     H47885   7.852   6.943   7.458  0.9924 -0.9284 -0.2482
  355MOL0     H47886   8.069   6.878   7.379 -1.0626  3.3414  1.0061
  355MOL0     H47887   8.353   6.852   7.153  0.2071  0.7849 -0.1373
  355MOL0     H47888   8.528   6.781   7.009 -3.8245  0.8081  0.4068
  355MOL0     H47889   8.924   6.716   7.181  0.8493 -1.3896  2.0121
  355MOL0     H47890   8.876   6.545   7.193 -1.1743 -1.1817 -2.4102
  355MOL0     H47891   9.076   6.567   7.085 -1.0926 -1.9066  1.2180
  355MOL0     H47892   8.952   6.503   6.965  2.2137 -0.3534 -0.7875
  355MOL0     H47893   8.953   6.690   6.846  0.0804  0.0309  0.6661
  355MOL0     H47894   9.020   6.799   6.966 -1.7931  0.9150 -2.9900
  355MOL0     H47895   9.166   6.564   6.837  0.0758  0.5006 -0.6965
  355MOL0     H47896   9.232   6.662   6.964 -1.2708 -0.6416  1.5753
  355MOL0     H47897   9.226   6.863   6.813 -3.2779  0.0037 -1.0908
  355MOL0     H47898   9.152   6.763   6.689 -2.4724 -1.0383  2.1883
  355MOL0     H47899   9.420   6.679   6.801 -0.5376 -1.1702 -0.4130
  355MOL0     H47900   9.344   6.648   6.647  2.2546  0.5508 -1.5680
  355MOL0     H47901   9.412   6.923   6.732  0.6604  0.4234  1.0916
  355MOL0     H47902   9.335   6.873   6.583 -0.6604 -0.8931  0.6620
  355MOL0     H47903   9.544   6.738   6.526  1.3790  1.1089 -0.4997
  355MOL0     H47904   9.564   6.914   6.534  0.3650  0.5323  0.0782
  355MOL0     H47905   8.729   6.603   7.345  0.4696 -0.8876 -0.0395
  355MOL0     H47906   8.554   6.654   7.487 -0.5287  0.4331  0.1095
  355MOL0     H47907   8.185   6.728   7.764  2.6561  0.6851 -1.2503
  355MOL0     H47908   7.936   6.799   7.847  1.7694 -1.0690  0.6232
  355MOL0     H47909   6.801   5.344   8.157  1.0572  0.8545  0.6710
  355MOL0     H47910   6.640   5.148   8.195  2.5389  1.5724 -0.2651
  355MOL0     H47911   6.174   5.080   8.207  0.1843  0.4717  0.1480
  355MOL0     H47912   5.978   4.915   8.230 -0.2532 -1.4102 -2.7967
  355MOL0     H47913   5.978   4.481   8.327  2.5013 -1.2119 -0.9524
  355MOL0     H47914   6.104   4.555   8.223  1.1627  1.0725  2.1160
  355MOL0     H47915   5.934   4.499   8.080 -2.9459 -0.3961 -1.8403
  355MOL0     H47916   5.915   4.675   8.097  1.1965  0.2714  0.7869
  355MOL0     H47917   5.680   4.606   8.140 -0.9923 -0.3873  1.0462
  355MOL0     H47918   5.755   4.616   8.300 -0.2697  1.8573  0.0272
  355MOL0     H47919   5.696   4.367   8.122 -3.4495 -0.0063  1.7844
  355MOL0     H47920   5.793   4.357   8.261  2.0298  0.4118 -1.2932
  355MOL0     H47921   5.375   4.358   8.372  0.5744 -0.1613 -0.7885
  355MOL0     H47922   6.220   4.633   8.423 -1.0200 -0.0557  0.1506
  355MOL0     H47923   6.426   4.678   8.483 -4.9440  1.4975  2.2954
  355MOL0     H47924   6.538   4.801   8.409 -0.2415 -0.4368 -1.0093
  355MOL0     H47925   6.439   4.835   8.552 -0.4287  1.2186 -0.2617
  356MOL0     O47926   2.927   6.041   1.164 -0.7594  0.6259 -0.4956
  356MOL0     C47927   2.893   5.928   1.127  0.1682 -0.6298 -0.1292
  356MOL0     O47928   2.974   5.823   1.103  0.3841  0.3236 -0.6465
  356MOL0     C47929   3.108   5.841   1.128  0.2177 -0.2895  0.8440
  356MOL0     C47930   3.184   5.941   1.073  0.3510  0.6399 -0.4447
  356MOL0     C47931   3.320   5.955   1.103 -1.1386  0.7244 -0.0002
  356MOL0     C47932   3.384   5.860   1.185  0.7227 -0.6654 -0.0836
  356MOL0     O47933   3.514   5.881   1.206  0.5835 -0.2285 -0.3803
  356MOL0     C47934   3.603   5.773   1.236 -1.0577 -0.0949  0.1214
  356MOL0     C47935   3.743   5.826   1.226  0.0895  0.2604  1.3204
  356MOL0     C47936   3.775   5.928   1.340 -0.7603  0.0592  0.8013
  356MOL0     C47937   3.925   5.968   1.340 -0.0512  0.5829 -0.6275
  356MOL0     C47938   3.946   6.096   1.418  0.3797 -0.1668  1.2367
  356MOL0     C47939   4.097   6.148   1.418  0.4395 -0.0551 -0.1702
  356MOL0     C47940   4.118   6.262   1.517 -0.3454  0.2620  0.5222
  356MOL0     C47941   4.263   6.288   1.524  0.2918 -0.6179  0.7864
  356MOL0     N47942   4.309   6.356   1.639 -0.3664 -1.1930 -0.3462
  356MOL0     C47943   4.287   6.313   1.770 -0.7465  0.0557 -0.5465
  356MOL0     C47944   4.377   6.377   1.843  1.0903 -0.1639 -0.4216
  356MOL0     C47945   4.391   6.353   1.992  0.1845  0.3731 -0.1251
  356MOL0     C47946   4.429   6.479   2.067 -0.0505 -0.6582 -0.1734
  356MOL0     C47947   4.380   6.476   2.210 -0.4937 -0.5320  0.4909
  356MOL0     C47948   4.474   6.408   2.315  0.8593  0.6418 -0.0701
  356MOL0     O47949   4.392   6.343   2.424  0.4803  0.5147  0.4818
  356MOL0     C47950   4.469   6.290   2.529  1.2929  0.0404 -0.2967
  356MOL0     C47951   4.403   6.232   2.633 -0.6034 -0.1983  0.1616
  356MOL0     C47952   4.461   6.181   2.748 -0.2149  0.4601 -0.5290
  356MOL0     C47953   4.601   6.183   2.756 -0.5077  0.0998  0.5060
  356MOL0     C47954   4.666   6.135   2.877 -0.8449 -0.1750  0.5922
  356MOL0     O47955   4.795   6.182   2.909 -0.0851 -0.1700  0.2929
  356MOL0     C47956   4.853   6.143   3.026  0.3657 -0.7298 -0.2009
  356MOL0     C47957   4.929   6.245   3.084  0.5361 -0.6277  0.6323
  356MOL0     C47958   5.003   6.227   3.197 -0.6519 -0.1885 -0.3418
  356MOL0     C47959   5.011   6.094   3.252  0.3176  0.2790 -0.1763
  356MOL0     O47960   5.102   6.075   3.354  0.3787  0.7293 -0.0018
  356MOL0     C47961   5.181   5.950   3.349  0.2957 -0.0250 -0.1582
  356MOL0     C47962   5.288   5.937   3.449  1.0042  0.1749 -0.2737
  356MOL0     C47963   5.398   6.038   3.407 -0.6797  0.9848 -0.1604
  356MOL0     C47964   5.483   6.061   3.531  0.2639 -0.0648  0.3405
  356MOL0     C47965   5.627   6.100   3.498  0.2408  0.9859 -0.2162
  356MOL0     C47966   5.710   6.118   3.634  0.8823  0.6993  0.5079
  356MOL0     C47967   5.855   6.153   3.587  0.0672  0.4757 -0.2128
  356MOL0     C47968   5.932   6.032   3.537 -0.7719  0.2679 -0.6507
  356MOL0    Cl47969   5.940   5.889   3.649  0.2839 -0.3097 -0.3184
  356MOL0     C47970   4.948   5.986   3.188  0.0905 -0.0407 -0.3599
  356MOL0     C47971   4.862   6.014   3.085  0.7847  0.2152  0.0380
  356MOL0     O47972   4.596   6.069   2.956  0.6415  0.1423  0.0271
  356MOL0     C47973   4.672   6.240   2.652  0.0953 -0.8557  0.4081
  356MOL0     C47974   4.603   6.289   2.540 -0.4892  0.0817 -0.4854
  356MOL0     N47975   4.447   6.463   1.762  0.4769 -0.0336 -0.1718
  356MOL0     N47976   4.400   6.452   1.642  0.0630  0.2730 -0.8626
  356MOL0     C47977   3.312   5.766   1.247 -0.6226 -0.5610  0.2672
  356MOL0     C47978   3.172   5.764   1.220 -0.9894 -0.2329 -0.1120
  356MOL0     C47979   2.749   5.911   1.111  0.6685 -0.4418  0.1564
  356MOL0     C47980   2.715   5.813   1.013  1.2601  1.1378 -0.0081
  356MOL0     C47981   2.579   5.778   1.000 -0.3509  0.9201 -0.6835
  356MOL0     C47982   2.479   5.846   1.071  0.3403  0.4291 -0.1415
  356MOL0     O47983   2.356   5.800   1.039 -0.2885 -0.0414  0.6777
  356MOL0     C47984   2.247   5.870   1.099 -0.6786  0.0332  0.1191
  356MOL0     C47985   2.111   5.829   1.050  0.4767 -0.0005 -0.2269
  356MOL0     C47986   2.091   5.678   1.088  0.8758  0.3923 -0.4029
  356MOL0     C47987   1.954   5.612   1.041  0.0522  0.2056 -0.1097
  356MOL0     C47988   1.947   5.610   0.891  0.2843 -0.3962  1.3117
  356MOL0     C47989   1.940   5.598   0.766 -0.7408  0.1010 -0.3455
  356MOL0     C47990   2.517   5.944   1.162  0.1024  0.6092 -0.4601
  356MOL0     C47991   2.651   5.983   1.180  0.5729 -0.0641  0.2033
  356MOL0     C47992   2.683   6.082   1.288 -0.3825 -1.2740  0.1467
  356MOL0     H47993   3.139   6.016   1.009 -0.5862  3.8787  3.5393
  356MOL0     H47994   3.390   6.027   1.062  0.9203 -1.2456 -0.1332
  356MOL0     H47995   3.577   5.735   1.335 -0.9310 -0.9919 -0.1856
  356MOL0     H47996   3.603   5.698   1.156  0.2900  1.6704 -1.6605
  356MOL0     H47997   3.751   5.878   1.130 -0.2137 -3.2087 -0.7556
  356MOL0     H47998   3.807   5.738   1.226 -1.8467 -1.2228  0.5937
  356MOL0     H47999   3.757   5.892   1.442  0.9232 -1.3087  0.6704
  356MOL0     H48000   3.696   6.003   1.327 -1.0562 -0.6134 -1.8902
  356MOL0     H48001   3.981   5.885   1.384 -1.3665  0.1956  0.3744
  356MOL0     H48002   3.958   5.986   1.237  1.3283  1.2909 -0.0797
  356MOL0     H48003   3.889   6.174   1.366  4.6433  1.0543 -2.2586
  356MOL0     H48004   3.916   6.085   1.522 -1.9262 -0.7416  0.5605
  356MOL0     H48005   4.150   6.056   1.446  0.0100 -0.7569 -1.5725
  356MOL0     H48006   4.121   6.178   1.315  2.9432 -1.7774 -0.1876
  356MOL0     H48007   4.080   6.219   1.610 -0.0998 -1.0905  0.0152
  356MOL0     H48008   4.070   6.356   1.489 -0.6635 -0.8810 -3.2344
  356MOL0     H48009   4.318   6.196   1.506  0.7074  0.1216 -2.2800
  356MOL0     H48010   4.285   6.346   1.434 -2.2403  0.8009  0.9840
  356MOL0     H48011   4.209   6.254   1.818 -0.9767 -1.2445 -2.3913
  356MOL0     H48012   4.299   6.315   2.037  0.8217  0.4993  1.3634
  356MOL0     H48013   4.469   6.282   2.020 -1.7528 -2.3519 -1.2421
  356MOL0     H48014   4.537   6.495   2.060 -0.0862 -0.5626 -0.5411
  356MOL0     H48015   4.389   6.573   2.028  1.1583 -0.0263  0.0512
  356MOL0     H48016   4.280   6.431   2.216 -0.1812 -1.2799  0.0963
  356MOL0     H48017   4.372   6.581   2.240 -2.9480 -1.2400  2.7084
  356MOL0     H48018   4.539   6.490   2.348  0.9935  1.2213 -1.6780
  356MOL0     H48019   4.528   6.326   2.267  0.8015 -0.3667  1.5207
  356MOL0     H48020   4.294   6.233   2.635 -0.6693 -0.2836  3.7707
  356MOL0     H48021   4.397   6.129   2.819 -1.4454  2.2015 -0.2890
  356MOL0     H48022   4.927   6.335   3.024 -0.0658 -0.4934  0.8413
  356MOL0     H48023   5.047   6.316   3.241 -0.7309 -1.4558  2.5134
  356MOL0     H48024   5.109   5.870   3.370 -0.6825  1.1218  1.0185
  356MOL0     H48025   5.225   5.937   3.250  0.2408 -0.8241 -0.0833
  356MOL0     H48026   5.244   5.965   3.545 -2.0617  1.6435 -1.9897
  356MOL0     H48027   5.340   5.840   3.451 -0.1446 -0.4707 -0.6342
  356MOL0     H48028   5.448   6.009   3.314 -1.4648  2.0625 -0.9418
  356MOL0     H48029   5.350   6.133   3.384  0.4947  2.4605  2.8895
  356MOL0     H48030   5.487   5.976   3.600 -2.1503 -0.2057  0.4186
  356MOL0     H48031   5.443   6.143   3.591  2.3533 -0.3726  2.2285
  356MOL0     H48032   5.620   6.198   3.450  1.0590  0.1195 -2.2375
  356MOL0     H48033   5.677   6.030   3.430 -1.2251  0.1895 -0.4999
  356MOL0     H48034   5.672   6.202   3.693  0.2083  0.1404  0.8771
  356MOL0     H48035   5.710   6.033   3.702 -2.4561  0.8379  0.8184
  356MOL0     H48036   5.898   6.191   3.681 -1.7653  0.8837  0.5112
  356MOL0     H48037   5.851   6.230   3.509  0.9878 -0.8012 -1.5656
  356MOL0     H48038   5.892   5.990   3.445 -1.1844 -0.7287 -0.0343
  356MOL0     H48039   6.036   6.064   3.523 -0.2114 -0.7706  0.9259
  356MOL0     H48040   4.951   5.884   3.225  0.2599  0.2168  0.3678
  356MOL0     H48041   4.801   5.935   3.043  0.2702 -0.5157  2.0502
  356MOL0     H48042   4.781   6.240   2.652  0.0957 -1.0710  0.4296
  356MOL0     H48043   4.661   6.332   2.459 -0.2762  1.3225  0.2981
  356MOL0     H48044   3.365   5.699   1.314 -1.2044  1.6570  3.1354
  356MOL0     H48045   3.113   5.687   1.270  1.4526 -1.0210  1.7953
  356MOL0     H48046   2.787   5.754   0.958 -0.6858 -1.5318  0.0913
  356MOL0     H48047   2.541   5.697   0.939 -0.1633 -1.5949  2.3230
  356MOL0     H48048   2.265   5.974   1.072  1.5456 -0.7654 -1.8529
  356MOL0     H48049   2.237   5.848   1.206 -1.4658  1.3582  0.3404
  356MOL0     H48050   2.090   5.837   0.943 -2.8087 -2.0458  0.1398
  356MOL0     H48051   2.037   5.882   1.111 -1.3262 -1.4362 -1.0577
  356MOL0     H48052   2.095   5.665   1.196 -0.1861  2.6707 -0.0406
  356MOL0     H48053   2.167   5.615   1.040 -0.3472  0.0330 -1.9297
  356MOL0     H48054   1.946   5.507   1.072 -0.8167 -0.6069 -2.7174
  356MOL0     H48055   1.874   5.664   1.094  0.5170  0.5660  0.2428
  356MOL0     H48056   1.912   5.586   0.663 -2.1932  0.7397 -0.0502
  356MOL0     H48057   2.445   5.994   1.227 -1.2492  0.0268 -1.4569
  356MOL0     H48058   2.590   6.122   1.331 -0.4758  1.1409 -2.0620
  356MOL0     H48059   2.742   6.033   1.366  2.3023  1.3354 -0.0495
  356MOL0     H48060   2.741   6.163   1.244  0.5140 -1.7000  0.5246
  357MOL0     O48061   3.022   0.406  10.482  0.1560 -0.0381 -0.3853
  357MOL0     C48062   2.932   0.410  10.570  0.4706  0.0580 -0.1248
  357MOL0     O48063   2.960   0.410  10.705  0.7791  0.1934 -0.1577
  357MOL0     C48064   3.079   0.354  10.742 -0.3174  0.1245 -0.3959
  357MOL0     C48065   3.092   0.224  10.777  0.7126 -0.2500  0.0481
  357MOL0     C48066   3.210   0.181  10.833 -0.5159 -0.5835 -0.3377
  357MOL0     C48067   3.318   0.264  10.843  0.3078 -0.8286 -0.0179
  357MOL0     O48068   3.442   0.240  10.901  0.5570  0.0977 -0.1646
  357MOL0     C48069   3.480   0.095  10.923  0.5418 -0.3146 -0.1861
  357MOL0     C48070   3.630   0.090  10.942  0.3932  0.3409  0.2024
  357MOL0     C48071   3.686  -0.050  10.966  0.8674  0.3489 -0.5458
  357MOL0     C48072   3.836  -0.065  10.922 -0.4057  0.6913  1.0693
  357MOL0     C48073   3.893  -0.212  10.920 -0.0105 -1.0454  0.5502
  357MOL0     C48074   4.035  -0.208  10.855  0.3211  0.5663 -0.4007
  357MOL0     C48075   4.111  -0.338  10.913  0.1738  0.3518 -0.5185
  357MOL0     C48076   4.180  -0.319  11.055  0.9942  0.5012  0.8568
  357MOL0     N48077   4.293  -0.409  11.082  0.6485  0.0812  0.1202
  357MOL0     C48078   4.419  -0.396  11.037  0.0247  0.3430  0.7693
  357MOL0     C48079   4.486  -0.506  11.092 -0.1823 -0.0509 -0.1297
  357MOL0     C48080   4.630  -0.541  11.066 -0.7487  0.4883  0.2667
  357MOL0     C48081   4.642  -0.694  11.031 -0.1736 -0.1358  0.2326
  357MOL0     C48082   4.761  -0.718  10.945 -0.4066 -0.2325  0.4035
  357MOL0     C48083   4.805  -0.862  10.959 -0.7983 -0.3058 -0.1671
  357MOL0     O48084   4.847  -0.902  11.084 -0.3917  0.0460  0.3628
  357MOL0     C48085   4.983  -0.900  11.089 -0.4018  0.2396 -0.1316
  357MOL0     C48086   5.051  -0.807  11.166  0.1201 -0.6280  0.0859
  357MOL0     C48087   5.194  -0.810  11.164 -0.4205  0.1449 -0.3930
  357MOL0     C48088   5.260  -0.913  11.099 -0.6749  0.5800  0.0911
  357MOL0     C48089   5.406  -0.918  11.100 -0.3861 -0.5070  0.4126
  357MOL0     O48090   5.465  -1.028  11.036 -0.2565 -0.0076 -0.4534
  357MOL0     C48091   5.599  -1.014  10.995  0.6248 -0.0823  0.2078
  357MOL0     C48092   5.691  -1.059  11.082  0.2807 -0.1515  0.4201
  357MOL0     C48093   5.825  -1.073  11.050 -0.3592  0.4796 -0.3337
  357MOL0     C48094   5.853  -1.035  10.921  0.5485 -0.1854  0.8655
  357MOL0     O48095   5.980  -1.056  10.870 -0.5833 -0.1828  0.4517
  357MOL0     C48096   6.090  -1.096  10.951  0.1971  0.5021 -0.8004
  357MOL0     C48097   6.205  -1.081  10.860  0.3451 -0.8215 -0.0094
  357MOL0     C48098   6.337  -1.145  10.903 -0.2136  0.0432  0.4452
  357MOL0     C48099   6.449  -1.130  10.797 -0.6313 -0.0941 -0.1567
  357MOL0     C48100   6.559  -1.236  10.840  0.3700 -0.1136 -0.6530
  357MOL0     C48101   6.679  -1.222  10.745  1.3231 -0.4190  0.6470
  357MOL0     C48102   6.787  -1.305  10.784  0.1556  0.4965  0.6552
  357MOL0     C48103   6.887  -1.315  10.655 -0.0771  0.0854 -0.1313
  357MOL0    Cl48104   7.043  -1.366  10.718  0.1670 -0.2687 -0.2440
  357MOL0     C48105   5.761  -0.981  10.833 -1.0513 -0.4394 -0.6556
  357MOL0     C48106   5.628  -0.972  10.867  0.3181 -0.8430 -1.0465
  357MOL0     O48107   5.466  -0.833  11.162 -0.2225 -0.3545  0.2512
  357MOL0     C48108   5.188  -1.018  11.033 -0.4408  0.2998  0.8211
  357MOL0     C48109   5.050  -1.008  11.027  0.2932 -0.5561 -0.0164
  357MOL0     N48110   4.399  -0.579  11.171 -0.0653  0.5352 -0.6295
  357MOL0     N48111   4.291  -0.519  11.160 -0.3717 -0.0390 -0.3367
  357MOL0     C48112   3.310   0.395  10.800  0.4015  0.1152 -0.3558
  357MOL0     C48113   3.191   0.439  10.752  0.1327  0.6829 -0.5351
  357MOL0     C48114   2.792   0.432  10.526 -0.0226 -0.4164 -0.3270
  357MOL0     C48115   2.688   0.389  10.619  0.3206  0.5898 -0.6347
  357MOL0     C48116   2.555   0.415  10.598  0.3910  0.1816 -0.9921
  357MOL0     C48117   2.517   0.474  10.473 -1.0601 -0.2104 -0.4225
  357MOL0     O48118   2.394   0.505  10.426 -0.0956  0.0751  0.4799
  357MOL0     C48119   2.287   0.498  10.516 -0.1029 -0.7516  0.1704
  357MOL0     C48120   2.289   0.613  10.618 -0.5876 -0.1738 -0.2658
  357MOL0     C48121   2.262   0.753  10.558 -0.0438 -0.7000  0.5662
  357MOL0     C48122   2.229   0.856  10.666 -0.3784  0.7036  0.3364
  357MOL0     C48123   2.092   0.863  10.708  1.5309  0.6187 -0.7008
  357MOL0     C48124   1.971   0.867  10.740 -0.3689  0.9605 -0.3112
  357MOL0     C48125   2.619   0.522  10.383  0.5090 -0.3608 -0.3662
  357MOL0     C48126   2.750   0.505  10.413 -0.3274  0.6253  0.0581
  357MOL0     C48127   2.838   0.556  10.298  0.0720  0.3325 -0.0896
  357MOL0     H48128   3.004   0.161  10.772 -0.9688  2.0660 -1.2150
  357MOL0     H48129   3.223   0.079  10.869  2.2616 -0.1864  0.0477
  357MOL0     H48130   3.431   0.063  11.015 -0.1779 -2.2211 -1.1850
  357MOL0     H48131   3.458   0.040  10.831  1.5814  0.7587 -1.1181
  357MOL0     H48132   3.656   0.153  11.027  0.7007  2.7782 -1.5659
  357MOL0     H48133   3.685   0.144  10.864  1.7546 -0.2283  0.7413
  357MOL0     H48134   3.629  -0.114  10.898 -2.4478  2.4660  0.0098
  357MOL0     H48135   3.671  -0.071  11.072  0.2609  0.9560 -0.5098
  357MOL0     H48136   3.846  -0.021  10.823 -1.0763 -0.1180  0.6274
  357MOL0     H48137   3.891   0.003  10.988  0.3886  1.5927 -0.4734
  357MOL0     H48138   3.895  -0.252  11.022 -2.2450 -0.5396  0.8416
  357MOL0     H48139   3.823  -0.269  10.858 -0.9457  0.7295 -0.1279
  357MOL0     H48140   4.021  -0.196  10.747 -5.1966 -0.9763 -0.1534
  357MOL0     H48141   4.096  -0.128  10.899 -0.7980  1.8278 -1.0826
  357MOL0     H48142   4.188  -0.373  10.844  0.7588 -0.9839  0.7610
  357MOL0     H48143   4.032  -0.413  10.927 -0.8897  1.2045 -1.7338
  357MOL0     H48144   4.206  -0.215  11.079 -1.8472  2.2171 -2.6408
  357MOL0     H48145   4.103  -0.346  11.127  1.2083 -0.2521  0.8109
  357MOL0     H48146   4.450  -0.323  10.963  1.3150  0.7500  1.6893
  357MOL0     H48147   4.659  -0.480  10.980 -0.7825  3.0009  1.9604
  357MOL0     H48148   4.694  -0.524  11.153 -0.7014  1.1858  0.0932
  357MOL0     H48149   4.651  -0.755  11.122 -0.3061  1.9737  1.7238
  357MOL0     H48150   4.548  -0.716  10.978 -1.5955  2.1820  1.6048
  357MOL0     H48151   4.834  -0.649  10.988 -1.0774  2.0564 -1.8724
  357MOL0     H48152   4.737  -0.693  10.842  0.4026 -0.3632  0.1779
  357MOL0     H48153   4.882  -0.876  10.883 -0.9306 -1.3904 -0.1150
  357MOL0     H48154   4.723  -0.927  10.929 -0.4101 -0.2907 -1.2890
  357MOL0     H48155   5.002  -0.726  11.219  2.2517  1.1495 -0.4644
  357MOL0     H48156   5.251  -0.737  11.220 -2.2220  2.2379 -1.1496
  357MOL0     H48157   5.649  -1.100  11.174  1.1834 -1.3504  0.3245
  357MOL0     H48158   5.885  -1.121  11.126  0.6727 -0.0433 -1.4519
  357MOL0     H48159   6.105  -1.034  11.040 -0.8639 -2.0734  1.2999
  357MOL0     H48160   6.067  -1.200  10.975  1.9642 -0.5631 -3.2615
  357MOL0     H48161   6.182  -1.114  10.758  1.4323  1.2149 -0.9886
  357MOL0     H48162   6.212  -0.972  10.854 -2.6338 -0.3570  2.3346
  357MOL0     H48163   6.366  -1.100  10.998 -1.3952  1.3995  0.2040
  357MOL0     H48164   6.309  -1.250  10.918  1.7488 -0.7743 -1.0898
  357MOL0     H48165   6.481  -1.025  10.798  1.1530 -0.5472  2.9381
  357MOL0     H48166   6.417  -1.145  10.694 -0.6597  0.5121 -0.2411
  357MOL0     H48167   6.518  -1.337  10.845  0.9352 -0.3081  0.4561
  357MOL0     H48168   6.600  -1.211  10.938 -3.1216 -2.0856  1.5524
  357MOL0     H48169   6.643  -1.254  10.647 -0.6957 -2.9074  2.0797
  357MOL0     H48170   6.705  -1.116  10.746  0.8329 -0.2484 -1.2221
  357MOL0     H48171   6.749  -1.405  10.805  2.9634 -0.6134  0.9373
  357MOL0     H48172   6.840  -1.265  10.871 -1.1861 -0.0512  1.7481
  357MOL0     H48173   6.855  -1.373  10.567  0.4859  1.6258 -1.4005
  357MOL0     H48174   6.904  -1.213  10.618  1.5197  0.4803  1.5494
  357MOL0     H48175   5.805  -0.962  10.735  2.9701  0.5453  1.1327
  357MOL0     H48176   5.558  -0.942  10.789 -1.6377  0.4001  1.0860
  357MOL0     H48177   5.229  -1.102  10.978  1.9681  2.6560 -1.2226
  357MOL0     H48178   4.991  -1.089  10.986 -3.0255  1.8788 -0.4763
  357MOL0     H48179   3.393   0.464  10.810  0.4991 -0.1730  1.0408
  357MOL0     H48180   3.174   0.543  10.727 -1.2702  0.4663 -0.5790
  357MOL0     H48181   2.722   0.345  10.713  0.3474  1.3040 -0.3033
  357MOL0     H48182   2.483   0.372  10.667  0.1289 -1.7179 -2.3720
  357MOL0     H48183   2.263   0.403  10.565  0.4869 -0.2498  1.4871
  357MOL0     H48184   2.196   0.506  10.456  0.6231 -1.6988 -1.1065
  357MOL0     H48185   2.379   0.607  10.679  0.5788 -0.7904 -1.9836
  357MOL0     H48186   2.195   0.596  10.672 -0.5042 -1.8889 -0.5887
  357MOL0     H48187   2.178   0.737  10.490 -1.5265 -0.7071  2.2939
  357MOL0     H48188   2.348   0.784  10.499 -0.6487 -1.9449 -1.0564
  357MOL0     H48189   2.295   0.841  10.753  0.8233 -2.5038 -0.9733
  357MOL0     H48190   2.257   0.957  10.633 -1.3009  0.3667 -1.5993
  357MOL0     H48191   1.870   0.868  10.775 -0.3021  2.0549 -0.1161
  357MOL0     H48192   2.582   0.564  10.290  0.8323  1.8205  0.4443
  357MOL0     H48193   2.933   0.596  10.333  0.6631 -0.5105 -0.7053
  357MOL0     H48194   2.855   0.469  10.235 -1.3472 -1.1430  1.4425
  357MOL0     H48195   2.784   0.638  10.250 -2.5667  0.2742  2.4830
  358MOL0     O48196   9.508   1.822   2.783  0.4516  0.2540  0.4018
  358MOL0     C48197   9.510   1.730   2.860  0.0273  0.0950 -0.3780
  358MOL0     O48198   9.625   1.677   2.926 -0.7162  0.2085  0.1220
  358MOL0     C48199   9.742   1.736   2.905 -0.1198  1.2193 -0.2933
  358MOL0     C48200   9.865   1.660   2.901 -0.3741 -0.0015  0.6113
  358MOL0     C48201   9.988   1.713   2.880 -0.8192 -1.0925  0.0017
  358MOL0     C48202   9.991   1.854   2.865  0.0243 -0.1288  0.6800
  358MOL0     O48203  10.110   1.925   2.841  0.3490  0.2798 -0.1371
  358MOL0     C48204  10.233   1.845   2.845  0.5110  0.4801 -0.0699
  358MOL0     C48205  10.354   1.947   2.822  0.2731 -0.2865 -0.5897
  358MOL0     C48206  10.485   1.885   2.871  0.6885  0.2456 -1.0131
  358MOL0     C48207  10.593   1.994   2.862 -0.2833 -0.6213  0.2501
  358MOL0     C48208  10.731   1.964   2.925  0.3263  0.3841  1.2474
  358MOL0     C48209  10.831   2.070   2.868  0.9843 -0.3067  0.3414
  358MOL0     C48210  10.967   2.027   2.888  0.4955  0.2476  0.1682
  358MOL0     C48211  11.055   2.063   2.764  0.0411 -0.1110 -0.6892
  358MOL0     N48212  11.202   2.049   2.781 -0.0450 -0.1317  0.6105
  358MOL0     C48213  11.292   2.141   2.831 -0.1774 -0.0193  0.4989
  358MOL0     C48214  11.400   2.078   2.873 -0.2865  0.6146 -0.0043
  358MOL0     C48215  11.516   2.135   2.954 -0.2152 -0.0329 -0.0881
  358MOL0     C48216  11.639   2.042   2.964 -1.3591 -0.1595  0.2587
  358MOL0     C48217  11.623   1.915   3.042  0.2158  0.5175  0.0398
  358MOL0     C48218  11.746   1.832   3.039 -0.0330  0.5329  1.1143
  358MOL0     O48219  11.781   1.774   2.907 -0.1544  0.6583 -0.2779
  358MOL0     C48220  11.871   1.670   2.898  0.9447 -0.4268 -0.1930
  358MOL0     C48221  11.892   1.578   3.005  0.1315 -0.4905 -0.4087
  358MOL0     C48222  11.968   1.460   2.979 -0.6215  0.5302 -0.4426
  358MOL0     C48223  12.036   1.447   2.865  0.5004  0.1914  0.7459
  358MOL0     C48224  12.120   1.329   2.827  0.6268 -0.3817  0.9467
  358MOL0     O48225  12.115   1.219   2.910 -0.1336 -0.1570  0.7249
  358MOL0     C48226  12.201   1.108   2.886  0.5588 -0.0931  0.1863
  358MOL0     C48227  12.251   1.051   3.009  0.8161  0.8686  0.3205
  358MOL0     C48228  12.328   0.935   3.006  0.5532  1.1351 -0.4011
  358MOL0     C48229  12.345   0.868   2.879 -0.6624  0.3996  0.3939
  358MOL0     O48230  12.423   0.756   2.853  0.1741 -0.1648 -0.4518
  358MOL0     C48231  12.490   0.678   2.951  0.4935 -0.2542  0.1706
  358MOL0     C48232  12.410   0.562   3.003  0.1735 -0.1560 -0.6183
  358MOL0     C48233  12.389   0.427   2.929  0.1364  0.3737 -0.2148
  358MOL0     C48234  12.292   0.435   2.807  0.2803 -0.2337  0.1822
  358MOL0     C48235  12.179   0.337   2.817  0.1767  0.1889  0.0145
  358MOL0     C48236  12.068   0.371   2.924 -0.3801 -0.1098 -0.0712
  358MOL0     C48237  12.011   0.510   2.941 -0.3666 -0.1463 -0.3596
  358MOL0     C48238  11.928   0.549   2.814  0.7405  0.2802  0.2254
  358MOL0    Cl48239  11.774   0.447   2.828  0.0607 -0.2804 -0.4439
  358MOL0     C48240  12.290   0.924   2.759 -0.0573  0.3334  0.0953
  358MOL0     C48241  12.216   1.044   2.762  0.2822 -0.5748 -0.4556
  358MOL0     O48242  12.196   1.336   2.727  0.5625 -0.4150 -0.2136
  358MOL0     C48243  12.017   1.545   2.767 -0.2770  0.3237  0.1446
  358MOL0     C48244  11.934   1.654   2.779 -1.5237  0.1341 -0.7663
  358MOL0     N48245  11.384   1.944   2.825 -0.5186 -0.2539  0.3518
  358MOL0     N48246  11.267   1.930   2.776 -0.2807 -0.1420  0.3333
  358MOL0     C48247   9.885   1.930   2.864  0.5647 -0.7471  1.2855
  358MOL0     C48248   9.759   1.872   2.887 -0.1367 -0.2281  0.3058
  358MOL0     C48249   9.380   1.669   2.897  0.1433  0.0599  0.4956
  358MOL0     C48250   9.366   1.657   3.037 -0.1380 -0.6025  0.1701
  358MOL0     C48251   9.255   1.587   3.088  0.3775 -0.1495 -0.6215
  358MOL0     C48252   9.169   1.528   3.005  0.2165 -0.0198  0.7455
  358MOL0     O48253   9.064   1.453   3.052 -0.1669 -0.5950  0.2522
  358MOL0     C48254   9.007   1.516   3.168  0.2943 -0.0642  0.4778
  358MOL0     C48255   8.857   1.493   3.155  0.7251 -0.0930  0.0064
  358MOL0     C48256   8.809   1.350   3.147  0.7622  0.5248 -0.3379
  358MOL0     C48257   8.657   1.348   3.131 -0.1569 -0.2237 -0.6828
  358MOL0     C48258   8.593   1.226   3.160  0.2255 -0.4590  0.0237
  358MOL0     C48259   8.544   1.122   3.176 -0.0928  0.2924  0.0385
  358MOL0     C48260   9.167   1.551   2.867  1.0014 -0.6878  0.8246
  358MOL0     C48261   9.278   1.623   2.806 -0.5138  0.0719  0.4175
  358MOL0     C48262   9.291   1.625   2.646 -0.9103 -1.0336  0.7905
  358MOL0     H48263   9.857   1.552   2.902  2.0396 -0.2216  0.7616
  358MOL0     H48264  10.082   1.659   2.884 -0.3835 -0.4482 -1.1956
  358MOL0     H48265  10.238   1.789   2.939  0.1478 -1.2229 -1.0301
  358MOL0     H48266  10.246   1.773   2.763  2.4223  0.4582  0.2134
  358MOL0     H48267  10.328   2.041   2.872  0.5769 -1.0025  0.9559
  358MOL0     H48268  10.358   1.969   2.715 -2.5599 -0.5186 -0.8065
  358MOL0     H48269  10.494   1.798   2.807  1.1281 -0.1732 -0.3950
  358MOL0     H48270  10.478   1.845   2.973 -0.7398  1.1186 -0.7352
  358MOL0     H48271  10.607   2.015   2.756 -0.2990 -0.5009  0.2715
  358MOL0     H48272  10.559   2.089   2.905  0.0983 -0.7572  0.8644
  358MOL0     H48273  10.733   1.955   3.034  0.9251  1.5247  1.3492
  358MOL0     H48274  10.760   1.865   2.887 -2.4965 -0.1224  0.1533
  358MOL0     H48275  10.815   2.081   2.760  1.6799 -1.6617  0.0844
  358MOL0     H48276  10.808   2.167   2.914  1.3760  0.2803 -0.6724
  358MOL0     H48277  10.970   1.919   2.910  0.6727  0.2276  0.0493
  358MOL0     H48278  11.002   2.077   2.978 -0.9462 -1.1994  1.6084
  358MOL0     H48279  11.009   2.017   2.675 -1.2752 -2.0556  0.9105
  358MOL0     H48280  11.043   2.170   2.747 -2.6556 -0.1658  0.4153
  358MOL0     H48281  11.265   2.245   2.845 -0.2519 -0.0789  0.8124
  358MOL0     H48282  11.550   2.229   2.908 -0.1000  0.2367  0.5286
  358MOL0     H48283  11.479   2.169   3.051  1.9859  2.7243 -0.0875
  358MOL0     H48284  11.671   2.005   2.866  0.1012  0.3776  0.5028
  358MOL0     H48285  11.717   2.107   3.003 -1.9465 -0.7174  2.5029
  358MOL0     H48286  11.540   1.853   3.008  2.7326 -1.7769 -2.4113
  358MOL0     H48287  11.604   1.925   3.150 -0.4398 -0.8658  0.0830
  358MOL0     H48288  11.737   1.750   3.111 -1.1829  0.5006  0.9531
  358MOL0     H48289  11.829   1.895   3.071 -0.5627  1.7012  0.2416
  358MOL0     H48290  11.860   1.587   3.108  1.6541 -2.6046  0.3130
  358MOL0     H48291  11.973   1.380   3.052 -1.4163 -0.7877 -1.7842
  358MOL0     H48292  12.233   1.091   3.109 -2.4059 -0.3525  0.3560
  358MOL0     H48293  12.360   0.883   3.096 -0.5091  1.0861 -0.0412
  358MOL0     H48294  12.577   0.631   2.905  1.3114 -0.8768  2.2397
  358MOL0     H48295  12.538   0.731   3.034  0.9569 -1.2905  0.5790
  358MOL0     H48296  12.452   0.542   3.102  3.0830  3.3242 -0.9470
  358MOL0     H48297  12.310   0.603   3.020  0.7823  0.8967  0.5654
  358MOL0     H48298  12.481   0.374   2.902 -1.7739 -2.4209 -1.6813
  358MOL0     H48299  12.349   0.361   3.006  3.1074 -1.3414  0.0176
  358MOL0     H48300  12.341   0.414   2.712  0.0539 -0.4320  0.1075
  358MOL0     H48301  12.253   0.535   2.788  1.0864 -0.4598 -3.3825
  358MOL0     H48302  12.222   0.238   2.838 -0.0596  0.3036  1.0679
  358MOL0     H48303  12.124   0.342   2.722 -3.1676 -2.5721  1.5917
  358MOL0     H48304  11.999   0.293   2.891  2.6582 -3.0483 -0.1500
  358MOL0     H48305  12.112   0.340   3.020 -1.4275 -1.8775 -0.1134
  358MOL0     H48306  12.088   0.588   2.937 -2.1999  1.8427  1.0196
  358MOL0     H48307  11.952   0.530   3.031  0.2974  2.2258 -0.3779
  358MOL0     H48308  11.899   0.655   2.812  0.8999  0.3153 -1.6985
  358MOL0     H48309  11.981   0.524   2.722  1.2847  0.5635  0.4573
  358MOL0     H48310  12.318   0.880   2.664  0.5560  0.6923  0.1086
  358MOL0     H48311  12.199   1.103   2.672 -0.3341  1.6416  0.9987
  358MOL0     H48312  12.072   1.548   2.674  2.5751  0.0488  1.7199
  358MOL0     H48313  11.940   1.728   2.700  3.8474 -0.7428 -1.5587
  358MOL0     H48314   9.898   2.038   2.859  0.2526 -0.7636 -1.8639
  358MOL0     H48315   9.688   1.953   2.904  2.7997  2.7728 -0.5759
  358MOL0     H48316   9.440   1.702   3.102 -0.2651 -2.1280  1.4398
  358MOL0     H48317   9.258   1.574   3.195 -2.1056  2.4334 -0.1455
  358MOL0     H48318   9.030   1.623   3.162  0.1510 -0.0725 -0.3123
  358MOL0     H48319   9.058   1.464   3.250  1.1961  1.2370  0.7798
  358MOL0     H48320   8.827   1.533   3.057  2.8915 -0.6398 -0.9539
  358MOL0     H48321   8.808   1.555   3.230 -0.4277  1.2282 -1.7737
  358MOL0     H48322   8.834   1.298   3.240  1.7812  0.8628 -0.4054
  358MOL0     H48323   8.847   1.296   3.060 -0.6626 -1.2430  0.0848
  358MOL0     H48324   8.613   1.427   3.192 -1.9427  0.1308 -2.3102
  358MOL0     H48325   8.629   1.371   3.027 -0.4237 -0.4400 -0.6597
  358MOL0     H48326   8.499   1.026   3.196  0.1866  0.1469 -0.0197
  358MOL0     H48327   9.092   1.504   2.803 -0.0036 -0.1905  1.6080
  358MOL0     H48328   9.257   1.535   2.593  2.6204 -2.1195  0.0837
  358MOL0     H48329   9.239   1.711   2.602  1.3003  0.7247  1.4667
  358MOL0     H48330   9.398   1.635   2.626 -1.6975  3.7271 -2.6851
  359MOL0     O48331   1.242   0.257   7.256 -0.2497 -0.0187 -0.5649
  359MOL0     C48332   1.185   0.148   7.271 -0.5344  0.4558  0.2802
  359MOL0     O48333   1.237   0.032   7.235 -0.1769  0.4723  0.2190
  359MOL0     C48334   1.371   0.004   7.206  0.0817 -0.0094  0.1742
  359MOL0     C48335   1.396  -0.106   7.126  0.2127 -0.5203  0.0527
  359MOL0     C48336   1.519  -0.150   7.103 -0.7793 -0.4124 -0.9521
  359MOL0     C48337   1.630  -0.083   7.159 -0.3281 -0.9655 -0.0217
  359MOL0     O48338   1.748  -0.128   7.115 -0.1345 -0.9199  0.0762
  359MOL0     C48339   1.867  -0.071   7.170  0.4406  0.1937 -0.5540
  359MOL0     C48340   1.975  -0.129   7.092  0.2288  1.2595 -1.2474
  359MOL0     C48341   2.112  -0.102   7.163  0.1818  0.7644 -0.1764
  359MOL0     C48342   2.222  -0.114   7.055 -0.0097  0.3569 -0.2748
  359MOL0     C48343   2.350  -0.029   7.097 -0.7107  0.3596  0.8087
  359MOL0     C48344   2.456  -0.027   6.986 -0.9792 -0.7870 -0.7735
  359MOL0     C48345   2.555   0.085   7.023  0.0003 -0.9507 -0.3938
  359MOL0     C48346   2.688   0.067   6.951  0.3973  0.2191 -0.5699
  359MOL0     N48347   2.803   0.111   7.018 -0.0942  0.3300  0.2125
  359MOL0     C48348   2.858   0.047   7.128  0.0569  1.2517 -0.2336
  359MOL0     C48349   2.968   0.112   7.147 -0.4046 -0.0859 -0.6014
  359MOL0     C48350   3.058   0.089   7.265 -0.0089  0.1448 -0.0569
  359MOL0     C48351   3.203   0.137   7.226 -0.0595 -0.1615 -0.1607
  359MOL0     C48352   3.291   0.139   7.340  0.4287 -0.1295 -0.1051
  359MOL0     C48353   3.443   0.161   7.329  0.7562 -0.1306  0.7444
  359MOL0     O48354   3.496   0.192   7.462  0.1859  0.2740 -0.0644
  359MOL0     C48355   3.624   0.148   7.485 -0.2762 -0.8193  0.0397
  359MOL0     C48356   3.668   0.137   7.624  1.4407  0.7828  0.5070
  359MOL0     C48357   3.789   0.090   7.655 -1.0850 -0.2232  0.3427
  359MOL0     C48358   3.886   0.052   7.552 -1.0769 -0.9435  0.3543
  359MOL0     C48359   4.020   0.005   7.584 -0.3036 -0.5276 -1.0678
  359MOL0     O48360   4.072   0.047   7.699 -0.9727  0.3125 -0.4060
  359MOL0     C48361   4.199  -0.010   7.721  0.4448 -0.1414  0.3067
  359MOL0     C48362   4.305   0.075   7.689  0.4998  0.3234 -0.0322
  359MOL0     C48363   4.432   0.028   7.711 -0.1325 -1.1039  0.3752
  359MOL0     C48364   4.456  -0.101   7.757  0.1356  1.0072  0.3881
  359MOL0     O48365   4.574  -0.165   7.790 -0.3209 -0.4923 -0.2330
  359MOL0     C48366   4.702  -0.094   7.777 -0.2310  0.7665 -0.4678
  359MOL0     C48367   4.747  -0.074   7.632 -0.7305  0.5718 -0.1032
  359MOL0     C48368   4.869   0.008   7.620  0.4884  0.3051 -0.8878
  359MOL0     C48369   4.922   0.002   7.480  0.7229 -0.0474 -0.4443
  359MOL0     C48370   5.002   0.134   7.469  0.2710  1.0039  0.0020
  359MOL0     C48371   5.107   0.142   7.354  0.0792  1.3041 -0.2731
  359MOL0     C48372   5.203   0.039   7.373 -0.5726  0.3007 -0.3934
  359MOL0     C48373   5.322   0.055   7.281  0.2490 -0.0137 -0.1414
  359MOL0    Cl48374   5.269   0.064   7.107 -0.1928  0.3105 -0.2559
  359MOL0     C48375   4.344  -0.181   7.794 -0.8193  0.6566 -0.6355
  359MOL0     C48376   4.213  -0.134   7.772  0.3542  0.9225  0.1567
  359MOL0     O48377   4.071  -0.069   7.503  0.2683  0.8484 -0.3127
  359MOL0     C48378   3.842   0.062   7.420 -0.3770 -0.5549 -0.1544
  359MOL0     C48379   3.715   0.107   7.388 -0.3438  0.9359  0.0566
  359MOL0     N48380   2.984   0.209   7.048 -0.8470 -0.8258  0.0906
  359MOL0     N48381   2.889   0.206   6.970  0.5330  0.1142  0.1815
  359MOL0     C48382   1.610   0.028   7.241  0.1977 -0.2101 -0.2620
  359MOL0     C48383   1.482   0.062   7.276 -1.5299  0.3395  0.1078
  359MOL0     C48384   1.042   0.142   7.322 -0.9373  0.9315 -0.2033
  359MOL0     C48385   0.979   0.017   7.340  0.4737 -0.3051 -0.2117
  359MOL0     C48386   0.859   0.002   7.405 -1.4250  0.1919  0.0915
  359MOL0     C48387   0.784   0.115   7.444 -0.1926 -0.7141  1.6702
  359MOL0     O48388   0.667   0.125   7.497  0.5210 -0.0632 -0.2527
  359MOL0     C48389   0.617   0.007   7.566 -0.4433 -0.1145  0.2323
  359MOL0     C48390   0.475   0.030   7.619 -0.4759 -0.5020  0.1245
  359MOL0     C48391   0.367   0.037   7.499  0.5887  0.1346 -0.7538
  359MOL0     C48392   0.225   0.054   7.546  1.2917  0.0850  0.2300
  359MOL0     C48393   0.157  -0.072   7.570 -0.3155  1.1246 -0.1901
  359MOL0     C48394   0.099  -0.175   7.595 -0.3072 -0.3143 -0.1121
  359MOL0     C48395   0.837   0.239   7.393  0.6624  0.5622 -0.0300
  359MOL0     C48396   0.967   0.255   7.345  0.2447  0.3600  0.2730
  359MOL0     C48397   1.006   0.395   7.333 -0.0510 -0.3923  0.2886
  359MOL0     H48398   1.319  -0.166   7.079 -0.5461  1.1690 -0.9603
  359MOL0     H48399   1.529  -0.227   7.027 -0.4628 -1.7270  0.3914
  359MOL0     H48400   1.864   0.038   7.162 -0.2020  0.3250  1.1303
  359MOL0     H48401   1.877  -0.106   7.273 -0.3484 -0.4238 -0.6798
  359MOL0     H48402   1.973  -0.101   6.987  2.7425 -0.8934 -1.9559
  359MOL0     H48403   1.954  -0.237   7.092 -3.2539  1.7985 -0.3128
  359MOL0     H48404   2.124  -0.147   7.262 -0.5116  2.8082  0.8951
  359MOL0     H48405   2.106   0.005   7.187  3.5659  1.1403 -0.5250
  359MOL0     H48406   2.241  -0.221   7.045 -1.0640 -0.0078  1.2383
  359MOL0     H48407   2.178  -0.079   6.961 -2.3022 -1.2194  0.1214
  359MOL0     H48408   2.319   0.076   7.103 -0.7938  0.2877  2.0250
  359MOL0     H48409   2.386  -0.069   7.192 -1.0889 -3.7893 -0.5857
  359MOL0     H48410   2.504  -0.125   6.981 -0.1327 -0.5179  1.0971
  359MOL0     H48411   2.408   0.005   6.893 -1.2997  2.4945  0.3916
  359MOL0     H48412   2.570   0.086   7.131 -0.5445  0.5675 -0.3013
  359MOL0     H48413   2.517   0.183   6.992  1.0528 -0.7219 -1.0220
  359MOL0     H48414   2.705  -0.039   6.929 -1.2481 -0.3460  0.6328
  359MOL0     H48415   2.668   0.114   6.853 -2.7898 -0.1075 -0.1915
  359MOL0     H48416   2.810  -0.038   7.174 -0.1606  0.2440 -2.1862
  359MOL0     H48417   3.022   0.144   7.353  0.2213 -0.8542  0.6754
  359MOL0     H48418   3.063  -0.017   7.289  0.2105  0.7136  2.7862
  359MOL0     H48419   3.246   0.069   7.152  2.9603  0.0540  1.2420
  359MOL0     H48420   3.210   0.238   7.185  2.2700 -0.3308 -0.3173
  359MOL0     H48421   3.283   0.042   7.391  2.0259 -1.3683 -2.0679
  359MOL0     H48422   3.247   0.216   7.404 -0.1296 -0.9419  0.5079
  359MOL0     H48423   3.459   0.250   7.267 -2.9464  2.1943  2.7838
  359MOL0     H48424   3.496   0.072   7.294  2.0830  1.1036 -0.5149
  359MOL0     H48425   3.597   0.157   7.703  0.6019 -1.0240  0.2671
  359MOL0     H48426   3.816   0.072   7.758  1.2107 -1.3519 -0.3734
  359MOL0     H48427   4.286   0.172   7.643  1.5870  0.2201 -0.7449
  359MOL0     H48428   4.516   0.093   7.690 -1.1764 -0.3347 -1.7162
  359MOL0     H48429   4.701   0.003   7.828 -1.4996  2.2055 -3.0363
  359MOL0     H48430   4.768  -0.158   7.836 -4.2161 -3.9655 -0.5324
  359MOL0     H48431   4.778  -0.169   7.586 -0.4062  1.9115 -2.8947
  359MOL0     H48432   4.662  -0.032   7.578 -0.0964 -0.1706 -1.7729
  359MOL0     H48433   4.856   0.110   7.659 -0.0547 -0.1779  0.2676
  359MOL0     H48434   4.948  -0.036   7.682  1.4639 -1.0573 -3.0156
  359MOL0     H48435   4.835   0.007   7.414 -0.1105 -1.1595  0.5391
  359MOL0     H48436   4.965  -0.094   7.451 -0.9965 -0.5743 -1.3780
  359MOL0     H48437   5.051   0.141   7.566 -1.5235 -1.9728  1.2690
  359MOL0     H48438   4.946   0.228   7.460  0.6118  1.1122 -1.2063
  359MOL0     H48439   5.055   0.129   7.259  0.1817 -2.0332 -0.0094
  359MOL0     H48440   5.166   0.234   7.358 -1.7513  2.5564 -0.6671
  359MOL0     H48441   5.159  -0.061   7.368  0.8788 -0.3158 -1.9216
  359MOL0     H48442   5.237   0.044   7.477 -3.1239 -2.4208  0.7179
  359MOL0     H48443   5.361   0.149   7.320 -0.9026 -0.5813  2.6454
  359MOL0     H48444   5.390  -0.022   7.319 -0.4637  0.4323  2.1683
  359MOL0     H48445   4.361  -0.276   7.843  1.2013  2.6840  3.0349
  359MOL0     H48446   4.118  -0.181   7.797 -0.3332  1.9639 -0.4094
  359MOL0     H48447   3.908   0.044   7.335  0.5714  1.9175 -0.0388
  359MOL0     H48448   3.696   0.112   7.281  2.9654 -0.7347 -0.7659
  359MOL0     H48449   1.692   0.083   7.287 -0.5956  0.6012  0.2292
  359MOL0     H48450   1.471   0.139   7.352  3.4731 -0.0277  1.5302
  359MOL0     H48451   1.037  -0.072   7.318  1.1605 -0.2736  1.2982
  359MOL0     H48452   0.831  -0.096   7.444 -0.6522  0.1251  0.5085
  359MOL0     H48453   0.680   0.003   7.655  0.7750  2.2430 -0.4338
  359MOL0     H48454   0.627  -0.083   7.505  2.3829  1.8228 -2.4310
  359MOL0     H48455   0.473   0.118   7.685  1.5763  0.2475 -0.7358
  359MOL0     H48456   0.444  -0.053   7.683  0.6016  1.1431  2.9557
  359MOL0     H48457   0.362  -0.055   7.440 -2.4263 -2.1622  2.6794
  359MOL0     H48458   0.392   0.131   7.449  1.0332  2.2541  3.0457
  359MOL0     H48459   0.224   0.123   7.631  0.2240 -0.4327  0.6537
  359MOL0     H48460   0.165   0.101   7.467 -1.4448 -1.5408  1.2211
  359MOL0     H48461   0.049  -0.263   7.630 -2.0947  0.5584 -0.3486
  359MOL0     H48462   0.774   0.327   7.395 -0.0457  0.0504  0.6563
  359MOL0     H48463   1.110   0.413   7.360 -0.0233  1.8899 -1.0722
  359MOL0     H48464   1.013   0.411   7.225 -1.0741 -4.4313 -0.5260
  359MOL0     H48465   0.944   0.464   7.391 -0.5148 -1.1452  0.7065
  360MOL0     O48466   7.024   3.773   3.615  0.5549 -0.2743 -0.5528
  360MOL0     C48467   7.026   3.684   3.699 -0.9955 -0.3737 -0.6178
  360MOL0     O48468   7.112   3.682   3.806 -0.8055  0.1918  0.3721
  360MOL0     C48469   7.214   3.780   3.813  0.9805 -0.2881 -0.4492
  360MOL0     C48470   7.345   3.743   3.773 -0.2094  0.1899 -0.6800
  360MOL0     C48471   7.458   3.828   3.790 -0.6741  0.1309  0.3394
  360MOL0     C48472   7.449   3.960   3.831  0.5832 -0.8947 -0.5109
  360MOL0     O48473   7.565   4.036   3.838  0.0850  0.2576 -0.1300
  360MOL0     C48474   7.570   4.162   3.916  0.2795  0.3975 -0.3325
  360MOL0     C48475   7.721   4.197   3.940  0.4737  0.5281  0.8226
  360MOL0     C48476   7.793   4.245   3.817  0.0216  0.2853  0.4336
  360MOL0     C48477   7.822   4.124   3.719  0.9927 -0.5135 -0.1213
  360MOL0     C48478   7.954   4.132   3.640  0.0734 -0.4923  0.7538
  360MOL0     C48479   8.086   4.120   3.728  0.5006  0.0698 -0.3043
  360MOL0     C48480   8.201   4.060   3.645 -0.2957 -0.1483 -0.0732
  360MOL0     C48481   8.327   4.056   3.727  0.3452 -0.0999 -0.1149
  360MOL0     N48482   8.450   4.005   3.666 -0.2646 -1.0010 -0.3499
  360MOL0     C48483   8.478   3.880   3.628 -0.1179  0.1614 -1.1642
  360MOL0     C48484   8.608   3.885   3.579  0.0629  0.3566  0.8163
  360MOL0     C48485   8.686   3.771   3.530 -0.4481  0.2301  0.1181
  360MOL0     C48486   8.781   3.724   3.645 -0.2702  0.1758  1.0074
  360MOL0     C48487   8.895   3.641   3.587  0.1283  0.0950 -0.3954
  360MOL0     C48488   8.851   3.511   3.513  0.0131  0.2689  0.7543
  360MOL0     O48489   8.827   3.534   3.371 -0.3868 -0.0375  0.4568
  360MOL0     C48490   8.775   3.424   3.304 -1.2995 -0.6029  0.0783
  360MOL0     C48491   8.678   3.334   3.350  0.0893 -0.9699 -1.2772
  360MOL0     C48492   8.625   3.234   3.267 -0.8868 -0.8917  0.5315
  360MOL0     C48493   8.682   3.219   3.134 -0.4861 -0.5824 -0.9978
  360MOL0     C48494   8.625   3.118   3.043 -0.7159 -0.0104  0.0338
  360MOL0     O48495   8.562   3.010   3.109 -0.4853  0.6915 -0.3310
  360MOL0     C48496   8.503   2.905   3.047 -0.2330  0.4458 -0.2386
  360MOL0     C48497   8.410   2.916   2.941  0.9592  0.5804 -0.0029
  360MOL0     C48498   8.345   2.810   2.887 -0.0184 -0.2375  0.2958
  360MOL0     C48499   8.373   2.682   2.929 -0.1339 -0.5887  0.3689
  360MOL0     O48500   8.321   2.564   2.879  0.4071 -0.4610 -0.3934
  360MOL0     C48501   8.178   2.564   2.849 -0.0575  0.8541  0.4286
  360MOL0     C48502   8.160   2.581   2.695  0.7572  0.5217  0.2517
  360MOL0     C48503   8.019   2.619   2.643  0.6213  0.1064 -0.0740
  360MOL0     C48504   7.912   2.514   2.673 -0.8084  0.1014  0.1753
  360MOL0     C48505   7.940   2.387   2.594  0.3785  0.0005 -1.4810
  360MOL0     C48506   7.828   2.276   2.605  0.2179  0.1337  0.0639
  360MOL0     C48507   7.691   2.332   2.550  1.1647 -0.7996 -0.1222
  360MOL0     C48508   7.588   2.223   2.531  0.9226 -0.2285 -0.0486
  360MOL0    Cl48509   7.578   2.128   2.685 -0.0202 -0.2752 -0.4316
  360MOL0     C48510   8.482   2.668   3.020  0.6931  0.2846  0.7374
  360MOL0     C48511   8.540   2.776   3.085 -0.1219  0.7642 -0.9706
  360MOL0     O48512   8.656   3.121   2.927 -0.4324  0.1238  0.4957
  360MOL0     C48513   8.789   3.298   3.093  0.1628 -0.6835  0.2256
  360MOL0     C48514   8.831   3.401   3.181 -0.6836  0.3557  0.2628
  360MOL0     N48515   8.648   4.019   3.591 -0.2011  0.1486  0.0655
  360MOL0     N48516   8.562   4.084   3.646  0.6015 -1.0055 -0.9244
  360MOL0     C48517   7.313   4.011   3.856 -0.5368  0.4097 -0.1188
  360MOL0     C48518   7.204   3.922   3.848  0.0894 -0.1708  0.0082
  360MOL0     C48519   6.921   3.585   3.683 -0.7818  0.1492 -0.8074
  360MOL0     C48520   6.832   3.594   3.581 -0.3089 -0.2615 -0.0591
  360MOL0     C48521   6.732   3.508   3.563 -0.0111  0.2972  0.6431
  360MOL0     C48522   6.705   3.408   3.661  0.2625 -0.2693  0.0761
  360MOL0     O48523   6.604   3.316   3.664 -0.6332 -0.0126  0.2343
  360MOL0     C48524   6.498   3.339   3.570  0.3395  0.4785  0.4947
  360MOL0     C48525   6.374   3.311   3.647 -0.2879 -0.3357  0.6105
  360MOL0     C48526   6.265   3.289   3.549 -0.3853 -0.4995  0.0122
  360MOL0     C48527   6.137   3.265   3.633  0.4599  0.4617  0.3413
  360MOL0     C48528   6.029   3.231   3.551  0.0108 -0.1752 -0.4958
  360MOL0     C48529   5.929   3.203   3.492  0.1413  0.0191 -0.1878
  360MOL0     C48530   6.795   3.391   3.766  0.5168  0.3647  0.1056
  360MOL0     C48531   6.905   3.483   3.781  0.7868  1.3525  0.8464
  360MOL0     C48532   6.988   3.443   3.894 -0.1755 -0.0865 -0.0750
  360MOL0     H48533   7.368   3.646   3.731  4.8913  1.5465 -1.7484
  360MOL0     H48534   7.558   3.793   3.764 -0.3987  1.0194  0.1778
  360MOL0     H48535   7.518   4.237   3.856  0.8967  2.4998  1.6156
  360MOL0     H48536   7.529   4.143   4.016  2.1212 -1.2812  0.1729
  360MOL0     H48537   7.766   4.105   3.979  2.2733  1.0750  0.1380
  360MOL0     H48538   7.733   4.272   4.019 -2.8225 -1.4731  3.4878
  360MOL0     H48539   7.882   4.305   3.842 -0.6696  1.9687 -0.9185
  360MOL0     H48540   7.730   4.318   3.766 -0.7559  0.7636  2.0010
  360MOL0     H48541   7.827   4.031   3.777  0.4205 -0.6214 -0.2415
  360MOL0     H48542   7.733   4.112   3.656 -0.3405  0.8867  1.3843
  360MOL0     H48543   7.955   4.060   3.558 -2.2471  0.2868 -0.0472
  360MOL0     H48544   7.965   4.235   3.604 -0.8913 -0.8311 -0.6041
  360MOL0     H48545   8.113   4.215   3.775 -0.3871  0.1543  0.0602
  360MOL0     H48546   8.060   4.053   3.811  0.0431  0.4121 -0.1670
  360MOL0     H48547   8.213   4.120   3.554 -3.0502  1.0042  0.2416
  360MOL0     H48548   8.187   3.956   3.615  0.1266  0.0820 -1.0963
  360MOL0     H48549   8.338   4.154   3.775 -2.4015 -1.4071  3.7058
  360MOL0     H48550   8.306   4.003   3.820 -1.3751  0.9864  0.1682
  360MOL0     H48551   8.420   3.790   3.642  0.5849 -0.1725 -0.3418
  360MOL0     H48552   8.609   3.696   3.510 -0.5913  0.8548 -1.8116
  360MOL0     H48553   8.744   3.796   3.441  1.0297  0.4142  1.0882
  360MOL0     H48554   8.820   3.813   3.695 -2.2154  0.5006  2.0461
  360MOL0     H48555   8.731   3.666   3.723  0.5173  0.6159  1.8525
  360MOL0     H48556   8.963   3.603   3.664  1.3975 -2.4782 -2.6041
  360MOL0     H48557   8.956   3.706   3.525  0.0094  1.0938  0.5053
  360MOL0     H48558   8.759   3.474   3.561 -3.5660  1.5365 -4.3377
  360MOL0     H48559   8.924   3.431   3.527 -1.6138 -1.7053 -1.2004
  360MOL0     H48560   8.636   3.337   3.450  1.4394  1.7054 -0.7004
  360MOL0     H48561   8.541   3.167   3.280 -0.5938 -1.4532 -0.3412
  360MOL0     H48562   8.378   3.016   2.915 -1.3363 -0.3972 -1.1937
  360MOL0     H48563   8.282   2.820   2.799 -1.1515 -0.7219  1.0158
  360MOL0     H48564   8.124   2.480   2.892 -0.1808  1.2396  1.0377
  360MOL0     H48565   8.131   2.641   2.911 -1.5212 -0.7895  1.4467
  360MOL0     H48566   8.224   2.668   2.681  0.4515  1.2823  2.9142
  360MOL0     H48567   8.190   2.493   2.639 -2.5320 -0.8266  0.3690
  360MOL0     H48568   7.985   2.709   2.696  0.2545 -0.4530  0.6565
  360MOL0     H48569   8.015   2.634   2.535 -0.1953  0.2343 -0.0358
  360MOL0     H48570   7.813   2.554   2.653 -0.8357  0.8643  1.6827
  360MOL0     H48571   7.917   2.484   2.778 -3.1823  1.3922  0.7231
  360MOL0     H48572   8.028   2.349   2.646  0.7769  3.3496  0.5949
  360MOL0     H48573   7.960   2.391   2.487 -2.4065 -2.9988 -2.3054
  360MOL0     H48574   7.862   2.199   2.536  0.2950 -1.0950  1.4080
  360MOL0     H48575   7.817   2.228   2.703  2.2733  0.5119  0.5161
  360MOL0     H48576   7.703   2.384   2.454 -1.8863 -1.1627 -0.8420
  360MOL0     H48577   7.650   2.406   2.619  1.1321  1.6240 -2.5749
  360MOL0     H48578   7.486   2.253   2.502 -0.4583 -2.6666  1.9359
  360MOL0     H48579   7.627   2.164   2.447  1.5229  1.7505 -1.2330
  360MOL0     H48580   8.503   2.566   3.051  1.8876 -0.0108 -0.9091
  360MOL0     H48581   8.626   2.759   3.150  0.1206  1.9129 -0.9657
  360MOL0     H48582   8.826   3.287   2.992  0.2833  0.7687  0.1031
  360MOL0     H48583   8.916   3.466   3.163  0.5610 -0.8867  1.4252
  360MOL0     H48584   7.288   4.113   3.884 -3.6642  0.4889 -2.5613
  360MOL0     H48585   7.106   3.964   3.870  0.4355  0.5211  0.2656
  360MOL0     H48586   6.841   3.676   3.510  2.0069 -0.4417 -0.0504
  360MOL0     H48587   6.676   3.534   3.474 -1.4800  1.6868  1.9131
  360MOL0     H48588   6.515   3.269   3.487 -2.8482 -0.2609  0.3554
  360MOL0     H48589   6.500   3.443   3.536 -0.0405  0.5367  0.6544
  360MOL0     H48590   6.341   3.387   3.719 -1.6315  1.8108 -2.0632
  360MOL0     H48591   6.392   3.220   3.704  0.2110 -1.7812 -1.7324
  360MOL0     H48592   6.271   3.195   3.493 -2.6783 -0.9845  0.4673
  360MOL0     H48593   6.257   3.381   3.491 -1.7082 -0.8493 -0.3960
  360MOL0     H48594   6.169   3.183   3.699  0.7023 -0.3622 -0.7730
  360MOL0     H48595   6.112   3.350   3.698 -1.3849  1.9765 -2.1957
  360MOL0     H48596   5.849   3.155   3.440  1.9894 -0.9462 -2.3176
  360MOL0     H48597   6.778   3.320   3.846 -0.9321  2.8250  2.1502
  360MOL0     H48598   6.965   3.339   3.920  2.0289 -0.4086  0.8327
  360MOL0     H48599   7.096   3.448   3.875 -0.2481  2.9194 -0.1773
  360MOL0     H48600   6.972   3.499   3.986  1.3360 -0.6711  0.5809
  361MOL0     O48601   3.757   9.315   6.014  0.0334 -0.2594  0.2394
  361MOL0     C48602   3.722   9.290   6.128 -0.0234 -0.1697  0.3120
  361MOL0     O48603   3.805   9.276   6.240 -1.0763 -1.0277 -0.3898
  361MOL0     C48604   3.932   9.334   6.227  0.5392  0.1659 -0.3401
  361MOL0     C48605   4.039   9.261   6.204 -0.1851 -0.9767 -1.1261
  361MOL0     C48606   4.165   9.333   6.212  0.2466  0.5369 -0.3560
  361MOL0     C48607   4.172   9.470   6.257 -0.2833  0.1703 -0.3953
  361MOL0     O48608   4.288   9.538   6.274  0.8277 -0.3660 -0.1731
  361MOL0     C48609   4.412   9.491   6.219 -0.1978 -0.6309 -0.2085
  361MOL0     C48610   4.527   9.564   6.275  0.5114  0.4171  0.2276
  361MOL0     C48611   4.654   9.552   6.194  0.0896  0.0486 -0.8071
  361MOL0     C48612   4.764   9.632   6.259 -1.0700 -0.6631  0.2303
  361MOL0     C48613   4.863   9.683   6.154  0.4804 -0.2259  0.6290
  361MOL0     C48614   4.941   9.801   6.190  0.7078  0.6260 -0.2554
  361MOL0     C48615   5.065   9.824   6.097 -0.1253  0.3869  0.1013
  361MOL0     C48616   5.012   9.855   5.960  0.3466 -0.8541  0.5630
  361MOL0     N48617   5.125   9.872   5.868  0.0672  0.1830  0.3185
  361MOL0     C48618   5.197   9.983   5.843 -0.2073 -0.1433  0.0603
  361MOL0     C48619   5.285   9.956   5.743  0.4706  0.2542 -0.7137
  361MOL0     C48620   5.373  10.059   5.689  0.3052 -0.8799 -0.1531
  361MOL0     C48621   5.292  10.168   5.624 -0.2213 -0.4056  0.7605
  361MOL0     C48622   5.386  10.278   5.573 -0.0127 -0.1892 -0.4066
  361MOL0     C48623   5.392  10.402   5.669  0.6127 -1.6435 -0.2816
  361MOL0     O48624   5.486  10.385   5.778 -0.0934 -0.0050 -0.1311
  361MOL0     C48625   5.539  10.503   5.837  1.0892 -0.0144 -0.3859
  361MOL0     C48626   5.535  10.638   5.797  0.0695 -0.0935 -0.3862
  361MOL0     C48627   5.588  10.742   5.866  0.4881 -0.7989 -0.2257
  361MOL0     C48628   5.676  10.726   5.972 -0.0210  0.7204 -0.4928
  361MOL0     C48629   5.735  10.833   6.057 -0.1333  0.2601 -0.0804
  361MOL0     O48630   5.766  10.951   5.989  0.8362 -0.2266  0.2448
  361MOL0     C48631   5.814  11.058   6.059 -0.7572  1.1173  0.0810
  361MOL0     C48632   5.759  11.186   6.046  0.2399 -0.4786 -0.5889
  361MOL0     C48633   5.798  11.302   6.114 -0.8457 -0.1989 -0.2980
  361MOL0     C48634   5.908  11.292   6.199  0.2300 -0.6054  1.0592
  361MOL0     O48635   5.957  11.396   6.273  0.0001  0.0166  0.0623
  361MOL0     C48636   5.919  11.527   6.238  0.3518 -0.1912  0.2102
  361MOL0     C48637   5.964  11.624   6.349  0.0381 -0.4631 -0.1804
  361MOL0     C48638   6.117  11.624   6.371  0.4261  0.3293 -0.6861
  361MOL0     C48639   6.150  11.742   6.466 -0.0667  0.1739  0.1438
  361MOL0     C48640   6.304  11.769   6.471  0.5366  0.2232  0.0527
  361MOL0     C48641   6.338  11.863   6.582  0.4663  0.3645 -0.4323
  361MOL0     C48642   6.494  11.889   6.577  0.5450 -0.3722  1.1007
  361MOL0     C48643   6.540  12.003   6.661 -0.3406  0.2159 -0.3761
  361MOL0    Cl48644   6.711  12.019   6.672  0.2886  0.1923 -0.3168
  361MOL0     C48645   5.975  11.169   6.208  0.0214  0.1477 -0.4047
  361MOL0     C48646   5.936  11.049   6.135  0.0597  0.5350 -0.4437
  361MOL0     O48647   5.722  10.813   6.175  0.5575 -0.6637 -0.0294
  361MOL0     C48648   5.681  10.584   6.021  0.0525  0.6923 -0.0007
  361MOL0     C48649   5.615  10.483   5.953 -0.1076  0.0388  0.7209
  361MOL0     N48650   5.265   9.830   5.698  0.1021  0.5014 -0.2103
  361MOL0     N48651   5.166   9.778   5.774 -0.4550  0.4480 -0.4579
  361MOL0     C48652   4.055   9.533   6.271 -0.7380 -0.6185  0.3427
  361MOL0     C48653   3.934   9.467   6.263  0.0552 -0.0131 -0.5121
  361MOL0     C48654   3.577   9.261   6.152  0.2875 -0.5578  0.5307
  361MOL0     C48655   3.533   9.279   6.290 -0.3129 -0.8548 -0.0926
  361MOL0     C48656   3.400   9.241   6.331  0.0044  0.2093  1.2115
  361MOL0     C48657   3.312   9.196   6.236  0.5095 -0.4794 -0.6634
  361MOL0     O48658   3.183   9.174   6.281 -0.3472 -0.2270 -0.4377
  361MOL0     C48659   3.107   9.076   6.200  0.0436  0.4876 -0.1622
  361MOL0     C48660   3.012   9.006   6.297 -0.0470  0.8791 -0.1342
  361MOL0     C48661   3.096   8.923   6.395  0.8356  0.5464 -0.1450
  361MOL0     C48662   3.003   8.842   6.481  0.1711  1.3267 -0.8872
  361MOL0     C48663   3.079   8.760   6.577  0.2315  0.0449 -0.4669
  361MOL0     C48664   3.130   8.705   6.675 -0.7164  0.1756  0.4454
  361MOL0     C48665   3.358   9.185   6.101 -0.2347 -0.5367 -0.0936
  361MOL0     C48666   3.483   9.214   6.056  0.1951  0.1241 -0.0761
  361MOL0     C48667   3.507   9.205   5.905 -0.1074 -0.3080  0.1960
  361MOL0     H48668   4.037   9.155   6.184  0.5350 -1.0839 -0.6673
  361MOL0     H48669   4.258   9.277   6.217  0.3391  0.4136 -2.7363
  361MOL0     H48670   4.435   9.385   6.233  3.2085 -0.3477 -2.5124
  361MOL0     H48671   4.399   9.499   6.110 -2.0147 -1.0014 -0.0573
  361MOL0     H48672   4.546   9.535   6.378  2.0946  0.6997  0.0369
  361MOL0     H48673   4.491   9.667   6.275  0.0628  0.2636  0.9330
  361MOL0     H48674   4.641   9.582   6.089 -1.4812  0.9371 -0.3874
  361MOL0     H48675   4.673   9.445   6.184 -2.1039 -1.0495  3.9756
  361MOL0     H48676   4.732   9.721   6.315  3.1726  0.0440  1.9400
  361MOL0     H48677   4.816   9.566   6.329  0.5614 -0.0326 -0.3263
  361MOL0     H48678   4.933   9.603   6.127  1.0857  0.8120 -1.0309
  361MOL0     H48679   4.814   9.712   6.060  0.0528  1.9354  1.4631
  361MOL0     H48680   4.880   9.892   6.197  1.9326  1.5724 -1.4555
  361MOL0     H48681   4.985   9.789   6.290  0.3883 -0.3223 -0.2235
  361MOL0     H48682   5.136   9.741   6.100  0.9463  1.1687 -1.7771
  361MOL0     H48683   5.124   9.906   6.142  3.2252 -2.8872  2.2851
  361MOL0     H48684   4.929   9.787   5.936 -0.5623 -0.5186  2.5846
  361MOL0     H48685   4.970   9.956   5.959  1.7397 -0.2567  0.1453
  361MOL0     H48686   5.188  10.077   5.896 -1.1640 -0.9775  1.4473
  361MOL0     H48687   5.437  10.090   5.772 -1.4395  0.9308  0.6040
  361MOL0     H48688   5.443  10.012   5.620  0.9991 -0.1374  0.0291
  361MOL0     H48689   5.224  10.131   5.546  2.1170  1.3811 -2.3683
  361MOL0     H48690   5.227  10.204   5.703 -0.1008 -0.7360  1.0147
  361MOL0     H48691   5.356  10.314   5.474  0.6134  0.3215 -0.4168
  361MOL0     H48692   5.488  10.239   5.563  1.2074  2.8714 -1.1885
  361MOL0     H48693   5.291  10.431   5.697  1.1018 -0.7599  0.6456
  361MOL0     H48694   5.434  10.490   5.619  1.9600 -0.5162  2.5910
  361MOL0     H48695   5.470  10.661   5.714 -0.4795  0.1233  0.0989
  361MOL0     H48696   5.561  10.840   5.830 -0.3779  0.3172  3.0646
  361MOL0     H48697   5.680  11.198   5.973 -2.0945 -0.0080  1.8579
  361MOL0     H48698   5.754  11.401   6.103  0.2518  0.2735 -0.5143
  361MOL0     H48699   5.973  11.561   6.149  2.0788 -1.0466  0.8719
  361MOL0     H48700   5.813  11.542   6.218  0.0660 -2.8561 -0.5700
  361MOL0     H48701   5.940  11.724   6.314  0.2527 -0.9806 -1.9058
  361MOL0     H48702   5.905  11.597   6.437  0.8989  3.7074  1.8861
  361MOL0     H48703   6.150  11.526   6.406  0.5574 -0.1531 -2.0805
  361MOL0     H48704   6.172  11.647   6.279  2.6165  0.1627  0.5374
  361MOL0     H48705   6.120  11.711   6.567 -2.7101  0.0859 -0.6053
  361MOL0     H48706   6.090  11.832   6.448  0.3923  0.2401 -1.1570
  361MOL0     H48707   6.337  11.812   6.376 -0.5130 -1.0821 -0.9493
  361MOL0     H48708   6.354  11.672   6.474 -0.0125 -0.0354  1.2667
  361MOL0     H48709   6.292  11.962   6.573  1.5910  1.2033  2.0901
  361MOL0     H48710   6.309  11.826   6.681  0.6229 -1.4253 -1.0257
  361MOL0     H48711   6.522  11.918   6.476 -4.2429 -3.7091 -1.6085
  361MOL0     H48712   6.538  11.790   6.593 -0.6263 -1.2821 -0.8959
  361MOL0     H48713   6.500  12.096   6.622 -2.0022  0.0531  0.8124
  361MOL0     H48714   6.495  11.997   6.761 -2.1931 -0.4080 -1.2084
  361MOL0     H48715   6.061  11.161   6.274  1.1170  2.3901 -1.4537
  361MOL0     H48716   5.988  10.956   6.153  0.1510  1.0725  2.7120
  361MOL0     H48717   5.740  10.573   6.112  1.1519  4.1378 -0.1776
  361MOL0     H48718   5.633  10.383   5.990  0.2080 -0.9070 -1.8198
  361MOL0     H48719   4.072   9.639   6.290 -2.3005 -0.3802  0.5321
  361MOL0     H48720   3.844   9.525   6.282 -0.1740 -1.1835  2.4492
  361MOL0     H48721   3.598   9.319   6.366 -0.3012 -1.7810  0.4036
  361MOL0     H48722   3.366   9.260   6.433 -0.5438  2.2410  0.6995
  361MOL0     H48723   3.169   8.999   6.153  1.0174  0.4196  1.1954
  361MOL0     H48724   3.055   9.134   6.123  0.4032  0.7507 -0.2097
  361MOL0     H48725   2.944   8.948   6.234  1.2099  0.3609 -1.0578
  361MOL0     H48726   2.948   9.069   6.359  1.0867  1.4385  0.4936
  361MOL0     H48727   3.153   8.989   6.460  0.8953  2.1052 -1.6994
  361MOL0     H48728   3.170   8.864   6.340  0.8786 -0.2463  0.7430
  361MOL0     H48729   2.942   8.902   6.548  0.9488  0.3553  0.7378
  361MOL0     H48730   2.931   8.780   6.427 -0.0496 -0.3703  1.2363
  361MOL0     H48731   3.183   8.667   6.761  0.5982  2.5872  0.7779
  361MOL0     H48732   3.290   9.142   6.029 -1.8118  0.2711  0.8451
  361MOL0     H48733   3.608   9.173   5.879 -1.1337 -0.7692 -3.9743
  361MOL0     H48734   3.427   9.148   5.856 -1.4006  0.5748  1.2233
  361MOL0     H48735   3.506   9.306   5.865 -0.1111 -0.7307 -0.9047
  362MOL0     O48736   5.684  10.309   7.902 -0.7151  0.2077  0.1346
  362MOL0     C48737   5.759  10.373   7.825  0.5999  0.5859 -0.0254
  362MOL0     O48738   5.756  10.503   7.807  0.3894  0.4113  0.1555
  362MOL0     C48739   5.672  10.582   7.895 -0.6106 -0.4634  0.6536
  362MOL0     C48740   5.661  10.566   8.035 -0.4248  0.7096  0.2279
  362MOL0     C48741   5.591  10.652   8.114 -0.0564 -0.0530  0.8196
  362MOL0     C48742   5.527  10.755   8.054 -0.9130 -0.2065 -0.4025
  362MOL0     O48743   5.459  10.838   8.144 -0.3188  0.4227  0.5336
  362MOL0     C48744   5.378  10.951   8.099 -0.2564 -0.1744 -0.3934
  362MOL0     C48745   5.289  11.001   8.223  0.3544  0.7664  0.1002
  362MOL0     C48746   5.190  11.115   8.196 -0.0369 -0.4060 -1.0052
  362MOL0     C48747   5.063  11.072   8.133 -0.2246  0.0079  0.7328
  362MOL0     C48748   4.958  11.175   8.153  0.0258 -0.5326 -0.2349
  362MOL0     C48749   4.823  11.121   8.127  0.7010  1.1063 -0.8630
  362MOL0     C48750   4.717  11.230   8.140 -0.6626  0.2800 -0.0286
  362MOL0     C48751   4.575  11.185   8.168  0.5051  0.0877 -0.2469
  362MOL0     N48752   4.561  11.107   8.293 -0.5844  0.5301  0.2352
  362MOL0     C48753   4.590  10.972   8.304 -0.5047  0.2109  0.8745
  362MOL0     C48754   4.561  10.928   8.422  0.9708 -0.2161  0.4471
  362MOL0     C48755   4.575  10.793   8.491  0.5135  0.0507  0.8602
  362MOL0     C48756   4.720  10.758   8.536 -0.2612  0.9691 -0.1673
  362MOL0     C48757   4.807  10.862   8.597  0.6999 -0.5762 -0.1115
  362MOL0     C48758   4.939  10.818   8.660 -0.6501 -0.5114  0.7208
  362MOL0     O48759   5.034  10.780   8.559 -0.3165 -0.3855  0.8410
  362MOL0     C48760   5.145  10.712   8.610 -0.7801 -1.0216 -0.0210
  362MOL0     C48761   5.191  10.713   8.743  0.0779 -0.1752  0.5441
  362MOL0     C48762   5.304  10.637   8.771 -0.5616  0.4756 -0.5728
  362MOL0     C48763   5.390  10.574   8.668  0.7265 -0.5439  0.0706
  362MOL0     C48764   5.520  10.505   8.688 -0.3858 -0.1236 -0.2371
  362MOL0     O48765   5.578  10.517   8.809  1.3707 -0.2405 -0.3884
  362MOL0     C48766   5.710  10.473   8.825  0.2675 -0.1918 -0.1396
  362MOL0     C48767   5.807  10.495   8.731 -1.5949 -0.3924 -0.0315
  362MOL0     C48768   5.948  10.455   8.757 -0.6192 -0.0729  0.3693
  362MOL0     C48769   5.977  10.391   8.876 -0.5383 -0.7666  0.0205
  362MOL0     O48770   6.099  10.333   8.887 -0.0627 -0.7275 -0.8034
  362MOL0     C48771   6.185  10.376   9.001  0.7828  0.0232 -0.4875
  362MOL0     C48772   6.313  10.406   8.930  0.4317  0.1754  0.6483
  362MOL0     C48773   6.434  10.418   9.023  0.5327  0.4045 -0.0602
  362MOL0     C48774   6.560  10.456   8.949  0.0306 -1.0264 -0.1889
  362MOL0     C48775   6.679  10.466   9.046  0.6764 -0.0943 -0.8518
  362MOL0     C48776   6.802  10.480   8.966 -0.4033  0.1608  0.3459
  362MOL0     C48777   6.916  10.553   9.039  0.3980  0.6805 -0.3014
  362MOL0     C48778   7.026  10.612   8.945  0.1357 -0.5522 -0.7979
  362MOL0    Cl48779   6.946  10.713   8.802 -0.1419 -0.0687  0.1335
  362MOL0     C48780   5.883  10.384   8.979  0.6176  0.3756  0.5839
  362MOL0     C48781   5.750  10.421   8.945 -0.1827  0.1423 -0.3105
  362MOL0     O48782   5.561  10.436   8.592  1.0538 -0.1115  0.0102
  362MOL0     C48783   5.348  10.598   8.535 -0.1757  0.1923 -0.3099
  362MOL0     C48784   5.229  10.674   8.509  0.1208 -0.1489 -0.5878
  362MOL0     N48785   4.519  11.042   8.491 -0.2432 -0.2337 -0.2911
  362MOL0     N48786   4.521  11.148   8.418  0.0387 -0.3836 -0.3814
  362MOL0     C48787   5.524  10.763   7.916 -1.0126 -0.0642  0.4494
  362MOL0     C48788   5.603  10.683   7.833  0.3322 -0.1087  0.9909
  362MOL0     C48789   5.865  10.298   7.748 -0.2517 -0.2303  0.3960
  362MOL0     C48790   5.952  10.379   7.670  0.0731 -0.1748 -0.0426
  362MOL0     C48791   6.051  10.325   7.594 -0.2797 -0.3625 -0.8716
  362MOL0     C48792   6.080  10.184   7.597  0.1445 -0.7239 -0.3592
  362MOL0     O48793   6.185  10.149   7.513 -0.0292 -0.5606  0.1802
  362MOL0     C48794   6.216  10.004   7.505 -0.1042  0.1127  0.0164
  362MOL0     C48795   6.302   9.979   7.381  0.5691  0.7142 -0.2175
  362MOL0     C48796   6.217  10.001   7.254  0.3500 -0.6638 -0.7095
  362MOL0     C48797   6.304   9.992   7.129  0.0103 -0.0080  0.4288
  362MOL0     C48798   6.235  10.029   7.008  0.6965 -0.1566  0.0368
  362MOL0     C48799   6.172  10.055   6.905 -0.0195 -0.2133 -0.3278
  362MOL0     C48800   5.996  10.103   7.674  0.2697  0.2069  0.0484
  362MOL0     C48801   5.895  10.153   7.754  0.7021 -0.1450  0.7198
  362MOL0     C48802   5.826  10.060   7.845  0.1544 -0.4095 -0.0011
  362MOL0     H48803   5.735  10.496   8.073 -1.6946 -0.7328  0.1358
  362MOL0     H48804   5.593  10.634   8.221  0.5907  1.6559  1.1320
  362MOL0     H48805   5.438  11.033   8.058  1.5134 -1.9301 -1.4713
  362MOL0     H48806   5.315  10.910   8.020 -0.4812 -2.4717  0.8851
  362MOL0     H48807   5.360  11.030   8.301  1.8000 -3.4753  0.6081
  362MOL0     H48808   5.238  10.915   8.268  0.9441  0.6550  0.5643
  362MOL0     H48809   5.235  11.191   8.132 -2.2160  1.4942 -0.4237
  362MOL0     H48810   5.170  11.152   8.297  4.3129 -0.0790 -0.0431
  362MOL0     H48811   5.087  11.050   8.029  2.2768 -2.1091  1.6301
  362MOL0     H48812   5.014  10.982   8.172 -2.7933  1.5068  1.2021
  362MOL0     H48813   4.960  11.211   8.256  1.5100 -2.9829  0.6809
  362MOL0     H48814   4.975  11.251   8.076  1.4362 -0.7160 -0.1373
  362MOL0     H48815   4.815  11.074   8.029 -0.8813 -0.9403  0.1478
  362MOL0     H48816   4.804  11.045   8.204  0.7469 -1.1657 -2.9748
  362MOL0     H48817   4.726  11.289   8.049  2.0774  1.5686  0.9622
  362MOL0     H48818   4.747  11.296   8.222  0.9930  1.9098 -1.8605
  362MOL0     H48819   4.523  11.279   8.188  0.9490 -0.2346  2.9938
  362MOL0     H48820   4.521  11.132   8.089 -0.4851  0.9354 -0.1553
  362MOL0     H48821   4.621  10.912   8.219 -0.5280 -0.6463  1.4585
  362MOL0     H48822   4.508  10.806   8.577 -0.2099  1.4756  0.1214
  362MOL0     H48823   4.536  10.723   8.417 -0.7118  2.7989 -1.2833
  362MOL0     H48824   4.719  10.672   8.604  3.6704  0.4681 -0.4850
  362MOL0     H48825   4.779  10.717   8.453  3.3694  2.7372  1.3149
  362MOL0     H48826   4.743  10.909   8.673  0.8104  1.0210 -0.9569
  362MOL0     H48827   4.826  10.936   8.519 -3.0191  0.5753 -0.1629
  362MOL0     H48828   4.924  10.738   8.734 -0.0195 -1.0975  0.2382
  362MOL0     H48829   4.985  10.900   8.716  1.5929 -0.9149 -0.4315
  362MOL0     H48830   5.147  10.774   8.821 -1.3064  0.7190 -0.8654
  362MOL0     H48831   5.341  10.638   8.873 -1.9714  0.9031 -0.0440
  362MOL0     H48832   5.799  10.554   8.640 -0.0837  1.8337  1.1633
  362MOL0     H48833   6.024  10.477   8.682  0.8170 -1.2025  1.4403
  362MOL0     H48834   6.144  10.464   9.050 -0.0143  1.7177 -3.8939
  362MOL0     H48835   6.192  10.286   9.063  3.5700 -1.5229 -2.7734
  362MOL0     H48836   6.326  10.320   8.864  2.9123 -0.8473  2.3397
  362MOL0     H48837   6.298  10.494   8.866 -0.6485 -0.3081  0.2084
  362MOL0     H48838   6.402  10.480   9.107 -1.1618  0.2071 -0.5257
  362MOL0     H48839   6.452  10.326   9.079 -1.5843  0.0752  0.1541
  362MOL0     H48840   6.547  10.551   8.897  0.4320  1.1878  3.4011
  362MOL0     H48841   6.584  10.384   8.871  2.1772  1.0133 -1.5506
  362MOL0     H48842   6.690  10.376   9.107  3.7480 -0.7044 -2.1322
  362MOL0     H48843   6.667  10.555   9.109  0.2587 -1.5627  1.2457
  362MOL0     H48844   6.847  10.389   8.924  1.0743  1.1652 -0.3156
  362MOL0     H48845   6.786  10.536   8.873 -0.2601 -0.0591  0.1851
  362MOL0     H48846   6.951  10.476   9.109 -1.0628  0.7858  0.5819
  362MOL0     H48847   6.871  10.630   9.102  1.5929  0.8871  0.3316
  362MOL0     H48848   7.087  10.684   9.000  0.9141 -1.8903  0.1421
  362MOL0     H48849   7.088  10.536   8.897  1.3526  0.5858 -1.0909
  362MOL0     H48850   5.891  10.343   9.079 -0.5966  0.1919  0.6267
  362MOL0     H48851   5.679  10.403   9.026  1.8824  1.0387  1.8375
  362MOL0     H48852   5.403  10.565   8.448 -1.5148 -2.4788 -0.2506
  362MOL0     H48853   5.188  10.695   8.411 -1.3871  0.9285  0.2257
  362MOL0     H48854   5.474  10.848   7.870  0.5572  0.5943 -0.1104
  362MOL0     H48855   5.609  10.704   7.727 -0.9868 -1.3706  0.6223
  362MOL0     H48856   5.936  10.485   7.655  1.4011  0.0319 -0.1464
  362MOL0     H48857   6.113  10.381   7.524 -2.8958  2.4715 -1.1289
  362MOL0     H48858   6.125   9.944   7.498  0.0632 -0.3248  1.3304
  362MOL0     H48859   6.280   9.984   7.592  2.0449 -0.0300 -1.5103
  362MOL0     H48860   6.328   9.873   7.371  3.8355  1.5032 -1.1305
  362MOL0     H48861   6.397  10.032   7.374  2.5988 -2.8025 -2.2085
  362MOL0     H48862   6.156  10.092   7.257  0.2243 -0.6178 -2.8963
  362MOL0     H48863   6.133   9.931   7.254 -0.8931  0.7574 -0.5238
  362MOL0     H48864   6.391  10.056   7.144 -1.1660  1.9448 -0.6087
  362MOL0     H48865   6.337   9.890   7.109 -1.8592 -0.1702 -2.4104
  362MOL0     H48866   6.101  10.091   6.833  0.4757 -0.5065 -0.9703
  362MOL0     H48867   6.019   9.997   7.682 -0.9196 -0.1184 -0.6621
  362MOL0     H48868   5.719  10.078   7.834  0.4056  0.6197 -0.9437
  362MOL0     H48869   5.854   9.957   7.818  0.3046 -1.0859  2.4755
  362MOL0     H48870   5.856  10.087   7.947  0.1913  2.5954 -0.7339
  363MOL0     O48871   5.505   3.987   1.367  0.2890  0.7743 -0.0554
  363MOL0     C48872   5.548   3.876   1.363  0.2412  0.5414 -0.4236
  363MOL0     O48873   5.495   3.775   1.300 -0.0549  0.8886 -0.1585
  363MOL0     C48874   5.363   3.776   1.257  0.2208  0.8675  0.2621
  363MOL0     C48875   5.322   3.688   1.159  0.0306  1.3767 -1.2177
  363MOL0     C48876   5.195   3.669   1.132  0.5227  0.7016 -0.0017
  363MOL0     C48877   5.097   3.742   1.196 -0.4420 -0.5512  0.1831
  363MOL0     O48878   4.962   3.730   1.175  0.2767  0.1770 -0.1028
  363MOL0     C48879   4.909   3.649   1.067 -0.3517  0.3897 -0.3876
  363MOL0     C48880   4.760   3.656   1.073  0.7785  0.0008  0.1805
  363MOL0     C48881   4.685   3.592   0.956  0.2847 -0.3228  0.3282
  363MOL0     C48882   4.533   3.598   0.965  0.9707 -0.1378 -0.4251
  363MOL0     C48883   4.473   3.517   1.079  0.0370 -0.1343  0.3183
  363MOL0     C48884   4.322   3.546   1.098  0.1540 -0.0148 -0.0351
  363MOL0     C48885   4.258   3.462   1.215  0.7335  0.3224 -0.5609
  363MOL0     C48886   4.218   3.319   1.163 -0.1677  0.2713  0.0075
  363MOL0     N48887   4.179   3.237   1.275 -0.0527 -0.6880 -0.2746
  363MOL0     C48888   4.252   3.214   1.389 -0.2321 -0.6479 -0.4325
  363MOL0     C48889   4.168   3.131   1.457 -0.6258 -0.6199 -0.2491
  363MOL0     C48890   4.205   3.043   1.570 -0.4081 -0.9392 -0.9287
  363MOL0     C48891   4.328   2.952   1.538  0.0081  0.3445  0.0275
  363MOL0     C48892   4.403   2.911   1.670  0.3019 -0.1783  0.2542
  363MOL0     C48893   4.538   2.991   1.692  0.1269  0.6609  0.5316
  363MOL0     O48894   4.631   2.967   1.586  0.1756  0.9768  0.0811
  363MOL0     C48895   4.754   3.015   1.590 -0.3932  0.2847 -0.4029
  363MOL0     C48896   4.838   2.979   1.484 -0.2349  0.1662  0.3596
  363MOL0     C48897   4.976   2.998   1.487 -0.3680 -0.2330 -0.8035
  363MOL0     C48898   5.036   3.076   1.590  0.1198 -0.1636 -0.4704
  363MOL0     C48899   5.179   3.086   1.617 -0.3285  0.2620 -0.3260
  363MOL0     O48900   5.259   3.086   1.509 -0.5334 -0.4930 -0.2317
  363MOL0     C48901   5.398   3.077   1.531  0.0265  0.7726 -0.0451
  363MOL0     C48902   5.481   3.178   1.562 -1.3007  0.5008 -0.2978
  363MOL0     C48903   5.619   3.153   1.598  0.7913  0.1145  0.2828
  363MOL0     C48904   5.675   3.027   1.590  0.0700 -0.0977 -1.0736
  363MOL0     O48905   5.812   3.008   1.598 -0.1532  0.5939 -0.0391
  363MOL0     C48906   5.858   2.869   1.585  0.3934  0.5988  0.5845
  363MOL0     C48907   6.002   2.872   1.625 -0.0877  0.2926 -0.0532
  363MOL0     C48908   6.031   2.888   1.770 -0.0450 -0.9851  0.2553
  363MOL0     C48909   6.166   2.852   1.818 -0.1134  0.3516  0.5788
  363MOL0     C48910   6.176   2.808   1.961  0.5736  0.3000  0.0865
  363MOL0     C48911   6.323   2.766   2.007  0.5441  0.1795  0.7352
  363MOL0     C48912   6.329   2.735   2.155  0.2151  0.0336  0.4077
  363MOL0     C48913   6.345   2.861   2.240  0.4663 -0.5409 -0.6227
  363MOL0    Cl48914   6.513   2.931   2.234  0.2007 -0.3077  0.0025
  363MOL0     C48915   5.586   2.923   1.555  0.1228 -0.3146 -0.0083
  363MOL0     C48916   5.450   2.947   1.527 -0.1142 -0.2304  0.4486
  363MOL0     O48917   5.219   3.087   1.732  1.0358  0.0025  0.1469
  363MOL0     C48918   4.949   3.107   1.704  0.3386  0.5620 -0.2131
  363MOL0     C48919   4.810   3.076   1.702  0.2332 -0.4512  0.2360
  363MOL0     N48920   4.042   3.119   1.399  0.5756  0.6103 -0.7258
  363MOL0     N48921   4.054   3.186   1.283 -0.1768  0.4580 -0.3957
  363MOL0     C48922   5.126   3.834   1.292 -0.2138 -0.0939 -0.6922
  363MOL0     C48923   5.261   3.852   1.321 -0.9964 -0.9677 -0.7394
  363MOL0     C48924   5.687   3.858   1.415  0.2068  0.1710 -0.5681
  363MOL0     C48925   5.770   3.778   1.337 -0.6994  0.8251  0.3124
  363MOL0     C48926   5.907   3.779   1.363 -0.0594 -0.4236  0.4520
  363MOL0     C48927   5.962   3.840   1.482  0.2372  0.6348 -0.2798
  363MOL0     O48928   6.087   3.843   1.533  0.1638  0.0815 -0.1040
  363MOL0     C48929   6.191   3.765   1.478  0.1158  0.2844  0.1162
  363MOL0     C48930   6.288   3.854   1.391 -1.2497 -0.2293 -0.9865
  363MOL0     C48931   6.237   3.889   1.249 -0.1013  0.6457 -0.8384
  363MOL0     C48932   6.324   3.991   1.172  0.2215 -0.0636 -0.2263
  363MOL0     C48933   6.451   3.919   1.142 -0.3421  0.0138 -0.8117
  363MOL0     C48934   6.549   3.848   1.109  0.1254  0.0452 -0.5528
  363MOL0     C48935   5.872   3.893   1.575 -1.1017 -0.3856  0.1888
  363MOL0     C48936   5.731   3.913   1.539 -0.5910  0.7540  0.1039
  363MOL0     C48937   5.640   3.983   1.633 -0.1183  0.2239 -0.0899
  363MOL0     H48938   5.405   3.648   1.102  0.1603  1.6974 -1.2545
  363MOL0     H48939   5.170   3.599   1.052 -1.0403  1.1790  0.0426
  363MOL0     H48940   4.945   3.690   0.972 -1.7983  1.2633 -0.5856
  363MOL0     H48941   4.942   3.545   1.072  2.2446  1.2121  1.6252
  363MOL0     H48942   4.731   3.761   1.057  2.2089  0.2937 -0.6015
  363MOL0     H48943   4.731   3.622   1.173  4.1675 -1.2936  0.8217
  363MOL0     H48944   4.721   3.489   0.945 -2.2841 -1.6074  2.6986
  363MOL0     H48945   4.706   3.646   0.864  2.8834  2.2477  2.2476
  363MOL0     H48946   4.492   3.700   0.961  1.8267  0.2855  0.8171
  363MOL0     H48947   4.494   3.560   0.870  1.2184  1.9434 -1.4382
  363MOL0     H48948   4.499   3.412   1.063  3.6726  0.7654 -0.7009
  363MOL0     H48949   4.519   3.551   1.172 -1.4651  1.1412  0.6481
  363MOL0     H48950   4.320   3.654   1.114  0.9970  0.2923 -1.8133
  363MOL0     H48951   4.273   3.527   1.003 -3.4526 -0.7725  1.7894
  363MOL0     H48952   4.165   3.512   1.244 -0.9084 -1.8954 -1.6931
  363MOL0     H48953   4.325   3.457   1.302 -0.1656 -2.2724  0.0814
  363MOL0     H48954   4.134   3.318   1.093 -1.7515  0.6750  1.8229
  363MOL0     H48955   4.304   3.268   1.118  0.4722  1.4324 -0.1572
  363MOL0     H48956   4.356   3.233   1.417  0.5964 -2.2701 -2.1899
  363MOL0     H48957   4.215   3.108   1.658 -1.0853  1.7117 -2.6931
  363MOL0     H48958   4.119   2.978   1.591  0.7274 -1.9520  0.8676
  363MOL0     H48959   4.291   2.857   1.497  0.4972 -0.2199  0.8678
  363MOL0     H48960   4.396   2.991   1.461  0.4798  0.6945  0.6194
  363MOL0     H48961   4.430   2.805   1.668  0.7394 -0.2517  3.8351
  363MOL0     H48962   4.323   2.925   1.743 -0.9826  1.0576 -1.2928
  363MOL0     H48963   4.579   2.961   1.788 -0.6144  1.0582  0.9861
  363MOL0     H48964   4.509   3.097   1.696 -1.1232  0.3516  0.1922
  363MOL0     H48965   4.795   2.919   1.404 -1.6377 -1.1742  2.0329
  363MOL0     H48966   5.047   2.964   1.412  0.0203 -0.2487 -0.4321
  363MOL0     H48967   5.434   3.276   1.577 -0.0275  1.3052 -1.4007
  363MOL0     H48968   5.691   3.230   1.621  1.6790 -0.3761 -0.7369
  363MOL0     H48969   5.802   2.811   1.659 -5.1979  3.1835 -1.0471
  363MOL0     H48970   5.847   2.827   1.485  1.8854 -0.2085  0.7300
  363MOL0     H48971   6.042   2.776   1.591 -1.5457 -0.0340 -0.9710
  363MOL0     H48972   6.053   2.946   1.563 -2.2225  0.6903 -1.4497
  363MOL0     H48973   6.015   2.994   1.790  1.0203 -0.8193  0.2858
  363MOL0     H48974   5.957   2.828   1.825 -2.3391  2.1919  0.9381
  363MOL0     H48975   6.232   2.936   1.794 -1.5792  0.8044 -2.1810
  363MOL0     H48976   6.203   2.765   1.762 -1.2436  0.4309 -0.3232
  363MOL0     H48977   6.109   2.723   1.979 -1.0345  1.8895  2.0083
  363MOL0     H48978   6.137   2.887   2.025 -0.6598 -0.1753 -0.0479
  363MOL0     H48979   6.348   2.677   1.950  1.1899  0.0784  1.1680
  363MOL0     H48980   6.398   2.842   1.981 -1.6307  1.6711 -1.7156
  363MOL0     H48981   6.410   2.668   2.187  1.1838  2.1111  2.6352
  363MOL0     H48982   6.232   2.689   2.178 -0.7568  1.3345 -0.9080
  363MOL0     H48983   6.265   2.934   2.223 -0.2723 -0.4783  2.6094
  363MOL0     H48984   6.329   2.832   2.344  1.3067  0.0821 -0.3075
  363MOL0     H48985   5.623   2.821   1.544  0.3204 -0.0477 -2.3031
  363MOL0     H48986   5.381   2.869   1.498 -0.5722  0.6627 -0.9750
  363MOL0     H48987   4.988   3.144   1.798 -2.1002 -1.4633  1.7266
  363MOL0     H48988   4.755   3.091   1.794 -0.1293 -0.6039  0.0476
  363MOL0     H48989   5.040   3.883   1.337 -1.5083 -3.0256  0.2701
  363MOL0     H48990   5.276   3.917   1.407 -0.6803 -0.5683 -1.0968
  363MOL0     H48991   5.735   3.719   1.253 -2.5100 -0.6812  2.0266
  363MOL0     H48992   5.972   3.729   1.291  0.9757 -0.8972  1.6680
  363MOL0     H48993   6.158   3.682   1.414  0.7143  0.5749 -0.5861
  363MOL0     H48994   6.247   3.733   1.566 -0.0450  3.3149  1.4485
  363MOL0     H48995   6.381   3.798   1.385 -0.7313  0.5715 -0.6556
  363MOL0     H48996   6.306   3.944   1.452  0.1917  1.6515 -3.9337
  363MOL0     H48997   6.141   3.940   1.264  0.8120  1.9574  0.8593
  363MOL0     H48998   6.235   3.792   1.200  1.5018 -0.5917  1.4027
  363MOL0     H48999   6.283   4.010   1.072 -0.3473 -1.8904 -0.3810
  363MOL0     H49000   6.324   4.082   1.232 -1.6206  0.8717 -1.5717
  363MOL0     H49001   6.628   3.780   1.084  0.2150 -1.3087  2.9436
  363MOL0     H49002   5.917   3.940   1.662  2.2370 -2.5762 -0.1901
  363MOL0     H49003   5.691   3.973   1.729  4.1775  0.5251 -2.0781
  363MOL0     H49004   5.640   4.084   1.590  0.3015 -0.1643 -1.0308
  363MOL0     H49005   5.538   3.944   1.638 -0.2096  0.5103  5.0700
  364MOL0     O49006  10.530   6.728   0.392 -0.1422  0.2499  0.6244
  364MOL0     C49007  10.616   6.640   0.410  0.7307  0.0625 -0.6530
  364MOL0     O49008  10.591   6.509   0.451  0.6447  0.7858  0.6739
  364MOL0     C49009  10.464   6.466   0.486 -0.2079  0.5200  0.0549
  364MOL0     C49010  10.366   6.542   0.553  0.0932 -0.4666  0.4782
  364MOL0     C49011  10.250   6.478   0.597  1.0519  0.6079 -0.2662
  364MOL0     C49012  10.229   6.339   0.573 -0.4596 -0.3695 -1.2887
  364MOL0     O49013  10.100   6.300   0.604 -0.0839 -0.1434 -0.2969
  364MOL0     C49014  10.060   6.159   0.603 -0.7717 -0.6353 -0.0278
  364MOL0     C49015   9.934   6.136   0.686 -0.4651 -0.2341 -0.5576
  364MOL0     C49016   9.809   6.209   0.630  0.4705  0.2692 -0.0043
  364MOL0     C49017   9.681   6.200   0.719 -0.2271  0.3465  0.5974
  364MOL0     C49018   9.699   6.286   0.836 -0.2524 -0.0514 -0.7228
  364MOL0     C49019   9.701   6.443   0.819 -0.3267  0.2168  0.5164
  364MOL0     C49020   9.588   6.512   0.726  0.4804  0.0677  0.1215
  364MOL0     C49021   9.448   6.458   0.771  1.1659 -0.1455 -0.2118
  364MOL0     N49022   9.428   6.490   0.917 -0.2153  0.0485  0.5232
  364MOL0     C49023   9.357   6.410   1.002  0.0588  0.2979 -0.6592
  364MOL0     C49024   9.339   6.480   1.115 -0.3454  0.1891  0.0226
  364MOL0     C49025   9.266   6.435   1.233 -0.1009 -0.8006  0.5757
  364MOL0     C49026   9.130   6.504   1.243 -0.2242  0.4078  0.4957
  364MOL0     C49027   9.070   6.480   1.383 -0.8531  0.0897  0.1453
  364MOL0     C49028   8.930   6.536   1.396 -0.1160  0.7412  0.2528
  364MOL0     O49029   8.857   6.479   1.287 -0.1191  0.5845 -0.3588
  364MOL0     C49030   8.733   6.533   1.248  0.0810 -0.0368 -0.7918
  364MOL0     C49031   8.646   6.454   1.167 -0.3189 -0.3947 -0.7829
  364MOL0     C49032   8.517   6.499   1.132 -0.2403  0.2260 -0.2553
  364MOL0     C49033   8.475   6.628   1.172 -0.2411 -0.5034 -0.6815
  364MOL0     C49034   8.354   6.692   1.130 -0.6060  1.1118  0.8575
  364MOL0     O49035   8.324   6.819   1.165  0.2471 -0.5080 -0.1395
  364MOL0     C49036   8.203   6.876   1.142 -0.2120  0.1233 -0.1094
  364MOL0     C49037   8.194   7.019   1.159  0.5044  0.0830  0.1004
  364MOL0     C49038   8.075   7.088   1.122  0.2493 -0.1299 -0.2794
  364MOL0     C49039   7.961   7.012   1.076 -0.7232 -0.5686  0.0469
  364MOL0     O49040   7.838   7.066   1.035  0.5340 -0.1298 -0.8365
  364MOL0     C49041   7.836   7.210   1.045  0.8354 -0.1198  0.5564
  364MOL0     C49042   7.688   7.253   1.010 -0.2126  0.2870 -0.6375
  364MOL0     C49043   7.657   7.394   1.053  1.5791 -0.5038  0.4401
  364MOL0     C49044   7.553   7.471   0.965  0.0330 -0.8921  0.5442
  364MOL0     C49045   7.412   7.422   0.996  0.1640 -0.4791  0.0672
  364MOL0     C49046   7.341   7.391   0.863  0.1405  0.5154  0.3602
  364MOL0     C49047   7.195   7.331   0.896 -0.2979  0.5448  0.5043
  364MOL0     C49048   7.113   7.324   0.762  1.1460 -0.2455  0.2869
  364MOL0    Cl49049   7.001   7.466   0.734  0.2814 -0.1069 -0.3609
  364MOL0     C49050   7.966   6.874   1.070  0.2504  0.8067 -0.2317
  364MOL0     C49051   8.083   6.802   1.094  0.0716  0.4449 -1.0606
  364MOL0     O49052   8.291   6.629   1.042 -0.0560  0.2410 -0.7186
  364MOL0     C49053   8.565   6.707   1.253  0.1837  0.1590  0.9744
  364MOL0     C49054   8.685   6.657   1.292 -0.3601  0.7072  0.8638
  364MOL0     N49055   9.416   6.601   1.104 -0.2730 -0.3102  0.3260
  364MOL0     N49056   9.466   6.606   0.984  0.1501  0.5169 -0.2269
  364MOL0     C49057  10.328   6.262   0.510  0.3711 -0.5857  0.6246
  364MOL0     C49058  10.444   6.327   0.471 -0.2524 -0.6288  0.1711
  364MOL0     C49059  10.756   6.662   0.381  0.1987  0.5850  0.2007
  364MOL0     C49060  10.819   6.578   0.285 -0.3597 -0.4783 -0.2358
  364MOL0     C49061  10.945   6.606   0.235  0.9702  0.2946  0.4538
  364MOL0     C49062  11.014   6.709   0.290 -0.5575 -0.3268 -0.0192
  364MOL0     O49063  11.144   6.737   0.269 -0.8692 -0.0993  0.2897
  364MOL0     C49064  11.186   6.725   0.130  0.5977 -0.4841 -0.2171
  364MOL0     C49065  11.311   6.797   0.103  0.6883 -0.2378  0.1344
  364MOL0     C49066  11.437   6.737   0.172 -0.2589 -0.0863  0.0083
  364MOL0     C49067  11.584   6.786   0.120  0.1556 -0.0873  0.8482
  364MOL0     C49068  11.690   6.711   0.187  0.2755  0.7339  0.2141
  364MOL0     C49069  11.771   6.649   0.247  1.0908  0.0670  0.0028
  364MOL0     C49070  10.959   6.794   0.384 -0.1939  0.3433  0.0578
  364MOL0     C49071  10.826   6.776   0.429  0.3290  1.1645 -0.3353
  364MOL0     C49072  10.779   6.858   0.548 -0.1277  0.0817 -0.2421
  364MOL0     H49073  10.391   6.646   0.572  1.8074 -0.7008 -0.2294
  364MOL0     H49074  10.174   6.535   0.649 -0.8244  0.0984 -2.2728
  364MOL0     H49075  10.059   6.105   0.508  3.1985  0.5099 -0.8765
  364MOL0     H49076  10.144   6.107   0.651 -0.5209  0.2843  0.5439
  364MOL0     H49077   9.946   6.164   0.792 -2.5240  0.6852 -0.5273
  364MOL0     H49078   9.905   6.031   0.679 -3.0538  0.5261 -3.4753
  364MOL0     H49079   9.780   6.142   0.549  0.8958 -0.0647  0.1175
  364MOL0     H49080   9.836   6.307   0.588 -0.6225  0.7340  0.3516
  364MOL0     H49081   9.592   6.232   0.663 -1.8219 -1.3484  2.0252
  364MOL0     H49082   9.666   6.095   0.745 -1.1124 -0.4697 -2.7575
  364MOL0     H49083   9.619   6.274   0.910  1.2466  1.9344  1.3930
  364MOL0     H49084   9.791   6.255   0.886 -0.0455 -1.9764 -2.1954
  364MOL0     H49085   9.695   6.491   0.917 -4.6237  3.9650 -1.1770
  364MOL0     H49086   9.799   6.460   0.772  0.0970 -0.2306  1.2134
  364MOL0     H49087   9.601   6.493   0.619  1.1007 -1.1051  0.3913
  364MOL0     H49088   9.590   6.621   0.735 -0.4124  0.0837  0.2119
  364MOL0     H49089   9.385   6.514   0.700 -1.4279 -1.3654  0.9884
  364MOL0     H49090   9.437   6.351   0.753  1.4813 -0.9921  3.7707
  364MOL0     H49091   9.321   6.311   0.978  0.8943 -0.6193  1.5888
  364MOL0     H49092   9.250   6.327   1.242 -0.2871 -0.6913  1.7072
  364MOL0     H49093   9.322   6.477   1.317  0.6814  1.1505 -0.8632
  364MOL0     H49094   9.133   6.613   1.235  1.5959  0.3524 -0.0747
  364MOL0     H49095   9.068   6.461   1.164  1.5558 -1.5829  0.1184
  364MOL0     H49096   9.136   6.526   1.457 -2.6562 -1.7868  3.1164
  364MOL0     H49097   9.074   6.371   1.395  2.5733 -0.1306 -1.5475
  364MOL0     H49098   8.941   6.643   1.377  1.5877  0.1241 -2.8322
  364MOL0     H49099   8.883   6.515   1.493  4.0534  1.8793  2.7615
  364MOL0     H49100   8.676   6.357   1.128  1.2111  0.4214 -1.7392
  364MOL0     H49101   8.453   6.428   1.082 -1.3090 -0.9941  2.6291
  364MOL0     H49102   8.285   7.064   1.197  1.8832 -2.2267 -0.2828
  364MOL0     H49103   8.091   7.195   1.126  2.3260 -0.1542 -3.6556
  364MOL0     H49104   7.863   7.250   1.143  1.1202 -1.3406  0.9978
  364MOL0     H49105   7.907   7.261   0.979 -0.0143  1.0778  0.5370
  364MOL0     H49106   7.672   7.241   0.902  0.8861 -0.6012 -0.7152
  364MOL0     H49107   7.620   7.181   1.056  0.2437 -1.0401 -1.9542
  364MOL0     H49108   7.618   7.391   1.155 -3.0051 -0.1942 -1.0878
  364MOL0     H49109   7.752   7.448   1.050  1.3937 -0.2078 -0.4473
  364MOL0     H49110   7.593   7.455   0.864 -2.8812  0.2198 -0.9132
  364MOL0     H49111   7.555   7.576   0.994 -1.1836 -1.1161  1.5371
  364MOL0     H49112   7.364   7.498   1.058 -0.9687 -2.4458  1.7338
  364MOL0     H49113   7.420   7.328   1.052  0.4738 -0.7518 -0.4169
  364MOL0     H49114   7.341   7.478   0.797  3.7070  1.8502  1.8632
  364MOL0     H49115   7.408   7.321   0.813  1.6752  2.1937 -0.0404
  364MOL0     H49116   7.145   7.399   0.965 -0.6518  1.1370 -0.3198
  364MOL0     H49117   7.207   7.233   0.942 -2.3534 -0.5899 -1.2117
  364MOL0     H49118   7.193   7.326   0.688  0.3203  0.7610 -0.5967
  364MOL0     H49119   7.060   7.228   0.758  0.4399 -0.0222  2.4973
  364MOL0     H49120   7.889   6.803   1.044  0.3703  0.9772 -1.1004
  364MOL0     H49121   8.086   6.695   1.078  2.6025  0.2960 -0.0762
  364MOL0     H49122   8.527   6.806   1.276  2.2264  1.9683 -2.5780
  364MOL0     H49123   8.749   6.719   1.353 -0.3510  0.2097  1.3666
  364MOL0     H49124  10.326   6.155   0.491  0.2701 -1.1502  3.4433
  364MOL0     H49125  10.525   6.276   0.420 -0.1483 -0.0532 -0.2523
  364MOL0     H49126  10.769   6.490   0.246 -0.7125  0.5685 -2.2417
  364MOL0     H49127  10.986   6.538   0.161 -1.5370 -0.0765 -0.7035
  364MOL0     H49128  11.115   6.772   0.062 -0.4093 -1.3481  0.1953
  364MOL0     H49129  11.211   6.623   0.099  2.6647  0.7264 -2.8872
  364MOL0     H49130  11.295   6.892   0.155 -1.2359 -1.2494  1.5550
  364MOL0     H49131  11.327   6.806  -0.005 -1.0036  0.2747 -0.1119
  364MOL0     H49132  11.428   6.631   0.146 -1.7480 -0.2959  1.2379
  364MOL0     H49133  11.438   6.737   0.281  1.5667  1.5223  0.0577
  364MOL0     H49134  11.580   6.760   0.014 -1.3141 -1.7610  1.2663
  364MOL0     H49135  11.602   6.894   0.124  1.1401 -0.2476  0.9325
  364MOL0     H49136  11.848   6.591   0.294 -1.3042 -2.5592  0.9805
  364MOL0     H49137  11.011   6.878   0.428  1.1853  0.7791 -2.1979
  364MOL0     H49138  10.683   6.901   0.516 -1.6921 -1.5456  1.8982
  364MOL0     H49139  10.759   6.784   0.627  1.3772  0.6839  0.7566
  364MOL0     H49140  10.848   6.933   0.587  2.2135 -2.5774  1.1207
  365MOL0     O49141   8.634   9.543   8.905  0.1577  0.3367 -0.2593
  365MOL0     C49142   8.577   9.648   8.928  1.3137 -0.9241  0.2170
  365MOL0     O49143   8.637   9.773   8.961 -0.3392 -0.0909  0.0291
  365MOL0     C49144   8.767   9.785   9.007  0.2430 -0.1459 -0.2445
  365MOL0     C49145   8.797   9.915   9.047  0.5152  0.2441  1.0884
  365MOL0     C49146   8.936   9.948   9.069  0.4529 -0.3888 -0.0646
  365MOL0     C49147   9.038   9.853   9.066  0.4461 -0.2018 -0.5629
  365MOL0     O49148   9.173   9.882   9.097  0.4062 -0.6911  0.8970
  365MOL0     C49149   9.219  10.013   9.050 -0.2490  0.1265 -0.2596
  365MOL0     C49150   9.359  10.047   9.118  0.1073  0.1284  0.2261
  365MOL0     C49151   9.450   9.926   9.093 -0.7208 -0.1675 -0.1425
  365MOL0     C49152   9.600   9.952   9.126 -0.4006  0.4192  0.5743
  365MOL0     C49153   9.683   9.825   9.138  0.7770  0.3537  1.1214
  365MOL0     C49154   9.828   9.846   9.187 -0.6071 -0.2206 -0.3530
  365MOL0     C49155   9.916   9.922   9.084  0.9515  1.0466 -0.1833
  365MOL0     C49156  10.039   9.958   9.148  0.7541 -0.1871  0.0868
  365MOL0     N49157  10.134  10.005   9.047 -0.5609 -0.2078  0.2770
  365MOL0     C49158  10.267  10.040   9.077  0.8177  0.0405  0.0853
  365MOL0     C49159  10.326  10.082   8.964 -0.0092 -0.3976 -0.3748
  365MOL0     C49160  10.462  10.145   8.957  0.0636 -0.2643  0.6650
  365MOL0     C49161  10.505  10.211   8.824  0.7004 -0.7368 -0.0170
  365MOL0     C49162  10.613  10.321   8.850  0.4174  0.4528  0.0616
  365MOL0     C49163  10.748  10.252   8.899  0.1627 -0.0509  0.0970
  365MOL0     O49164  10.828  10.369   8.899  0.3460  0.4503 -0.9169
  365MOL0     C49165  10.963  10.351   8.897 -0.7927  0.9558 -0.6662
  365MOL0     C49166  11.040  10.260   8.969 -0.8474  1.0059 -0.3919
  365MOL0     C49167  11.175  10.267   8.955 -0.3683 -0.5207 -0.1691
  365MOL0     C49168  11.247  10.357   8.863  0.1953  1.1932 -0.4023
  365MOL0     C49169  11.391  10.339   8.853  0.3028  0.1551  0.1041
  365MOL0     O49170  11.444  10.216   8.869 -0.6227 -0.4964  0.8176
  365MOL0     C49171  11.565  10.167   8.821 -0.3077 -1.3133  0.0083
  365MOL0     C49172  11.622  10.066   8.899  0.3998  0.6130 -0.0116
  365MOL0     C49173  11.747  10.016   8.868 -0.2356 -0.5152 -0.3046
  365MOL0     C49174  11.820  10.066   8.756 -0.0039 -1.3693  0.0682
  365MOL0     O49175  11.936  10.007   8.725 -0.8287  0.4387  0.3254
  365MOL0     C49176  12.023  10.090   8.643 -0.5890 -0.1814 -0.6857
  365MOL0     C49177  12.153  10.016   8.610  0.3193 -0.6256  0.3954
  365MOL0     C49178  12.257  10.116   8.549 -0.7173 -0.0676  0.1655
  365MOL0     C49179  12.389  10.066   8.495  0.1520  0.5211 -0.2209
  365MOL0     C49180  12.497  10.174   8.470  0.2125  0.4698 -0.6565
  365MOL0     C49181  12.635  10.123   8.423  0.9730  0.4638 -0.1985
  365MOL0     C49182  12.722  10.239   8.398 -0.1186 -0.3986 -0.5343
  365MOL0     C49183  12.864  10.192   8.356  1.3308 -0.1499  0.7748
  365MOL0    Cl49184  12.859  10.100   8.209  0.2718  0.1032  0.3978
  365MOL0     C49185  11.762  10.176   8.683 -1.0837 -0.3727  0.0723
  365MOL0     C49186  11.641  10.230   8.716 -0.6506 -0.3012  0.1740
  365MOL0     O49187  11.456  10.438   8.810 -0.5786 -0.2777  0.2227
  365MOL0     C49188  11.167  10.446   8.794 -0.0183 -0.6812 -0.2270
  365MOL0     C49189  11.028  10.439   8.809  1.0819  0.8007  0.1414
  365MOL0     N49190  10.231  10.074   8.865 -0.0551  0.6524 -0.7362
  365MOL0     N49191  10.120  10.027   8.911  0.4030 -0.3889  0.5289
  365MOL0     C49192   9.006   9.719   9.033  0.5210 -0.1648  0.8325
  365MOL0     C49193   8.870   9.681   9.009  0.1091 -0.0069  0.5798
  365MOL0     C49194   8.438   9.659   8.880 -0.1489 -0.2212  0.2568
  365MOL0     C49195   8.402   9.774   8.807  0.1075 -0.5290  0.2448
  365MOL0     C49196   8.283   9.797   8.753 -0.3719 -0.4739  0.2684
  365MOL0     C49197   8.179   9.708   8.772  0.1661  0.1283 -0.6674
  365MOL0     O49198   8.055   9.717   8.719  0.0275  0.6700 -0.3805
  365MOL0     C49199   8.021   9.848   8.643 -0.2128  0.0596  0.1443
  365MOL0     C49200   7.901   9.812   8.555 -0.1207  0.3261 -0.5402
  365MOL0     C49201   7.926   9.709   8.452 -0.7837  0.0324 -0.6567
  365MOL0     C49202   7.797   9.675   8.383 -0.8093  0.2843  0.5283
  365MOL0     C49203   7.755   9.776   8.290  0.8427  0.6033  0.6497
  365MOL0     C49204   7.702   9.868   8.218  0.2217 -0.6542 -0.7550
  365MOL0     C49205   8.209   9.589   8.838 -0.4373 -0.0320 -0.7172
  365MOL0     C49206   8.335   9.568   8.895  0.0926  0.3427 -0.2242
  365MOL0     C49207   8.358   9.430   8.944 -0.3612 -0.2395 -0.1802
  365MOL0     H49208   8.719   9.990   9.056  0.9034  0.7694  0.3055
  365MOL0     H49209   8.948  10.052   9.097 -0.2775 -0.2510 -0.2430
  365MOL0     H49210   9.234   9.996   8.943 -0.3037 -1.4768 -0.0374
  365MOL0     H49211   9.145  10.089   9.073 -1.9123 -1.2688 -0.8258
  365MOL0     H49212   9.349  10.061   9.226 -0.3971  0.6417  0.1155
  365MOL0     H49213   9.411  10.132   9.072  0.0583 -0.5898 -1.2003
  365MOL0     H49214   9.442   9.892   8.989 -1.5001  1.9721 -0.8328
  365MOL0     H49215   9.411   9.844   9.154  0.8264 -2.0554 -1.5584
  365MOL0     H49216   9.647  10.004   9.042 -0.5158 -0.2980  0.0541
  365MOL0     H49217   9.610  10.018   9.212 -1.6552 -2.4188  3.0501
  365MOL0     H49218   9.624   9.764   9.207 -0.5158  0.4316  0.1309
  365MOL0     H49219   9.687   9.769   9.044 -0.6295 -0.2269  1.3791
  365MOL0     H49220   9.821   9.911   9.275 -0.6432 -0.6247 -0.0518
  365MOL0     H49221   9.875   9.751   9.215 -0.5558  0.4129  1.9175
  365MOL0     H49222   9.862  10.007   9.041  1.5095  1.0910 -0.8035
  365MOL0     H49223   9.936   9.853   9.002 -4.3868 -0.0491 -0.9556
  365MOL0     H49224  10.018  10.030   9.227 -0.7769 -1.3464  0.7893
  365MOL0     H49225  10.086   9.871   9.197  0.6542 -0.6267 -0.5787
  365MOL0     H49226  10.313  10.048   9.175  1.1906  2.0894 -0.2242
  365MOL0     H49227  10.466  10.221   9.036  1.4546 -1.0553  1.3939
  365MOL0     H49228  10.541  10.070   8.965  1.4731  0.8837 -1.5821
  365MOL0     H49229  10.530  10.137   8.747  1.9137 -1.5625  1.1204
  365MOL0     H49230  10.421  10.272   8.788  0.2514 -2.6092 -2.4461
  365MOL0     H49231  10.582  10.397   8.922 -3.1707 -0.9090  0.1217
  365MOL0     H49232  10.628  10.381   8.759 -2.2592  1.7660  0.3920
  365MOL0     H49233  10.783  10.175   8.830 -0.3131 -0.3845  0.2232
  365MOL0     H49234  10.735  10.207   8.998 -2.2486  2.6515  1.1416
  365MOL0     H49235  10.993  10.191   9.039 -0.3135  1.9382  0.9131
  365MOL0     H49236  11.225  10.187   9.007  0.7753  0.0984 -0.2716
  365MOL0     H49237  11.572  10.020   8.984  2.8819 -0.7126  0.8106
  365MOL0     H49238  11.793   9.931   8.919  1.4142 -2.0656 -4.0016
  365MOL0     H49239  11.982  10.143   8.556 -2.2745  0.1069  0.2326
  365MOL0     H49240  12.049  10.167   8.716  1.7271 -3.1014  1.8191
  365MOL0     H49241  12.200   9.962   8.693  3.0375  0.4048 -0.3480
  365MOL0     H49242  12.145   9.937   8.535  1.5608  0.3009 -0.7565
  365MOL0     H49243  12.201  10.167   8.470 -0.3630  0.1659  0.0631
  365MOL0     H49244  12.278  10.191   8.626  1.1603 -1.6815  1.3214
  365MOL0     H49245  12.370   9.995   8.413 -1.4987 -1.4825  1.7601
  365MOL0     H49246  12.425  10.006   8.579 -1.3259 -0.9590 -0.5925
  365MOL0     H49247  12.513  10.215   8.570  0.7767 -0.7699 -0.2183
  365MOL0     H49248  12.445  10.245   8.406 -5.6023 -1.8959  0.8069
  365MOL0     H49249  12.664  10.058   8.506 -0.4345  2.0228  1.6414
  365MOL0     H49250  12.617  10.073   8.328 -1.6196  1.3125 -0.2409
  365MOL0     H49251  12.744  10.302   8.485  3.9291 -0.6859 -1.1392
  365MOL0     H49252  12.682  10.297   8.314  0.1191  1.4427  0.5593
  365MOL0     H49253  12.938  10.271   8.337  1.6502 -0.4797  0.6169
  365MOL0     H49254  12.905  10.135   8.440 -0.9251  0.5243  2.4086
  365MOL0     H49255  11.810  10.217   8.595 -0.5608 -0.5197  0.2792
  365MOL0     H49256  11.599  10.308   8.654  4.3924  1.5423 -1.4369
  365MOL0     H49257  11.217  10.521   8.732 -1.2675 -0.9666 -1.6335
  365MOL0     H49258  10.966  10.514   8.760 -2.1555 -0.3569  2.1484
  365MOL0     H49259   9.077   9.637   9.030 -0.9605 -1.4629 -0.7557
  365MOL0     H49260   8.849   9.578   8.984 -1.3655  0.9284 -2.6242
  365MOL0     H49261   8.479   9.850   8.799  0.2309 -0.7977 -1.5714
  365MOL0     H49262   8.272   9.895   8.708 -1.4223  0.2735  2.0234
  365MOL0     H49263   8.103   9.871   8.574  1.0639 -1.6041  1.0329
  365MOL0     H49264   8.009   9.932   8.713  1.9861  0.9911 -0.4938
  365MOL0     H49265   7.873   9.908   8.511 -1.1386  0.9881  1.4266
  365MOL0     H49266   7.814   9.782   8.613  0.0532 -0.1998 -0.5484
  365MOL0     H49267   7.951   9.614   8.500 -1.2743 -0.7418 -1.8814
  365MOL0     H49268   8.004   9.745   8.383 -0.8934  1.5790 -0.0219
  365MOL0     H49269   7.814   9.577   8.336  2.0134 -0.0982  2.1355
  365MOL0     H49270   7.719   9.675   8.459 -1.7344  0.7534 -0.3989
  365MOL0     H49271   7.633   9.927   8.161 -3.5501 -2.8817  1.0973
  365MOL0     H49272   8.131   9.514   8.840 -0.5515  0.0821 -0.9372
  365MOL0     H49273   8.281   9.364   8.903  1.0899 -1.7300 -0.6067
  365MOL0     H49274   8.456   9.388   8.921 -0.6746 -0.5385 -1.0095
  365MOL0     H49275   8.340   9.434   9.052 -0.8764  0.4460 -0.2783
  366MOL0     O49276   1.078   1.705   7.922 -0.4783 -0.6542 -0.1133
  366MOL0     C49277   0.959   1.674   7.933 -0.7743  0.2668 -0.0016
  366MOL0     O49278   0.871   1.675   7.829  0.0015  0.0957 -0.2079
  366MOL0     C49279   0.904   1.690   7.703  0.4031 -0.1710 -0.7402
  366MOL0     C49280   0.818   1.745   7.615  1.1700 -0.0898  0.7165
  366MOL0     C49281   0.861   1.738   7.476 -0.2029 -0.2580  0.5355
  366MOL0     C49282   0.980   1.681   7.433 -0.3945 -1.3319  0.2496
  366MOL0     O49283   1.017   1.689   7.299  0.1140 -0.1603 -0.2601
  366MOL0     C49284   1.144   1.648   7.255  0.3148  0.4065  0.0901
  366MOL0     C49285   1.257   1.738   7.293 -0.0878  0.0386 -0.0492
  366MOL0     C49286   1.387   1.706   7.211 -0.3855  0.1891  0.0652
  366MOL0     C49287   1.380   1.789   7.089  0.5063  0.4163  0.0273
  366MOL0     C49288   1.515   1.852   7.044  0.9268  0.0531  0.3129
  366MOL0     C49289   1.542   1.978   7.126  0.7668  0.0960  1.2097
  366MOL0     C49290   1.673   2.062   7.077  0.2350 -0.6518  0.0527
  366MOL0     C49291   1.799   1.987   7.120  0.3241  0.2339  0.4940
  366MOL0     N49292   1.928   2.062   7.109  0.0515 -0.0100 -0.1807
  366MOL0     C49293   1.951   2.176   7.178 -0.0563 -0.2067  0.6740
  366MOL0     C49294   2.069   2.232   7.133  1.4383  1.0391  0.3288
  366MOL0     C49295   2.152   2.350   7.184 -0.3316 -0.4161 -0.4201
  366MOL0     C49296   2.287   2.288   7.238 -0.2782  0.0719  0.2766
  366MOL0     C49297   2.342   2.397   7.325  0.2483 -0.0114  0.1220
  366MOL0     C49298   2.436   2.485   7.243  0.2543 -0.1298  0.0514
  366MOL0     O49299   2.509   2.596   7.307 -0.1655 -0.1490  0.0215
  366MOL0     C49300   2.630   2.586   7.366  0.3440 -0.8945 -0.4158
  366MOL0     C49301   2.695   2.705   7.399 -0.9295  0.1968  0.2486
  366MOL0     C49302   2.826   2.699   7.454  0.1550  0.1014  0.0962
  366MOL0     C49303   2.884   2.574   7.473 -0.1780  0.4596  0.3572
  366MOL0     C49304   3.022   2.564   7.537 -0.3478 -0.2021  0.5344
  366MOL0     O49305   3.051   2.448   7.617  0.0385 -0.5209 -0.5085
  366MOL0     C49306   3.181   2.449   7.656  0.2635  0.3423  0.5536
  366MOL0     C49307   3.272   2.395   7.567 -0.3205 -0.1630 -0.2218
  366MOL0     C49308   3.412   2.400   7.599  0.2243 -0.3720  0.0024
  366MOL0     C49309   3.451   2.446   7.724 -0.0850 -0.9445 -0.0373
  366MOL0     O49310   3.585   2.438   7.766  0.4311  0.0990  0.0779
  366MOL0     C49311   3.681   2.516   7.692  0.9495  0.1537 -0.3289
  366MOL0     C49312   3.809   2.427   7.693 -0.4156 -1.4769  0.2594
  366MOL0     C49313   3.930   2.509   7.640 -0.5087 -0.8469  0.3063
  366MOL0     C49314   4.061   2.427   7.660 -0.1332 -0.2455 -0.0970
  366MOL0     C49315   4.176   2.523   7.623 -0.2190 -0.1274  0.3499
  366MOL0     C49316   4.312   2.449   7.633  0.2196 -0.0435  0.0917
  366MOL0     C49317   4.434   2.537   7.611 -0.1516 -0.4633 -0.3469
  366MOL0     C49318   4.561   2.465   7.648 -0.6886 -0.0348  0.3114
  366MOL0    Cl49319   4.581   2.425   7.818 -0.2908 -0.4633 -0.0508
  366MOL0     C49320   3.358   2.510   7.806 -0.2459  0.3138 -0.1903
  366MOL0     C49321   3.222   2.505   7.773  0.0782 -0.2383 -0.5955
  366MOL0     O49322   3.107   2.649   7.507 -0.3757 -0.4389 -0.2895
  366MOL0     C49323   2.820   2.459   7.435  0.3373 -0.5077 -0.0444
  366MOL0     C49324   2.687   2.462   7.381 -0.5991  0.1612 -1.1139
  366MOL0     N49325   2.110   2.149   7.033  0.4607 -0.5551 -0.5745
  366MOL0     N49326   2.036   2.046   7.029  0.1419  0.3324  0.4149
  366MOL0     C49327   1.054   1.616   7.531  0.3869  0.7260  0.4543
  366MOL0     C49328   1.021   1.629   7.663 -0.2666 -0.0138 -0.1862
  366MOL0     C49329   0.920   1.647   8.070 -0.5786  1.1746 -1.0267
  366MOL0     C49330   0.817   1.724   8.135  0.4450 -0.3771  0.4542
  366MOL0     C49331   0.773   1.693   8.272  0.3314  0.3037 -0.9256
  366MOL0     C49332   0.843   1.600   8.348 -0.2141  1.0358  1.0849
  366MOL0     O49333   0.806   1.575   8.475  0.0305 -0.6648  0.0449
  366MOL0     C49334   0.749   1.675   8.570 -0.0918  0.4260  0.4953
  366MOL0     C49335   0.599   1.659   8.562 -0.9813  0.0423 -0.7371
  366MOL0     C49336   0.517   1.767   8.638  0.2820  0.5041  0.1611
  366MOL0     C49337   0.472   1.900   8.563 -0.5781 -0.1512  0.0670
  366MOL0     C49338   0.332   1.887   8.518  0.0447 -0.8303 -0.6552
  366MOL0     C49339   0.216   1.885   8.499  0.0363 -0.1892 -0.9724
  366MOL0     C49340   0.953   1.532   8.284 -0.4560  0.5267 -0.2714
  366MOL0     C49341   0.998   1.555   8.155 -0.5405 -0.0417 -1.7606
  366MOL0     C49342   1.120   1.474   8.111  0.2426 -0.2955  0.0447
  366MOL0     H49343   0.716   1.776   7.639  1.1831 -1.1054  2.2873
  366MOL0     H49344   0.789   1.770   7.401 -3.7434  1.1736  4.1473
  366MOL0     H49345   1.155   1.546   7.291 -1.1219  0.6526  1.3191
  366MOL0     H49346   1.137   1.647   7.146  0.2794  0.2384  0.0937
  366MOL0     H49347   1.271   1.726   7.401  0.8454  2.1349  0.1182
  366MOL0     H49348   1.229   1.843   7.285 -0.1281  0.3150  2.5835
  366MOL0     H49349   1.386   1.600   7.181 -4.3592  0.1432 -0.2521
  366MOL0     H49350   1.478   1.730   7.266  0.3931  1.0628 -1.5399
  366MOL0     H49351   1.360   1.722   7.005 -2.3499  0.8738  0.2593
  366MOL0     H49352   1.303   1.867   7.089 -0.8407 -0.8588  0.8858
  366MOL0     H49353   1.592   1.776   7.053  0.3686 -0.2553  3.5639
  366MOL0     H49354   1.494   1.876   6.939 -1.5463  0.4359  0.8174
  366MOL0     H49355   1.452   2.040   7.126  0.2140 -0.5538 -1.8089
  366MOL0     H49356   1.551   1.949   7.231  2.4132 -1.9498  0.5724
  366MOL0     H49357   1.673   2.166   7.111 -1.2901  0.1594 -2.1961
  366MOL0     H49358   1.676   2.069   6.968  1.5729  1.2478  0.1536
  366MOL0     H49359   1.780   1.942   7.218  2.1023 -0.0397  0.7495
  366MOL0     H49360   1.813   1.902   7.052  2.8144  0.1850  0.9709
  366MOL0     H49361   1.891   2.221   7.257  0.1685  0.1801  0.6264
  366MOL0     H49362   2.168   2.412   7.096  2.2943  1.5561  1.2780
  366MOL0     H49363   2.098   2.415   7.255  0.2807  0.8623 -1.1020
  366MOL0     H49364   2.272   2.195   7.293 -1.4526  0.0435 -0.0566
  366MOL0     H49365   2.355   2.271   7.154 -0.9845  2.0416 -0.7533
  366MOL0     H49366   2.399   2.355   7.408 -0.8303 -0.6073  0.5830
  366MOL0     H49367   2.265   2.463   7.366  0.4118  0.0955  0.2536
  366MOL0     H49368   2.382   2.517   7.154  0.7733 -0.8654 -0.5367
  366MOL0     H49369   2.515   2.428   7.194 -1.7774 -2.3697 -0.8141
  366MOL0     H49370   2.648   2.803   7.391  2.1124  1.9198  1.5408
  366MOL0     H49371   2.859   2.793   7.496 -0.2918  1.2362 -1.9792
  366MOL0     H49372   3.226   2.344   7.483 -0.2946 -0.2123 -0.2061
  366MOL0     H49373   3.489   2.349   7.542  1.4219 -0.1841  1.4141
  366MOL0     H49374   3.642   2.544   7.594 -4.1819 -1.7250  0.8342
  366MOL0     H49375   3.705   2.612   7.739  1.3031  0.2911 -0.7877
  366MOL0     H49376   3.824   2.402   7.798 -0.2953 -1.2830  0.2899
  366MOL0     H49377   3.807   2.336   7.632 -2.3708 -1.0133 -0.4384
  366MOL0     H49378   3.919   2.530   7.533 -1.7788 -2.7171  0.0149
  366MOL0     H49379   3.938   2.598   7.703  2.6845  1.9698 -3.5500
  366MOL0     H49380   4.065   2.342   7.592 -1.6890  0.1691 -0.7663
  366MOL0     H49381   4.082   2.397   7.763  1.9011 -0.1783 -0.4579
  366MOL0     H49382   4.187   2.596   7.704 -1.4258  0.2130  0.2267
  366MOL0     H49383   4.161   2.561   7.522  0.7622 -0.6626 -0.0044
  366MOL0     H49384   4.317   2.399   7.730 -1.1795 -0.2088  0.0895
  366MOL0     H49385   4.324   2.374   7.554  2.4491 -1.3248  1.5204
  366MOL0     H49386   4.426   2.624   7.676 -0.3390  0.2476 -1.2913
  366MOL0     H49387   4.437   2.563   7.505  0.5526 -3.3720 -1.1499
  366MOL0     H49388   4.559   2.376   7.584 -7.1163  1.7452 -2.8171
  366MOL0     H49389   4.632   2.540   7.610 -2.7997  0.9578 -1.9701
  366MOL0     H49390   3.377   2.567   7.897  0.1545  1.9078 -1.2398
  366MOL0     H49391   3.147   2.556   7.834  1.1134  1.0077 -0.3178
  366MOL0     H49392   2.870   2.363   7.444 -1.7387 -1.5915  0.5249
  366MOL0     H49393   2.646   2.370   7.340  0.8270 -0.8619 -0.3284
  366MOL0     H49394   1.136   1.551   7.501 -0.6007 -0.6206  0.6060
  366MOL0     H49395   1.080   1.566   7.728  1.0295  1.7155  0.4095
  366MOL0     H49396   0.770   1.806   8.082  1.7219 -0.4106 -0.8157
  366MOL0     H49397   0.700   1.756   8.321  0.1535  0.2958 -1.1793
  366MOL0     H49398   0.786   1.772   8.535  1.8904 -1.1330 -2.0824
  366MOL0     H49399   0.775   1.659   8.675  0.7576  3.2158  0.7873
  366MOL0     H49400   0.575   1.561   8.604 -0.8981  0.0815 -0.5962
  366MOL0     H49401   0.559   1.657   8.460 -1.1276 -1.1134 -0.6667
  366MOL0     H49402   0.569   1.803   8.727 -1.5816 -1.9190  2.3928
  366MOL0     H49403   0.431   1.715   8.681 -0.1433 -2.8590 -4.1030
  366MOL0     H49404   0.488   1.986   8.627 -1.6959 -1.8092  2.7570
  366MOL0     H49405   0.530   1.892   8.471 -0.0728  1.6352  0.2058
  366MOL0     H49406   0.115   1.869   8.469 -0.1736  2.6824 -2.1034
  366MOL0     H49407   1.002   1.463   8.352 -0.3768  2.0553  1.2976
  366MOL0     H49408   1.097   1.421   8.018  4.0941 -1.3874 -0.4756
  366MOL0     H49409   1.203   1.541   8.087 -0.7417  1.1700  0.5896
  366MOL0     H49410   1.144   1.401   8.189 -1.1170  1.2261  1.9713
  367MOL0     O49411   2.409   4.357   5.033  0.1685 -0.8799 -0.3112
  367MOL0     C49412   2.351   4.466   5.034 -0.4771  0.2388  0.4151
  367MOL0     O49413   2.410   4.579   5.001  0.4007  0.4779 -0.1574
  367MOL0     C49414   2.539   4.591   4.963 -0.3907  1.0795  0.8009
  367MOL0     C49415   2.575   4.681   4.869 -0.2586 -1.0027  0.3217
  367MOL0     C49416   2.711   4.714   4.842  1.1528  0.6509 -0.3150
  367MOL0     C49417   2.811   4.633   4.896  0.2207  0.0500  0.0578
  367MOL0     O49418   2.933   4.669   4.841 -0.2076 -0.2600 -0.2696
  367MOL0     C49419   3.051   4.587   4.868  0.2945 -0.0385 -0.3495
  367MOL0     C49420   3.158   4.640   4.773 -0.4158 -0.2691  0.6761
  367MOL0     C49421   3.288   4.571   4.787  0.2084  0.3391 -0.1121
  367MOL0     C49422   3.349   4.618   4.930 -0.2120  0.8793  0.2802
  367MOL0     C49423   3.501   4.592   4.945 -0.0013  0.1107 -0.5343
  367MOL0     C49424   3.550   4.452   4.906  0.1615 -0.2653  0.3510
  367MOL0     C49425   3.700   4.433   4.928  0.6122 -0.6149 -0.0244
  367MOL0     C49426   3.736   4.450   5.076  0.5690  0.2459 -0.2044
  367MOL0     N49427   3.872   4.409   5.102 -0.7192  0.1477 -0.4635
  367MOL0     C49428   3.987   4.481   5.082  0.9251 -1.0203 -0.2586
  367MOL0     C49429   4.093   4.402   5.093 -0.0861 -0.2269 -0.5471
  367MOL0     C49430   4.235   4.438   5.124  0.5943 -0.0781 -0.5234
  367MOL0     C49431   4.271   4.571   5.050 -0.1343 -0.5482 -0.6223
  367MOL0     C49432   4.418   4.617   5.075  0.0949 -0.1833 -0.0932
  367MOL0     C49433   4.517   4.547   4.977 -0.6882 -1.0611 -0.2109
  367MOL0     O49434   4.655   4.558   5.030 -0.3506 -0.0582  0.5371
  367MOL0     C49435   4.734   4.670   5.004  0.0363  0.3021  0.6478
  367MOL0     C49436   4.702   4.793   4.945  0.0268  0.2467 -0.2162
  367MOL0     C49437   4.797   4.890   4.934 -0.0079 -0.0576 -0.6448
  367MOL0     C49438   4.925   4.877   4.978 -0.4526  0.2808  0.2193
  367MOL0     C49439   5.014   4.992   4.981 -0.0504 -0.4101  0.0157
  367MOL0     O49440   5.072   5.012   5.099 -0.0530  0.1445 -0.2916
  367MOL0     C49441   5.177   5.098   5.109  0.1754 -0.2046  0.8292
  367MOL0     C49442   5.197   5.188   5.209 -0.0916  0.0317 -0.4455
  367MOL0     C49443   5.317   5.257   5.239 -0.0062  0.6811 -0.0467
  367MOL0     C49444   5.430   5.235   5.156 -0.2905 -0.1552 -0.2059
  367MOL0     O49445   5.546   5.304   5.187 -0.8878  1.0446 -0.6923
  367MOL0     C49446   5.677   5.237   5.173  0.6232 -0.9398 -0.0528
  367MOL0     C49447   5.741   5.290   5.044  0.1570  0.0057  0.0381
  367MOL0     C49448   5.884   5.239   5.028  0.3389  0.9104 -0.4677
  367MOL0     C49449   5.960   5.287   4.900 -0.0732  0.3931  0.7387
  367MOL0     C49450   6.087   5.213   4.861  0.9912  0.7247 -0.0837
  367MOL0     C49451   6.168   5.291   4.761 -0.2420 -0.5237  0.3342
  367MOL0     C49452   6.309   5.230   4.721  0.2736  0.9812  0.1101
  367MOL0     C49453   6.419   5.321   4.694 -0.1128 -0.8957 -0.1183
  367MOL0    Cl49454   6.455   5.416   4.838  0.1703 -0.0005 -0.0434
  367MOL0     C49455   5.414   5.142   5.052  0.6405 -0.0048 -0.8866
  367MOL0     C49456   5.291   5.074   5.030 -0.2016  0.6287 -0.5999
  367MOL0     O49457   5.044   5.046   4.877  0.5041 -0.0769 -0.3501
  367MOL0     C49458   4.971   4.758   5.037  0.4727  0.8172 -0.0166
  367MOL0     C49459   4.877   4.654   5.040 -0.1320  0.2390 -0.3098
  367MOL0     N49460   4.046   4.277   5.121  0.3959  0.6623 -0.1804
  367MOL0     N49461   3.916   4.280   5.115 -0.5416 -0.0255 -0.2928
  367MOL0     C49462   2.780   4.542   4.990 -0.2559  0.0294 -0.9201
  367MOL0     C49463   2.646   4.522   5.031 -0.2810 -0.0187  0.1663
  367MOL0     C49464   2.209   4.461   5.049 -0.5908  0.1904 -0.1928
  367MOL0     C49465   2.151   4.374   5.139 -0.0038  0.3831 -0.4048
  367MOL0     C49466   2.018   4.371   5.162  0.4339  0.0286  0.9069
  367MOL0     C49467   1.932   4.470   5.107  0.2089 -0.5941  0.4820
  367MOL0     O49468   1.798   4.486   5.134  0.1512 -0.5505 -0.1669
  367MOL0     C49469   1.737   4.443   5.250 -0.5603  0.7847 -0.4716
  367MOL0     C49470   1.588   4.463   5.260 -0.3157 -0.0509  0.6328
  367MOL0     C49471   1.518   4.370   5.166 -0.2154 -0.1694  0.2183
  367MOL0     C49472   1.371   4.360   5.188 -0.5864  0.3458 -0.4783
  367MOL0     C49473   1.290   4.319   5.072  0.0288  0.1986  0.0032
  367MOL0     C49474   1.220   4.291   4.976 -0.9007  0.2617 -0.3875
  367MOL0     C49475   1.993   4.553   5.004  0.2506 -0.2693  0.4624
  367MOL0     C49476   2.126   4.546   4.973  0.4892 -0.2475 -0.0840
  367MOL0     C49477   2.161   4.616   4.846 -1.3586  0.2101  0.1823
  367MOL0     H49478   2.503   4.741   4.814  0.2606 -0.2856  0.3972
  367MOL0     H49479   2.730   4.781   4.759  1.3701 -1.1229 -1.7724
  367MOL0     H49480   3.082   4.610   4.971 -0.1039 -2.9068  0.4925
  367MOL0     H49481   3.035   4.479   4.865  1.3370 -0.1754 -1.6606
  367MOL0     H49482   3.170   4.749   4.768 -1.5295 -0.1404  0.4804
  367MOL0     H49483   3.120   4.616   4.673  1.3704 -0.8007  0.0838
  367MOL0     H49484   3.360   4.609   4.713  2.3850 -0.1829  1.6196
  367MOL0     H49485   3.278   4.462   4.783  2.5929 -0.0135  1.3766
  367MOL0     H49486   3.313   4.718   4.957 -2.8816  0.0624  0.1060
  367MOL0     H49487   3.310   4.553   5.009 -0.3516  1.1075  0.3974
  367MOL0     H49488   3.566   4.655   4.884  1.1125 -3.0597 -2.9212
  367MOL0     H49489   3.528   4.622   5.046 -0.1559  3.2368 -1.3161
  367MOL0     H49490   3.494   4.374   4.959 -1.9120  0.5272 -0.5664
  367MOL0     H49491   3.536   4.427   4.801 -0.5823  0.1144  0.3491
  367MOL0     H49492   3.756   4.512   4.877 -1.7162  2.3514  1.6467
  367MOL0     H49493   3.721   4.330   4.898 -0.1017 -0.7343 -0.1301
  367MOL0     H49494   3.714   4.554   5.103  0.4352  0.0331  0.5445
  367MOL0     H49495   3.661   4.397   5.135  1.0487  2.1773  2.3424
  367MOL0     H49496   3.999   4.589   5.085 -0.1380 -0.9100  1.1862
  367MOL0     H49497   4.256   4.443   5.231 -1.2215  1.8742 -0.1862
  367MOL0     H49498   4.303   4.365   5.080 -0.7434 -1.1928 -0.8098
  367MOL0     H49499   4.248   4.559   4.944  0.3090  3.6938 -1.3409
  367MOL0     H49500   4.204   4.645   5.094  1.2794 -1.1999  3.0250
  367MOL0     H49501   4.463   4.609   5.174  1.9531 -1.4930 -0.9869
  367MOL0     H49502   4.424   4.726   5.067  0.6450 -0.2037  0.0428
  367MOL0     H49503   4.513   4.590   4.876  0.6838 -1.8413 -0.6136
  367MOL0     H49504   4.501   4.439   4.967  3.3608 -1.9847  1.6914
  367MOL0     H49505   4.601   4.806   4.907  0.0813 -1.5542 -1.0472
  367MOL0     H49506   4.775   4.989   4.895  0.9502  0.6296  0.5081
  367MOL0     H49507   5.119   5.197   5.283  2.7662  0.6677  2.7467
  367MOL0     H49508   5.317   5.320   5.327 -0.3570 -0.8470  1.0814
  367MOL0     H49509   5.735   5.263   5.262 -0.7317 -1.9134  1.1570
  367MOL0     H49510   5.661   5.129   5.165 -1.2783 -0.9532  2.6558
  367MOL0     H49511   5.681   5.252   4.961 -2.1982 -1.9329  2.4320
  367MOL0     H49512   5.738   5.399   5.052  1.1496  0.0539 -0.1177
  367MOL0     H49513   5.943   5.276   5.112  0.3712 -1.2916  0.5475
  367MOL0     H49514   5.876   5.130   5.036 -1.1384  1.0477  0.2314
  367MOL0     H49515   5.988   5.389   4.926 -0.4090  0.2573  1.6625
  367MOL0     H49516   5.889   5.294   4.817  1.7326  0.4012 -0.9024
  367MOL0     H49517   6.057   5.119   4.813 -2.0998  1.6847 -0.2381
  367MOL0     H49518   6.146   5.182   4.948  0.0062 -2.0312 -0.2752
  367MOL0     H49519   6.111   5.321   4.673  1.7012  0.9976 -0.4660
  367MOL0     H49520   6.188   5.382   4.818  1.7768  0.5759 -1.9833
  367MOL0     H49521   6.287   5.173   4.631 -0.2811 -2.6231  2.3295
  367MOL0     H49522   6.330   5.157   4.800 -1.9468 -0.2072 -0.3207
  367MOL0     H49523   6.509   5.266   4.664  0.2327 -1.9214  2.5233
  367MOL0     H49524   6.382   5.382   4.611 -0.0082 -0.8002 -0.0958
  367MOL0     H49525   5.497   5.105   4.992  0.1129 -0.5344 -1.3007
  367MOL0     H49526   5.288   4.994   4.957  1.2451 -1.7612  1.8016
  367MOL0     H49527   5.067   4.751   5.086 -0.7820  2.4988  2.9476
  367MOL0     H49528   4.898   4.554   5.078  0.1286 -0.0322 -1.1410
  367MOL0     H49529   2.857   4.482   5.036 -0.2978 -1.1445 -2.3160
  367MOL0     H49530   2.634   4.453   5.114  1.0092  0.4219  0.7454
  367MOL0     H49531   2.215   4.295   5.178 -0.6499  0.1423  0.1978
  367MOL0     H49532   1.979   4.298   5.232  0.3124  0.5386  1.3798
  367MOL0     H49533   1.784   4.494   5.335 -0.1773  2.2489 -1.5168
  367MOL0     H49534   1.747   4.335   5.265 -0.1543  1.1908  3.0953
  367MOL0     H49535   1.569   4.570   5.247 -1.9135 -0.4885 -1.0120
  367MOL0     H49536   1.547   4.437   5.358 -3.0347 -0.0132 -0.4068
  367MOL0     H49537   1.560   4.269   5.167 -2.1188 -1.0141  0.5733
  367MOL0     H49538   1.540   4.421   5.072 -2.3089  1.1465  0.3745
  367MOL0     H49539   1.364   4.289   5.271  1.2984 -0.0821 -0.6379
  367MOL0     H49540   1.336   4.457   5.223  2.0193  1.1968 -0.0565
  367MOL0     H49541   1.160   4.273   4.889  0.6915 -0.2714 -1.4120
  367MOL0     H49542   1.928   4.623   4.953 -2.9745 -0.4503  3.8868
  367MOL0     H49543   2.084   4.623   4.769 -0.5886 -0.2613 -0.6367
  367MOL0     H49544   2.195   4.718   4.865 -2.9232  0.3059  3.1452
  367MOL0     H49545   2.225   4.542   4.797 -1.3803 -0.7901  1.5862
  368MOL0     O49546   9.726  10.230   5.162 -0.6911  0.2161  1.1683
  368MOL0     C49547   9.661  10.325   5.187 -0.6427 -0.4392 -0.4437
  368MOL0     O49548   9.668  10.449   5.121 -0.1870  0.1178 -0.2220
  368MOL0     C49549   9.772  10.468   5.033  0.1157 -0.2408  0.4008
  368MOL0     C49550   9.739  10.506   4.906 -0.9891  0.0819  0.1479
  368MOL0     C49551   9.836  10.544   4.813  0.0382 -0.3635 -0.2169
  368MOL0     C49552   9.972  10.536   4.851 -0.6246 -0.2078 -0.8079
  368MOL0     O49553  10.061  10.561   4.750 -0.8706  0.2094 -0.5680
  368MOL0     C49554  10.198  10.567   4.775 -0.6777  0.7816  0.0050
  368MOL0     C49555  10.278  10.575   4.647 -0.1324  0.0302 -0.6798
  368MOL0     C49556  10.305  10.437   4.601 -0.1357  0.2594 -0.2434
  368MOL0     C49557  10.343  10.439   4.452  0.2404 -0.6030 -0.8470
  368MOL0     C49558  10.446  10.330   4.416 -0.6519 -0.0521  0.2869
  368MOL0     C49559  10.460  10.316   4.258  0.7923  0.4750 -0.6504
  368MOL0     C49560  10.569  10.208   4.222 -1.3529  0.0213  0.5051
  368MOL0     C49561  10.603  10.208   4.070 -0.3062  0.2005 -0.5993
  368MOL0     N49562  10.714  10.121   4.041  0.7238  0.0456 -0.1385
  368MOL0     C49563  10.802  10.127   3.934 -0.3987 -0.0211 -0.0058
  368MOL0     C49564  10.909  10.055   3.975  0.4495 -0.9081 -0.6300
  368MOL0     C49565  11.039  10.061   3.910 -0.6694 -0.4601  0.4695
  368MOL0     C49566  11.149   9.982   3.992  0.3600  0.2608 -0.3720
  368MOL0     C49567  11.290   9.994   3.924  0.8151 -0.1537  0.2872
  368MOL0     C49568  11.406   9.977   4.016  0.5392  0.1544  0.1153
  368MOL0     O49569  11.423   9.836   4.035 -0.1160  0.3852 -0.4456
  368MOL0     C49570  11.543   9.809   4.103 -0.3766 -0.0615 -0.4416
  368MOL0     C49571  11.548   9.676   4.141 -0.4050  0.8398  0.2799
  368MOL0     C49572  11.647   9.623   4.223  0.0941  0.3729  0.4284
  368MOL0     C49573  11.739   9.718   4.282  0.8807  0.1101 -0.0745
  368MOL0     C49574  11.825   9.676   4.391  0.1568 -0.5983 -0.4974
  368MOL0     O49575  11.872   9.787   4.458  0.1469  0.7557  0.0054
  368MOL0     C49576  11.967   9.775   4.549  1.2082 -0.2227 -0.7137
  368MOL0     C49577  11.951   9.704   4.670  0.5449 -0.2991  1.0416
  368MOL0     C49578  12.047   9.714   4.773  0.3632 -0.1912  0.6308
  368MOL0     C49579  12.163   9.789   4.756 -0.6315  0.0331  0.1341
  368MOL0     O49580  12.248   9.781   4.863  0.9808  0.1867  0.4138
  368MOL0     C49581  12.391   9.811   4.850  0.1862  0.1072  0.2536
  368MOL0     C49582  12.467   9.684   4.817  0.0922 -0.1822 -0.0992
  368MOL0     C49583  12.473   9.635   4.668 -1.3020  0.6546  0.4327
  368MOL0     C49584  12.520   9.487   4.664  0.3255 -0.0610 -0.6657
  368MOL0     C49585  12.547   9.414   4.536  0.6792  0.1633 -0.1358
  368MOL0     C49586  12.570   9.258   4.547  0.1124 -0.6400 -0.2045
  368MOL0     C49587  12.597   9.217   4.405  0.3635  0.8093  0.2763
  368MOL0     C49588  12.596   9.068   4.387  0.2289  0.8312  0.4351
  368MOL0    Cl49589  12.732   8.979   4.472  0.0100 -0.0145 -0.5228
  368MOL0     C49590  12.184   9.860   4.636  1.0488 -0.2726  0.9493
  368MOL0     C49591  12.086   9.850   4.534 -0.2047  0.1531 -0.6578
  368MOL0     O49592  11.816   9.561   4.431 -0.0805  0.0061 -0.1568
  368MOL0     C49593  11.747   9.847   4.229 -0.0845 -0.3727 -0.7976
  368MOL0     C49594  11.650   9.891   4.142  0.3012 -0.0122 -0.2343
  368MOL0     N49595  10.879  10.002   4.090 -0.4860  0.7599 -0.0244
  368MOL0     N49596  10.767  10.038   4.134 -0.2656  0.2326  0.4885
  368MOL0     C49597  10.004  10.501   4.986 -1.4374 -0.4926 -0.6345
  368MOL0     C49598   9.906  10.474   5.073  0.7188  0.0253 -0.7019
  368MOL0     C49599   9.561  10.322   5.302  0.1300 -0.1836 -0.5436
  368MOL0     C49600   9.474  10.435   5.315 -0.1910  0.0613 -0.1762
  368MOL0     C49601   9.395  10.455   5.426 -0.2704 -0.1072 -1.3944
  368MOL0     C49602   9.398  10.359   5.532  0.3823 -0.3666 -0.0922
  368MOL0     O49603   9.306  10.375   5.634 -0.1047  0.0483 -0.2836
  368MOL0     C49604   9.320  10.297   5.750  1.2813 -0.1373 -0.1246
  368MOL0     C49605   9.254  10.156   5.736  0.3375  1.0373 -0.5802
  368MOL0     C49606   9.108  10.170   5.790 -1.3693 -0.6396  0.3585
  368MOL0     C49607   9.021  10.051   5.758 -0.0777  0.5340 -0.5516
  368MOL0     C49608   9.051   9.943   5.856  0.1502 -0.2128 -0.0211
  368MOL0     C49609   9.080   9.881   5.956 -0.1871  0.5882  0.1444
  368MOL0     C49610   9.480  10.251   5.515  0.9310 -0.0545  0.6008
  368MOL0     C49611   9.561  10.229   5.399  0.5085 -0.8438 -0.1280
  368MOL0     C49612   9.652  10.112   5.402  0.3800  0.5965 -0.5963
  368MOL0     H49613   9.636  10.490   4.878 -1.3205 -3.0569  2.5053
  368MOL0     H49614   9.812  10.582   4.714  0.2312 -0.0532 -0.1447
  368MOL0     H49615  10.218  10.661   4.827  2.2608  0.6215 -0.6200
  368MOL0     H49616  10.241  10.487   4.835  1.7961  2.9444  1.3062
  368MOL0     H49617  10.376  10.622   4.654  0.5718 -1.5796  0.8882
  368MOL0     H49618  10.216  10.629   4.574  0.6222 -1.0450 -2.1647
  368MOL0     H49619  10.223  10.369   4.626 -0.3060  1.2026  2.0523
  368MOL0     H49620  10.394  10.396   4.651 -0.1179 -4.3404 -3.4734
  368MOL0     H49621  10.257  10.424   4.387 -0.3650  2.7173 -0.9815
  368MOL0     H49622  10.372  10.537   4.413 -0.9042 -0.6617 -1.8897
  368MOL0     H49623  10.544  10.357   4.456  0.2483  0.1405 -1.9076
  368MOL0     H49624  10.425  10.230   4.453  4.1263 -2.5824 -2.7670
  368MOL0     H49625  10.365  10.274   4.226  0.4401  2.4004 -2.3285
  368MOL0     H49626  10.481  10.415   4.215  3.1157  1.8966  3.1934
  368MOL0     H49627  10.539  10.109   4.258 -2.7018 -0.7151 -2.3745
  368MOL0     H49628  10.653  10.245   4.281 -2.0516 -0.7052  2.0222
  368MOL0     H49629  10.512  10.185   4.014 -0.4594 -1.5374  0.3116
  368MOL0     H49630  10.630  10.311   4.045 -0.8047  0.7621  1.0320
  368MOL0     H49631  10.800  10.188   3.844  0.4084 -2.2901 -1.6714
  368MOL0     H49632  11.041  10.024   3.807  2.6339  0.1034  0.2375
  368MOL0     H49633  11.062  10.167   3.904  0.6054 -0.5395  2.6909
  368MOL0     H49634  11.159  10.033   4.088  0.0430  0.5351 -0.4860
  368MOL0     H49635  11.121   9.879   4.017 -0.5514  0.6581  0.3119
  368MOL0     H49636  11.291  10.096   3.886  0.0310  0.0259  0.7418
  368MOL0     H49637  11.288   9.920   3.843  2.7482  0.8824 -0.7951
  368MOL0     H49638  11.394  10.031   4.110 -4.6632  2.6485 -1.5697
  368MOL0     H49639  11.490  10.025   3.964 -0.4173  0.0873 -1.5906
  368MOL0     H49640  11.464   9.615   4.110 -1.5084  1.1438  2.5031
  368MOL0     H49641  11.640   9.522   4.262  1.9347  0.6125  1.4678
  368MOL0     H49642  11.861   9.647   4.692 -0.2146  0.3835 -0.2258
  368MOL0     H49643  12.029   9.664   4.867  0.0670 -0.8946  0.2038
  368MOL0     H49644  12.413   9.889   4.777  2.3306  1.5747  2.3110
  368MOL0     H49645  12.426   9.834   4.951  0.4610 -0.4609  0.2905
  368MOL0     H49646  12.567   9.717   4.848 -1.3404  2.5667  2.1344
  368MOL0     H49647  12.434   9.606   4.886 -0.2934 -0.1768 -0.2748
  368MOL0     H49648  12.377   9.656   4.620 -2.2500 -3.1376  0.3266
  368MOL0     H49649  12.550   9.695   4.619  1.0346 -1.4348  1.3138
  368MOL0     H49650  12.443   9.430   4.716  1.6214  0.0639  1.5214
  368MOL0     H49651  12.619   9.487   4.711  0.7451 -0.0865 -1.5239
  368MOL0     H49652  12.626   9.466   4.481  1.3848  2.4737  2.7777
  368MOL0     H49653  12.466   9.438   4.465  1.3602 -2.5997 -1.9854
  368MOL0     H49654  12.653   9.233   4.613  0.6162 -1.2173 -1.0314
  368MOL0     H49655  12.489   9.200   4.593  1.4118 -2.5917 -0.2449
  368MOL0     H49656  12.695   9.251   4.369 -0.8239  3.0473 -1.0655
  368MOL0     H49657  12.518   9.245   4.335  0.2372 -0.5415 -0.1365
  368MOL0     H49658  12.503   9.026   4.427 -0.9664  2.7052 -0.2674
  368MOL0     H49659  12.589   9.032   4.284  1.7518  0.4901  0.4266
  368MOL0     H49660  12.268   9.921   4.607  0.6277  0.5292  1.3998
  368MOL0     H49661  12.096   9.909   4.444 -0.2941  0.0396 -0.7419
  368MOL0     H49662  11.829   9.913   4.255  0.1683 -0.9204 -0.1462
  368MOL0     H49663  11.654   9.995   4.112  1.0273  1.4045  4.1179
  368MOL0     H49664  10.108  10.508   5.016 -1.3313 -0.9485 -0.8781
  368MOL0     H49665   9.916  10.451   5.179 -2.5138 -1.1055 -0.5308
  368MOL0     H49666   9.469  10.518   5.244  1.6686  1.3757  1.1290
  368MOL0     H49667   9.353  10.552   5.448  1.3609  0.2280  0.5607
  368MOL0     H49668   9.268  10.346   5.834 -0.6722 -0.5495 -1.0463
  368MOL0     H49669   9.426  10.287   5.776  1.1762  0.3284  0.5246
  368MOL0     H49670   9.296  10.069   5.788 -0.4990  1.8316  1.5582
  368MOL0     H49671   9.252  10.121   5.632 -1.9845  1.3696 -0.6860
  368MOL0     H49672   9.062  10.256   5.740 -0.5756 -0.9431 -0.9592
  368MOL0     H49673   9.124  10.177   5.898  0.0587  0.6276  0.0894
  368MOL0     H49674   8.916  10.073   5.779 -0.3029 -0.8610 -0.0990
  368MOL0     H49675   9.045  10.021   5.656  2.2492  0.7233 -0.1215
  368MOL0     H49676   9.106   9.831   6.048  0.8669  2.5079  0.9383
  368MOL0     H49677   9.487  10.176   5.594  0.7668  0.4095  1.0567
  368MOL0     H49678   9.632  10.043   5.320  1.2011 -2.5497  1.6422
  368MOL0     H49679   9.759  10.133   5.405  0.2387  1.2672  1.2602
  368MOL0     H49680   9.629  10.053   5.492 -0.1422  0.3580 -0.8801
  369MOL0     O49681   4.120   9.697   8.225 -0.2817  0.0296  0.3398
  369MOL0     C49682   4.048   9.756   8.303 -0.4387 -0.3111  0.8687
  369MOL0     O49683   4.078   9.796   8.433 -0.1550  0.1900  0.1908
  369MOL0     C49684   4.201   9.763   8.468 -0.1494  1.0005  0.7074
  369MOL0     C49685   4.256   9.630   8.464 -0.7283 -1.2856 -0.9047
  369MOL0     C49686   4.383   9.608   8.505 -0.1975  0.1962 -0.7620
  369MOL0     C49687   4.470   9.703   8.548 -0.1091  0.7153  1.0009
  369MOL0     O49688   4.595   9.681   8.593 -0.1014  0.3714 -0.5787
  369MOL0     C49689   4.630   9.554   8.643 -0.1434  0.0023  0.2817
  369MOL0     C49690   4.775   9.547   8.687  0.0037 -0.6386 -0.4713
  369MOL0     C49691   4.806   9.605   8.820 -0.1822 -0.2152 -0.2816
  369MOL0     C49692   4.967   9.621   8.830  0.3272  0.0762 -0.8522
  369MOL0     C49693   5.016   9.710   8.950 -0.3175 -0.4602  0.3902
  369MOL0     C49694   4.974   9.662   9.085  0.6706  0.2745 -0.2020
  369MOL0     C49695   5.012   9.512   9.092 -0.2649 -1.0611  1.3697
  369MOL0     C49696   5.008   9.464   9.243 -0.6089  0.4015 -0.1645
  369MOL0     N49697   5.053   9.329   9.249 -0.4052  0.3846  0.6424
  369MOL0     C49698   4.969   9.225   9.268  0.1100 -0.2423 -0.5701
  369MOL0     C49699   5.036   9.111   9.273  1.0584 -0.3932 -1.2141
  369MOL0     C49700   4.977   8.972   9.289  0.2710  1.0420  0.7667
  369MOL0     C49701   4.970   8.898   9.158  0.6771 -0.4122  0.2086
  369MOL0     C49702   4.932   8.751   9.171  0.4461  0.8291  0.2760
  369MOL0     C49703   4.776   8.724   9.171 -0.9491  0.2888 -0.1016
  369MOL0     O49704   4.778   8.581   9.160 -0.0449 -0.2961 -0.7923
  369MOL0     C49705   4.660   8.515   9.129  0.5030 -0.3402  1.2923
  369MOL0     C49706   4.533   8.589   9.123  0.4940  0.6217 -1.5165
  369MOL0     C49707   4.418   8.525   9.054 -0.5468 -0.0159  0.4114
  369MOL0     C49708   4.424   8.389   9.017  1.1042 -0.4670 -0.0388
  369MOL0     C49709   4.305   8.325   8.967 -0.9593 -0.3996  0.1918
  369MOL0     O49710   4.324   8.237   8.865 -0.2193  0.6686  0.2148
  369MOL0     C49711   4.214   8.157   8.844 -0.1771 -0.2193  0.4495
  369MOL0     C49712   4.181   8.054   8.934  0.4505  0.0890  0.7874
  369MOL0     C49713   4.069   7.980   8.926  0.4060  0.6897  0.8714
  369MOL0     C49714   3.986   8.002   8.808 -0.9959 -0.1747 -0.1270
  369MOL0     O49715   3.881   7.929   8.783 -0.0881 -0.6607 -0.6835
  369MOL0     C49716   3.911   7.792   8.748  0.6453  0.5028 -0.2679
  369MOL0     C49717   3.789   7.732   8.679  0.0031 -0.9236  0.5550
  369MOL0     C49718   3.690   7.678   8.791  0.1348  0.1905  0.9199
  369MOL0     C49719   3.548   7.657   8.746 -0.2902  0.4728 -0.1704
  369MOL0     C49720   3.467   7.601   8.852  0.4449 -0.2655  1.1905
  369MOL0     C49721   3.421   7.705   8.954  0.2568 -0.8683  0.0457
  369MOL0     C49722   3.523   7.746   9.064  0.1830 -0.3281 -0.5192
  369MOL0     C49723   3.452   7.798   9.195 -1.0997 -0.7287  0.6490
  369MOL0    Cl49724   3.342   7.933   9.157  0.0881  0.3825 -0.0274
  369MOL0     C49725   4.009   8.111   8.727 -0.1259  0.4003 -0.2892
  369MOL0     C49726   4.130   8.179   8.739  0.6689 -0.0175  0.4094
  369MOL0     O49727   4.199   8.352   9.025  0.3741  0.3105  0.3665
  369MOL0     C49728   4.546   8.323   9.026 -0.4997  0.6855  0.8466
  369MOL0     C49729   4.654   8.380   9.085 -0.0550  0.0731 -0.1310
  369MOL0     N49730   5.162   9.156   9.262  0.1835 -0.1276 -0.4576
  369MOL0     N49731   5.178   9.284   9.240 -0.1244 -0.1225  0.4123
  369MOL0     C49732   4.427   9.831   8.536  0.4399 -0.5128 -0.1722
  369MOL0     C49733   4.291   9.864   8.502  0.3035 -0.0598  0.1330
  369MOL0     C49734   3.913   9.775   8.252 -0.5334 -0.5425 -0.0455
  369MOL0     C49735   3.855   9.662   8.187 -0.2382 -0.1722  0.2409
  369MOL0     C49736   3.727   9.667   8.139  0.3515  0.2081 -0.6059
  369MOL0     C49737   3.643   9.777   8.158 -0.4217  0.2686 -0.4159
  369MOL0     O49738   3.511   9.766   8.110  0.3813  0.2241 -0.5229
  369MOL0     C49739   3.422   9.855   8.171 -0.4241 -0.1054  0.1699
  369MOL0     C49740   3.283   9.844   8.096  1.0390  0.5134  0.2043
  369MOL0     C49741   3.262   9.943   7.981  1.0537  0.1036  0.7919
  369MOL0     C49742   3.135   9.908   7.894  0.0975 -0.5158 -0.1405
  369MOL0     C49743   3.003   9.936   7.963  0.3520 -0.0035  0.4087
  369MOL0     C49744   2.899   9.965   8.021  0.7342 -0.2782  0.7086
  369MOL0     C49745   3.703   9.895   8.214  0.5955 -0.0035 -0.1558
  369MOL0     C49746   3.839   9.894   8.260  0.7578  0.2597 -0.3049
  369MOL0     C49747   3.892  10.022   8.313  0.5207  1.0765 -0.1729
  369MOL0     H49748   4.201   9.544   8.426 -0.3172 -3.4026  2.7202
  369MOL0     H49749   4.401   9.501   8.506 -1.1400  0.0366  0.8426
  369MOL0     H49750   4.568   9.535   8.731  1.9856  1.4529  2.2244
  369MOL0     H49751   4.618   9.475   8.568 -0.3451  1.8972 -1.7557
  369MOL0     H49752   4.819   9.603   8.604 -2.6808 -0.3977 -1.8348
  369MOL0     H49753   4.816   9.445   8.685 -0.7285 -1.0241  1.6359
  369MOL0     H49754   4.780   9.528   8.894  1.9905 -0.0492  0.7170
  369MOL0     H49755   4.749   9.698   8.827  0.0146 -0.1050 -0.1433
  369MOL0     H49756   5.019   9.525   8.830 -0.8904 -0.6197  0.3857
  369MOL0     H49757   5.005   9.674   8.742  2.0138 -1.6254 -1.2104
  369MOL0     H49758   5.123   9.732   8.949 -0.3814 -0.0858  1.0392
  369MOL0     H49759   4.964   9.806   8.939  0.3249  0.1982  2.6782
  369MOL0     H49760   5.025   9.711   9.168 -1.0317 -0.9110  1.6433
  369MOL0     H49761   4.866   9.655   9.103  1.0772 -0.4520  2.3524
  369MOL0     H49762   5.113   9.503   9.051  0.9809  2.2045  3.3350
  369MOL0     H49763   4.939   9.462   9.027  1.1917 -0.8403 -0.5324
  369MOL0     H49764   5.068   9.531   9.304  0.4758 -0.8898  0.2222
  369MOL0     H49765   4.904   9.473   9.276 -0.4960 -0.8687  0.6026
  369MOL0     H49766   4.863   9.236   9.285 -0.2192 -1.1525 -1.8936
  369MOL0     H49767   5.042   8.924   9.362 -0.4178 -1.3974 -0.1232
  369MOL0     H49768   4.881   8.986   9.339  0.6620 -3.3251  3.2217
  369MOL0     H49769   4.897   8.944   9.091  0.7769 -2.1266 -1.1651
  369MOL0     H49770   5.060   8.901   9.096  0.2841 -1.6283 -0.4528
  369MOL0     H49771   4.971   8.704   9.262  2.3491 -2.6100 -2.0853
  369MOL0     H49772   4.964   8.694   9.083 -4.7923 -0.1798 -1.2902
  369MOL0     H49773   4.730   8.777   9.087  1.1370  1.5333 -0.5458
  369MOL0     H49774   4.728   8.770   9.258  0.9630  0.3598  0.9695
  369MOL0     H49775   4.531   8.692   9.155  2.7122  0.3340 -0.2723
  369MOL0     H49776   4.327   8.582   9.042 -1.3630 -1.3078  0.1872
  369MOL0     H49777   4.241   8.034   9.022 -1.4340 -0.0855  2.0794
  369MOL0     H49778   4.032   7.920   9.009 -0.7795 -0.8370 -0.6893
  369MOL0     H49779   3.996   7.786   8.679  0.0479  1.5040 -1.1089
  369MOL0     H49780   3.920   7.735   8.841 -3.0206 -0.1890 -0.1800
  369MOL0     H49781   3.741   7.798   8.607  0.1302 -0.3061  1.0203
  369MOL0     H49782   3.830   7.642   8.633  1.0871 -2.1854  3.6791
  369MOL0     H49783   3.722   7.578   8.819  0.4874 -0.0003 -0.1133
  369MOL0     H49784   3.691   7.755   8.868  1.7178  1.2165 -0.0653
  369MOL0     H49785   3.547   7.582   8.667 -2.2458  1.1594 -0.8617
  369MOL0     H49786   3.504   7.751   8.712 -1.2197  0.4767  0.9771
  369MOL0     H49787   3.514   7.521   8.909  2.0055  1.4372  2.3985
  369MOL0     H49788   3.389   7.549   8.795  1.4746 -1.7844  1.0917
  369MOL0     H49789   3.390   7.798   8.905 -0.8070 -0.5011  1.3465
  369MOL0     H49790   3.333   7.675   9.011 -1.0558  3.9268  1.0169
  369MOL0     H49791   3.592   7.823   9.030  1.6108 -2.6047 -3.1280
  369MOL0     H49792   3.582   7.664   9.108  0.4951 -0.1399 -0.5843
  369MOL0     H49793   3.389   7.720   9.238 -0.6980 -1.0345  0.6801
  369MOL0     H49794   3.527   7.825   9.270  0.2138  2.6430 -1.5982
  369MOL0     H49795   3.951   8.120   8.636 -1.0739  2.4233  0.4500
  369MOL0     H49796   4.155   8.257   8.668 -4.7700  1.7297 -0.0080
  369MOL0     H49797   4.555   8.223   8.985  0.6074  0.9110  0.4863
  369MOL0     H49798   4.746   8.323   9.084  0.0083  0.1060 -2.8411
  369MOL0     H49799   4.470   9.924   8.571  0.3754 -0.2703 -0.7341
  369MOL0     H49800   4.265   9.969   8.507 -0.2553 -0.0974 -1.4133
  369MOL0     H49801   3.908   9.568   8.173  1.6640  1.1900 -2.5599
  369MOL0     H49802   3.700   9.575   8.089  0.7602  1.2820 -2.9143
  369MOL0     H49803   3.463   9.957   8.170 -0.4213 -0.0985 -1.1791
  369MOL0     H49804   3.410   9.833   8.277  2.6644 -2.3276  0.1681
  369MOL0     H49805   3.222   9.878   8.180  0.9255 -0.8392  0.6973
  369MOL0     H49806   3.251   9.741   8.078 -1.7942  0.5744  3.7329
  369MOL0     H49807   3.337   9.932   7.903 -1.3677  0.4746 -1.7417
  369MOL0     H49808   3.259  10.047   8.017 -0.6932  0.4404 -0.1808
  369MOL0     H49809   3.146   9.951   7.794 -0.9490 -2.7682 -1.3054
  369MOL0     H49810   3.136   9.800   7.873 -1.6232 -0.4371 -0.8032
  369MOL0     H49811   2.802   9.984   8.063 -0.7827 -3.8075 -0.7305
  369MOL0     H49812   3.655   9.992   8.208 -0.6101 -0.3357  2.4951
  369MOL0     H49813   3.923  10.086   8.230  2.8826 -0.2614 -0.4229
  369MOL0     H49814   3.818  10.072   8.376  1.5965  2.2109  0.2473
  369MOL0     H49815   3.982   9.999   8.370 -0.5236 -1.7794  0.4820
  370MOL0     O49816   9.305   8.339   4.819  0.7138  0.2016  0.6094
  370MOL0     C49817   9.236   8.323   4.919 -0.0240 -0.0485 -0.6291
  370MOL0     O49818   9.288   8.317   5.044 -0.1741  0.0414 -1.1755
  370MOL0     C49819   9.421   8.335   5.066 -1.0791 -0.8615 -0.0195
  370MOL0     C49820   9.506   8.225   5.095 -0.4017  0.0056 -0.5428
  370MOL0     C49821   9.636   8.251   5.124 -0.0658 -0.6588 -0.8422
  370MOL0     C49822   9.693   8.380   5.139  0.1396  0.1339 -0.4096
  370MOL0     O49823   9.829   8.381   5.180 -0.4870 -0.2671  0.3708
  370MOL0     C49824   9.860   8.486   5.275  0.5860 -0.0190  0.5379
  370MOL0     C49825  10.011   8.483   5.308  1.6558 -0.5342  1.1671
  370MOL0     C49826  10.029   8.456   5.458 -0.6968  0.1254 -0.5969
  370MOL0     C49827  10.169   8.436   5.508 -0.6167 -0.8528  0.6195
  370MOL0     C49828  10.164   8.367   5.646  0.4350  0.3085 -0.0686
  370MOL0     C49829  10.302   8.385   5.714  0.3761  0.1468 -0.1263
  370MOL0     C49830  10.283   8.368   5.867 -0.0965 -0.1633 -0.7224
  370MOL0     C49831  10.246   8.241   5.932  0.0951  0.6555 -1.0385
  370MOL0     N49832  10.276   8.242   6.074 -0.1270 -0.6871  0.3436
  370MOL0     C49833  10.207   8.322   6.162  0.3415  1.3334  1.1628
  370MOL0     C49834  10.287   8.329   6.274 -0.3527  0.1741 -1.3133
  370MOL0     C49835  10.261   8.412   6.395  0.7675 -0.0509  0.6506
  370MOL0     C49836  10.115   8.449   6.420 -0.0958 -0.1471  0.3700
  370MOL0     C49837  10.041   8.313   6.478 -0.8836 -0.0061 -0.1346
  370MOL0     C49838   9.910   8.295   6.417  0.1318  0.7325 -0.8021
  370MOL0     O49839   9.796   8.351   6.492  0.3709 -0.1713 -0.1122
  370MOL0     C49840   9.675   8.296   6.466 -0.4226 -0.2135  0.1297
  370MOL0     C49841   9.634   8.217   6.363  0.4772  0.5323 -0.1479
  370MOL0     C49842   9.505   8.161   6.353  0.7239  0.0670  0.6179
  370MOL0     C49843   9.406   8.188   6.457 -0.9008  0.7464  0.6602
  370MOL0     C49844   9.273   8.126   6.448 -0.4615 -0.3856 -0.0541
  370MOL0     O49845   9.215   8.126   6.567  0.3824 -0.6343 -0.7376
  370MOL0     C49846   9.090   8.071   6.583  0.6528  0.7207 -0.3171
  370MOL0     C49847   9.068   7.934   6.552 -0.0318 -0.0768 -0.4411
  370MOL0     C49848   8.947   7.874   6.576  0.6478 -0.8543  0.3584
  370MOL0     C49849   8.834   7.954   6.624 -0.2806  0.8608 -0.5199
  370MOL0     O49850   8.707   7.900   6.622  0.2012 -0.7640  0.6289
  370MOL0     C49851   8.592   7.974   6.603 -0.5387 -0.4460 -0.2555
  370MOL0     C49852   8.486   7.914   6.695 -0.6402 -0.4887  1.1166
  370MOL0     C49853   8.441   7.768   6.655 -0.6105 -0.8104 -0.1911
  370MOL0     C49854   8.345   7.760   6.535 -0.3585 -0.2446  0.4974
  370MOL0     C49855   8.315   7.610   6.498  0.1698  0.5589 -0.3913
  370MOL0     C49856   8.207   7.551   6.589 -0.5550  0.3730  0.3530
  370MOL0     C49857   8.154   7.421   6.518 -0.4222 -0.0580 -0.5704
  370MOL0     C49858   8.159   7.296   6.612  0.2212 -1.1525  0.5214
  370MOL0    Cl49859   8.086   7.155   6.535  0.3527 -0.4428 -0.4384
  370MOL0     C49860   8.861   8.080   6.674 -0.0270 -0.3544  0.3891
  370MOL0     C49861   8.986   8.135   6.645  0.4918  0.7988 -0.2132
  370MOL0     O49862   9.236   8.077   6.339  0.2479  0.4727 -0.2011
  370MOL0     C49863   9.450   8.261   6.567  0.2062 -1.4096  0.2668
  370MOL0     C49864   9.577   8.320   6.564  0.3983 -0.6490 -0.1515
  370MOL0     N49865  10.403   8.261   6.253 -0.0413 -0.1791 -0.1988
  370MOL0     N49866  10.398   8.213   6.133 -0.1265 -0.2025  0.0827
  370MOL0     C49867   9.614   8.486   5.103 -0.0069 -0.6163 -0.0798
  370MOL0     C49868   9.481   8.467   5.062  0.8138  0.3701 -0.4539
  370MOL0     C49869   9.087   8.301   4.895 -1.0801 -0.5883 -0.5673
  370MOL0     C49870   9.028   8.365   4.789 -0.1440 -0.3632 -0.9146
  370MOL0     C49871   8.892   8.340   4.759 -0.2372  0.6769  0.1588
  370MOL0     C49872   8.817   8.248   4.833  0.0586  0.8719 -0.2896
  370MOL0     O49873   8.684   8.233   4.793  0.6033  0.4674  0.2937
  370MOL0     C49874   8.587   8.166   4.878 -0.7014 -0.7442  0.6287
  370MOL0     C49875   8.568   8.238   5.004  0.0088  0.8729  0.0950
  370MOL0     C49876   8.540   8.389   5.006 -0.6483 -0.1453  0.8080
  370MOL0     C49877   8.405   8.418   4.941 -0.0146 -0.0700  0.3735
  370MOL0     C49878   8.290   8.366   5.005 -0.3238 -0.7617  0.0893
  370MOL0     C49879   8.199   8.320   5.064 -0.2293 -0.1171  0.3950
  370MOL0     C49880   8.883   8.190   4.945  0.0741 -0.0489 -0.1550
  370MOL0     C49881   9.020   8.206   4.973 -0.2815  0.0848  0.8266
  370MOL0     C49882   9.084   8.123   5.075  0.0072  0.3791  0.6887
  370MOL0     H49883   9.460   8.127   5.091  0.6610 -0.5095 -0.5016
  370MOL0     H49884   9.700   8.171   5.160  0.1571  0.6899  2.0389
  370MOL0     H49885   9.834   8.584   5.233  0.1395 -0.3953 -0.0785
  370MOL0     H49886   9.805   8.471   5.368 -0.9259  0.4035 -0.2515
  370MOL0     H49887  10.051   8.583   5.285 -2.7926  0.8716 -1.8167
  370MOL0     H49888  10.055   8.414   5.236  1.7013 -0.7959  1.4444
  370MOL0     H49889   9.971   8.369   5.490 -2.8099  1.5613 -0.3102
  370MOL0     H49890   9.983   8.537   5.515  1.7830 -0.2341  2.1202
  370MOL0     H49891  10.210   8.355   5.447  0.9451 -1.3912  2.2690
  370MOL0     H49892  10.223   8.531   5.508 -1.0999 -0.4842 -2.4881
  370MOL0     H49893  10.086   8.420   5.701  0.1485  3.6499 -3.3010
  370MOL0     H49894  10.141   8.261   5.633  1.2079 -0.1305  1.8569
  370MOL0     H49895  10.374   8.318   5.665  2.7532  3.2732 -1.2312
  370MOL0     H49896  10.340   8.487   5.702 -1.8697  1.2882  1.6789
  370MOL0     H49897  10.214   8.451   5.881  1.2310  0.8128  0.2943
  370MOL0     H49898  10.383   8.390   5.904 -0.4135 -0.5952  0.4393
  370MOL0     H49899  10.142   8.211   5.917  0.2340 -0.4173  0.0168
  370MOL0     H49900  10.304   8.161   5.886  1.6798  1.3370 -0.3120
  370MOL0     H49901  10.115   8.377   6.144  0.3312  0.8918 -0.3042
  370MOL0     H49902  10.308   8.368   6.483 -2.8849 -0.5069  2.5980
  370MOL0     H49903  10.309   8.509   6.386 -0.2132  0.5321  1.5221
  370MOL0     H49904  10.107   8.532   6.491 -1.7894  0.4173 -0.4092
  370MOL0     H49905  10.075   8.485   6.324  1.7703  0.7161 -0.1390
  370MOL0     H49906  10.025   8.320   6.586  0.1669 -0.3933  0.0633
  370MOL0     H49907  10.097   8.222   6.454 -0.1504 -0.3482  2.4996
  370MOL0     H49908   9.903   8.191   6.382 -1.1866  0.3443  0.5218
  370MOL0     H49909   9.913   8.345   6.320  2.8463  0.5882 -0.8634
  370MOL0     H49910   9.695   8.199   6.275 -2.0130 -1.2235 -1.6528
  370MOL0     H49911   9.475   8.110   6.262 -1.9840  0.8896  0.9716
  370MOL0     H49912   9.155   7.878   6.518 -0.5859 -0.2476 -1.6491
  370MOL0     H49913   8.928   7.773   6.542 -0.1821  0.1962 -2.5843
  370MOL0     H49914   8.594   8.080   6.632  1.9721 -0.6335  0.5191
  370MOL0     H49915   8.562   7.972   6.498  0.4744 -3.6437 -0.5911
  370MOL0     H49916   8.528   7.926   6.795 -1.3416  3.2808  1.0860
  370MOL0     H49917   8.398   7.977   6.710  0.1071  0.7441  0.4182
  370MOL0     H49918   8.531   7.708   6.642  0.0285  0.4382 -1.9961
  370MOL0     H49919   8.390   7.722   6.740 -1.1470  0.7157  0.3436
  370MOL0     H49920   8.394   7.802   6.447  0.9394 -3.5280 -0.5045
  370MOL0     H49921   8.254   7.814   6.563 -0.3293 -1.0362  2.3227
  370MOL0     H49922   8.405   7.548   6.504  0.3497  0.7977  5.8438
  370MOL0     H49923   8.275   7.606   6.396  0.4794  0.3804 -0.5047
  370MOL0     H49924   8.253   7.534   6.686 -1.1678  1.1328  0.7883
  370MOL0     H49925   8.130   7.627   6.600 -1.6692 -0.5541 -0.6828
  370MOL0     H49926   8.214   7.404   6.429  1.6670 -1.2059  0.9798
  370MOL0     H49927   8.051   7.435   6.483  0.0136  4.6654 -0.6311
  370MOL0     H49928   8.259   7.270   6.647  0.1413  0.7721  2.3947
  370MOL0     H49929   8.105   7.330   6.700  4.4310  0.3516  2.8201
  370MOL0     H49930   8.783   8.132   6.729 -0.8037 -1.1747  0.1054
  370MOL0     H49931   9.002   8.238   6.678  0.6072  1.5140 -2.3629
  370MOL0     H49932   9.386   8.283   6.652  0.6070  0.8928  0.0419
  370MOL0     H49933   9.608   8.395   6.636  0.5998 -0.3982 -0.4940
  370MOL0     H49934   9.650   8.588   5.103 -3.7251  0.8467 -0.0170
  370MOL0     H49935   9.419   8.555   5.048 -0.3139 -0.3085  0.1202
  370MOL0     H49936   9.081   8.443   4.735 -1.4423  2.8869  2.1309
  370MOL0     H49937   8.859   8.391   4.668 -2.3282  1.8386  1.4822
  370MOL0     H49938   8.618   8.061   4.888  0.6691 -0.7795 -2.5444
  370MOL0     H49939   8.492   8.168   4.824  0.2816 -0.8344 -1.2234
  370MOL0     H49940   8.658   8.230   5.065  0.2038  0.3947 -0.2537
  370MOL0     H49941   8.486   8.189   5.058 -0.9701  1.6000 -0.6874
  370MOL0     H49942   8.617   8.443   4.950  0.2376 -2.4857 -0.3587
  370MOL0     H49943   8.547   8.425   5.109 -1.0930 -2.1667  1.5818
  370MOL0     H49944   8.383   8.523   4.920 -1.4567 -0.4639 -0.1987
  370MOL0     H49945   8.406   8.365   4.845  0.5854  0.8378 -0.1346
  370MOL0     H49946   8.122   8.272   5.120  0.0528 -2.7767 -1.3227
  370MOL0     H49947   8.838   8.121   5.015  1.6638 -1.3693 -0.3709
  370MOL0     H49948   9.016   8.043   5.106 -0.5736  0.1502 -1.0934
  370MOL0     H49949   9.181   8.081   5.045  0.2504  1.0717  0.4880
  370MOL0     H49950   9.105   8.189   5.160  2.0047 -1.2410  1.5558
  371MOL0     O49951   0.497   0.455   8.404  0.4180  0.2119  0.2462
  371MOL0     C49952   0.482   0.505   8.291 -1.0933  0.1074 -0.8891
  371MOL0     O49953   0.588   0.527   8.205  0.5982 -0.4009 -1.0861
  371MOL0     C49954   0.712   0.496   8.260  0.2693 -0.6903 -0.1562
  371MOL0     C49955   0.773   0.376   8.225  0.7633  0.6512  0.2052
  371MOL0     C49956   0.903   0.350   8.262 -0.6949 -0.0366 -0.1612
  371MOL0     C49957   0.977   0.440   8.343  0.5308  1.2800  0.2928
  371MOL0     O49958   1.112   0.422   8.381 -0.0043  0.7747 -0.0337
  371MOL0     C49959   1.157   0.458   8.512 -0.3254  0.0733 -0.0672
  371MOL0     C49960   1.287   0.393   8.559 -0.7790  0.2462 -0.2439
  371MOL0     C49961   1.393   0.437   8.448  0.4916  0.4164  0.0650
  371MOL0     C49962   1.539   0.425   8.492 -0.1445  0.5292  0.2158
  371MOL0     C49963   1.634   0.485   8.394  0.6195  0.6477 -0.4856
  371MOL0     C49964   1.633   0.419   8.263 -0.4892  1.0142 -0.3417
  371MOL0     C49965   1.762   0.448   8.183  0.1726  0.1562 -0.5327
  371MOL0     C49966   1.766   0.352   8.059  0.5875  0.5637 -0.4344
  371MOL0     N49967   1.884   0.368   7.982  0.5229  0.7452  0.0223
  371MOL0     C49968   2.014   0.371   8.030  0.1171 -0.3850  0.2649
  371MOL0     C49969   2.092   0.382   7.918 -0.4973 -0.2513 -0.7039
  371MOL0     C49970   2.245   0.389   7.915  1.1533 -0.3348 -0.1434
  371MOL0     C49971   2.301   0.430   7.784  0.2335  0.5974  0.3744
  371MOL0     C49972   2.457   0.422   7.784  0.0158 -0.7917  0.0574
  371MOL0     C49973   2.528   0.465   7.917 -0.3057 -0.9715  0.0711
  371MOL0     O49974   2.666   0.507   7.902 -0.3122 -0.2467 -0.1597
  371MOL0     C49975   2.745   0.521   8.016  0.1243 -0.3623  0.2301
  371MOL0     C49976   2.690   0.560   8.138 -0.7110  0.6520 -0.5306
  371MOL0     C49977   2.772   0.585   8.247  0.9816 -0.1314  0.4005
  371MOL0     C49978   2.909   0.586   8.228  0.2833  0.2346 -0.6374
  371MOL0     C49979   2.992   0.639   8.337 -0.6298  0.0728 -0.4148
  371MOL0     O49980   3.125   0.649   8.304  0.1098 -0.5414 -0.2076
  371MOL0     C49981   3.200   0.719   8.401 -0.3797 -0.6734 -0.0830
  371MOL0     C49982   3.280   0.655   8.494 -0.2332 -0.1241  0.8622
  371MOL0     C49983   3.378   0.725   8.574  1.1149 -0.2718 -0.4942
  371MOL0     C49984   3.390   0.869   8.559 -0.3729  0.9933  1.0218
  371MOL0     O49985   3.470   0.935   8.645 -0.1785  0.7383  0.1347
  371MOL0     C49986   3.594   0.967   8.589  0.1085  0.1351  0.3482
  371MOL0     C49987   3.683   0.992   8.714 -0.4922 -0.7183 -0.9665
  371MOL0     C49988   3.817   1.038   8.677  0.3545  0.6752  0.0217
  371MOL0     C49989   3.884   1.085   8.799  0.3468 -0.1121  1.0043
  371MOL0     C49990   4.025   1.120   8.763  0.2178 -0.3294  0.4137
  371MOL0     C49991   4.113   1.165   8.883 -0.5250 -0.2748 -0.0067
  371MOL0     C49992   4.224   1.264   8.854 -0.1834  0.0921 -0.1225
  371MOL0     C49993   4.345   1.197   8.783 -0.3073  0.8227 -0.4760
  371MOL0    Cl49994   4.418   1.063   8.886  0.1683 -0.6803  0.2453
  371MOL0     C49995   3.307   0.935   8.463 -0.9069  0.1635 -0.0641
  371MOL0     C49996   3.217   0.854   8.391 -0.8767 -0.8114  0.1499
  371MOL0     O49997   2.942   0.662   8.453  0.1436 -0.7607 -0.2271
  371MOL0     C49998   2.971   0.545   8.101 -0.2055  0.1098  0.9246
  371MOL0     C49999   2.882   0.521   7.999 -0.7807  0.1892  0.4097
  371MOL0     N50000   2.006   0.401   7.812 -0.4841  0.1247  0.4642
  371MOL0     N50001   1.882   0.387   7.849  0.2778  0.4942 -1.0851
  371MOL0     C50002   0.905   0.553   8.387 -0.5190  0.3352 -0.6139
  371MOL0     C50003   0.771   0.580   8.348 -1.4128  0.1457  1.0849
  371MOL0     C50004   0.342   0.554   8.270 -0.7097  1.0075  0.3269
  371MOL0     C50005   0.250   0.544   8.381  0.2991 -0.3318  0.7157
  371MOL0     C50006   0.119   0.584   8.363  0.2477  0.3298  0.3974
  371MOL0     C50007   0.071   0.622   8.227  0.2870  1.4495 -0.1087
  371MOL0     O50008  -0.054   0.667   8.195  0.0167  1.0279  0.9054
  371MOL0     C50009  -0.150   0.626   8.293 -0.3204  0.2591  0.9502
  371MOL0     C50010  -0.285   0.653   8.222  0.5605 -0.1744  0.1599
  371MOL0     C50011  -0.311   0.801   8.192  0.2297  0.5344 -0.3416
  371MOL0     C50012  -0.432   0.812   8.107  0.6607 -0.8486  0.4372
  371MOL0     C50013  -0.547   0.777   8.187  0.7974  0.6343 -0.7169
  371MOL0     C50014  -0.636   0.738   8.259 -0.0987  0.6152 -0.8499
  371MOL0     C50015   0.160   0.612   8.125 -0.7814 -0.8840 -0.8671
  371MOL0     C50016   0.294   0.587   8.143 -0.4845  0.3724  0.1552
  371MOL0     C50017   0.379   0.578   8.021 -0.4101  0.0575 -0.1504
  371MOL0     H50018   0.717   0.301   8.171 -0.3419  1.8997 -0.4339
  371MOL0     H50019   0.943   0.255   8.229  0.0469  0.7978 -1.7744
  371MOL0     H50020   1.152   0.566   8.532 -1.3366 -0.4964  3.4196
  371MOL0     H50021   1.086   0.431   8.591  0.6887  3.0278  2.0516
  371MOL0     H50022   1.278   0.284   8.561  2.5276 -0.1476  1.8410
  371MOL0     H50023   1.315   0.429   8.658 -0.8168 -1.1992  0.3143
  371MOL0     H50024   1.379   0.536   8.403 -0.7628 -1.0928 -3.1851
  371MOL0     H50025   1.376   0.383   8.355 -0.0845 -0.2910  0.5638
  371MOL0     H50026   1.529   0.470   8.592  0.7393 -1.4069  1.2414
  371MOL0     H50027   1.572   0.321   8.509 -0.5887  0.4093  0.3501
  371MOL0     H50028   1.614   0.593   8.391 -2.5888  0.1464 -1.3580
  371MOL0     H50029   1.736   0.476   8.433  0.0046  1.1905  1.3581
  371MOL0     H50030   1.628   0.310   8.278 -1.9033  1.3248  1.8704
  371MOL0     H50031   1.546   0.451   8.205 -1.1990 -1.1966 -0.5974
  371MOL0     H50032   1.851   0.435   8.244 -0.3149  0.6473  0.3004
  371MOL0     H50033   1.757   0.552   8.149 -3.9892  0.3497  0.1798
  371MOL0     H50034   1.753   0.248   8.089 -0.1471  0.2613 -1.7249
  371MOL0     H50035   1.671   0.367   8.007 -0.0330 -1.6532 -0.0546
  371MOL0     H50036   2.048   0.379   8.133 -0.7002  0.4699  0.4740
  371MOL0     H50037   2.278   0.461   7.991  1.9366  1.1803 -1.8622
  371MOL0     H50038   2.298   0.297   7.942  0.7998  0.0577  2.0803
  371MOL0     H50039   2.270   0.356   7.709  3.5842 -1.8838  1.1553
  371MOL0     H50040   2.267   0.531   7.761  2.0080  0.7984 -1.7152
  371MOL0     H50041   2.505   0.484   7.707 -0.9915  0.5507  0.4608
  371MOL0     H50042   2.495   0.324   7.754 -0.6354 -0.9857 -0.1512
  371MOL0     H50043   2.524   0.392   7.998  0.3477  1.2106  2.1893
  371MOL0     H50044   2.471   0.552   7.952 -1.6657 -1.5657 -0.6217
  371MOL0     H50045   2.585   0.584   8.150 -0.2042  2.9940 -0.2239
  371MOL0     H50046   2.725   0.601   8.344  1.4125 -0.0160  0.5925
  371MOL0     H50047   3.276   0.546   8.501 -3.1548 -0.1892 -0.2941
  371MOL0     H50048   3.437   0.664   8.642 -0.0231  0.8532  1.6153
  371MOL0     H50049   3.638   0.894   8.521 -2.9009 -0.8882 -0.6966
  371MOL0     H50050   3.586   1.063   8.537  0.1861 -1.0209 -1.9411
  371MOL0     H50051   3.635   1.068   8.777  0.0179 -0.2612 -1.1227
  371MOL0     H50052   3.695   0.904   8.777 -0.9812  0.5361  0.9657
  371MOL0     H50053   3.875   0.961   8.625  0.6317  0.6025  0.4320
  371MOL0     H50054   3.809   1.134   8.624 -0.7138 -0.7325 -2.5425
  371MOL0     H50055   3.882   1.005   8.873 -0.9583 -0.7417  0.3330
  371MOL0     H50056   3.832   1.173   8.837 -0.1918  0.7130 -1.4271
  371MOL0     H50057   4.024   1.196   8.685  0.7899 -3.0999 -2.4986
  371MOL0     H50058   4.071   1.031   8.721  1.2314  1.0151 -1.4649
  371MOL0     H50059   4.043   1.200   8.960 -0.1753 -0.2498  0.3042
  371MOL0     H50060   4.149   1.079   8.940 -3.8604 -0.7758  1.5889
  371MOL0     H50061   4.269   1.312   8.941 -0.3659 -0.2433  0.1601
  371MOL0     H50062   4.179   1.346   8.798  0.1347  2.3235  2.6488
  371MOL0     H50063   4.296   1.145   8.700  0.7209 -3.7180  1.4651
  371MOL0     H50064   4.428   1.266   8.764  0.0615  0.2623 -0.9360
  371MOL0     H50065   3.302   1.043   8.456 -3.1062  0.2551  2.0053
  371MOL0     H50066   3.161   0.908   8.315 -0.1243 -1.1859 -0.6855
  371MOL0     H50067   3.077   0.535   8.080 -0.6226 -1.3740 -0.7471
  371MOL0     H50068   2.925   0.492   7.904  0.3947 -4.1134  2.0450
  371MOL0     H50069   0.955   0.628   8.447 -1.1994  0.3415 -0.0399
  371MOL0     H50070   0.720   0.665   8.392 -3.3094 -1.7117  2.6937
  371MOL0     H50071   0.274   0.493   8.474  0.9213  0.8371  1.2273
  371MOL0     H50072   0.037   0.579   8.433 -1.7245  2.1100 -1.6494
  371MOL0     H50073  -0.151   0.679   8.388 -0.5623 -0.9832  1.6603
  371MOL0     H50074  -0.139   0.518   8.306  2.1670  0.4031  0.5554
  371MOL0     H50075  -0.363   0.636   8.297  0.6448  3.6071  1.3142
  371MOL0     H50076  -0.295   0.586   8.137  0.6427  2.1359 -1.7684
  371MOL0     H50077  -0.225   0.836   8.134  1.0383 -1.4049 -0.4116
  371MOL0     H50078  -0.317   0.862   8.282 -1.2848 -0.6950  0.4503
  371MOL0     H50079  -0.445   0.912   8.065  2.4821 -1.4101 -1.6483
  371MOL0     H50080  -0.427   0.746   8.020 -2.4674 -0.2534 -0.3344
  371MOL0     H50081  -0.734   0.720   8.300  0.6754 -1.4517  0.2461
  371MOL0     H50082   0.126   0.655   8.032 -0.2718  0.3405 -0.5176
  371MOL0     H50083   0.437   0.485   8.024  2.1376  1.5229 -1.0366
  371MOL0     H50084   0.315   0.578   7.932 -1.7181 -1.4667  0.7269
  371MOL0     H50085   0.454   0.656   8.011 -0.6425  0.1457 -1.3916
  372MOL0     O50086   7.829   6.729  10.869  0.2915  0.2242 -0.2888
  372MOL0     C50087   7.836   6.842  10.811  0.9774  0.7396 -1.0036
  372MOL0     O50088   7.941   6.938  10.820  0.0911 -0.1671 -0.4360
  372MOL0     C50089   8.047   6.919  10.901 -0.3603  0.1954  0.5452
  372MOL0     C50090   8.168   6.964  10.852 -0.5737 -0.0712  0.3282
  372MOL0     C50091   8.280   6.967  10.934  0.0421 -0.8666  0.0191
  372MOL0     C50092   8.271   6.918  11.071 -0.0750 -1.5103  0.6886
  372MOL0     O50093   8.387   6.917  11.139  0.5276  0.7681 -0.2300
  372MOL0     C50094   8.387   6.868  11.272 -0.7662  0.4496 -0.3189
  372MOL0     C50095   8.395   6.714  11.279  0.0926 -0.0353 -0.1666
  372MOL0     C50096   8.535   6.670  11.234  0.4050  0.3494  0.4486
  372MOL0     C50097   8.605   6.661  11.366 -0.3631 -0.4857  0.1560
  372MOL0     C50098   8.763   6.642  11.345  0.5575  0.5102 -0.2509
  372MOL0     C50099   8.826   6.775  11.298  0.0516 -1.5032  0.6171
  372MOL0     C50100   8.964   6.802  11.370 -0.0674  0.4401  0.0668
  372MOL0     C50101   9.022   6.940  11.344 -0.2484 -0.5695  1.2841
  372MOL0     N50102   9.157   6.960  11.398  0.3572  0.0598 -0.7791
  372MOL0     C50103   9.262   6.910  11.340  0.2095  0.4971  0.1693
  372MOL0     C50104   9.372   6.956  11.400  0.1957  0.5084 -0.4073
  372MOL0     C50105   9.512   6.910  11.373 -0.8359 -1.0543  0.2899
  372MOL0     C50106   9.564   6.952  11.236 -0.8841 -0.2853 -0.3275
  372MOL0     C50107   9.595   7.099  11.236  0.7460 -0.2066 -0.6664
  372MOL0     C50108   9.596   7.158  11.095 -0.2564  0.7325  0.7364
  372MOL0     O50109   9.694   7.096  11.011 -0.9297  0.7190  0.5873
  372MOL0     C50110   9.828   7.114  11.031 -0.6844  0.0475  1.2949
  372MOL0     C50111   9.888   7.213  11.112 -0.7441 -1.7545 -0.4275
  372MOL0     C50112  10.026   7.245  11.112  0.6572 -0.3811 -0.2729
  372MOL0     C50113  10.111   7.168  11.024 -0.2192  0.2987 -0.1566
  372MOL0     C50114  10.255   7.188  11.020 -0.0699 -0.2668 -0.3238
  372MOL0     O50115  10.303   7.288  11.095  1.1343  0.0130 -0.3014
  372MOL0     C50116  10.438   7.312  11.111 -0.3735  0.2094  0.4222
  372MOL0     C50117  10.544   7.224  11.148  0.3756 -0.7581 -0.6595
  372MOL0     C50118  10.679   7.265  11.163 -0.3382 -0.3609  0.0019
  372MOL0     C50119  10.712   7.398  11.139 -0.5037 -0.2993  0.1379
  372MOL0     O50120  10.840   7.452  11.133 -0.4549  0.2465  0.4476
  372MOL0     C50121  10.945   7.397  11.222 -0.6810 -0.0888 -0.1989
  372MOL0     C50122  11.084   7.464  11.185  0.0252  1.1018  0.4134
  372MOL0     C50123  11.083   7.613  11.189  0.3086  0.0090 -0.4312
  372MOL0     C50124  11.228   7.672  11.183  0.4062  0.3932 -0.6787
  372MOL0     C50125  11.303   7.647  11.057 -0.0657  0.5880 -0.0150
  372MOL0     C50126  11.244   7.724  10.938  0.1654 -0.1158 -0.2275
  372MOL0     C50127  11.332   7.686  10.816 -0.1259 -0.0606 -0.2206
  372MOL0     C50128  11.463   7.759  10.804 -0.2888 -0.9005  0.0505
  372MOL0    Cl50129  11.572   7.709  10.671  0.2432  0.1829 -0.3171
  372MOL0     C50130  10.612   7.485  11.109 -0.5436  0.2233 -0.3697
  372MOL0     C50131  10.475   7.446  11.103  0.2168  0.4868 -0.5535
  372MOL0     O50132  10.321   7.103  10.954 -0.4789 -0.5609 -0.2480
  372MOL0     C50133  10.050   7.060  10.943 -0.1131 -0.2255  0.3663
  372MOL0     C50134   9.912   7.045  10.944 -0.2499  0.9395 -0.0009
  372MOL0     N50135   9.324   7.050  11.494  0.8349 -0.4196  0.2357
  372MOL0     N50136   9.198   7.049  11.490  0.5435  0.1309 -0.3272
  372MOL0     C50137   8.150   6.859  11.110  0.0859 -0.8744  0.4357
  372MOL0     C50138   8.033   6.871  11.034 -0.3994  0.1694  0.3062
  372MOL0     C50139   7.733   6.883  10.719  0.3713  0.3112  0.1627
  372MOL0     C50140   7.771   6.968  10.613 -0.1704 -0.4552  0.6399
  372MOL0     C50141   7.672   7.031  10.534  0.7770 -0.2785 -0.0529
  372MOL0     C50142   7.542   7.000  10.540  0.8359 -0.4153 -0.6071
  372MOL0     O50143   7.437   7.058  10.475  0.1012 -0.0688 -0.2043
  372MOL0     C50144   7.470   7.178  10.407 -0.5508  0.1951 -0.3686
  372MOL0     C50145   7.343   7.230  10.336  0.3805  0.5805 -0.0057
  372MOL0     C50146   7.219   7.255  10.417 -0.2353 -0.3636 -0.3608
  372MOL0     C50147   7.101   7.267  10.325  0.6128 -0.2353  0.4314
  372MOL0     C50148   6.983   7.304  10.411 -1.3798  0.3319  0.6756
  372MOL0     C50149   6.872   7.333  10.459 -0.1509  0.0853 -0.4431
  372MOL0     C50150   7.502   6.912  10.641 -0.5210  0.1021 -0.0451
  372MOL0     C50151   7.592   6.859  10.736 -0.0714  0.3638  0.8916
  372MOL0     C50152   7.535   6.774  10.846 -0.2173 -0.0268  0.0291
  372MOL0     H50153   8.167   7.013  10.755  1.3729 -1.0208 -0.2102
  372MOL0     H50154   8.376   6.991  10.890  0.0552 -0.8262  0.0713
  372MOL0     H50155   8.474   6.916  11.318 -0.3949  0.3333 -0.8798
  372MOL0     H50156   8.298   6.899  11.327 -0.9802  0.1324 -0.4834
  372MOL0     H50157   8.322   6.662  11.217 -0.1590  0.0028  0.0950
  372MOL0     H50158   8.377   6.678  11.381  0.3101 -1.0190 -0.4641
  372MOL0     H50159   8.580   6.739  11.162 -1.1857 -0.0184 -0.9453
  372MOL0     H50160   8.532   6.572  11.186 -1.1015  0.1616  0.8789
  372MOL0     H50161   8.594   6.752  11.426  1.4597  0.1501 -0.4211
  372MOL0     H50162   8.570   6.576  11.424  0.4149 -2.5010 -2.1576
  372MOL0     H50163   8.803   6.614  11.443  3.8636  0.4638 -1.4768
  372MOL0     H50164   8.786   6.560  11.277 -0.7116  0.4431 -0.6206
  372MOL0     H50165   8.831   6.777  11.189 -2.3440 -2.8186  0.4087
  372MOL0     H50166   8.764   6.862  11.318  1.5065 -0.5792  1.2529
  372MOL0     H50167   9.032   6.723  11.337 -0.6202  0.7067 -1.8128
  372MOL0     H50168   8.947   6.784  11.477  3.3279  0.2066  0.6930
  372MOL0     H50169   9.014   6.964  11.238  0.8688  1.1757  1.5577
  372MOL0     H50170   8.963   7.023  11.382  2.3403  2.0771 -0.0985
  372MOL0     H50171   9.263   6.839  11.258 -1.7684  0.9840 -0.3449
  372MOL0     H50172   9.591   6.942  11.441  0.9808 -3.7380 -0.3744
  372MOL0     H50173   9.512   6.803  11.397 -1.0045 -0.6937  1.9667
  372MOL0     H50174   9.661   6.905  11.218 -0.6679  0.8652 -2.4237
  372MOL0     H50175   9.492   6.934  11.157 -1.3717 -0.1941  0.0890
  372MOL0     H50176   9.696   7.116  11.274  1.6071 -2.1084 -1.9705
  372MOL0     H50177   9.523   7.160  11.292  1.7970 -0.3495  0.9018
  372MOL0     H50178   9.608   7.267  11.092 -0.6324  0.7623  0.2072
  372MOL0     H50179   9.495   7.150  11.054  0.2945  1.9141 -0.9622
  372MOL0     H50180   9.819   7.274  11.168  0.1168 -0.1704 -1.0323
  372MOL0     H50181  10.069   7.324  11.173 -0.2098 -0.1867  0.0978
  372MOL0     H50182  10.524   7.118  11.157  0.9376 -0.7223  1.5294
  372MOL0     H50183  10.762   7.200  11.189  1.5741  2.2892  0.9219
  372MOL0     H50184  10.918   7.416  11.326 -2.1673  0.4945 -0.6736
  372MOL0     H50185  10.941   7.288  11.217  0.8106 -0.3284  2.1530
  372MOL0     H50186  11.153   7.429  11.262 -0.3504 -0.2300  0.1633
  372MOL0     H50187  11.113   7.429  11.085  1.6090  1.5371  0.6904
  372MOL0     H50188  11.032   7.668  11.110  0.2786 -0.3583 -0.6699
  372MOL0     H50189  11.040   7.641  11.286 -2.2964 -0.5217 -1.3674
  372MOL0     H50190  11.283   7.623  11.264 -5.1479 -0.2789  3.2279
  372MOL0     H50191  11.235   7.779  11.204  0.9566  0.0409  1.0695
  372MOL0     H50192  11.303   7.541  11.029  0.3108 -0.6666  4.1708
  372MOL0     H50193  11.408   7.676  11.070 -0.6452  2.0164  1.8665
  372MOL0     H50194  11.139   7.701  10.920  0.2190 -1.0252  0.5352
  372MOL0     H50195  11.254   7.832  10.952 -2.1763  0.1814 -0.4912
  372MOL0     H50196  11.277   7.692  10.721 -1.1358 -2.3864  0.1534
  372MOL0     H50197  11.360   7.580  10.816 -0.6473 -0.2143 -0.9790
  372MOL0     H50198  11.437   7.862  10.777  1.1063 -0.5734 -0.0930
  372MOL0     H50199  11.519   7.769  10.897  0.4251 -0.2954 -0.4304
  372MOL0     H50200  10.637   7.590  11.100  0.0728  0.0017 -1.4306
  372MOL0     H50201  10.389   7.511  11.091 -0.1052 -0.1224 -1.6629
  372MOL0     H50202  10.106   6.982  10.893  0.9558  0.6812  0.0902
  372MOL0     H50203   9.873   6.964  10.883 -1.5709 -0.6681  2.7848
  372MOL0     H50204   8.133   6.818  11.209 -0.2513 -1.9661 -0.0571
  372MOL0     H50205   7.944   6.827  11.079 -1.0990  1.7778  0.5573
  372MOL0     H50206   7.879   6.978  10.607  0.0846 -2.0485  1.8768
  372MOL0     H50207   7.730   7.089  10.462  2.4517 -2.6665 -0.7658
  372MOL0     H50208   7.542   7.150  10.329  1.5580 -1.9097  2.1437
  372MOL0     H50209   7.506   7.252  10.478 -1.1213  1.4139 -1.3208
  372MOL0     H50210   7.327   7.149  10.264  1.5835  0.7717 -0.5131
  372MOL0     H50211   7.363   7.318  10.275  1.0388  0.9036  0.6720
  372MOL0     H50212   7.232   7.335  10.490  0.3315 -2.3508  1.8462
  372MOL0     H50213   7.199   7.167  10.478 -0.0563 -0.4088 -0.3662
  372MOL0     H50214   7.126   7.341  10.248  2.7031 -0.2463  1.0307
  372MOL0     H50215   7.095   7.179  10.261  1.1963  0.9039 -1.2804
  372MOL0     H50216   6.774   7.344  10.501  0.2741 -2.5870  1.5344
  372MOL0     H50217   7.396   6.890  10.650 -1.3519  1.8273 -3.8417
  372MOL0     H50218   7.601   6.772  10.933 -1.3819 -3.0034  0.9759
  372MOL0     H50219   7.433   6.798  10.878 -0.5168 -0.8451 -0.2872
  372MOL0     H50220   7.529   6.671  10.810  0.6429 -0.1623  0.2523
  373MOL0     O50221   5.087   7.117   1.160 -0.9177  0.3793 -0.2309
  373MOL0     C50222   5.095   7.231   1.107  0.5279  0.3102  1.0154
  373MOL0     O50223   5.201   7.316   1.122  0.1288 -0.0707  0.6675
  373MOL0     C50224   5.304   7.283   1.209 -0.6582 -0.6275 -0.0607
  373MOL0     C50225   5.435   7.256   1.164  0.3461  0.4488 -0.7726
  373MOL0     C50226   5.537   7.216   1.257 -1.2118  0.3680  1.0043
  373MOL0     C50227   5.519   7.199   1.391 -0.5639 -0.2454  0.2718
  373MOL0     O50228   5.615   7.131   1.466  0.5976  0.0642  0.8870
  373MOL0     C50229   5.739   7.085   1.408  0.0338  0.1660 -0.5898
  373MOL0     C50230   5.812   6.989   1.496 -0.2334 -0.0049 -0.4503
  373MOL0     C50231   5.959   6.961   1.442 -0.2272  0.7648 -0.2684
  373MOL0     C50232   6.033   6.844   1.515 -0.0296 -0.0381 -0.4864
  373MOL0     C50233   6.185   6.827   1.493  0.2774  0.4929 -0.0315
  373MOL0     C50234   6.235   6.685   1.535 -0.5243 -0.3167  0.4075
  373MOL0     C50235   6.383   6.690   1.521  0.0702  0.3181 -0.4421
  373MOL0     C50236   6.455   6.579   1.603  0.6291  0.1369 -0.2992
  373MOL0     N50237   6.593   6.607   1.611  0.0295  0.1376 -0.7729
  373MOL0     C50238   6.678   6.566   1.515 -0.1677  1.1082 -0.1296
  373MOL0     C50239   6.803   6.599   1.549  0.0455  0.5443 -0.7066
  373MOL0     C50240   6.934   6.585   1.486 -0.1389  0.2953 -0.5085
  373MOL0     C50241   6.945   6.676   1.363 -0.5791  0.5168  0.1198
  373MOL0     C50242   7.093   6.666   1.310  0.0893  0.1675  1.1563
  373MOL0     C50243   7.194   6.702   1.414 -0.9091  0.6317 -0.3343
  373MOL0     O50244   7.259   6.589   1.472 -0.3296 -0.4550  0.0680
  373MOL0     C50245   7.377   6.609   1.545 -0.4490  0.0227 -0.2882
  373MOL0     C50246   7.440   6.734   1.556  0.1971 -0.0664  0.3441
  373MOL0     C50247   7.561   6.731   1.622  0.0082 -0.1856 -0.2961
  373MOL0     C50248   7.619   6.614   1.680  0.1356  0.0397  0.5676
  373MOL0     C50249   7.755   6.614   1.738  0.3178  0.2299  0.3053
  373MOL0     O50250   7.792   6.497   1.792 -0.2087 -1.0225  0.4558
  373MOL0     C50251   7.904   6.462   1.862  0.8339  0.4760  0.5988
  373MOL0     C50252   7.885   6.353   1.953 -0.6659  0.9364  0.1410
  373MOL0     C50253   7.992   6.318   2.044 -0.4040  0.1216  0.3284
  373MOL0     C50254   8.116   6.393   2.044  0.1231  0.6000 -0.6598
  373MOL0     O50255   8.225   6.385   2.127  0.3655 -0.0096 -0.2111
  373MOL0     C50256   8.212   6.281   2.230 -0.7837 -0.0845 -0.0886
  373MOL0     C50257   8.237   6.146   2.173  0.7176  0.1345 -0.0226
  373MOL0     C50258   8.376   6.138   2.123 -0.1785  0.4185  0.3450
  373MOL0     C50259   8.403   6.003   2.061  0.1294  0.4718 -0.5058
  373MOL0     C50260   8.550   5.977   2.041  0.1288  0.7151 -0.3449
  373MOL0     C50261   8.592   5.834   2.001  0.2591 -0.3767  0.0657
  373MOL0     C50262   8.748   5.823   1.993  0.4513  1.2174 -0.0953
  373MOL0     C50263   8.828   5.917   1.905 -0.5573  0.2085  0.5668
  373MOL0    Cl50264   9.001   5.876   1.908  0.1080 -0.0332 -0.0653
  373MOL0     C50265   8.124   6.504   1.959 -0.5617 -0.0849 -0.2357
  373MOL0     C50266   8.023   6.528   1.865 -0.1963  0.0416  0.3552
  373MOL0     O50267   7.813   6.719   1.752  0.2218 -0.0179 -0.0671
  373MOL0     C50268   7.545   6.493   1.685  0.3401 -0.1302 -0.4084
  373MOL0     C50269   7.430   6.493   1.605 -0.9077  0.2203  0.9446
  373MOL0     N50270   6.785   6.674   1.668  0.8660  0.2308 -0.0601
  373MOL0     N50271   6.665   6.665   1.713  0.0985  0.8539  0.2902
  373MOL0     C50272   5.386   7.228   1.437 -0.5631 -0.9015 -0.4218
  373MOL0     C50273   5.283   7.278   1.351  0.2009 -0.4728  0.3687
  373MOL0     C50274   4.979   7.263   1.023 -0.0632  0.3852 -0.3501
  373MOL0     C50275   4.897   7.157   0.972  1.3244  0.4634  0.0737
  373MOL0     C50276   4.806   7.181   0.874 -0.4000  0.0059  0.9446
  373MOL0     C50277   4.765   7.309   0.832 -0.6233 -0.2621  0.5053
  373MOL0     O50278   4.660   7.340   0.747  0.8553  0.2511 -0.7066
  373MOL0     C50279   4.600   7.241   0.662 -0.1235 -0.1650 -0.0268
  373MOL0     C50280   4.459   7.208   0.704  0.0329  0.9343 -0.6085
  373MOL0     C50281   4.394   7.114   0.596  0.7693  1.2381 -0.3616
  373MOL0     C50282   4.247   7.065   0.621  0.2897  0.5085  0.3866
  373MOL0     C50283   4.146   7.166   0.579 -0.1976  0.1944  0.7041
  373MOL0     C50284   4.063   7.252   0.551 -0.1293  0.5145  0.1182
  373MOL0     C50285   4.846   7.412   0.878 -0.9046  0.1044  0.5320
  373MOL0     C50286   4.949   7.394   0.975 -0.9134 -0.2481 -0.3529
  373MOL0     C50287   5.010   7.530   1.025 -0.8194 -0.2335 -0.2323
  373MOL0     H50288   5.460   7.257   1.058  1.5203 -0.5018 -0.5195
  373MOL0     H50289   5.630   7.189   1.208 -1.8068 -2.1150  1.1031
  373MOL0     H50290   5.731   7.033   1.311 -1.2278 -2.0172  0.6046
  373MOL0     H50291   5.805   7.172   1.396  0.0787  0.0989 -0.8428
  373MOL0     H50292   5.744   6.903   1.498 -0.6340  0.3204  0.2439
  373MOL0     H50293   5.823   7.038   1.593  0.2439 -2.3370  0.7371
  373MOL0     H50294   6.011   7.057   1.444  0.3182  0.5434 -2.2929
  373MOL0     H50295   5.962   6.926   1.339  0.6077 -3.0461  0.8773
  373MOL0     H50296   6.012   6.845   1.622 -1.9892  0.7652 -0.8312
  373MOL0     H50297   5.985   6.749   1.487 -0.2674 -0.3651  0.9763
  373MOL0     H50298   6.204   6.842   1.386 -0.7184 -5.3865 -1.3692
  373MOL0     H50299   6.248   6.901   1.544  0.3420 -1.1507  2.4404
  373MOL0     H50300   6.216   6.663   1.640 -0.3680  3.2386  1.3189
  373MOL0     H50301   6.199   6.605   1.468 -1.5490 -1.9886  2.8174
  373MOL0     H50302   6.421   6.789   1.548 -0.5263  0.6746 -0.8962
  373MOL0     H50303   6.407   6.676   1.415 -1.4609 -1.3898 -0.6203
  373MOL0     H50304   6.402   6.574   1.699  2.1873  2.6825  0.7820
  373MOL0     H50305   6.431   6.488   1.547  0.2471  0.7423 -1.1513
  373MOL0     H50306   6.664   6.501   1.430 -1.9214  0.0998  0.8789
  373MOL0     H50307   7.012   6.615   1.557  1.4614  3.2030 -3.2247
  373MOL0     H50308   6.948   6.483   1.450  3.0278  1.1909 -2.2120
  373MOL0     H50309   6.873   6.653   1.284 -1.3719 -1.6612  1.3896
  373MOL0     H50310   6.914   6.778   1.388 -1.4366 -0.1347  1.9257
  373MOL0     H50311   7.104   6.727   1.220  0.4719 -0.2001  0.9544
  373MOL0     H50312   7.103   6.565   1.271 -2.5871 -0.2435  1.3272
  373MOL0     H50313   7.152   6.758   1.498  2.8627  0.6467  1.7493
  373MOL0     H50314   7.262   6.768   1.359 -1.4217  1.3271 -0.1600
  373MOL0     H50315   7.423   6.831   1.512 -0.2697 -0.5234 -0.5113
  373MOL0     H50316   7.617   6.823   1.633  0.0260 -0.1604 -0.5843
  373MOL0     H50317   7.791   6.300   1.962  1.5747 -3.2956  0.7957
  373MOL0     H50318   7.980   6.235   2.113 -1.3372  0.4090  0.5317
  373MOL0     H50319   8.274   6.304   2.317 -0.1464 -2.7979  0.2422
  373MOL0     H50320   8.110   6.289   2.271  0.5681 -1.8101  4.1098
  373MOL0     H50321   8.228   6.077   2.258 -0.3483  0.4339  0.1190
  373MOL0     H50322   8.161   6.111   2.104  0.0838  0.9996  0.2230
  373MOL0     H50323   8.407   6.223   2.062  1.2558  0.7000  1.3939
  373MOL0     H50324   8.439   6.159   2.211 -0.1561  4.6286 -0.4547
  373MOL0     H50325   8.340   5.986   1.973 -2.5130  1.7372  1.0123
  373MOL0     H50326   8.376   5.930   2.138  0.4040 -3.1399 -3.5102
  373MOL0     H50327   8.596   6.007   2.135  0.3406 -0.5779 -0.0164
  373MOL0     H50328   8.579   6.044   1.960 -0.8633 -0.1465 -1.4531
  373MOL0     H50329   8.558   5.763   2.078  1.0413  1.4953  2.2643
  373MOL0     H50330   8.556   5.796   1.905  2.1641 -2.2130  0.0133
  373MOL0     H50331   8.770   5.720   1.966  2.6150  0.5152  3.6964
  373MOL0     H50332   8.782   5.841   2.095  0.2717 -0.1607  0.2243
  373MOL0     H50333   8.789   5.923   1.803 -1.1738  4.9773  0.8776
  373MOL0     H50334   8.815   6.018   1.943 -0.0876  1.0190 -1.3178
  373MOL0     H50335   8.218   6.559   1.965  0.5300 -2.0399  3.7622
  373MOL0     H50336   8.029   6.617   1.803  2.0441  0.0972  0.5646
  373MOL0     H50337   7.588   6.398   1.715  0.6492 -0.6349 -2.3245
  373MOL0     H50338   7.374   6.402   1.584  1.5572 -1.6153  1.9302
  373MOL0     H50339   5.359   7.207   1.540  1.4856  0.5585  0.5082
  373MOL0     H50340   5.181   7.284   1.388 -0.3851 -3.8399 -0.3783
  373MOL0     H50341   4.919   7.054   0.999  0.5245  0.3609  0.3619
  373MOL0     H50342   4.743   7.096   0.851  0.9877 -1.7881  3.2689
  373MOL0     H50343   4.652   7.145   0.671 -1.7071 -1.2799 -1.8957
  373MOL0     H50344   4.596   7.282   0.561 -1.1590  0.6744  0.3345
  373MOL0     H50345   4.393   7.295   0.716  0.0415  0.6485  1.9799
  373MOL0     H50346   4.459   7.157   0.801  0.0786  1.4516 -0.3316
  373MOL0     H50347   4.449   7.020   0.605 -1.8564 -0.2881  1.0159
  373MOL0     H50348   4.418   7.155   0.498 -0.4210 -0.4865 -1.4369
  373MOL0     H50349   4.231   6.969   0.569 -1.6033 -0.0114  1.7945
  373MOL0     H50350   4.238   7.053   0.729  1.0123  0.1607  0.4161
  373MOL0     H50351   3.999   7.329   0.512 -0.7904 -1.0140 -1.9088
  373MOL0     H50352   4.815   7.511   0.847  1.5739  0.8657  0.2537
  373MOL0     H50353   4.992   7.523   1.133  0.9311 -1.2932  0.0170
  373MOL0     H50354   5.113   7.539   0.990 -0.3947  0.2139  1.0888
  373MOL0     H50355   4.958   7.619   0.987 -1.0607  0.0355  0.7038
  374MOL0     O50356   0.100   2.773   6.224  1.0519 -0.0637 -1.2561
  374MOL0     C50357   0.141   2.717   6.324  0.4087  0.7059  0.0945
  374MOL0     O50358   0.265   2.655   6.334 -0.0745 -0.0378 -0.2365
  374MOL0     C50359   0.345   2.642   6.225  0.0273  0.3220  0.6815
  374MOL0     C50360   0.295   2.584   6.104 -0.1597  0.1989  0.3921
  374MOL0     C50361   0.378   2.569   5.997  0.1707  0.1789  0.2358
  374MOL0     C50362   0.515   2.600   6.012 -0.6999 -0.1166 -0.1115
  374MOL0     O50363   0.604   2.598   5.909 -0.3067 -0.2222 -0.1117
  374MOL0     C50364   0.562   2.549   5.781  0.1339  1.2271 -0.4237
  374MOL0     C50365   0.686   2.538   5.690  0.8472  0.0751 -0.2897
  374MOL0     C50366   0.791   2.441   5.758 -0.2739 -0.1892  1.0436
  374MOL0     C50367   0.931   2.455   5.678 -0.1971  0.2887  0.3973
  374MOL0     C50368   1.042   2.383   5.747 -0.2927  0.3953  0.8913
  374MOL0     C50369   1.174   2.426   5.687  0.2207  0.1138  0.3509
  374MOL0     C50370   1.291   2.360   5.758  0.0945 -0.9046 -0.8578
  374MOL0     C50371   1.413   2.371   5.674  0.0394  0.4181 -0.0024
  374MOL0     N50372   1.513   2.287   5.734 -0.2849 -0.6619  1.0820
  374MOL0     C50373   1.509   2.158   5.765  0.2457  0.4395 -0.1841
  374MOL0     C50374   1.622   2.138   5.839 -0.7779 -0.2699  0.3383
  374MOL0     C50375   1.680   2.005   5.893 -0.3670 -0.4676 -0.1183
  374MOL0     C50376   1.836   2.007   5.894 -0.2101  0.4486  0.2147
  374MOL0     C50377   1.894   1.955   5.760  0.0393  0.0792 -0.6394
  374MOL0     C50378   2.031   2.018   5.738  0.7578 -0.0755  1.0335
  374MOL0     O50379   2.118   1.952   5.830  0.3174  0.2897 -0.4704
  374MOL0     C50380   2.253   1.990   5.843 -0.2479 -1.0136  0.0200
  374MOL0     C50381   2.340   1.904   5.917 -0.7011  0.7261  0.9259
  374MOL0     C50382   2.475   1.928   5.933 -0.6916 -1.0781 -0.1714
  374MOL0     C50383   2.520   2.061   5.900 -0.1288  0.5757  0.8879
  374MOL0     C50384   2.659   2.098   5.939  0.4001  0.2934 -0.3724
  374MOL0     O50385   2.739   2.012   6.001  0.5102  0.0412  0.7777
  374MOL0     C50386   2.860   2.053   6.052  0.5256 -0.3492  0.9383
  374MOL0     C50387   2.870   2.166   6.136 -0.4336  0.7297 -0.1830
  374MOL0     C50388   2.987   2.206   6.192  0.0619  1.0672  0.3937
  374MOL0     C50389   3.100   2.123   6.176  0.2188  0.9963  0.0284
  374MOL0     O50390   3.213   2.145   6.246 -0.6464  0.3525  0.7875
  374MOL0     C50391   3.340   2.086   6.213  0.4647  0.4175 -0.3088
  374MOL0     C50392   3.448   2.139   6.306 -0.5659  0.4261 -0.2528
  374MOL0     C50393   3.590   2.101   6.242  0.0481  0.4965 -0.4349
  374MOL0     C50394   3.720   2.164   6.295  0.1406  1.1512 -0.4760
  374MOL0     C50395   3.810   2.072   6.372  0.8736  0.7207  0.3613
  374MOL0     C50396   3.949   2.115   6.411 -1.1667 -0.5433 -0.5197
  374MOL0     C50397   4.029   2.006   6.481  0.5500  0.6987 -0.2004
  374MOL0     C50398   4.169   2.053   6.521 -0.5581 -0.4208  0.1516
  374MOL0    Cl50399   4.260   1.943   6.630  0.0719 -0.0045 -0.1135
  374MOL0     C50400   3.091   2.013   6.088 -0.0593  0.6341 -0.2833
  374MOL0     C50401   2.975   1.982   6.025 -0.4789  0.5366  0.3401
  374MOL0     O50402   2.682   2.216   5.911  0.5113  0.4230  0.0700
  374MOL0     C50403   2.432   2.154   5.841 -0.1250 -0.0707  0.1990
  374MOL0     C50404   2.307   2.115   5.799  0.4941 -0.7181 -0.0293
  374MOL0     N50405   1.684   2.262   5.858 -0.0314 -0.5952  0.1731
  374MOL0     N50406   1.622   2.344   5.795 -0.2633 -0.2374  0.2802
  374MOL0     C50407   0.569   2.648   6.131 -0.8174 -1.1675  0.7356
  374MOL0     C50408   0.483   2.664   6.232  0.6245  0.3466  0.8512
  374MOL0     C50409   0.045   2.685   6.435  0.0610 -0.4188  0.0739
  374MOL0     C50410   0.062   2.578   6.513 -0.2083 -0.1994 -0.0257
  374MOL0     C50411  -0.028   2.543   6.613 -0.7275 -0.5839 -0.3369
  374MOL0     C50412  -0.140   2.625   6.639  0.0466  0.5253 -0.4291
  374MOL0     O50413  -0.229   2.581   6.731  0.0807  0.4368 -0.6406
  374MOL0     C50414  -0.361   2.574   6.676  0.0857  0.2240 -0.3241
  374MOL0     C50415  -0.462   2.498   6.770  0.0091  0.4653  0.2059
  374MOL0     C50416  -0.500   2.588   6.891  0.3387 -0.4284 -0.7502
  374MOL0     C50417  -0.592   2.507   6.983  0.5363 -0.8655 -0.4375
  374MOL0     C50418  -0.646   2.593   7.094 -0.1779  0.4333 -0.5249
  374MOL0     C50419  -0.694   2.677   7.176  0.1030  0.8347  0.0353
  374MOL0     C50420  -0.154   2.741   6.572  0.1609 -0.5924 -0.2948
  374MOL0     C50421  -0.065   2.779   6.471  0.5416  0.7183  0.3706
  374MOL0     C50422  -0.106   2.916   6.410 -0.2255 -0.6969  0.7045
  374MOL0     H50423   0.189   2.569   6.085 -0.2558  0.7214  0.4999
  374MOL0     H50424   0.347   2.542   5.897  1.4219 -1.1175  0.1684
  374MOL0     H50425   0.521   2.452   5.808  1.9346  1.0959  2.2448
  374MOL0     H50426   0.491   2.612   5.727 -0.8758  0.6491  0.2075
  374MOL0     H50427   0.731   2.638   5.692 -1.1073  0.9763  0.9469
  374MOL0     H50428   0.649   2.507   5.592 -1.2575 -2.7790  1.2358
  374MOL0     H50429   0.759   2.336   5.750 -0.0821 -0.4557  3.2813
  374MOL0     H50430   0.808   2.463   5.864 -1.6974  0.8404  1.0877
  374MOL0     H50431   0.939   2.423   5.574  3.6215 -0.1071  0.6753
  374MOL0     H50432   0.954   2.562   5.674 -2.1095  0.8127  1.7747
  374MOL0     H50433   1.043   2.406   5.854 -1.6748 -0.3425  1.0819
  374MOL0     H50434   1.020   2.278   5.728 -1.1494  0.8101 -0.5722
  374MOL0     H50435   1.168   2.397   5.581  0.6924 -2.1406  0.8993
  374MOL0     H50436   1.183   2.535   5.691 -2.2678  0.3801  0.5267
  374MOL0     H50437   1.263   2.257   5.782 -1.7536 -0.1019  0.7543
  374MOL0     H50438   1.304   2.420   5.849 -1.1251 -0.5356 -0.9115
  374MOL0     H50439   1.384   2.333   5.575  0.4428 -0.6440  0.2738
  374MOL0     H50440   1.455   2.472   5.664 -0.9808  0.8838  0.3395
  374MOL0     H50441   1.443   2.083   5.724 -1.0549  2.7911 -2.7620
  374MOL0     H50442   1.651   1.973   5.994  0.0528  0.6864  0.3820
  374MOL0     H50443   1.647   1.923   5.828  2.8332 -1.2492 -0.9246
  374MOL0     H50444   1.875   2.105   5.925 -0.7991  1.0659 -0.9225
  374MOL0     H50445   1.872   1.939   5.972 -3.6564 -2.1657 -0.2588
  374MOL0     H50446   1.836   1.974   5.669  0.7450 -0.6386 -1.2464
  374MOL0     H50447   1.897   1.846   5.770 -1.2206  0.0302 -0.5759
  374MOL0     H50448   2.028   2.126   5.753 -0.7496  0.0811 -0.1981
  374MOL0     H50449   2.067   2.001   5.636 -1.1585 -0.7003  0.4238
  374MOL0     H50450   2.306   1.809   5.957  1.2376 -1.0505 -1.3794
  374MOL0     H50451   2.539   1.856   5.981 -0.4539 -0.6349  0.1869
  374MOL0     H50452   2.782   2.229   6.142  0.3455  1.9805 -1.1840
  374MOL0     H50453   2.999   2.297   6.250 -2.3356  0.5562  1.8521
  374MOL0     H50454   3.333   1.979   6.234 -2.8998  0.2353 -1.6607
  374MOL0     H50455   3.358   2.095   6.105  0.8095  1.9398 -0.1457
  374MOL0     H50456   3.442   2.248   6.314  1.1421  0.5378 -0.2119
  374MOL0     H50457   3.436   2.099   6.407 -1.6584 -1.3798 -1.0452
  374MOL0     H50458   3.598   1.994   6.221 -1.3551  0.6441 -1.9357
  374MOL0     H50459   3.582   2.147   6.143 -0.0676 -1.1682 -1.2232
  374MOL0     H50460   3.699   2.246   6.364 -1.8213  0.1484  0.1701
  374MOL0     H50461   3.770   2.196   6.203  0.3671 -1.8422 -1.4908
  374MOL0     H50462   3.814   1.978   6.317 -1.1669  1.6968 -1.6351
  374MOL0     H50463   3.757   2.034   6.460  1.6785  0.2583  0.6479
  374MOL0     H50464   4.004   2.145   6.321 -0.2101 -0.9678 -0.0989
  374MOL0     H50465   3.945   2.198   6.482  0.4129 -0.0971 -0.9114
  374MOL0     H50466   4.029   1.916   6.419  1.1141  2.7821 -3.4465
  374MOL0     H50467   3.972   1.990   6.573  1.7087  0.3801  0.4777
  374MOL0     H50468   4.219   2.062   6.424  0.3118  0.8349  0.6983
  374MOL0     H50469   4.163   2.150   6.572 -0.4032 -0.8442  0.9956
  374MOL0     H50470   3.180   1.953   6.074 -0.4553 -0.0925  0.2897
  374MOL0     H50471   2.966   1.896   5.959 -0.6790 -0.0275  1.0846
  374MOL0     H50472   2.465   2.253   5.811  0.9712 -1.3794 -3.4267
  374MOL0     H50473   2.238   2.189   5.763  0.4513 -0.0596  1.3359
  374MOL0     H50474   0.674   2.658   6.155 -1.0526 -2.8453  2.7820
  374MOL0     H50475   0.512   2.684   6.334 -2.8387  0.7450  1.8803
  374MOL0     H50476   0.156   2.527   6.491 -1.0865 -1.2794 -1.5386
  374MOL0     H50477  -0.018   2.457   6.679  0.2422 -0.6581 -0.5673
  374MOL0     H50478  -0.358   2.515   6.583 -1.7430  2.9017 -2.2572
  374MOL0     H50479  -0.398   2.674   6.650  1.7582  0.9720  0.0546
  374MOL0     H50480  -0.403   2.412   6.804 -0.7772 -0.0883  0.2082
  374MOL0     H50481  -0.550   2.466   6.714  1.0439  0.5684 -1.5398
  374MOL0     H50482  -0.562   2.671   6.855 -0.3452 -0.7524 -0.3564
  374MOL0     H50483  -0.414   2.629   6.944  0.1954 -0.2064 -0.6840
  374MOL0     H50484  -0.678   2.475   6.924 -2.1093 -0.6033  2.9832
  374MOL0     H50485  -0.547   2.417   7.025 -2.7675 -1.9161  1.1682
  374MOL0     H50486  -0.750   2.742   7.240 -1.8901 -0.9136  0.1817
  374MOL0     H50487  -0.232   2.813   6.595  2.6092  2.0078  0.3530
  374MOL0     H50488  -0.087   2.998   6.480 -0.2147 -1.0014  1.0577
  374MOL0     H50489  -0.055   2.927   6.314 -1.2248  0.2901  0.2621
  374MOL0     H50490  -0.211   2.912   6.380 -0.1181 -0.1956  0.2264
  375MOL0     O50491   5.940   5.093   0.245  0.6477 -0.1331  0.1857
  375MOL0     C50492   5.917   4.998   0.174 -0.2647 -0.1126  1.1134
  375MOL0     O50493   5.996   4.890   0.177 -0.3774  0.0333  0.0482
  375MOL0     C50494   6.102   4.872   0.274  0.0479  0.0803 -0.3554
  375MOL0     C50495   6.219   4.827   0.219  1.0398  0.1161  0.3231
  375MOL0     C50496   6.341   4.807   0.287  0.2407  0.4617  0.1237
  375MOL0     C50497   6.342   4.841   0.425 -0.6004 -0.5679  0.3128
  375MOL0     O50498   6.458   4.804   0.488 -0.3356  0.8906  0.1134
  375MOL0     C50499   6.479   4.837   0.620 -0.1334  0.5881 -0.2314
  375MOL0     C50500   6.620   4.783   0.663 -0.4623 -0.4171 -0.2951
  375MOL0     C50501   6.630   4.797   0.821 -0.3379 -0.1794 -0.0036
  375MOL0     C50502   6.782   4.800   0.860  0.5551  1.2992 -0.0972
  375MOL0     C50503   6.805   4.857   1.001 -0.3967 -0.3971 -0.2010
  375MOL0     C50504   6.949   4.880   1.046  0.9300  0.2808  1.0822
  375MOL0     C50505   6.961   4.907   1.198  0.0733 -0.0678  0.9659
  375MOL0     C50506   7.076   4.830   1.259 -0.1102  0.1670  0.8381
  375MOL0     N50507   7.207   4.882   1.221 -0.0699 -0.1566  0.4282
  375MOL0     C50508   7.254   5.011   1.243 -0.2901  0.2361 -0.2687
  375MOL0     C50509   7.390   5.011   1.206 -0.5221 -0.5893 -0.1932
  375MOL0     C50510   7.487   5.121   1.204 -0.3171  0.2016  0.5095
  375MOL0     C50511   7.604   5.112   1.104 -0.9816  0.0873 -0.2206
  375MOL0     C50512   7.719   5.023   1.162 -0.1741  0.8536  0.1487
  375MOL0     C50513   7.836   5.019   1.065  0.7774  0.3182 -0.0538
  375MOL0     O50514   7.940   4.945   1.119  0.0138  0.3193 -0.2784
  375MOL0     C50515   8.055   4.927   1.043 -0.0971 -1.2282  0.3164
  375MOL0     C50516   8.116   5.031   0.972  0.5345 -0.1168  0.7368
  375MOL0     C50517   8.227   5.011   0.892  0.1553 -0.3468  0.3589
  375MOL0     C50518   8.293   4.887   0.892  0.2668  0.2859 -0.4335
  375MOL0     C50519   8.409   4.861   0.797  1.0120 -0.8854  0.6113
  375MOL0     O50520   8.435   4.732   0.758  0.3761 -0.6860 -0.3960
  375MOL0     C50521   8.544   4.714   0.681  0.9537 -0.3166  0.2778
  375MOL0     C50522   8.534   4.704   0.536 -0.1365 -0.0331  0.2780
  375MOL0     C50523   8.648   4.690   0.461  0.6894 -0.1790  0.6112
  375MOL0     C50524   8.775   4.667   0.530  0.1861 -0.3275  0.2795
  375MOL0     O50525   8.898   4.655   0.461  0.3592  0.7113 -0.0380
  375MOL0     C50526   8.905   4.615   0.322  0.2328  0.4353 -1.2037
  375MOL0     C50527   9.047   4.562   0.309 -0.0431 -0.2704 -0.1123
  375MOL0     C50528   9.048   4.467   0.186 -0.0813 -0.3358 -0.4676
  375MOL0     C50529   9.191   4.487   0.123  0.4375 -0.6712 -0.1190
  375MOL0     C50530   9.295   4.399   0.184  0.1998  0.1237 -0.3346
  375MOL0     C50531   9.438   4.446   0.178  0.0665 -0.4342  0.2409
  375MOL0     C50532   9.481   4.442   0.033  0.4619 -0.0987  0.5836
  375MOL0     C50533   9.607   4.534   0.009  1.1553  0.2351  0.4280
  375MOL0    Cl50534   9.567   4.698   0.054  0.0051 -0.1140 -0.1331
  375MOL0     C50535   8.783   4.676   0.669 -0.4040 -0.6720  1.2729
  375MOL0     C50536   8.670   4.703   0.748 -0.3064  0.8692  0.7121
  375MOL0     O50537   8.464   4.965   0.751 -0.4745 -0.6659 -0.3017
  375MOL0     C50538   8.240   4.783   0.973 -0.1859 -0.0395  0.1282
  375MOL0     C50539   8.119   4.801   1.045 -0.7740 -0.8076  0.4365
  375MOL0     N50540   7.427   4.883   1.170 -0.1566  0.0937 -0.5323
  375MOL0     N50541   7.322   4.807   1.183 -0.0569 -0.1541  0.3884
  375MOL0     C50542   6.227   4.888   0.489  0.3137  0.5950  0.0140
  375MOL0     C50543   6.108   4.904   0.412  0.6619  0.2282  0.2661
  375MOL0     C50544   5.802   5.004   0.068  0.2203 -0.0066  0.9462
  375MOL0     C50545   5.809   4.908  -0.038  0.6844  0.7925 -0.5657
  375MOL0     C50546   5.723   4.912  -0.141  0.1587 -0.1326 -0.6388
  375MOL0     C50547   5.617   5.004  -0.151 -0.1731 -0.0527  0.1057
  375MOL0     O50548   5.536   4.976  -0.259 -0.3182  0.0800 -0.4025
  375MOL0     C50549   5.413   5.038  -0.274  0.1705  0.8545 -0.5965
  375MOL0     C50550   5.308   4.981  -0.179  1.0441  0.0794  0.3042
  375MOL0     C50551   5.288   4.839  -0.153  0.6578  1.4778 -0.1827
  375MOL0     C50552   5.281   4.754  -0.278 -0.4443 -0.3609  0.3743
  375MOL0     C50553   5.148   4.776  -0.343 -0.6847  0.1019 -0.2324
  375MOL0     C50554   5.042   4.795  -0.404 -0.4944 -0.9697  0.1440
  375MOL0     C50555   5.605   5.093  -0.051 -0.0485 -0.5964  0.3996
  375MOL0     C50556   5.700   5.102   0.052 -0.7124  0.5676  0.8267
  375MOL0     C50557   5.687   5.217   0.153  0.3644 -0.1007 -0.1518
  375MOL0     H50558   6.211   4.806   0.113 -5.1876  1.8498  0.0227
  375MOL0     H50559   6.422   4.757   0.236 -0.7001 -0.4006 -0.5628
  375MOL0     H50560   6.480   4.945   0.632 -2.3114  1.0172 -2.8748
  375MOL0     H50561   6.401   4.798   0.686 -0.8807  1.5221 -0.5377
  375MOL0     H50562   6.700   4.839   0.613 -2.4398  3.9058  0.9282
  375MOL0     H50563   6.625   4.676   0.639  0.9358 -0.1265 -1.4423
  375MOL0     H50564   6.559   4.725   0.864 -0.4599 -1.1275 -1.7012
  375MOL0     H50565   6.599   4.896   0.855 -0.9769 -0.9182  1.6584
  375MOL0     H50566   6.832   4.704   0.842  1.5435  1.8644 -0.4478
  375MOL0     H50567   6.824   4.865   0.783  0.1118 -0.3138 -1.7563
  375MOL0     H50568   6.757   4.956   1.002  2.6076  1.3598 -3.8850
  375MOL0     H50569   6.758   4.798   1.080  0.0530 -0.0197  0.3595
  375MOL0     H50570   6.993   4.785   1.016 -0.5611  0.2392 -1.1608
  375MOL0     H50571   6.993   4.957   0.982  0.3071 -1.3140 -1.3808
  375MOL0     H50572   6.873   4.873   1.252 -0.8376  0.4881 -0.1280
  375MOL0     H50573   6.971   5.016   1.204 -2.2765  1.1482 -6.3182
  375MOL0     H50574   7.063   4.832   1.368 -2.0447  1.0608  0.6331
  375MOL0     H50575   7.072   4.727   1.223  0.5099  0.3474  0.2292
  375MOL0     H50576   7.196   5.095   1.281  1.1874  1.6220 -0.9137
  375MOL0     H50577   7.424   5.200   1.164 -0.1963  0.1963  0.3049
  375MOL0     H50578   7.506   5.151   1.307 -0.7876 -2.2127  1.3825
  375MOL0     H50579   7.570   5.065   1.011 -0.9287 -1.1126  0.3504
  375MOL0     H50580   7.638   5.214   1.086 -0.2573  0.0968  1.1094
  375MOL0     H50581   7.688   4.919   1.174 -0.2201  0.8390 -0.0965
  375MOL0     H50582   7.742   5.053   1.265 -0.6344 -0.9729  0.8265
  375MOL0     H50583   7.870   5.123   1.054  2.3697 -0.1950 -0.1460
  375MOL0     H50584   7.807   4.970   0.972 -1.5718 -1.6521  1.5805
  375MOL0     H50585   8.077   5.133   0.966 -1.5495 -0.9009 -4.5064
  375MOL0     H50586   8.260   5.091   0.827  1.1003 -1.3004 -0.3661
  375MOL0     H50587   8.432   4.719   0.501 -0.3139  1.0713  1.1965
  375MOL0     H50588   8.635   4.695   0.353  1.9536  4.3299  0.4822
  375MOL0     H50589   8.840   4.532   0.294 -0.9544  0.4621  1.1861
  375MOL0     H50590   8.889   4.709   0.268  0.6246  2.0229  1.2652
  375MOL0     H50591   9.115   4.648   0.303  1.0631 -1.0799  0.4203
  375MOL0     H50592   9.093   4.518   0.398  0.9731  1.2403  0.1452
  375MOL0     H50593   9.025   4.370   0.233  1.0802  0.3504  1.6601
  375MOL0     H50594   8.965   4.480   0.116 -0.0422  2.2249 -0.1162
  375MOL0     H50595   9.212   4.594   0.135  1.5167 -0.9387  0.5857
  375MOL0     H50596   9.182   4.463   0.017  2.3989 -0.8358 -0.2915
  375MOL0     H50597   9.274   4.296   0.154 -3.3163  0.6304 -0.0836
  375MOL0     H50598   9.272   4.400   0.291  1.1974 -0.0929 -0.1116
  375MOL0     H50599   9.448   4.545   0.224  1.0787 -0.3987 -0.0358
  375MOL0     H50600   9.505   4.382   0.237  0.5314  0.3665  0.5926
  375MOL0     H50601   9.395   4.462  -0.033  1.0652  3.9482  0.7935
  375MOL0     H50602   9.501   4.336   0.013  0.9963  0.1706 -0.3673
  375MOL0     H50603   9.696   4.496   0.060  0.3698 -2.7084 -0.2413
  375MOL0     H50604   9.629   4.532  -0.098  0.5375  0.7706  0.2837
  375MOL0     H50605   8.885   4.667   0.706  2.7713  3.5522 -4.7185
  375MOL0     H50606   8.663   4.705   0.856 -1.0943  0.2617  0.6833
  375MOL0     H50607   8.294   4.689   0.965 -0.8044 -0.5864  1.9919
  375MOL0     H50608   8.071   4.728   1.109  0.0008  0.4527  2.5558
  375MOL0     H50609   6.214   4.896   0.596 -2.8077  0.7001 -0.2700
  375MOL0     H50610   6.018   4.944   0.458  1.4015 -0.2490  2.2129
  375MOL0     H50611   5.891   4.836  -0.047  0.1466  0.0915  0.0513
  375MOL0     H50612   5.740   4.846  -0.225 -1.5854  1.2074 -2.1255
  375MOL0     H50613   5.376   5.036  -0.377  0.5190  0.7170 -0.7230
  375MOL0     H50614   5.415   5.144  -0.247 -0.7398  0.4271  1.2884
  375MOL0     H50615   5.206   5.008  -0.207  0.0504 -2.7366  0.9256
  375MOL0     H50616   5.323   5.034  -0.085  1.4347  2.1346 -0.8354
  375MOL0     H50617   5.195   4.830  -0.097  0.7304  3.4217  0.2967
  375MOL0     H50618   5.371   4.808  -0.089  1.9783  3.5901 -0.7511
  375MOL0     H50619   5.359   4.781  -0.349 -1.7720 -0.7816 -1.3331
  375MOL0     H50620   5.284   4.651  -0.243 -0.6028  0.1268  1.8862
  375MOL0     H50621   4.959   4.822  -0.466  0.0278  0.2800 -0.0436
  375MOL0     H50622   5.534   5.175  -0.051 -0.1892 -0.6428 -2.3337
  375MOL0     H50623   5.647   5.183   0.248  0.9456  0.8605  0.4578
  375MOL0     H50624   5.788   5.255   0.174  0.1106  2.1056 -2.3757
  375MOL0     H50625   5.630   5.306   0.123 -3.2758 -2.8270 -2.0714
  376MOL0     O50626   1.603   1.618   9.412 -0.0973  0.2101 -0.0769
  376MOL0     C50627   1.587   1.505   9.454  0.0861  0.5467  0.6352
  376MOL0     O50628   1.642   1.389   9.390 -0.0087 -0.3072  0.3384
  376MOL0     C50629   1.707   1.387   9.267 -0.1146 -0.5689 -0.7513
  376MOL0     C50630   1.762   1.498   9.200  0.7431 -0.5797  0.8944
  376MOL0     C50631   1.818   1.474   9.068  0.8239 -0.8959  0.2745
  376MOL0     C50632   1.836   1.349   9.014 -0.0289  0.1601  0.2437
  376MOL0     O50633   1.867   1.337   8.877 -0.2829  0.2693 -0.1260
  376MOL0     C50634   1.905   1.205   8.821  0.2920 -0.3900  0.0811
  376MOL0     C50635   2.000   1.217   8.693 -0.2306 -0.0467 -0.2787
  376MOL0     C50636   2.060   1.077   8.664  0.3973  0.0822  0.0318
  376MOL0     C50637   2.193   1.059   8.736 -0.7755 -0.9630  0.3372
  376MOL0     C50638   2.260   0.929   8.688 -0.2205  0.3979 -0.2659
  376MOL0     C50639   2.411   0.937   8.677  0.7790  0.3337  0.2576
  376MOL0     C50640   2.477   0.817   8.628 -0.7801 -0.1367 -0.4902
  376MOL0     C50641   2.493   0.706   8.733  0.0743 -0.8242 -0.3098
  376MOL0     N50642   2.568   0.591   8.676  0.3668  0.2015 -0.3164
  376MOL0     C50643   2.702   0.573   8.670 -0.6735  0.4009  0.7904
  376MOL0     C50644   2.715   0.440   8.637 -0.2839 -0.9053  0.0852
  376MOL0     C50645   2.840   0.354   8.620  0.6816 -0.4592  0.2193
  376MOL0     C50646   2.950   0.407   8.713  0.7194 -0.1383  0.2922
  376MOL0     C50647   3.073   0.316   8.711  0.1155 -0.6703  0.4659
  376MOL0     C50648   3.196   0.389   8.780 -0.1124 -0.3868  0.3966
  376MOL0     O50649   3.318   0.331   8.720  0.3235 -0.4436 -0.1251
  376MOL0     C50650   3.440   0.386   8.756  0.6114  1.1362 -0.5837
  376MOL0     C50651   3.542   0.352   8.679 -0.3866  0.5838  0.5991
  376MOL0     C50652   3.674   0.405   8.696  0.6820 -0.4844 -0.2541
  376MOL0     C50653   3.700   0.493   8.795  0.6693  0.0162 -0.2664
  376MOL0     C50654   3.834   0.551   8.826 -0.8169  0.6789  0.8379
  376MOL0     O50655   3.933   0.543   8.734 -0.6468 -0.0944 -0.2509
  376MOL0     C50656   4.054   0.585   8.766 -0.6681 -1.4630 -0.8386
  376MOL0     C50657   4.164   0.496   8.753  0.2185 -0.3880  0.2832
  376MOL0     C50658   4.297   0.531   8.781  0.1269  0.7933  0.2194
  376MOL0     C50659   4.327   0.661   8.814  0.3829 -0.6493 -0.5616
  376MOL0     O50660   4.451   0.711   8.827  0.2676  0.1277  0.3149
  376MOL0     C50661   4.544   0.629   8.903 -0.1731  0.1357  0.1968
  376MOL0     C50662   4.683   0.715   8.929 -0.1860 -0.5121  0.3144
  376MOL0     C50663   4.800   0.631   8.988 -0.4044 -0.1056 -0.3803
  376MOL0     C50664   4.932   0.698   8.966 -0.2034  0.2811 -0.0811
  376MOL0     C50665   5.054   0.602   8.989  0.5190  0.6942 -0.5308
  376MOL0     C50666   5.068   0.494   8.874 -0.5863  0.3303 -1.2859
  376MOL0     C50667   5.199   0.447   8.847 -0.1690  0.2433  0.6194
  376MOL0     C50668   5.289   0.554   8.787  0.2914 -0.4333 -0.2066
  376MOL0    Cl50669   5.432   0.474   8.728  0.4360 -0.2410 -0.2089
  376MOL0     C50670   4.221   0.756   8.832 -0.2773 -0.1579  0.3474
  376MOL0     C50671   4.088   0.719   8.810 -0.3535  0.0538  0.0475
  376MOL0     O50672   3.847   0.608   8.931  0.2302  0.5733 -1.1249
  376MOL0     C50673   3.591   0.527   8.884  1.0417 -0.2409 -0.2080
  376MOL0     C50674   3.469   0.459   8.872  0.2482 -1.0265  0.3950
  376MOL0     N50675   2.586   0.390   8.629  0.7356 -0.5381 -0.0460
  376MOL0     N50676   2.495   0.485   8.637 -0.4051  0.1114  0.1219
  376MOL0     C50677   1.801   1.241   9.094  0.8051  0.6134  0.5055
  376MOL0     C50678   1.740   1.264   9.221 -0.1694  0.2033  0.0948
  376MOL0     C50679   1.527   1.483   9.584 -0.1153 -0.5115  0.4953
  376MOL0     C50680   1.540   1.356   9.641 -0.0973  0.3460 -0.6270
  376MOL0     C50681   1.471   1.318   9.756 -0.5347 -0.2385 -0.6486
  376MOL0     C50682   1.384   1.409   9.815  0.4251  0.5773 -0.7174
  376MOL0     O50683   1.310   1.356   9.927  0.4141 -0.3162  0.9775
  376MOL0     C50684   1.187   1.431   9.963  0.4885 -0.5933 -0.3968
  376MOL0     C50685   1.087   1.346  10.051 -0.8252 -0.3326  0.5743
  376MOL0     C50686   1.001   1.435  10.148  0.4832 -0.5240  0.0706
  376MOL0     C50687   0.857   1.380  10.171 -0.2925  0.4417 -0.5237
  376MOL0     C50688   0.766   1.400  10.066 -0.0171  0.4960  0.1844
  376MOL0     C50689   0.700   1.403   9.959  0.1393  0.4849  0.1203
  376MOL0     C50690   1.387   1.542   9.775  0.1395  0.4609 -0.2731
  376MOL0     C50691   1.449   1.578   9.653 -1.1856  0.3626 -0.7610
  376MOL0     C50692   1.419   1.715   9.613  0.0046  0.5653  0.4937
  376MOL0     H50693   1.762   1.600   9.238 -1.3743 -0.5941  1.0658
  376MOL0     H50694   1.845   1.565   9.017 -0.5374 -0.3419  0.4964
  376MOL0     H50695   1.964   1.155   8.897  0.7764  1.2391  0.8193
  376MOL0     H50696   1.814   1.149   8.795 -1.2793  0.7644  2.6873
  376MOL0     H50697   2.071   1.299   8.711 -0.5635  0.2968 -0.5187
  376MOL0     H50698   1.944   1.248   8.604 -1.0211 -2.3337 -0.6372
  376MOL0     H50699   2.074   1.082   8.556  0.7675  1.2158  0.1260
  376MOL0     H50700   2.000   0.989   8.690 -0.3062 -0.9962 -4.3438
  376MOL0     H50701   2.256   1.141   8.700 -2.0965 -0.9938 -2.3209
  376MOL0     H50702   2.176   1.066   8.844 -3.0812 -1.2571  0.0451
  376MOL0     H50703   2.238   0.850   8.760  3.8707 -0.2992  0.4968
  376MOL0     H50704   2.216   0.904   8.591  0.1536 -0.9088 -0.1323
  376MOL0     H50705   2.443   1.014   8.606  0.3505 -0.6004 -0.9862
  376MOL0     H50706   2.445   0.969   8.776  1.0795  1.8343 -0.3129
  376MOL0     H50707   2.578   0.855   8.609 -0.7193  0.1956  0.4382
  376MOL0     H50708   2.443   0.775   8.533 -0.6112 -1.4701  0.0190
  376MOL0     H50709   2.540   0.748   8.822  0.2000 -0.3320 -0.6087
  376MOL0     H50710   2.396   0.670   8.767  0.6260 -0.3888  1.8982
  376MOL0     H50711   2.786   0.640   8.686  0.9762 -1.5466  0.6487
  376MOL0     H50712   2.820   0.251   8.651  1.0494 -1.0103 -1.3014
  376MOL0     H50713   2.870   0.343   8.516 -0.7035 -2.2502 -0.0356
  376MOL0     H50714   2.980   0.511   8.699  0.3437  0.2627  2.2105
  376MOL0     H50715   2.913   0.395   8.815  1.8506 -0.0845  0.7313
  376MOL0     H50716   3.087   0.279   8.609 -1.5331  0.0089 -0.0282
  376MOL0     H50717   3.043   0.228   8.769 -1.4173 -0.2420  0.3599
  376MOL0     H50718   3.191   0.363   8.886  2.2378  1.8950  1.1466
  376MOL0     H50719   3.185   0.497   8.769  2.7340  0.0374  0.9650
  376MOL0     H50720   3.526   0.297   8.587 -4.1433  2.4392 -0.0454
  376MOL0     H50721   3.752   0.376   8.626 -2.1105 -1.8576 -3.0179
  376MOL0     H50722   4.135   0.394   8.728  1.7586 -1.4228  2.3225
  376MOL0     H50723   4.370   0.451   8.770  1.0443  1.1038  3.0763
  376MOL0     H50724   4.494   0.609   8.997 -0.8630  0.2140 -0.1477
  376MOL0     H50725   4.562   0.541   8.841 -0.0808  1.0620 -1.1424
  376MOL0     H50726   4.709   0.760   8.833  1.6476 -0.7085  0.6901
  376MOL0     H50727   4.660   0.791   9.004  1.8965 -0.1239  0.6115
  376MOL0     H50728   4.791   0.608   9.095 -0.2101 -1.1632 -0.5714
  376MOL0     H50729   4.806   0.530   8.945  4.0297 -0.4093  0.4675
  376MOL0     H50730   4.938   0.786   9.030  0.2599  0.7956 -0.8203
  376MOL0     H50731   4.947   0.738   8.865  2.0014 -1.5775 -0.5913
  376MOL0     H50732   5.038   0.545   9.081  0.3321  1.2486 -0.2175
  376MOL0     H50733   5.143   0.664   9.001 -0.3364  2.2443 -1.8857
  376MOL0     H50734   5.016   0.406   8.911  0.2959  0.6161  0.7564
  376MOL0     H50735   5.020   0.532   8.783 -2.3371  1.4872  0.0511
  376MOL0     H50736   5.183   0.373   8.768  0.0727  0.5440  0.2886
  376MOL0     H50737   5.243   0.389   8.929  0.4147 -0.4856 -0.1833
  376MOL0     H50738   5.232   0.601   8.707 -1.9697  1.0936  2.1509
  376MOL0     H50739   5.313   0.621   8.870  1.6901  2.0419 -2.4467
  376MOL0     H50740   4.252   0.855   8.862 -1.8341 -0.3390  2.8745
  376MOL0     H50741   4.023   0.805   8.820  3.4459  3.1715  0.1705
  376MOL0     H50742   3.610   0.588   8.972 -2.2010  2.4571 -1.1946
  376MOL0     H50743   3.390   0.493   8.938  1.0002  2.9743 -0.4671
  376MOL0     H50744   1.834   1.144   9.056  3.0037  1.5500 -0.1174
  376MOL0     H50745   1.695   1.178   9.270 -0.1830  0.6938  0.9547
  376MOL0     H50746   1.587   1.276   9.585 -3.5588 -1.8852 -0.6507
  376MOL0     H50747   1.468   1.216   9.793 -1.4339  0.9312  2.9289
  376MOL0     H50748   1.135   1.477   9.878  0.8447  2.0531  0.7271
  376MOL0     H50749   1.209   1.516  10.028  0.3577  1.5373 -2.9790
  376MOL0     H50750   1.144   1.276  10.112  1.3661  1.5982  0.8579
  376MOL0     H50751   1.022   1.281   9.991 -2.1237 -1.7323  3.2906
  376MOL0     H50752   0.998   1.536  10.107  1.6268 -0.4383  0.1846
  376MOL0     H50753   1.043   1.446  10.248 -2.4175 -1.4728  1.5332
  376MOL0     H50754   0.866   1.271  10.177  0.3459  0.5069 -0.1810
  376MOL0     H50755   0.817   1.422  10.263 -1.2745 -0.2575 -0.6112
  376MOL0     H50756   0.651   1.409   9.864 -0.0330  4.7569  0.2650
  376MOL0     H50757   1.322   1.611   9.828 -1.1294 -1.1203  0.2852
  376MOL0     H50758   1.333   1.763   9.661 -0.2716  0.1963  0.3681
  376MOL0     H50759   1.508   1.774   9.634  0.2475 -0.7728  3.8252
  376MOL0     H50760   1.396   1.705   9.506 -1.9687 -0.4197  0.9552
  377MOL0     O50761  10.852   4.870   6.162 -0.1259 -0.5748  0.0649
  377MOL0     C50762  10.749   4.914   6.108 -0.0529  0.1205 -0.0561
  377MOL0     O50763  10.753   5.036   6.036 -0.5388 -0.1045  0.6541
  377MOL0     C50764  10.642   5.115   6.017  0.7781 -0.0141  0.0688
  377MOL0     C50765  10.608   5.157   5.885  0.3155 -0.1147 -1.0351
  377MOL0     C50766  10.492   5.237   5.876 -0.4756  1.0007 -0.1290
  377MOL0     C50767  10.418   5.293   5.983 -0.0203 -0.3676  0.3670
  377MOL0     O50768  10.320   5.382   5.974  0.5595 -0.3269  0.5346
  377MOL0     C50769  10.245   5.394   5.850 -0.3096  0.3284 -0.0435
  377MOL0     C50770  10.106   5.448   5.882  0.2598 -0.5631 -0.0489
  377MOL0     C50771  10.018   5.344   5.942 -0.6281  0.8816 -0.1147
  377MOL0     C50772   9.874   5.392   5.958 -0.6862 -0.7113 -0.0081
  377MOL0     C50773   9.780   5.319   6.062 -0.3125 -0.0948  0.9722
  377MOL0     C50774   9.634   5.360   6.044  0.1191 -0.2975 -0.3556
  377MOL0     C50775   9.526   5.273   6.108  0.2279  0.4170 -0.0803
  377MOL0     C50776   9.526   5.139   6.050  0.0897 -0.2875  0.6717
  377MOL0     N50777   9.456   5.041   6.129 -0.4434 -0.0469  0.3552
  377MOL0     C50778   9.322   5.036   6.160 -0.6623 -0.5971  0.0606
  377MOL0     C50779   9.320   4.928   6.245  0.0043 -0.3201  0.0247
  377MOL0     C50780   9.198   4.902   6.328  0.3476  0.1521  0.8862
  377MOL0     C50781   9.115   4.785   6.265  0.0663  0.4285 -0.4162
  377MOL0     C50782   8.966   4.811   6.259  0.7838 -0.8737 -0.1041
  377MOL0     C50783   8.898   4.724   6.149  0.1836  0.7136  0.3302
  377MOL0     O50784   8.759   4.758   6.130  0.1267  0.0084 -0.3767
  377MOL0     C50785   8.664   4.729   6.231  0.4875  0.7208  0.0521
  377MOL0     C50786   8.693   4.674   6.356 -0.1181  0.6108  0.1086
  377MOL0     C50787   8.594   4.669   6.455 -0.1516 -0.4348 -0.2539
  377MOL0     C50788   8.466   4.724   6.434  0.8364 -1.1390  0.5396
  377MOL0     C50789   8.361   4.739   6.537  0.5210 -0.3766 -0.2411
  377MOL0     O50790   8.252   4.816   6.507 -0.3827 -0.1009 -0.1840
  377MOL0     C50791   8.184   4.889   6.607 -0.1737 -0.4866 -0.2209
  377MOL0     C50792   8.045   4.876   6.619  0.0793 -0.1806 -0.1630
  377MOL0     C50793   7.977   4.944   6.726 -0.8362 -0.2255 -0.6284
  377MOL0     C50794   8.046   5.022   6.821 -0.7521 -0.7069 -0.3692
  377MOL0     O50795   7.984   5.096   6.914 -0.3441 -0.2774 -1.2505
  377MOL0     C50796   7.844   5.083   6.935  1.4294  0.0840  0.4628
  377MOL0     C50797   7.794   5.191   7.032 -0.1892 -0.4290  0.2195
  377MOL0     C50798   7.837   5.332   6.985 -0.2225 -0.0744  0.5804
  377MOL0     C50799   7.806   5.429   7.096  0.3669 -0.6479  0.3902
  377MOL0     C50800   7.842   5.570   7.058 -0.8918  0.3407 -0.2343
  377MOL0     C50801   7.804   5.670   7.165  0.2874  0.4098  0.8426
  377MOL0     C50802   7.895   5.790   7.162 -0.4079 -0.5045  0.1327
  377MOL0     C50803   7.855   5.892   7.273 -0.2090 -0.4404 -0.1440
  377MOL0    Cl50804   7.916   6.050   7.233  0.0248  0.1141  0.4915
  377MOL0     C50805   8.182   5.027   6.813  0.2581  0.7580 -0.1877
  377MOL0     C50806   8.247   4.951   6.714  0.7610 -0.1905 -0.8379
  377MOL0     O50807   8.397   4.707   6.656  0.4034 -0.0952 -0.1600
  377MOL0     C50808   8.435   4.779   6.311  0.1146  0.5621  0.4941
  377MOL0     C50809   8.530   4.768   6.207  0.8490 -0.0445  0.8282
  377MOL0     N50810   9.437   4.854   6.245  0.4886 -0.1417 -0.0491
  377MOL0     N50811   9.515   4.924   6.175  0.3739  0.1982 -0.1008
  377MOL0     C50812  10.447   5.243   6.111  0.4627  0.3421  0.9988
  377MOL0     C50813  10.556   5.155   6.121 -0.1088 -0.3462  0.3193
  377MOL0     C50814  10.631   4.827   6.103 -0.8993  0.6971  0.5767
  377MOL0     C50815  10.581   4.805   5.971  1.0210  0.1594 -0.8475
  377MOL0     C50816  10.480   4.709   5.952 -0.0548 -0.3737  0.6385
  377MOL0     C50817  10.418   4.640   6.054 -0.0757 -0.5886  0.2612
  377MOL0     O50818  10.316   4.551   6.056  0.4157  0.2328 -0.1349
  377MOL0     C50819  10.222   4.528   5.955 -0.2159  0.1038 -0.9685
  377MOL0     C50820  10.142   4.408   6.008  0.4214 -0.5331  0.0992
  377MOL0     C50821  10.062   4.428   6.147 -0.3464 -0.8944  0.2024
  377MOL0     C50822   9.917   4.371   6.152 -0.8356  0.3886  0.0076
  377MOL0     C50823   9.818   4.475   6.125 -0.9558 -0.3732  0.4535
  377MOL0     C50824   9.734   4.562   6.108  0.0230  0.4952  0.1154
  377MOL0     C50825  10.467   4.665   6.182 -0.3000 -0.8316 -1.0248
  377MOL0     C50826  10.571   4.757   6.211 -0.1359  0.6774  0.2849
  377MOL0     C50827  10.615   4.773   6.355  0.5773 -0.2088  0.1271
  377MOL0     H50828  10.667   5.126   5.800 -0.0537  2.3000 -2.2652
  377MOL0     H50829  10.451   5.268   5.780  1.6580  0.9813 -1.0897
  377MOL0     H50830  10.298   5.457   5.777  0.4149 -0.2230 -0.0119
  377MOL0     H50831  10.231   5.294   5.807 -2.6106 -0.3496  2.0541
  377MOL0     H50832  10.071   5.482   5.785  3.4660  3.2371 -0.1445
  377MOL0     H50833  10.117   5.526   5.959 -1.3304 -1.5418  1.2373
  377MOL0     H50834  10.060   5.325   6.041 -0.0096 -1.0110 -0.6957
  377MOL0     H50835  10.023   5.248   5.889  0.2144  0.6531  0.3487
  377MOL0     H50836   9.879   5.491   6.004  2.3749 -1.7481  2.2346
  377MOL0     H50837   9.831   5.404   5.858  0.4916  2.5586 -0.2579
  377MOL0     H50838   9.793   5.211   6.052 -3.5742 -0.7043  2.0445
  377MOL0     H50839   9.822   5.344   6.160  1.7671 -2.0041  0.6461
  377MOL0     H50840   9.616   5.464   6.073  1.4289  0.7540 -2.9764
  377MOL0     H50841   9.613   5.360   5.936  1.5479 -1.6578 -0.6666
  377MOL0     H50842   9.430   5.324   6.097 -0.2190  0.1068  2.0478
  377MOL0     H50843   9.533   5.260   6.216 -1.7666 -3.1706 -0.2122
  377MOL0     H50844   9.489   5.146   5.947  1.0915 -1.4742  0.2016
  377MOL0     H50845   9.630   5.109   6.037  1.2854  2.5977  2.6770
  377MOL0     H50846   9.243   5.108   6.140  1.1193  1.0191 -1.5916
  377MOL0     H50847   9.215   4.873   6.433 -1.0634 -2.2187  0.5378
  377MOL0     H50848   9.128   4.986   6.324 -0.2937 -0.3477  1.4043
  377MOL0     H50849   9.155   4.768   6.165  0.5408  0.0106 -0.1640
  377MOL0     H50850   9.137   4.690   6.315 -1.9391  0.6035  0.9402
  377MOL0     H50851   8.953   4.915   6.228  2.4436 -0.6670 -0.1890
  377MOL0     H50852   8.928   4.799   6.361  1.0745  2.6585  0.5406
  377MOL0     H50853   8.913   4.620   6.179  1.5079  1.2603  1.7101
  377MOL0     H50854   8.943   4.735   6.050 -1.1623  0.3088 -0.3584
  377MOL0     H50855   8.787   4.631   6.388 -0.2342  0.5323  0.3496
  377MOL0     H50856   8.614   4.639   6.558 -0.4149 -0.2389 -0.1420
  377MOL0     H50857   7.996   4.802   6.557 -1.1639  0.8135 -0.4116
  377MOL0     H50858   7.870   4.924   6.729 -0.5480 -1.8773 -0.1979
  377MOL0     H50859   7.795   5.114   6.843  0.9245 -0.0166  0.6971
  377MOL0     H50860   7.813   4.984   6.969  1.7372 -0.1784 -0.0153
  377MOL0     H50861   7.685   5.178   7.042 -0.1108 -2.0672 -0.7683
  377MOL0     H50862   7.832   5.168   7.132 -1.2886 -2.2839  0.2430
  377MOL0     H50863   7.946   5.335   6.976 -0.1591  2.6857  1.4677
  377MOL0     H50864   7.783   5.355   6.893 -0.1504 -1.3421  0.2048
  377MOL0     H50865   7.883   5.401   7.169  0.5456 -0.6338  0.2062
  377MOL0     H50866   7.704   5.411   7.131  0.0260  1.1218  0.3942
  377MOL0     H50867   7.785   5.599   6.969 -3.4296 -1.5525  0.6505
  377MOL0     H50868   7.950   5.574   7.041 -1.1076  0.6562 -1.6542
  377MOL0     H50869   7.701   5.701   7.147  0.1434  0.0707  1.0786
  377MOL0     H50870   7.821   5.635   7.267 -1.4813 -0.8686  0.7376
  377MOL0     H50871   7.886   5.852   7.073 -1.3883  3.4129  2.6596
  377MOL0     H50872   7.998   5.768   7.192 -0.3172 -0.0049  0.1845
  377MOL0     H50873   7.747   5.901   7.290 -0.1456 -0.1506  0.1131
  377MOL0     H50874   7.906   5.858   7.363  2.0752  1.7247 -0.5070
  377MOL0     H50875   8.244   5.085   6.880  0.2425  1.0627 -0.4345
  377MOL0     H50876   8.355   4.958   6.710  0.7218  1.8151  0.3622
  377MOL0     H50877   8.335   4.815   6.289  1.5394  5.3442  0.7402
  377MOL0     H50878   8.505   4.806   6.109 -3.8998  0.4722  1.9907
  377MOL0     H50879  10.388   5.270   6.198  1.0390  0.0784  1.4802
  377MOL0     H50880  10.586   5.122   6.220 -1.0159 -3.2268 -0.2470
  377MOL0     H50881  10.612   4.855   5.880  0.1083  1.5584 -0.4146
  377MOL0     H50882  10.440   4.699   5.851 -0.0688 -0.6221  0.6686
  377MOL0     H50883  10.270   4.515   5.858  0.8591  2.7102 -0.8426
  377MOL0     H50884  10.151   4.607   5.930  0.8976  0.7632 -2.1788
  377MOL0     H50885  10.216   4.329   6.022 -0.1556 -1.3736 -1.3561
  377MOL0     H50886  10.073   4.358   5.939  0.4095  0.4711 -0.6399
  377MOL0     H50887  10.052   4.530   6.184 -0.4919 -0.8629  0.0757
  377MOL0     H50888  10.121   4.375   6.222  1.9454 -0.0704 -0.9097
  377MOL0     H50889   9.902   4.282   6.091 -0.1922  1.7176 -2.1724
  377MOL0     H50890   9.891   4.337   6.253 -0.1667 -0.1851 -0.0037
  377MOL0     H50891   9.674   4.650   6.092  0.5899  1.3230  2.3075
  377MOL0     H50892  10.430   4.608   6.267  1.1524 -1.2100 -0.6225
  377MOL0     H50893  10.575   4.863   6.404 -1.7441 -1.3564  0.4877
  377MOL0     H50894  10.577   4.687   6.410 -2.9516 -0.8421 -2.8819
  377MOL0     H50895  10.724   4.775   6.355  0.5922  2.0764 -0.4638
  378MOL0     O50896   7.251   4.435   6.139  0.3688 -0.0573  0.0561
  378MOL0     C50897   7.188   4.435   6.034  0.0366  0.1981 -0.1187
  378MOL0     O50898   7.239   4.422   5.913 -0.5284  1.2436  0.9025
  378MOL0     C50899   7.367   4.373   5.895  0.0144  0.3066  0.0619
  378MOL0     C50900   7.411   4.253   5.944 -0.7942 -0.2166 -0.0737
  378MOL0     C50901   7.532   4.194   5.906 -0.3259 -0.3146 -0.4569
  378MOL0     C50902   7.609   4.262   5.800  0.3966 -0.3289 -0.1438
  378MOL0     O50903   7.715   4.189   5.764  0.0813  0.2992 -0.6385
  378MOL0     C50904   7.833   4.270   5.732 -0.1175  0.0787 -0.0841
  378MOL0     C50905   7.967   4.200   5.767  0.0951  0.2660  0.5403
  378MOL0     C50906   7.969   4.142   5.908  0.0407 -0.2686  0.5573
  378MOL0     C50907   8.112   4.141   5.965 -0.5633 -1.0554  0.8656
  378MOL0     C50908   8.204   4.032   5.895 -0.4506  0.6002 -0.1779
  378MOL0     C50909   8.339   4.042   5.969  0.8710 -0.2663 -0.3390
  378MOL0     C50910   8.426   3.929   5.916 -0.4465  0.3370  0.5661
  378MOL0     C50911   8.409   3.802   6.008  0.0301 -0.0485  0.4412
  378MOL0     N50912   8.483   3.826   6.138  1.0034  0.6964 -0.8400
  378MOL0     C50913   8.616   3.823   6.169  0.1948  0.7974  0.3639
  378MOL0     C50914   8.628   3.838   6.302 -0.7047  0.4866 -0.1948
  378MOL0     C50915   8.767   3.833   6.372  0.3512 -0.2225 -0.1299
  378MOL0     C50916   8.795   3.684   6.411  0.2300  0.3454 -0.6431
  378MOL0     C50917   8.932   3.673   6.489  1.0258 -0.0480  0.2597
  378MOL0     C50918   9.048   3.657   6.398 -0.2405  0.7413 -0.5448
  378MOL0     O50919   9.160   3.680   6.496  0.0431 -0.6082 -0.2173
  378MOL0     C50920   9.284   3.642   6.453  0.5936 -0.2383 -0.5077
  378MOL0     C50921   9.321   3.599   6.321 -0.0121  0.8762 -0.5659
  378MOL0     C50922   9.447   3.567   6.291 -0.1693 -0.1798  0.6205
  378MOL0     C50923   9.545   3.574   6.397  0.3413  0.6409  0.4876
  378MOL0     C50924   9.682   3.555   6.360 -0.1025 -0.8114 -0.4452
  378MOL0     O50925   9.715   3.533   6.234  0.4824 -0.1073  0.1164
  378MOL0     C50926   9.855   3.521   6.198  0.1373 -0.7667 -0.0842
  378MOL0     C50927   9.964   3.586   6.247 -0.1595 -0.4809  0.5321
  378MOL0     C50928  10.091   3.572   6.190 -0.2158 -0.2866 -0.6358
  378MOL0     C50929  10.123   3.469   6.107 -0.1622 -0.0418  0.1358
  378MOL0     O50930  10.252   3.468   6.063  0.0003  0.2302  0.7810
  378MOL0     C50931  10.288   3.377   5.965  0.4582  0.6118 -0.3346
  378MOL0     C50932  10.438   3.380   5.926  0.3398 -0.3010  0.3503
  378MOL0     C50933  10.476   3.509   5.854 -0.0009  0.4210 -0.0996
  378MOL0     C50934  10.599   3.484   5.771 -0.3038 -0.2770  0.6032
  378MOL0     C50935  10.644   3.607   5.693 -0.3580  0.2958  0.6679
  378MOL0     C50936  10.756   3.678   5.772 -0.3079 -0.6106 -0.5316
  378MOL0     C50937  10.822   3.795   5.685 -0.2236  0.5148  0.4469
  378MOL0     C50938  10.954   3.836   5.743  0.6363 -0.2731 -0.8796
  378MOL0    Cl50939  11.011   3.973   5.652 -0.3583 -0.3842  0.4250
  378MOL0     C50940  10.017   3.386   6.076 -0.5355 -0.2328  0.7222
  378MOL0     C50941   9.885   3.415   6.114 -0.1259 -0.1158 -0.4185
  378MOL0     O50942   9.765   3.562   6.455  1.0432  0.3362  0.2573
  378MOL0     C50943   9.511   3.606   6.527  0.2860  1.0147  0.1679
  378MOL0     C50944   9.379   3.641   6.557  0.5395 -0.4281  0.3538
  378MOL0     N50945   8.507   3.845   6.354  0.2627  0.2611  0.7053
  378MOL0     N50946   8.414   3.830   6.261 -0.2157 -0.1024 -0.5871
  378MOL0     C50947   7.547   4.367   5.737  0.7143 -0.7818  0.2187
  378MOL0     C50948   7.438   4.432   5.789  0.7089 -0.7445 -0.5183
  378MOL0     C50949   7.040   4.452   6.040 -0.2314  0.6598 -0.2236
  378MOL0     C50950   6.954   4.402   5.936 -0.2552 -0.0575 -0.0155
  378MOL0     C50951   6.818   4.418   5.934 -0.0234 -0.8755  0.1991
  378MOL0     C50952   6.763   4.512   6.031  0.3111  0.3495 -0.5339
  378MOL0     O50953   6.631   4.557   6.002 -0.0926  0.5959  0.0935
  378MOL0     C50954   6.529   4.452   6.023 -0.2225  0.5133 -0.5858
  378MOL0     C50955   6.403   4.529   6.051 -0.2973 -0.0773 -0.2676
  378MOL0     C50956   6.310   4.438   6.118 -0.7915  0.1412  0.1349
  378MOL0     C50957   6.178   4.514   6.138  0.5415  0.0564  0.3136
  378MOL0     C50958   6.083   4.437   6.223 -0.5213 -0.2710  0.4506
  378MOL0     C50959   6.003   4.369   6.278  1.3004 -0.1257 -0.3937
  378MOL0     C50960   6.838   4.553   6.142  0.1496 -0.0439  0.7352
  378MOL0     C50961   6.973   4.523   6.146  0.4281  0.6626  0.1370
  378MOL0     C50962   7.035   4.546   6.276  0.0830 -0.0613 -0.1384
  378MOL0     H50963   7.344   4.212   6.019  0.2530  3.0428  2.9089
  378MOL0     H50964   7.563   4.098   5.946  1.1400 -0.5222 -1.9983
  378MOL0     H50965   7.831   4.296   5.626  0.3771  1.9797  0.3235
  378MOL0     H50966   7.827   4.363   5.790 -0.6738  0.5607 -0.8985
  378MOL0     H50967   8.049   4.272   5.768 -0.1964  0.6385 -0.6505
  378MOL0     H50968   7.988   4.137   5.680  0.0597  2.4175 -1.1310
  378MOL0     H50969   7.928   4.041   5.901  2.2194 -1.1167 -0.9023
  378MOL0     H50970   7.908   4.213   5.964  0.9031  0.3085  0.7843
  378MOL0     H50971   8.155   4.242   5.967 -1.2558 -0.7514  2.9520
  378MOL0     H50972   8.090   4.122   6.070 -2.3759  2.2923  1.2233
  378MOL0     H50973   8.166   3.930   5.906  0.5072  0.1604 -0.7857
  378MOL0     H50974   8.214   4.049   5.788 -0.8777  0.3734 -0.2578
  378MOL0     H50975   8.393   4.134   5.947 -1.8109  1.0485 -1.8989
  378MOL0     H50976   8.327   4.040   6.078 -1.6101  1.5930 -0.4908
  378MOL0     H50977   8.532   3.952   5.901 -0.6241  1.0383  0.3227
  378MOL0     H50978   8.397   3.906   5.813  0.5977  1.4085  0.0080
  378MOL0     H50979   8.301   3.804   6.022 -0.6199  1.1676 -3.4139
  378MOL0     H50980   8.433   3.705   5.965 -0.2054 -0.2211  0.6974
  378MOL0     H50981   8.698   3.809   6.099  1.2117  4.0216  0.7056
  378MOL0     H50982   8.856   3.877   6.325  0.6972  1.3607  1.8654
  378MOL0     H50983   8.749   3.891   6.463  0.0629  2.2496 -1.6668
  378MOL0     H50984   8.722   3.638   6.478  0.8794 -0.5559 -0.5390
  378MOL0     H50985   8.784   3.626   6.318  0.6131  0.4920 -0.7808
  378MOL0     H50986   8.928   3.593   6.564 -0.5691 -2.5801 -2.3496
  378MOL0     H50987   8.945   3.767   6.545 -0.5886  0.3151  0.0670
  378MOL0     H50988   9.055   3.732   6.319 -0.0809 -0.5544 -1.8032
  378MOL0     H50989   9.047   3.556   6.355 -2.1735  0.4993 -0.0362
  378MOL0     H50990   9.241   3.616   6.250 -0.7698 -0.2444 -0.0182
  378MOL0     H50991   9.480   3.557   6.188  1.7331  0.0011  1.1763
  378MOL0     H50992   9.944   3.661   6.323 -0.0736 -0.1961  0.2740
  378MOL0     H50993  10.169   3.632   6.236 -1.3659  1.3383 -0.7240
  378MOL0     H50994  10.258   3.274   5.988  0.6836  0.3807 -1.0499
  378MOL0     H50995  10.231   3.403   5.875 -1.8214 -4.7371 -0.8255
  378MOL0     H50996  10.510   3.355   6.004  1.2141 -2.6752 -1.0832
  378MOL0     H50997  10.453   3.300   5.853 -0.7488 -0.4429  0.2631
  378MOL0     H50998  10.400   3.553   5.789 -0.9692  0.6151  1.1208
  378MOL0     H50999  10.501   3.578   5.935  0.9352 -1.9699  1.7687
  378MOL0     H51000  10.577   3.403   5.701  1.5561 -0.2570 -0.0549
  378MOL0     H51001  10.678   3.444   5.835  0.4897  1.1633  0.5642
  378MOL0     H51002  10.560   3.674   5.673  0.0016  0.6517  0.3384
  378MOL0     H51003  10.691   3.576   5.599  0.7133  0.7290  1.0355
  378MOL0     H51004  10.699   3.720   5.855  1.4714 -0.5433  0.7030
  378MOL0     H51005  10.824   3.609   5.822 -0.2320  0.5064  0.9691
  378MOL0     H51006  10.750   3.877   5.692 -0.3278  0.4308  0.3793
  378MOL0     H51007  10.830   3.766   5.579  0.3525  0.6207  0.4638
  378MOL0     H51008  10.932   3.866   5.846  2.6137  0.2996 -0.5913
  378MOL0     H51009  11.024   3.752   5.751  1.2524  0.2452 -0.7921
  378MOL0     H51010  10.038   3.306   6.006  0.3770  1.8605 -1.5419
  378MOL0     H51011   9.793   3.365   6.085 -1.2598  1.6780 -0.0722
  378MOL0     H51012   9.581   3.607   6.610 -0.0754  1.1850  0.4705
  378MOL0     H51013   9.351   3.657   6.660  0.6912  1.0386  0.1862
  378MOL0     H51014   7.594   4.410   5.649  2.1293  1.5074  1.9769
  378MOL0     H51015   7.391   4.521   5.747  1.2241  0.0097  0.4453
  378MOL0     H51016   6.994   4.346   5.852 -0.9983 -2.7710  1.3298
  378MOL0     H51017   6.757   4.374   5.856  0.8416 -0.3110 -0.8291
  378MOL0     H51018   6.571   4.385   6.098  1.5797  0.0657 -1.9325
  378MOL0     H51019   6.511   4.384   5.939  3.5059 -1.3475 -0.0858
  378MOL0     H51020   6.360   4.559   5.955  0.4274  2.9839  0.2516
  378MOL0     H51021   6.411   4.615   6.118 -0.7547 -0.2039 -0.0511
  378MOL0     H51022   6.358   4.421   6.214  1.6561  1.7083 -0.7239
  378MOL0     H51023   6.284   4.345   6.066 -1.1741 -1.1791  2.5420
  378MOL0     H51024   6.191   4.611   6.185  0.2565 -0.1449  0.8099
  378MOL0     H51025   6.128   4.538   6.043 -1.5404  1.8323  1.7751
  378MOL0     H51026   5.929   4.319   6.337  1.2505  0.1932 -0.1824
  378MOL0     H51027   6.786   4.613   6.216 -0.7645 -1.1297  1.0085
  378MOL0     H51028   6.972   4.607   6.341 -0.2037  0.2366 -0.6933
  378MOL0     H51029   7.059   4.454   6.331  1.5434  0.8654  0.8543
  378MOL0     H51030   7.123   4.609   6.264 -0.1738  0.5075  0.8530
  379MOL0     O51031   2.668   4.031   7.104  0.0627  0.0783 -0.2105
  379MOL0     C51032   2.651   3.913   7.086  0.5647 -0.2700 -0.7942
  379MOL0     O51033   2.741   3.811   7.104  0.7321  0.0855  0.8388
  379MOL0     C51034   2.872   3.837   7.101 -0.6036 -1.0330  0.1350
  379MOL0     C51035   2.937   3.908   7.001 -0.7690  0.5357  0.9679
  379MOL0     C51036   3.073   3.918   6.989 -0.2281 -0.8701  0.8276
  379MOL0     C51037   3.162   3.862   7.091  0.3920 -0.5355  0.0001
  379MOL0     O51038   3.297   3.893   7.101  0.2685 -0.9216 -0.5190
  379MOL0     C51039   3.354   3.942   6.981 -0.4795  0.7841 -0.4141
  379MOL0     C51040   3.503   3.926   6.990  0.3089 -0.6680  0.6533
  379MOL0     C51041   3.567   3.975   7.122  0.3531 -0.0324  0.8035
  379MOL0     C51042   3.710   4.032   7.094  0.7682 -0.0637 -0.5720
  379MOL0     C51043   3.757   4.105   7.218  0.0474  0.2439  1.0376
  379MOL0     C51044   3.897   4.160   7.205 -0.2506  0.8716  0.0000
  379MOL0     C51045   3.905   4.291   7.122  0.6886  0.6337 -0.4520
  379MOL0     C51046   4.048   4.347   7.101 -0.2591  0.0120  0.5664
  379MOL0     N51047   4.139   4.244   7.047 -0.3006  0.7262 -0.3991
  379MOL0     C51048   4.116   4.176   6.926 -0.3246  0.3512  0.0186
  379MOL0     C51049   4.237   4.125   6.894  0.0371  0.9814  0.4041
  379MOL0     C51050   4.283   4.055   6.766  0.6383 -0.0292 -0.5395
  379MOL0     C51051   4.424   4.084   6.722 -0.1321 -0.0921  0.0046
  379MOL0     C51052   4.458   4.020   6.589 -0.9172  0.5027  0.1048
  379MOL0     C51053   4.608   4.045   6.565  0.0173 -0.1702 -0.1580
  379MOL0     O51054   4.620   4.185   6.527  0.0377  0.6100  1.0089
  379MOL0     C51055   4.742   4.238   6.567  0.9247  0.1848  0.2283
  379MOL0     C51056   4.745   4.337   6.666 -0.9912  0.1731  0.2513
  379MOL0     C51057   4.868   4.400   6.693 -0.9423 -0.6368  0.1803
  379MOL0     C51058   4.988   4.377   6.623 -1.0353 -0.1808 -0.5842
  379MOL0     C51059   5.115   4.453   6.649  0.4605  0.1283  0.3140
  379MOL0     O51060   5.098   4.583   6.685 -0.4852 -0.5513  0.3447
  379MOL0     C51061   5.181   4.682   6.625 -0.6728 -1.0384 -0.7724
  379MOL0     C51062   5.240   4.685   6.494 -0.7923  1.7440 -0.6751
  379MOL0     C51063   5.350   4.770   6.465  0.6835 -1.4939 -0.0712
  379MOL0     C51064   5.386   4.875   6.546 -0.2840 -0.5632  0.3438
  379MOL0     O51065   5.465   4.970   6.489  0.0278  0.2191  0.3141
  379MOL0     C51066   5.490   5.090   6.558  0.0057 -0.0284  0.4234
  379MOL0     C51067   5.570   5.185   6.469 -0.4638  0.8984 -1.3167
  379MOL0     C51068   5.715   5.175   6.506 -1.0112  0.9810  0.2521
  379MOL0     C51069   5.796   5.257   6.409  0.2721 -0.1321 -0.8267
  379MOL0     C51070   5.941   5.245   6.438 -0.8353 -0.3218 -0.4424
  379MOL0     C51071   6.027   5.323   6.338 -0.6918  0.2922  0.3312
  379MOL0     C51072   6.172   5.312   6.384  0.3594 -0.1625 -0.0835
  379MOL0     C51073   6.258   5.425   6.328 -0.4699  0.0182  0.7935
  379MOL0    Cl51074   6.432   5.393   6.347  0.0632  0.2691  0.4341
  379MOL0     C51075   5.320   4.881   6.676 -0.8812  0.9292  1.2248
  379MOL0     C51076   5.228   4.778   6.716  0.0839  0.1640  0.8686
  379MOL0     O51077   5.217   4.403   6.605 -0.4338  0.1172 -1.0434
  379MOL0     C51078   4.990   4.275   6.528 -0.2199 -0.0756 -0.3546
  379MOL0     C51079   4.868   4.209   6.509  0.4608  0.3175 -0.0096
  379MOL0     N51080   4.320   4.164   7.005  0.7076  0.2653  0.6743
  379MOL0     N51081   4.261   4.235   7.092 -0.9749  0.2321  0.2590
  379MOL0     C51082   3.100   3.783   7.190 -0.2648  0.1937  0.1463
  379MOL0     C51083   2.959   3.768   7.189 -0.1846 -0.3384 -0.2168
  379MOL0     C51084   2.503   3.881   7.065 -0.3095 -0.3559 -0.4304
  379MOL0     C51085   2.473   3.759   6.995 -0.6187  0.2577 -0.3988
  379MOL0     C51086   2.345   3.711   6.974 -0.0765 -0.8170 -0.6233
  379MOL0     C51087   2.238   3.798   7.012 -0.9873  0.2935  0.1194
  379MOL0     O51088   2.116   3.747   6.977 -0.2944 -0.1568 -0.2942
  379MOL0     C51089   2.001   3.799   7.038 -0.9117  0.3013  0.3680
  379MOL0     C51090   1.878   3.705   6.993  0.0382  0.1107  0.5081
  379MOL0     C51091   1.893   3.568   7.066 -0.2251  1.1894 -0.4033
  379MOL0     C51092   1.784   3.463   7.029  0.6696 -0.4118  0.8174
  379MOL0     C51093   1.758   3.459   6.884 -0.0978 -0.4350 -0.2059
  379MOL0     C51094   1.724   3.453   6.764 -0.0147 -0.2721 -0.2172
  379MOL0     C51095   2.265   3.913   7.083 -0.2459 -0.8978 -0.0023
  379MOL0     C51096   2.392   3.965   7.098  0.4460 -0.6822  0.1185
  379MOL0     C51097   2.407   4.089   7.170 -0.2221  0.1179 -0.3223
  379MOL0     H51098   2.873   3.959   6.929 -0.0098 -0.7091 -0.6728
  379MOL0     H51099   3.112   3.974   6.904 -0.8646  3.3639  3.0603
  379MOL0     H51100   3.325   3.883   6.894  0.9358  1.0274 -1.0746
  379MOL0     H51101   3.323   4.047   6.988  4.2124  2.3262  2.7195
  379MOL0     H51102   3.547   3.973   6.901 -0.7684 -0.2292  0.3368
  379MOL0     H51103   3.525   3.820   6.973 -1.0033 -0.6446 -1.6452
  379MOL0     H51104   3.562   3.894   7.196 -3.1913  0.3019  1.1178
  379MOL0     H51105   3.508   4.052   7.172 -1.2634 -0.8263  0.1916
  379MOL0     H51106   3.773   3.947   7.065  0.7595 -1.0278  1.9328
  379MOL0     H51107   3.696   4.102   7.011 -2.4208  1.9740  1.4745
  379MOL0     H51108   3.687   4.179   7.259 -1.2813 -0.1844 -0.3730
  379MOL0     H51109   3.759   4.024   7.291 -0.7448 -2.5984 -1.8999
  379MOL0     H51110   3.937   4.179   7.305  0.5229 -1.5629  0.2226
  379MOL0     H51111   3.960   4.076   7.173 -2.0708 -0.6869  0.3598
  379MOL0     H51112   3.852   4.373   7.171 -1.5822 -1.2625  0.5205
  379MOL0     H51113   3.854   4.278   7.026 -2.0941  0.6326  0.9302
  379MOL0     H51114   4.045   4.436   7.036  0.4550 -1.8487 -2.2067
  379MOL0     H51115   4.070   4.368   7.206 -0.3902 -0.9226  0.7889
  379MOL0     H51116   4.025   4.193   6.869 -1.3821  0.3191  1.6316
  379MOL0     H51117   4.276   3.952   6.802 -0.3978  0.4963  0.8343
  379MOL0     H51118   4.209   4.058   6.685 -0.4224 -1.1742  0.3468
  379MOL0     H51119   4.440   4.191   6.707 -1.6590 -0.0848 -1.9142
  379MOL0     H51120   4.496   4.042   6.794  1.5885  0.4108 -1.3339
  379MOL0     H51121   4.404   4.059   6.502  1.0026  0.7799 -1.0195
  379MOL0     H51122   4.444   3.911   6.591 -1.9050  0.6271  1.2940
  379MOL0     H51123   4.633   3.977   6.483  0.3038 -0.1213 -0.1145
  379MOL0     H51124   4.668   4.024   6.655 -0.7409  2.7522  1.1613
  379MOL0     H51125   4.650   4.353   6.717 -2.7782 -3.8096 -1.3612
  379MOL0     H51126   4.862   4.471   6.774  0.8710  0.0435 -0.2374
  379MOL0     H51127   5.215   4.600   6.431 -2.2675  1.5780  0.1129
  379MOL0     H51128   5.397   4.745   6.371 -0.3060 -1.5102 -0.5778
  379MOL0     H51129   5.394   5.136   6.584  0.8911  2.6507 -0.6956
  379MOL0     H51130   5.555   5.054   6.639  1.2809  2.9485  0.8663
  379MOL0     H51131   5.541   5.162   6.366 -1.0529 -2.7300 -0.4816
  379MOL0     H51132   5.531   5.285   6.487 -1.9908 -0.1508  1.9398
  379MOL0     H51133   5.736   5.221   6.603  0.2532  0.3899  0.2703
  379MOL0     H51134   5.751   5.072   6.514 -2.0608  0.5536 -0.2040
  379MOL0     H51135   5.766   5.361   6.420  1.5305  0.1782 -0.1347
  379MOL0     H51136   5.783   5.229   6.304  1.1553  1.4294 -1.3881
  379MOL0     H51137   5.973   5.141   6.431 -2.9341 -1.2224  1.8775
  379MOL0     H51138   5.947   5.279   6.542  0.3516 -0.7445 -0.3671
  379MOL0     H51139   6.008   5.289   6.236  0.0041  1.7699 -0.3228
  379MOL0     H51140   6.001   5.430   6.343 -0.1481  0.4320  0.1376
  379MOL0     H51141   6.201   5.208   6.368 -0.3961 -0.2665 -0.8719
  379MOL0     H51142   6.186   5.331   6.490  2.0742  1.8652 -0.5936
  379MOL0     H51143   6.239   5.429   6.220  2.0273  0.3445  0.2991
  379MOL0     H51144   6.220   5.517   6.372 -0.4904  0.1964  0.4068
  379MOL0     H51145   5.330   4.965   6.744 -0.8410  2.0545 -0.1354
  379MOL0     H51146   5.181   4.780   6.814  1.6574  2.8385  1.6904
  379MOL0     H51147   5.081   4.246   6.477 -0.4788  1.2492 -1.6486
  379MOL0     H51148   4.855   4.123   6.444 -0.1017 -1.9643  2.8901
  379MOL0     H51149   3.163   3.736   7.264  1.5523  0.4495 -1.1637
  379MOL0     H51150   2.915   3.699   7.261 -2.6568 -0.6534 -1.8788
  379MOL0     H51151   2.550   3.693   6.956 -0.3755 -0.3397  1.0287
  379MOL0     H51152   2.327   3.617   6.922 -0.1424 -1.0925 -0.1081
  379MOL0     H51153   1.984   3.896   6.990 -0.3139  0.0143 -0.4392
  379MOL0     H51154   2.008   3.800   7.148 -1.1115  0.0077  0.3853
  379MOL0     H51155   1.889   3.700   6.884 -2.1232  2.4678  0.0940
  379MOL0     H51156   1.780   3.749   7.009 -0.2699  0.3792 -1.7833
  379MOL0     H51157   1.870   3.594   7.169  0.8370 -1.3888  0.5666
  379MOL0     H51158   1.995   3.529   7.055 -0.1057  1.8128 -1.8018
  379MOL0     H51159   1.818   3.365   7.064 -0.0659 -1.9747 -2.4491
  379MOL0     H51160   1.688   3.487   7.075  0.5741 -1.3137  1.1127
  379MOL0     H51161   1.687   3.447   6.664  0.4398 -2.3291 -0.2939
  379MOL0     H51162   2.187   3.979   7.119  2.5422  2.1623  0.9419
  379MOL0     H51163   2.442   4.163   7.097 -1.0336 -0.4236 -1.2887
  379MOL0     H51164   2.320   4.122   7.228  0.3445 -0.4377  0.8814
  379MOL0     H51165   2.484   4.080   7.247 -0.4490  1.3776  0.0689
  380MOL0     O51166   9.226   3.193   9.933  0.0743 -0.3285 -0.1514
  380MOL0     C51167   9.154   3.215   9.841  0.1759 -0.0694 -0.4547
  380MOL0     O51168   9.190   3.221   9.710  0.7057 -0.1801 -0.7215
  380MOL0     C51169   9.321   3.219   9.661 -0.1255 -0.0538  0.7057
  380MOL0     C51170   9.367   3.335   9.597 -0.9919 -0.0388  0.5713
  380MOL0     C51171   9.511   3.338   9.556 -0.7872  0.4433 -0.4868
  380MOL0     C51172   9.603   3.244   9.595 -0.1249 -1.3612 -0.0637
  380MOL0     O51173   9.733   3.261   9.558 -0.1770 -0.0768  0.1437
  380MOL0     C51174   9.834   3.181   9.619  0.4058  0.9004  0.1959
  380MOL0     C51175   9.981   3.236   9.612 -0.8474  0.0339  0.9018
  380MOL0     C51176  10.061   3.192   9.482 -0.7005  0.5964 -0.5256
  380MOL0     C51177  10.005   3.270   9.360 -0.6519 -0.2299  0.8485
  380MOL0     C51178  10.087   3.250   9.234  0.1472 -0.1193 -1.0186
  380MOL0     C51179  10.009   3.299   9.116  0.1673  0.4045 -0.0758
  380MOL0     C51180  10.088   3.266   8.982 -1.0828 -0.3910 -0.0165
  380MOL0     C51181  10.035   3.129   8.930  0.1700 -0.7749  0.4086
  380MOL0     N51182   9.910   3.140   8.855  0.1053  0.0476 -0.0140
  380MOL0     C51183   9.784   3.114   8.907 -0.3063  0.1621 -0.2838
  380MOL0     C51184   9.704   3.111   8.800 -0.1610  0.0711  0.1038
  380MOL0     C51185   9.558   3.062   8.785 -0.3790  0.2693 -0.2632
  380MOL0     C51186   9.470   3.102   8.905 -0.2760  1.1840  0.6517
  380MOL0     C51187   9.331   3.051   8.880  0.3285  0.2049  0.6423
  380MOL0     C51188   9.238   3.092   8.993  0.1671  0.6152  0.0757
  380MOL0     O51189   9.108   3.055   8.946 -0.4378  0.4597 -0.5874
  380MOL0     C51190   9.002   3.063   9.034  0.2065  0.7116 -0.1774
  380MOL0     C51191   9.011   3.125   9.162 -0.5555  0.0444 -0.0800
  380MOL0     C51192   8.895   3.139   9.235  0.6011 -0.0298  0.6418
  380MOL0     C51193   8.769   3.098   9.182 -0.0476  0.8826  0.1162
  380MOL0     C51194   8.650   3.110   9.260  0.8568 -0.3374 -0.1489
  380MOL0     O51195   8.652   3.183   9.375  0.0132  0.1191 -0.2640
  380MOL0     C51196   8.532   3.227   9.432 -0.0879 -1.3989 -0.5864
  380MOL0     C51197   8.525   3.215   9.572 -0.4506  0.5094  0.4202
  380MOL0     C51198   8.410   3.242   9.645  0.5343 -0.1597 -0.4987
  380MOL0     C51199   8.301   3.300   9.591  0.0127  0.9434  0.5928
  380MOL0     O51200   8.201   3.331   9.678  0.6798 -0.4068  0.0299
  380MOL0     C51201   8.114   3.437   9.638 -1.0215 -0.2562  0.3569
  380MOL0     C51202   7.998   3.399   9.546  0.5389 -0.9994 -0.4967
  380MOL0     C51203   7.940   3.527   9.481  0.1789  0.8968 -0.1289
  380MOL0     C51204   7.862   3.613   9.582  0.1556 -0.4302  0.5138
  380MOL0     C51205   7.782   3.713   9.513 -0.0151 -0.3991 -1.0127
  380MOL0     C51206   7.661   3.673   9.434 -0.4048  0.8148  0.3066
  380MOL0     C51207   7.587   3.793   9.367 -0.1241  0.6395  1.8388
  380MOL0     C51208   7.668   3.883   9.272 -0.0638 -0.2875  0.7451
  380MOL0    Cl51209   7.747   3.788   9.141 -0.7108 -0.4147  0.4984
  380MOL0     C51210   8.303   3.319   9.452  0.8492  0.4607 -0.6176
  380MOL0     C51211   8.416   3.280   9.375  0.2031 -0.2911 -0.5556
  380MOL0     O51212   8.543   3.057   9.222 -0.3751 -0.1267  0.2867
  380MOL0     C51213   8.768   3.040   9.052 -0.3894 -0.2574  0.5395
  380MOL0     C51214   8.884   3.011   8.980  0.4600 -0.0968  0.1007
  380MOL0     N51215   9.775   3.140   8.688 -0.6235 -0.2319 -0.1779
  380MOL0     N51216   9.901   3.141   8.718 -0.5697 -0.7969 -0.1482
  380MOL0     C51217   9.548   3.128   9.662 -0.4226 -0.5140  0.0019
  380MOL0     C51218   9.413   3.114   9.692  1.0945 -0.3781  0.4572
  380MOL0     C51219   9.009   3.252   9.875  0.1893  1.0159  0.6073
  380MOL0     C51220   8.977   3.259  10.014 -0.3444  0.1843 -0.3571
  380MOL0     C51221   8.851   3.300  10.056  0.9721  0.1462 -0.0046
  380MOL0     C51222   8.747   3.328   9.973 -0.2684 -0.0849  0.3249
  380MOL0     O51223   8.612   3.353   9.998 -0.5138  0.1785  0.2188
  380MOL0     C51224   8.581   3.387  10.137  0.2799  0.5777 -0.4436
  380MOL0     C51225   8.426   3.387  10.162  0.3894  0.3699  0.4835
  380MOL0     C51226   8.353   3.491  10.080  0.6374  0.9859  0.0532
  380MOL0     C51227   8.211   3.522  10.130  0.6143  0.7866  0.2249
  380MOL0     C51228   8.144   3.614  10.031  0.4724  0.0566 -0.2357
  380MOL0     C51229   8.091   3.673   9.939 -0.5704  0.1484  0.0523
  380MOL0     C51230   8.782   3.306   9.833  0.0366 -0.4786  0.1838
  380MOL0     C51231   8.903   3.275   9.787 -0.2940 -0.1811  0.8528
  380MOL0     C51232   8.918   3.289   9.635  0.1109  0.1896  0.0905
  380MOL0     H51233   9.299   3.410   9.559 -0.0310 -0.0878 -1.3414
  380MOL0     H51234   9.545   3.417   9.491  2.0697  1.2421  1.7796
  380MOL0     H51235   9.815   3.166   9.726  1.6215  0.9312  0.4326
  380MOL0     H51236   9.808   3.084   9.576 -2.6415  1.6907 -0.0182
  380MOL0     H51237  10.042   3.192   9.691  2.4432  2.1524 -0.2606
  380MOL0     H51238   9.984   3.344   9.622 -3.7536  0.1517  1.3513
  380MOL0     H51239  10.067   3.084   9.472  0.6464  0.7930 -2.2944
  380MOL0     H51240  10.164   3.226   9.497 -0.4691  1.1603 -3.0041
  380MOL0     H51241   9.900   3.243   9.347 -0.7810  0.8063 -0.4951
  380MOL0     H51242  10.006   3.377   9.383  2.0112 -0.5695  2.8294
  380MOL0     H51243  10.180   3.304   9.250 -1.9305  2.8951  2.0554
  380MOL0     H51244  10.106   3.143   9.218  1.0379  0.1346 -1.7340
  380MOL0     H51245   9.912   3.248   9.109  0.4972 -0.2502  0.0788
  380MOL0     H51246  10.005   3.407   9.133  0.8071  0.4300 -0.0711
  380MOL0     H51247  10.197   3.276   8.993 -0.9402 -0.1787 -1.4670
  380MOL0     H51248  10.067   3.350   8.916 -0.8021 -1.2293 -1.2077
  380MOL0     H51249  10.115   3.103   8.860  1.3879  0.1275  1.4190
  380MOL0     H51250  10.011   3.051   9.003 -3.2209  2.4208  3.0538
  380MOL0     H51251   9.761   3.092   9.011  1.8542  0.7656  0.3969
  380MOL0     H51252   9.510   3.110   8.699  0.9563  0.8960 -0.6991
  380MOL0     H51253   9.553   2.954   8.771 -1.6691  0.2180  0.4508
  380MOL0     H51254   9.514   3.047   8.988  1.3642 -0.4043 -1.1520
  380MOL0     H51255   9.471   3.212   8.906 -1.4582  1.2040  0.9177
  380MOL0     H51256   9.322   2.942   8.869  0.1982  0.3276 -0.6678
  380MOL0     H51257   9.295   3.102   8.790 -0.3096 -0.1044  0.7142
  380MOL0     H51258   9.236   3.201   9.003 -0.5739  0.7130 -0.9600
  380MOL0     H51259   9.266   3.049   9.090  0.1175 -1.6340 -0.8584
  380MOL0     H51260   9.107   3.165   9.193 -0.2469  0.6754 -1.7216
  380MOL0     H51261   8.912   3.177   9.335 -3.3360 -0.6241  1.7401
  380MOL0     H51262   8.612   3.167   9.616  0.0257  1.3004  0.3638
  380MOL0     H51263   8.415   3.213   9.749  1.2172  0.9702 -0.2063
  380MOL0     H51264   8.067   3.480   9.726  0.2716 -1.0278  1.4649
  380MOL0     H51265   8.169   3.515   9.585  1.0333 -1.8541 -0.0094
  380MOL0     H51266   8.033   3.327   9.470  5.1885  0.1413  0.2303
  380MOL0     H51267   7.921   3.356   9.610 -0.2779  0.8982 -0.1330
  380MOL0     H51268   8.016   3.583   9.425  2.9334 -0.0770  2.3566
  380MOL0     H51269   7.868   3.497   9.405  0.5241  0.5254 -0.3151
  380MOL0     H51270   7.931   3.671   9.643  1.6719 -2.4411  0.8214
  380MOL0     H51271   7.800   3.554   9.652  2.5181 -1.0749  2.1785
  380MOL0     H51272   7.847   3.782   9.458  0.4912  0.3212  0.4588
  380MOL0     H51273   7.745   3.773   9.596  0.1596 -0.6324 -0.7654
  380MOL0     H51274   7.677   3.595   9.358 -0.1979  0.6614  0.5076
  380MOL0     H51275   7.598   3.628   9.512 -1.4667 -0.6547 -1.3123
  380MOL0     H51276   7.533   3.864   9.431 -0.3317  1.0988  1.1579
  380MOL0     H51277   7.505   3.739   9.320  0.1024  2.8886 -1.4540
  380MOL0     H51278   7.594   3.951   9.230  0.1809  1.3359  2.7702
  380MOL0     H51279   7.744   3.944   9.322 -0.7814  0.6862  0.6725
  380MOL0     H51280   8.222   3.359   9.392  1.9949 -0.8589 -3.2235
  380MOL0     H51281   8.404   3.295   9.268 -0.7006 -0.3759 -0.4784
  380MOL0     H51282   8.671   3.001   9.021  0.1139 -0.1738 -1.3121
  380MOL0     H51283   8.874   2.957   8.886  1.2814 -2.6279  1.3514
  380MOL0     H51284   9.613   3.047   9.691 -0.2313 -0.0298  0.9602
  380MOL0     H51285   9.385   3.024   9.745  2.2385 -2.7214 -2.6480
  380MOL0     H51286   9.060   3.227  10.075  2.2037  0.5567 -3.3412
  380MOL0     H51287   8.829   3.297  10.163 -0.4675 -1.2084 -0.3093
  380MOL0     H51288   8.623   3.486  10.155 -0.1339  0.5938  0.5201
  380MOL0     H51289   8.628   3.319  10.208 -1.1519 -0.8633 -0.8206
  380MOL0     H51290   8.394   3.401  10.265 -1.3500 -0.7061  0.1346
  380MOL0     H51291   8.403   3.290  10.116  2.5402 -0.1568  0.4498
  380MOL0     H51292   8.350   3.434   9.986  1.0236 -1.1094  1.2548
  380MOL0     H51293   8.417   3.580  10.076 -0.4616  1.7795 -0.3805
  380MOL0     H51294   8.152   3.432  10.149  0.3154  0.8623 -0.3234
  380MOL0     H51295   8.209   3.570  10.229 -1.0554  1.3886 -0.0542
  380MOL0     H51296   8.069   3.739   9.858 -1.2758  1.2375  1.0933
  380MOL0     H51297   8.704   3.324   9.760  0.9048 -2.7947 -1.4138
  380MOL0     H51298   8.969   3.200   9.596  0.3874 -0.2620  1.4376
  380MOL0     H51299   8.822   3.291   9.582  0.8866  1.2001 -1.3360
  380MOL0     H51300   8.975   3.377   9.604  1.5996 -1.0469 -0.8728
  381MOL0     O51301   9.297  10.349   1.342  0.2548  1.3040  1.2366
  381MOL0     C51302   9.221  10.301   1.260 -0.4982 -0.3052  0.6005
  381MOL0     O51303   9.246  10.291   1.126  0.3074 -0.4987 -0.7036
  381MOL0     C51304   9.358  10.340   1.069  0.1708  0.8368 -0.0894
  381MOL0     C51305   9.383  10.480   1.055  0.1575  0.6403 -0.4680
  381MOL0     C51306   9.509  10.517   0.991 -0.1359  0.5797 -0.4444
  381MOL0     C51307   9.581  10.424   0.919  0.0161  0.4398 -0.8057
  381MOL0     O51308   9.680  10.454   0.829 -0.2263 -0.0338  0.1331
  381MOL0     C51309   9.810  10.491   0.885 -0.0086 -0.0745 -0.4201
  381MOL0     C51310   9.911  10.491   0.770 -0.6710 -1.1715 -1.0212
  381MOL0     C51311  10.033  10.578   0.812  0.6934 -0.2550 -0.3813
  381MOL0     C51312  10.124  10.596   0.694  0.9231  0.4020 -0.0436
  381MOL0     C51313  10.259  10.655   0.739 -0.1688  0.0130 -0.4567
  381MOL0     C51314  10.333  10.666   0.609 -0.1560 -1.1476 -0.6672
  381MOL0     C51315  10.476  10.719   0.628 -0.8816  0.1522 -0.2019
  381MOL0     C51316  10.475  10.869   0.664  0.0462  0.6435  0.1152
  381MOL0     N51317  10.421  10.952   0.559  0.3907  0.1171  0.1978
  381MOL0     C51318  10.315  11.036   0.582  0.2840  0.7172  0.7151
  381MOL0     C51319  10.300  11.087   0.457  0.2873 -0.8913 -0.3302
  381MOL0     C51320  10.192  11.188   0.433 -0.7386  0.1343 -0.5056
  381MOL0     C51321  10.249  11.316   0.491 -0.0339 -0.3019 -1.1277
  381MOL0     C51322  10.360  11.363   0.402  0.5521 -0.4288  0.2135
  381MOL0     C51323  10.397  11.515   0.412 -0.0023  0.7173 -0.5786
  381MOL0     O51324  10.420  11.531   0.556  0.2706  0.1968 -0.6418
  381MOL0     C51325  10.553  11.541   0.585  0.4385 -0.2429 -0.5472
  381MOL0     C51326  10.626  11.650   0.547 -0.0463 -0.9179  0.0954
  381MOL0     C51327  10.760  11.657   0.574  0.5868  0.4906 -0.6018
  381MOL0     C51328  10.827  11.559   0.640  0.3466 -0.1611  1.3018
  381MOL0     C51329  10.973  11.558   0.666  0.6033 -0.7560  0.0502
  381MOL0     O51330  11.046  11.664   0.613 -0.5028 -0.0527  0.6799
  381MOL0     C51331  11.176  11.683   0.659  0.0454 -0.1937 -0.3369
  381MOL0     C51332  11.278  11.677   0.562  0.0243  1.0256  0.0983
  381MOL0     C51333  11.405  11.709   0.605 -0.0747  0.0112  0.0354
  381MOL0     C51334  11.435  11.768   0.729  0.3425  0.1393  0.8012
  381MOL0     O51335  11.566  11.773   0.776 -0.1184 -0.2143 -0.2273
  381MOL0     C51336  11.657  11.843   0.692  0.1335  0.0611 -0.1977
  381MOL0     C51337  11.781  11.757   0.684 -0.2751 -0.0124  0.1464
  381MOL0     C51338  11.910  11.821   0.619 -0.3630 -1.1883 -0.3263
  381MOL0     C51339  11.969  11.928   0.716 -0.5638 -0.5777  0.7358
  381MOL0     C51340  12.102  11.975   0.653 -0.7321 -0.2527 -0.1596
  381MOL0     C51341  12.215  11.875   0.675 -0.7658 -0.2610  0.3355
  381MOL0     C51342  12.356  11.936   0.663 -0.3063  0.0070 -0.9193
  381MOL0     C51343  12.467  11.831   0.688  0.3249  1.6265 -0.5154
  381MOL0    Cl51344  12.613  11.913   0.742  0.1111  0.0381  0.5620
  381MOL0     C51345  11.328  11.787   0.817  1.0712  0.2563  0.4857
  381MOL0     C51346  11.201  11.740   0.783 -0.0692 -0.5616 -0.1665
  381MOL0     O51347  11.018  11.471   0.737  0.1866  0.1964 -0.2306
  381MOL0     C51348  10.751  11.442   0.669 -0.1837 -0.4740  0.8658
  381MOL0     C51349  10.614  11.436   0.646 -0.4631 -0.2073  0.1252
  381MOL0     N51350  10.387  11.040   0.367  0.4046  0.0881  0.1274
  381MOL0     N51351  10.467  10.961   0.426 -1.2540  0.0402 -0.4223
  381MOL0     C51352   9.536  10.297   0.914 -0.2906  0.6489 -0.7671
  381MOL0     C51353   9.434  10.256   0.998 -0.8183  0.9230  0.1963
  381MOL0     C51354   9.087  10.263   1.302  0.7492 -0.2842  0.3834
  381MOL0     C51355   8.978  10.291   1.214 -0.1362 -0.2673  0.1095
  381MOL0     C51356   8.841  10.262   1.241 -0.2065 -0.8247 -0.7899
  381MOL0     C51357   8.802  10.213   1.363 -0.1044  0.4191  0.4037
  381MOL0     O51358   8.673  10.178   1.398  1.2037  0.2937  0.1908
  381MOL0     C51359   8.554  10.230   1.334  0.1983  0.2321 -0.4665
  381MOL0     C51360   8.440  10.231   1.434 -0.5736 -0.2656 -0.2996
  381MOL0     C51361   8.439  10.345   1.537  0.0228 -0.3639 -0.2630
  381MOL0     C51362   8.354  10.309   1.662 -0.8824 -0.0678 -0.1103
  381MOL0     C51363   8.222  10.255   1.619  0.2431  0.0992  0.3206
  381MOL0     C51364   8.112  10.214   1.600 -0.0142 -0.2995  0.1700
  381MOL0     C51365   8.907  10.172   1.451 -0.6551  0.5626 -0.1095
  381MOL0     C51366   9.050  10.191   1.418 -0.0984  0.0820  0.0882
  381MOL0     C51367   9.152  10.139   1.503 -0.1900  0.1306  0.7233
  381MOL0     H51368   9.312  10.553   1.093 -2.0706 -1.3993 -0.4552
  381MOL0     H51369   9.538  10.622   0.992 -1.6731  1.2161 -4.2985
  381MOL0     H51370   9.808  10.591   0.930 -0.4649 -1.1027  1.9769
  381MOL0     H51371   9.847  10.424   0.963 -0.9564  0.2452  0.3201
  381MOL0     H51372   9.875  10.532   0.675  2.2761 -0.1617 -1.8101
  381MOL0     H51373   9.940  10.386   0.763 -1.7456 -1.7298  1.6611
  381MOL0     H51374  10.075  10.518   0.893 -2.9807 -0.9781  1.2085
  381MOL0     H51375  10.000  10.677   0.844 -0.4512 -0.2729 -1.4239
  381MOL0     H51376  10.140  10.497   0.650  0.6259  0.1763  0.3524
  381MOL0     H51377  10.078  10.659   0.618 -1.9942 -2.0493 -0.4719
  381MOL0     H51378  10.251  10.754   0.785  0.6502  0.2796 -0.8698
  381MOL0     H51379  10.304  10.585   0.810 -1.0466  1.2648  1.4203
  381MOL0     H51380  10.334  10.570   0.558 -4.7097 -1.1541 -1.1762
  381MOL0     H51381  10.274  10.730   0.543 -1.5635 -2.4259 -0.6883
  381MOL0     H51382  10.526  10.709   0.531  0.0406  1.3843  0.1199
  381MOL0     H51383  10.517  10.659   0.710 -1.0246 -0.3821 -0.5180
  381MOL0     H51384  10.426  10.887   0.760 -0.6680  2.9936 -0.6073
  381MOL0     H51385  10.579  10.899   0.679  0.4376  0.0274 -1.2030
  381MOL0     H51386  10.249  11.039   0.668 -2.1584 -2.7015 -0.8138
  381MOL0     H51387  10.151  11.202   0.332 -1.5668  0.8225 -0.0954
  381MOL0     H51388  10.105  11.159   0.494 -0.6996 -2.3071 -1.4835
  381MOL0     H51389  10.174  11.395   0.488  0.1255 -0.1325 -0.6407
  381MOL0     H51390  10.279  11.299   0.595 -2.6048 -0.2630 -0.3352
  381MOL0     H51391  10.330  11.336   0.300  1.3200 -0.9718  0.1223
  381MOL0     H51392  10.451  11.305   0.419  1.6872  0.1635 -3.0351
  381MOL0     H51393  10.310  11.560   0.365  0.3747  2.1096  0.0086
  381MOL0     H51394  10.484  11.543   0.352  2.0516  0.0578  1.9022
  381MOL0     H51395  10.577  11.728   0.489 -0.4129 -0.5065  0.9438
  381MOL0     H51396  10.826  11.737   0.541  3.6703 -1.0112  1.3914
  381MOL0     H51397  11.255  11.624   0.470 -1.2987 -0.9070  1.4454
  381MOL0     H51398  11.490  11.700   0.538 -1.0869  0.1258 -1.2992
  381MOL0     H51399  11.620  11.864   0.591  0.1607  2.4020  0.2284
  381MOL0     H51400  11.677  11.939   0.741 -1.8129  1.6521 -2.3045
  381MOL0     H51401  11.814  11.720   0.781  3.0074 -2.8199 -1.7873
  381MOL0     H51402  11.745  11.673   0.624  0.0937  1.5263 -2.3760
  381MOL0     H51403  11.985  11.745   0.595  0.7927  0.2589 -1.3640
  381MOL0     H51404  11.886  11.866   0.522  0.8472 -2.4866 -1.2652
  381MOL0     H51405  11.992  11.886   0.814  2.2909  0.1077  0.4330
  381MOL0     H51406  11.903  12.015   0.727  1.3072  0.9020  0.7421
  381MOL0     H51407  12.120  12.079   0.680  0.0490 -0.0166 -1.5365
  381MOL0     H51408  12.104  11.972   0.544  1.4530 -0.3512 -0.1589
  381MOL0     H51409  12.204  11.837   0.777 -0.3222  0.2759  0.5878
  381MOL0     H51410  12.212  11.793   0.602 -0.4878 -0.7739  0.8901
  381MOL0     H51411  12.364  12.019   0.734  0.3066  0.9631 -2.0772
  381MOL0     H51412  12.355  11.982   0.564 -2.8786  2.4965  0.1450
  381MOL0     H51413  12.434  11.761   0.765  0.0887  0.5406 -1.5722
  381MOL0     H51414  12.484  11.770   0.598  1.3771 -0.5031  1.0373
  381MOL0     H51415  11.359  11.815   0.918  2.3368 -1.7494  0.7146
  381MOL0     H51416  11.117  11.736   0.853 -1.7458 -2.3604 -2.1327
  381MOL0     H51417  10.801  11.354   0.709 -0.0048 -1.3164 -1.0874
  381MOL0     H51418  10.558  11.351   0.682 -0.0577 -0.4674  0.1463
  381MOL0     H51419   9.598  10.222   0.866 -0.7977  0.8551 -1.7910
  381MOL0     H51420   9.426  10.148   1.007 -1.9813  0.8975 -0.9890
  381MOL0     H51421   9.006  10.328   1.115 -0.5506 -1.4385 -0.4647
  381MOL0     H51422   8.766  10.284   1.165  1.1709  3.7122 -1.1731
  381MOL0     H51423   8.520  10.170   1.250 -2.7533 -1.5666  1.8240
  381MOL0     H51424   8.564  10.337   1.311  1.4549  0.1296 -0.4919
  381MOL0     H51425   8.429  10.133   1.482 -0.4349 -0.8015 -1.3171
  381MOL0     H51426   8.349  10.239   1.373  0.3819 -0.4006 -1.8075
  381MOL0     H51427   8.426  10.444   1.492  3.5280 -0.2840 -1.4269
  381MOL0     H51428   8.539  10.354   1.580 -0.3064 -0.1492  0.4801
  381MOL0     H51429   8.408  10.228   1.710 -2.5897 -1.0286  0.2818
  381MOL0     H51430   8.352  10.397   1.728  0.8191  1.3031 -1.7918
  381MOL0     H51431   8.021  10.160   1.582  0.3041 -1.1618  1.1012
  381MOL0     H51432   8.879  10.115   1.539 -2.6165  0.3496 -0.8125
  381MOL0     H51433   9.218  10.081   1.438 -1.2840  1.6266 -1.8509
  381MOL0     H51434   9.209  10.223   1.544  5.0471 -2.9408  0.7209
  381MOL0     H51435   9.109  10.078   1.583 -1.8067 -0.6073 -0.6423
  382MOL0     O51436   6.428   0.730   3.443 -0.9132 -0.5246  0.6103
  382MOL0     C51437   6.499   0.702   3.344  0.2775 -0.4382  0.2626
  382MOL0     O51438   6.611   0.766   3.301  0.1916 -0.0901  0.8888
  382MOL0     C51439   6.671   0.846   3.389  0.1356  0.7716 -0.2912
  382MOL0     C51440   6.706   0.972   3.349  0.1042 -1.2967 -0.2037
  382MOL0     C51441   6.775   1.063   3.434 -0.3222  0.6959 -0.2556
  382MOL0     C51442   6.799   1.015   3.568 -1.7019  0.4977  0.3249
  382MOL0     O51443   6.868   1.087   3.658  0.6939 -0.6777  0.7021
  382MOL0     C51444   6.845   1.226   3.671 -0.2031 -0.1139 -0.5592
  382MOL0     C51445   6.919   1.274   3.795  0.0123  0.1421  0.1779
  382MOL0     C51446   6.888   1.423   3.817  0.3619  0.4223  0.4685
  382MOL0     C51447   7.000   1.494   3.885 -0.4430 -0.0632 -0.4754
  382MOL0     C51448   6.969   1.627   3.953 -0.1638  0.4719  0.2013
  382MOL0     C51449   7.097   1.702   3.986  0.2283 -0.4277  0.2785
  382MOL0     C51450   7.058   1.813   4.095 -0.4027 -0.2691  0.3149
  382MOL0     C51451   7.173   1.914   4.109  0.1029 -0.9245 -0.4943
  382MOL0     N51452   7.285   1.862   4.183 -0.1013 -0.0020  1.6908
  382MOL0     C51453   7.391   1.789   4.133  0.3559 -0.6521 -0.3212
  382MOL0     C51454   7.461   1.755   4.242  0.2941 -1.3997 -0.5313
  382MOL0     C51455   7.597   1.688   4.249 -0.2932 -0.7285  0.3175
  382MOL0     C51456   7.576   1.541   4.222 -0.6485  0.0020  0.2387
  382MOL0     C51457   7.706   1.463   4.216  0.5735  0.0047  0.4616
  382MOL0     C51458   7.785   1.483   4.085  0.0345 -0.6146 -0.1027
  382MOL0     O51459   7.880   1.382   4.067  0.1315 -0.4102  0.0674
  382MOL0     C51460   8.003   1.414   4.025 -0.6070  0.1518 -0.4261
  382MOL0     C51461   8.048   1.537   3.967 -0.3366 -0.5034 -1.2732
  382MOL0     C51462   8.178   1.543   3.928  0.8548 -0.0656  0.6368
  382MOL0     C51463   8.272   1.447   3.945 -0.3154  0.5025 -0.0941
  382MOL0     C51464   8.400   1.465   3.881 -0.6552 -0.2153  0.0383
  382MOL0     O51465   8.420   1.565   3.789  0.6296  0.3042 -0.0423
  382MOL0     C51466   8.542   1.589   3.739 -0.0665 -0.2393 -0.1688
  382MOL0     C51467   8.565   1.553   3.609 -0.1934 -1.4284  0.3336
  382MOL0     C51468   8.678   1.604   3.547 -0.5029 -0.4024 -1.4160
  382MOL0     C51469   8.774   1.677   3.613 -0.1731 -0.8766  0.4706
  382MOL0     O51470   8.877   1.716   3.530 -0.3560  0.9627 -0.5481
  382MOL0     C51471   9.001   1.766   3.583  0.2986  0.2542  0.0839
  382MOL0     C51472   9.104   1.741   3.480  0.3657 -0.2227 -0.3833
  382MOL0     C51473   9.231   1.832   3.488  0.2579 -0.1867 -0.2887
  382MOL0     C51474   9.346   1.808   3.384  0.2439  0.7391 -0.3252
  382MOL0     C51475   9.475   1.894   3.423 -0.0300  0.6882  0.5543
  382MOL0     C51476   9.590   1.834   3.337  0.0676  0.3774  0.0044
  382MOL0     C51477   9.715   1.918   3.349  0.5744  0.2630 -0.0483
  382MOL0     C51478   9.830   1.874   3.260 -0.5545  0.5785  0.4604
  382MOL0    Cl51479   9.882   1.700   3.280 -0.0079 -0.6145 -0.2384
  382MOL0     C51480   8.754   1.710   3.747  0.6928 -0.2283 -0.9956
  382MOL0     C51481   8.635   1.666   3.811 -0.5039 -0.1733  0.1937
  382MOL0     O51482   8.475   1.377   3.905 -0.1995 -0.7804 -0.1037
  382MOL0     C51483   8.231   1.319   4.011 -0.0775 -0.8585 -0.2938
  382MOL0     C51484   8.101   1.314   4.043 -0.0409  0.1703  0.2132
  382MOL0     N51485   7.396   1.798   4.355  0.8929  0.2269 -0.0384
  382MOL0     N51486   7.289   1.872   4.318 -0.0791 -0.1688 -0.4113
  382MOL0     C51487   6.777   0.882   3.597  0.5010  0.7523  0.4371
  382MOL0     C51488   6.708   0.800   3.513  0.2574  0.3490 -0.2582
  382MOL0     C51489   6.442   0.602   3.255 -0.6693  0.1758 -0.8198
  382MOL0     C51490   6.411   0.635   3.125 -0.0458 -0.5730  0.1100
  382MOL0     C51491   6.354   0.538   3.041 -0.8457 -0.4146 -0.2037
  382MOL0     C51492   6.347   0.407   3.084  1.2808  0.8243 -0.0209
  382MOL0     O51493   6.296   0.313   3.001  0.2532  0.3557  0.3454
  382MOL0     C51494   6.162   0.276   3.034 -0.0423  0.1088  0.3899
  382MOL0     C51495   6.058   0.392   3.018  0.2865 -0.4294 -0.4031
  382MOL0     C51496   5.919   0.355   2.981 -0.0176  0.0338  1.2267
  382MOL0     C51497   5.893   0.304   2.830 -0.1954 -0.1055  0.0780
  382MOL0     C51498   5.750   0.276   2.804  0.0346 -0.2711 -0.0714
  382MOL0     C51499   5.630   0.267   2.794 -0.1877 -0.4539  0.2645
  382MOL0     C51500   6.373   0.366   3.214  0.1203 -0.4339 -0.5899
  382MOL0     C51501   6.416   0.467   3.302  0.6117 -0.2012 -0.1643
  382MOL0     C51502   6.437   0.434   3.444 -0.0154 -0.0797  0.1189
  382MOL0     H51503   6.682   1.003   3.248  1.1996 -3.6032 -1.2510
  382MOL0     H51504   6.794   1.160   3.392  0.4678 -0.0181 -1.5969
  382MOL0     H51505   6.871   1.292   3.587 -1.1461  0.4098 -0.4494
  382MOL0     H51506   6.739   1.241   3.688  0.2697 -0.8932  4.2871
  382MOL0     H51507   7.026   1.253   3.780 -0.2365 -1.6964  0.6985
  382MOL0     H51508   6.905   1.225   3.892  0.6415 -0.2366  0.0827
  382MOL0     H51509   6.804   1.423   3.888  0.1003  1.8945  0.1893
  382MOL0     H51510   6.854   1.478   3.729  0.1707 -1.8235 -0.9502
  382MOL0     H51511   7.054   1.431   3.956 -0.6848  0.3266  0.0652
  382MOL0     H51512   7.085   1.520   3.821 -0.0292  1.7132  0.7125
  382MOL0     H51513   6.909   1.686   3.883  1.7915 -1.0501 -2.9828
  382MOL0     H51514   6.913   1.613   4.046  0.3946  4.0878  1.2682
  382MOL0     H51515   7.175   1.634   4.021  0.6240 -0.9958 -1.6242
  382MOL0     H51516   7.126   1.746   3.891  0.2540 -0.6524  0.1810
  382MOL0     H51517   7.043   1.761   4.190  0.6026  0.1817  0.7351
  382MOL0     H51518   6.970   1.875   4.075 -0.3997  0.5457  2.5722
  382MOL0     H51519   7.203   1.948   4.010 -3.1750  0.1287 -1.2529
  382MOL0     H51520   7.143   1.999   4.171  0.4810 -2.1424  1.4715
  382MOL0     H51521   7.416   1.760   4.032 -0.1808  0.4094 -0.7708
  382MOL0     H51522   7.662   1.739   4.176  0.0085 -1.4459  0.0781
  382MOL0     H51523   7.624   1.709   4.353 -3.8963  1.5703  0.9599
  382MOL0     H51524   7.513   1.497   4.300  0.2842 -1.6101  0.1553
  382MOL0     H51525   7.523   1.539   4.127 -3.0028  0.0161  1.4919
  382MOL0     H51526   7.670   1.361   4.232  0.9316  0.1497  2.4261
  382MOL0     H51527   7.767   1.494   4.302 -0.0117  1.7215  0.2975
  382MOL0     H51528   7.825   1.585   4.086  1.0966 -1.0147  1.5196
  382MOL0     H51529   7.714   1.482   4.001  0.7900  0.0154 -0.7714
  382MOL0     H51530   7.987   1.626   3.947  0.3911  0.0087 -1.2449
  382MOL0     H51531   8.214   1.628   3.871  0.6116 -0.9568 -0.9358
  382MOL0     H51532   8.486   1.494   3.562 -0.3786 -1.1266  0.2623
  382MOL0     H51533   8.708   1.555   3.455  2.4396 -2.2202  0.3698
  382MOL0     H51534   8.995   1.875   3.594 -0.3660  0.3073 -0.7433
  382MOL0     H51535   9.027   1.729   3.683 -0.0073  1.0922  0.4827
  382MOL0     H51536   9.121   1.633   3.481  1.1376 -0.1047  0.9046
  382MOL0     H51537   9.058   1.768   3.384  0.7661  1.3571 -0.1567
  382MOL0     H51538   9.206   1.938   3.495  3.1109  0.4576  3.5366
  382MOL0     H51539   9.269   1.815   3.589 -1.2975 -4.0909 -0.1844
  382MOL0     H51540   9.308   1.829   3.284  0.4714  0.8679 -0.3834
  382MOL0     H51541   9.372   1.703   3.398  2.1823  1.2610  0.2453
  382MOL0     H51542   9.497   1.890   3.530 -1.6348  0.0851  0.8984
  382MOL0     H51543   9.458   1.997   3.391 -3.4151  0.8555  2.3580
  382MOL0     H51544   9.615   1.736   3.379  0.8119  0.8380  0.6734
  382MOL0     H51545   9.558   1.808   3.236 -1.2326 -1.2972  0.7968
  382MOL0     H51546   9.748   1.929   3.453  1.3600  0.1115 -0.2782
  382MOL0     H51547   9.705   2.024   3.325  0.9189  0.1735 -0.6116
  382MOL0     H51548   9.814   1.896   3.154  1.9190 -1.8147 -0.5296
  382MOL0     H51549   9.915   1.936   3.291 -0.4487 -0.3675  2.1256
  382MOL0     H51550   8.836   1.759   3.798 -0.1144 -0.2393  0.3668
  382MOL0     H51551   8.616   1.695   3.914 -0.5243  4.4578 -0.8669
  382MOL0     H51552   8.292   1.231   4.027  0.4921 -0.3774  0.2105
  382MOL0     H51553   8.063   1.221   4.084 -1.8709  1.6077  1.9626
  382MOL0     H51554   6.798   0.852   3.699 -0.7605 -0.4164  0.3820
  382MOL0     H51555   6.676   0.704   3.552 -4.2352  0.3896 -3.1860
  382MOL0     H51556   6.425   0.733   3.079 -2.7328 -0.1475  0.0335
  382MOL0     H51557   6.323   0.553   2.938  1.0121  0.9320 -0.6368
  382MOL0     H51558   6.149   0.216   3.125 -0.7935 -0.9744 -0.4105
  382MOL0     H51559   6.155   0.201   2.955  2.9888  0.0649  0.0512
  382MOL0     H51560   6.092   0.472   2.951  1.6754 -2.0125 -1.6706
  382MOL0     H51561   6.066   0.446   3.113  2.0982  0.6130 -1.0844
  382MOL0     H51562   5.859   0.445   2.994 -0.9058 -0.6247  1.7839
  382MOL0     H51563   5.873   0.280   3.047 -1.2295 -0.9685 -0.6711
  382MOL0     H51564   5.939   0.386   2.773  1.1101  1.2293  2.8474
  382MOL0     H51565   5.947   0.210   2.810  2.8783  1.3446  0.8426
  382MOL0     H51566   5.525   0.255   2.775 -0.3478  0.5557  0.4592
  382MOL0     H51567   6.355   0.261   3.238 -4.0622 -0.5222 -3.0782
  382MOL0     H51568   6.373   0.498   3.506 -0.5933 -1.4551  1.0053
  382MOL0     H51569   6.410   0.329   3.458 -1.2759  0.3057  0.6795
  382MOL0     H51570   6.541   0.445   3.476 -0.5435 -1.2432  2.5011
  383MOL0     O51571   6.971   1.331   2.915 -0.3641  0.4507 -0.3876
  383MOL0     C51572   7.052   1.257   2.859 -0.0004 -0.0520 -0.2222
  383MOL0     O51573   7.149   1.184   2.920 -0.0923  0.1518 -0.0635
  383MOL0     C51574   7.146   1.200   3.061  0.7369 -0.3421  0.0199
  383MOL0     C51575   7.075   1.123   3.147 -0.1060  0.2241  0.0016
  383MOL0     C51576   7.095   1.137   3.285  0.9891 -0.5541 -0.0170
  383MOL0     C51577   7.189   1.223   3.341  0.4177 -0.4995 -0.0307
  383MOL0     O51578   7.201   1.229   3.480  0.0052 -0.1008 -0.0059
  383MOL0     C51579   7.312   1.296   3.536  0.3182  0.1884 -0.6738
  383MOL0     C51580   7.301   1.267   3.696 -0.6807  0.1997 -0.4877
  383MOL0     C51581   7.438   1.281   3.762 -0.3301 -0.0828 -0.0875
  383MOL0     C51582   7.506   1.148   3.775  0.2125  0.2745  0.1495
  383MOL0     C51583   7.644   1.132   3.838  0.2482 -0.3018  0.3638
  383MOL0     C51584   7.738   1.033   3.773 -0.1784 -0.0574 -0.1760
  383MOL0     C51585   7.863   1.014   3.869 -0.8464 -0.2895 -0.0303
  383MOL0     C51586   7.958   0.902   3.818 -0.6028 -0.0748 -0.0761
  383MOL0     N51587   8.061   0.946   3.720  0.0587  0.6404  0.2128
  383MOL0     C51588   8.170   1.017   3.745  0.3401 -0.3495 -1.2523
  383MOL0     C51589   8.213   1.056   3.626 -0.0479  0.3145 -0.1449
  383MOL0     C51590   8.344   1.136   3.596  0.0233  0.2994 -0.2082
  383MOL0     C51591   8.470   1.046   3.587  0.3377 -0.9639  0.4562
  383MOL0     C51592   8.599   1.123   3.543 -0.5467 -0.6346  0.0823
  383MOL0     C51593   8.666   1.191   3.669  0.0938  1.0878 -0.0966
  383MOL0     O51594   8.785   1.268   3.630  0.5232  0.5036  0.3201
  383MOL0     C51595   8.889   1.209   3.556  0.4158  0.9310  0.2903
  383MOL0     C51596   8.982   1.293   3.485  0.0549  0.6995 -0.3657
  383MOL0     C51597   9.097   1.239   3.418 -1.1728 -1.1163 -0.8125
  383MOL0     C51598   9.128   1.099   3.413  0.5967 -0.5551  0.0506
  383MOL0     C51599   9.251   1.049   3.336  0.1887 -0.6195  0.7587
  383MOL0     O51600   9.288   0.917   3.321  0.2180  0.1974  0.2942
  383MOL0     C51601   9.415   0.897   3.263 -0.5333 -0.4836  0.6832
  383MOL0     C51602   9.529   0.948   3.335  0.3331  0.3021 -0.2141
  383MOL0     C51603   9.652   0.936   3.269  0.2351 -0.0671  0.4622
  383MOL0     C51604   9.664   0.873   3.142 -0.2452 -0.6290  0.3116
  383MOL0     O51605   9.787   0.855   3.089 -0.1724  0.0638  0.4241
  383MOL0     C51606   9.816   0.826   2.950 -0.0005 -0.1914  0.1823
  383MOL0     C51607   9.967   0.813   2.915  0.1629 -0.5556  0.1271
  383MOL0     C51608  10.057   0.913   2.985 -0.0608 -0.3850  0.1866
  383MOL0     C51609  10.201   0.895   2.948 -1.2901  1.2050 -0.7573
  383MOL0     C51610  10.286   0.992   3.030 -0.6235 -0.3990  0.3827
  383MOL0     C51611  10.440   0.978   3.009 -1.0227 -0.2140  0.1286
  383MOL0     C51612  10.493   0.843   3.045 -0.0299  0.4630 -0.0988
  383MOL0     C51613  10.644   0.840   3.040 -0.9129 -0.0933 -0.0253
  383MOL0    Cl51614  10.689   0.848   2.866  0.3434  0.2347  0.1815
  383MOL0     C51615   9.553   0.816   3.088 -0.0114 -0.0197 -0.4239
  383MOL0     C51616   9.433   0.833   3.138 -0.2726  0.3432 -0.7445
  383MOL0     O51617   9.303   1.139   3.271 -0.3355 -0.9642 -0.1269
  383MOL0     C51618   9.036   1.012   3.475 -0.5412 -0.0701  0.3155
  383MOL0     C51619   8.923   1.066   3.550  0.2559 -0.3001  0.9051
  383MOL0     N51620   8.140   1.002   3.519  0.6954 -0.5679 -0.6728
  383MOL0     N51621   8.045   0.924   3.586  0.2049 -1.0732  0.7105
  383MOL0     C51622   7.262   1.300   3.247  0.2536  0.1238  0.0899
  383MOL0     C51623   7.237   1.291   3.113 -0.0968  0.1486 -0.0218
  383MOL0     C51624   7.015   1.230   2.721  0.1776 -0.5402 -0.8033
  383MOL0     C51625   6.909   1.313   2.666 -0.0800  0.1430 -0.0182
  383MOL0     C51626   6.854   1.282   2.543 -0.7672  1.0415  0.3484
  383MOL0     C51627   6.905   1.178   2.464  0.4552 -0.2338 -0.4719
  383MOL0     O51628   6.859   1.146   2.334 -0.3797  0.1986  0.1359
  383MOL0     C51629   6.763   1.234   2.266 -0.1955 -0.4769  0.5447
  383MOL0     C51630   6.776   1.224   2.109  0.1062 -0.1512  0.0950
  383MOL0     C51631   6.742   1.087   2.051 -1.0361 -0.1703 -0.5018
  383MOL0     C51632   6.617   1.098   1.968 -0.0820 -0.6381 -0.8635
  383MOL0     C51633   6.495   1.108   2.055  0.0984  0.4823  0.6239
  383MOL0     C51634   6.394   1.105   2.124  0.4605 -0.0882  0.6656
  383MOL0     C51635   7.012   1.107   2.517  0.1261 -0.4198 -0.3547
  383MOL0     C51636   7.070   1.127   2.645 -0.1245  0.5364  0.4073
  383MOL0     C51637   7.180   1.039   2.688  0.6728 -0.3450 -0.1297
  383MOL0     H51638   7.007   1.042   3.120  0.5711 -0.4805  0.3575
  383MOL0     H51639   7.049   1.055   3.340  2.6614 -1.2415  0.3996
  383MOL0     H51640   7.410   1.262   3.501  2.1955  2.0113  2.3392
  383MOL0     H51641   7.307   1.403   3.514  1.8536  0.4907  0.3112
  383MOL0     H51642   7.245   1.177   3.723 -1.2198  0.8674  0.7187
  383MOL0     H51643   7.235   1.337   3.747 -1.5328 -1.2873  0.5122
  383MOL0     H51644   7.447   1.330   3.859  2.0116 -0.7001  0.0703
  383MOL0     H51645   7.501   1.341   3.696  2.3358  0.2711  2.5414
  383MOL0     H51646   7.445   1.075   3.829 -0.0709  1.6630  1.7677
  383MOL0     H51647   7.522   1.112   3.672 -1.1784  0.9468 -0.3141
  383MOL0     H51648   7.679   1.234   3.818 -4.1150  1.1275 -1.0718
  383MOL0     H51649   7.638   1.101   3.943  0.0445  0.3116  0.5325
  383MOL0     H51650   7.696   0.934   3.753  2.8703 -1.2954 -1.0480
  383MOL0     H51651   7.777   1.064   3.675 -0.3973 -0.4960 -0.4055
  383MOL0     H51652   7.831   0.984   3.970 -1.9471 -1.6167 -0.7421
  383MOL0     H51653   7.918   1.108   3.878  1.4061 -1.4577 -0.8219
  383MOL0     H51654   8.006   0.884   3.914 -0.5698 -0.0242 -0.0837
  383MOL0     H51655   7.908   0.811   3.783  0.2084 -1.6284  2.5518
  383MOL0     H51656   8.229   1.030   3.835  1.4948 -0.2654 -1.9919
  383MOL0     H51657   8.327   1.182   3.498 -0.8563 -2.8372 -1.6539
  383MOL0     H51658   8.361   1.218   3.667  2.3300  0.0042 -0.3435
  383MOL0     H51659   8.491   0.976   3.668 -0.4214 -3.1073 -1.0835
  383MOL0     H51660   8.457   0.960   3.520  1.7313 -1.6891  1.0764
  383MOL0     H51661   8.576   1.192   3.461 -4.5178 -1.7555  0.0080
  383MOL0     H51662   8.665   1.050   3.495  2.9898  1.7707  0.9525
  383MOL0     H51663   8.697   1.118   3.744 -2.1919  1.2055  1.0316
  383MOL0     H51664   8.593   1.258   3.716  0.4105  0.6177  1.1051
  383MOL0     H51665   8.978   1.399   3.507 -0.5874  0.3574  1.2605
  383MOL0     H51666   9.162   1.312   3.370 -1.8434  1.1058  1.4632
  383MOL0     H51667   9.515   0.995   3.432  1.5107 -1.2234  0.7616
  383MOL0     H51668   9.743   0.973   3.314 -0.7991  1.9295  1.0229
  383MOL0     H51669   9.765   0.739   2.908 -3.3887  1.0318  1.4140
  383MOL0     H51670   9.786   0.909   2.885  2.1542 -0.8445 -1.7849
  383MOL0     H51671  10.002   0.713   2.942  1.2655 -1.0490 -2.7513
  383MOL0     H51672   9.983   0.815   2.807 -2.5614 -1.3976 -0.3698
  383MOL0     H51673  10.037   1.017   2.958  0.0666 -1.3297 -4.2874
  383MOL0     H51674  10.051   0.904   3.094 -0.5158  2.2621  0.4432
  383MOL0     H51675  10.226   0.894   2.841 -0.0767 -1.9333 -0.5420
  383MOL0     H51676  10.221   0.792   2.981 -1.8909  1.6020  0.9321
  383MOL0     H51677  10.263   0.977   3.136  0.6483 -2.1212  0.4592
  383MOL0     H51678  10.254   1.094   3.008 -0.9953 -0.2141  1.6792
  383MOL0     H51679  10.462   1.012   2.907 -2.5725  0.9178  0.1423
  383MOL0     H51680  10.485   1.040   3.087  1.4346  0.5664 -1.7502
  383MOL0     H51681  10.452   0.775   2.970  0.6277  0.9194 -0.8805
  383MOL0     H51682  10.459   0.809   3.144 -3.2141  1.2258 -0.8487
  383MOL0     H51683  10.683   0.926   3.096 -3.3646  0.2923  1.2312
  383MOL0     H51684  10.678   0.746   3.084 -1.1595 -0.8483 -1.4086
  383MOL0     H51685   9.563   0.748   3.004 -1.3918  0.2150 -0.8162
  383MOL0     H51686   9.344   0.800   3.084 -1.4410  0.6976  0.8994
  383MOL0     H51687   9.058   0.906   3.463 -2.5709 -0.2922 -2.4953
  383MOL0     H51688   8.856   1.001   3.604  0.5744 -2.0756 -0.7333
  383MOL0     H51689   7.343   1.365   3.278 -1.1922  0.6573  3.1600
  383MOL0     H51690   7.291   1.351   3.040 -0.5875  1.0942  0.3784
  383MOL0     H51691   6.859   1.390   2.724  1.4956  2.2913 -1.3837
  383MOL0     H51692   6.765   1.339   2.517  0.1452  2.0553 -0.6649
  383MOL0     H51693   6.768   1.338   2.297  2.1274 -0.3640  0.0231
  383MOL0     H51694   6.669   1.187   2.296  0.6466 -2.1188  0.7654
  383MOL0     H51695   6.877   1.256   2.081  0.6825 -1.1064  1.0311
  383MOL0     H51696   6.710   1.300   2.066  0.5098 -0.2537 -0.7402
  383MOL0     H51697   6.722   1.017   2.133  1.8331  0.7318  1.1242
  383MOL0     H51698   6.827   1.048   1.993  0.3505 -1.6185  2.2804
  383MOL0     H51699   6.611   1.191   1.912 -0.9744  1.1282  1.9267
  383MOL0     H51700   6.601   1.011   1.903  1.8450 -3.0769  1.6823
  383MOL0     H51701   6.306   1.115   2.184  0.0541  0.4702  0.0004
  383MOL0     H51702   7.060   1.033   2.454  1.4392  0.7052 -0.7119
  383MOL0     H51703   7.185   0.953   2.620 -2.6326  0.0856 -1.0849
  383MOL0     H51704   7.278   1.088   2.691  0.2233  1.1146 -4.1188
  383MOL0     H51705   7.169   0.994   2.787 -0.0403 -0.3281 -0.1983
  384MOL0     O51706  11.123   9.956   5.566 -0.9401  0.7607 -0.3354
  384MOL0     C51707  11.045   9.938   5.471 -0.6220  0.2758  0.2070
  384MOL0     O51708  11.058   9.841   5.374 -0.6954  0.1500 -1.0049
  384MOL0     C51709  11.166   9.752   5.381 -0.3046 -0.7999 -0.3886
  384MOL0     C51710  11.156   9.634   5.454 -0.1142  0.5505 -0.3828
  384MOL0     C51711  11.255   9.539   5.458 -0.3287  0.3018  0.4748
  384MOL0     C51712  11.374   9.560   5.388 -0.1756 -0.0182 -0.2666
  384MOL0     O51713  11.479   9.473   5.413  0.1641 -0.2663  0.7501
  384MOL0     C51714  11.524   9.450   5.544 -0.2207  0.5443 -0.1719
  384MOL0     C51715  11.679   9.428   5.544 -0.0064  0.9928 -0.0213
  384MOL0     C51716  11.701   9.301   5.460 -0.1252  0.2485 -0.5090
  384MOL0     C51717  11.829   9.237   5.507 -0.0775  0.0870  0.9100
  384MOL0     C51718  11.883   9.127   5.409 -0.5371 -0.7817 -0.3257
  384MOL0     C51719  12.017   9.075   5.453  1.4711  0.5856  1.0683
  384MOL0     C51720  12.051   8.971   5.339  0.1645 -0.5341 -0.5475
  384MOL0     C51721  12.181   8.894   5.353  0.6585 -0.4999  0.9521
  384MOL0     N51722  12.296   8.979   5.382  0.5318  0.4630 -0.0964
  384MOL0     C51723  12.346   9.082   5.303  0.5024 -0.1057 -0.7224
  384MOL0     C51724  12.457   9.126   5.366  0.2128  0.5222  0.3575
  384MOL0     C51725  12.538   9.242   5.312  0.3181  0.5856  0.4556
  384MOL0     C51726  12.675   9.193   5.282 -0.6394  0.5426 -0.2903
  384MOL0     C51727  12.768   9.153   5.406  0.3003 -0.9438  0.0893
  384MOL0     C51728  12.909   9.127   5.366 -0.4064  0.0422  0.6179
  384MOL0     O51729  12.974   9.097   5.495 -0.5685 -0.1787 -0.4543
  384MOL0     C51730  13.110   9.106   5.526 -0.4209  0.2072 -1.0075
  384MOL0     C51731  13.203   9.173   5.446  0.2656 -0.0267  0.1559
  384MOL0     C51732  13.339   9.179   5.487 -0.8369  0.4716  0.2281
  384MOL0     C51733  13.378   9.118   5.612 -0.7936 -0.4883 -0.2132
  384MOL0     C51734  13.517   9.115   5.659 -0.0713  0.0279 -0.3780
  384MOL0     O51735  13.618   9.165   5.585 -0.5748 -0.0800  0.0876
  384MOL0     C51736  13.750   9.156   5.634 -0.1379  0.0908 -0.1832
  384MOL0     C51737  13.785   9.182   5.769 -0.0454 -0.0348  0.4173
  384MOL0     C51738  13.913   9.178   5.812  0.0890  0.6050 -0.1539
  384MOL0     C51739  14.012   9.160   5.722  0.7805  0.2087  0.5285
  384MOL0     O51740  14.142   9.153   5.764 -0.7123  0.0300  0.0864
  384MOL0     C51741  14.184   9.238   5.874 -0.3004  0.7418  0.0704
  384MOL0     C51742  14.290   9.338   5.833  0.2689  0.0329 -0.4382
  384MOL0     C51743  14.406   9.267   5.772 -0.5567 -0.0525 -1.1746
  384MOL0     C51744  14.521   9.372   5.780 -0.8667 -0.5214 -0.0145
  384MOL0     C51745  14.517   9.459   5.657 -0.1077 -0.7439 -0.4278
  384MOL0     C51746  14.584   9.600   5.682 -0.3715  0.5612 -0.4602
  384MOL0     C51747  14.584   9.674   5.551 -0.2408  0.3764 -0.1106
  384MOL0     C51748  14.583   9.831   5.562  0.3511  0.0415  0.0672
  384MOL0    Cl51749  14.726   9.887   5.646  0.1078 -0.0647  0.0308
  384MOL0     C51750  13.983   9.124   5.589 -0.7203  0.1751  0.7515
  384MOL0     C51751  13.851   9.128   5.542  0.7414  0.0804  0.4362
  384MOL0     O51752  13.528   9.074   5.776 -0.0202  0.4549 -0.0812
  384MOL0     C51753  13.276   9.051   5.691 -0.8723  0.3906 -0.2659
  384MOL0     C51754  13.142   9.052   5.647  0.0261 -0.1982 -1.1883
  384MOL0     N51755  12.471   9.046   5.480 -0.2306 -0.4080  0.0451
  384MOL0     N51756  12.373   8.964   5.487 -0.0303 -0.6178 -0.4057
  384MOL0     C51757  11.392   9.683   5.317  0.0652  0.9248  0.4867
  384MOL0     C51758  11.287   9.776   5.318  0.3925 -0.6881  0.0352
  384MOL0     C51759  10.922  10.021   5.464 -0.2072  0.0932 -0.4535
  384MOL0     C51760  10.909  10.117   5.566 -0.1631 -1.1771 -0.0311
  384MOL0     C51761  10.790  10.190   5.584 -0.1221  0.1241  1.0809
  384MOL0     C51762  10.690  10.168   5.484  0.5600  0.1939 -0.0991
  384MOL0     O51763  10.571  10.241   5.482 -0.5517 -0.0004  0.1683
  384MOL0     C51764  10.516  10.266   5.611 -0.6795  0.8651  0.4660
  384MOL0     C51765  10.364  10.280   5.601 -0.1173 -0.2391 -0.3350
  384MOL0     C51766  10.293  10.149   5.598  0.2373  0.5560  0.4721
  384MOL0     C51767  10.157  10.160   5.639 -0.2606  0.3374 -0.6854
  384MOL0     C51768  10.075  10.240   5.545 -0.6357  0.3610 -0.1513
  384MOL0     C51769   9.987  10.295   5.482  0.0413  0.1375  0.3567
  384MOL0     C51770  10.702  10.087   5.384  0.6428  0.8833  0.0384
  384MOL0     C51771  10.815  10.002   5.369  0.5595 -0.7444 -0.4256
  384MOL0     C51772  10.817   9.897   5.265  0.6603  0.6529 -0.4891
  384MOL0     H51773  11.070   9.611   5.516  0.2555 -1.0940 -0.4415
  384MOL0     H51774  11.252   9.454   5.524  2.5653 -1.1461 -1.0662
  384MOL0     H51775  11.503   9.536   5.607  1.9692 -0.5951  2.2831
  384MOL0     H51776  11.472   9.362   5.583 -0.4958  0.6853 -0.2210
  384MOL0     H51777  11.716   9.430   5.647 -2.3258 -0.3567  0.9244
  384MOL0     H51778  11.725   9.518   5.501 -2.2436  2.2359 -0.0124
  384MOL0     H51779  11.717   9.318   5.354 -2.2937  0.3949 -0.8577
  384MOL0     H51780  11.619   9.228   5.463  0.0385  0.0826  0.2656
  384MOL0     H51781  11.905   9.316   5.512 -0.6986  0.6203  2.6108
  384MOL0     H51782  11.810   9.183   5.601  0.1919 -2.8798 -0.6319
  384MOL0     H51783  11.818   9.040   5.405  0.4060 -1.4522 -2.1382
  384MOL0     H51784  11.882   9.163   5.306 -3.8838 -0.3670 -0.2563
  384MOL0     H51785  12.094   9.152   5.456  0.9586  1.1941 -0.3099
  384MOL0     H51786  11.997   9.022   5.546  3.5621 -1.9054  0.2330
  384MOL0     H51787  12.056   9.009   5.237 -1.8370  0.0175 -0.4872
  384MOL0     H51788  11.981   8.889   5.356 -3.3389  2.2312 -0.4460
  384MOL0     H51789  12.173   8.821   5.434  0.9238  1.0048  2.3898
  384MOL0     H51790  12.210   8.841   5.262 -0.6694  1.8323 -0.9470
  384MOL0     H51791  12.311   9.112   5.204  0.5960 -0.0596 -0.7424
  384MOL0     H51792  12.500   9.286   5.219 -1.5836 -2.1195 -0.1890
  384MOL0     H51793  12.550   9.319   5.388  0.4388  2.5457 -1.4573
  384MOL0     H51794  12.670   9.102   5.222  0.4053  0.3105 -0.0466
  384MOL0     H51795  12.727   9.268   5.223  0.0734  0.5408  0.3217
  384MOL0     H51796  12.730   9.063   5.455  1.4373 -1.1580  0.6100
  384MOL0     H51797  12.764   9.237   5.476 -3.1251  0.2992 -1.3839
  384MOL0     H51798  12.962   9.210   5.318  2.6954 -1.8946  0.4466
  384MOL0     H51799  12.903   9.040   5.299 -0.2271  1.0722 -0.7801
  384MOL0     H51800  13.171   9.208   5.349  0.7507 -1.8498 -0.6986
  384MOL0     H51801  13.422   9.216   5.428  1.5536 -2.3745  1.4978
  384MOL0     H51802  13.716   9.192   5.852  2.0169 -3.2087  2.7479
  384MOL0     H51803  13.921   9.197   5.919 -1.9282  1.2516 -0.0744
  384MOL0     H51804  14.105   9.299   5.917  1.8236  2.1022  2.3023
  384MOL0     H51805  14.231   9.176   5.951  0.4557  0.0339 -0.9281
  384MOL0     H51806  14.243   9.413   5.769 -1.7933  0.5668  1.5824
  384MOL0     H51807  14.303   9.380   5.933 -0.1249  0.9493 -0.7644
  384MOL0     H51808  14.435   9.185   5.838  0.5513  1.5455  0.4135
  384MOL0     H51809  14.392   9.224   5.673 -1.5666 -1.2668 -0.5254
  384MOL0     H51810  14.620   9.328   5.771  0.3115  1.6516  1.3710
  384MOL0     H51811  14.517   9.434   5.870  1.5216 -2.7154  1.7637
  384MOL0     H51812  14.416   9.481   5.622  0.5721 -0.2631 -2.1623
  384MOL0     H51813  14.557   9.392   5.581 -1.8459 -2.7854  0.3457
  384MOL0     H51814  14.531   9.658   5.757  0.6390 -1.5342  2.0189
  384MOL0     H51815  14.689   9.575   5.703 -0.2728  1.8052  0.6469
  384MOL0     H51816  14.504   9.640   5.485 -0.2466  0.7894 -0.3193
  384MOL0     H51817  14.673   9.646   5.496  0.4074 -0.2147  1.1898
  384MOL0     H51818  14.564   9.865   5.460  0.2276 -0.7287 -0.1756
  384MOL0     H51819  14.497   9.861   5.623 -0.6493 -0.1699 -1.1985
  384MOL0     H51820  14.070   9.111   5.525  1.1936  2.5097  2.6931
  384MOL0     H51821  13.833   9.118   5.435  3.9263 -2.0595 -0.0550
  384MOL0     H51822  13.290   9.005   5.788 -1.5022  1.5941  0.4128
  384MOL0     H51823  13.066   8.988   5.691  0.6840  0.5840  1.2662
  384MOL0     H51824  11.477   9.686   5.248  0.0104 -1.6740  0.2078
  384MOL0     H51825  11.291   9.860   5.250 -0.4836 -3.1056 -3.2537
  384MOL0     H51826  10.991  10.133   5.636 -0.5500 -2.0552  0.6394
  384MOL0     H51827  10.783  10.259   5.667  1.6027  1.4602  0.1899
  384MOL0     H51828  10.570  10.351   5.651  2.0710 -0.1025 -0.9157
  384MOL0     H51829  10.534  10.182   5.678  0.2147 -1.0086 -1.9356
  384MOL0     H51830  10.343  10.346   5.516  0.8131  3.0513  1.8043
  384MOL0     H51831  10.323  10.331   5.688  2.3975  0.2496  0.6690
  384MOL0     H51832  10.345  10.072   5.657  1.7517 -0.3388 -1.8895
  384MOL0     H51833  10.309  10.111   5.497  2.5503  0.0425  0.9682
  384MOL0     H51834  10.114  10.061   5.653 -0.6749  0.6488  0.2917
  384MOL0     H51835  10.160  10.208   5.737 -0.0716 -1.6200  0.3086
  384MOL0     H51836   9.908  10.349   5.434 -0.9726 -2.1725 -0.7268
  384MOL0     H51837  10.626  10.083   5.307  0.2799  0.9387  0.3976
  384MOL0     H51838  10.730   9.892   5.198 -0.1277 -2.2086  0.6034
  384MOL0     H51839  10.906   9.903   5.201  0.8295 -0.8873 -0.4358
  384MOL0     H51840  10.821   9.797   5.309 -0.2080  0.1897 -1.4106
  385MOL0     O51841   0.526   1.896   8.212  0.3137 -0.8111 -0.1983
  385MOL0     C51842   0.509   1.966   8.114  0.2229 -0.6632  1.1479
  385MOL0     O51843   0.600   2.060   8.071 -0.1054 -0.4118  0.0646
  385MOL0     C51844   0.701   2.096   8.151 -0.1792 -0.2633 -0.0258
  385MOL0     C51845   0.670   2.147   8.277 -0.0002 -0.5157  1.0037
  385MOL0     C51846   0.772   2.177   8.358  0.0416  0.0509  0.3551
  385MOL0     C51847   0.907   2.160   8.315  0.3915 -0.6819  0.5793
  385MOL0     O51848   1.011   2.186   8.392  0.3262 -0.0605 -0.1562
  385MOL0     C51849   0.977   2.270   8.504  0.0767  0.1954  0.2496
  385MOL0     C51850   1.097   2.296   8.600 -0.4532 -0.4996 -0.3709
  385MOL0     C51851   1.216   2.348   8.510  0.7851 -0.2182  0.0220
  385MOL0     C51852   1.337   2.362   8.591  0.3981 -0.3937 -0.3384
  385MOL0     C51853   1.460   2.417   8.524 -0.6775 -0.0913  0.6130
  385MOL0     C51854   1.565   2.466   8.622  0.5221  0.1780  0.4941
  385MOL0     C51855   1.688   2.514   8.533  0.3822  0.5992 -0.6001
  385MOL0     C51856   1.812   2.550   8.616  0.6362  0.7279  0.1798
  385MOL0     N51857   1.929   2.596   8.533  0.0154  0.2348  0.5812
  385MOL0     C51858   1.928   2.703   8.448  0.1272  0.7604 -0.7278
  385MOL0     C51859   2.050   2.708   8.390  0.3784  0.1211 -0.7587
  385MOL0     C51860   2.089   2.830   8.306 -0.2446  0.6693 -0.1327
  385MOL0     C51861   2.208   2.795   8.213  0.5737 -0.7489  0.7062
  385MOL0     C51862   2.227   2.897   8.095 -0.4907  0.0943 -0.4439
  385MOL0     C51863   2.265   3.040   8.158 -0.2796  0.2184 -0.3713
  385MOL0     O51864   2.393   3.051   8.221 -0.1498 -0.6720 -0.1160
  385MOL0     C51865   2.508   3.095   8.152 -0.0399 -0.4088  0.4087
  385MOL0     C51866   2.520   3.148   8.020  0.0778  0.3445 -0.5238
  385MOL0     C51867   2.638   3.182   7.965  0.0352 -0.6146 -0.2033
  385MOL0     C51868   2.751   3.181   8.046 -0.1491  0.7193 -0.5018
  385MOL0     C51869   2.885   3.231   7.996  0.9166  0.5323 -0.0214
  385MOL0     O51870   2.989   3.226   8.083 -0.6115  0.2154  0.4829
  385MOL0     C51871   3.108   3.276   8.043  0.3681 -1.0236  0.8192
  385MOL0     C51872   3.172   3.255   7.918 -0.1999 -0.4916 -0.0592
  385MOL0     C51873   3.297   3.318   7.907  0.3558  0.1166 -0.2666
  385MOL0     C51874   3.377   3.361   8.015 -0.7698  0.0643  0.0851
  385MOL0     O51875   3.500   3.403   8.003 -0.2932 -0.4986 -0.7205
  385MOL0     C51876   3.568   3.398   7.878  0.4675  0.1229  0.1721
  385MOL0     C51877   3.715   3.398   7.906 -0.9992  0.2371  0.4452
  385MOL0     C51878   3.793   3.421   7.776  0.1675 -0.2713  0.0514
  385MOL0     C51879   3.943   3.409   7.813 -0.0885  0.4389 -0.1648
  385MOL0     C51880   4.026   3.438   7.692 -1.3471  0.4837  0.4013
  385MOL0     C51881   4.182   3.430   7.725  0.3352  0.7498 -0.3504
  385MOL0     C51882   4.262   3.431   7.596  0.0599  0.0366  0.6651
  385MOL0     C51883   4.405   3.397   7.632 -0.3171  0.2791  1.2091
  385MOL0    Cl51884   4.501   3.369   7.474  0.0079  0.2038 -0.2887
  385MOL0     C51885   3.316   3.364   8.139 -0.1771 -0.9307  0.1970
  385MOL0     C51886   3.182   3.326   8.150  0.6002  0.0202  0.4714
  385MOL0     O51887   2.891   3.276   7.886 -0.1232  0.3162  0.0686
  385MOL0     C51888   2.750   3.126   8.183  0.4774  0.0562  0.1859
  385MOL0     C51889   2.621   3.096   8.235  0.9766  0.7197 -0.0893
  385MOL0     N51890   2.119   2.598   8.429  1.0655  0.4315 -0.0349
  385MOL0     N51891   2.044   2.526   8.506  0.4294 -0.0710 -0.2915
  385MOL0     C51892   0.940   2.117   8.187 -1.2247  0.0736  0.0759
  385MOL0     C51893   0.836   2.073   8.103  0.8559  0.0429  0.6538
  385MOL0     C51894   0.379   1.947   8.037 -0.5672 -0.0181 -0.8124
  385MOL0     C51895   0.281   1.871   8.111  0.2025 -0.4361 -0.4195
  385MOL0     C51896   0.159   1.850   8.052  0.1033 -0.0719 -0.7497
  385MOL0     C51897   0.124   1.899   7.931 -0.3916 -0.0166 -0.6617
  385MOL0     O51898   0.002   1.879   7.874 -0.3366 -0.7279  0.2358
  385MOL0     C51899  -0.112   1.824   7.942  0.1511  0.0927  0.4377
  385MOL0     C51900  -0.206   1.929   7.988 -0.0996 -0.1256  0.6963
  385MOL0     C51901  -0.156   1.972   8.126  0.0176  0.0753 -0.3182
  385MOL0     C51902  -0.220   1.884   8.236 -0.2340 -0.6009 -0.2489
  385MOL0     C51903  -0.243   1.954   8.371 -0.2587  0.5478 -0.3328
  385MOL0     C51904  -0.248   2.015   8.475  0.1552  0.6919 -0.0936
  385MOL0     C51905   0.223   1.968   7.864  0.2783  0.0176 -0.2237
  385MOL0     C51906   0.351   1.987   7.908  0.4343 -0.3757 -0.4151
  385MOL0     C51907   0.461   2.033   7.806 -0.3598 -0.7207 -0.1306
  385MOL0     H51908   0.567   2.168   8.305 -0.0746  3.4019 -1.3740
  385MOL0     H51909   0.741   2.212   8.456 -2.3910 -1.0071  0.0202
  385MOL0     H51910   0.942   2.369   8.476  2.2921  0.5557 -1.4613
  385MOL0     H51911   0.901   2.219   8.564 -1.2139  2.2693  0.4667
  385MOL0     H51912   1.121   2.208   8.660 -0.2759  0.5529  1.1739
  385MOL0     H51913   1.065   2.367   8.676 -0.0166  2.7726 -3.0222
  385MOL0     H51914   1.198   2.443   8.460  1.8270  0.8380  1.5677
  385MOL0     H51915   1.239   2.274   8.432 -1.4913  0.3832 -1.3164
  385MOL0     H51916   1.309   2.438   8.665  1.3025  0.6784 -1.0577
  385MOL0     H51917   1.366   2.275   8.651 -1.1920  0.0695  1.1806
  385MOL0     H51918   1.518   2.339   8.474  0.9951  1.6615 -0.3300
  385MOL0     H51919   1.426   2.485   8.446 -0.8041 -0.5841  0.2350
  385MOL0     H51920   1.524   2.546   8.684  0.1666 -0.7326  1.4528
  385MOL0     H51921   1.584   2.386   8.695 -4.9819 -0.4573  1.6326
  385MOL0     H51922   1.669   2.606   8.476 -0.4681  0.7911 -0.0349
  385MOL0     H51923   1.715   2.437   8.461  2.6691  0.5766  0.1864
  385MOL0     H51924   1.794   2.638   8.679 -1.2721  1.3799 -1.1692
  385MOL0     H51925   1.835   2.463   8.678  0.0321  0.2455 -0.2666
  385MOL0     H51926   1.855   2.781   8.430  1.7825  2.1671 -1.7760
  385MOL0     H51927   1.999   2.866   8.255 -1.5224 -1.2620  0.6365
  385MOL0     H51928   2.124   2.903   8.379 -2.4067  0.7093  0.9418
  385MOL0     H51929   2.302   2.785   8.268  0.5212 -0.4775  0.8444
  385MOL0     H51930   2.196   2.700   8.159  1.4538 -0.5636  0.1643
  385MOL0     H51931   2.139   2.898   8.030 -0.8592 -2.9734 -0.1452
  385MOL0     H51932   2.313   2.853   8.042 -1.0071  0.7033 -1.8438
  385MOL0     H51933   2.195   3.065   8.238  3.1497  1.8755  2.3655
  385MOL0     H51934   2.251   3.118   8.083  1.2136  1.2480  0.3853
  385MOL0     H51935   2.432   3.165   7.958  0.4077  0.5043 -0.9516
  385MOL0     H51936   2.646   3.228   7.867  0.1384  5.9417  2.3612
  385MOL0     H51937   3.120   3.207   7.835  0.7486 -2.5800  0.5010
  385MOL0     H51938   3.346   3.330   7.811  2.8478 -0.1053  0.8905
  385MOL0     H51939   3.555   3.304   7.824  3.3649 -0.2750  0.0078
  385MOL0     H51940   3.548   3.490   7.822 -4.1500 -0.5561  0.3411
  385MOL0     H51941   3.735   3.480   7.976  2.3189 -1.0115  1.1500
  385MOL0     H51942   3.740   3.298   7.944 -1.0053  0.5186  1.1960
  385MOL0     H51943   3.775   3.347   7.698 -2.7175 -0.0362  0.3735
  385MOL0     H51944   3.758   3.512   7.728 -0.4315 -0.6762 -0.2937
  385MOL0     H51945   3.963   3.312   7.859 -2.0850  1.2383  2.6099
  385MOL0     H51946   3.967   3.487   7.886  1.6618  1.1635 -1.4299
  385MOL0     H51947   4.002   3.535   7.647  1.9040  1.2456  0.0009
  385MOL0     H51948   4.012   3.362   7.615  2.9648  0.0770 -0.2239
  385MOL0     H51949   4.217   3.511   7.789  1.1329  1.2199 -1.3541
  385MOL0     H51950   4.202   3.332   7.769  1.7971  0.4160 -1.6640
  385MOL0     H51951   4.263   3.527   7.544  1.0398 -0.9138 -1.1648
  385MOL0     H51952   4.217   3.356   7.531 -0.4162  0.0934  0.9252
  385MOL0     H51953   4.448   3.482   7.684 -1.4723  1.0015  1.0209
  385MOL0     H51954   4.420   3.311   7.698  3.4586  1.2568  1.8555
  385MOL0     H51955   3.363   3.374   8.236 -1.1913 -3.5432  1.0520
  385MOL0     H51956   3.137   3.332   8.249  0.9321 -0.8152  0.6864
  385MOL0     H51957   2.837   3.127   8.247 -0.3008 -0.0889  1.2775
  385MOL0     H51958   2.613   3.069   8.340 -0.1495 -0.5514 -0.4661
  385MOL0     H51959   1.046   2.112   8.164 -0.5733  3.3010  1.7110
  385MOL0     H51960   0.846   2.042   8.000  1.3080  0.5657  0.5344
  385MOL0     H51961   0.308   1.837   8.211 -0.2955  0.8385  0.1717
  385MOL0     H51962   0.100   1.782   8.113  0.6837 -1.2360 -1.4523
  385MOL0     H51963  -0.078   1.759   8.023  0.5926 -1.4160 -0.8973
  385MOL0     H51964  -0.168   1.765   7.868 -0.4135 -0.5552  1.3558
  385MOL0     H51965  -0.312   1.904   7.995 -0.1709 -0.2710 -0.6730
  385MOL0     H51966  -0.201   2.011   7.916 -0.6094 -1.2394 -0.6350
  385MOL0     H51967  -0.180   2.078   8.126 -1.9583 -0.3374 -0.9308
  385MOL0     H51968  -0.048   1.967   8.146 -0.2973 -0.2189  1.4865
  385MOL0     H51969  -0.312   1.841   8.197  0.7174 -1.0611 -2.1216
  385MOL0     H51970  -0.150   1.803   8.257 -0.7688 -1.0846 -0.3379
  385MOL0     H51971  -0.262   2.076   8.562 -1.5088  2.8661 -1.7705
  385MOL0     H51972   0.198   2.004   7.765 -0.2620 -1.3428 -0.6019
  385MOL0     H51973   0.541   1.959   7.813 -0.6428 -1.0016  0.1979
  385MOL0     H51974   0.427   2.036   7.702 -1.9365 -1.3282  0.3316
  385MOL0     H51975   0.495   2.132   7.838 -2.0909 -0.0918 -0.0918
  386MOL0     O51976   2.043  10.695   5.985 -0.0758  0.6413  0.2356
  386MOL0     C51977   1.961  10.725   6.070 -0.0581 -0.8540  0.1368
  386MOL0     O51978   1.977  10.828   6.156  0.4726 -0.4384  0.5536
  386MOL0     C51979   2.104  10.881   6.166 -0.0235 -0.3140  0.3448
  386MOL0     C51980   2.150  10.968   6.067  0.0551  0.4296  0.2740
  386MOL0     C51981   2.273  11.026   6.073  1.2303  0.5991  0.0309
  386MOL0     C51982   2.367  10.998   6.181  0.4599 -0.6807  0.7182
  386MOL0     O51983   2.485  11.061   6.182 -0.0895 -0.0255 -0.5530
  386MOL0     C51984   2.591  10.974   6.212 -0.2702 -0.3886  0.4514
  386MOL0     C51985   2.718  11.053   6.162 -0.5426 -0.4598  0.3417
  386MOL0     C51986   2.738  11.193   6.220 -0.2729  0.1890  0.1276
  386MOL0     C51987   2.830  11.174   6.335  0.0532 -0.2230  0.1794
  386MOL0     C51988   2.853  11.305   6.406 -0.4999 -0.0932 -0.4513
  386MOL0     C51989   2.923  11.277   6.536 -0.7862 -0.0386  0.5110
  386MOL0     C51990   2.897  11.398   6.626  0.2062  0.3456 -0.7520
  386MOL0     C51991   2.988  11.522   6.626 -0.9242 -0.2518  0.4725
  386MOL0     N51992   3.126  11.479   6.651 -0.2873 -0.8277  0.5826
  386MOL0     C51993   3.188  11.433   6.765 -0.7767  0.1738 -0.7632
  386MOL0     C51994   3.307  11.389   6.721 -0.2975 -0.2272  0.7855
  386MOL0     C51995   3.405  11.306   6.814  0.2109 -0.3076  0.0427
  386MOL0     C51996   3.548  11.348   6.794 -1.8575  0.0115  0.0410
  386MOL0     C51997   3.652  11.290   6.894 -0.0231  0.1729 -0.6228
  386MOL0     C51998   3.804  11.287   6.848  0.4584  1.4007 -0.2382
  386MOL0     O51999   3.853  11.397   6.782 -0.6539  0.0029 -0.2450
  386MOL0     C52000   3.982  11.415   6.777 -0.2327 -0.0069  0.2915
  386MOL0     C52001   4.039  11.510   6.871  0.6217  0.1827  0.8204
  386MOL0     C52002   4.175  11.524   6.873  0.4680  0.0666 -0.1652
  386MOL0     C52003   4.263  11.442   6.791  0.1681  0.2283 -0.2414
  386MOL0     C52004   4.407  11.459   6.800 -0.8249  0.3769 -0.1547
  386MOL0     O52005   4.480  11.443   6.683  0.1083  0.0237 -0.1883
  386MOL0     C52006   4.616  11.457   6.709 -0.1641  0.6236 -0.1331
  386MOL0     C52007   4.678  11.352   6.785  0.3756  0.7683  0.2682
  386MOL0     C52008   4.812  11.369   6.808  0.2987  0.8367  0.1483
  386MOL0     C52009   4.891  11.473   6.770  0.9535  0.9415 -0.3233
  386MOL0     O52010   5.023  11.467   6.804 -0.3443 -0.4791 -0.3570
  386MOL0     C52011   5.113  11.503   6.701  0.0548 -0.4492 -0.7844
  386MOL0     C52012   5.239  11.420   6.716  0.2649 -0.1640 -0.2113
  386MOL0     C52013   5.219  11.267   6.721 -0.0300  1.0432  0.4698
  386MOL0     C52014   5.167  11.206   6.591 -0.3649 -0.6572  0.2920
  386MOL0     C52015   5.128  11.058   6.614  0.1354  0.6228 -0.2187
  386MOL0     C52016   4.997  11.048   6.678  0.0021  0.6497 -0.5209
  386MOL0     C52017   4.877  11.099   6.599 -0.3634  0.0972  0.2408
  386MOL0     C52018   4.750  11.029   6.657 -0.7885 -0.4768 -0.5297
  386MOL0    Cl52019   4.739  11.029   6.836  0.3526 -0.1279  0.0683
  386MOL0     C52020   4.826  11.570   6.694 -0.7730 -0.8559  0.8376
  386MOL0     C52021   4.685  11.572   6.671  0.5147  0.4570  0.3621
  386MOL0     O52022   4.450  11.497   6.907 -0.2755  0.3048 -0.7758
  386MOL0     C52023   4.206  11.349   6.704  0.3461  0.4520 -0.2040
  386MOL0     C52024   4.066  11.336   6.699 -0.5533  0.3082 -0.2620
  386MOL0     N52025   3.321  11.416   6.586  0.5360  0.1100 -0.5235
  386MOL0     N52026   3.211  11.461   6.550  0.7199 -0.1646 -0.0169
  386MOL0     C52027   2.323  10.913   6.286 -0.4495  0.6800  0.3179
  386MOL0     C52028   2.193  10.860   6.276  0.5487 -0.9037 -0.1071
  386MOL0     C52029   1.828  10.646   6.063  0.2741 -1.6735  0.4451
  386MOL0     C52030   1.824  10.528   5.984  0.2732 -0.3223 -0.2884
  386MOL0     C52031   1.709  10.450   5.975 -0.4680  0.0766  0.0062
  386MOL0     C52032   1.598  10.483   6.053 -0.2287 -0.2131  0.3613
  386MOL0     O52033   1.475  10.410   6.048 -0.7790 -0.0029 -0.2360
  386MOL0     C52034   1.433  10.357   6.176 -0.3135 -0.2047 -0.6251
  386MOL0     C52035   1.287  10.405   6.199  0.1362  0.4933  0.8030
  386MOL0     C52036   1.261  10.359   6.351  0.3847  0.1630  0.6305
  386MOL0     C52037   1.110  10.375   6.379  0.2635 -0.3195 -0.4984
  386MOL0     C52038   1.082  10.342   6.522  0.1589  0.0727 -0.1994
  386MOL0     C52039   1.047  10.318   6.630  0.3443  1.0411  0.3693
  386MOL0     C52040   1.597  10.604   6.118 -0.3621 -0.5292  0.1021
  386MOL0     C52041   1.709  10.684   6.131 -0.3523 -0.1061 -0.5928
  386MOL0     C52042   1.695  10.804   6.224  0.4774 -0.2097  0.4493
  386MOL0     H52043   2.083  11.003   5.989  0.0979  2.9889  1.3203
  386MOL0     H52044   2.309  11.091   5.994  1.6814 -2.4341 -2.4850
  386MOL0     H52045   2.611  10.961   6.318  1.5210 -1.0243  0.0723
  386MOL0     H52046   2.573  10.871   6.177  2.1401 -0.8120  0.2615
  386MOL0     H52047   2.717  11.060   6.053 -1.4708 -2.2523  0.1908
  386MOL0     H52048   2.807  10.989   6.174  0.0376 -0.1260 -1.7280
  386MOL0     H52049   2.641  11.243   6.231 -0.2848  0.1073  0.3940
  386MOL0     H52050   2.797  11.254   6.152 -1.0199  1.5622  0.6569
  386MOL0     H52051   2.788  11.098   6.401  3.0362 -0.8191  1.5386
  386MOL0     H52052   2.918  11.128   6.289 -0.2176 -0.3641 -0.1972
  386MOL0     H52053   2.913  11.366   6.339 -0.1279 -1.2894 -1.2453
  386MOL0     H52054   2.753  11.349   6.413 -1.4805 -1.7056 -3.0942
  386MOL0     H52055   2.875  11.192   6.583 -1.6888 -0.2812 -0.7941
  386MOL0     H52056   3.025  11.242   6.518 -1.2976 -0.9857 -0.6821
  386MOL0     H52057   2.917  11.364   6.728  0.4020  0.7770 -0.6450
  386MOL0     H52058   2.792  11.426   6.625  0.0522  0.5160  3.3252
  386MOL0     H52059   2.974  11.566   6.527 -2.3949 -3.1325 -0.7187
  386MOL0     H52060   2.961  11.594   6.703  1.8565  3.1032 -1.3767
  386MOL0     H52061   3.151  11.426   6.867  1.9022  0.1580  0.2868
  386MOL0     H52062   3.383  11.318   6.920 -0.0676 -3.8732  0.5256
  386MOL0     H52063   3.377  11.203   6.787  1.5993 -0.3289 -1.4798
  386MOL0     H52064   3.569  11.320   6.690  1.1311  2.9618 -0.3322
  386MOL0     H52065   3.547  11.456   6.807 -0.8299 -0.1865  2.1901
  386MOL0     H52066   3.621  11.187   6.916  2.1445 -0.2006  1.0121
  386MOL0     H52067   3.638  11.341   6.990 -2.8267 -3.7955  1.4095
  386MOL0     H52068   3.817  11.192   6.796 -2.5492 -0.0052  1.3238
  386MOL0     H52069   3.867  11.286   6.938  0.9673  1.5191 -0.5865
  386MOL0     H52070   3.976  11.579   6.926  0.4491 -0.7581  1.8379
  386MOL0     H52071   4.214  11.611   6.925 -0.7178  0.5586 -0.0535
  386MOL0     H52072   4.627  11.264   6.822 -1.7905  1.7861 -0.1344
  386MOL0     H52073   4.851  11.284   6.863  0.8277  1.4011  0.6656
  386MOL0     H52074   5.075  11.507   6.599  0.7097  0.1601 -1.0122
  386MOL0     H52075   5.140  11.606   6.727  2.1249 -1.4358  1.3720
  386MOL0     H52076   5.315  11.450   6.643 -0.8598  3.1824 -0.1831
  386MOL0     H52077   5.283  11.451   6.812  0.5832  2.0566 -0.9983
  386MOL0     H52078   5.312  11.213   6.743 -1.6562 -2.7216 -0.9267
  386MOL0     H52079   5.145  11.239   6.797  2.5621 -0.8564  2.4583
  386MOL0     H52080   5.247  11.205   6.517  0.9382 -0.5276  1.6535
  386MOL0     H52081   5.074  11.259   6.568 -0.9133 -0.5255  2.5481
  386MOL0     H52082   5.212  11.023   6.675  1.1412  0.6444 -1.5514
  386MOL0     H52083   5.128  11.009   6.517 -0.5376  1.1556 -0.4944
  386MOL0     H52084   4.993  10.940   6.694  0.5036  1.0074  2.8049
  386MOL0     H52085   5.010  11.097   6.775  1.9915 -1.7467  0.5390
  386MOL0     H52086   4.890  11.082   6.491 -1.0781 -2.0249  0.4477
  386MOL0     H52087   4.880  11.204   6.630 -1.9753  0.2675 -0.0968
  386MOL0     H52088   4.658  11.073   6.619 -0.8967  0.9230  1.2431
  386MOL0     H52089   4.750  10.925   6.624  0.0950  0.3120 -3.3711
  386MOL0     H52090   4.891  11.643   6.648  1.3653 -2.7709  0.6183
  386MOL0     H52091   4.636  11.642   6.604  1.7323  0.0326 -1.0170
  386MOL0     H52092   4.260  11.274   6.647 -1.3327 -0.0183 -1.2351
  386MOL0     H52093   4.020  11.265   6.632 -1.5831  1.7241 -1.1152
  386MOL0     H52094   2.393  10.896   6.368 -0.3324 -0.5996 -0.0290
  386MOL0     H52095   2.148  10.792   6.348 -0.6695  0.3477  0.3588
  386MOL0     H52096   1.908  10.498   5.923 -0.7675 -0.8002 -1.5111
  386MOL0     H52097   1.700  10.366   5.908  0.7605 -0.4754  0.5101
  386MOL0     H52098   1.490  10.394   6.262  1.0272  0.7559 -1.8916
  386MOL0     H52099   1.426  10.249   6.167 -0.4612 -0.0999 -2.0436
  386MOL0     H52100   1.226  10.361   6.119  3.0550  2.8716 -3.1231
  386MOL0     H52101   1.279  10.514   6.194  1.2726  0.6187  1.4512
  386MOL0     H52102   1.315  10.414   6.428 -1.8613  0.2694  2.2362
  386MOL0     H52103   1.290  10.256   6.372  2.1644  0.5771  0.3025
  386MOL0     H52104   1.076  10.479   6.366  1.3533  0.4201  1.8748
  386MOL0     H52105   1.054  10.308   6.313  3.1453 -2.8144 -0.5656
  386MOL0     H52106   1.018  10.301   6.731 -0.3292  0.3697  0.0734
  386MOL0     H52107   1.500  10.630   6.161 -1.1275  4.3558 -3.6365
  386MOL0     H52108   1.740  10.783   6.321  0.4560 -1.2602  0.2478
  386MOL0     H52109   1.739  10.895   6.181  0.4431  0.1440  1.1596
  386MOL0     H52110   1.593  10.831   6.252  1.0104  2.8380 -0.1911
  387MOL0     O52111   9.940   0.759  10.920 -0.5442 -0.1240 -0.4312
  387MOL0     C52112   9.856   0.827  10.984  0.6859  0.1763  0.2027
  387MOL0     O52113   9.873   0.875  11.113 -0.0171 -0.7230  0.2493
  387MOL0     C52114  10.006   0.893  11.150 -1.0982  0.4339 -1.1283
  387MOL0     C52115  10.082   0.987  11.086 -0.3470  0.4612  0.2603
  387MOL0     C52116  10.205   1.025  11.137  0.8494 -0.0827 -0.2716
  387MOL0     C52117  10.261   0.967  11.252 -0.0077 -0.6494 -0.7532
  387MOL0     O52118  10.382   0.992  11.298 -0.1439  0.0611 -0.0551
  387MOL0     C52119  10.481   1.025  11.207  0.4499 -0.0034 -0.3097
  387MOL0     C52120  10.607   1.010  11.287  0.4905 -0.0086  0.4153
  387MOL0     C52121  10.733   1.068  11.216 -0.1762  0.0302 -0.6894
  387MOL0     C52122  10.858   1.027  11.307 -0.9578  0.3458 -0.5905
  387MOL0     C52123  10.985   1.092  11.261 -0.1100 -0.1287  0.2694
  387MOL0     C52124  11.094   1.060  11.362 -0.0334  0.3284  0.0666
  387MOL0     C52125  11.233   1.094  11.319 -0.4294 -0.4184  0.1596
  387MOL0     C52126  11.335   1.030  11.417 -0.6801 -0.5033  0.6470
  387MOL0     N52127  11.463   1.096  11.383 -0.9467  0.3423  0.7730
  387MOL0     C52128  11.505   1.204  11.449 -0.1872  0.4557 -0.3463
  387MOL0     C52129  11.628   1.232  11.406 -0.2658 -0.3536 -0.4927
  387MOL0     C52130  11.712   1.349  11.442 -0.0066  0.1424  0.6921
  387MOL0     C52131  11.643   1.476  11.400 -0.2665 -0.1752 -0.3616
  387MOL0     C52132  11.718   1.593  11.456  0.0761  0.0777 -0.5705
  387MOL0     C52133  11.861   1.589  11.449  0.5253 -0.4167 -0.0642
  387MOL0     O52134  11.915   1.718  11.481 -0.5455  0.2254  0.3994
  387MOL0     C52135  12.052   1.733  11.516 -0.5975 -0.0344 -0.1405
  387MOL0     C52136  12.146   1.627  11.512 -0.0865  1.0744 -0.3491
  387MOL0     C52137  12.287   1.655  11.542  0.1614  0.1724 -1.2377
  387MOL0     C52138  12.322   1.779  11.592 -0.4528 -1.0085 -0.2765
  387MOL0     C52139  12.469   1.797  11.615 -0.6609  0.4265 -0.6075
  387MOL0     O52140  12.504   1.926  11.617  0.1680  0.7049  0.0895
  387MOL0     C52141  12.631   1.964  11.646 -1.5101  0.5512 -0.0470
  387MOL0     C52142  12.647   2.067  11.737 -0.2361 -0.7816 -0.1167
  387MOL0     C52143  12.769   2.099  11.797 -0.1599 -0.7612 -0.1458
  387MOL0     C52144  12.887   2.030  11.763 -0.6583  0.4497  0.2054
  387MOL0     O52145  12.999   2.050  11.842 -0.8834  0.9190  0.2891
  387MOL0     C52146  13.124   1.984  11.798  0.0582 -0.5474 -0.1361
  387MOL0     C52147  13.244   2.073  11.834 -0.2614  0.9999  0.0587
  387MOL0     C52148  13.321   2.115  11.707 -0.6694  0.3609 -0.0350
  387MOL0     C52149  13.458   2.176  11.725  0.5792 -0.0562  0.0889
  387MOL0     C52150  13.561   2.064  11.755  0.5880  0.7311  0.4047
  387MOL0     C52151  13.696   2.117  11.800 -0.5043  1.1859 -0.5465
  387MOL0     C52152  13.775   1.999  11.850  0.6346 -0.8129  0.0769
  387MOL0     C52153  13.914   2.051  11.891  0.6830  0.1629  1.1540
  387MOL0    Cl52154  14.038   1.928  11.909 -0.7202  0.3363  0.2859
  387MOL0     C52155  12.879   1.936  11.651 -0.1272  0.1856  0.2676
  387MOL0     C52156  12.747   1.901  11.599 -0.2131 -0.0048  0.5953
  387MOL0     O52157  12.547   1.696  11.626  0.1287 -0.0352 -0.2756
  387MOL0     C52158  12.228   1.878  11.593 -0.2002  0.0682  0.5562
  387MOL0     C52159  12.095   1.856  11.553  1.1411 -1.0350 -0.9789
  387MOL0     N52160  11.666   1.138  11.308 -0.5121 -0.3605  0.0252
  387MOL0     N52161  11.567   1.054  11.305 -0.3316 -0.3948  0.6397
  387MOL0     C52162  10.184   0.875  11.320  0.5245  0.3570 -0.8125
  387MOL0     C52163  10.062   0.839  11.269  0.1949 -0.0285 -0.2741
  387MOL0     C52164   9.727   0.847  10.919 -1.0065 -0.4185 -0.3965
  387MOL0     C52165   9.694   0.982  10.890  0.5779 -0.2757  0.7594
  387MOL0     C52166   9.586   1.015  10.805  0.4505 -0.1798 -0.2472
  387MOL0     C52167   9.504   0.912  10.753  0.2886  0.0778 -0.0286
  387MOL0     O52168   9.400   0.945  10.666  0.1668 -0.1580 -0.1729
  387MOL0     C52169   9.296   0.854  10.617 -0.0315  0.6780 -0.2206
  387MOL0     C52170   9.202   0.820  10.738  0.6813 -1.1258  0.1647
  387MOL0     C52171   9.107   0.943  10.753  0.4866 -0.2984  0.8421
  387MOL0     C52172   9.068   0.963  10.904 -0.0217 -0.7168  0.2431
  387MOL0     C52173   8.952   0.881  10.918 -0.0680 -0.5010  0.4437
  387MOL0     C52174   8.861   0.812  10.941  0.1733  0.1313 -0.4457
  387MOL0     C52175   9.545   0.778  10.782 -0.6227  0.5355  0.0720
  387MOL0     C52176   9.650   0.742  10.858  0.0505  0.4340 -0.6369
  387MOL0     C52177   9.682   0.593  10.862  1.0917 -0.0900 -0.8001
  387MOL0     H52178  10.057   1.051  11.002  0.4398  0.6384  0.1532
  387MOL0     H52179  10.257   1.101  11.080  1.5492 -0.7896 -0.5905
  387MOL0     H52180  10.480   0.961  11.119 -1.7102  1.2367 -1.2570
  387MOL0     H52181  10.470   1.126  11.167  2.4721 -0.5416 -2.4339
  387MOL0     H52182  10.609   0.904  11.313  0.5886  0.7330  3.8766
  387MOL0     H52183  10.599   1.062  11.383 -0.5177 -1.5430  1.2130
  387MOL0     H52184  10.729   1.177  11.207  0.7623  0.9117  5.3111
  387MOL0     H52185  10.742   1.009  11.124 -0.5745 -1.1887  0.0272
  387MOL0     H52186  10.836   1.050  11.412  1.8760 -2.2132  0.6948
  387MOL0     H52187  10.868   0.919  11.294 -3.2025 -0.1508  1.1080
  387MOL0     H52188  11.014   1.060  11.161 -1.6767  2.4172 -1.1123
  387MOL0     H52189  10.980   1.201  11.247 -3.4060 -0.1895  0.3078
  387MOL0     H52190  11.072   1.113  11.455  0.1144  0.7132 -0.1165
  387MOL0     H52191  11.097   0.951  11.376 -0.4010 -0.2055 -3.1956
  387MOL0     H52192  11.242   1.203  11.323 -0.8783 -0.2977 -1.5195
  387MOL0     H52193  11.251   1.072  11.213 -0.4701  0.4525 -0.0369
  387MOL0     H52194  11.321   1.043  11.524  1.8710 -2.0478  1.2373
  387MOL0     H52195  11.353   0.926  11.390 -0.2193 -0.1609 -0.4631
  387MOL0     H52196  11.437   1.259  11.514  0.1892  1.8329 -1.0840
  387MOL0     H52197  11.717   1.332  11.549  0.3520 -2.0097  0.3716
  387MOL0     H52198  11.812   1.330  11.403  0.6236  2.8268  0.8139
  387MOL0     H52199  11.645   1.476  11.290  1.2228  0.3534 -0.3588
  387MOL0     H52200  11.538   1.468  11.429 -0.1517 -2.3796 -0.3816
  387MOL0     H52201  11.679   1.617  11.555 -1.6896 -1.2820 -0.8896
  387MOL0     H52202  11.682   1.681  11.402 -2.4113 -0.9148 -0.6457
  387MOL0     H52203  11.885   1.559  11.346 -3.9671  1.4528 -1.9111
  387MOL0     H52204  11.891   1.516  11.524  2.4172  1.6185  1.2526
  387MOL0     H52205  12.121   1.527  11.477  1.5004  1.3331 -2.4303
  387MOL0     H52206  12.354   1.569  11.535  1.0700  0.9743 -3.4914
  387MOL0     H52207  12.557   2.115  11.773  0.4438 -0.7445  1.6031
  387MOL0     H52208  12.773   2.173  11.876 -0.4200 -1.1910  0.2710
  387MOL0     H52209  13.133   1.892  11.857  1.3452  0.4182  1.2525
  387MOL0     H52210  13.130   1.947  11.695  0.1118 -0.1957 -0.2619
  387MOL0     H52211  13.204   2.170  11.863 -0.5041  1.4841 -1.8047
  387MOL0     H52212  13.311   2.028  11.909 -1.0494 -1.0564 -0.4074
  387MOL0     H52213  13.332   2.024  11.647 -0.1992  0.2437  0.2297
  387MOL0     H52214  13.262   2.179  11.640  0.2929  0.3727 -0.9059
  387MOL0     H52215  13.460   2.254  11.801  1.3356  1.3191 -1.2666
  387MOL0     H52216  13.490   2.219  11.629 -1.3875 -2.8447 -1.9880
  387MOL0     H52217  13.575   1.998  11.669 -1.1170  0.6643  0.1329
  387MOL0     H52218  13.525   2.004  11.839  1.9774 -3.4740 -1.7171
  387MOL0     H52219  13.747   2.183  11.729  0.2359 -2.1849 -3.4280
  387MOL0     H52220  13.680   2.192  11.878 -3.3707  1.0797 -0.9089
  387MOL0     H52221  13.790   1.933  11.764 -2.8192  0.0270 -1.3764
  387MOL0     H52222  13.725   1.947  11.932 -0.2812  0.5235  0.4095
  387MOL0     H52223  13.957   2.108  11.809 -2.3218 -0.4458 -0.9833
  387MOL0     H52224  13.902   2.106  11.986 -1.1098 -1.9366  2.2210
  387MOL0     H52225  12.962   1.885  11.603  0.1992  1.4050 -0.4987
  387MOL0     H52226  12.742   1.818  11.528 -0.7231 -1.0232  1.7869
  387MOL0     H52227  12.255   1.971  11.641 -0.0238  0.5005 -0.3540
  387MOL0     H52228  12.016   1.929  11.563  2.9525  0.7189  2.1308
  387MOL0     H52229  10.213   0.834  11.416  0.2358  2.3141  0.1416
  387MOL0     H52230  10.008   0.759  11.320 -0.7057 -1.3424 -3.0551
  387MOL0     H52231   9.764   1.056  10.928  1.2861  0.0358 -1.0480
  387MOL0     H52232   9.563   1.120  10.791  1.7469  0.2532  0.6283
  387MOL0     H52233   9.335   0.759  10.578 -2.2354  0.7472 -2.9774
  387MOL0     H52234   9.244   0.897  10.531 -2.7591 -1.4981  0.1982
  387MOL0     H52235   9.258   0.804  10.831  1.6367  0.4834 -0.1018
  387MOL0     H52236   9.149   0.727  10.716 -1.5798 -0.1042  1.0525
  387MOL0     H52237   9.029   0.940  10.676  1.6034  0.8373 -0.3832
  387MOL0     H52238   9.157   1.032  10.714  0.7902 -0.7783  0.1299
  387MOL0     H52239   9.146   0.936  10.976 -0.2554 -0.4634  0.5945
  387MOL0     H52240   9.049   1.071  10.909  1.7689 -0.1165 -2.8052
  387MOL0     H52241   8.786   0.737  10.955  0.2642  0.4892  2.5088
  387MOL0     H52242   9.503   0.690  10.734 -0.8717  0.5953  0.1773
  387MOL0     H52243   9.604   0.550  10.925  0.4695  0.9628 -0.8328
  387MOL0     H52244   9.681   0.559  10.758 -3.4375 -0.6289 -0.7839
  387MOL0     H52245   9.772   0.558  10.915 -0.6729  1.1534  3.4510
  388MOL0     O52246   0.733   2.351  11.208  0.3135  0.0123 -0.6760
  388MOL0     C52247   0.700   2.237  11.226 -0.3112 -0.0707  0.6141
  388MOL0     O52248   0.775   2.142  11.267 -0.2227 -0.1669 -0.5989
  388MOL0     C52249   0.903   2.176  11.315  1.0080 -0.6392  0.3891
  388MOL0     C52250   1.010   2.191  11.219  0.3059  0.3704 -0.2185
  388MOL0     C52251   1.135   2.230  11.255 -0.0914 -0.2888  0.0134
  388MOL0     C52252   1.162   2.271  11.381 -0.2013 -0.6830 -0.3845
  388MOL0     O52253   1.290   2.314  11.404 -0.0139  0.1737 -0.3892
  388MOL0     C52254   1.324   2.364  11.537 -0.3808 -0.0559 -0.2291
  388MOL0     C52255   1.459   2.435  11.561  0.4786  0.1408  0.1925
  388MOL0     C52256   1.565   2.339  11.511  0.7368  0.9660  0.2826
  388MOL0     C52257   1.710   2.387  11.532 -0.3754 -0.3620  0.7080
  388MOL0     C52258   1.803   2.310  11.447 -0.1995  0.0338 -0.1005
  388MOL0     C52259   1.937   2.384  11.444  0.3304 -0.4598 -0.2141
  388MOL0     C52260   2.026   2.334  11.329  0.0623 -0.8788  0.1206
  388MOL0     C52261   2.137   2.439  11.277 -0.5232 -1.2878  0.5268
  388MOL0     N52262   2.223   2.381  11.179  1.1563 -0.6459  0.0297
  388MOL0     C52263   2.293   2.456  11.094 -0.4763 -0.2689  0.8035
  388MOL0     C52264   2.369   2.370  11.021  0.7561 -0.2424 -0.0192
  388MOL0     C52265   2.476   2.416  10.933 -0.4207  0.4601 -0.1682
  388MOL0     C52266   2.614   2.384  10.985 -0.7022 -0.6653 -0.8582
  388MOL0     C52267   2.646   2.495  11.093 -0.1978  0.4703 -0.2697
  388MOL0     C52268   2.772   2.457  11.183  0.5794  0.2750  0.4049
  388MOL0     O52269   2.898   2.470  11.120 -0.1935 -0.2495 -0.1771
  388MOL0     C52270   3.021   2.430  11.178 -0.3770 -0.2821 -0.4636
  388MOL0     C52271   3.141   2.470  11.110 -0.9284 -0.5685 -0.1573
  388MOL0     C52272   3.258   2.435  11.185  0.9964 -0.6786 -0.8062
  388MOL0     C52273   3.263   2.348  11.289 -0.1568 -1.3346 -0.1735
  388MOL0     C52274   3.392   2.338  11.369 -0.5900 -0.4912 -0.0897
  388MOL0     O52275   3.506   2.411  11.338 -0.7440  0.4938 -0.8830
  388MOL0     C52276   3.607   2.410  11.431  0.1039 -0.7247 -0.1479
  388MOL0     C52277   3.682   2.292  11.459 -0.3977  0.1860  1.2454
  388MOL0     C52278   3.786   2.301  11.554 -0.1290 -0.9030 -0.3555
  388MOL0     C52279   3.812   2.421  11.624 -0.3934  0.2924 -0.8766
  388MOL0     O52280   3.903   2.442  11.732  0.0388  0.2582  0.6284
  388MOL0     C52281   4.007   2.346  11.757 -0.0047  0.4119  0.1076
  388MOL0     C52282   3.985   2.273  11.890  1.0028 -0.1453  0.0470
  388MOL0     C52283   3.967   2.363  12.015 -0.1322  0.5292 -0.5426
  388MOL0     C52284   3.995   2.283  12.136  0.2563  0.2344  0.0366
  388MOL0     C52285   4.144   2.284  12.174  0.5757 -0.0359 -0.4832
  388MOL0     C52286   4.154   2.200  12.301  0.4121  0.5751  0.1790
  388MOL0     C52287   4.282   2.115  12.291  1.0189  0.1489  0.5032
  388MOL0     C52288   4.403   2.199  12.323 -0.5910  0.4137 -0.2134
  388MOL0    Cl52289   4.551   2.109  12.269 -0.2866 -0.0104 -0.5733
  388MOL0     C52290   3.751   2.530  11.583 -0.3462 -1.1251  0.4906
  388MOL0     C52291   3.648   2.532  11.490  0.0881  0.7585 -0.7464
  388MOL0     O52292   3.399   2.242  11.443 -0.4894  0.7633  0.0610
  388MOL0     C52293   3.141   2.289  11.334 -1.0090 -0.5849 -0.3777
  388MOL0     C52294   3.025   2.335  11.274 -0.2108 -0.1365  0.1575
  388MOL0     N52295   2.335   2.245  11.062 -0.1735 -0.1957  0.1658
  388MOL0     N52296   2.243   2.250  11.152  0.6714  0.3088  0.0487
  388MOL0     C52297   1.057   2.267  11.473  0.1414 -0.2622 -0.0503
  388MOL0     C52298   0.932   2.213  11.443 -0.0069  0.8057  1.1508
  388MOL0     C52299   0.557   2.196  11.192  0.3490  0.4643  0.2571
  388MOL0     C52300   0.514   2.077  11.250 -0.6452 -0.1801  0.3474
  388MOL0     C52301   0.382   2.037  11.254 -0.7168  0.2816  0.0068
  388MOL0     C52302   0.288   2.101  11.176  0.5763  0.0540 -0.1555
  388MOL0     O52303   0.157   2.050  11.165  0.4990 -0.1043  0.1505
  388MOL0     C52304   0.106   1.947  11.246 -0.2014 -0.3701  0.5274
  388MOL0     C52305  -0.044   1.918  11.200  0.0782  0.0947 -0.3643
  388MOL0     C52306  -0.060   1.849  11.067  0.5051  0.2228 -0.3139
  388MOL0     C52307  -0.200   1.793  11.036 -0.2088 -0.4968 -0.1885
  388MOL0     C52308  -0.301   1.896  10.998 -0.1263 -0.2441 -0.3024
  388MOL0     C52309  -0.387   1.974  10.952 -0.0935  0.4782  0.1029
  388MOL0     C52310   0.328   2.213  11.109 -0.7518 -0.3415 -0.6175
  388MOL0     C52311   0.461   2.270  11.119 -0.0103 -0.1145  0.0499
  388MOL0     C52312   0.489   2.393  11.043  0.8472  0.3409  0.1997
  388MOL0     H52313   1.013   2.159  11.115 -1.3849  0.0031 -0.1752
  388MOL0     H52314   1.215   2.214  11.183 -0.1058 -1.8336  0.2994
  388MOL0     H52315   1.259   2.447  11.566  0.6706 -0.3448  3.5031
  388MOL0     H52316   1.310   2.276  11.601 -1.6535 -0.1279 -0.5637
  388MOL0     H52317   1.466   2.446  11.669  2.7358 -1.7861  0.3049
  388MOL0     H52318   1.448   2.531  11.509 -1.0068  0.5340  1.1704
  388MOL0     H52319   1.539   2.329  11.405 -0.9813 -2.1115  0.8752
  388MOL0     H52320   1.551   2.238  11.551  1.1262  0.1963 -1.4364
  388MOL0     H52321   1.713   2.495  11.512  2.5188 -0.4934  0.0298
  388MOL0     H52322   1.734   2.385  11.638  1.2803  0.5026  0.3935
  388MOL0     H52323   1.816   2.208  11.484  0.0483  0.3098  0.5837
  388MOL0     H52324   1.763   2.300  11.345  2.3361 -0.7779 -1.0887
  388MOL0     H52325   1.910   2.490  11.431 -0.2213 -0.6059 -0.2981
  388MOL0     H52326   1.998   2.368  11.532  0.3719 -0.9054 -0.3214
  388MOL0     H52327   1.961   2.335  11.241 -0.7445  2.4275  0.6073
  388MOL0     H52328   2.061   2.232  11.346 -0.3138 -1.0954 -0.3555
  388MOL0     H52329   2.093   2.536  11.254  2.0699 -0.1973 -0.2080
  388MOL0     H52330   2.195   2.459  11.368 -1.8232 -0.5856  1.2250
  388MOL0     H52331   2.292   2.565  11.095  2.7075 -0.0178 -2.3835
  388MOL0     H52332   2.459   2.360  10.840 -2.1769  2.7871 -1.3740
  388MOL0     H52333   2.460   2.519  10.899 -3.0125 -0.2639 -1.4272
  388MOL0     H52334   2.608   2.285  11.030  0.4475 -1.3625 -2.1499
  388MOL0     H52335   2.688   2.378  10.904  2.2375 -1.0838  1.6819
  388MOL0     H52336   2.571   2.514  11.170  2.2014 -0.5339  2.5153
  388MOL0     H52337   2.663   2.593  11.047  1.2123  0.3740  0.0029
  388MOL0     H52338   2.759   2.358  11.226  0.3622 -0.4792 -1.2955
  388MOL0     H52339   2.769   2.530  11.264 -1.9132 -0.7845  1.3576
  388MOL0     H52340   3.146   2.533  11.021  1.1730 -1.2345 -0.5650
  388MOL0     H52341   3.350   2.479  11.148  1.4345  0.7679  1.7891
  388MOL0     H52342   3.665   2.199  11.407  1.2067  1.3913 -1.6623
  388MOL0     H52343   3.858   2.220  11.559  1.8108  0.7799  0.0803
  388MOL0     H52344   4.017   2.276  11.674  0.7922 -2.0455  2.1463
  388MOL0     H52345   4.104   2.396  11.764  0.1462  0.0902  0.3313
  388MOL0     H52346   3.893   2.215  11.876  0.6496  0.2641  0.6181
  388MOL0     H52347   4.071   2.206  11.897 -1.1061 -2.9440  0.9257
  388MOL0     H52348   4.042   2.443  12.012  1.9116 -1.2991 -0.2879
  388MOL0     H52349   3.864   2.399  12.023 -1.1355 -1.4144 -3.3008
  388MOL0     H52350   3.964   2.179  12.118  2.0037 -0.2822 -0.2174
  388MOL0     H52351   3.920   2.311  12.211 -1.2614  1.8617 -1.9721
  388MOL0     H52352   4.182   2.383  12.201 -1.5315  0.0448  2.6832
  388MOL0     H52353   4.205   2.247  12.091  0.7589  1.5345 -1.0952
  388MOL0     H52354   4.141   2.250  12.397  2.8942  2.8263 -0.5281
  388MOL0     H52355   4.083   2.117  12.299  0.7024  0.2502  1.7417
  388MOL0     H52356   4.289   2.084  12.186  3.1711  1.3384  0.2420
  388MOL0     H52357   4.276   2.031  12.361  1.7273  0.0549  0.4566
  388MOL0     H52358   4.398   2.297  12.274  0.9721  1.2247  1.1344
  388MOL0     H52359   4.402   2.231  12.427 -3.2302  1.3901 -0.4724
  388MOL0     H52360   3.786   2.625  11.624  1.3750 -0.3967 -2.3771
  388MOL0     H52361   3.599   2.623  11.459 -0.7455  1.0333  1.2105
  388MOL0     H52362   3.122   2.227  11.421  1.7441 -1.8042 -0.5452
  388MOL0     H52363   2.933   2.293  11.314 -0.2865  1.5442  1.8777
  388MOL0     H52364   1.064   2.315  11.570 -1.6080 -1.3627  0.6764
  388MOL0     H52365   0.855   2.187  11.516 -2.0928 -0.0828 -1.2252
  388MOL0     H52366   0.591   2.014  11.292  0.2065 -0.4556 -1.5349
  388MOL0     H52367   0.375   1.940  11.303  2.2415  1.0496  2.2786
  388MOL0     H52368   0.115   1.973  11.352 -0.7835  0.5200  0.3634
  388MOL0     H52369   0.167   1.858  11.227  1.1473  0.6418 -0.0324
  388MOL0     H52370  -0.109   2.007  11.195  2.2291  1.6657 -2.8957
  388MOL0     H52371  -0.086   1.845  11.269  0.3320  2.0021  1.9664
  388MOL0     H52372   0.008   1.763  11.071 -0.2950 -0.7357 -3.5997
  388MOL0     H52373  -0.024   1.917  10.989  4.0268  0.1587  1.0819
  388MOL0     H52374  -0.180   1.735  10.945  0.5056 -2.7497  1.2988
  388MOL0     H52375  -0.239   1.728  11.116  0.8986 -0.7740  0.1530
  388MOL0     H52376  -0.467   2.034  10.912  0.2399  0.7422 -0.1757
  388MOL0     H52377   0.248   2.261  11.053  0.8503  2.8672 -0.3630
  388MOL0     H52378   0.545   2.371  10.952 -0.8328  3.8567 -1.8653
  388MOL0     H52379   0.395   2.443  11.021  1.6066  2.1517  0.8791
  388MOL0     H52380   0.545   2.474  11.090  0.3774  0.1872  1.0448
  389MOL0     O52381  10.560   0.965   9.716  0.5357 -0.3009  0.1520
  389MOL0     C52382  10.481   0.913   9.790 -0.3720 -0.0103  0.6463
  389MOL0     O52383  10.516   0.854   9.907 -0.1815  0.1977  0.1828
  389MOL0     C52384  10.650   0.844   9.935 -0.4586  0.8636 -0.3803
  389MOL0     C52385  10.700   0.720   9.980 -0.2925 -0.2532 -0.0991
  389MOL0     C52386  10.829   0.715  10.040 -0.1595 -0.1242 -0.2888
  389MOL0     C52387  10.908   0.825  10.055  0.3876 -0.4804  1.3534
  389MOL0     O52388  11.037   0.803  10.091 -0.1545 -0.6117 -0.5759
  389MOL0     C52389  11.139   0.900  10.046 -0.5513  0.3343  0.3940
  389MOL0     C52390  11.279   0.831  10.045 -0.4490 -0.1097  0.5307
  389MOL0     C52391  11.381   0.910   9.953 -0.3357 -0.2959  0.1031
  389MOL0     C52392  11.522   0.855   9.956  0.3795  0.7921 -0.7580
  389MOL0     C52393  11.606   0.956   9.878  0.3486  0.1008  0.8603
  389MOL0     C52394  11.754   0.929   9.901  0.2491  0.5677  0.4671
  389MOL0     C52395  11.831   1.015   9.817 -0.9474  0.3279 -0.0058
  389MOL0     C52396  11.984   0.989   9.840  0.4178  0.6462 -0.5466
  389MOL0     N52397  12.073   1.037   9.735 -0.0044 -0.2057 -0.4259
  389MOL0     C52398  12.156   1.147   9.747  0.4221  0.5738 -0.2262
  389MOL0     C52399  12.220   1.154   9.628  0.9235 -0.0108  0.4279
  389MOL0     C52400  12.334   1.246   9.595 -0.2946 -0.4244  1.1098
  389MOL0     C52401  12.288   1.377   9.537 -0.0699 -0.1951  0.6102
  389MOL0     C52402  12.398   1.474   9.519 -1.1955  0.7887  0.4152
  389MOL0     C52403  12.357   1.600   9.458  0.1419  0.9874  1.2614
  389MOL0     O52404  12.306   1.688   9.560 -0.0497  0.5709  0.1211
  389MOL0     C52405  12.173   1.720   9.557 -0.3718  1.0402 -0.1320
  389MOL0     C52406  12.142   1.819   9.646 -0.0355 -1.3686  0.3913
  389MOL0     C52407  12.007   1.859   9.661 -0.2726 -1.0558  0.0141
  389MOL0     C52408  11.897   1.803   9.582  0.3520  0.9551  0.3222
  389MOL0     C52409  11.759   1.856   9.584 -0.8546  0.8678 -0.1712
  389MOL0     O52410  11.745   1.959   9.667 -0.5089 -0.1758  0.8904
  389MOL0     C52411  11.615   1.990   9.707 -0.1035 -0.7028  0.5117
  389MOL0     C52412  11.547   1.913   9.793  0.7702  0.1360 -1.1004
  389MOL0     C52413  11.419   1.941   9.839 -0.4232  0.5247 -0.1716
  389MOL0     C52414  11.355   2.058   9.796 -0.1957  0.8438  0.7539
  389MOL0     O52415  11.232   2.089   9.848 -0.0663  0.2275  0.0546
  389MOL0     C52416  11.119   2.110   9.756  0.3020 -0.7046  1.2782
  389MOL0     C52417  10.999   2.137   9.849  0.4671  0.0930 -0.1503
  389MOL0     C52418  10.865   2.146   9.769 -0.4932  0.3491 -0.2213
  389MOL0     C52419  10.754   2.148   9.870  0.5474 -0.3320  0.2330
  389MOL0     C52420  10.613   2.151   9.794 -0.1724 -0.8658 -0.9122
  389MOL0     C52421  10.514   2.158   9.909 -0.7300 -0.2752 -0.9734
  389MOL0     C52422  10.370   2.153   9.856  0.3893  0.3178  0.1955
  389MOL0     C52423  10.349   2.259   9.749 -0.3016  0.0297 -0.2016
  389MOL0    Cl52424  10.180   2.261   9.699  0.4786  0.3431  0.2819
  389MOL0     C52425  11.411   2.126   9.693 -0.5160 -0.1055  0.8688
  389MOL0     C52426  11.544   2.104   9.652  0.5613  0.2894 -0.4387
  389MOL0     O52427  11.675   1.794   9.524  0.1730  0.1665 -0.3353
  389MOL0     C52428  11.934   1.706   9.489 -0.0253 -0.0329 -0.6639
  389MOL0     C52429  12.063   1.653   9.480  0.1277 -0.5896  0.7073
  389MOL0     N52430  12.164   1.054   9.542 -0.3693 -0.6864  0.2521
  389MOL0     N52431  12.073   0.995   9.610 -0.0624  0.3526  0.4484
  389MOL0     C52432  10.855   0.945  10.010  0.3681  0.1688 -0.1784
  389MOL0     C52433  10.730   0.955   9.939 -0.3050  0.3783 -0.7692
  389MOL0     C52434  10.335   0.912   9.759 -0.9102 -0.3141 -0.4138
  389MOL0     C52435  10.252   0.884   9.864  0.8018 -0.8723 -0.5980
  389MOL0     C52436  10.122   0.868   9.850 -0.8889 -0.0222  0.7193
  389MOL0     C52437  10.057   0.891   9.729 -0.2412 -0.2382 -0.6826
  389MOL0     O52438   9.919   0.901   9.705 -0.3583  0.4072  0.0665
  389MOL0     C52439   9.829   0.851   9.804  0.4489 -0.2527 -0.3714
  389MOL0     C52440   9.773   0.973   9.878  1.6085  0.2147  0.2906
  389MOL0     C52441   9.710   1.063   9.782  0.3953  0.0739 -0.2358
  389MOL0     C52442   9.634   1.174   9.850  1.1453 -0.9928 -0.2268
  389MOL0     C52443   9.556   1.252   9.751  0.0128 -0.4361  0.3336
  389MOL0     C52444   9.497   1.340   9.688 -0.3572 -0.6889  0.9284
  389MOL0     C52445  10.136   0.902   9.618  0.3532 -1.2517  0.2557
  389MOL0     C52446  10.278   0.923   9.629 -0.5323  0.1574 -0.1676
  389MOL0     C52447  10.361   0.926   9.509 -0.1898 -0.5379  0.5380
  389MOL0     H52448  10.627   0.639   9.979 -0.6586  0.0572  0.7775
  389MOL0     H52449  10.849   0.616  10.080 -2.7196  0.1496  2.0251
  389MOL0     H52450  11.124   0.932   9.943  0.3578  0.5747  0.3261
  389MOL0     H52451  11.153   0.988  10.109 -0.3347  1.8236 -1.6415
  389MOL0     H52452  11.280   0.730  10.003  0.2352  0.6987 -1.4953
  389MOL0     H52453  11.329   0.809  10.140  1.5629 -3.0061 -1.0453
  389MOL0     H52454  11.380   1.007  10.003 -1.2246  0.7277 -1.8197
  389MOL0     H52455  11.341   0.915   9.852  2.3054 -0.5836 -1.0319
  389MOL0     H52456  11.562   0.847  10.057  0.1560  0.8210 -0.6674
  389MOL0     H52457  11.510   0.758   9.906 -0.5699  2.2927 -3.6387
  389MOL0     H52458  11.596   0.943   9.770  2.5735 -2.6285  0.8862
  389MOL0     H52459  11.569   1.057   9.898 -1.7948  0.1556 -2.5699
  389MOL0     H52460  11.784   0.944  10.005  3.1204  1.2643 -0.3661
  389MOL0     H52461  11.774   0.822   9.884  2.7773  0.4114  3.5177
  389MOL0     H52462  11.818   1.121   9.839  0.2284  1.0845 -2.4776
  389MOL0     H52463  11.808   0.988   9.713 -1.8769 -2.4905  0.8295
  389MOL0     H52464  12.034   1.021   9.932  5.3547 -2.4596 -1.7332
  389MOL0     H52465  11.983   0.880   9.850  0.5273  0.6550 -0.4318
  389MOL0     H52466  12.186   1.207   9.832  0.2299  0.2893  0.0432
  389MOL0     H52467  12.385   1.260   9.691 -1.5998  1.3691  1.5793
  389MOL0     H52468  12.402   1.202   9.522  0.0214  1.1536  0.4017
  389MOL0     H52469  12.244   1.352   9.439 -0.9301 -1.5496  1.3116
  389MOL0     H52470  12.219   1.434   9.600  0.9576  0.7270  0.9315
  389MOL0     H52471  12.481   1.424   9.467 -1.4760  1.1952 -0.4386
  389MOL0     H52472  12.447   1.498   9.615  4.2922  1.0755 -2.0582
  389MOL0     H52473  12.299   1.596   9.365  0.9070  1.0575  0.7712
  389MOL0     H52474  12.444   1.645   9.410 -0.4083 -1.2570 -2.2420
  389MOL0     H52475  12.223   1.859   9.705 -0.3254  0.1478 -0.2079
  389MOL0     H52476  11.994   1.943   9.728 -2.2320 -0.6744 -0.7523
  389MOL0     H52477  11.593   1.826   9.839  0.7349 -1.1592 -3.3558
  389MOL0     H52478  11.378   1.879   9.918  0.6910 -0.2929 -0.2062
  389MOL0     H52479  11.135   2.196   9.692  0.1257 -2.8559 -1.8807
  389MOL0     H52480  11.101   2.020   9.696  0.6043 -1.7401  2.6891
  389MOL0     H52481  10.997   2.054   9.920 -5.1651 -0.4593 -0.4833
  389MOL0     H52482  11.002   2.232   9.902 -0.5866 -1.3803  2.7403
  389MOL0     H52483  10.854   2.239   9.713 -0.5847  0.3394 -0.2194
  389MOL0     H52484  10.848   2.063   9.701  1.2248 -1.2647  1.2038
  389MOL0     H52485  10.759   2.244   9.921  0.1015  0.4979 -1.2375
  389MOL0     H52486  10.760   2.065   9.941  1.0441 -2.2034 -1.8744
  389MOL0     H52487  10.606   2.065   9.728 -0.3171 -0.1530 -1.8453
  389MOL0     H52488  10.622   2.244   9.737 -0.1763 -0.9886 -1.1123
  389MOL0     H52489  10.524   2.073   9.977 -2.2843 -1.1946 -1.8360
  389MOL0     H52490  10.527   2.244   9.975  1.8710 -0.7730 -0.7540
  389MOL0     H52491  10.297   2.167   9.937 -1.7692 -2.7340 -1.0085
  389MOL0     H52492  10.347   2.057   9.807  0.8612 -0.0713  0.7197
  389MOL0     H52493  10.375   2.359   9.786  0.1669 -0.4585  0.8245
  389MOL0     H52494  10.402   2.227   9.659 -2.5220 -4.6707 -0.1392
  389MOL0     H52495  11.359   2.213   9.655 -0.9788 -0.8647 -0.2918
  389MOL0     H52496  11.590   2.170   9.579 -0.6638  0.5319 -1.0190
  389MOL0     H52497  11.856   1.673   9.422 -0.1433 -1.1890  0.0172
  389MOL0     H52498  12.088   1.579   9.405 -2.6632  1.2851 -2.3365
  389MOL0     H52499  10.906   1.040  10.026 -2.0788  1.1876  2.4743
  389MOL0     H52500  10.695   1.052   9.904 -0.0362  1.1503  0.9938
  389MOL0     H52501  10.283   0.874   9.967 -0.6001  0.6137 -0.0004
  389MOL0     H52502  10.062   0.841   9.936 -0.5818 -1.9693  0.3813
  389MOL0     H52503   9.874   0.781   9.876  1.5992 -0.6449 -1.4375
  389MOL0     H52504   9.749   0.799   9.752  0.8927 -0.4520 -0.8631
  389MOL0     H52505   9.851   1.030   9.928  1.2316  1.8723 -0.9242
  389MOL0     H52506   9.690   0.943   9.943 -1.1766  1.3726 -2.4531
  389MOL0     H52507   9.647   1.009   9.710 -2.1501 -0.7998  2.4556
  389MOL0     H52508   9.787   1.112   9.721 -0.3253 -0.7428 -1.8535
  389MOL0     H52509   9.564   1.134   9.924  1.2221  0.9449  0.9576
  389MOL0     H52510   9.704   1.228   9.914 -0.8551 -1.3688  2.4580
  389MOL0     H52511   9.462   1.417   9.622  2.4055 -1.8706 -2.1962
  389MOL0     H52512  10.077   0.887   9.529 -1.5402 -1.5915  1.5036
  389MOL0     H52513  10.433   0.843   9.503 -1.9453 -2.1089  0.2692
  389MOL0     H52514  10.301   0.900   9.421  0.8670 -2.6190  0.3653
  389MOL0     H52515  10.412   1.023   9.506 -1.6599  0.2264 -1.1007
  390MOL0     O52516   5.752   2.992   3.977  0.1209  0.6257  0.1281
  390MOL0     C52517   5.643   2.966   4.031 -0.7512  0.7299 -0.6316
  390MOL0     O52518   5.624   2.869   4.121  0.4294 -0.8809  0.8274
  390MOL0     C52519   5.716   2.813   4.202  0.7399 -0.9086  0.0623
  390MOL0     C52520   5.668   2.727   4.304 -0.0790 -0.0332  0.6402
  390MOL0     C52521   5.753   2.659   4.392  0.1206  0.0275 -0.0189
  390MOL0     C52522   5.892   2.678   4.394 -0.0968  0.9003 -0.2823
  390MOL0     O52523   5.977   2.609   4.480  0.1466 -0.0619  0.4493
  390MOL0     C52524   5.933   2.487   4.532  0.7026  0.7233 -0.7317
  390MOL0     C52525   6.047   2.430   4.621 -0.1590  0.0361  0.3957
  390MOL0     C52526   6.071   2.521   4.742  0.4466 -0.0069 -0.4474
  390MOL0     C52527   6.218   2.528   4.758  0.7666  0.3813  0.1376
  390MOL0     C52528   6.256   2.616   4.878 -0.1742  0.7212  0.1822
  390MOL0     C52529   6.400   2.588   4.920 -0.2653 -0.2305  0.9226
  390MOL0     C52530   6.449   2.630   5.052  0.0114  0.3059 -0.0159
  390MOL0     C52531   6.368   2.567   5.166  0.4168 -0.9466  0.0423
  390MOL0     N52532   6.436   2.575   5.301  0.0025 -0.0503 -0.9394
  390MOL0     C52533   6.562   2.546   5.324  0.4940 -0.0612 -0.7846
  390MOL0     C52534   6.587   2.559   5.459  0.3198 -0.1748  1.2119
  390MOL0     C52535   6.717   2.538   5.526  0.3340  0.0107 -0.1900
  390MOL0     C52536   6.828   2.640   5.515 -0.8548 -0.5984  0.0355
  390MOL0     C52537   6.960   2.588   5.574  0.4582  0.4886  0.4331
  390MOL0     C52538   7.088   2.668   5.520  0.2093 -0.3473 -0.1895
  390MOL0     O52539   7.186   2.575   5.459 -0.3591 -0.1742  0.4403
  390MOL0     C52540   7.312   2.580   5.512 -0.5701 -0.1746  1.0468
  390MOL0     C52541   7.398   2.506   5.429 -0.2707 -0.3548 -0.1201
  390MOL0     C52542   7.534   2.502   5.458  0.7843 -0.1244  0.6388
  390MOL0     C52543   7.598   2.576   5.554  0.2289 -0.3882 -0.7526
  390MOL0     C52544   7.739   2.578   5.571 -0.5744  0.2701 -0.5954
  390MOL0     O52545   7.809   2.508   5.466 -0.1458  0.4232  0.3852
  390MOL0     C52546   7.943   2.508   5.486  0.1720  1.1927 -1.0772
  390MOL0     C52547   8.024   2.600   5.435  0.0337 -0.2579  0.0516
  390MOL0     C52548   8.159   2.576   5.451 -0.1918  0.0259  0.3122
  390MOL0     C52549   8.219   2.456   5.486  0.3028 -0.6678  0.5002
  390MOL0     O52550   8.349   2.442   5.467 -0.0185  0.0687 -0.0436
  390MOL0     C52551   8.385   2.345   5.364 -0.9089 -0.3130 -0.3291
  390MOL0     C52552   8.468   2.413   5.249  0.3464 -0.0113  0.2653
  390MOL0     C52553   8.619   2.419   5.288 -0.3564 -0.0677  0.1053
  390MOL0     C52554   8.700   2.489   5.178 -0.7128 -0.5675 -0.4386
  390MOL0     C52555   8.837   2.531   5.238  1.2958 -0.2108 -1.0168
  390MOL0     C52556   8.886   2.664   5.181  0.9366  0.2153 -0.1170
  390MOL0     C52557   9.024   2.708   5.235 -0.8655  0.1819  0.1145
  390MOL0     C52558   9.073   2.831   5.168 -0.5080 -0.0880 -0.6360
  390MOL0    Cl52559   9.215   2.871   5.275  0.1676 -0.1328  0.2168
  390MOL0     C52560   8.137   2.359   5.542  0.5307 -0.3663  0.4861
  390MOL0     C52561   7.996   2.387   5.542  0.1893 -0.8724  0.6755
  390MOL0     O52562   7.800   2.644   5.657 -0.3530 -0.1478 -0.9064
  390MOL0     C52563   7.515   2.662   5.637 -0.2406 -0.1035 -0.1516
  390MOL0     C52564   7.372   2.662   5.612 -0.3815  0.7732 -0.3805
  390MOL0     N52565   6.474   2.610   5.513  0.1899 -0.5987  0.3362
  390MOL0     N52566   6.388   2.612   5.422  0.2171  1.1038  0.0639
  390MOL0     C52567   5.944   2.762   4.299 -0.9820  0.1713 -0.2852
  390MOL0     C52568   5.857   2.826   4.203  0.3148  0.2497  0.4560
  390MOL0     C52569   5.525   3.052   3.989 -0.0295  0.4422  0.6801
  390MOL0     C52570   5.408   3.050   4.065 -0.1570 -0.1308 -0.0810
  390MOL0     C52571   5.282   3.106   4.024 -0.0471 -0.5045  0.7919
  390MOL0     C52572   5.284   3.188   3.915  0.4532 -1.4060 -0.5431
  390MOL0     O52573   5.181   3.280   3.888  0.3340  0.8402  0.3434
  390MOL0     C52574   5.047   3.235   3.909  0.4230  0.4208  0.2837
  390MOL0     C52575   4.994   3.119   3.824  0.2230  0.0072 -0.6713
  390MOL0     C52576   5.039   3.121   3.673  0.7231  0.1340  0.0352
  390MOL0     C52577   5.023   3.260   3.596 -0.4247 -0.0512  0.1637
  390MOL0     C52578   4.886   3.302   3.577 -0.5277 -0.5727 -1.2906
  390MOL0     C52579   4.777   3.351   3.534  0.0010 -0.3236 -0.5166
  390MOL0     C52580   5.398   3.196   3.839 -0.7240 -0.7966  0.0330
  390MOL0     C52581   5.515   3.124   3.866 -0.2786 -0.1153 -0.3779
  390MOL0     C52582   5.633   3.148   3.772  0.1976 -0.2089  0.5678
  390MOL0     H52583   5.560   2.715   4.304 -0.0019 -0.9424  2.1100
  390MOL0     H52584   5.715   2.583   4.460  1.5376  0.3261  1.1612
  390MOL0     H52585   5.850   2.496   4.603  0.1006  0.8111 -1.4304
  390MOL0     H52586   5.900   2.421   4.451  0.0876 -0.4036  0.4198
  390MOL0     H52587   6.140   2.407   4.569  0.2516 -2.7548  2.2007
  390MOL0     H52588   6.012   2.334   4.659 -2.4084 -0.2473 -2.1374
  390MOL0     H52589   6.020   2.472   4.825  0.0984  0.1381 -0.5737
  390MOL0     H52590   6.041   2.625   4.729  0.2608  0.2066  1.4123
  390MOL0     H52591   6.245   2.422   4.763  1.8715  0.6732  0.6985
  390MOL0     H52592   6.268   2.569   4.669  2.8153  0.8162  1.4148
  390MOL0     H52593   6.253   2.719   4.841  2.3238  0.6353 -0.4839
  390MOL0     H52594   6.179   2.615   4.955 -0.2285  4.3475  0.3669
  390MOL0     H52595   6.428   2.483   4.909 -0.0376  0.0068 -1.1705
  390MOL0     H52596   6.455   2.644   4.843 -1.6224  3.5057  2.4329
  390MOL0     H52597   6.434   2.737   5.073  0.1678  0.6079 -1.3535
  390MOL0     H52598   6.555   2.603   5.058  0.2081  0.7886 -1.0523
  390MOL0     H52599   6.264   2.600   5.171  0.5132 -0.6762  0.3370
  390MOL0     H52600   6.343   2.464   5.139 -0.9573 -0.7873  0.6105
  390MOL0     H52601   6.639   2.515   5.254  2.0767  1.4040  0.2160
  390MOL0     H52602   6.690   2.515   5.630 -1.9674 -0.4407 -0.8306
  390MOL0     H52603   6.744   2.441   5.484 -0.9593  0.1175 -1.3559
  390MOL0     H52604   6.853   2.669   5.412  1.8798 -1.0627  0.4877
  390MOL0     H52605   6.797   2.728   5.572  1.2796  1.8550 -2.2632
  390MOL0     H52606   6.956   2.480   5.562 -1.0800  0.5369  0.1900
  390MOL0     H52607   6.967   2.605   5.682  0.7027  1.7380  0.2382
  390MOL0     H52608   7.129   2.734   5.597 -0.2955 -2.3445  1.9375
  390MOL0     H52609   7.051   2.730   5.439 -1.4682 -2.2437 -0.9417
  390MOL0     H52610   7.360   2.449   5.346  1.2275 -2.5633  0.6217
  390MOL0     H52611   7.590   2.442   5.387  1.2404 -0.5892  1.3724
  390MOL0     H52612   7.967   2.676   5.382 -2.3873 -1.9738  0.0064
  390MOL0     H52613   8.236   2.643   5.413  3.2836 -4.0343 -0.5672
  390MOL0     H52614   8.440   2.258   5.401  0.8767  1.4064  1.3061
  390MOL0     H52615   8.294   2.296   5.327 -1.5052  1.2872 -1.1014
  390MOL0     H52616   8.444   2.364   5.155 -0.6003  1.1415 -0.1212
  390MOL0     H52617   8.445   2.520   5.240  1.9716  0.3575  0.1277
  390MOL0     H52618   8.617   2.479   5.380 -2.1126 -0.1370  0.1454
  390MOL0     H52619   8.659   2.319   5.300 -2.8467 -1.2791 -0.8717
  390MOL0     H52620   8.653   2.577   5.133  0.6014 -0.0392 -0.8344
  390MOL0     H52621   8.731   2.425   5.095  0.5215 -1.7292  0.8762
  390MOL0     H52622   8.907   2.451   5.213 -0.5975 -2.1232 -0.5021
  390MOL0     H52623   8.833   2.548   5.346 -0.4889 -0.7636 -0.9621
  390MOL0     H52624   8.879   2.660   5.072 -1.2577  2.0241 -0.1194
  390MOL0     H52625   8.816   2.745   5.206 -0.9006 -1.4193  0.2626
  390MOL0     H52626   9.095   2.626   5.229 -2.2130 -1.1433  1.3710
  390MOL0     H52627   8.992   2.744   5.333 -0.5983 -0.5196  0.4605
  390MOL0     H52628   9.092   2.836   5.060  3.2846 -2.7069 -0.3096
  390MOL0     H52629   8.996   2.908   5.184  1.4807  1.7361  0.6857
  390MOL0     H52630   8.173   2.260   5.568  1.1151  0.4587  3.2182
  390MOL0     H52631   7.924   2.312   5.572  0.9840 -2.2058 -0.6390
  390MOL0     H52632   7.558   2.727   5.713 -1.8286 -0.8768  1.4590
  390MOL0     H52633   7.323   2.741   5.667 -1.5376 -2.3515  3.6102
  390MOL0     H52634   6.052   2.768   4.289 -1.1045  0.6389 -1.5068
  390MOL0     H52635   5.915   2.872   4.123  2.8953  2.5759  3.3892
  390MOL0     H52636   5.420   2.995   4.158  4.1798  0.6266  0.0315
  390MOL0     H52637   5.199   3.115   4.093  0.7606  3.0022  1.4955
  390MOL0     H52638   4.982   3.318   3.879 -1.1157 -1.0341 -0.5938
  390MOL0     H52639   5.033   3.225   4.018  2.9958  1.9233  0.8189
  390MOL0     H52640   4.885   3.116   3.836 -0.0428 -0.0305 -2.6933
  390MOL0     H52641   5.024   3.024   3.869 -2.8590 -1.9172 -2.3357
  390MOL0     H52642   4.982   3.055   3.607  1.7753 -1.0125  0.2405
  390MOL0     H52643   5.137   3.075   3.666  1.9757  2.3776  1.4345
  390MOL0     H52644   5.066   3.343   3.653  0.5137 -0.9377  0.7769
  390MOL0     H52645   5.078   3.263   3.502 -2.1534  0.3825 -0.8793
  390MOL0     H52646   4.683   3.392   3.502  0.7838  0.8375 -1.4380
  390MOL0     H52647   5.405   3.265   3.756  1.9456  0.9039  1.4982
  390MOL0     H52648   5.715   3.206   3.816  0.0167  0.1921  0.3826
  390MOL0     H52649   5.683   3.053   3.751  1.9995  1.0151 -0.9693
  390MOL0     H52650   5.598   3.197   3.680 -3.0701 -3.4896 -0.1500
  391MOL0     O52651   5.783   6.919   1.854 -0.5254 -0.0138  0.0386
  391MOL0     C52652   5.732   6.827   1.918  0.9324 -0.0898 -0.6355
  391MOL0     O52653   5.790   6.712   1.958  0.4166 -0.3695  0.8310
  391MOL0     C52654   5.922   6.685   1.946 -0.4004  0.4813  0.2274
  391MOL0     C52655   6.028   6.769   1.976 -0.8147  0.4399  0.0271
  391MOL0     C52656   6.152   6.719   1.980  0.1498 -0.3896 -0.5207
  391MOL0     C52657   6.181   6.586   1.948 -0.0462 -0.2160 -0.5803
  391MOL0     O52658   6.316   6.545   1.941 -0.1239  0.9933 -0.1101
  391MOL0     C52659   6.410   6.580   2.040  0.1291 -0.4332 -0.2944
  391MOL0     C52660   6.514   6.471   2.052 -0.0487 -0.3879 -0.3350
  391MOL0     C52661   6.637   6.516   2.134 -0.2373 -0.6190 -0.8749
  391MOL0     C52662   6.722   6.410   2.203 -1.3319  0.1566  0.4772
  391MOL0     C52663   6.643   6.359   2.316  0.0569 -0.5467 -0.6048
  391MOL0     C52664   6.658   6.206   2.322 -0.6441  0.2133  0.3170
  391MOL0     C52665   6.803   6.168   2.345 -1.1047  0.0668 -0.0898
  391MOL0     C52666   6.821   6.045   2.430 -0.9008 -0.5278 -0.5411
  391MOL0     N52667   6.963   6.022   2.463 -0.2957 -0.9572  0.1686
  391MOL0     C52668   7.076   6.027   2.384 -0.0857  0.1972  0.5401
  391MOL0     C52669   7.186   5.981   2.456 -0.2489 -0.1840 -0.4527
  391MOL0     C52670   7.325   5.971   2.398  0.2257 -0.7272 -0.5416
  391MOL0     C52671   7.359   5.843   2.319  1.0484  0.4852  0.1511
  391MOL0     C52672   7.386   5.844   2.171 -0.7490 -0.1398 -0.6757
  391MOL0     C52673   7.258   5.877   2.095  0.5597  0.3353  0.1066
  391MOL0     O52674   7.157   5.771   2.106  0.1873 -1.3194  0.0518
  391MOL0     C52675   7.016   5.793   2.096 -1.0981 -0.4307 -0.4343
  391MOL0     C52676   6.947   5.900   2.033  0.0500  0.4017  0.7100
  391MOL0     C52677   6.810   5.901   2.037  0.2365  0.1022  0.3180
  391MOL0     C52678   6.740   5.795   2.107  0.8268 -0.3996  0.0813
  391MOL0     C52679   6.596   5.807   2.136  0.1003  0.4725 -0.0532
  391MOL0     O52680   6.535   5.698   2.175 -0.6082 -0.0285 -0.1743
  391MOL0     C52681   6.397   5.696   2.183  1.1041 -0.5639  0.2892
  391MOL0     C52682   6.325   5.728   2.073 -0.0751 -0.2230  0.3890
  391MOL0     C52683   6.190   5.724   2.078  0.1075 -0.5659  0.4630
  391MOL0     C52684   6.116   5.680   2.193 -0.1428  0.3386 -0.1961
  391MOL0     O52685   5.977   5.677   2.186  0.0156  1.3802  0.5466
  391MOL0     C52686   5.923   5.711   2.307 -0.4963 -0.8929 -0.2099
  391MOL0     C52687   5.768   5.725   2.295 -0.8142 -0.7885  0.0049
  391MOL0     C52688   5.737   5.838   2.184  0.1573  0.0550  0.5374
  391MOL0     C52689   5.600   5.893   2.217 -0.1643  0.1522  0.7171
  391MOL0     C52690   5.589   6.020   2.127  0.1472  1.1496  0.2537
  391MOL0     C52691   5.456   6.094   2.146 -0.1488 -0.2329 -0.4620
  391MOL0     C52692   5.440   6.194   2.029 -0.6048 -0.5959  1.2275
  391MOL0     C52693   5.307   6.267   2.040 -0.1002 -0.1199 -0.1153
  391MOL0    Cl52694   5.269   6.370   1.899 -0.3104 -0.2574  0.1422
  391MOL0     C52695   6.196   5.637   2.303  0.2400  0.2050  0.6473
  391MOL0     C52696   6.335   5.649   2.298  0.8137 -0.4451  0.3114
  391MOL0     O52697   6.543   5.917   2.113  0.0087 -0.1024 -0.4623
  391MOL0     C52698   6.806   5.693   2.164  0.5067  0.0242 -0.1640
  391MOL0     C52699   6.945   5.693   2.156 -0.2405 -0.5235  0.0228
  391MOL0     N52700   7.136   5.945   2.573  0.9834 -0.3657  0.1645
  391MOL0     N52701   7.011   5.958   2.575  0.0158  0.3022 -0.0149
  391MOL0     C52702   6.082   6.512   1.896 -0.2944 -0.4335 -0.3794
  391MOL0     C52703   5.946   6.559   1.900  0.4998 -0.8954 -0.7671
  391MOL0     C52704   5.595   6.860   1.974 -0.1445  0.2757 -0.5713
  391MOL0     C52705   5.538   6.772   2.069  0.3592  0.8624 -0.4066
  391MOL0     C52706   5.407   6.775   2.113  0.0660 -0.3443  0.3426
  391MOL0     C52707   5.321   6.872   2.070 -0.4374  0.0074 -0.8307
  391MOL0     O52708   5.185   6.876   2.098 -0.0309 -0.2074 -0.4573
  391MOL0     C52709   5.115   6.777   2.018 -0.6612  0.0115  0.3059
  391MOL0     C52710   4.982   6.752   2.063  0.0051  0.7553 -0.4728
  391MOL0     C52711   5.000   6.700   2.207  0.6231  0.3174  0.7260
  391MOL0     C52712   4.859   6.692   2.250  0.2789  0.1614  0.3401
  391MOL0     C52713   4.848   6.613   2.375  1.2041 -0.2681 -0.2454
  391MOL0     C52714   4.859   6.549   2.471 -1.1018 -0.0222 -0.3201
  391MOL0     C52715   5.373   6.970   1.983  0.2370  0.9542 -0.0960
  391MOL0     C52716   5.508   6.969   1.940  0.3980  0.0936 -0.4549
  391MOL0     C52717   5.554   7.080   1.844 -0.2913 -0.0002  0.5528
  391MOL0     H52718   6.023   6.874   2.003  1.2121  0.1228  1.8390
  391MOL0     H52719   6.228   6.790   2.012 -0.1056 -0.5966  0.5607
  391MOL0     H52720   6.463   6.672   2.014  4.9806 -2.7868  0.1421
  391MOL0     H52721   6.367   6.604   2.138 -0.0466  0.6501 -0.6344
  391MOL0     H52722   6.549   6.430   1.957 -0.1012 -2.0317  0.3247
  391MOL0     H52723   6.454   6.393   2.100 -0.0381  1.5066  3.1168
  391MOL0     H52724   6.614   6.598   2.204  0.1401  2.3146 -3.9170
  391MOL0     H52725   6.695   6.563   2.054 -1.1476  0.2051 -1.0734
  391MOL0     H52726   6.724   6.333   2.125 -1.3737 -1.6148  2.1342
  391MOL0     H52727   6.821   6.438   2.242 -0.8245 -0.5027 -0.3180
  391MOL0     H52728   6.675   6.419   2.401 -0.5212 -0.2795 -0.5734
  391MOL0     H52729   6.536   6.364   2.296  0.0805  2.5712 -0.4202
  391MOL0     H52730   6.586   6.158   2.389  1.4734  1.3571  3.6352
  391MOL0     H52731   6.637   6.152   2.229  1.2488  0.0711 -0.0600
  391MOL0     H52732   6.852   6.252   2.395 -0.9222 -0.8917  1.4102
  391MOL0     H52733   6.849   6.157   2.246 -2.8749  1.6042 -1.1375
  391MOL0     H52734   6.759   6.058   2.519  1.6485 -1.2565  1.4657
  391MOL0     H52735   6.784   5.966   2.365  1.0069 -1.6886 -0.2909
  391MOL0     H52736   7.084   6.062   2.281  1.2018 -0.9208  0.2351
  391MOL0     H52737   7.347   6.052   2.328  0.7295  0.5200  0.9971
  391MOL0     H52738   7.385   5.980   2.489  0.8084 -0.8904 -0.9071
  391MOL0     H52739   7.444   5.804   2.376  1.5848  1.9486  0.4054
  391MOL0     H52740   7.278   5.771   2.332  1.6378  0.0186  1.4940
  391MOL0     H52741   7.423   5.743   2.150  1.1636  0.2472  0.5304
  391MOL0     H52742   7.464   5.915   2.141  0.2459 -1.8677 -2.4120
  391MOL0     H52743   7.280   5.901   1.990 -2.9936  0.5867 -0.7213
  391MOL0     H52744   7.228   5.976   2.133 -0.7006  0.9361 -2.2307
  391MOL0     H52745   7.001   5.986   1.995 -1.3948  0.5980 -1.0044
  391MOL0     H52746   6.745   5.977   1.996  2.3731  0.4580 -2.7101
  391MOL0     H52747   6.368   5.743   1.975  0.9534  0.1985  0.8830
  391MOL0     H52748   6.131   5.751   1.991 -0.3738 -0.3225  0.8569
  391MOL0     H52749   5.934   5.648   2.396 -0.8500 -0.7199 -0.0419
  391MOL0     H52750   5.960   5.811   2.333  3.4598 -2.4615  1.0361
  391MOL0     H52751   5.737   5.626   2.261  0.3872 -1.0080 -0.5042
  391MOL0     H52752   5.721   5.752   2.389 -0.1515  1.0586 -0.1581
  391MOL0     H52753   5.814   5.915   2.184  1.1062 -0.7285  4.0113
  391MOL0     H52754   5.737   5.784   2.088 -0.5811  0.5581  0.2482
  391MOL0     H52755   5.595   5.919   2.323  0.8054 -1.1507  1.0969
  391MOL0     H52756   5.523   5.820   2.188 -0.4192 -0.5140  2.8909
  391MOL0     H52757   5.606   5.995   2.022  0.4257 -1.2344  0.8063
  391MOL0     H52758   5.677   6.081   2.152  2.1734 -1.8638  1.0603
  391MOL0     H52759   5.371   6.027   2.130 -0.8892  0.6306 -0.2089
  391MOL0     H52760   5.443   6.142   2.243  1.2660 -1.0455  0.1654
  391MOL0     H52761   5.457   6.137   1.937 -2.0545 -0.3240  0.7674
  391MOL0     H52762   5.523   6.266   2.037  0.1295 -1.3565  0.5992
  391MOL0     H52763   5.228   6.191   2.036 -0.9472  0.8117 -2.3327
  391MOL0     H52764   5.289   6.320   2.134  0.7036  0.4539 -0.2816
  391MOL0     H52765   6.156   5.594   2.394  0.7148 -2.9087 -0.4804
  391MOL0     H52766   6.389   5.617   2.387 -0.0391  1.6257  1.6310
  391MOL0     H52767   6.757   5.619   2.226  1.3462  1.1496  1.9367
  391MOL0     H52768   6.996   5.612   2.207  1.2277  0.5161  0.2340
  391MOL0     H52769   6.106   6.414   1.857 -0.2177  0.3227 -2.3556
  391MOL0     H52770   5.863   6.494   1.875 -1.1639  1.1440 -0.8743
  391MOL0     H52771   5.597   6.696   2.118  0.1956  0.7125 -0.4397
  391MOL0     H52772   5.369   6.688   2.165 -0.5374 -1.7350 -2.2528
  391MOL0     H52773   5.175   6.688   2.001 -1.4445 -0.7864  1.6017
  391MOL0     H52774   5.101   6.825   1.920 -2.7691  2.9515  1.8870
  391MOL0     H52775   4.938   6.677   1.997  0.3375 -0.1085  0.2764
  391MOL0     H52776   4.930   6.848   2.069  1.1146  1.3582 -0.1535
  391MOL0     H52777   5.061   6.763   2.271  2.3141 -0.2487 -0.2419
  391MOL0     H52778   5.049   6.604   2.186 -0.2088  0.2581 -1.2076
  391MOL0     H52779   4.814   6.790   2.265 -0.9229  0.1317 -2.4160
  391MOL0     H52780   4.796   6.651   2.170  0.5440  0.8347 -0.2234
  391MOL0     H52781   4.886   6.493   2.557 -0.5510 -0.6558 -0.8934
  391MOL0     H52782   5.315   7.056   1.952 -0.2132  1.0195  0.8762
  391MOL0     H52783   5.483   7.163   1.845  2.8843  3.1308  4.6577
  391MOL0     H52784   5.639   7.134   1.888 -1.8642  3.1895 -0.0719
  391MOL0     H52785   5.588   7.037   1.749  1.5932 -0.6059  1.4442
  392MOL0     O52786   1.789  10.036   0.116 -0.2919 -0.4562 -1.0614
  392MOL0     C52787   1.770   9.941   0.047 -0.5617  0.6584 -0.2302
  392MOL0     O52788   1.869   9.885  -0.035 -0.0317  0.3550 -0.2389
  392MOL0     C52789   2.003   9.911  -0.018  0.3075 -0.5346 -0.1433
  392MOL0     C52790   2.093   9.860  -0.119 -0.2305  0.2596  0.1738
  392MOL0     C52791   2.230   9.904  -0.134  0.7681 -0.5047  0.3562
  392MOL0     C52792   2.288   9.976  -0.025 -0.2457  0.3846 -0.3118
  392MOL0     O52793   2.422  10.017  -0.014  0.2007 -0.2250  0.3420
  392MOL0     C52794   2.513   9.936  -0.073 -0.1555  0.2908 -0.2894
  392MOL0     C52795   2.659   9.979  -0.067 -0.1124  0.4524 -0.4598
  392MOL0     C52796   2.748   9.933  -0.186 -0.3851 -0.7428  0.2396
  392MOL0     C52797   2.818   9.801  -0.142  0.2359  0.3923  0.0835
  392MOL0     C52798   2.946   9.770  -0.231  0.1509  0.9953  0.3093
  392MOL0     C52799   3.016   9.639  -0.200  0.5997  1.1272 -0.2045
  392MOL0     C52800   3.139   9.603  -0.282 -0.5677 -0.1776  0.0562
  392MOL0     C52801   3.267   9.685  -0.241  0.2984  0.1138  0.4833
  392MOL0     N52802   3.376   9.656  -0.326  1.0105  0.3021 -0.5836
  392MOL0     C52803   3.409   9.532  -0.363  0.0409  0.3743 -0.4522
  392MOL0     C52804   3.512   9.543  -0.441 -0.3255 -0.2199 -0.0068
  392MOL0     C52805   3.583   9.429  -0.504 -0.0866  1.1898 -0.0240
  392MOL0     C52806   3.660   9.474  -0.630  0.2756 -0.2718  0.6665
  392MOL0     C52807   3.765   9.378  -0.663  0.2508  0.0636  0.5090
  392MOL0     C52808   3.828   9.396  -0.807 -0.1970 -0.9522  0.0633
  392MOL0     O52809   3.938   9.313  -0.808 -0.2456  0.7013  0.3057
  392MOL0     C52810   4.037   9.333  -0.909 -0.1030  1.0884 -0.1347
  392MOL0     C52811   4.172   9.304  -0.885 -0.1093 -0.0357 -0.7423
  392MOL0     C52812   4.264   9.298  -0.993  0.1958  0.0059 -0.6665
  392MOL0     C52813   4.227   9.352  -1.122 -0.7292  0.4164 -0.3900
  392MOL0     C52814   4.333   9.351  -1.227  0.4967 -0.1534  0.4264
  392MOL0     O52815   4.458   9.340  -1.182  0.4438  0.1048 -0.1280
  392MOL0     C52816   4.563   9.329  -1.271 -0.1996  0.6306  0.9352
  392MOL0     C52817   4.585   9.405  -1.384  0.3821 -0.3252 -0.6373
  392MOL0     C52818   4.700   9.386  -1.472 -0.4854 -0.3645 -0.1937
  392MOL0     C52819   4.796   9.292  -1.441  0.1905  1.1869  0.2715
  392MOL0     O52820   4.903   9.282  -1.519 -0.6152  0.0236 -0.0368
  392MOL0     C52821   4.999   9.178  -1.501  0.2114  0.0700  0.2865
  392MOL0     C52822   5.095   9.178  -1.622  0.6350 -0.2219  0.4008
  392MOL0     C52823   5.157   9.320  -1.643 -0.3861  0.8670 -0.4576
  392MOL0     C52824   5.276   9.302  -1.739 -0.5853 -0.4485  0.3076
  392MOL0     C52825   5.388   9.413  -1.726  0.7387 -0.6208  0.0902
  392MOL0     C52826   5.477   9.414  -1.849 -0.0426 -0.0762 -0.3111
  392MOL0     C52827   5.583   9.513  -1.837  0.6330 -0.1685  0.0019
  392MOL0     C52828   5.689   9.501  -1.950 -0.2084  0.0490  0.6638
  392MOL0    Cl52829   5.763   9.340  -1.959 -0.3246  0.1132 -0.1157
  392MOL0     C52830   4.777   9.209  -1.329 -0.1919  0.0918  0.5284
  392MOL0     C52831   4.660   9.228  -1.251  0.5073  0.4988  0.1345
  392MOL0     O52832   4.297   9.362  -1.347 -0.6977 -0.0675  0.3483
  392MOL0     C52833   4.092   9.388  -1.140  0.2105  0.1573  0.1312
  392MOL0     C52834   4.003   9.373  -1.033  0.6635 -0.2692  0.1951
  392MOL0     N52835   3.544   9.678  -0.451  0.5197  0.0225 -0.3669
  392MOL0     N52836   3.455   9.747  -0.379 -0.4130  0.0957 -0.4997
  392MOL0     C52837   2.198  10.012   0.078 -0.3609 -0.4019 -0.1697
  392MOL0     C52838   2.063   9.992   0.081  0.8825 -0.1992 -0.1934
  392MOL0     C52839   1.645   9.879   0.051 -0.0199 -0.5798 -0.1774
  392MOL0     C52840   1.624   9.745  -0.004  0.9848 -0.4251 -0.2906
  392MOL0     C52841   1.497   9.680  -0.002 -1.2646  0.6250 -0.4446
  392MOL0     C52842   1.386   9.753   0.044 -0.2966  0.0138 -0.0183
  392MOL0     O52843   1.263   9.702   0.046 -0.3336 -0.0248 -0.2202
  392MOL0     C52844   1.223   9.588  -0.041  0.7174 -0.1794  0.3223
  392MOL0     C52845   1.077   9.551  -0.015  0.4727  0.9178  0.1225
  392MOL0     C52846   0.978   9.656  -0.053  0.5175 -0.7338 -0.1194
  392MOL0     C52847   0.830   9.621  -0.018 -0.2518 -0.3704  0.5872
  392MOL0     C52848   0.745   9.734  -0.054  0.1438 -0.7039 -0.2827
  392MOL0     C52849   0.673   9.831  -0.082  0.5076  0.2618  1.2899
  392MOL0     C52850   1.403   9.882   0.087 -0.4009  0.4276 -0.9998
  392MOL0     C52851   1.524   9.945   0.095  0.3665 -0.1709 -0.2168
  392MOL0     C52852   1.525  10.095   0.129 -0.8989 -0.2093 -0.1338
  392MOL0     H52853   2.046   9.800  -0.196  1.3622  0.8945 -1.3595
  392MOL0     H52854   2.286   9.879  -0.224 -1.8444 -0.4280 -1.4039
  392MOL0     H52855   2.501   9.830  -0.047  1.9246 -0.1938 -1.1082
  392MOL0     H52856   2.497   9.935  -0.181  1.3593  1.1193 -0.5452
  392MOL0     H52857   2.701   9.948   0.029  0.4968  1.2485 -0.4482
  392MOL0     H52858   2.650  10.087  -0.081  2.6459  0.5359 -2.5245
  392MOL0     H52859   2.825  10.003  -0.221  0.4139 -2.8913 -2.7497
  392MOL0     H52860   2.695   9.906  -0.278 -0.2862 -0.8108  0.2014
  392MOL0     H52861   2.858   9.808  -0.040 -1.7481 -1.3959  1.0671
  392MOL0     H52862   2.750   9.716  -0.143 -1.7507  1.9064  0.3080
  392MOL0     H52863   2.911   9.767  -0.335  0.2604  0.5225  0.2851
  392MOL0     H52864   3.024   9.847  -0.224  2.7453 -1.3487 -0.8870
  392MOL0     H52865   3.030   9.635  -0.092 -1.7186 -1.3722  0.1199
  392MOL0     H52866   2.948   9.555  -0.214 -0.4170  1.5801  1.7461
  392MOL0     H52867   3.127   9.632  -0.387 -0.6103  2.0630  0.6172
  392MOL0     H52868   3.157   9.496  -0.271 -1.6063 -0.3362  0.3498
  392MOL0     H52869   3.250   9.793  -0.250 -0.0154 -0.0873 -2.1715
  392MOL0     H52870   3.295   9.672  -0.136 -1.5120  1.2267  1.1493
  392MOL0     H52871   3.350   9.444  -0.337  0.8381  0.4939  1.9830
  392MOL0     H52872   3.660   9.391  -0.435 -0.2094 -1.3490 -1.1637
  392MOL0     H52873   3.513   9.351  -0.535  1.2750 -0.8046  1.5990
  392MOL0     H52874   3.593   9.481  -0.716 -1.6701  1.0901  2.1763
  392MOL0     H52875   3.708   9.571  -0.615 -0.0746 -0.2251  1.5765
  392MOL0     H52876   3.725   9.276  -0.664  1.0412 -0.2532 -0.4078
  392MOL0     H52877   3.846   9.386  -0.591  4.0322 -1.1877 -3.1897
  392MOL0     H52878   3.871   9.495  -0.818 -0.6421 -0.7745 -0.1163
  392MOL0     H52879   3.758   9.371  -0.888  0.9081 -1.2832 -0.8129
  392MOL0     H52880   4.200   9.260  -0.790  0.3438 -1.2306 -1.4002
  392MOL0     H52881   4.367   9.272  -0.970 -0.3128 -0.9875  0.5897
  392MOL0     H52882   4.518   9.486  -1.411  0.7545  0.6824  1.3170
  392MOL0     H52883   4.725   9.436  -1.565 -1.7312  1.7854  0.5490
  392MOL0     H52884   5.051   9.196  -1.407 -2.1701  1.4578  1.4371
  392MOL0     H52885   4.949   9.081  -1.490 -0.1599  0.3298  0.9402
  392MOL0     H52886   5.175   9.104  -1.611 -0.3437 -1.3701  0.0981
  392MOL0     H52887   5.037   9.153  -1.712  0.8668  0.6276  0.0045
  392MOL0     H52888   5.086   9.394  -1.680 -2.2040  0.9397  2.8508
  392MOL0     H52889   5.187   9.363  -1.548 -1.2703  0.8292 -0.1545
  392MOL0     H52890   5.225   9.310  -1.835  3.0734  1.8224 -1.6729
  392MOL0     H52891   5.330   9.207  -1.736  3.8650  1.8094  0.4161
  392MOL0     H52892   5.449   9.393  -1.637  0.5332 -1.8952 -0.0284
  392MOL0     H52893   5.335   9.507  -1.711 -2.0345 -2.3179  1.9097
  392MOL0     H52894   5.526   9.317  -1.863 -0.2346  0.1989 -3.8233
  392MOL0     H52895   5.416   9.436  -1.937 -3.1999  1.6411  2.0779
  392MOL0     H52896   5.631   9.517  -1.739  1.9586 -1.0331 -0.5896
  392MOL0     H52897   5.545   9.614  -1.853 -0.1776  0.1684  3.3459
  392MOL0     H52898   5.647   9.522  -2.049  0.9463  0.1511  0.1789
  392MOL0     H52899   5.773   9.566  -1.922 -0.2732 -1.3707  4.8158
  392MOL0     H52900   4.850   9.134  -1.298  1.3195  1.5734  0.7030
  392MOL0     H52901   4.653   9.175  -1.157 -3.0110  0.4678  0.0043
  392MOL0     H52902   4.066   9.417  -1.242  1.8499 -0.1452 -0.4193
  392MOL0     H52903   3.903   9.397  -1.068  0.6031  0.3826  0.8017
  392MOL0     H52904   2.238  10.063   0.166 -0.4811 -2.0172  0.8509
  392MOL0     H52905   2.009  10.033   0.166  0.4840 -1.3866  0.1432
  392MOL0     H52906   1.705   9.682  -0.039  2.3541  0.5238  1.0421
  392MOL0     H52907   1.481   9.578  -0.035 -1.0952  0.1949  0.7639
  392MOL0     H52908   1.285   9.499  -0.027 -0.3766 -1.1044 -0.4670
  392MOL0     H52909   1.241   9.620  -0.143  2.4702  2.9175  1.4750
  392MOL0     H52910   1.059   9.526   0.090 -2.3119 -2.3612 -0.9451
  392MOL0     H52911   1.046   9.463  -0.071  0.1727  2.0277 -1.5234
  392MOL0     H52912   0.992   9.664  -0.161  2.6165 -0.6936  0.1133
  392MOL0     H52913   0.998   9.752  -0.004 -3.1988  0.8218 -1.3068
  392MOL0     H52914   0.802   9.532  -0.074 -1.2958  0.7087 -0.6703
  392MOL0     H52915   0.822   9.606   0.090 -1.4099 -0.7963  0.4492
  392MOL0     H52916   0.594   9.898  -0.109  0.0820 -1.3834 -2.2121
  392MOL0     H52917   1.318   9.936   0.128  0.9341  1.0178  1.1503
  392MOL0     H52918   1.569  10.120   0.226 -1.7883  2.0205 -0.2391
  392MOL0     H52919   1.572  10.154   0.050  0.9160 -1.2851  0.0895
  392MOL0     H52920   1.421  10.128   0.131 -0.2020  2.2206 -0.4062
  393MOL0     O52921   8.332   9.490   3.834  0.0267 -0.1910 -0.1345
  393MOL0     C52922   8.285   9.420   3.925 -0.5268  0.1185 -0.5791
  393MOL0     O52923   8.350   9.369   4.036 -0.4482 -0.6597  0.0616
  393MOL0     C52924   8.475   9.415   4.074 -0.8303  0.1733 -0.1552
  393MOL0     C52925   8.563   9.328   4.143  0.3564  0.4158 -0.0123
  393MOL0     C52926   8.696   9.373   4.175  0.2280 -0.6507 -0.4101
  393MOL0     C52927   8.735   9.502   4.140  0.2769 -0.1933 -0.2976
  393MOL0     O52928   8.864   9.558   4.142 -0.2345  0.0901 -0.3138
  393MOL0     C52929   8.973   9.471   4.162  0.2209  0.3038 -0.2101
  393MOL0     C52930   9.101   9.549   4.194  0.7272 -1.0130 -0.5626
  393MOL0     C52931   9.120   9.653   4.089 -0.0252  0.2887 -0.0643
  393MOL0     C52932   9.260   9.713   4.096  0.1525 -1.2926  0.6623
  393MOL0     C52933   9.269   9.830   3.991  0.1575 -0.4335 -0.0247
  393MOL0     C52934   9.405   9.913   4.006 -0.3250  0.6538 -0.9404
  393MOL0     C52935   9.410  10.013   3.888  0.1648  0.3309 -0.1407
  393MOL0     C52936   9.478   9.961   3.761 -0.6959 -0.5215  0.8540
  393MOL0     N52937   9.626   9.933   3.785  0.6201  0.0841 -0.0995
  393MOL0     C52938   9.676   9.809   3.789 -0.1975 -0.2580  0.1624
  393MOL0     C52939   9.813   9.825   3.795 -0.1571 -0.6599 -0.9898
  393MOL0     C52940   9.912   9.717   3.798  0.3050 -0.6254 -0.5169
  393MOL0     C52941   9.945   9.671   3.938 -0.3360 -0.6265 -0.1851
  393MOL0     C52942  10.061   9.571   3.924  0.6455  0.0404 -0.3911
  393MOL0     C52943  10.132   9.537   4.060  0.3478  0.0015 -0.1124
  393MOL0     O52944  10.208   9.413   4.054  0.6159  0.3841  0.0172
  393MOL0     C52945  10.344   9.408   4.081 -1.2470  0.8051  0.3573
  393MOL0     C52946  10.384   9.275   4.093 -0.5457 -0.4466  0.0578
  393MOL0     C52947  10.521   9.234   4.107  0.1607  0.1378 -0.4288
  393MOL0     C52948  10.613   9.338   4.136 -0.3843  0.6794  0.2230
  393MOL0     C52949  10.748   9.300   4.160 -0.3875  0.1656 -0.0924
  393MOL0     O52950  10.841   9.398   4.160  0.0498 -0.2947 -0.2437
  393MOL0     C52951  10.980   9.366   4.165  0.7449  0.2821 -0.3976
  393MOL0     C52952  11.035   9.282   4.068 -0.2100 -0.1902 -0.2523
  393MOL0     C52953  11.173   9.241   4.091  0.7056 -0.8939 -0.1349
  393MOL0     C52954  11.246   9.283   4.198  0.5080  0.0012  0.2600
  393MOL0     O52955  11.374   9.232   4.202 -0.3084  0.1046  0.4703
  393MOL0     C52956  11.465   9.260   4.311  0.3753  0.2693 -0.1354
  393MOL0     C52957  11.608   9.225   4.265  0.6448  0.1921  0.4765
  393MOL0     C52958  11.636   9.279   4.116 -0.1505 -0.2780  0.3132
  393MOL0     C52959  11.785   9.271   4.070  0.7905 -0.3196  0.1924
  393MOL0     C52960  11.788   9.306   3.922  0.3771 -0.6519  0.1434
  393MOL0     C52961  11.930   9.324   3.863 -0.3227 -0.1957 -0.7824
  393MOL0     C52962  11.944   9.309   3.710  0.5680 -0.0864  0.2177
  393MOL0     C52963  11.885   9.414   3.633 -0.5372  0.5277 -0.0692
  393MOL0    Cl52964  11.952   9.578   3.664  0.2430 -0.0670 -0.2952
  393MOL0     C52965  11.186   9.368   4.289 -0.2328  0.1349  0.2179
  393MOL0     C52966  11.050   9.417   4.269  0.0155 -0.0554  0.5425
  393MOL0     O52967  10.778   9.182   4.172  0.7994  0.6328  0.0513
  393MOL0     C52968  10.575   9.474   4.128  0.2026 -0.7086  0.5189
  393MOL0     C52969  10.438   9.507   4.107 -0.4955  0.6167  0.2994
  393MOL0     N52970   9.832   9.964   3.804  0.9370  0.2209  0.4615
  393MOL0     N52971   9.721  10.031   3.786 -0.0188  0.5509 -0.1416
  393MOL0     C52972   8.639   9.584   4.083  0.4097 -0.2797 -0.8774
  393MOL0     C52973   8.517   9.539   4.042  0.0299  0.2147  0.0232
  393MOL0     C52974   8.144   9.382   3.916  1.0351  0.3797 -0.3193
  393MOL0     C52975   8.068   9.391   4.036 -0.0202  0.7382 -0.6335
  393MOL0     C52976   7.932   9.358   4.037 -0.4020  0.1058 -0.6301
  393MOL0     C52977   7.865   9.342   3.919 -0.6303  0.4382  0.8713
  393MOL0     O52978   7.730   9.346   3.899  0.3326 -0.0149  0.0285
  393MOL0     C52979   7.644   9.344   4.015 -0.6885 -0.2587 -0.5172
  393MOL0     C52980   7.507   9.404   3.978  0.6168  1.2189 -0.4488
  393MOL0     C52981   7.447   9.347   3.844  0.0214  0.4388 -0.2751
  393MOL0     C52982   7.292   9.379   3.831 -0.7850 -0.6912 -0.5816
  393MOL0     C52983   7.210   9.332   3.941  0.4898 -0.3399 -0.9568
  393MOL0     C52984   7.154   9.301   4.045  0.5439 -0.6887 -0.4250
  393MOL0     C52985   7.935   9.354   3.802  0.5800 -0.1654  0.4795
  393MOL0     C52986   8.073   9.363   3.788  0.3115  0.1645  0.5944
  393MOL0     C52987   8.149   9.368   3.652  0.0641 -0.1212  0.4030
  393MOL0     H52988   8.532   9.228   4.173  1.5577  0.1705  0.4338
  393MOL0     H52989   8.757   9.314   4.242 -2.7100 -2.1638  1.0792
  393MOL0     H52990   8.961   9.395   4.240 -0.1386  1.2925  0.7139
  393MOL0     H52991   8.993   9.424   4.065 -0.5699 -0.0897 -0.1935
  393MOL0     H52992   9.190   9.490   4.215  1.2204  0.2798  1.2445
  393MOL0     H52993   9.085   9.597   4.291 -0.2021 -4.7329  1.3118
  393MOL0     H52994   9.036   9.724   4.084 -1.3736 -1.2262 -5.9269
  393MOL0     H52995   9.111   9.614   3.987 -3.3296 -0.1386  0.2946
  393MOL0     H52996   9.276   9.746   4.198  2.4635 -1.0668  0.2714
  393MOL0     H52997   9.329   9.630   4.077  1.0795 -0.8139  1.8481
  393MOL0     H52998   9.264   9.784   3.892 -1.1625 -1.1582  0.3570
  393MOL0     H52999   9.185   9.900   3.998 -1.0665 -1.1882 -4.1287
  393MOL0     H53000   9.415   9.957   4.106  0.3467 -1.2867 -0.1072
  393MOL0     H53001   9.484   9.841   3.983 -0.7452  0.3769 -1.5493
  393MOL0     H53002   9.469  10.099   3.923  0.1667  0.1583  0.2850
  393MOL0     H53003   9.309  10.049   3.864  0.6599  2.3819  0.6554
  393MOL0     H53004   9.421   9.877   3.720 -0.9037 -0.3668  0.8263
  393MOL0     H53005   9.468  10.044   3.691 -3.0438  0.2744  2.0217
  393MOL0     H53006   9.617   9.719   3.774 -1.0281  0.3433 -0.2682
  393MOL0     H53007   9.879   9.631   3.740  2.7963 -1.8946 -0.2066
  393MOL0     H53008  10.007   9.752   3.757  0.6362 -0.9858 -0.0653
  393MOL0     H53009   9.975   9.753   4.004 -3.0470  0.5530 -0.2943
  393MOL0     H53010   9.855   9.624   3.978 -0.3243 -0.8912 -0.4637
  393MOL0     H53011  10.132   9.619   3.856  1.5352  1.1247  1.2490
  393MOL0     H53012  10.032   9.480   3.870 -1.2494  1.0197 -1.1078
  393MOL0     H53013  10.047   9.516   4.126 -0.7636  1.1017 -1.1296
  393MOL0     H53014  10.182   9.625   4.102  3.1944 -1.8139  0.5894
  393MOL0     H53015  10.316   9.190   4.088 -0.1391 -0.7476 -0.4371
  393MOL0     H53016  10.551   9.130   4.116 -0.2342  0.0753  0.2101
  393MOL0     H53017  10.971   9.253   3.985 -1.5600  1.1078  0.2856
  393MOL0     H53018  11.217   9.179   4.013 -0.1062 -2.6987  0.7889
  393MOL0     H53019  11.464   9.365   4.339 -2.3065  0.4229 -0.5438
  393MOL0     H53020  11.441   9.188   4.390 -1.5711 -0.6060 -1.4393
  393MOL0     H53021  11.663   9.278   4.343 -2.2652  0.7626  2.2856
  393MOL0     H53022  11.619   9.118   4.283  2.5272  0.6206  2.2679
  393MOL0     H53023  11.573   9.222   4.047  1.8120 -1.2190 -0.7723
  393MOL0     H53024  11.591   9.378   4.103  0.0554 -0.1283  0.7245
  393MOL0     H53025  11.822   9.170   4.090 -0.5650 -1.0598 -0.8883
  393MOL0     H53026  11.844   9.339   4.132  0.4111 -0.3344  0.5772
  393MOL0     H53027  11.736   9.402   3.910  2.0396  0.6411  2.3637
  393MOL0     H53028  11.734   9.228   3.869 -0.2403  0.1949 -0.4982
  393MOL0     H53029  11.965   9.422   3.897  0.6423 -1.3385  1.7982
  393MOL0     H53030  11.996   9.250   3.910 -0.8332  0.5091  1.1613
  393MOL0     H53031  11.905   9.209   3.687 -0.1990  0.1784  0.3374
  393MOL0     H53032  12.051   9.311   3.688  0.6417 -4.6587 -0.9470
  393MOL0     H53033  11.880   9.385   3.528  1.6812  1.1362 -0.3845
  393MOL0     H53034  11.781   9.421   3.668  0.2230 -0.0833  2.5378
  393MOL0     H53035  11.240   9.412   4.372 -1.5853  3.8503 -0.6419
  393MOL0     H53036  11.009   9.498   4.328 -0.0775  2.2883 -2.5067
  393MOL0     H53037  10.647   9.555   4.140 -1.5180  0.8486  0.8016
  393MOL0     H53038  10.419   9.614   4.110  1.0601  0.9065  1.7053
  393MOL0     H53039   8.670   9.684   4.055  1.1388  0.3676  1.9669
  393MOL0     H53040   8.449   9.611   3.999 -1.7643 -0.5946  1.3518
  393MOL0     H53041   8.111   9.425   4.130  1.4805  0.2696 -1.1259
  393MOL0     H53042   7.872   9.366   4.127  1.1789 -3.9658  0.9801
  393MOL0     H53043   7.680   9.411   4.094  1.0518 -4.0871  2.2308
  393MOL0     H53044   7.646   9.242   4.054 -1.5763  0.5158  1.7638
  393MOL0     H53045   7.523   9.512   3.981  1.6552  1.0509  1.0232
  393MOL0     H53046   7.441   9.382   4.062  0.9983  0.2081 -0.4035
  393MOL0     H53047   7.458   9.238   3.840  0.6116  0.5074 -4.0278
  393MOL0     H53048   7.495   9.390   3.756 -0.9991  1.4761 -0.3496
  393MOL0     H53049   7.280   9.487   3.819  0.5563 -0.8474 -5.7436
  393MOL0     H53050   7.248   9.341   3.738 -1.0313 -2.3446  0.1801
  393MOL0     H53051   7.107   9.285   4.140 -0.0976  2.4398 -0.1066
  393MOL0     H53052   7.878   9.349   3.711  1.6686 -0.4881 -0.2087
  393MOL0     H53053   8.093   9.330   3.566  2.0201 -0.8108 -0.6190
  393MOL0     H53054   8.167   9.472   3.622 -1.8926  0.2262  0.3144
  393MOL0     H53055   8.242   9.311   3.655 -1.5209 -2.9981 -1.3529
  394MOL0     O53056   1.894   0.763   8.516 -0.3081  0.2965  0.2547
  394MOL0     C53057   1.877   0.703   8.626 -0.3027  0.0259  0.0953
  394MOL0     O53058   1.941   0.589   8.665 -0.3178  0.4142 -0.1601
  394MOL0     C53059   2.032   0.525   8.581  0.1846 -0.4781 -0.0817
  394MOL0     C53060   1.998   0.404   8.535  0.6297  0.3661 -0.1022
  394MOL0     C53061   2.068   0.344   8.434 -0.6751  0.5592  0.1711
  394MOL0     C53062   2.191   0.406   8.388 -0.4690  0.7735  0.2116
  394MOL0     O53063   2.277   0.345   8.298  0.3825  0.1752  1.1103
  394MOL0     C53064   2.288   0.196   8.311 -0.3716  0.5924 -0.1963
  394MOL0     C53065   2.414   0.144   8.244  0.2215 -1.0161 -0.2613
  394MOL0     C53066   2.551   0.179   8.302  0.1023 -1.2387  0.0954
  394MOL0     C53067   2.676   0.143   8.212 -0.2644  0.7616  0.1888
  394MOL0     C53068   2.797   0.179   8.287 -0.3999 -0.0933  0.5084
  394MOL0     C53069   2.922   0.140   8.211 -0.4824 -0.6023  0.6117
  394MOL0     C53070   3.053   0.157   8.280 -0.3563 -0.1094  1.1494
  394MOL0     C53071   3.174   0.130   8.182 -0.4605 -0.4940  0.1681
  394MOL0     N53072   3.264   0.244   8.160 -0.7348 -0.0475 -0.4328
  394MOL0     C53073   3.370   0.289   8.238  0.2274  0.2665  0.0775
  394MOL0     C53074   3.415   0.399   8.178 -0.0441 -0.4104  1.2207
  394MOL0     C53075   3.512   0.504   8.220  0.0147  0.1664  0.2743
  394MOL0     C53076   3.615   0.518   8.109  1.0744  0.5389 -0.5419
  394MOL0     C53077   3.720   0.407   8.114 -1.0813 -0.4916  0.4573
  394MOL0     C53078   3.818   0.414   7.998 -0.5649 -0.1152 -0.3895
  394MOL0     O53079   3.892   0.291   7.989  0.6316 -0.5621  1.0342
  394MOL0     C53080   4.027   0.297   7.970  0.4583 -0.0595  0.1180
  394MOL0     C53081   4.098   0.187   8.020  0.1687  0.3185  0.0096
  394MOL0     C53082   4.236   0.184   8.020 -0.0141 -0.0093  0.2037
  394MOL0     C53083   4.316   0.291   7.967  0.6737  0.0228 -0.9303
  394MOL0     C53084   4.464   0.286   7.981  0.1162 -0.6101 -0.3271
  394MOL0     O53085   4.518   0.213   8.094  0.7708 -0.1548 -0.2473
  394MOL0     C53086   4.659   0.206   8.117 -0.0918  0.2398 -0.5822
  394MOL0     C53087   4.705   0.213   8.253  0.3944  0.0740  0.3675
  394MOL0     C53088   4.844   0.219   8.278 -0.7827 -0.0898 -0.2040
  394MOL0     C53089   4.941   0.189   8.173  0.1559 -1.2607  0.4129
  394MOL0     O53090   5.077   0.196   8.192 -0.1363 -0.3512 -0.5941
  394MOL0     C53091   5.116   0.167   8.327 -0.6202 -0.3835  0.1844
  394MOL0     C53092   5.264   0.117   8.332  0.4177 -0.4742 -0.9367
  394MOL0     C53093   5.328   0.125   8.473 -0.1954 -0.0240  0.2626
  394MOL0     C53094   5.485   0.110   8.464 -0.0803 -0.3636  0.7068
  394MOL0     C53095   5.552   0.120   8.587  0.5914  0.6223 -0.2377
  394MOL0     C53096   5.518   0.010   8.685  0.4226 -0.4682 -0.1885
  394MOL0     C53097   5.579   0.042   8.817 -1.1216  0.1074 -0.6217
  394MOL0     C53098   5.739   0.048   8.809 -1.1735 -0.1155  0.0400
  394MOL0    Cl53099   5.791   0.055   8.981 -0.1557 -0.2799 -0.0216
  394MOL0     C53100   4.894   0.182   8.038 -0.3662  0.2041 -0.2385
  394MOL0     C53101   4.753   0.202   8.018 -0.0299  0.0271 -0.6169
  394MOL0     O53102   4.533   0.346   7.895  0.1586 -0.0748  0.9737
  394MOL0     C53103   4.246   0.396   7.913 -0.2378 -0.1960 -0.2138
  394MOL0     C53104   4.102   0.395   7.914  0.6659 -1.4481  0.6675
  394MOL0     N53105   3.334   0.414   8.062 -1.2833  1.0211  0.8797
  394MOL0     N53106   3.245   0.325   8.051  0.2115 -0.7411  0.3490
  394MOL0     C53107   2.229   0.527   8.445 -0.2921  0.4407 -0.0557
  394MOL0     C53108   2.152   0.590   8.537 -0.4292 -0.0739 -0.7662
  394MOL0     C53109   1.789   0.779   8.727 -0.5539 -0.0468  0.4549
  394MOL0     C53110   1.808   0.747   8.865 -0.3478  0.6333 -0.5765
  394MOL0     C53111   1.747   0.816   8.967 -0.8937 -0.8221 -0.3307
  394MOL0     C53112   1.650   0.907   8.941 -0.3308  0.5799 -0.0276
  394MOL0     O53113   1.594   0.965   9.051  0.5315  0.2301 -0.1448
  394MOL0     C53114   1.469   1.039   9.037 -0.1221  0.7389 -0.3098
  394MOL0     C53115   1.426   1.122   9.152  0.0226  0.9224 -0.7874
  394MOL0     C53116   1.273   1.138   9.156 -0.1447 -0.9943 -0.9118
  394MOL0     C53117   1.233   1.233   9.272 -1.5286 -0.6300  0.7352
  394MOL0     C53118   1.260   1.370   9.226  0.5068  0.1045  0.4536
  394MOL0     C53119   1.280   1.479   9.184  0.2113 -0.1889  0.1916
  394MOL0     C53120   1.624   0.943   8.807  0.6465 -0.0457 -1.0930
  394MOL0     C53121   1.691   0.883   8.702 -0.6831  0.1802  0.3389
  394MOL0     C53122   1.666   0.942   8.561  0.7250 -0.5172 -0.8279
  394MOL0     H53123   1.909   0.358   8.578  0.0815  3.2694  2.1863
  394MOL0     H53124   2.031   0.253   8.388  0.5287 -0.2995  0.8517
  394MOL0     H53125   2.284   0.171   8.417  1.8965  2.0339  0.2983
  394MOL0     H53126   2.203   0.149   8.260 -0.3985 -1.2461  1.4411
  394MOL0     H53127   2.414   0.190   8.145  0.4557 -1.3447 -0.4163
  394MOL0     H53128   2.414   0.036   8.231 -1.3589 -0.9432 -1.0446
  394MOL0     H53129   2.574   0.133   8.398  5.1123  0.3814 -0.0675
  394MOL0     H53130   2.556   0.285   8.329 -2.1505 -1.3839  1.3461
  394MOL0     H53131   2.661   0.037   8.186  2.2449  1.0811 -3.2738
  394MOL0     H53132   2.676   0.201   8.119  0.3279 -1.2989 -1.1741
  394MOL0     H53133   2.796   0.286   8.308  1.7899 -0.4600  3.0354
  394MOL0     H53134   2.799   0.130   8.385 -1.3534 -0.2262  0.4662
  394MOL0     H53135   2.913   0.040   8.167 -0.4516  0.0127 -0.8483
  394MOL0     H53136   2.929   0.209   8.126 -2.4916 -0.7287  0.2980
  394MOL0     H53137   3.056   0.088   8.365  0.4737  1.8380  2.7897
  394MOL0     H53138   3.057   0.256   8.325  1.7755 -0.4770  1.9196
  394MOL0     H53139   3.229   0.044   8.219 -1.1398 -1.4075 -0.8684
  394MOL0     H53140   3.135   0.080   8.093  0.3398 -2.9119  1.1138
  394MOL0     H53141   3.395   0.261   8.339  2.2552  0.8655 -0.2037
  394MOL0     H53142   3.452   0.595   8.231 -1.2260 -0.3964 -1.3880
  394MOL0     H53143   3.564   0.475   8.311  0.3064 -0.1267  0.0138
  394MOL0     H53144   3.568   0.519   8.010 -0.8725  3.0415  0.3095
  394MOL0     H53145   3.668   0.614   8.114  2.5093 -0.2728  0.5622
  394MOL0     H53146   3.672   0.309   8.103 -1.7788  0.0602 -2.4093
  394MOL0     H53147   3.771   0.410   8.210 -0.7745 -0.3708  0.2911
  394MOL0     H53148   3.881   0.499   8.025 -1.6704  0.2416  1.1720
  394MOL0     H53149   3.769   0.428   7.901 -3.0349 -3.8404  0.0933
  394MOL0     H53150   4.049   0.100   8.063  0.8951 -0.0001  0.2068
  394MOL0     H53151   4.287   0.096   8.058 -1.1165 -1.6638 -1.9549
  394MOL0     H53152   4.634   0.254   8.323  2.0634  1.5135  1.2825
  394MOL0     H53153   4.860   0.245   8.382 -1.8479 -0.0231 -0.0475
  394MOL0     H53154   5.123   0.254   8.392  1.6082 -0.7480  0.5237
  394MOL0     H53155   5.053   0.091   8.375 -0.3022 -0.3268  0.6962
  394MOL0     H53156   5.269   0.011   8.306 -1.4159 -0.9763  0.5229
  394MOL0     H53157   5.323   0.176   8.261 -1.3606  2.5515 -0.0732
  394MOL0     H53158   5.309   0.226   8.512  3.9558  0.0145  2.7308
  394MOL0     H53159   5.289   0.052   8.544  1.0237  0.5099  1.5292
  394MOL0     H53160   5.521   0.196   8.408 -0.9633 -1.1937 -1.2188
  394MOL0     H53161   5.504   0.017   8.410  0.0007 -0.2354  0.5137
  394MOL0     H53162   5.519   0.215   8.631 -2.4692 -0.8419  0.8791
  394MOL0     H53163   5.659   0.119   8.566  0.5896 -0.8570 -0.2372
  394MOL0     H53164   5.409   0.001   8.690  0.2550 -0.4398 -2.6397
  394MOL0     H53165   5.553  -0.085   8.644  0.0526 -1.8152  2.3659
  394MOL0     H53166   5.555  -0.037   8.888 -0.3391  1.7529  1.5616
  394MOL0     H53167   5.546   0.140   8.850 -0.1645  0.4956 -0.7930
  394MOL0     H53168   5.777  -0.031   8.743  1.4228  0.9304  0.1626
  394MOL0     H53169   5.782   0.140   8.769 -2.8961  0.3266 -0.8923
  394MOL0     H53170   4.964   0.171   7.955  2.0368 -0.9041  1.7983
  394MOL0     H53171   4.714   0.210   7.917 -1.7684  3.2080  0.1751
  394MOL0     H53172   4.291   0.482   7.866 -1.2287 -0.6573 -2.1261
  394MOL0     H53173   4.059   0.482   7.865  1.0457 -1.3503  0.5063
  394MOL0     H53174   2.321   0.578   8.419  0.7155 -0.7003  1.1026
  394MOL0     H53175   2.178   0.687   8.578 -1.9149  0.6113 -1.3425
  394MOL0     H53176   1.886   0.678   8.895 -1.0749 -0.1034 -0.3441
  394MOL0     H53177   1.783   0.807   9.069  2.4822  0.4411 -1.2676
  394MOL0     H53178   1.391   0.974   8.997 -0.1014  0.3957  0.1967
  394MOL0     H53179   1.473   1.111   8.954  0.1758 -2.1038 -2.9690
  394MOL0     H53180   1.478   1.217   9.143  0.2103  0.7617 -1.4530
  394MOL0     H53181   1.460   1.075   9.244 -1.1678 -0.5246 -1.0457
  394MOL0     H53182   1.226   1.045   9.188 -1.2994  0.1365  0.8653
  394MOL0     H53183   1.240   1.186   9.063 -2.3545  1.2122  0.8835
  394MOL0     H53184   1.127   1.224   9.301 -2.2996  0.7100 -1.4266
  394MOL0     H53185   1.295   1.207   9.358 -1.5415  0.5034  1.1090
  394MOL0     H53186   1.280   1.584   9.162  2.2855 -0.4585 -1.4918
  394MOL0     H53187   1.549   1.018   8.784  0.5842 -0.0608 -0.9413
  394MOL0     H53188   1.637   0.858   8.498 -1.9648  0.1360 -0.6055
  394MOL0     H53189   1.577   1.003   8.579  1.6212  0.6754 -0.2339
  394MOL0     H53190   1.754   1.002   8.534  0.0447 -0.3110 -2.7468
  395MOL0     O53191   2.581   0.922   2.961 -0.0836  0.3694  0.2933
  395MOL0     C53192   2.545   0.811   2.912 -2.1742 -0.0479  0.5916
  395MOL0     O53193   2.625   0.741   2.820 -0.3152 -0.2253  0.0215
  395MOL0     C53194   2.749   0.791   2.809 -0.3953 -0.4266 -0.1763
  395MOL0     C53195   2.846   0.750   2.897  0.0673  0.1557 -0.4457
  395MOL0     C53196   2.977   0.794   2.872 -0.1399  0.2336  0.5633
  395MOL0     C53197   3.007   0.882   2.767  0.2808  0.3901  0.3511
  395MOL0     O53198   3.131   0.936   2.741  0.0478  0.4719 -0.1779
  395MOL0     C53199   3.175   1.059   2.801 -0.0786  0.5335  0.2370
  395MOL0     C53200   3.319   1.091   2.767  0.2302 -0.4877 -0.0757
  395MOL0     C53201   3.423   0.986   2.806 -1.2853 -0.1008 -0.4831
  395MOL0     C53202   3.560   1.060   2.789  0.4333  0.0704  0.4883
  395MOL0     C53203   3.683   0.976   2.816 -0.0286  0.6742  0.1577
  395MOL0     C53204   3.677   0.919   2.960 -0.4932 -0.4773 -0.3057
  395MOL0     C53205   3.805   0.854   3.008 -0.1602 -0.0739 -0.2341
  395MOL0     C53206   3.843   0.733   2.916 -0.2855 -0.1780  0.0749
  395MOL0     N53207   3.743   0.624   2.895 -0.7348  0.2486 -0.5469
  395MOL0     C53208   3.654   0.622   2.788  0.7778 -0.1969  0.0068
  395MOL0     C53209   3.579   0.506   2.809  0.0247  0.3220 -0.4595
  395MOL0     C53210   3.461   0.461   2.730  0.3725 -0.0790 -0.2531
  395MOL0     C53211   3.355   0.567   2.741  0.3356 -0.5998  1.1006
  395MOL0     C53212   3.221   0.522   2.692  0.3682  0.9380  0.7156
  395MOL0     C53213   3.147   0.427   2.787  0.3250  0.1422 -0.6173
  395MOL0     O53214   3.010   0.424   2.749 -0.2104  0.0904  0.2472
  395MOL0     C53215   2.926   0.353   2.825  1.0776  0.9752  0.4008
  395MOL0     C53216   2.791   0.380   2.812 -0.2915  0.1773  0.5806
  395MOL0     C53217   2.697   0.313   2.894 -0.1234  0.2620  0.7544
  395MOL0     C53218   2.736   0.216   2.988 -0.8594  0.1242  0.1892
  395MOL0     C53219   2.627   0.144   3.059 -0.4892 -0.4289  0.3461
  395MOL0     O53220   2.656   0.087   3.174  0.1238 -0.0630 -0.0944
  395MOL0     C53221   2.560   0.012   3.248 -0.6254  0.3424  0.4113
  395MOL0     C53222   2.553   0.022   3.391  0.0919 -0.3606  0.3366
  395MOL0     C53223   2.460  -0.047   3.463  0.4985 -1.0307  0.0658
  395MOL0     C53224   2.359  -0.129   3.397  1.0585  1.0540 -0.1506
  395MOL0     O53225   2.280  -0.200   3.481 -0.0188 -0.2203  1.3591
  395MOL0     C53226   2.191  -0.306   3.430  0.6812 -0.3091 -0.1139
  395MOL0     C53227   2.069  -0.243   3.366  0.0958  0.4482  0.3830
  395MOL0     C53228   1.979  -0.366   3.321 -0.3182  0.5153 -0.2992
  395MOL0     C53229   1.834  -0.338   3.336  0.2288 -0.9285  0.1027
  395MOL0     C53230   1.754  -0.464   3.346  0.5287 -0.5573  0.5707
  395MOL0     C53231   1.602  -0.437   3.310 -0.6580 -0.0669 -0.3190
  395MOL0     C53232   1.511  -0.566   3.325  0.4209 -0.1869 -0.1227
  395MOL0     C53233   1.362  -0.533   3.316  0.7750 -0.6803  0.8614
  395MOL0    Cl53234   1.308  -0.437   3.455 -0.1690 -0.2832  0.2544
  395MOL0     C53235   2.379  -0.151   3.255 -0.0549 -0.7242 -0.0185
  395MOL0     C53236   2.473  -0.081   3.182 -0.7572  1.3298  0.1430
  395MOL0     O53237   2.518   0.155   3.005 -0.1157 -0.7426  0.0333
  395MOL0     C53238   2.871   0.178   3.001  0.6138 -0.5696  0.3077
  395MOL0     C53239   2.961   0.244   2.918 -0.7717 -0.0800  0.4436
  395MOL0     N53240   3.631   0.447   2.921 -0.0114 -0.0869  0.6004
  395MOL0     N53241   3.732   0.516   2.974  0.5436  0.3871  0.3431
  395MOL0     C53242   2.909   0.928   2.685  0.3442 -0.4499 -0.2999
  395MOL0     C53243   2.779   0.882   2.712  0.2681  0.1833  0.1326
  395MOL0     C53244   2.414   0.751   2.962 -0.0919  0.0638  0.0192
  395MOL0     C53245   2.356   0.814   3.073 -0.4233  0.1501 -0.0530
  395MOL0     C53246   2.244   0.766   3.133  0.0276 -0.4545 -0.0693
  395MOL0     C53247   2.182   0.650   3.080 -0.3200  0.7380 -0.6276
  395MOL0     O53248   2.060   0.608   3.126  0.4198 -0.2306 -0.2827
  395MOL0     C53249   1.974   0.699   3.200  0.1840  0.3837 -0.1262
  395MOL0     C53250   1.856   0.603   3.221  0.4313 -0.4402 -0.9043
  395MOL0     C53251   1.765   0.577   3.092  0.3298 -0.1057 -0.7817
  395MOL0     C53252   1.624   0.520   3.125 -0.4683 -0.3692 -0.4183
  395MOL0     C53253   1.536   0.626   3.177 -0.0186 -1.1268  0.0138
  395MOL0     C53254   1.481   0.718   3.232  0.0774  0.8350 -0.5103
  395MOL0     C53255   2.237   0.586   2.976 -0.3604 -0.4169 -0.0887
  395MOL0     C53256   2.352   0.629   2.915  0.4608  0.0060  1.2479
  395MOL0     C53257   2.395   0.552   2.793  0.2334  0.4638 -0.0117
  395MOL0     H53258   2.820   0.680   2.976 -2.2602  0.7863 -0.5765
  395MOL0     H53259   3.054   0.769   2.945 -2.3696 -1.2579  2.5785
  395MOL0     H53260   3.110   1.143   2.775  2.0266  1.7661 -1.3909
  395MOL0     H53261   3.169   1.047   2.910 -2.8519 -2.9631 -0.1400
  395MOL0     H53262   3.339   1.183   2.822 -1.6124 -0.1930  0.1665
  395MOL0     H53263   3.325   1.114   2.661  3.2029 -2.7156 -0.4857
  395MOL0     H53264   3.414   0.903   2.735 -1.0107  0.7710 -1.5586
  395MOL0     H53265   3.422   0.965   2.913  3.4900  0.4990 -0.1053
  395MOL0     H53266   3.575   1.088   2.684  0.5289  2.6738  1.1279
  395MOL0     H53267   3.562   1.149   2.852  3.2523  1.5354 -1.4205
  395MOL0     H53268   3.701   0.906   2.734 -1.2983  2.1783 -1.4785
  395MOL0     H53269   3.764   1.049   2.810 -1.7528  2.7366  0.5892
  395MOL0     H53270   3.647   1.003   3.024 -2.0560 -0.7181 -0.6800
  395MOL0     H53271   3.596   0.846   2.967 -0.6499 -0.2679  0.0929
  395MOL0     H53272   3.788   0.822   3.111  0.5551  2.2746  0.6693
  395MOL0     H53273   3.884   0.929   3.019 -3.0167  3.1434  0.1097
  395MOL0     H53274   3.882   0.767   2.819 -0.5492  0.5029  0.1986
  395MOL0     H53275   3.933   0.695   2.964 -0.6899 -0.9424  0.2417
  395MOL0     H53276   3.637   0.689   2.705 -0.6979 -0.5524 -0.0024
  395MOL0     H53277   3.487   0.452   2.624  2.5290  0.3157  0.1986
  395MOL0     H53278   3.427   0.362   2.762  0.1246  0.0557 -0.0970
  395MOL0     H53279   3.336   0.599   2.844 -0.8230 -0.2858  0.8104
  395MOL0     H53280   3.384   0.653   2.679 -2.7380  0.5762  1.1190
  395MOL0     H53281   3.243   0.469   2.599  0.3160 -0.8637  1.6972
  395MOL0     H53282   3.157   0.607   2.663 -2.0672 -1.2403 -0.7982
  395MOL0     H53283   3.168   0.452   2.891  1.0776  0.6921 -0.8912
  395MOL0     H53284   3.185   0.324   2.778 -0.0317 -0.2504  1.7610
  395MOL0     H53285   2.767   0.463   2.746  3.1078  1.9944  1.3859
  395MOL0     H53286   2.595   0.347   2.883  0.3163  1.5131  0.2191
  395MOL0     H53287   2.616   0.091   3.446 -0.8097  1.9705 -1.3761
  395MOL0     H53288   2.464  -0.019   3.568  1.9415 -1.1094  0.0442
  395MOL0     H53289   2.250  -0.365   3.359  1.9253 -0.0412  0.6445
  395MOL0     H53290   2.165  -0.358   3.523  2.1328 -0.3757  0.2879
  395MOL0     H53291   2.026  -0.189   3.451  2.2666  1.4344  0.9356
  395MOL0     H53292   2.093  -0.186   3.276  1.6079 -1.5728 -0.5615
  395MOL0     H53293   1.985  -0.400   3.217 -2.8166 -0.7932 -0.0939
  395MOL0     H53294   1.989  -0.453   3.386  0.2281  0.1707 -0.8336
  395MOL0     H53295   1.800  -0.288   3.245 -1.3008 -0.0811  1.1094
  395MOL0     H53296   1.812  -0.275   3.422  0.0358 -0.9046  0.0365
  395MOL0     H53297   1.739  -0.501   3.448 -0.7995  0.1628  0.6689
  395MOL0     H53298   1.794  -0.542   3.280 -0.5376 -0.3491 -0.3685
  395MOL0     H53299   1.554  -0.362   3.375  0.5533  1.5574 -1.2250
  395MOL0     H53300   1.594  -0.398   3.208  0.7677  1.3983  0.0868
  395MOL0     H53301   1.530  -0.606   3.425  2.2162 -1.3218 -0.8718
  395MOL0     H53302   1.537  -0.644   3.253  1.8365  0.4597 -0.3495
  395MOL0     H53303   1.348  -0.476   3.224  1.8434  0.2802  1.2830
  395MOL0     H53304   1.305  -0.627   3.311  0.6531 -0.5418 -2.0672
  395MOL0     H53305   2.312  -0.220   3.204  0.6668 -0.7402 -0.9627
  395MOL0     H53306   2.484  -0.095   3.075  4.5724  1.5707  0.3775
  395MOL0     H53307   2.904   0.102   3.072  2.8824 -0.2681 -0.3608
  395MOL0     H53308   3.057   0.195   2.926 -1.3184 -1.2661  0.0238
  395MOL0     H53309   2.927   1.002   2.608  1.3700  0.9008  1.1937
  395MOL0     H53310   2.701   0.919   2.646 -0.4078 -1.5270 -0.0781
  395MOL0     H53311   2.407   0.903   3.111  1.1834 -0.7386 -0.0588
  395MOL0     H53312   2.216   0.818   3.224  1.2734  0.6075 -0.2608
  395MOL0     H53313   1.942   0.783   3.139  2.2132  0.9851 -0.4481
  395MOL0     H53314   2.021   0.731   3.293  1.8505 -1.5554 -0.2346
  395MOL0     H53315   1.793   0.660   3.290  0.6413 -1.0030 -0.2356
  395MOL0     H53316   1.885   0.507   3.264  0.7216  0.6433  1.4134
  395MOL0     H53317   1.813   0.504   3.026  0.0178 -0.0902 -1.0293
  395MOL0     H53318   1.757   0.674   3.042  1.6065 -0.7143 -2.2573
  395MOL0     H53319   1.580   0.485   3.032  0.7500  0.1695 -1.2193
  395MOL0     H53320   1.642   0.448   3.206 -0.3203 -1.3980 -1.3504
  395MOL0     H53321   1.428   0.800   3.276 -1.0251  0.0297 -0.3050
  395MOL0     H53322   2.189   0.495   2.941  1.9912 -0.9043 -2.4549
  395MOL0     H53323   2.375   0.609   2.702  1.0519  0.3714 -0.2600
  395MOL0     H53324   2.501   0.526   2.802  0.3395 -0.0031 -2.1814
  395MOL0     H53325   2.329   0.465   2.786 -0.3855  1.0348 -1.7647
  396MOL0     O53326   7.400   5.897   6.507  0.7348  0.0144 -0.7249
  396MOL0     C53327   7.324   5.889   6.603 -0.3282 -0.2811 -0.7913
  396MOL0     O53328   7.353   5.923   6.731 -0.4426  0.2126  0.1765
  396MOL0     C53329   7.461   5.998   6.764  0.6024 -0.7237 -1.2643
  396MOL0     C53330   7.526   5.951   6.878  0.0928 -0.1067 -0.1088
  396MOL0     C53331   7.632   6.019   6.935  0.8108 -0.0807  0.3122
  396MOL0     C53332   7.672   6.135   6.869 -1.0620 -0.4131 -0.5204
  396MOL0     O53333   7.777   6.199   6.924  0.2375 -1.0160  0.5639
  396MOL0     C53334   7.869   6.270   6.832  1.1054 -0.4601  0.8666
  396MOL0     C53335   8.008   6.293   6.890  0.0443  1.1096 -0.9640
  396MOL0     C53336   8.012   6.345   7.032  1.2144 -0.4725 -0.7588
  396MOL0     C53337   8.143   6.419   7.062 -0.6314 -0.6903 -0.1996
  396MOL0     C53338   8.261   6.318   7.105 -0.1171 -0.5280  0.5720
  396MOL0     C53339   8.398   6.376   7.095 -0.0376 -0.0187 -0.7034
  396MOL0     C53340   8.449   6.433   6.961 -0.3572  0.4638 -0.1708
  396MOL0     C53341   8.598   6.408   6.944 -0.2046 -0.1628 -0.5380
  396MOL0     N53342   8.657   6.463   6.820  0.6316  0.1207  0.3982
  396MOL0     C53343   8.775   6.410   6.772  0.2943 -0.1244  0.7395
  396MOL0     C53344   8.802   6.491   6.665  0.6972  0.8943  0.7771
  396MOL0     C53345   8.933   6.479   6.585 -0.1426 -0.6079  0.2567
  396MOL0     C53346   8.906   6.474   6.432  0.6176  0.7931  1.2230
  396MOL0     C53347   8.849   6.336   6.396 -0.2021  0.2496  0.4345
  396MOL0     C53348   8.808   6.313   6.249  0.1434  0.0443 -0.6299
  396MOL0     O53349   8.928   6.306   6.182 -0.1937  0.4022 -0.2250
  396MOL0     C53350   8.975   6.409   6.105 -0.2792 -1.1167  0.7159
  396MOL0     C53351   8.891   6.500   6.028  0.3614  0.8584  0.0279
  396MOL0     C53352   8.946   6.602   5.957  0.0348 -1.1248  0.3648
  396MOL0     C53353   9.080   6.625   5.957 -0.7407 -1.0676  0.4029
  396MOL0     C53354   9.134   6.730   5.870 -0.4727  0.0039  0.1672
  396MOL0     O53355   9.052   6.772   5.763 -0.5573 -0.6364 -0.0735
  396MOL0     C53356   9.104   6.854   5.662 -0.1346 -0.6252 -0.3542
  396MOL0     C53357   9.142   6.980   5.700  0.6782 -0.0102 -0.6608
  396MOL0     C53358   9.185   7.060   5.595  0.1269 -0.1430  0.9414
  396MOL0     C53359   9.192   7.019   5.460 -0.3867 -0.8292  0.2987
  396MOL0     O53360   9.241   7.094   5.354  0.1118  0.3358  0.7620
  396MOL0     C53361   9.250   7.230   5.375 -0.2313 -0.1461 -0.7768
  396MOL0     C53362   9.241   7.309   5.244  0.6707 -0.0696 -1.1245
  396MOL0     C53363   9.095   7.303   5.203  0.5857 -0.1586 -0.2422
  396MOL0     C53364   9.084   7.359   5.057 -0.1216 -0.4637 -0.3726
  396MOL0     C53365   8.948   7.324   4.996  1.0556 -0.0917 -0.3834
  396MOL0     C53366   8.922   7.381   4.855 -0.6356 -0.1908  0.0224
  396MOL0     C53367   8.781   7.346   4.794 -0.0671  0.3844  0.4491
  396MOL0     C53368   8.766   7.192   4.767  0.8921 -0.3672  0.0941
  396MOL0    Cl53369   8.646   7.180   4.634  0.3661  0.2112  0.8814
  396MOL0     C53370   9.153   6.891   5.432  1.6039  0.3665  0.5114
  396MOL0     C53371   9.103   6.810   5.535  1.2329  0.5085 -0.1959
  396MOL0     O53372   9.246   6.768   5.883  0.7339 -0.2053  0.3198
  396MOL0     C53373   9.170   6.539   6.034  0.5968 -0.9448  0.6596
  396MOL0     C53374   9.117   6.429   6.102  0.4954  0.2741  0.0675
  396MOL0     N53375   8.706   6.587   6.642  0.6158  0.2153 -0.9588
  396MOL0     N53376   8.627   6.564   6.738  0.2390 -0.2364  0.4993
  396MOL0     C53377   7.604   6.183   6.753  1.0216  0.1229 -0.1915
  396MOL0     C53378   7.497   6.113   6.703 -1.3342  0.3301 -0.5319
  396MOL0     C53379   7.195   5.833   6.579  0.6637  0.4553 -0.5454
  396MOL0     C53380   7.109   5.817   6.697  0.1241  0.0694  0.2351
  396MOL0     C53381   6.983   5.763   6.698 -0.1762 -0.8052 -0.1725
  396MOL0     C53382   6.937   5.703   6.583  0.1457  0.6839  0.4817
  396MOL0     O53383   6.804   5.662   6.570  0.4359  0.1925 -0.8964
  396MOL0     C53384   6.700   5.673   6.674 -0.5461  0.2319 -0.0417
  396MOL0     C53385   6.674   5.813   6.724  0.1004 -0.7892 -0.2113
  396MOL0     C53386   6.630   5.907   6.611  0.3103 -0.3821  0.0593
  396MOL0     C53387   6.593   6.041   6.669  0.4478 -0.1223 -0.4551
  396MOL0     C53388   6.453   6.050   6.707  1.4867 -0.4767 -0.5731
  396MOL0     C53389   6.341   6.067   6.752 -0.0028 -0.3169 -0.3620
  396MOL0     C53390   7.019   5.701   6.467 -0.0343  0.1105  1.2364
  396MOL0     C53391   7.143   5.765   6.457 -0.1327 -0.9587 -0.2459
  396MOL0     C53392   7.215   5.755   6.324  0.2106  0.5579 -0.2448
  396MOL0     H53393   7.478   5.876   6.940 -0.1678  0.4677  0.3940
  396MOL0     H53394   7.673   5.991   7.031 -2.1865  2.9624  2.7293
  396MOL0     H53395   7.877   6.224   6.733  2.9929 -0.6895  1.0838
  396MOL0     H53396   7.837   6.373   6.819  1.0698 -0.4822  0.7773
  396MOL0     H53397   8.076   6.360   6.838  1.4227  0.9877  0.6068
  396MOL0     H53398   8.053   6.193   6.889  0.5948  1.3378 -0.0339
  396MOL0     H53399   8.008   6.256   7.095  1.2527 -0.3311 -0.5591
  396MOL0     H53400   7.927   6.409   7.058  1.2372 -0.4324 -0.7839
  396MOL0     H53401   8.173   6.471   6.970  1.4610 -0.0348  0.7904
  396MOL0     H53402   8.137   6.501   7.135  2.0598  0.6398 -1.3320
  396MOL0     H53403   8.242   6.282   7.206  2.7528 -3.0277  0.3655
  396MOL0     H53404   8.249   6.235   7.035 -1.0783 -0.9797  1.2415
  396MOL0     H53405   8.413   6.456   7.169 -0.7122 -0.0312 -0.5472
  396MOL0     H53406   8.459   6.291   7.125 -2.3923 -1.1995  1.0923
  396MOL0     H53407   8.425   6.540   6.956 -0.8664  0.2938 -2.1787
  396MOL0     H53408   8.392   6.387   6.881 -3.3738  2.4938  0.6535
  396MOL0     H53409   8.660   6.446   7.026  0.1721  1.2682 -1.4529
  396MOL0     H53410   8.605   6.299   6.949 -0.0163 -0.1535 -0.5842
  396MOL0     H53411   8.831   6.327   6.815 -0.2685 -0.2148  1.2942
  396MOL0     H53412   8.985   6.571   6.614 -1.2603 -0.3887  1.6770
  396MOL0     H53413   9.001   6.401   6.621 -1.1372 -0.3797  2.8090
  396MOL0     H53414   8.829   6.547   6.403 -1.6160 -1.1717  1.9454
  396MOL0     H53415   9.002   6.497   6.384  1.6302  1.2349  3.3632
  396MOL0     H53416   8.754   6.337   6.450 -0.8699  4.0860 -0.4898
  396MOL0     H53417   8.905   6.253   6.439  0.2765 -0.7934 -2.0397
  396MOL0     H53418   8.751   6.400   6.215  0.3907  0.0154 -1.1126
  396MOL0     H53419   8.745   6.225   6.238 -1.4707  0.9133  1.0997
  396MOL0     H53420   8.782   6.501   6.019  0.2993 -0.6738  0.3485
  396MOL0     H53421   8.875   6.664   5.904 -0.2969  0.4625  2.5109
  396MOL0     H53422   9.137   7.005   5.806 -0.8744  0.3618 -0.7974
  396MOL0     H53423   9.205   7.166   5.608  1.5341 -0.2717  0.0123
  396MOL0     H53424   9.177   7.267   5.448 -1.2860 -1.4062 -1.1452
  396MOL0     H53425   9.345   7.250   5.424 -0.5778 -2.4462  1.0473
  396MOL0     H53426   9.280   7.409   5.263  4.0077 -1.6078  1.0165
  396MOL0     H53427   9.304   7.261   5.168 -0.7265 -1.0491 -1.7073
  396MOL0     H53428   9.050   7.203   5.204 -2.5159  1.1304  1.0051
  396MOL0     H53429   9.035   7.357   5.277 -0.5029 -1.2207 -0.3216
  396MOL0     H53430   9.162   7.316   4.994  0.1320  0.6989 -0.8715
  396MOL0     H53431   9.090   7.468   5.051 -2.1427 -0.3219 -0.7130
  396MOL0     H53432   8.872   7.372   5.059  0.7840 -0.1630 -0.6575
  396MOL0     H53433   8.936   7.216   5.002  2.5672 -0.2164  2.6728
  396MOL0     H53434   8.926   7.490   4.856 -0.7318 -0.1893  0.3775
  396MOL0     H53435   9.008   7.345   4.797 -0.7623  0.2036 -0.4112
  396MOL0     H53436   8.789   7.396   4.698  3.8447  2.0631  1.4702
  396MOL0     H53437   8.686   7.380   4.838 -1.5610 -2.2414 -0.5633
  396MOL0     H53438   8.860   7.149   4.733  1.7303  0.8305  0.8171
  396MOL0     H53439   8.736   7.146   4.862  3.9482 -0.0618  1.3230
  396MOL0     H53440   9.142   6.847   5.333 -0.6162  1.7100  0.1066
  396MOL0     H53441   9.056   6.717   5.508  2.7527 -0.7904  1.3895
  396MOL0     H53442   9.277   6.556   6.042  0.4731 -0.2871  1.0311
  396MOL0     H53443   9.167   6.345   6.149 -2.9937 -1.7869  0.4696
  396MOL0     H53444   7.632   6.282   6.719 -1.6406  0.9826 -0.1156
  396MOL0     H53445   7.440   6.162   6.624 -1.1735  0.1734 -0.7494
  396MOL0     H53446   7.137   5.867   6.789  1.8408 -0.1259 -0.1473
  396MOL0     H53447   6.927   5.753   6.791  1.5975 -1.0415  0.9367
  396MOL0     H53448   6.736   5.604   6.751 -1.5168  0.6262  0.7897
  396MOL0     H53449   6.610   5.635   6.626 -1.0777  2.2804 -0.7444
  396MOL0     H53450   6.762   5.864   6.764 -0.1890 -1.5303  1.4507
  396MOL0     H53451   6.595   5.812   6.798  1.2352  0.2153  1.0536
  396MOL0     H53452   6.546   5.869   6.552  0.6416 -2.2407  0.7085
  396MOL0     H53453   6.715   5.923   6.544  3.0682  1.6773  3.6752
  396MOL0     H53454   6.648   6.059   6.762 -0.2887 -0.3190  0.0287
  396MOL0     H53455   6.605   6.125   6.599  1.7069  1.5114  1.5996
  396MOL0     H53456   6.243   6.086   6.793 -0.5795 -2.7372 -0.4585
  396MOL0     H53457   6.971   5.659   6.379 -0.4121  3.2056 -0.1452
  396MOL0     H53458   7.198   5.850   6.271 -1.1287  0.2021 -0.4885
  396MOL0     H53459   7.317   5.719   6.342 -0.2526 -0.1446  1.0771
  396MOL0     H53460   7.174   5.677   6.259  1.7730 -0.0578 -0.5395
  397MOL0     O53461   9.530  10.721   1.834  0.4668 -0.4316 -0.2642
  397MOL0     C53462   9.477  10.617   1.813 -1.2235 -0.0096 -0.5938
  397MOL0     O53463   9.548  10.496   1.819  0.0855  0.5298 -0.9088
  397MOL0     C53464   9.677  10.495   1.765  0.7913  0.0386  0.4985
  397MOL0     C53465   9.787  10.541   1.836  0.0936 -0.7233  0.0228
  397MOL0     C53466   9.917  10.537   1.790 -0.1086 -0.5058  1.0346
  397MOL0     C53467   9.946  10.483   1.665  0.1887 -0.3601  0.1803
  397MOL0     O53468  10.069  10.486   1.617 -0.0521  0.6211  0.9448
  397MOL0     C53469  10.171  10.415   1.704 -0.7777 -0.4428  0.3813
  397MOL0     C53470  10.309  10.477   1.653  0.5252  0.3056 -0.5092
  397MOL0     C53471  10.422  10.415   1.742 -0.0472 -0.2472  0.2398
  397MOL0     C53472  10.553  10.486   1.707 -0.0701  0.6188 -0.0972
  397MOL0     C53473  10.660  10.423   1.793  0.1310 -0.7508  0.0771
  397MOL0     C53474  10.792  10.502   1.772  0.7396  1.4176 -0.4599
  397MOL0     C53475  10.906  10.458   1.866 -0.5169  0.9654 -0.0146
  397MOL0     C53476  11.040  10.482   1.800 -0.5369  0.3185 -0.1078
  397MOL0     N53477  11.157  10.484   1.894 -0.3003 -0.5342  0.0634
  397MOL0     C53478  11.214  10.595   1.952  0.4646 -0.1080 -0.5009
  397MOL0     C53479  11.306  10.555   2.040  1.0935  0.5970  0.7087
  397MOL0     C53480  11.390  10.639   2.128  0.3874  0.1261 -0.0323
  397MOL0     C53481  11.532  10.677   2.076 -0.2052 -0.8565  0.1426
  397MOL0     C53482  11.637  10.701   2.191  0.3823  0.9441  0.1502
  397MOL0     C53483  11.682  10.563   2.239 -0.1512  0.2017 -0.1058
  397MOL0     O53484  11.779  10.575   2.344 -0.3036  0.3872 -0.2916
  397MOL0     C53485  11.876  10.474   2.356  0.3160 -0.5880  0.0378
  397MOL0     C53486  11.991  10.498   2.433  0.1469 -0.8463 -0.1641
  397MOL0     C53487  12.096  10.412   2.439 -0.5901  0.3349 -0.0411
  397MOL0     C53488  12.093  10.288   2.366  1.1411 -0.2366  0.4536
  397MOL0     C53489  12.196  10.184   2.380 -0.4610  0.0409 -1.1864
  397MOL0     O53490  12.195  10.078   2.296  0.0120 -0.1151 -0.4320
  397MOL0     C53491  12.279   9.977   2.335  0.2695 -0.6933 -0.7762
  397MOL0     C53492  12.225   9.854   2.307 -0.7036  0.3424  0.7769
  397MOL0     C53493  12.297   9.741   2.350 -0.1658 -0.5660 -0.0447
  397MOL0     C53494  12.428   9.752   2.404 -0.0146  0.2657  0.3872
  397MOL0     O53495  12.500   9.641   2.444 -0.3252 -0.1645 -0.0879
  397MOL0     C53496  12.436   9.514   2.464 -0.3142 -0.4850  0.6939
  397MOL0     C53497  12.538   9.399   2.462 -0.0166 -0.3989  0.5752
  397MOL0     C53498  12.651   9.426   2.364  0.8438  0.0811 -0.2211
  397MOL0     C53499  12.595   9.435   2.222  0.3762 -0.5713 -0.1044
  397MOL0     C53500  12.699   9.400   2.119 -0.1132  0.5985  0.8988
  397MOL0     C53501  12.650   9.425   1.974  0.9966  0.8480  0.4130
  397MOL0     C53502  12.750   9.409   1.870 -0.1614  0.2430  0.5853
  397MOL0     C53503  12.714   9.424   1.720 -0.4881  0.1820 -0.7472
  397MOL0    Cl53504  12.683   9.270   1.633 -0.0016 -0.3459 -0.3200
  397MOL0     C53505  12.491   9.877   2.400  0.4871  0.2001 -0.0794
  397MOL0     C53506  12.419   9.987   2.372  0.1243 -0.0539  0.3628
  397MOL0     O53507  12.287  10.214   2.459 -0.0013  0.1698 -0.5256
  397MOL0     C53508  11.987  10.271   2.276  0.3025 -0.0513  0.6493
  397MOL0     C53509  11.885  10.362   2.275  0.0498 -0.9848 -0.3004
  397MOL0     N53510  11.292  10.413   2.037  0.1019 -0.8657 -0.3942
  397MOL0     N53511  11.201  10.373   1.956 -0.2530 -0.1804  1.2917
  397MOL0     C53512   9.833  10.432   1.585  0.3412 -0.0681  0.8901
  397MOL0     C53513   9.697  10.440   1.636  0.0186  0.7406 -0.3615
  397MOL0     C53514   9.336  10.611   1.786  0.3822 -0.9627 -0.3790
  397MOL0     C53515   9.293  10.510   1.699  0.3318  0.3179 -0.3431
  397MOL0     C53516   9.154  10.499   1.666 -0.0354  0.2962  0.5128
  397MOL0     C53517   9.054  10.586   1.728 -0.3822  0.2848  1.2727
  397MOL0     O53518   8.918  10.591   1.702 -0.3628 -0.0607 -0.0155
  397MOL0     C53519   8.852  10.500   1.600 -0.1614 -0.1830  0.6130
  397MOL0     C53520   8.847  10.578   1.471 -0.0103 -0.5891 -0.1555
  397MOL0     C53521   8.744  10.687   1.468 -0.0049 -0.2382 -0.2328
  397MOL0     C53522   8.732  10.746   1.333  0.4814 -0.7568  0.0969
  397MOL0     C53523   8.621  10.848   1.338 -0.9902 -0.2155  0.7676
  397MOL0     C53524   8.539  10.928   1.330  0.8076  0.0393 -0.2309
  397MOL0     C53525   9.106  10.663   1.828 -0.3326 -0.0009 -0.3223
  397MOL0     C53526   9.240  10.685   1.857  0.0442 -0.1051 -0.2435
  397MOL0     C53527   9.272  10.785   1.960 -0.4567 -0.1394  0.0143
  397MOL0     H53528   9.766  10.587   1.932 -1.5007  0.6041 -0.8959
  397MOL0     H53529   9.999  10.579   1.847 -0.5654  0.8142  0.7587
  397MOL0     H53530  10.156  10.423   1.812 -1.3818  2.7418  0.1617
  397MOL0     H53531  10.170  10.310   1.674  0.4111 -0.2611 -0.3348
  397MOL0     H53532  10.299  10.585   1.670  2.1670  0.6693 -1.5925
  397MOL0     H53533  10.330  10.461   1.547  0.8902  0.4898 -0.4703
  397MOL0     H53534  10.435  10.310   1.713 -0.2284 -0.7099  1.7893
  397MOL0     H53535  10.411  10.429   1.850 -0.2433  0.0114  0.1878
  397MOL0     H53536  10.571  10.470   1.600 -1.5886 -0.4610 -0.2246
  397MOL0     H53537  10.547  10.592   1.732  1.9383  0.2812  2.0585
  397MOL0     H53538  10.633  10.409   1.898  2.2535 -1.4172  0.5871
  397MOL0     H53539  10.664  10.321   1.754 -2.1234 -0.9450  0.2007
  397MOL0     H53540  10.828  10.486   1.670  0.0850  2.0525 -0.7965
  397MOL0     H53541  10.778  10.609   1.791 -2.5663  0.6019  2.8778
  397MOL0     H53542  10.902  10.354   1.899  2.2363  0.5556 -0.7283
  397MOL0     H53543  10.906  10.512   1.961  2.1660 -0.2248  0.7537
  397MOL0     H53544  11.053  10.403   1.725 -2.7559 -1.1972  0.9763
  397MOL0     H53545  11.032  10.570   1.735 -3.0543 -1.8479 -3.0321
  397MOL0     H53546  11.191  10.699   1.929 -0.0942 -0.3707 -1.1600
  397MOL0     H53547  11.348  10.736   2.155  0.2243 -0.2483  1.1077
  397MOL0     H53548  11.389  10.598   2.229  1.4326 -2.4160 -0.9752
  397MOL0     H53549  11.569  10.609   1.999  2.5740  0.4036  0.2477
  397MOL0     H53550  11.533  10.771   2.021  1.6597  0.5884  2.4305
  397MOL0     H53551  11.591  10.749   2.278 -1.4152  3.0462 -1.8119
  397MOL0     H53552  11.719  10.755   2.141  0.0816  0.6947 -0.6345
  397MOL0     H53553  11.737  10.524   2.153  1.2406 -0.4678  1.0507
  397MOL0     H53554  11.596  10.499   2.259 -0.6131  0.5971 -0.7616
  397MOL0     H53555  12.001  10.591   2.488  1.1265 -1.2488  0.3666
  397MOL0     H53556  12.183  10.435   2.500 -0.5390 -1.1931  0.5086
  397MOL0     H53557  12.130   9.840   2.256 -0.2665  0.5401 -0.1133
  397MOL0     H53558  12.238   9.651   2.337  0.2607 -0.8429 -0.1102
  397MOL0     H53559  12.370   9.521   2.551 -2.8378  3.7256 -1.2633
  397MOL0     H53560  12.368   9.492   2.381 -0.8415  2.8881  0.1117
  397MOL0     H53561  12.576   9.400   2.564  0.2124 -1.0646  0.4953
  397MOL0     H53562  12.484   9.308   2.435  1.0036  0.1932 -4.5027
  397MOL0     H53563  12.713   9.515   2.381 -2.1746  2.5357 -1.0264
  397MOL0     H53564  12.710   9.335   2.373 -1.5874 -1.4605  1.5436
  397MOL0     H53565  12.567   9.539   2.202 -0.3171 -1.1934 -2.8260
  397MOL0     H53566  12.515   9.362   2.209  1.5064 -1.9366  0.2452
  397MOL0     H53567  12.744   9.301   2.127  0.1156  0.7907  2.1629
  397MOL0     H53568  12.778   9.473   2.137 -0.9559  2.8045 -3.0214
  397MOL0     H53569  12.565   9.360   1.955 -0.8960  3.3590 -0.2319
  397MOL0     H53570  12.611   9.527   1.960  1.3619  0.5845 -4.0476
  397MOL0     H53571  12.771   9.302   1.880 -3.0527 -0.4641 -0.0454
  397MOL0     H53572  12.840   9.471   1.878  0.5014 -0.1011 -2.7028
  397MOL0     H53573  12.626   9.488   1.716 -0.3891  0.5846  1.9814
  397MOL0     H53574  12.806   9.467   1.679  0.1304 -0.2824  0.0987
  397MOL0     H53575  12.595   9.899   2.419  0.3879  1.1116 -0.5185
  397MOL0     H53576  12.470  10.083   2.374 -1.2270  0.6920  0.2058
  397MOL0     H53577  11.967  10.193   2.203 -0.0014  2.7177 -2.5084
  397MOL0     H53578  11.799  10.339   2.213  0.3368 -4.0079  0.2446
  397MOL0     H53579   9.854  10.385   1.490 -1.8764 -0.9758  0.7934
  397MOL0     H53580   9.612  10.394   1.587 -1.9010  2.2591  1.3486
  397MOL0     H53581   9.367  10.454   1.642 -0.2417  1.0730 -1.8882
  397MOL0     H53582   9.128  10.433   1.584 -3.2993  1.4884  0.4268
  397MOL0     H53583   8.748  10.474   1.623 -0.2318 -1.0464 -0.6044
  397MOL0     H53584   8.904  10.403   1.599  0.4778  0.1474 -0.9281
  397MOL0     H53585   8.813  10.508   1.394 -0.3862 -3.4328  2.4162
  397MOL0     H53586   8.947  10.608   1.440  0.7590 -0.6693  2.0505
  397MOL0     H53587   8.762  10.769   1.538 -0.7215 -0.7322  0.5415
  397MOL0     H53588   8.650  10.644   1.502  0.9322  0.4676  3.7914
  397MOL0     H53589   8.822  10.795   1.294  1.8132 -2.7477  0.5288
  397MOL0     H53590   8.702  10.670   1.261  0.6211  0.6827 -1.5611
  397MOL0     H53591   8.455  10.995   1.331  0.6976 -0.0673 -1.2139
  397MOL0     H53592   9.037  10.722   1.887  1.5407  2.5490 -0.4795
  397MOL0     H53593   9.183  10.836   2.000 -0.1284 -0.1863  0.8348
  397MOL0     H53594   9.315  10.732   2.046 -1.5434  2.6506  2.4850
  397MOL0     H53595   9.338  10.865   1.925 -1.7795  1.4010  0.8747
  398MOL0     O53596   2.189   5.046   8.404  0.1477  1.0852 -0.2561
  398MOL0     C53597   2.187   5.160   8.360  0.8556 -0.3927  0.2772
  398MOL0     O53598   2.290   5.213   8.289 -0.7979 -0.4281 -0.7450
  398MOL0     C53599   2.388   5.129   8.241 -0.4992  0.5860 -0.5986
  398MOL0     C53600   2.509   5.129   8.319 -0.1974  0.0695  0.0584
  398MOL0     C53601   2.620   5.055   8.269  0.4241 -0.4418 -0.5170
  398MOL0     C53602   2.602   4.987   8.149  0.0461  0.4788 -0.9919
  398MOL0     O53603   2.703   4.923   8.083 -0.2709  0.2030  0.1122
  398MOL0     C53604   2.838   4.908   8.142 -1.0510  0.6350 -0.5247
  398MOL0     C53605   2.922   5.040   8.130  0.1864  0.2783 -0.6534
  398MOL0     C53606   3.074   5.004   8.163 -0.0165  0.2042  0.2788
  398MOL0     C53607   3.166   5.131   8.181 -0.0082  0.5578 -0.2520
  398MOL0     C53608   3.314   5.097   8.217  0.5758  0.0879 -0.4803
  398MOL0     C53609   3.402   5.146   8.119 -0.0823  0.9461 -0.1855
  398MOL0     C53610   3.540   5.111   8.174  0.4907  0.2200 -0.3476
  398MOL0     C53611   3.631   5.220   8.116 -0.2671  0.2723  0.0990
  398MOL0     N53612   3.618   5.354   8.176  0.5835 -0.3350 -0.0599
  398MOL0     C53613   3.682   5.419   8.277  0.3452  0.3344 -0.2772
  398MOL0     C53614   3.642   5.546   8.272  0.2058  0.2414 -0.6973
  398MOL0     C53615   3.683   5.674   8.343 -0.1562 -0.2934  0.0191
  398MOL0     C53616   3.828   5.721   8.297  0.6643 -0.6901 -0.2502
  398MOL0     C53617   3.895   5.779   8.417 -0.5223 -0.4048 -0.4041
  398MOL0     C53618   4.032   5.842   8.384 -0.0188  0.1114  0.9269
  398MOL0     O53619   4.089   5.771   8.276 -0.1645  0.7345  0.1074
  398MOL0     C53620   4.217   5.787   8.235 -0.2147  0.2717  0.4285
  398MOL0     C53621   4.263   5.704   8.136  0.0651 -0.0130  0.2998
  398MOL0     C53622   4.396   5.691   8.106 -0.3385 -0.5007  0.6466
  398MOL0     C53623   4.490   5.783   8.171  0.2557  0.1094 -0.8290
  398MOL0     C53624   4.632   5.767   8.141  0.4042  0.3878  0.1617
  398MOL0     O53625   4.653   5.659   8.059 -0.8444  0.0976 -0.1229
  398MOL0     C53626   4.776   5.615   8.007 -0.8980  0.4986 -1.2637
  398MOL0     C53627   4.909   5.665   8.042  0.2372 -0.3238 -0.0487
  398MOL0     C53628   5.023   5.626   7.963  0.7978 -0.3093 -1.0295
  398MOL0     C53629   5.015   5.535   7.860  0.8054 -0.1225  0.2920
  398MOL0     O53630   5.134   5.496   7.800 -0.1424 -0.5283 -0.5059
  398MOL0     C53631   5.146   5.375   7.731 -0.0336 -0.7870 -0.2199
  398MOL0     C53632   5.297   5.371   7.682 -0.4457  0.4630  0.5453
  398MOL0     C53633   5.410   5.374   7.790 -0.4121 -0.1712  0.2862
  398MOL0     C53634   5.468   5.520   7.802 -0.5471 -0.0090 -0.5077
  398MOL0     C53635   5.547   5.513   7.936  0.3364 -0.0549  0.4125
  398MOL0     C53636   5.458   5.544   8.065  0.9508 -0.2342 -0.5537
  398MOL0     C53637   5.530   5.524   8.204 -0.1735 -0.3423  0.7560
  398MOL0     C53638   5.504   5.380   8.251  0.9509  0.3679 -0.5626
  398MOL0    Cl53639   5.574   5.360   8.416  0.3050  0.2944 -0.3707
  398MOL0     C53640   4.892   5.469   7.844  0.9355  0.4864  0.9464
  398MOL0     C53641   4.774   5.521   7.904  0.5203  0.1582  0.0483
  398MOL0     O53642   4.702   5.854   8.177 -0.6079  0.1709 -1.0534
  398MOL0     C53643   4.443   5.866   8.274  0.0094 -0.3194 -0.6856
  398MOL0     C53644   4.308   5.867   8.306  0.0779 -0.1961 -0.5006
  398MOL0     N53645   3.554   5.566   8.165  0.3286  0.7876 -0.3762
  398MOL0     N53646   3.548   5.450   8.109 -0.1130 -0.1049 -0.4103
  398MOL0     C53647   2.480   4.980   8.084 -0.4647  0.8222 -0.7317
  398MOL0     C53648   2.372   5.055   8.126 -0.3607 -0.4146  0.3750
  398MOL0     C53649   2.072   5.250   8.380 -0.0379 -0.3266  0.5608
  398MOL0     C53650   2.097   5.382   8.357  0.1420  0.3627  0.5447
  398MOL0     C53651   1.998   5.477   8.388  0.4805  0.2044 -0.2760
  398MOL0     C53652   1.887   5.444   8.464 -0.8090  0.6837  0.1473
  398MOL0     O53653   1.797   5.549   8.485  0.2807 -0.0074  0.5062
  398MOL0     C53654   1.697   5.531   8.589  0.5359 -0.0385 -0.0366
  398MOL0     C53655   1.645   5.662   8.643  0.0510 -0.1372 -0.4933
  398MOL0     C53656   1.593   5.752   8.535  0.9352  0.6134 -0.3790
  398MOL0     C53657   1.673   5.879   8.500 -0.3761  0.4450  0.7249
  398MOL0     C53658   1.631   6.001   8.573 -0.7933  0.4454 -0.3297
  398MOL0     C53659   1.588   6.086   8.644 -0.0837 -0.4599 -0.8776
  398MOL0     C53660   1.867   5.313   8.494  0.4986  0.5727 -0.3021
  398MOL0     C53661   1.951   5.212   8.441  0.5701  0.5328  0.1939
  398MOL0     C53662   1.908   5.070   8.441  0.3934  0.2007 -0.1237
  398MOL0     H53663   2.519   5.190   8.409 -2.0690 -2.7295  2.3687
  398MOL0     H53664   2.712   5.048   8.326 -0.6747 -0.9837  1.2657
  398MOL0     H53665   2.832   4.871   8.245  0.9275 -1.4568 -1.0805
  398MOL0     H53666   2.894   4.835   8.084 -3.7529 -3.6223  1.7348
  398MOL0     H53667   2.884   5.115   8.200 -1.1050 -0.1704 -0.8380
  398MOL0     H53668   2.909   5.081   8.029  0.7075  0.3926 -0.6747
  398MOL0     H53669   3.105   4.942   8.078 -1.1891 -2.1458  1.4646
  398MOL0     H53670   3.071   4.936   8.249 -1.6636  0.0024  0.0826
  398MOL0     H53671   3.162   5.189   8.088  0.8073  2.2286  0.6999
  398MOL0     H53672   3.130   5.200   8.258  1.2810  1.3675 -0.3491
  398MOL0     H53673   3.336   5.145   8.312 -1.1223  0.5978 -0.3052
  398MOL0     H53674   3.326   4.989   8.226  2.8339  0.5143  4.4078
  398MOL0     H53675   3.394   5.101   8.019  6.3518  1.2608 -1.2986
  398MOL0     H53676   3.390   5.254   8.111  1.4552  1.0986 -0.7925
  398MOL0     H53677   3.577   5.011   8.148  0.0202 -0.4248  1.3392
  398MOL0     H53678   3.553   5.117   8.283  0.5930  2.6364 -0.4387
  398MOL0     H53679   3.735   5.188   8.125 -0.5895 -0.6434  0.6788
  398MOL0     H53680   3.626   5.229   8.007  1.2301  2.7018  0.1482
  398MOL0     H53681   3.770   5.390   8.334 -0.7845 -0.7085  0.9958
  398MOL0     H53682   3.608   5.753   8.333  1.1818  1.2127  1.3242
  398MOL0     H53683   3.685   5.662   8.452  2.2700 -0.3109  0.0327
  398MOL0     H53684   3.895   5.645   8.256  1.3651  0.8429 -2.1567
  398MOL0     H53685   3.804   5.797   8.222 -2.4178  0.9645  2.1563
  398MOL0     H53686   3.903   5.704   8.496 -1.5577 -0.2758 -0.1606
  398MOL0     H53687   3.827   5.859   8.449  0.1280 -0.0475  0.0947
  398MOL0     H53688   4.099   5.834   8.471 -0.2749  0.0955  1.1230
  398MOL0     H53689   4.019   5.948   8.359  3.7703  0.7736  1.2074
  398MOL0     H53690   4.189   5.642   8.087  0.7422 -1.9298  1.5831
  398MOL0     H53691   4.419   5.620   8.028 -4.8937 -1.3316 -0.2311
  398MOL0     H53692   4.914   5.752   8.106  0.9277 -2.6007  3.2255
  398MOL0     H53693   5.115   5.680   7.981 -0.0178  0.9206 -0.4236
  398MOL0     H53694   5.125   5.286   7.792  0.6398 -2.0634 -1.7520
  398MOL0     H53695   5.086   5.383   7.640 -0.8706  1.1584  0.4695
  398MOL0     H53696   5.310   5.276   7.631 -0.0859  0.3805  0.7880
  398MOL0     H53697   5.321   5.453   7.614 -2.0565  0.3123 -0.2585
  398MOL0     H53698   5.366   5.338   7.884 -2.2430  0.3466 -0.3179
  398MOL0     H53699   5.488   5.302   7.765  1.9380  2.6278 -1.1256
  398MOL0     H53700   5.377   5.581   7.805 -0.7513 -0.3053  2.6520
  398MOL0     H53701   5.533   5.546   7.719 -1.8598 -2.1291 -2.3058
  398MOL0     H53702   5.622   5.592   7.945  0.3374 -0.2320  2.5400
  398MOL0     H53703   5.589   5.413   7.944  0.6670  0.1667  1.7744
  398MOL0     H53704   5.427   5.648   8.054  0.9982  0.3248  3.4049
  398MOL0     H53705   5.375   5.473   8.073 -0.6187  1.7007  1.4514
  398MOL0     H53706   5.480   5.597   8.270 -1.6163  2.1310 -2.7627
  398MOL0     H53707   5.634   5.554   8.199  0.7829 -3.3245  0.8387
  398MOL0     H53708   5.398   5.367   8.275  0.7533  3.7485  1.0480
  398MOL0     H53709   5.545   5.304   8.184 -1.4716 -0.5334 -1.1059
  398MOL0     H53710   4.880   5.401   7.759 -2.7948  0.6426  1.2093
  398MOL0     H53711   4.689   5.464   7.867 -0.5652  0.4889  1.8758
  398MOL0     H53712   4.511   5.934   8.324 -2.9107  0.8055  2.0895
  398MOL0     H53713   4.288   5.930   8.392  1.0379  1.0477 -1.1655
  398MOL0     H53714   2.471   4.922   7.993 -0.9087  0.1886 -0.2918
  398MOL0     H53715   2.276   5.068   8.076 -0.4752 -2.3732  0.0160
  398MOL0     H53716   2.190   5.413   8.310  0.0393  3.3791  2.0860
  398MOL0     H53717   2.024   5.582   8.374  0.5502  0.2033 -0.1575
  398MOL0     H53718   1.734   5.477   8.677 -3.4524 -0.0666  1.8629
  398MOL0     H53719   1.620   5.472   8.539 -1.0247  0.8138  1.2388
  398MOL0     H53720   1.721   5.710   8.705 -0.1463 -0.6388  0.1496
  398MOL0     H53721   1.565   5.650   8.717 -1.1201 -0.8659 -1.8213
  398MOL0     H53722   1.491   5.777   8.567  0.3303  0.4092 -2.0693
  398MOL0     H53723   1.578   5.697   8.442 -0.8532 -0.3455  0.4331
  398MOL0     H53724   1.777   5.853   8.519 -0.6112 -0.5439  0.7046
  398MOL0     H53725   1.665   5.898   8.393 -1.8979  0.3719  0.8028
  398MOL0     H53726   1.540   6.155   8.710 -3.0907 -3.3324  0.2665
  398MOL0     H53727   1.773   5.290   8.543  0.8815 -0.3092  0.0432
  398MOL0     H53728   1.943   5.025   8.535 -1.3107  0.0465  0.4739
  398MOL0     H53729   1.799   5.063   8.450  0.6001 -2.2015  1.7454
  398MOL0     H53730   1.937   5.005   8.358  0.6445  0.9626 -0.6352
  399MOL0     O53731   5.154   6.531   5.489 -0.1077  0.5767  0.1840
  399MOL0     C53732   5.102   6.521   5.602  0.0465 -0.1661 -0.3712
  399MOL0     O53733   5.171   6.508   5.721 -0.6280 -0.4340  0.2716
  399MOL0     C53734   5.305   6.539   5.733  0.2013  0.1065  0.9033
  399MOL0     C53735   5.378   6.459   5.825 -0.1725 -0.3587 -0.3275
  399MOL0     C53736   5.509   6.495   5.850 -0.2425  1.1006 -0.0173
  399MOL0     C53737   5.566   6.612   5.795 -0.7132  0.2806 -0.2953
  399MOL0     O53738   5.704   6.616   5.820 -0.2327 -0.1277 -0.1311
  399MOL0     C53739   5.797   6.667   5.728 -1.2043  0.1992  0.1676
  399MOL0     C53740   5.952   6.646   5.754  0.0809 -1.0589 -0.0921
  399MOL0     C53741   6.032   6.767   5.694  1.3310  0.7008 -0.0945
  399MOL0     C53742   6.185   6.743   5.693 -1.2708  0.4563 -0.4006
  399MOL0     C53743   6.257   6.846   5.597  0.0170 -0.2378  0.2792
  399MOL0     C53744   6.403   6.817   5.555 -0.2282 -0.5408  0.1030
  399MOL0     C53745   6.456   6.915   5.452  0.3885 -0.8710  0.7313
  399MOL0     C53746   6.609   6.905   5.425  0.3602 -0.2214  0.6899
  399MOL0     N53747   6.668   7.014   5.342  0.7808  0.8990 -0.4430
  399MOL0     C53748   6.610   7.131   5.291 -0.4974  1.5433  0.3004
  399MOL0     C53749   6.703   7.174   5.199 -0.0552  0.0125 -0.2904
  399MOL0     C53750   6.681   7.311   5.144 -0.2135  0.4743 -0.7267
  399MOL0     C53751   6.757   7.403   5.242  0.1850 -0.3133 -0.5655
  399MOL0     C53752   6.724   7.554   5.226  0.1193  0.2472  0.4020
  399MOL0     C53753   6.815   7.644   5.312 -0.5000 -0.3611  0.3251
  399MOL0     O53754   6.943   7.626   5.259  0.2553 -0.4183  0.1183
  399MOL0     C53755   7.030   7.716   5.316 -0.8942 -0.3078 -0.5534
  399MOL0     C53756   7.018   7.799   5.428  0.1137 -0.3733 -0.0451
  399MOL0     C53757   7.110   7.890   5.469 -0.1211  0.3795  0.1661
  399MOL0     C53758   7.244   7.878   5.412 -0.1776  0.4678 -0.5704
  399MOL0     C53759   7.350   7.968   5.473  0.3070  0.1614 -0.4977
  399MOL0     O53760   7.478   7.934   5.457 -0.0642  0.6317 -0.7754
  399MOL0     C53761   7.571   8.026   5.497  0.1493 -0.7228 -1.2217
  399MOL0     C53762   7.691   7.996   5.565 -0.6270  0.9409 -0.2450
  399MOL0     C53763   7.814   8.071   5.562  1.3004  0.7137 -0.6148
  399MOL0     C53764   7.814   8.199   5.505  0.0609 -0.1234 -0.2053
  399MOL0     O53765   7.930   8.276   5.508  0.2947  0.7921 -0.5285
  399MOL0     C53766   7.939   8.389   5.419  0.3036  0.8489 -0.0694
  399MOL0     C53767   8.063   8.480   5.448  1.2845  0.3020  0.1426
  399MOL0     C53768   8.037   8.580   5.556 -0.0933 -0.1562 -0.1412
  399MOL0     C53769   7.924   8.679   5.527  0.4508  1.2127 -0.6207
  399MOL0     C53770   7.907   8.785   5.631  0.8189  0.8388 -0.5577
  399MOL0     C53771   7.787   8.875   5.597 -0.3121 -0.4606  0.0650
  399MOL0     C53772   7.807   9.024   5.635 -0.6235  0.8789 -0.4123
  399MOL0     C53773   7.673   9.100   5.643 -1.0406 -0.4934 -0.1781
  399MOL0    Cl53774   7.575   9.064   5.783 -0.7306 -0.1618 -0.0565
  399MOL0     C53775   7.685   8.237   5.442 -0.0147  0.6861  0.8233
  399MOL0     C53776   7.573   8.151   5.430 -0.0848 -0.1150  0.4909
  399MOL0     O53777   7.311   8.066   5.529  0.3529 -0.4186 -0.1777
  399MOL0     C53778   7.265   7.794   5.305 -0.5314  0.8135  0.6429
  399MOL0     C53779   7.161   7.711   5.262 -0.3441  0.3577 -0.0337
  399MOL0     N53780   6.818   7.095   5.196 -0.5068 -0.1971 -0.5141
  399MOL0     N53781   6.792   7.004   5.285  0.0841 -0.1747  0.3034
  399MOL0     C53782   5.493   6.694   5.707  0.1285 -0.6523  0.7594
  399MOL0     C53783   5.359   6.656   5.675 -0.1595  0.3419  0.2402
  399MOL0     C53784   4.956   6.538   5.616 -0.6547 -0.5559  0.6923
  399MOL0     C53785   4.910   6.592   5.742 -0.0571 -0.6789  0.1983
  399MOL0     C53786   4.771   6.621   5.760 -0.5367  0.1411  0.2580
  399MOL0     C53787   4.685   6.608   5.650  0.6917  0.4048 -0.6791
  399MOL0     O53788   4.546   6.641   5.657 -0.3024  0.2573 -0.1958
  399MOL0     C53789   4.466   6.578   5.748 -0.0683  0.1932  0.1998
  399MOL0     C53790   4.343   6.665   5.767  0.2384 -0.4899 -0.6283
  399MOL0     C53791   4.264   6.681   5.640  0.3188  0.6977 -0.0554
  399MOL0     C53792   4.182   6.566   5.578  0.6535  0.8223  0.5869
  399MOL0     C53793   4.072   6.607   5.488 -0.2707 -0.0523  0.3056
  399MOL0     C53794   3.991   6.630   5.403  0.0292  1.4726 -0.0037
  399MOL0     C53795   4.724   6.550   5.535 -0.7539 -0.4786 -1.2299
  399MOL0     C53796   4.858   6.506   5.522 -0.1490  0.1692 -0.0902
  399MOL0     C53797   4.885   6.435   5.394 -0.4845  0.7266 -0.8060
  399MOL0     H53798   5.332   6.377   5.878  1.1157 -1.0096 -0.1795
  399MOL0     H53799   5.577   6.442   5.916 -1.7659 -0.6290  0.2569
  399MOL0     H53800   5.771   6.621   5.632 -2.0519 -0.7693  0.8318
  399MOL0     H53801   5.791   6.775   5.712  0.8018  0.2922 -0.1236
  399MOL0     H53802   5.982   6.552   5.706 -0.6324 -2.4296  1.9726
  399MOL0     H53803   5.969   6.624   5.860 -2.5185  2.7486  1.3026
  399MOL0     H53804   6.001   6.856   5.750 -0.2665 -0.0774  0.3193
  399MOL0     H53805   6.002   6.776   5.589 -1.9112  0.4861  0.7088
  399MOL0     H53806   6.233   6.747   5.791 -0.3854  0.1311 -0.8116
  399MOL0     H53807   6.204   6.645   5.649 -0.3003  0.5394 -0.1753
  399MOL0     H53808   6.200   6.840   5.504  0.4724  0.9947 -0.0951
  399MOL0     H53809   6.250   6.941   5.650 -2.0433 -0.9270  1.3691
  399MOL0     H53810   6.475   6.808   5.637  0.2033 -0.3903 -0.2520
  399MOL0     H53811   6.399   6.721   5.503  2.1683 -0.6206 -0.0507
  399MOL0     H53812   6.437   7.018   5.485 -0.8420 -0.9165  0.2032
  399MOL0     H53813   6.404   6.898   5.357  1.7112  2.1412 -0.6572
  399MOL0     H53814   6.657   6.916   5.523  1.5620 -1.4265  0.2534
  399MOL0     H53815   6.639   6.810   5.383 -0.7464  0.9494 -3.1344
  399MOL0     H53816   6.514   7.172   5.322 -0.7734  0.7566  0.5096
  399MOL0     H53817   6.731   7.323   5.048  2.7931  1.0521  0.8064
  399MOL0     H53818   6.579   7.351   5.136 -0.6836  0.1151  2.3423
  399MOL0     H53819   6.746   7.372   5.347  2.2591 -2.0183 -0.7660
  399MOL0     H53820   6.865   7.391   5.227  0.5865 -1.3621  2.3654
  399MOL0     H53821   6.624   7.569   5.268 -0.1076 -0.4487  0.1279
  399MOL0     H53822   6.722   7.592   5.123 -3.1125  2.2880  1.0814
  399MOL0     H53823   6.813   7.597   5.411  1.6349 -1.7633 -0.2274
  399MOL0     H53824   6.776   7.746   5.315  2.0113  0.6778  3.5145
  399MOL0     H53825   6.917   7.802   5.468 -0.2054 -1.4053 -0.7110
  399MOL0     H53826   7.093   7.953   5.555 -3.4623 -1.9360  1.4181
  399MOL0     H53827   7.693   7.900   5.616 -2.6593  1.9128  1.8599
  399MOL0     H53828   7.900   8.019   5.604 -1.1765 -2.7541  0.5779
  399MOL0     H53829   7.955   8.340   5.323 -0.3178 -0.1558  0.3212
  399MOL0     H53830   7.853   8.456   5.409 -1.6719 -1.3430  1.1336
  399MOL0     H53831   8.145   8.416   5.479 -2.6453 -5.8952 -0.5240
  399MOL0     H53832   8.093   8.523   5.352  0.6086  0.9740  0.2167
  399MOL0     H53833   8.003   8.524   5.644 -2.1647  1.9182  0.4493
  399MOL0     H53834   8.130   8.633   5.578  0.6815 -2.4528  2.8113
  399MOL0     H53835   7.829   8.633   5.499  1.8835 -1.4828 -1.3961
  399MOL0     H53836   7.961   8.715   5.431  0.8130 -1.3427 -1.5056
  399MOL0     H53837   7.999   8.844   5.624  0.6181  1.0149 -2.1959
  399MOL0     H53838   7.894   8.736   5.727 -2.0701  1.7566 -0.3818
  399MOL0     H53839   7.779   8.869   5.488  4.1565  0.1926 -0.4534
  399MOL0     H53840   7.695   8.834   5.641  0.8334 -3.3206  0.0066
  399MOL0     H53841   7.876   9.067   5.561  0.9219 -1.5266 -0.5099
  399MOL0     H53842   7.857   9.032   5.731 -0.9884 -0.8091 -0.0462
  399MOL0     H53843   7.693   9.204   5.666 -1.2704 -1.0532  2.9641
  399MOL0     H53844   7.624   9.107   5.545 -0.4661  1.1137 -0.3760
  399MOL0     H53845   7.680   8.331   5.387  1.5052  0.0621 -0.4426
  399MOL0     H53846   7.492   8.178   5.362 -1.0365 -2.1307  0.7349
  399MOL0     H53847   7.357   7.801   5.248 -2.4689  1.2236 -2.6838
  399MOL0     H53848   7.187   7.656   5.172 -0.7179  0.5040 -0.2367
  399MOL0     H53849   5.551   6.772   5.659  1.7261 -1.5518  1.1780
  399MOL0     H53850   5.305   6.721   5.608  2.2508 -0.3263 -2.5588
  399MOL0     H53851   4.981   6.607   5.823  0.1007  1.9392 -0.3385
  399MOL0     H53852   4.744   6.650   5.861 -0.4538 -1.6381  0.8301
  399MOL0     H53853   4.512   6.564   5.846  0.0260  2.2585  0.4873
  399MOL0     H53854   4.441   6.480   5.705  0.1517 -0.0309  0.5762
  399MOL0     H53855   4.380   6.764   5.792  1.0331  0.2052 -4.0491
  399MOL0     H53856   4.285   6.628   5.852  1.5005  1.1870  1.0405
  399MOL0     H53857   4.332   6.719   5.563  0.1541  0.7319 -0.1833
  399MOL0     H53858   4.195   6.763   5.661 -0.8199 -0.1488 -0.4259
  399MOL0     H53859   4.249   6.499   5.522 -1.4327  0.3924 -1.5496
  399MOL0     H53860   4.140   6.511   5.663  0.4167  0.6383  0.3529
  399MOL0     H53861   3.932   6.643   5.314  0.8261  2.2141 -0.4431
  399MOL0     H53862   4.654   6.506   5.465 -0.0623 -1.6135 -1.2295
  399MOL0     H53863   4.937   6.499   5.322 -1.5912  2.3351 -0.2328
  399MOL0     H53864   4.938   6.341   5.412 -2.8953 -0.3794  1.0878
  399MOL0     H53865   4.791   6.409   5.344  0.6558 -1.2547 -2.0930
  400MOL0     O53866   5.146   4.142   7.540  0.2786 -0.2488 -0.0882
  400MOL0     C53867   5.043   4.094   7.492 -0.2159  1.1580 -0.9980
  400MOL0     O53868   5.045   3.988   7.406  0.0564  0.4247  0.1664
  400MOL0     C53869   5.157   3.965   7.328 -0.1248 -0.2053  0.4152
  400MOL0     C53870   5.233   4.061   7.262 -0.1396 -0.0194  0.3133
  400MOL0     C53871   5.342   4.027   7.175  0.4897 -0.1941  0.0027
  400MOL0     C53872   5.371   3.890   7.151 -0.5890 -0.4631  0.0825
  400MOL0     O53873   5.478   3.863   7.064 -0.0911  0.4609  0.6278
  400MOL0     C53874   5.601   3.826   7.116 -0.3796 -0.9609 -0.5991
  400MOL0     C53875   5.692   3.749   7.016  0.4894  0.5539  0.1980
  400MOL0     C53876   5.823   3.829   6.989 -0.3671 -0.7072  0.4981
  400MOL0     C53877   5.914   3.754   6.888  0.1853  0.2637  0.1057
  400MOL0     C53878   6.021   3.850   6.816 -0.7347  0.3044 -0.4971
  400MOL0     C53879   6.081   3.788   6.694 -0.6552  0.5661 -0.2186
  400MOL0     C53880   5.975   3.776   6.580 -0.0307 -0.5240  0.3197
  400MOL0     C53881   5.965   3.897   6.485  0.3472 -0.6372  0.1274
  400MOL0     N53882   6.083   3.916   6.401 -1.1889 -0.8688  0.2150
  400MOL0     C53883   6.149   4.038   6.398 -0.1622 -1.2674  0.6490
  400MOL0     C53884   6.262   4.011   6.322 -0.1038 -0.1711  0.8744
  400MOL0     C53885   6.386   4.106   6.317 -0.5248  0.8157 -0.2377
  400MOL0     C53886   6.449   4.122   6.452  0.0219 -0.7742  0.0995
  400MOL0     C53887   6.508   3.995   6.523 -0.2887 -1.6858  0.3693
  400MOL0     C53888   6.572   4.036   6.657 -0.6211 -1.1042  0.2463
  400MOL0     O53889   6.636   3.929   6.735  0.3150  0.1642  0.9954
  400MOL0     C53890   6.748   3.960   6.814  0.0599  0.8216 -0.0252
  400MOL0     C53891   6.822   3.855   6.854  1.2476  0.1711  0.1373
  400MOL0     C53892   6.938   3.883   6.921  0.0848  0.0633  0.0713
  400MOL0     C53893   6.972   4.013   6.962 -0.3570  0.5213  0.8948
  400MOL0     C53894   7.101   4.048   7.031  0.5210 -0.6638 -0.1290
  400MOL0     O53895   7.198   3.956   7.019 -0.0266 -0.4215  0.4431
  400MOL0     C53896   7.306   3.951   7.097 -0.1342 -0.0984  0.6221
  400MOL0     C53897   7.428   3.913   7.039  0.0866  0.1311 -0.0863
  400MOL0     C53898   7.545   3.896   7.120  1.0665 -0.2504 -0.3713
  400MOL0     C53899   7.534   3.913   7.263 -0.3091  1.0102  1.1742
  400MOL0     O53900   7.650   3.893   7.332 -0.2919  0.4934  0.0600
  400MOL0     C53901   7.656   3.936   7.470 -0.9044 -0.1909  0.5117
  400MOL0     C53902   7.806   3.943   7.499  0.5923  0.2309  1.2518
  400MOL0     C53903   7.840   4.020   7.632  1.3472  0.8432  0.5274
  400MOL0     C53904   7.963   4.109   7.602 -0.3456 -0.3002 -0.0972
  400MOL0     C53905   7.989   4.194   7.729  0.2074 -0.4363  0.7612
  400MOL0     C53906   8.133   4.248   7.726 -0.2412  0.0504  0.3836
  400MOL0     C53907   8.156   4.363   7.628  0.4001 -1.0062 -0.4393
  400MOL0     C53908   8.255   4.461   7.693 -1.0245 -0.3371 -0.4172
  400MOL0    Cl53909   8.292   4.590   7.577 -0.2557 -0.2102 -0.0104
  400MOL0     C53910   7.407   3.940   7.314 -0.5073  0.1682  0.3361
  400MOL0     C53911   7.295   3.968   7.234  0.7162 -0.7038  0.5570
  400MOL0     O53912   7.115   4.158   7.081  0.3696 -0.2837 -0.5040
  400MOL0     C53913   6.897   4.123   6.916  0.3602 -0.0118 -0.5928
  400MOL0     C53914   6.785   4.093   6.851  0.3650  0.5596 -0.2141
  400MOL0     N53915   6.243   3.884   6.278 -0.1290  0.1220  0.9506
  400MOL0     N53916   6.148   3.826   6.331  0.2482  0.0280  0.4899
  400MOL0     C53917   5.286   3.799   7.209 -0.4913  0.2628 -0.1574
  400MOL0     C53918   5.193   3.829   7.300  0.3673 -0.1359  0.4131
  400MOL0     C53919   4.916   4.149   7.538  0.1746 -0.3509 -0.4877
  400MOL0     C53920   4.805   4.092   7.479 -0.1638 -0.4911  0.4950
  400MOL0     C53921   4.674   4.130   7.506 -0.0454  0.2549  0.5450
  400MOL0     C53922   4.650   4.213   7.614  0.0028 -1.0542 -0.8214
  400MOL0     O53923   4.523   4.246   7.655 -0.0780  0.2254 -0.3249
  400MOL0     C53924   4.416   4.189   7.583  0.6571 -0.5840  0.1781
  400MOL0     C53925   4.370   4.242   7.441  0.2897 -0.8029 -0.6781
  400MOL0     C53926   4.304   4.387   7.445 -0.7230 -0.4367  0.8767
  400MOL0     C53927   4.177   4.382   7.523  1.0662 -0.0317  0.5042
  400MOL0     C53928   4.088   4.504   7.510  0.4747  0.0372  0.2547
  400MOL0     C53929   4.004   4.584   7.497 -0.0988 -0.1485 -0.3055
  400MOL0     C53930   4.756   4.257   7.686  0.1360  0.7323 -0.9639
  400MOL0     C53931   4.890   4.230   7.657  1.0018 -0.5395  0.5386
  400MOL0     C53932   4.999   4.290   7.745  0.3146  0.4412  0.0647
  400MOL0     H53933   5.215   4.165   7.286 -2.7744 -0.5539  0.9879
  400MOL0     H53934   5.394   4.110   7.131 -2.7000  0.6531 -2.5762
  400MOL0     H53935   5.637   3.927   7.138 -1.0563 -0.9798  0.7039
  400MOL0     H53936   5.590   3.774   7.212 -2.1407 -0.7248 -0.6406
  400MOL0     H53937   5.636   3.727   6.924  0.9778  3.4070 -0.8733
  400MOL0     H53938   5.721   3.661   7.074  2.7471  0.6307 -0.7026
  400MOL0     H53939   5.879   3.838   7.082  0.8229 -4.1690  0.2687
  400MOL0     H53940   5.800   3.930   6.954 -0.1137 -0.7614  0.1695
  400MOL0     H53941   5.959   3.667   6.938 -1.1755 -1.9176 -2.2114
  400MOL0     H53942   5.848   3.706   6.816  1.4634 -0.2421 -0.7639
  400MOL0     H53943   5.967   3.937   6.778 -1.6827  1.1268  2.4293
  400MOL0     H53944   6.094   3.888   6.887 -1.9694  3.0308 -0.5492
  400MOL0     H53945   6.171   3.845   6.671  0.8360 -1.7280 -0.3872
  400MOL0     H53946   6.102   3.681   6.702 -0.6990  0.5951  0.3071
  400MOL0     H53947   5.876   3.757   6.625  0.4954 -3.3395  0.4625
  400MOL0     H53948   5.999   3.680   6.534  0.6529 -0.3901  0.3923
  400MOL0     H53949   5.876   3.889   6.422  0.5376  0.9361 -0.3682
  400MOL0     H53950   5.947   3.982   6.552  2.3130 -0.8923  1.0534
  400MOL0     H53951   6.132   4.132   6.449 -1.4592 -1.8834  1.3830
  400MOL0     H53952   6.456   4.058   6.248  0.8581  3.3538 -0.7293
  400MOL0     H53953   6.353   4.205   6.281  0.9477  0.7397 -1.9493
  400MOL0     H53954   6.539   4.184   6.447  1.8910 -3.0274  2.6387
  400MOL0     H53955   6.378   4.171   6.520  0.9029  1.5496 -0.5305
  400MOL0     H53956   6.586   3.960   6.455  1.8079  2.0234  0.5714
  400MOL0     H53957   6.437   3.913   6.534  0.7249 -3.4579 -4.1412
  400MOL0     H53958   6.497   4.075   6.727  0.4713 -0.7157  1.2378
  400MOL0     H53959   6.635   4.124   6.638 -0.0063 -1.2039  1.6594
  400MOL0     H53960   6.780   3.758   6.828 -1.5413  0.4601  3.0279
  400MOL0     H53961   6.996   3.793   6.941  1.0319  0.5762 -0.3133
  400MOL0     H53962   7.428   3.900   6.931  1.3350  0.1782 -0.1129
  400MOL0     H53963   7.646   3.881   7.084  1.2881 -1.8330  0.7846
  400MOL0     H53964   7.604   4.033   7.476 -3.3692 -1.2598 -1.7200
  400MOL0     H53965   7.618   3.861   7.539  0.3798 -0.2414  1.1847
  400MOL0     H53966   7.853   3.844   7.505  0.3437  0.1464  1.9860
  400MOL0     H53967   7.854   3.994   7.415  1.3958 -0.7999  1.0625
  400MOL0     H53968   7.755   4.085   7.656 -2.3478 -2.4997 -2.3248
  400MOL0     H53969   7.852   3.948   7.713 -0.0281 -1.3440 -1.1036
  400MOL0     H53970   7.945   4.170   7.513  0.9218  3.0799  1.7638
  400MOL0     H53971   8.052   4.049   7.579  0.5501  0.6043  0.8932
  400MOL0     H53972   7.981   4.132   7.818  2.2310  0.3202  1.5253
  400MOL0     H53973   7.910   4.269   7.741  1.3552  1.1321 -0.9280
  400MOL0     H53974   8.159   4.278   7.828  1.9542 -0.2271 -0.0420
  400MOL0     H53975   8.205   4.174   7.690  1.3109  2.2590 -1.3918
  400MOL0     H53976   8.065   4.421   7.610  0.9883  0.1098  0.0912
  400MOL0     H53977   8.190   4.328   7.531 -2.4311  2.8746 -3.1300
  400MOL0     H53978   8.206   4.512   7.777  0.6763  2.1651 -0.8459
  400MOL0     H53979   8.345   4.406   7.724 -1.1561 -0.3805 -0.1100
  400MOL0     H53980   7.396   3.949   7.422  0.4211  0.6190  0.4027
  400MOL0     H53981   7.201   3.994   7.281  0.5101 -2.7548  1.3851
  400MOL0     H53982   6.914   4.230   6.924  2.7877 -0.2956 -1.2274
  400MOL0     H53983   6.721   4.175   6.818 -0.5768  0.0079  0.1961
  400MOL0     H53984   5.309   3.694   7.193  0.6715  0.3817  0.6221
  400MOL0     H53985   5.143   3.745   7.348  1.6007  0.6054  3.1531
  400MOL0     H53986   4.817   4.017   7.401  2.0311 -0.1456  0.4384
  400MOL0     H53987   4.591   4.091   7.447  0.6681 -0.1538 -0.2227
  400MOL0     H53988   4.326   4.183   7.645  1.1322 -2.4481  0.7494
  400MOL0     H53989   4.433   4.081   7.581 -2.3109 -1.1615  0.8891
  400MOL0     H53990   4.297   4.175   7.395 -2.5903  2.0791 -0.6652
  400MOL0     H53991   4.456   4.226   7.375  0.6252 -1.5056 -0.0810
  400MOL0     H53992   4.299   4.429   7.344  0.3174  0.6934  1.2535
  400MOL0     H53993   4.372   4.458   7.493 -0.5683 -2.2752  3.6046
  400MOL0     H53994   4.116   4.296   7.491  0.8858  0.1524  0.3533
  400MOL0     H53995   4.199   4.375   7.630 -0.5390 -0.7420  0.8119
  400MOL0     H53996   3.937   4.667   7.493 -0.0034 -0.1131 -2.3254
  400MOL0     H53997   4.735   4.301   7.783 -0.7152  2.5527 -1.9245
  400MOL0     H53998   5.066   4.211   7.782 -0.0735  0.3093  0.4972
  400MOL0     H53999   5.066   4.368   7.710 -0.1828  0.4667 -0.8572
  400MOL0     H54000   4.953   4.339   7.832  2.5729 -1.3590  2.4527
  401MOL0     O54001   8.211   8.264   5.756  0.2765 -0.0303 -0.5338
  401MOL0     C54002   8.222   8.257   5.879 -0.9827  0.3130  1.1164
  401MOL0     O54003   8.275   8.353   5.953 -0.2004 -0.4940 -0.1727
  401MOL0     C54004   8.340   8.464   5.905 -0.5411  0.5081  0.3553
  401MOL0     C54005   8.275   8.560   5.829  1.1387  1.4654 -0.5929
  401MOL0     C54006   8.352   8.659   5.776  0.6128 -0.1238 -0.7743
  401MOL0     C54007   8.486   8.669   5.782 -0.1727 -0.1192 -0.2674
  401MOL0     O54008   8.551   8.764   5.706  0.2565 -0.1026 -0.4296
  401MOL0     C54009   8.640   8.736   5.606 -0.0100  0.2933 -0.0346
  401MOL0     C54010   8.587   8.638   5.503 -0.5744  1.3375  0.2454
  401MOL0     C54011   8.712   8.584   5.418 -0.0363  0.0232 -0.0623
  401MOL0     C54012   8.773   8.695   5.326  0.1874  0.0046  0.1175
  401MOL0     C54013   8.842   8.614   5.209  0.3589 -0.2917 -0.5020
  401MOL0     C54014   8.955   8.703   5.148  0.4770 -0.0398 -0.2817
  401MOL0     C54015   9.056   8.620   5.069 -0.9532 -0.3001  0.3794
  401MOL0     C54016   9.175   8.702   5.011  0.2217 -0.5637 -0.0956
  401MOL0     N54017   9.123   8.820   4.930 -0.9461  1.2751  0.7776
  401MOL0     C54018   9.129   8.944   4.976 -0.1386 -0.5807  0.2328
  401MOL0     C54019   9.068   9.021   4.875  0.9432 -0.0416 -0.0968
  401MOL0     C54020   9.072   9.171   4.870  0.1570  0.2089 -0.9945
  401MOL0     C54021   9.208   9.227   4.825 -0.3822 -0.5975  0.9198
  401MOL0     C54022   9.210   9.384   4.818 -0.7969  0.2814  0.1349
  401MOL0     C54023   9.187   9.443   4.956  0.0316  0.4870 -0.2827
  401MOL0     O54024   9.230   9.359   5.062  1.1884  0.1462  0.0869
  401MOL0     C54025   9.366   9.341   5.089 -0.0802 -0.2347 -0.8997
  401MOL0     C54026   9.398   9.239   5.186  0.2947 -0.3994  0.4613
  401MOL0     C54027   9.533   9.219   5.213 -0.9026 -0.5231 -0.6439
  401MOL0     C54028   9.635   9.301   5.155  0.5048 -0.2820  0.8814
  401MOL0     C54029   9.779   9.280   5.189 -0.9200 -0.3533 -0.5424
  401MOL0     O54030   9.806   9.206   5.305 -0.0276 -0.2315  0.2949
  401MOL0     C54031   9.927   9.238   5.363 -0.6652 -0.3159  0.9554
  401MOL0     C54032  10.045   9.179   5.330  0.1421  0.0114 -0.1853
  401MOL0     C54033  10.157   9.198   5.412 -1.0475  0.4658  0.0462
  401MOL0     C54034  10.168   9.296   5.509 -0.0585  0.4807  0.2960
  401MOL0     O54035  10.276   9.328   5.592  0.0830 -0.0048  0.7084
  401MOL0     C54036  10.368   9.234   5.633 -0.0756 -0.2874 -0.2637
  401MOL0     C54037  10.483   9.292   5.718  0.1994  0.3964 -0.7939
  401MOL0     C54038  10.567   9.186   5.793 -0.6283  0.8438 -0.0250
  401MOL0     C54039  10.688   9.251   5.854  0.4347 -0.8661 -0.5144
  401MOL0     C54040  10.772   9.151   5.942 -1.0455 -0.4592  0.0165
  401MOL0     C54041  10.871   9.204   6.048  0.0477 -0.3184  0.1946
  401MOL0     C54042  10.959   9.096   6.111  0.8295  0.6706 -0.5293
  401MOL0     C54043  11.065   9.151   6.200 -0.8098 -1.0083  0.3809
  401MOL0    Cl54044  11.216   9.062   6.173  0.2478 -0.1386  0.0745
  401MOL0     C54045  10.041   9.353   5.542 -0.3108 -0.5063 -0.0928
  401MOL0     C54046   9.926   9.328   5.470  0.2665 -0.5712  0.2144
  401MOL0     O54047   9.862   9.346   5.124  0.0227 -0.0248  0.3834
  401MOL0     C54048   9.598   9.402   5.063  0.1596  0.0353 -0.1306
  401MOL0     C54049   9.466   9.425   5.037  0.7259  0.9952  1.2815
  401MOL0     N54050   9.027   8.936   4.771  0.6530 -0.3669  0.4866
  401MOL0     N54051   9.061   8.815   4.806 -0.2647  0.3415  0.6325
  401MOL0     C54052   8.545   8.581   5.865 -0.2902  0.2627 -0.2335
  401MOL0     C54053   8.476   8.477   5.932 -0.2063  0.3915 -0.1608
  401MOL0     C54054   8.175   8.133   5.946 -0.5956 -0.2535 -1.5066
  401MOL0     C54055   8.072   8.055   5.896 -0.1034 -0.1447 -0.2186
  401MOL0     C54056   8.034   7.929   5.954 -0.9155 -0.7154 -0.3681
  401MOL0     C54057   8.097   7.887   6.081 -0.9280 -0.3233 -0.1232
  401MOL0     O54058   8.067   7.770   6.150  0.3174  0.0333 -0.0549
  401MOL0     C54059   7.974   7.682   6.090  0.6040  0.2227 -0.5792
  401MOL0     C54060   7.942   7.566   6.180 -0.1281  0.8576 -0.1804
  401MOL0     C54061   7.819   7.493   6.137 -0.3766 -0.4102  0.6800
  401MOL0     C54062   7.805   7.355   6.200 -0.3278 -0.8689  0.7060
  401MOL0     C54063   7.683   7.283   6.159  0.3838 -0.0124  0.6898
  401MOL0     C54064   7.582   7.223   6.125  0.0920 -0.0051 -0.7752
  401MOL0     C54065   8.187   7.971   6.141 -0.3267  0.1027  0.4668
  401MOL0     C54066   8.233   8.086   6.071 -0.2763 -0.2267  0.8117
  401MOL0     C54067   8.339   8.164   6.140 -0.0549  0.2297 -0.0777
  401MOL0     H54068   8.167   8.548   5.824  1.1816  0.9679 -0.4219
  401MOL0     H54069   8.295   8.739   5.731  0.9369 -0.7322 -2.3247
  401MOL0     H54070   8.667   8.828   5.552 -0.1425  1.4146  1.6997
  401MOL0     H54071   8.733   8.696   5.648  0.8019 -0.6720 -2.5757
  401MOL0     H54072   8.513   8.685   5.438  0.5333  2.3175 -0.3611
  401MOL0     H54073   8.552   8.551   5.559 -0.1281  0.0625 -1.3806
  401MOL0     H54074   8.676   8.511   5.345 -0.2800  1.4927 -1.4531
  401MOL0     H54075   8.785   8.528   5.478 -0.0194  0.6300  0.4902
  401MOL0     H54076   8.703   8.772   5.293  0.8672  0.4848 -0.2400
  401MOL0     H54077   8.855   8.746   5.377 -0.9184  2.4563 -0.4578
  401MOL0     H54078   8.895   8.528   5.249  0.3080  0.2750  0.8241
  401MOL0     H54079   8.767   8.575   5.140  1.5465 -4.3589  0.2328
  401MOL0     H54080   8.909   8.763   5.069 -1.2359 -0.3635  0.4354
  401MOL0     H54081   9.003   8.771   5.219 -0.5554 -0.3131  0.7044
  401MOL0     H54082   9.009   8.560   4.991 -2.0849 -0.1874  0.9506
  401MOL0     H54083   9.090   8.549   5.144 -0.9159  1.5141  2.1864
  401MOL0     H54084   9.232   8.729   5.100 -0.2037  0.4961 -0.1336
  401MOL0     H54085   9.239   8.648   4.941  0.9437  1.5083 -1.1069
  401MOL0     H54086   9.184   8.977   5.064 -1.9658 -1.4727  1.7863
  401MOL0     H54087   8.991   9.198   4.801 -2.9573 -3.3745  0.9169
  401MOL0     H54088   9.052   9.202   4.973 -2.9350 -2.3402 -0.6513
  401MOL0     H54089   9.286   9.191   4.891  1.7999  0.3068 -1.0210
  401MOL0     H54090   9.225   9.185   4.725  0.9847 -0.8545  1.2564
  401MOL0     H54091   9.139   9.433   4.751  0.5224  1.5217 -0.4141
  401MOL0     H54092   9.305   9.414   4.774 -0.3108 -1.5436 -0.1275
  401MOL0     H54093   9.081   9.462   4.975  0.5275  1.5966  1.7274
  401MOL0     H54094   9.227   9.544   4.969 -4.8980  2.5669  1.2615
  401MOL0     H54095   9.323   9.183   5.242 -1.2401  1.1247  0.0085
  401MOL0     H54096   9.553   9.149   5.293 -2.6876 -1.1772 -0.7284
  401MOL0     H54097  10.063   9.113   5.245 -1.2915 -2.4631  1.3244
  401MOL0     H54098  10.242   9.143   5.374  0.2918  3.9537 -2.6152
  401MOL0     H54099  10.320   9.169   5.707  0.7749 -0.6311 -0.0026
  401MOL0     H54100  10.410   9.179   5.549 -0.0248  1.6858 -1.6072
  401MOL0     H54101  10.551   9.343   5.649  1.7815 -0.4979  0.0525
  401MOL0     H54102  10.448   9.369   5.787 -1.6065 -2.5615  1.8443
  401MOL0     H54103  10.514   9.137   5.875 -0.9347 -0.4107 -0.9380
  401MOL0     H54104  10.589   9.109   5.718 -1.8962  0.0039  0.4204
  401MOL0     H54105  10.662   9.344   5.907 -1.5265 -2.2940  1.2124
  401MOL0     H54106  10.744   9.279   5.765 -1.0158  0.6259 -1.0209
  401MOL0     H54107  10.839   9.105   5.870  0.8961 -1.1301  2.1336
  401MOL0     H54108  10.705   9.080   5.992 -1.5169  0.4228  0.6689
  401MOL0     H54109  10.932   9.280   5.998  0.3391 -0.3356  0.5149
  401MOL0     H54110  10.825   9.256   6.133 -0.4328  0.2221 -0.3867
  401MOL0     H54111  11.004   9.035   6.032  1.3799 -1.3127  1.2482
  401MOL0     H54112  10.899   9.032   6.175  1.7555 -0.8472 -1.1302
  401MOL0     H54113  11.085   9.254   6.169  1.6440 -1.6951 -0.5790
  401MOL0     H54114  11.033   9.166   6.304 -3.2308  2.0141 -0.6358
  401MOL0     H54115  10.048   9.426   5.622  2.3888 -0.4416 -0.2896
  401MOL0     H54116   9.831   9.362   5.510 -0.7499 -1.0943 -1.6316
  401MOL0     H54117   9.674   9.467   5.019 -0.6383  0.9206 -0.2467
  401MOL0     H54118   9.443   9.507   4.970  0.8636  0.2134  0.2588
  401MOL0     H54119   8.652   8.570   5.880 -0.4107 -1.8882 -0.5905
  401MOL0     H54120   8.520   8.409   6.004 -0.0957  1.0007  0.3615
  401MOL0     H54121   8.034   8.076   5.796 -0.5416 -1.3765 -0.3253
  401MOL0     H54122   7.957   7.870   5.905  1.3865 -1.4942 -3.3821
  401MOL0     H54123   8.013   7.637   5.999 -0.0865  0.0794 -0.8128
  401MOL0     H54124   7.886   7.745   6.072  0.0448 -0.3849 -0.0236
  401MOL0     H54125   7.923   7.601   6.282 -2.0558  0.4274 -0.3489
  401MOL0     H54126   8.029   7.500   6.185  1.0126  2.1816 -1.3372
  401MOL0     H54127   7.824   7.467   6.031 -0.9208 -2.0364  1.0200
  401MOL0     H54128   7.735   7.559   6.160  2.4205  3.4156  1.1029
  401MOL0     H54129   7.886   7.288   6.170 -0.4046 -1.2631  1.3629
  401MOL0     H54130   7.807   7.362   6.309 -0.5475 -1.1217  0.7274
  401MOL0     H54131   7.490   7.171   6.108 -0.2260  1.1125 -2.6730
  401MOL0     H54132   8.230   7.950   6.238 -0.3719 -1.3124  0.2000
  401MOL0     H54133   8.376   8.109   6.227 -0.8505  1.8617  1.3411
  401MOL0     H54134   8.424   8.190   6.076  1.7044 -2.0917  1.1553
  401MOL0     H54135   8.300   8.259   6.176 -0.6579  0.3038 -0.9039
  402MOL0     O54136   1.203   9.043   8.491  0.6460  0.6516  0.0717
  402MOL0     C54137   1.187   9.118   8.592  0.2148  0.3859  0.7576
  402MOL0     O54138   1.287   9.183   8.659  0.2448  0.3897  0.4883
  402MOL0     C54139   1.414   9.167   8.604  0.2626  0.8634  0.2423
  402MOL0     C54140   1.456   9.198   8.476 -0.5774 -0.1344 -0.3266
  402MOL0     C54141   1.591   9.171   8.443 -0.2556 -0.4120  0.2719
  402MOL0     C54142   1.680   9.114   8.528 -0.0883 -0.5128  0.1590
  402MOL0     O54143   1.807   9.098   8.478  0.3529  1.0267  0.7889
  402MOL0     C54144   1.914   9.052   8.560 -0.5598 -0.1346 -0.2748
  402MOL0     C54145   2.021   8.990   8.473  0.2457  0.1126 -0.3827
  402MOL0     C54146   2.146   8.968   8.560 -0.5312  0.4913 -0.7010
  402MOL0     C54147   2.273   8.934   8.483 -0.4419 -0.0487  0.3420
  402MOL0     C54148   2.396   8.927   8.574 -0.7975  0.2325 -0.6011
  402MOL0     C54149   2.452   9.066   8.614  0.3347  0.4711  0.0067
  402MOL0     C54150   2.555   9.120   8.512  0.1856  0.3841 -0.6118
  402MOL0     C54151   2.613   9.256   8.556 -0.2209 -0.3768 -1.0171
  402MOL0     N54152   2.728   9.305   8.475 -0.1295 -0.4641 -0.2614
  402MOL0     C54153   2.843   9.243   8.440  0.4521  0.9774  0.0663
  402MOL0     C54154   2.908   9.325   8.358  0.5015 -0.1574 -0.0550
  402MOL0     C54155   3.040   9.305   8.292 -0.0552 -0.3550  0.9155
  402MOL0     C54156   3.144   9.403   8.351  0.1514  0.3833 -0.3199
  402MOL0     C54157   3.200   9.358   8.496  0.0123 -0.5041 -1.4041
  402MOL0     C54158   3.277   9.466   8.564 -0.4826  0.3550  0.0833
  402MOL0     O54159   3.380   9.507   8.480 -0.2426  0.3810  0.2883
  402MOL0     C54160   3.508   9.522   8.534 -0.2547 -0.0731  0.0025
  402MOL0     C54161   3.540   9.522   8.673  1.7606 -1.0573  0.6118
  402MOL0     C54162   3.667   9.541   8.719 -0.2877 -0.3067  0.4252
  402MOL0     C54163   3.774   9.545   8.631 -0.0055  0.0354 -0.1967
  402MOL0     C54164   3.921   9.529   8.668 -0.3523 -0.6461 -0.3475
  402MOL0     O54165   3.954   9.530   8.803  0.6576 -0.7021 -0.2344
  402MOL0     C54166   4.091   9.547   8.840 -0.6034 -0.1799 -0.4276
  402MOL0     C54167   4.173   9.651   8.783 -0.7700  0.0346  0.1568
  402MOL0     C54168   4.296   9.679   8.846 -0.2786  0.8131  0.2104
  402MOL0     C54169   4.347   9.606   8.947  0.2061  0.1399 -0.0889
  402MOL0     O54170   4.463   9.652   9.010 -0.4192  0.1539  0.3354
  402MOL0     C54171   4.476   9.634   9.151  0.6544 -0.0931  0.0261
  402MOL0     C54172   4.571   9.736   9.208  0.1554  0.8005 -0.5931
  402MOL0     C54173   4.598   9.731   9.363  0.2450  0.3384  0.4499
  402MOL0     C54174   4.688   9.624   9.406 -0.3124 -0.3083  0.0943
  402MOL0     C54175   4.735   9.624   9.550 -0.1027 -0.5090 -0.0283
  402MOL0     C54176   4.799   9.760   9.594  0.4407  0.7103  0.3353
  402MOL0     C54177   4.878   9.755   9.729  0.4421 -0.0683 -0.2412
  402MOL0     C54178   5.008   9.675   9.728  0.4900  0.2830  0.4145
  402MOL0    Cl54179   5.083   9.691   9.883  0.5999 -0.1491  0.5244
  402MOL0     C54180   4.273   9.498   8.998  0.4877 -0.4015  0.3455
  402MOL0     C54181   4.146   9.476   8.947 -0.5131  0.6047 -0.9048
  402MOL0     O54182   4.003   9.507   8.576 -0.2856 -0.1813 -0.6355
  402MOL0     C54183   3.749   9.544   8.487  0.1213  1.8436 -0.4992
  402MOL0     C54184   3.617   9.527   8.447 -0.1629  0.2133  0.4783
  402MOL0     N54185   2.839   9.441   8.345  0.3915  0.0303  0.6258
  402MOL0     N54186   2.729   9.418   8.409 -0.5919 -1.0038  0.7913
  402MOL0     C54187   1.629   9.070   8.651  0.1940 -0.7221 -0.5600
  402MOL0     C54188   1.497   9.091   8.684 -0.7021 -0.7737 -0.3903
  402MOL0     C54189   1.062   9.126   8.662 -1.0286  0.7398  0.1804
  402MOL0     C54190   1.013   9.245   8.711  0.1455  0.3591 -0.1928
  402MOL0     C54191   0.878   9.251   8.758 -0.3893  0.4061 -0.2545
  402MOL0     C54192   0.797   9.143   8.773  1.6379  0.2576  0.1398
  402MOL0     O54193   0.671   9.162   8.819 -0.3965  0.3103  0.4605
  402MOL0     C54194   0.581   9.042   8.815 -0.1462  0.1235  0.4650
  402MOL0     C54195   0.444   9.112   8.808 -0.1680  0.0541  0.1136
  402MOL0     C54196   0.357   9.127   8.933 -0.1222  1.5596  0.8073
  402MOL0     C54197   0.218   9.168   8.903 -0.7219  1.3544  0.1414
  402MOL0     C54198   0.130   9.053   8.879  0.1735 -0.7480  0.6251
  402MOL0     C54199   0.061   8.954   8.861 -0.3324 -0.6558 -0.7175
  402MOL0     C54200   0.861   9.021   8.758 -0.5616  0.0821 -0.7438
  402MOL0     C54201   0.991   9.004   8.697  0.5647  0.3632  0.4140
  402MOL0     C54202   1.041   8.864   8.660 -0.1547  0.3606  0.3932
  402MOL0     H54203   1.389   9.251   8.409  1.8985  4.4299  0.4488
  402MOL0     H54204   1.626   9.219   8.352 -2.3320 -0.1837 -0.4614
  402MOL0     H54205   1.953   9.126   8.631 -0.6396  0.5218 -0.9027
  402MOL0     H54206   1.880   8.961   8.610 -1.3012  0.0153 -0.5047
  402MOL0     H54207   2.051   9.058   8.393  3.9787 -0.2976  0.4606
  402MOL0     H54208   1.970   8.909   8.420 -1.9501 -0.1109  1.8672
  402MOL0     H54209   2.124   8.888   8.631  2.7894 -0.9366 -1.0833
  402MOL0     H54210   2.156   9.052   8.630 -0.3131 -0.9981  1.1481
  402MOL0     H54211   2.262   8.834   8.442  1.4678 -0.1250 -0.0886
  402MOL0     H54212   2.284   8.990   8.390  0.0373 -0.1988  0.3020
  402MOL0     H54213   2.368   8.871   8.664 -1.3256  1.5790  0.1024
  402MOL0     H54214   2.481   8.876   8.527  1.6232  3.1821  0.2317
  402MOL0     H54215   2.368   9.133   8.637  0.4447  0.7651 -0.4298
  402MOL0     H54216   2.505   9.046   8.708 -0.2460 -3.6710 -0.3565
  402MOL0     H54217   2.510   9.151   8.417 -1.9764 -0.9467 -0.0855
  402MOL0     H54218   2.634   9.044   8.500  1.9652  1.3381  3.4492
  402MOL0     H54219   2.539   9.336   8.554 -1.4311 -1.4721 -2.7779
  402MOL0     H54220   2.638   9.249   8.662 -2.3939  0.2937 -0.4187
  402MOL0     H54221   2.875   9.144   8.470 -1.4539 -0.4973 -2.4314
  402MOL0     H54222   3.074   9.205   8.321  2.1192 -0.2816 -1.0075
  402MOL0     H54223   3.015   9.311   8.185 -1.0425 -2.3494  0.9857
  402MOL0     H54224   3.233   9.402   8.287 -0.1408 -0.1149 -0.7308
  402MOL0     H54225   3.091   9.499   8.351 -0.0035  0.3664 -2.8236
  402MOL0     H54226   3.258   9.269   8.470 -1.6602 -1.5189 -1.8247
  402MOL0     H54227   3.117   9.331   8.561  0.0243 -1.5090 -1.7795
  402MOL0     H54228   3.314   9.415   8.653  0.4769 -1.7865 -1.4453
  402MOL0     H54229   3.209   9.546   8.595 -0.1081  2.2177 -3.4371
  402MOL0     H54230   3.462   9.526   8.748  0.4087 -0.7356 -0.7343
  402MOL0     H54231   3.692   9.542   8.825  2.0862 -1.4126 -0.0434
  402MOL0     H54232   4.137   9.707   8.698  0.8689  2.6313  1.0774
  402MOL0     H54233   4.363   9.751   8.800  2.2576 -0.1964  2.0479
  402MOL0     H54234   4.376   9.653   9.192  1.2825  1.2685  1.0017
  402MOL0     H54235   4.507   9.530   9.164 -1.3488 -0.7139  0.1581
  402MOL0     H54236   4.671   9.724   9.166  0.4806 -3.1080  0.8152
  402MOL0     H54237   4.530   9.833   9.179 -4.5458 -1.0805 -1.2072
  402MOL0     H54238   4.642   9.825   9.398 -0.3532  0.7853  0.0360
  402MOL0     H54239   4.508   9.729   9.425  0.3901 -2.4429  0.7117
  402MOL0     H54240   4.781   9.620   9.348 -0.3393  2.9663 -0.3612
  402MOL0     H54241   4.636   9.528   9.401 -2.0165  0.3916  2.4722
  402MOL0     H54242   4.803   9.538   9.552  0.1921 -0.3147 -1.1481
  402MOL0     H54243   4.647   9.610   9.614  1.3609 -0.5042  2.1140
  402MOL0     H54244   4.873   9.791   9.519  1.2257 -0.8030  0.4429
  402MOL0     H54245   4.719   9.834   9.602  0.5201  0.9543 -0.9346
  402MOL0     H54246   4.814   9.719   9.810  1.9818 -0.1638  0.9651
  402MOL0     H54247   4.908   9.859   9.747 -0.8887  0.3808 -0.5312
  402MOL0     H54248   4.989   9.569   9.712  1.5002 -0.3420  2.9164
  402MOL0     H54249   5.078   9.699   9.646  0.6018  0.1984  0.4856
  402MOL0     H54250   4.315   9.444   9.082  0.9869  0.7277  0.8401
  402MOL0     H54251   4.091   9.393   8.991  1.2703  1.2994  3.0614
  402MOL0     H54252   3.826   9.542   8.411 -1.0934  0.1628 -1.7589
  402MOL0     H54253   3.577   9.527   8.346 -1.2473  0.8080  0.8926
  402MOL0     H54254   1.694   9.005   8.710 -1.4689 -1.9437  0.0268
  402MOL0     H54255   1.454   9.058   8.778  0.4696 -0.5617  0.2377
  402MOL0     H54256   1.072   9.336   8.712  3.0914 -1.4298  1.6478
  402MOL0     H54257   0.836   9.348   8.783 -2.1753  0.7160 -3.7370
  402MOL0     H54258   0.590   8.989   8.910  0.8510  0.8250  0.7838
  402MOL0     H54259   0.594   8.980   8.726 -4.0003  0.1319 -0.2617
  402MOL0     H54260   0.383   9.055   8.737  0.2301  1.2024 -1.1924
  402MOL0     H54261   0.449   9.211   8.761 -2.0642  1.1365  1.9812
  402MOL0     H54262   0.403   9.203   8.997 -0.5738 -1.8295  5.7814
  402MOL0     H54263   0.354   9.029   8.983 -1.3174  1.5254  0.6944
  402MOL0     H54264   0.188   9.235   8.984 -0.4388  2.9599 -1.0091
  402MOL0     H54265   0.214   9.226   8.810 -1.2112  0.7875 -0.1968
  402MOL0     H54266   0.001   8.868   8.845 -0.4336 -0.4242 -1.6108
  402MOL0     H54267   0.807   8.929   8.778 -0.5361 -0.5474 -3.2842
  402MOL0     H54268   0.999   8.827   8.566  0.1899 -0.8852  0.7029
  402MOL0     H54269   1.150   8.858   8.655 -0.1428  1.3720 -0.7742
  402MOL0     H54270   1.013   8.795   8.742  0.3801 -1.3538 -0.8127
  403MOL0     O54271   1.820   0.280   6.033 -0.2537 -0.3191 -0.7831
  403MOL0     C54272   1.732   0.328   6.106  0.1457  0.4812  0.6491
  403MOL0     O54273   1.747   0.425   6.198 -0.3071  0.0857  0.0037
  403MOL0     C54274   1.867   0.482   6.209  0.1435 -0.3414 -0.4309
  403MOL0     C54275   1.863   0.614   6.261 -0.0047 -0.7093  0.0537
  403MOL0     C54276   1.979   0.697   6.279  0.4985  0.8069 -0.3349
  403MOL0     C54277   2.105   0.639   6.260  0.5300 -1.3141  0.2160
  403MOL0     O54278   2.216   0.706   6.294 -0.1382  0.2934 -0.6455
  403MOL0     C54279   2.215   0.786   6.413 -0.4678  0.0725  0.3461
  403MOL0     C54280   2.356   0.793   6.463  0.5692  0.1925  0.4383
  403MOL0     C54281   2.369   0.884   6.583 -0.1416  0.0300 -0.2287
  403MOL0     C54282   2.508   0.926   6.634 -0.5273  0.1765  0.2065
  403MOL0     C54283   2.498   0.994   6.769  0.2744  0.5106 -0.1811
  403MOL0     C54284   2.637   1.047   6.819 -0.0378  0.2573  0.1397
  403MOL0     C54285   2.744   0.929   6.817 -0.2277 -0.0007 -0.1066
  403MOL0     C54286   2.886   0.996   6.861 -0.6531  0.7117  0.4081
  403MOL0     N54287   2.967   1.011   6.737 -0.3090  0.3984  0.1734
  403MOL0     C54288   3.039   0.915   6.661  0.4517  0.3228 -0.6214
  403MOL0     C54289   3.127   0.993   6.591 -0.5873  0.2083  0.2233
  403MOL0     C54290   3.232   0.936   6.521 -0.1407  0.5782  0.7449
  403MOL0     C54291   3.357   0.924   6.609  0.6962 -0.1221  0.8156
  403MOL0     C54292   3.469   0.858   6.528  0.4237  0.8394 -0.7055
  403MOL0     C54293   3.602   0.870   6.597  0.7055 -1.1223  0.0661
  403MOL0     O54294   3.608   0.781   6.711  0.0225  0.3683 -0.8538
  403MOL0     C54295   3.727   0.770   6.777  0.0202 -0.1717  0.0007
  403MOL0     C54296   3.760   0.651   6.831 -0.0722  0.6702 -0.7328
  403MOL0     C54297   3.888   0.626   6.879  0.4742  0.3373  0.2878
  403MOL0     C54298   3.987   0.729   6.880 -0.1074  0.1514  0.2812
  403MOL0     C54299   4.127   0.704   6.920  0.4021  0.6062 -0.3769
  403MOL0     O54300   4.157   0.574   6.932 -0.0711  0.1780 -0.6112
  403MOL0     C54301   4.286   0.547   6.966  0.3138 -0.0405  1.0701
  403MOL0     C54302   4.331   0.558   7.095 -0.0202  0.0267 -0.8769
  403MOL0     C54303   4.467   0.538   7.124  0.5150 -0.2869  0.1617
  403MOL0     C54304   4.561   0.519   7.025 -1.0750 -0.2624 -0.3765
  403MOL0     O54305   4.693   0.507   7.057 -0.1500 -0.1671  0.2872
  403MOL0     C54306   4.763   0.387   7.021  0.0506  0.0210  0.4181
  403MOL0     C54307   4.916   0.391   7.062  0.7162  0.6673  0.3673
  403MOL0     C54308   4.974   0.531   7.027 -0.3983 -0.0063 -0.1511
  403MOL0     C54309   5.128   0.528   7.024  0.0528 -0.2570 -0.5790
  403MOL0     C54310   5.177   0.542   7.173 -0.5900  0.1272 -0.0735
  403MOL0     C54311   5.334   0.569   7.171 -0.2732  0.0220  0.6784
  403MOL0     C54312   5.402   0.567   7.297  0.0002  0.2615 -1.0604
  403MOL0     C54313   5.546   0.603   7.301 -0.4949 -0.4428 -0.2780
  403MOL0    Cl54314   5.591   0.571   7.469 -0.2078 -0.0627  0.0801
  403MOL0     C54315   4.518   0.510   6.891 -0.4056  0.5156  0.9607
  403MOL0     C54316   4.380   0.521   6.861 -0.2410 -0.7902  0.3560
  403MOL0     O54317   4.194   0.802   6.952 -0.4677  0.0652  0.2765
  403MOL0     C54318   3.960   0.854   6.822 -0.7256 -0.5219 -0.0787
  403MOL0     C54319   3.831   0.877   6.767  0.8932 -0.5259  0.3776
  403MOL0     N54320   3.115   1.121   6.622 -0.2788 -0.0927 -0.6222
  403MOL0     N54321   3.019   1.131   6.704  0.1474  0.2331 -0.1555
  403MOL0     C54322   2.113   0.514   6.205 -0.2523  0.2543  0.3368
  403MOL0     C54323   2.002   0.431   6.179 -0.1719 -0.1235  0.7053
  403MOL0     C54324   1.593   0.276   6.091 -0.2236  0.0079  0.0819
  403MOL0     C54325   1.489   0.359   6.114 -0.6591 -0.5125  0.3515
  403MOL0     C54326   1.357   0.318   6.108 -0.0474  0.2356  0.0325
  403MOL0     C54327   1.327   0.185   6.071  0.2196 -0.2138 -0.2235
  403MOL0     O54328   1.197   0.162   6.049  0.1681 -0.3616  0.9779
  403MOL0     C54329   1.150   0.030   6.057  0.0721  0.0351  0.0777
  403MOL0     C54330   1.161  -0.029   6.201 -0.2691  0.0082  0.3364
  403MOL0     C54331   1.076   0.054   6.296 -0.3476  0.2066 -0.4798
  403MOL0     C54332   1.077   0.002   6.434  0.4676 -0.5954 -0.9051
  403MOL0     C54333   0.984  -0.109   6.435  0.2562 -0.6015 -0.7392
  403MOL0     C54334   0.918  -0.214   6.437 -0.2648 -0.0631  0.6469
  403MOL0     C54335   1.431   0.093   6.044  0.5671 -0.6743  0.0408
  403MOL0     C54336   1.565   0.137   6.058 -0.5978  0.2595 -0.3106
  403MOL0     C54337   1.672   0.034   6.032  1.0792  0.2194  0.0024
  403MOL0     H54338   1.769   0.655   6.294  1.2125  1.1603  1.4146
  403MOL0     H54339   1.962   0.797   6.318  2.2322  0.3737  1.7105
  403MOL0     H54340   2.174   0.880   6.376 -1.4143 -0.2424  0.5660
  403MOL0     H54341   2.150   0.746   6.491 -0.7690 -1.0899 -0.4724
  403MOL0     H54342   2.426   0.829   6.387  0.5831  0.3655  0.5312
  403MOL0     H54343   2.382   0.691   6.490 -1.5864 -0.7424 -0.7749
  403MOL0     H54344   2.302   0.838   6.656 -1.1581  0.5350 -0.8350
  403MOL0     H54345   2.324   0.981   6.558 -1.5604  0.5440  3.5551
  403MOL0     H54346   2.566   0.834   6.650 -1.8895 -0.9801 -1.1683
  403MOL0     H54347   2.570   0.978   6.560  1.4853 -1.0636  0.9180
  403MOL0     H54348   2.426   1.076   6.763 -0.3251 -0.0315 -0.4378
  403MOL0     H54349   2.446   0.920   6.830  2.4240 -1.2827 -0.3924
  403MOL0     H54350   2.674   1.137   6.770 -0.0151  0.1329 -0.0723
  403MOL0     H54351   2.619   1.063   6.926 -0.0164 -0.2756  0.2292
  403MOL0     H54352   2.756   0.883   6.719 -0.7627 -0.3283 -0.0189
  403MOL0     H54353   2.703   0.862   6.894 -0.2063 -0.7113 -0.7082
  403MOL0     H54354   2.866   1.093   6.908  1.5778  0.6091  1.7064
  403MOL0     H54355   2.936   0.932   6.935  0.8915 -0.0042 -1.2056
  403MOL0     H54356   3.028   0.808   6.668 -0.3140  0.3803 -0.8602
  403MOL0     H54357   3.202   0.838   6.483  1.5367  0.6569 -0.9269
  403MOL0     H54358   3.253   0.983   6.425  0.3057 -1.9118 -0.4661
  403MOL0     H54359   3.379   1.028   6.636  0.6002 -0.4383  2.2258
  403MOL0     H54360   3.342   0.865   6.700 -0.2558 -3.0879 -1.0999
  403MOL0     H54361   3.484   0.909   6.433  1.8041  0.6602 -0.6055
  403MOL0     H54362   3.442   0.757   6.493 -3.1967  2.1091 -2.1137
  403MOL0     H54363   3.603   0.972   6.636 -1.1207 -0.3093 -1.8280
  403MOL0     H54364   3.683   0.854   6.525 -0.5171 -1.7559 -1.2217
  403MOL0     H54365   3.687   0.571   6.839 -1.1326  1.6771 -0.0263
  403MOL0     H54366   3.918   0.528   6.912 -0.9134 -0.3274 -0.3634
  403MOL0     H54367   4.253   0.576   7.169 -0.3537  5.9138 -2.1068
  403MOL0     H54368   4.507   0.550   7.224 -0.5957  0.9226  0.4928
  403MOL0     H54369   4.697   0.313   7.067 -1.4261  0.9464 -0.1609
  403MOL0     H54370   4.759   0.372   6.912  0.2054  2.0581  0.0932
  403MOL0     H54371   4.936   0.375   7.169  1.0902  1.8091  0.4881
  403MOL0     H54372   4.960   0.309   7.006  2.7669  1.6894  0.3706
  403MOL0     H54373   4.933   0.560   6.929 -1.4842  1.8854  0.8116
  403MOL0     H54374   4.946   0.612   7.095  1.2625  0.2134  0.3231
  403MOL0     H54375   5.169   0.612   6.968  2.3857 -0.3366  0.8896
  403MOL0     H54376   5.161   0.434   6.979 -3.1974 -1.4290 -0.8193
  403MOL0     H54377   5.160   0.455   7.237  0.1268  0.4162  0.5257
  403MOL0     H54378   5.128   0.625   7.225 -1.0190 -0.5764  0.6563
  403MOL0     H54379   5.381   0.502   7.098  0.2804  0.9006  0.2212
  403MOL0     H54380   5.350   0.663   7.118  0.4187 -1.3345 -1.6230
  403MOL0     H54381   5.386   0.469   7.344 -1.9844  1.3252  0.6972
  403MOL0     H54382   5.348   0.631   7.368  0.0764 -1.2967  0.4887
  403MOL0     H54383   5.603   0.546   7.227 -2.1706 -0.5555 -1.5629
  403MOL0     H54384   5.556   0.710   7.278 -5.1914  0.6816  1.7124
  403MOL0     H54385   4.583   0.487   6.808 -0.5781  0.1931  0.9123
  403MOL0     H54386   4.356   0.511   6.755 -1.5527  1.4559  0.3912
  403MOL0     H54387   4.041   0.926   6.817 -1.0481  0.0053  1.6762
  403MOL0     H54388   3.805   0.963   6.706  1.2596 -2.4331 -2.6884
  403MOL0     H54389   2.209   0.475   6.174 -0.5281  0.2892 -0.5730
  403MOL0     H54390   2.016   0.328   6.147  2.9831  1.2075 -3.2007
  403MOL0     H54391   1.516   0.462   6.132  2.4982 -0.6509 -2.5872
  403MOL0     H54392   1.272   0.384   6.122 -0.4788 -0.1876 -0.5945
  403MOL0     H54393   1.197  -0.045   5.993 -2.4724 -1.0841 -0.5943
  403MOL0     H54394   1.043   0.033   6.037  0.3541  2.7746 -1.5473
  403MOL0     H54395   1.266  -0.029   6.234 -0.7143  0.8224  1.8566
  403MOL0     H54396   1.129  -0.133   6.205  0.2004 -0.1754 -0.3789
  403MOL0     H54397   0.979   0.060   6.246 -0.0913  0.2038 -0.9901
  403MOL0     H54398   1.114   0.157   6.303  0.4341 -0.1115  0.2488
  403MOL0     H54399   1.168  -0.022   6.489 -0.9870  1.4251  2.7630
  403MOL0     H54400   1.032   0.077   6.500 -3.0240 -2.6894 -0.5984
  403MOL0     H54401   0.862  -0.306   6.432  0.3410 -0.4300 -3.6117
  403MOL0     H54402   1.410  -0.004   5.999  0.8958 -0.6211 -0.2299
  403MOL0     H54403   1.737   0.031   6.120 -2.2987 -0.7540  2.6778
  403MOL0     H54404   1.619  -0.061   6.018 -2.4603  2.0861 -0.4642
  403MOL0     H54405   1.727   0.056   5.940  0.5622  2.7075  0.2297
  404MOL0     O54406  11.093   8.448   0.722  0.4764 -0.8923  0.1193
  404MOL0     C54407  11.066   8.338   0.772 -1.2231 -0.0028  0.1194
  404MOL0     O54408  11.150   8.231   0.759  0.0351 -0.4396 -0.0783
  404MOL0     C54409  11.213   8.221   0.636  0.1654 -0.1072 -1.1856
  404MOL0     C54410  11.354   8.216   0.631 -0.5826  0.0392  0.4417
  404MOL0     C54411  11.424   8.218   0.507  0.5408 -0.6032  0.1826
  404MOL0     C54412  11.360   8.208   0.386  1.4541  1.1442 -0.6326
  404MOL0     O54413  11.422   8.215   0.264 -0.6958  0.1696  0.4506
  404MOL0     C54414  11.527   8.309   0.249  0.0816 -0.9838  0.0238
  404MOL0     C54415  11.536   8.354   0.099  0.1390 -0.7834 -0.3046
  404MOL0     C54416  11.618   8.484   0.076 -0.5172  0.1990  0.4735
  404MOL0     C54417  11.748   8.478   0.148 -0.5575  0.0097  0.0074
  404MOL0     C54418  11.813   8.608   0.138  0.3721 -0.2649  0.5925
  404MOL0     C54419  11.846   8.657  -0.001  0.0520  0.8417 -1.0468
  404MOL0     C54420  11.896   8.796   0.017 -0.7913 -0.6614  0.1274
  404MOL0     C54421  11.920   8.855  -0.124  0.1311 -0.4057 -0.2484
  404MOL0     N54422  12.004   8.979  -0.109  0.7355 -0.0164  0.3414
  404MOL0     C54423  12.140   8.993  -0.100  0.5550 -0.7394 -0.0687
  404MOL0     C54424  12.166   9.123  -0.102 -0.5055  0.1963 -0.1706
  404MOL0     C54425  12.300   9.182  -0.118 -0.7595 -0.6097  0.0267
  404MOL0     C54426  12.410   9.094  -0.059  0.4016  0.0384  0.0340
  404MOL0     C54427  12.392   9.044   0.092 -0.6426  0.6242  0.7999
  404MOL0     C54428  12.520   9.037   0.164 -0.0120 -0.2356 -0.7022
  404MOL0     O54429  12.602   8.929   0.116 -0.3992  0.4435 -0.0354
  404MOL0     C54430  12.724   8.942   0.058  0.0273  0.9079 -0.3162
  404MOL0     C54431  12.771   8.834  -0.009 -0.0172  0.6434 -0.4898
  404MOL0     C54432  12.895   8.846  -0.078  0.3964  0.5314 -0.6775
  404MOL0     C54433  12.976   8.954  -0.053  0.4110 -0.1896  0.0653
  404MOL0     C54434  13.107   8.962  -0.130  0.2070  0.3008  0.3119
  404MOL0     O54435  13.099   8.925  -0.265  0.0874  1.1569 -0.4437
  404MOL0     C54436  13.202   8.940  -0.355 -0.3479  0.2698  0.0155
  404MOL0     C54437  13.333   8.920  -0.326  0.4217 -0.2474 -0.2757
  404MOL0     C54438  13.434   8.942  -0.425  0.1274 -0.9328  0.2727
  404MOL0     C54439  13.396   8.970  -0.558 -0.2878 -0.2241  0.0148
  404MOL0     O54440  13.487   8.998  -0.665 -0.3729 -0.4920  0.6524
  404MOL0     C54441  13.625   8.949  -0.653 -0.1848  0.4145  0.1530
  404MOL0     C54442  13.699   8.961  -0.783  0.0743 -0.0751  0.4811
  404MOL0     C54443  13.726   9.111  -0.825  0.4009 -0.1506 -1.0706
  404MOL0     C54444  13.872   9.133  -0.868  0.0448 -0.8055 -0.1513
  404MOL0     C54445  13.892   9.281  -0.904 -0.4494 -0.3149  0.0691
  404MOL0     C54446  14.027   9.309  -0.975  0.4791  0.5628 -0.4076
  404MOL0     C54447  14.140   9.285  -0.871  0.7437  0.6281  1.3744
  404MOL0     C54448  14.276   9.335  -0.919 -0.1494 -0.1021  0.3342
  404MOL0    Cl54449  14.395   9.283  -0.802 -0.4821 -0.2565  0.1119
  404MOL0     C54450  13.262   8.978  -0.582  0.3630 -0.6279  0.1404
  404MOL0     C54451  13.166   8.965  -0.488  0.6969  0.7275 -0.7697
  404MOL0     O54452  13.203   9.023  -0.086 -0.4419  1.1961  0.1947
  404MOL0     C54453  12.932   9.055   0.023  0.2712 -0.2872  0.5416
  404MOL0     C54454  12.804   9.048   0.074  0.0399 -0.0461 -0.3291
  404MOL0     N54455  12.053   9.198  -0.116 -1.5114  0.4835  0.3235
  404MOL0     N54456  11.956   9.108  -0.123  0.8964  0.3821 -0.1613
  404MOL0     C54457  11.216   8.223   0.389 -0.4677 -0.1970 -1.0555
  404MOL0     C54458  11.141   8.226   0.512 -0.0659  0.2186 -0.3550
  404MOL0     C54459  10.941   8.322   0.846  0.5272  0.3945  0.5020
  404MOL0     C54460  10.831   8.409   0.813  0.1404 -0.5024 -0.2801
  404MOL0     C54461  10.707   8.402   0.881  0.0781  0.4457  0.0719
  404MOL0     C54462  10.689   8.318   0.992  0.5231 -0.7968  0.1677
  404MOL0     O54463  10.568   8.314   1.063 -0.9168 -0.8708 -0.0411
  404MOL0     C54464  10.564   8.428   1.140  0.4014 -0.0238 -0.4234
  404MOL0     C54465  10.604   8.400   1.290  0.0940 -0.5792  0.5815
  404MOL0     C54466  10.517   8.294   1.358 -0.1867 -0.1007  0.4708
  404MOL0     C54467  10.480   8.326   1.510  0.8255 -0.5445 -0.2762
  404MOL0     C54468  10.392   8.454   1.513 -0.2531 -0.4418  0.2976
  404MOL0     C54469  10.324   8.558   1.528  0.3351 -0.1461 -0.4616
  404MOL0     C54470  10.798   8.236   1.032 -0.1266  0.8593 -0.2504
  404MOL0     C54471  10.914   8.235   0.949  0.2859 -0.2345 -0.1427
  404MOL0     C54472  11.023   8.143   1.008  0.2774  0.3550  0.1535
  404MOL0     H54473  11.398   8.213   0.730 -2.6382  1.1360  1.4580
  404MOL0     H54474  11.529   8.243   0.522  1.0795 -1.5554 -1.6659
  404MOL0     H54475  11.502   8.393   0.315 -0.2211 -1.0488 -0.0090
  404MOL0     H54476  11.614   8.252   0.282 -0.8828 -1.3708  2.0869
  404MOL0     H54477  11.444   8.374   0.043 -0.8958 -1.8358  0.9350
  404MOL0     H54478  11.596   8.279   0.047  1.8038  1.2221 -1.3979
  404MOL0     H54479  11.567   8.573   0.112  0.9452  1.2279  0.0560
  404MOL0     H54480  11.636   8.501  -0.031 -0.3774  1.5410  0.6977
  404MOL0     H54481  11.722   8.457   0.252  1.1160 -0.5720  0.3316
  404MOL0     H54482  11.816   8.401   0.109  0.9966  1.3227  0.0376
  404MOL0     H54483  11.742   8.680   0.179 -1.6858 -2.4312  1.0355
  404MOL0     H54484  11.900   8.605   0.204  0.1502  1.6378  1.0204
  404MOL0     H54485  11.915   8.584  -0.045 -1.6228 -1.9533  0.6930
  404MOL0     H54486  11.755   8.663  -0.060  0.0342 -2.8959 -1.6679
  404MOL0     H54487  11.988   8.793   0.076  1.2661  0.0278 -2.8432
  404MOL0     H54488  11.817   8.853   0.067 -1.7223 -2.0879  0.3255
  404MOL0     H54489  11.966   8.787  -0.197 -2.8320  0.1718 -2.8912
  404MOL0     H54490  11.823   8.888  -0.164  0.6751  1.6788  0.0184
  404MOL0     H54491  12.211   8.911  -0.093  0.3648 -1.1713 -2.4303
  404MOL0     H54492  12.334   9.208  -0.219  2.4719 -1.6472  0.7368
  404MOL0     H54493  12.294   9.280  -0.069 -2.3431 -0.2117 -0.8603
  404MOL0     H54494  12.426   9.016  -0.134 -2.2646  0.6876 -1.3061
  404MOL0     H54495  12.507   9.146  -0.062 -0.0359  0.8617 -2.9810
  404MOL0     H54496  12.332   8.953   0.102  0.0211  0.1731  0.8129
  404MOL0     H54497  12.333   9.122   0.139 -2.3311 -0.9306  1.3836
  404MOL0     H54498  12.489   9.009   0.265  0.2578 -1.2044 -0.8747
  404MOL0     H54499  12.570   9.134   0.152  0.1245 -0.0003  1.4359
  404MOL0     H54500  12.714   8.743  -0.024 -1.3931  1.5913 -1.2559
  404MOL0     H54501  12.924   8.760  -0.138  1.0098  0.3851 -0.1841
  404MOL0     H54502  13.354   8.890  -0.224 -2.5539 -0.6631  0.3216
  404MOL0     H54503  13.538   8.949  -0.394 -0.1711  0.4489  1.0611
  404MOL0     H54504  13.683   9.004  -0.578 -0.5045  1.1590 -0.1366
  404MOL0     H54505  13.622   8.845  -0.621  4.3669 -0.4202 -1.5341
  404MOL0     H54506  13.797   8.916  -0.764 -0.0617 -0.7538 -0.3748
  404MOL0     H54507  13.647   8.900  -0.857  0.2800 -3.7177  3.0132
  404MOL0     H54508  13.668   9.130  -0.916  0.7816 -1.5555 -1.6254
  404MOL0     H54509  13.693   9.175  -0.742 -1.1481 -1.8356 -0.3172
  404MOL0     H54510  13.912   9.071  -0.948  0.0111  0.6310 -1.3154
  404MOL0     H54511  13.935   9.119  -0.780  1.2749  0.0695 -0.8550
  404MOL0     H54512  13.879   9.348  -0.818 -0.0419  0.9142 -0.7874
  404MOL0     H54513  13.810   9.295  -0.976 -1.0070  1.2453  0.9509
  404MOL0     H54514  14.027   9.248  -1.066  1.7370 -2.5185  1.4837
  404MOL0     H54515  14.030   9.417  -0.991  1.2571  0.5398 -0.4477
  404MOL0     H54516  14.147   9.180  -0.844  1.4245 -0.0573 -1.1260
  404MOL0     H54517  14.113   9.343  -0.783 -1.2450  1.6062  0.2010
  404MOL0     H54518  14.296   9.288  -1.016 -3.0890 -0.9301  0.0085
  404MOL0     H54519  14.279   9.443  -0.936  0.7936 -0.3890 -1.6209
  404MOL0     H54520  13.243   9.001  -0.687  1.1332 -1.7530 -0.2625
  404MOL0     H54521  13.062   8.974  -0.516  0.3226  1.8408  0.8276
  404MOL0     H54522  12.995   9.142   0.040 -0.1613  0.4399 -1.3029
  404MOL0     H54523  12.770   9.132   0.133  0.7403  0.9219 -1.2555
  404MOL0     H54524  11.163   8.210   0.295 -0.9710  2.2889 -1.1763
  404MOL0     H54525  11.037   8.199   0.506  0.0507 -0.0552 -1.3433
  404MOL0     H54526  10.838   8.483   0.733 -4.3766 -0.8664 -1.2899
  404MOL0     H54527  10.622   8.465   0.855  1.0705  2.0651  0.5692
  404MOL0     H54528  10.461   8.465   1.144  1.3788  2.8522  0.6775
  404MOL0     H54529  10.620   8.514   1.101 -0.2809  1.1646  1.1059
  404MOL0     H54530  10.602   8.491   1.352 -1.7342  0.9280 -1.5392
  404MOL0     H54531  10.705   8.357   1.288 -0.8021 -2.8001  0.8230
  404MOL0     H54532  10.571   8.199   1.352 -0.2896 -0.0743 -3.2343
  404MOL0     H54533  10.429   8.278   1.294 -0.4139  0.0025  0.7582
  404MOL0     H54534  10.410   8.255   1.554 -3.5078  3.6648  0.3897
  404MOL0     H54535  10.568   8.345   1.573  2.4153 -2.0362 -1.9213
  404MOL0     H54536  10.255   8.638   1.541 -1.2507 -1.8411  2.4924
  404MOL0     H54537  10.789   8.179   1.124 -0.5893  2.2872  0.6367
  404MOL0     H54538  11.123   8.180   0.986  1.0939 -1.6370  0.3601
  404MOL0     H54539  10.994   8.137   1.113 -3.0003  0.3871 -0.6349
  404MOL0     H54540  11.005   8.042   0.969 -1.3638  0.2743  1.0203
  405MOL0     O54541  10.376   4.739   3.239 -0.6588 -0.0537 -0.0238
  405MOL0     C54542  10.391   4.760   3.363  0.5545 -0.2400  0.0766
  405MOL0     O54543  10.520   4.784   3.421 -0.1838 -0.0884  0.8502
  405MOL0     C54544  10.634   4.763   3.339  0.1888  0.0760  0.4567
  405MOL0     C54545  10.697   4.640   3.362 -0.3147  0.2467 -0.0499
  405MOL0     C54546  10.823   4.606   3.291  0.0915 -0.5641  0.0699
  405MOL0     C54547  10.885   4.695   3.203 -1.0764  0.0726  0.5866
  405MOL0     O54548  11.006   4.659   3.139  0.0707 -0.0758 -0.1667
  405MOL0     C54549  11.061   4.748   3.049  1.0691 -0.2837  0.0162
  405MOL0     C54550  11.151   4.660   2.966 -0.2589 -0.1131  0.1372
  405MOL0     C54551  11.238   4.739   2.866  0.4901 -0.2805 -0.0037
  405MOL0     C54552  11.381   4.711   2.899 -0.1338 -0.7314 -0.2040
  405MOL0     C54553  11.492   4.774   2.803 -0.2076 -0.1369 -0.2292
  405MOL0     C54554  11.621   4.705   2.839 -0.7513 -0.4369  0.5724
  405MOL0     C54555  11.749   4.776   2.784  0.0441  0.1231 -0.5186
  405MOL0     C54556  11.743   4.821   2.636 -0.4974  0.3734  0.3632
  405MOL0     N54557  11.874   4.867   2.592  0.0257  0.4622 -0.1858
  405MOL0     C54558  11.988   4.792   2.588 -0.0112  0.4714  0.8954
  405MOL0     C54559  12.078   4.868   2.529 -0.5242 -0.5096 -0.0442
  405MOL0     C54560  12.223   4.834   2.516 -0.9143  0.9942  0.0218
  405MOL0     C54561  12.276   4.844   2.663  0.8761  0.3437  0.6085
  405MOL0     C54562  12.429   4.826   2.659 -0.9297  0.2427 -0.1186
  405MOL0     C54563  12.501   4.867   2.789  0.0636  0.3691  0.2867
  405MOL0     O54564  12.403   4.868   2.897 -0.4687 -1.0380  0.6331
  405MOL0     C54565  12.453   4.885   3.026  0.4145  0.0774  0.3149
  405MOL0     C54566  12.357   4.910   3.128 -0.3099 -0.0907  0.3646
  405MOL0     C54567  12.398   4.946   3.252  0.7230  0.5728 -0.0893
  405MOL0     C54568  12.527   4.938   3.295  0.4469 -0.1713  0.1127
  405MOL0     C54569  12.562   4.962   3.437  1.1302 -0.4576  0.1725
  405MOL0     O54570  12.672   4.910   3.489  0.1315 -0.4957  0.1009
  405MOL0     C54571  12.689   4.901   3.630 -0.1328  0.2869  0.4900
  405MOL0     C54572  12.816   4.940   3.685 -0.5249 -0.3793 -0.2847
  405MOL0     C54573  12.841   4.923   3.825  0.3950  0.0192  0.6777
  405MOL0     C54574  12.735   4.888   3.905 -0.1165 -0.0236 -0.4604
  405MOL0     O54575  12.749   4.912   4.044  0.5835 -0.1960 -0.5544
  405MOL0     C54576  12.730   4.801   4.128  0.0936  0.9569  0.4116
  405MOL0     C54577  12.791   4.831   4.270 -0.2660 -1.2636  0.3132
  405MOL0     C54578  12.948   4.844   4.259  0.8297  0.5082  1.6241
  405MOL0     C54579  13.007   4.915   4.379 -0.6641 -0.4416 -0.8456
  405MOL0     C54580  13.152   4.898   4.395 -0.7316  0.0852 -0.1379
  405MOL0     C54581  13.229   4.986   4.294 -0.1519  0.7274  0.6133
  405MOL0     C54582  13.382   4.968   4.295  0.2776  0.3613  0.2075
  405MOL0     C54583  13.435   4.879   4.182  0.3967  0.6454  0.0837
  405MOL0    Cl54584  13.588   4.813   4.228  0.6178 -0.1706 -0.1457
  405MOL0     C54585  12.618   4.840   3.849  0.5217 -0.3202 -0.3256
  405MOL0     C54586  12.592   4.839   3.712  0.0523  0.6802  0.0963
  405MOL0     O54587  12.469   5.016   3.508 -0.0781  0.0240  0.5108
  405MOL0     C54588  12.626   4.907   3.196  0.8036  0.4570 -0.1716
  405MOL0     C54589  12.586   4.879   3.064 -0.8757 -0.6331 -0.0017
  405MOL0     N54590  12.031   4.994   2.500  1.0003 -0.8281 -0.5868
  405MOL0     N54591  11.906   4.984   2.533 -0.3777 -0.4719 -0.3650
  405MOL0     C54592  10.823   4.824   3.191 -0.4636 -0.1967 -0.4862
  405MOL0     C54593  10.695   4.848   3.252  0.1186  0.8704  1.4277
  405MOL0     C54594  10.281   4.761   3.460  0.4993 -0.1536  0.2973
  405MOL0     C54595  10.313   4.814   3.587 -0.0276 -0.2136 -0.0077
  405MOL0     C54596  10.216   4.832   3.690 -0.4101  0.0360  0.8504
  405MOL0     C54597  10.090   4.786   3.674  0.6876  0.4511  1.1776
  405MOL0     O54598   9.981   4.798   3.754 -0.5416  0.0460  0.2566
  405MOL0     C54599   9.999   4.840   3.881  0.3565  0.2336 -0.7661
  405MOL0     C54600   9.884   4.792   3.972 -0.3493  0.3592 -0.9733
  405MOL0     C54601   9.899   4.642   4.020  0.9574 -0.1276  0.3144
  405MOL0     C54602   9.797   4.611   4.122  0.0754  0.4257 -0.8901
  405MOL0     C54603   9.792   4.465   4.142  1.0204 -0.7584  0.4193
  405MOL0     C54604   9.784   4.352   4.158 -0.2632  0.1429 -0.0073
  405MOL0     C54605  10.061   4.727   3.548  0.6694 -0.0392 -0.1170
  405MOL0     C54606  10.146   4.727   3.434  0.4043  0.1681  0.2493
  405MOL0     C54607  10.085   4.678   3.304 -0.8733 -0.9729 -1.2635
  405MOL0     H54608  10.661   4.566   3.433 -0.0903 -0.0043 -0.2006
  405MOL0     H54609  10.872   4.509   3.293  2.2491  0.4017 -1.5206
  405MOL0     H54610  10.989   4.787   2.977 -0.4923 -1.2979  0.9618
  405MOL0     H54611  11.118   4.828   3.096 -1.5309  1.1815  0.8899
  405MOL0     H54612  11.085   4.586   2.919  1.4945 -1.9721  0.4299
  405MOL0     H54613  11.224   4.605   3.027  1.9413  1.6802 -0.7328
  405MOL0     H54614  11.215   4.846   2.867  0.3580 -0.3092  0.8392
  405MOL0     H54615  11.230   4.703   2.763  0.3113 -1.3356  0.3713
  405MOL0     H54616  11.398   4.743   3.002  1.5377 -1.9020 -0.0836
  405MOL0     H54617  11.400   4.603   2.901 -1.3307 -0.9951 -1.4801
  405MOL0     H54618  11.478   4.755   2.697 -0.0127  1.8590 -0.6415
  405MOL0     H54619  11.498   4.881   2.825 -2.8347 -0.3644  2.1799
  405MOL0     H54620  11.627   4.695   2.947 -1.9289  0.5671  0.7602
  405MOL0     H54621  11.612   4.610   2.785  1.3029 -0.1902 -0.3040
  405MOL0     H54622  11.838   4.715   2.802  1.3433  2.1930  0.5458
  405MOL0     H54623  11.765   4.864   2.847  1.5247 -0.7517  0.4042
  405MOL0     H54624  11.696   4.747   2.571 -0.8165  1.5012 -0.7255
  405MOL0     H54625  11.687   4.915   2.626  0.9248  1.1933 -0.2635
  405MOL0     H54626  12.007   4.694   2.630  0.0820 -0.3172 -0.8679
  405MOL0     H54627  12.234   4.730   2.482  6.5282  1.5628 -1.0329
  405MOL0     H54628  12.279   4.903   2.452  1.1381  1.0519  1.7645
  405MOL0     H54629  12.251   4.939   2.712 -2.9612 -1.2039  2.0192
  405MOL0     H54630  12.220   4.771   2.721 -4.6821  1.4537 -2.6311
  405MOL0     H54631  12.483   4.887   2.586  0.3036  0.1163  0.6389
  405MOL0     H54632  12.465   4.724   2.643  0.8013  1.1051 -2.1944
  405MOL0     H54633  12.546   4.962   2.758  1.9711 -1.3543 -2.7139
  405MOL0     H54634  12.576   4.793   2.815  0.9078  1.6727  1.7449
  405MOL0     H54635  12.252   4.924   3.104 -0.4404  1.2349  1.5804
  405MOL0     H54636  12.321   4.978   3.321 -0.3729  0.5753 -1.2788
  405MOL0     H54637  12.883   5.002   3.626 -1.6127  0.8803 -0.2667
  405MOL0     H54638  12.932   4.965   3.867  1.6586 -1.2514 -0.6572
  405MOL0     H54639  12.625   4.769   4.128  1.1644 -3.3597  2.1797
  405MOL0     H54640  12.777   4.713   4.083  0.9147  0.0906  2.7813
  405MOL0     H54641  12.745   4.929   4.285  0.7570 -0.4143 -1.7692
  405MOL0     H54642  12.759   4.751   4.337 -2.3930 -0.7580 -0.0086
  405MOL0     H54643  12.990   4.745   4.242  0.5713  0.8643 -1.8123
  405MOL0     H54644  12.965   4.901   4.167 -0.3382 -3.2488 -1.1615
  405MOL0     H54645  12.970   4.869   4.471  3.2413 -0.9177  0.6450
  405MOL0     H54646  12.986   5.022   4.371 -1.4723 -0.6230 -1.3628
  405MOL0     H54647  13.181   4.793   4.396  0.7679  0.4776  1.3106
  405MOL0     H54648  13.172   4.944   4.492 -0.7629  1.2066 -0.6445
  405MOL0     H54649  13.190   4.955   4.197  1.9090 -0.5461  0.1115
  405MOL0     H54650  13.216   5.091   4.318  0.4986  0.2049  3.6588
  405MOL0     H54651  13.410   4.921   4.390 -0.5117 -1.7012 -0.5200
  405MOL0     H54652  13.423   5.068   4.279  1.9753 -0.2805  0.3439
  405MOL0     H54653  13.368   4.793   4.177  1.2783 -0.0987  0.7931
  405MOL0     H54654  13.436   4.926   4.083  1.7106  1.7813  0.5936
  405MOL0     H54655  12.539   4.796   3.908  0.7397  0.3074  0.4468
  405MOL0     H54656  12.502   4.785   3.682  0.2527  1.0916 -1.3395
  405MOL0     H54657  12.730   4.894   3.225  0.6530  0.2921  0.3028
  405MOL0     H54658  12.667   4.854   2.997 -1.6074 -1.2172 -0.6850
  405MOL0     H54659  10.859   4.910   3.136 -1.8676  1.2418  0.7615
  405MOL0     H54660  10.638   4.940   3.247 -0.0621  0.7497  1.2560
  405MOL0     H54661  10.416   4.841   3.607 -0.4213  0.6435  1.0062
  405MOL0     H54662  10.246   4.872   3.786  1.4600 -0.8553  0.6966
  405MOL0     H54663  10.008   4.948   3.878  1.2294  0.2505  1.0020
  405MOL0     H54664  10.091   4.799   3.925 -0.6884 -0.2971  1.0438
  405MOL0     H54665   9.784   4.814   3.932 -0.7674  2.3896  1.0109
  405MOL0     H54666   9.893   4.841   4.069  1.6508  2.9108 -2.3332
  405MOL0     H54667  10.000   4.617   4.053  0.0488 -2.0705  1.8086
  405MOL0     H54668   9.890   4.582   3.929  1.0310 -1.5159  1.2001
  405MOL0     H54669   9.830   4.651   4.219 -0.6267 -1.3980  0.1629
  405MOL0     H54670   9.699   4.652   4.097 -0.4140 -0.7631 -1.0044
  405MOL0     H54671   9.804   4.247   4.168  4.1070  0.5801 -1.9553
  405MOL0     H54672   9.959   4.689   3.543  0.5177  0.4944 -1.3537
  405MOL0     H54673  10.143   4.597   3.257  0.4345 -0.9282  0.1690
  405MOL0     H54674   9.978   4.657   3.311 -1.0145 -0.3183 -1.4302
  405MOL0     H54675  10.081   4.757   3.229  3.5273  0.1750 -0.5926
  406MOL0     O54676   1.669   4.549  10.271 -1.1399 -1.1170  0.2374
  406MOL0     C54677   1.590   4.637  10.238  0.3145  0.3119 -0.7356
  406MOL0     O54678   1.619   4.769  10.229 -0.1832 -0.2394 -0.0253
  406MOL0     C54679   1.745   4.820  10.270 -0.0064 -0.6250  0.9840
  406MOL0     C54680   1.799   4.914  10.179  0.7264  0.2591  0.1297
  406MOL0     C54681   1.915   4.986  10.212 -0.1629  0.7207  1.0773
  406MOL0     C54682   1.998   4.945  10.317 -0.4475  0.5441 -0.0741
  406MOL0     O54683   2.122   5.012  10.329 -0.4533 -0.2673 -0.1625
  406MOL0     C54684   2.215   4.977  10.440 -0.1435  0.0675 -0.0900
  406MOL0     C54685   2.332   5.071  10.439  0.0922 -0.2783 -0.2217
  406MOL0     C54686   2.446   5.012  10.529  0.3972  0.6703  0.2588
  406MOL0     C54687   2.578   5.092  10.513  0.3786  0.2097 -0.2862
  406MOL0     C54688   2.680   5.022  10.606  0.6464  0.1561 -0.8860
  406MOL0     C54689   2.816   5.090  10.590 -0.3845  0.0942  0.3732
  406MOL0     C54690   2.937   5.015  10.646 -0.2391 -0.7743  0.0506
  406MOL0     C54691   2.948   5.013  10.801  0.8411 -0.1135  0.4284
  406MOL0     N54692   3.080   4.990  10.850  0.2661  0.7926  0.0426
  406MOL0     C54693   3.199   5.046  10.803  0.2588 -0.0441 -0.5999
  406MOL0     C54694   3.293   4.976  10.871  0.3309 -0.0503  0.6062
  406MOL0     C54695   3.442   4.990  10.852 -0.2445 -0.6161  0.2663
  406MOL0     C54696   3.481   4.914  10.717 -0.0710  0.6718  0.4346
  406MOL0     C54697   3.401   4.795  10.684 -0.9685  0.9832  0.4477
  406MOL0     C54698   3.481   4.710  10.583  0.8380 -0.9868 -1.2785
  406MOL0     O54699   3.512   4.792  10.471  0.2322  0.6698  0.7546
  406MOL0     C54700   3.611   4.746  10.382 -0.2806  0.3684 -0.0101
  406MOL0     C54701   3.593   4.621  10.332  0.0422  0.4135  0.8235
  406MOL0     C54702   3.695   4.560  10.253 -0.1786  0.0808 -0.4858
  406MOL0     C54703   3.811   4.630  10.220 -0.2105  0.0981 -0.7997
  406MOL0     C54704   3.928   4.568  10.146  0.9805 -0.0730  0.2781
  406MOL0     O54705   4.046   4.641  10.128 -0.1368  0.5899  0.1681
  406MOL0     C54706   4.155   4.608  10.050  0.3443 -0.0988 -0.5405
  406MOL0     C54707   4.149   4.531   9.934  0.0828  0.4619  0.3735
  406MOL0     C54708   4.271   4.487   9.874  0.2124 -0.3130  0.7157
  406MOL0     C54709   4.391   4.537   9.916 -0.4870 -0.5052 -0.5515
  406MOL0     O54710   4.513   4.489   9.864  0.1285 -0.1075 -0.5218
  406MOL0     C54711   4.529   4.510   9.725  0.0675 -0.3971 -0.1761
  406MOL0     C54712   4.557   4.652   9.695 -0.5780  0.1958  0.1634
  406MOL0     C54713   4.691   4.699   9.750 -0.0520 -0.1634 -0.0837
  406MOL0     C54714   4.721   4.838   9.692  0.7917 -0.2622  0.1725
  406MOL0     C54715   4.865   4.868   9.697 -0.0363  0.0665 -0.0221
  406MOL0     C54716   4.893   5.012   9.652  0.0048 -0.0799 -0.0675
  406MOL0     C54717   5.045   5.045   9.656 -0.3706  1.0639 -0.3075
  406MOL0     C54718   5.084   5.185   9.695  0.4143  0.3176 -0.2194
  406MOL0    Cl54719   5.054   5.212   9.871  0.1552 -0.2600  0.1072
  406MOL0     C54720   4.393   4.634  10.019  0.2082 -0.0696 -0.0375
  406MOL0     C54721   4.277   4.672  10.087 -0.6620  0.2801 -0.0374
  406MOL0     O54722   3.911   4.452  10.107  0.2535 -0.1428 -0.0964
  406MOL0     C54723   3.822   4.768  10.265 -0.4534 -0.3505 -0.3946
  406MOL0     C54724   3.720   4.826  10.344 -0.0963  0.4313  0.0772
  406MOL0     N54725   3.237   4.882  10.955  0.3961  0.4079  0.0998
  406MOL0     N54726   3.109   4.883  10.929 -0.3550  0.6123  0.8930
  406MOL0     C54727   1.954   4.839  10.398  0.4573  0.7358  0.9358
  406MOL0     C54728   1.818   4.787  10.377 -0.3544 -0.5778 -1.2196
  406MOL0     C54729   1.458   4.595  10.189  0.0419 -0.1696  0.0976
  406MOL0     C54730   1.405   4.667  10.078 -0.0365 -0.5828 -0.5619
  406MOL0     C54731   1.291   4.632  10.012 -0.5463 -0.1663  0.1904
  406MOL0     C54732   1.223   4.520  10.055 -0.0698  0.6805 -0.2548
  406MOL0     O54733   1.102   4.482   9.994  0.5826  0.8642  0.2975
  406MOL0     C54734   1.008   4.395  10.062 -0.7731  0.1877 -0.2427
  406MOL0     C54735   0.870   4.399   9.990  0.6661 -0.9494  0.2928
  406MOL0     C54736   0.762   4.302  10.041 -0.2317  1.0982  0.1895
  406MOL0     C54737   0.653   4.362  10.120 -0.3090 -0.0067  0.5756
  406MOL0     C54738   0.700   4.399  10.262 -0.1858  0.2228  0.4918
  406MOL0     C54739   0.740   4.417  10.380  0.5681 -0.0303  0.1797
  406MOL0     C54740   1.269   4.440  10.172 -1.5489 -0.2851  0.2666
  406MOL0     C54741   1.388   4.481  10.235 -0.8747  0.1466 -0.6383
  406MOL0     C54742   1.433   4.398  10.350 -0.9459 -0.5129 -0.1427
  406MOL0     H54743   1.746   4.921  10.084 -0.6033 -1.8353  0.6399
  406MOL0     H54744   1.947   5.066  10.145  1.7795  0.4903  1.6757
  406MOL0     H54745   2.175   4.977  10.541 -1.9197  0.6041 -0.7625
  406MOL0     H54746   2.242   4.872  10.422 -0.5089 -0.0748  0.1634
  406MOL0     H54747   2.297   5.166  10.480 -1.8904 -1.5157  1.1594
  406MOL0     H54748   2.374   5.079  10.338  2.6216 -2.5802  0.5203
  406MOL0     H54749   2.465   4.909  10.497 -3.8968 -0.1852 -0.0749
  406MOL0     H54750   2.412   5.034  10.631  1.6584  1.7907  0.4656
  406MOL0     H54751   2.611   5.100  10.409 -1.4555 -0.4969 -0.9576
  406MOL0     H54752   2.570   5.195  10.551  3.4321  0.3196  0.3269
  406MOL0     H54753   2.654   5.029  10.712  1.2274 -1.1139 -0.6356
  406MOL0     H54754   2.688   4.914  10.588 -0.7223 -0.3456  1.1852
  406MOL0     H54755   2.846   5.115  10.488  3.2863  0.8349  1.4955
  406MOL0     H54756   2.804   5.182  10.649 -1.8440 -0.4884  1.0512
  406MOL0     H54757   3.022   5.078  10.620 -1.3659  0.5136 -0.6280
  406MOL0     H54758   2.944   4.919  10.593  0.6686  1.1398 -3.6293
  406MOL0     H54759   2.921   5.114  10.833 -1.0042  1.1697 -4.2858
  406MOL0     H54760   2.875   4.938  10.834  1.0804  0.3916  2.1969
  406MOL0     H54761   3.219   5.125  10.731  0.2047 -2.2411 -3.2101
  406MOL0     H54762   3.476   5.094  10.860  0.9258 -0.9407 -0.2276
  406MOL0     H54763   3.498   4.938  10.931  0.4457 -1.9013 -1.0131
  406MOL0     H54764   3.488   4.981  10.631 -3.4479  0.9684  0.2521
  406MOL0     H54765   3.582   4.889  10.751  0.9726  3.5574 -0.2997
  406MOL0     H54766   3.299   4.813  10.647 -1.3861  0.8908  1.5316
  406MOL0     H54767   3.392   4.730  10.772  0.4389 -1.5707 -1.1730
  406MOL0     H54768   3.421   4.625  10.547 -1.0606  0.7649 -2.4593
  406MOL0     H54769   3.570   4.666  10.629  0.6787  0.5120  0.5783
  406MOL0     H54770   3.509   4.554  10.348  0.4642 -2.0205 -4.8542
  406MOL0     H54771   3.690   4.457  10.221 -1.8990 -0.2984  0.8025
  406MOL0     H54772   4.055   4.488   9.899 -0.3425  1.5718  0.1105
  406MOL0     H54773   4.271   4.416   9.791  2.4827 -0.1229  0.4670
  406MOL0     H54774   4.612   4.452   9.683 -0.1754 -0.1849 -0.9500
  406MOL0     H54775   4.450   4.468   9.663 -0.0555  0.7538 -0.8091
  406MOL0     H54776   4.557   4.670   9.587  2.0929  2.5682  0.4456
  406MOL0     H54777   4.477   4.716   9.735 -0.3127  1.2393 -0.9156
  406MOL0     H54778   4.694   4.704   9.859  2.1584  3.2008 -0.1418
  406MOL0     H54779   4.769   4.631   9.714 -1.2832 -1.4208 -0.4691
  406MOL0     H54780   4.660   4.910   9.747  0.4587 -1.3862  1.3289
  406MOL0     H54781   4.690   4.832   9.587 -2.5727 -0.2934  1.0636
  406MOL0     H54782   4.914   4.796   9.631 -1.0427 -0.6976  0.0439
  406MOL0     H54783   4.899   4.840   9.798 -0.2499 -1.5959 -0.3818
  406MOL0     H54784   4.858   5.028   9.550  0.4087 -0.9713 -0.3568
  406MOL0     H54785   4.838   5.071   9.726 -1.8791 -1.6689 -0.1199
  406MOL0     H54786   5.093   5.020   9.561 -1.6585 -1.7085 -0.3277
  406MOL0     H54787   5.087   4.974   9.729  0.1309 -0.0229 -1.5956
  406MOL0     H54788   5.193   5.184   9.685  0.6808 -0.9066  2.0567
  406MOL0     H54789   5.049   5.268   9.633  0.1579  1.4720  1.3942
  406MOL0     H54790   4.487   4.666  10.063  0.7536 -0.2480 -1.0426
  406MOL0     H54791   4.284   4.748  10.165 -1.8534  1.0765 -0.6796
  406MOL0     H54792   3.901   4.832  10.227 -0.6363  1.2934  1.7537
  406MOL0     H54793   3.737   4.923  10.388  2.4498 -0.1726  0.5800
  406MOL0     H54794   1.998   4.807  10.492 -0.1531 -0.2719  0.8962
  406MOL0     H54795   1.776   4.707  10.438  1.2259 -1.6687 -1.5104
  406MOL0     H54796   1.464   4.749  10.038 -0.9484  0.6048  0.4414
  406MOL0     H54797   1.253   4.693   9.931 -1.5075 -0.9052  0.0690
  406MOL0     H54798   0.989   4.418  10.167 -2.2999  1.5324 -0.7663
  406MOL0     H54799   1.048   4.293  10.067 -2.4539 -0.4614  0.8569
  406MOL0     H54800   0.883   4.377   9.884  0.6241 -3.2727  0.7176
  406MOL0     H54801   0.837   4.503   9.985 -0.5382 -1.3068  0.5325
  406MOL0     H54802   0.817   4.222  10.093  0.4133  0.1453 -1.8094
  406MOL0     H54803   0.716   4.253   9.954  0.0486 -0.3169  0.8138
  406MOL0     H54804   0.630   4.458  10.072  0.2504 -1.1781 -2.2055
  406MOL0     H54805   0.563   4.301  10.132  1.3108 -3.0045 -1.4834
  406MOL0     H54806   0.751   4.455  10.479 -0.4965  0.2092  0.2193
  406MOL0     H54807   1.223   4.350  10.212 -1.1086 -1.1704 -1.1336
  406MOL0     H54808   1.488   4.454  10.427 -1.0442 -0.4763 -0.0985
  406MOL0     H54809   1.348   4.357  10.405 -0.7120 -1.7588 -0.6708
  406MOL0     H54810   1.499   4.320  10.312  0.7103  1.6954 -2.0607
  407MOL0     O54811   5.544   3.599   7.390 -0.0143  0.2844  0.7324
  407MOL0     C54812   5.491   3.645   7.487 -0.4393  1.1969  0.2580
  407MOL0     O54813   5.543   3.744   7.563 -0.1895  0.7916  0.4494
  407MOL0     C54814   5.670   3.740   7.576 -0.6889 -0.0031 -0.0187
  407MOL0     C54815   5.722   3.711   7.704 -0.4584  0.7609 -0.5704
  407MOL0     C54816   5.860   3.714   7.737  0.5626 -0.3416  0.5422
  407MOL0     C54817   5.953   3.731   7.633  0.5258 -0.2560 -0.4085
  407MOL0     O54818   6.083   3.733   7.672  0.5543  0.2052 -0.9841
  407MOL0     C54819   6.177   3.813   7.608 -0.6736 -0.2158  0.2378
  407MOL0     C54820   6.315   3.780   7.657 -0.4221  0.1998 -0.1280
  407MOL0     C54821   6.417   3.870   7.590 -0.5811  0.5243  0.8017
  407MOL0     C54822   6.549   3.883   7.663 -0.0529  0.3941  0.3217
  407MOL0     C54823   6.658   3.979   7.606 -0.5698  0.8290 -0.4685
  407MOL0     C54824   6.798   3.936   7.643 -1.2578 -0.5410  0.2980
  407MOL0     C54825   6.840   3.996   7.776 -0.2528  0.3107 -0.6883
  407MOL0     C54826   6.943   3.907   7.861  0.7166 -0.5675  0.2160
  407MOL0     N54827   7.080   3.884   7.802 -0.2156 -0.3686 -0.5077
  407MOL0     C54828   7.121   3.775   7.727  0.2101 -0.3837 -0.4742
  407MOL0     C54829   7.250   3.801   7.691  0.3743  0.2121  0.7998
  407MOL0     C54830   7.353   3.701   7.623  0.2591 -0.1101 -0.7657
  407MOL0     C54831   7.465   3.664   7.726  0.4761  0.8062  0.6513
  407MOL0     C54832   7.556   3.565   7.657 -0.1036  0.3686 -0.2032
  407MOL0     C54833   7.643   3.479   7.762  0.5788 -0.7510 -0.0071
  407MOL0     O54834   7.703   3.367   7.692  0.9543 -0.5183  0.4989
  407MOL0     C54835   7.838   3.376   7.656 -0.0117 -1.4419  0.5327
  407MOL0     C54836   7.907   3.258   7.650 -0.0043  0.9664  0.0287
  407MOL0     C54837   8.041   3.259   7.615  0.0066  0.7134 -0.6095
  407MOL0     C54838   8.111   3.385   7.596  0.3188  0.5238 -0.2323
  407MOL0     C54839   8.260   3.396   7.578 -0.0457  0.1092 -0.1068
  407MOL0     O54840   8.319   3.514   7.607  0.4331 -0.2630 -0.4008
  407MOL0     C54841   8.456   3.510   7.606  0.4558  0.3373 -1.1250
  407MOL0     C54842   8.529   3.588   7.508 -0.4245  0.4378  0.3499
  407MOL0     C54843   8.663   3.589   7.508 -0.5227  0.7285  0.9175
  407MOL0     C54844   8.737   3.505   7.600  0.9269 -0.1913 -0.3867
  407MOL0     O54845   8.873   3.525   7.594 -0.5798 -0.1571  1.3487
  407MOL0     C54846   8.966   3.453   7.677 -0.6467  0.3065  0.1633
  407MOL0     C54847   9.118   3.488   7.662 -0.4154 -0.4580 -0.2995
  407MOL0     C54848   9.158   3.483   7.512 -0.1158 -0.2417 -0.0939
  407MOL0     C54849   9.303   3.518   7.496  0.7478 -0.1666  0.2488
  407MOL0     C54850   9.344   3.527   7.346 -0.7542 -0.0961 -0.8629
  407MOL0     C54851   9.487   3.575   7.325 -0.1641 -0.6740 -0.7163
  407MOL0     C54852   9.521   3.610   7.184  0.1838 -0.0780 -0.7727
  407MOL0     C54853   9.550   3.484   7.103 -0.0831  0.6836 -0.1098
  407MOL0    Cl54854   9.681   3.529   7.000  0.3625 -0.4795 -0.0527
  407MOL0     C54855   8.666   3.431   7.695  0.1009  0.4518  0.0113
  407MOL0     C54856   8.527   3.432   7.704  0.2107 -0.0707 -0.5912
  407MOL0     O54857   8.318   3.298   7.529 -0.2814 -0.1143  0.1171
  407MOL0     C54858   8.038   3.499   7.610 -0.4931 -0.9552  0.0755
  407MOL0     C54859   7.904   3.497   7.631  0.9789 -0.5647 -0.1776
  407MOL0     N54860   7.289   3.928   7.742 -0.1742  0.5585  0.4788
  407MOL0     N54861   7.184   3.975   7.815  1.0960 -0.0970  0.7322
  407MOL0     C54862   5.902   3.749   7.506  0.3202  0.1744 -0.4717
  407MOL0     C54863   5.769   3.767   7.482  0.2369  0.0641 -0.8123
  407MOL0     C54864   5.354   3.589   7.509 -0.2003 -0.8731  0.4271
  407MOL0     C54865   5.302   3.492   7.419  0.1122 -0.7973  0.5064
  407MOL0     C54866   5.174   3.448   7.432 -0.0072 -0.3048 -0.1484
  407MOL0     C54867   5.090   3.487   7.532 -0.2152  0.4441 -0.5672
  407MOL0     O54868   4.965   3.434   7.555 -0.4145  0.7123  0.2724
  407MOL0     C54869   4.873   3.402   7.451  0.6802 -0.0170  0.5318
  407MOL0     C54870   4.826   3.501   7.345  0.3338 -1.3090  0.6037
  407MOL0     C54871   4.790   3.434   7.212  1.0043 -0.3249  0.0412
  407MOL0     C54872   4.915   3.403   7.128 -0.7418  0.7810 -0.5992
  407MOL0     C54873   4.979   3.531   7.094 -0.5599 -0.9076  0.0529
  407MOL0     C54874   5.016   3.645   7.055 -0.3568  0.4253  0.1054
  407MOL0     C54875   5.139   3.587   7.619 -0.3884  0.2882 -0.0567
  407MOL0     C54876   5.269   3.637   7.612  0.1584  0.0861 -0.1279
  407MOL0     C54877   5.311   3.727   7.720  0.8768 -0.8479 -0.1567
  407MOL0     H54878   5.658   3.694   7.790  1.2580  0.9698  0.8167
  407MOL0     H54879   5.896   3.712   7.839 -0.5092  1.6774  1.0271
  407MOL0     H54880   6.172   3.789   7.501 -2.0650  1.6087 -0.1529
  407MOL0     H54881   6.165   3.922   7.610  0.4182  0.2601 -5.1040
  407MOL0     H54882   6.338   3.677   7.629  0.3777 -0.2481  2.0082
  407MOL0     H54883   6.318   3.783   7.766 -1.0858 -0.4620 -0.0796
  407MOL0     H54884   6.382   3.973   7.580  3.1773  1.7539 -1.4704
  407MOL0     H54885   6.434   3.843   7.486 -0.8657 -2.2128  1.3666
  407MOL0     H54886   6.527   3.926   7.761  0.1139 -0.7945  0.8905
  407MOL0     H54887   6.603   3.788   7.661  2.3240  1.6730 -0.3741
  407MOL0     H54888   6.654   3.963   7.498  0.6581 -0.0813 -0.4047
  407MOL0     H54889   6.627   4.081   7.629 -0.1181  1.3547 -2.0482
  407MOL0     H54890   6.804   3.828   7.660  1.3188 -0.5715 -0.4611
  407MOL0     H54891   6.869   3.959   7.564 -2.1918 -0.6004 -0.5844
  407MOL0     H54892   6.754   4.007   7.842 -0.2562 -0.6124 -0.5135
  407MOL0     H54893   6.894   4.091   7.772  0.4297 -0.0629 -0.5234
  407MOL0     H54894   6.960   3.954   7.958  6.1054  1.0285 -1.1484
  407MOL0     H54895   6.884   3.817   7.877 -1.9638  0.3417 -3.1525
  407MOL0     H54896   7.057   3.692   7.701 -3.2350  1.6585  0.7942
  407MOL0     H54897   7.298   3.612   7.588 -2.7423  1.6236 -0.7875
  407MOL0     H54898   7.389   3.750   7.533  0.6327 -1.7963 -1.5853
  407MOL0     H54899   7.515   3.760   7.741 -3.9015  3.6485 -1.1549
  407MOL0     H54900   7.416   3.626   7.817  1.1714  0.1245  0.7583
  407MOL0     H54901   7.626   3.627   7.599  0.3935  1.9103  1.9467
  407MOL0     H54902   7.497   3.502   7.589  1.2598 -0.2376 -0.8786
  407MOL0     H54903   7.576   3.445   7.842 -0.9253  2.3503  0.2019
  407MOL0     H54904   7.719   3.546   7.802  1.7928  0.0450 -3.3408
  407MOL0     H54905   7.861   3.161   7.665 -1.3482  1.6195  0.2624
  407MOL0     H54906   8.094   3.166   7.626 -1.0962  0.0039 -1.1420
  407MOL0     H54907   8.477   3.658   7.444 -0.4927  0.3993  0.3625
  407MOL0     H54908   8.716   3.629   7.423  1.1694 -2.3468  0.3667
  407MOL0     H54909   8.944   3.470   7.783  2.8127 -1.9866  1.4539
  407MOL0     H54910   8.951   3.349   7.647 -0.9478  0.9548 -2.0915
  407MOL0     H54911   9.135   3.589   7.700 -1.2038 -0.4113 -0.0614
  407MOL0     H54912   9.171   3.418   7.726 -1.2382  0.7427  1.7824
  407MOL0     H54913   9.137   3.385   7.468 -2.3402  0.8290 -1.6209
  407MOL0     H54914   9.097   3.561   7.467  2.0054  0.3522 -2.1099
  407MOL0     H54915   9.364   3.445   7.550 -1.1231 -1.6767  0.4560
  407MOL0     H54916   9.313   3.619   7.536  0.5332  0.8565 -2.1471
  407MOL0     H54917   9.280   3.607   7.305 -0.0407  0.6792 -0.5000
  407MOL0     H54918   9.326   3.435   7.291  0.7289 -0.2071 -1.1849
  407MOL0     H54919   9.511   3.665   7.382 -0.9631 -0.9425  0.0675
  407MOL0     H54920   9.552   3.499   7.370 -1.4361 -1.5003 -0.2099
  407MOL0     H54921   9.601   3.685   7.187  0.8172 -0.7244 -1.0668
  407MOL0     H54922   9.434   3.658   7.138  0.9070  1.0371 -1.0225
  407MOL0     H54923   9.579   3.402   7.169 -1.8733  1.2014  1.3976
  407MOL0     H54924   9.467   3.451   7.041 -0.2781  0.2925  0.3515
  407MOL0     H54925   8.730   3.364   7.752  1.6721 -0.8887 -3.0665
  407MOL0     H54926   8.481   3.375   7.784  1.4688 -0.2137  0.0474
  407MOL0     H54927   8.091   3.594   7.612  0.7628 -1.6044 -0.9736
  407MOL0     H54928   7.854   3.593   7.624  1.2424 -0.4400 -0.3657
  407MOL0     H54929   5.965   3.775   7.421 -0.6017  0.6513 -1.0310
  407MOL0     H54930   5.741   3.797   7.381 -1.7413  0.5184 -0.1786
  407MOL0     H54931   5.363   3.446   7.342  1.9982 -0.7868  1.9197
  407MOL0     H54932   5.134   3.368   7.370 -1.1490 -0.3456  0.6226
  407MOL0     H54933   4.782   3.382   7.508 -0.9785  1.1433 -1.5761
  407MOL0     H54934   4.885   3.307   7.397 -0.3066  0.1441  0.0045
  407MOL0     H54935   4.903   3.578   7.333 -0.3115 -0.9457 -1.4324
  407MOL0     H54936   4.730   3.547   7.373  0.6515  0.0409 -0.4130
  407MOL0     H54937   4.726   3.505   7.159 -0.3641 -2.8659 -1.9661
  407MOL0     H54938   4.740   3.338   7.227 -1.8808  0.9624 -0.7388
  407MOL0     H54939   4.976   3.331   7.183 -0.7839 -0.1485 -1.7319
  407MOL0     H54940   4.891   3.345   7.038  2.3238 -2.4882  0.4476
  407MOL0     H54941   5.043   3.746   7.033 -0.8826  0.2113 -1.6631
  407MOL0     H54942   5.081   3.634   7.698  0.2475  0.8185  0.1002
  407MOL0     H54943   5.334   3.828   7.684  0.4493  0.0305  1.8823
  407MOL0     H54944   5.239   3.754   7.798 -0.1227 -0.4565 -1.1801
  407MOL0     H54945   5.409   3.699   7.761 -0.0843 -2.0646  1.4018
  408MOL0     O54946   4.975   0.874   0.625 -0.0433 -0.6126  0.1150
  408MOL0     C54947   4.909   0.969   0.658 -0.0122  0.0951  0.7003
  408MOL0     O54948   4.963   1.079   0.715  1.3027 -0.2593  0.5141
  408MOL0     C54949   5.079   1.065   0.782 -0.4755  0.2312 -0.7437
  408MOL0     C54950   5.206   1.010   0.745  0.4268 -0.1318 -0.7613
  408MOL0     C54951   5.314   1.031   0.828 -0.4546 -0.2789  1.1539
  408MOL0     C54952   5.304   1.089   0.956  0.0795  0.2603  0.0123
  408MOL0     O54953   5.400   1.128   1.046 -0.6690  0.5135  0.1960
  408MOL0     C54954   5.536   1.107   1.014  0.4396  0.2907  0.9169
  408MOL0     C54955   5.609   1.143   1.147 -0.2033  0.1169 -0.0506
  408MOL0     C54956   5.584   1.291   1.190 -0.1144  0.6332 -0.3437
  408MOL0     C54957   5.633   1.394   1.092 -1.4671  0.3768  0.1263
  408MOL0     C54958   5.647   1.535   1.160 -0.0039  0.4045  0.5954
  408MOL0     C54959   5.514   1.605   1.187 -0.8626  1.2888 -0.6036
  408MOL0     C54960   5.524   1.754   1.219  0.3043  0.8633 -0.7736
  408MOL0     C54961   5.608   1.794   1.337  0.2875 -0.1166 -0.2470
  408MOL0     N54962   5.552   1.745   1.458 -0.1228  1.4903 -0.0159
  408MOL0     C54963   5.620   1.699   1.571 -0.4225  0.3449 -0.1396
  408MOL0     C54964   5.535   1.722   1.678 -0.8807  0.6692 -0.6919
  408MOL0     C54965   5.563   1.678   1.824  0.1521 -0.4653  0.3998
  408MOL0     C54966   5.682   1.763   1.866  0.1801  0.5702 -0.8008
  408MOL0     C54967   5.737   1.718   1.999 -0.9125 -0.2964 -0.0118
  408MOL0     C54968   5.844   1.807   2.046  1.0853 -0.3304 -0.3346
  408MOL0     O54969   5.920   1.744   2.150 -0.2741  0.3068 -0.2061
  408MOL0     C54970   6.001   1.823   2.230 -0.0774  0.5438  0.3421
  408MOL0     C54971   6.060   1.769   2.340 -0.1945 -0.2298  0.6284
  408MOL0     C54972   6.151   1.845   2.410 -0.2432  0.3282  0.4063
  408MOL0     C54973   6.199   1.969   2.379 -0.7085 -0.6449  0.1243
  408MOL0     C54974   6.295   2.038   2.461 -0.4350  0.0582  0.1435
  408MOL0     O54975   6.346   1.962   2.565  0.0689  0.1858  0.2640
  408MOL0     C54976   6.450   2.003   2.647  0.7067 -0.4163  0.4062
  408MOL0     C54977   6.449   1.987   2.784 -0.5015 -0.4613 -0.9694
  408MOL0     C54978   6.556   2.027   2.863 -0.1698  0.0496  0.0339
  408MOL0     C54979   6.670   2.073   2.806  0.0274  0.3967 -0.2566
  408MOL0     O54980   6.776   2.118   2.876  0.3099  0.5064 -0.0029
  408MOL0     C54981   6.775   2.123   3.025  0.1868  1.2603 -0.0664
  408MOL0     C54982   6.694   2.238   3.066  0.4274 -0.7814 -0.8859
  408MOL0     C54983   6.718   2.250   3.212  0.3388  0.7982  0.7545
  408MOL0     C54984   6.607   2.325   3.279  0.1271  0.5418 -0.0721
  408MOL0     C54985   6.473   2.248   3.290  0.3795  0.5087 -0.0929
  408MOL0     C54986   6.385   2.312   3.406 -1.1357 -0.4131  0.0681
  408MOL0     C54987   6.246   2.242   3.412 -1.1940 -0.0302  0.3136
  408MOL0     C54988   6.168   2.318   3.519  1.0481  1.2231 -0.7944
  408MOL0    Cl54989   6.016   2.222   3.531 -0.1903 -0.4869  0.0602
  408MOL0     C54990   6.669   2.094   2.671 -0.0420  0.5408  0.2643
  408MOL0     C54991   6.566   2.056   2.583 -0.1784 -0.1532 -0.1397
  408MOL0     O54992   6.312   2.158   2.439  0.0644  0.5587 -0.8633
  408MOL0     C54993   6.133   2.028   2.267  0.3338 -0.1045 -0.3107
  408MOL0     C54994   6.035   1.950   2.192 -0.2653 -1.1330 -0.5593
  408MOL0     N54995   5.411   1.758   1.624  0.8075  0.4122 -0.0461
  408MOL0     N54996   5.423   1.766   1.495  0.0372  0.9927 -0.2479
  408MOL0     C54997   5.178   1.132   0.996 -0.3400  0.8674 -0.7358
  408MOL0     C54998   5.070   1.120   0.914  0.7335 -0.2500 -0.1373
  408MOL0     C54999   4.763   0.987   0.623 -0.2428  0.4916 -0.0410
  408MOL0     C55000   4.694   1.075   0.703  0.0162 -0.4707  1.1200
  408MOL0     C55001   4.553   1.087   0.692 -0.2060  0.0502  0.0739
  408MOL0     C55002   4.484   1.010   0.596  0.0416  0.2327 -0.1179
  408MOL0     O55003   4.345   1.011   0.573 -0.2014  0.9053  0.4792
  408MOL0     C55004   4.264   1.100   0.660  0.2346  0.0225 -0.0973
  408MOL0     C55005   4.119   1.090   0.609  0.0848 -0.5166  0.2629
  408MOL0     C55006   4.084   1.128   0.462  0.4849 -0.5760  0.2899
  408MOL0     C55007   4.090   1.009   0.366  0.0433 -0.0292 -0.3759
  408MOL0     C55008   4.061   1.053   0.225 -0.7334  0.4014 -0.0687
  408MOL0     C55009   4.046   1.086   0.108 -0.8738 -0.0350 -0.7399
  408MOL0     C55010   4.550   0.922   0.510 -0.0002  0.0428 -0.5399
  408MOL0     C55011   4.689   0.906   0.526  0.3624  0.6158  0.7233
  408MOL0     C55012   4.759   0.813   0.436  0.4850 -0.3029  0.0525
  408MOL0     H55013   5.218   0.969   0.645  4.7982  0.5266 -0.6834
  408MOL0     H55014   5.405   0.987   0.788 -1.7480 -2.6455  0.6168
  408MOL0     H55015   5.572   1.006   0.993  2.3393  1.3837 -1.6497
  408MOL0     H55016   5.583   1.178   0.945 -1.2181  2.5410  1.9807
  408MOL0     H55017   5.715   1.118   1.133 -0.1035 -0.4064  1.4769
  408MOL0     H55018   5.582   1.081   1.233  2.1946 -2.2332 -0.8190
  408MOL0     H55019   5.634   1.317   1.285 -2.6027 -1.0248  1.5410
  408MOL0     H55020   5.479   1.303   1.215  0.2270  0.8736  1.1019
  408MOL0     H55021   5.728   1.356   1.055 -0.5874 -1.4936  3.8310
  408MOL0     H55022   5.564   1.401   1.007 -1.0026 -0.5666 -0.3458
  408MOL0     H55023   5.703   1.530   1.254 -2.1120 -1.9929  1.8327
  408MOL0     H55024   5.705   1.595   1.089 -0.0602 -0.3406 -0.0880
  408MOL0     H55025   5.455   1.587   1.097  1.2014  2.0682 -2.1808
  408MOL0     H55026   5.462   1.551   1.267 -3.7833 -1.0445 -3.7338
  408MOL0     H55027   5.423   1.796   1.225 -0.5165 -1.0264 -0.7631
  408MOL0     H55028   5.574   1.804   1.135  0.7718  0.0166 -1.0058
  408MOL0     H55029   5.708   1.752   1.323 -0.1687 -1.0648 -0.7684
  408MOL0     H55030   5.616   1.902   1.348  1.3184 -0.4634  4.1095
  408MOL0     H55031   5.718   1.653   1.570 -0.0313  0.8493  3.3864
  408MOL0     H55032   5.469   1.690   1.878 -0.2387  1.5907 -0.6227
  408MOL0     H55033   5.588   1.572   1.834 -0.1245 -0.9885 -3.0538
  408MOL0     H55034   5.760   1.762   1.788  0.6253  1.2874 -0.3741
  408MOL0     H55035   5.654   1.868   1.859 -0.6552  0.2445 -3.7195
  408MOL0     H55036   5.791   1.623   1.987 -1.8786 -0.6655 -1.6640
  408MOL0     H55037   5.666   1.707   2.082  1.8457 -0.8516  2.4709
  408MOL0     H55038   5.811   1.905   2.082  2.2843 -0.4620  1.2097
  408MOL0     H55039   5.920   1.826   1.970  1.2072  3.1814  0.4839
  408MOL0     H55040   6.033   1.667   2.365 -1.5576 -0.3293 -1.1314
  408MOL0     H55041   6.189   1.788   2.494  0.5754  2.2744  1.4214
  408MOL0     H55042   6.357   1.954   2.831 -0.6370  3.3698  2.0027
  408MOL0     H55043   6.541   2.020   2.970 -1.1344 -0.9774 -0.1424
  408MOL0     H55044   6.748   2.029   3.072  0.4166  1.4034  0.3626
  408MOL0     H55045   6.876   2.146   3.063  0.5293  1.3031 -0.9719
  408MOL0     H55046   6.738   2.325   3.015 -0.4405  0.4818  0.4319
  408MOL0     H55047   6.586   2.241   3.049 -0.2685  1.2103  2.7528
  408MOL0     H55048   6.721   2.151   3.258 -2.2989 -0.1962 -1.0033
  408MOL0     H55049   6.813   2.292   3.246  0.7592  0.4263  0.0803
  408MOL0     H55050   6.581   2.425   3.243  2.2340  0.1945 -2.8695
  408MOL0     H55051   6.648   2.334   3.380 -0.7752 -0.9577  0.4609
  408MOL0     H55052   6.491   2.142   3.310  2.7781  0.8413 -0.1576
  408MOL0     H55053   6.421   2.256   3.194  0.1282 -2.7574 -0.3258
  408MOL0     H55054   6.436   2.302   3.502 -4.5691  0.2003  2.1123
  408MOL0     H55055   6.372   2.420   3.396 -0.6797 -0.5644 -4.2635
  408MOL0     H55056   6.255   2.139   3.447 -0.6025 -0.0945 -0.0220
  408MOL0     H55057   6.198   2.250   3.314 -2.3827  0.0110  0.8815
  408MOL0     H55058   6.227   2.315   3.612 -2.5745  0.1966  1.6814
  408MOL0     H55059   6.138   2.416   3.482 -1.7977 -0.0765 -2.2132
  408MOL0     H55060   6.758   2.137   2.626  0.3832 -1.0404 -0.5164
  408MOL0     H55061   6.582   2.090   2.481  0.5102  1.4067  0.4599
  408MOL0     H55062   6.152   2.128   2.231  1.4520 -0.2235 -0.0722
  408MOL0     H55063   6.007   1.993   2.097  1.2928  0.7577 -0.2244
  408MOL0     H55064   5.175   1.186   1.090 -0.3148  0.2695 -0.3906
  408MOL0     H55065   4.977   1.170   0.938 -0.4414 -1.8993 -1.0366
  408MOL0     H55066   4.737   1.132   0.785  1.6681 -0.6461  0.3982
  408MOL0     H55067   4.502   1.148   0.766 -1.9235 -2.7278  1.3618
  408MOL0     H55068   4.302   1.201   0.641  1.7236 -0.1474  1.6859
  408MOL0     H55069   4.271   1.075   0.766 -3.7321  1.0696  0.5935
  408MOL0     H55070   4.062   1.156   0.674 -1.7044 -0.7662 -0.9898
  408MOL0     H55071   4.082   0.988   0.626 -0.2540 -0.3983  0.2465
  408MOL0     H55072   4.161   1.203   0.439  0.8409 -0.7317  0.9535
  408MOL0     H55073   3.986   1.176   0.462  0.1434 -1.2575 -0.4211
  408MOL0     H55074   4.191   0.967   0.370  0.1749  0.2052  5.0136
  408MOL0     H55075   4.015   0.934   0.392 -1.9466  1.4523 -1.5438
  408MOL0     H55076   4.047   1.112   0.004  3.2949  3.0695 -0.1908
  408MOL0     H55077   4.496   0.861   0.438 -2.9504  2.4537 -0.5572
  408MOL0     H55078   4.861   0.851   0.425  0.6388 -0.2015  1.5670
  408MOL0     H55079   4.776   0.717   0.487  0.1389  1.2310  3.3401
  408MOL0     H55080   4.701   0.802   0.344 -1.3113  1.7210  0.8348
  409MOL0     O55081   1.720   4.246   1.058  0.4955 -0.0123  0.5114
  409MOL0     C55082   1.643   4.251   1.154 -0.7591  0.9256 -0.7117
  409MOL0     O55083   1.681   4.263   1.294 -0.2184 -0.7923  0.4576
  409MOL0     C55084   1.812   4.294   1.324 -1.3984 -0.3000  0.4562
  409MOL0     C55085   1.861   4.426   1.322 -0.3788 -0.3074  0.1870
  409MOL0     C55086   1.996   4.454   1.360  0.2340 -0.1488 -0.5634
  409MOL0     C55087   2.081   4.359   1.417 -0.4475 -0.0618 -0.2077
  409MOL0     O55088   2.209   4.397   1.447 -0.1960 -0.2623  0.1375
  409MOL0     C55089   2.311   4.304   1.416  0.2916  0.3272 -0.4568
  409MOL0     C55090   2.352   4.231   1.549  0.1551 -0.6291 -0.5114
  409MOL0     C55091   2.453   4.119   1.520  0.3734  0.1320  0.5785
  409MOL0     C55092   2.564   4.115   1.630 -0.5703 -0.1489  0.0775
  409MOL0     C55093   2.688   4.024   1.594  0.8010  0.1238  0.2962
  409MOL0     C55094   2.815   4.023   1.686  1.2820 -1.2837 -0.8135
  409MOL0     C55095   2.936   3.954   1.621 -0.1574  0.3731  0.1279
  409MOL0     C55096   2.933   3.802   1.644  0.8469  0.0355 -0.5605
  409MOL0     N55097   3.046   3.728   1.589  0.3035  0.1483 -0.1528
  409MOL0     C55098   3.139   3.644   1.667  0.8172  0.5268  0.1735
  409MOL0     C55099   3.223   3.598   1.575 -0.4505 -0.2973 -0.3104
  409MOL0     C55100   3.331   3.494   1.595  0.5440  0.2270  0.0174
  409MOL0     C55101   3.473   3.554   1.613  0.0302  0.2070 -0.4275
  409MOL0     C55102   3.538   3.602   1.479  0.7371  0.5782 -0.0231
  409MOL0     C55103   3.668   3.679   1.499 -0.5228 -0.0651 -0.9393
  409MOL0     O55104   3.763   3.576   1.507 -0.4100  0.1401 -0.0939
  409MOL0     C55105   3.897   3.606   1.507 -0.2634  0.0050  0.3675
  409MOL0     C55106   3.976   3.503   1.548  0.3066 -0.1168  0.2711
  409MOL0     C55107   4.115   3.517   1.561  1.0813 -0.8636 -0.2509
  409MOL0     C55108   4.178   3.638   1.528  0.1286 -0.8207 -0.4695
  409MOL0     C55109   4.322   3.647   1.550 -0.2751 -0.4981 -1.2173
  409MOL0     O55110   4.392   3.534   1.568 -0.3569 -0.5556  0.6380
  409MOL0     C55111   4.530   3.535   1.569  1.1785  0.5849 -0.4565
  409MOL0     C55112   4.614   3.620   1.507  0.1488  0.0312  0.3650
  409MOL0     C55113   4.749   3.617   1.535 -0.9965 -0.4955  0.2878
  409MOL0     C55114   4.808   3.516   1.599  0.6960 -0.4903 -0.3270
  409MOL0     O55115   4.936   3.508   1.627  0.0405  0.1677  0.1971
  409MOL0     C55116   5.013   3.516   1.499 -0.0797  0.7974 -1.1038
  409MOL0     C55117   5.145   3.582   1.515 -0.1960 -0.8074 -0.0045
  409MOL0     C55118   5.228   3.509   1.617  0.9564 -0.3026  0.2064
  409MOL0     C55119   5.349   3.598   1.651  0.8286 -0.3213 -0.0629
  409MOL0     C55120   5.440   3.521   1.757 -0.2513 -0.7330  0.9452
  409MOL0     C55121   5.566   3.602   1.785  0.1123  0.3366 -0.4070
  409MOL0     C55122   5.665   3.526   1.864 -0.1678 -0.0752 -0.7605
  409MOL0     C55123   5.807   3.579   1.833  0.0471 -0.0095 -0.1900
  409MOL0    Cl55124   5.926   3.514   1.948  0.2601 -0.6095  0.1474
  409MOL0     C55125   4.724   3.421   1.665 -0.8016  0.6388 -0.3095
  409MOL0     C55126   4.587   3.436   1.653 -0.7370  0.0271  1.3292
  409MOL0     O55127   4.371   3.764   1.542 -0.3850 -0.0042  0.0626
  409MOL0     C55128   4.096   3.742   1.489 -0.1289 -0.4748 -0.4286
  409MOL0     C55129   3.955   3.724   1.470  0.6115  0.3790  0.1624
  409MOL0     N55130   3.201   3.654   1.452  0.0487 -0.6203 -0.2950
  409MOL0     N55131   3.094   3.728   1.460 -0.7930  0.1554 -0.2584
  409MOL0     C55132   2.032   4.229   1.428  0.0029  0.2942 -0.5004
  409MOL0     C55133   1.905   4.200   1.372  0.2137  0.5957 -0.8865
  409MOL0     C55134   1.504   4.218   1.113  0.2138  0.2962  1.1888
  409MOL0     C55135   1.477   4.118   1.012  0.0677 -0.4838  0.2086
  409MOL0     C55136   1.346   4.084   0.992  0.1713  0.3348 -0.0293
  409MOL0     C55137   1.238   4.132   1.062 -0.7141 -0.1639 -0.8306
  409MOL0     O55138   1.105   4.108   1.035  0.3363 -0.0615  0.0401
  409MOL0     C55139   1.064   4.015   0.923  0.5088  0.6548  0.3448
  409MOL0     C55140   0.921   3.964   0.934 -0.0883  0.2019  0.2434
  409MOL0     C55141   0.875   3.902   0.801  0.7319 -0.2247  0.0011
  409MOL0     C55142   0.940   3.767   0.758  0.7672 -0.2378 -0.5966
  409MOL0     C55143   0.927   3.745   0.615  0.0366 -0.6206 -0.2697
  409MOL0     C55144   0.931   3.735   0.493 -0.6950  0.1842 -0.6764
  409MOL0     C55145   1.265   4.228   1.157 -0.0937 -0.3312 -0.4512
  409MOL0     C55146   1.399   4.272   1.185  0.0509 -0.2094  1.5938
  409MOL0     C55147   1.405   4.359   1.305  0.5549 -0.5077 -0.1858
  409MOL0     H55148   1.806   4.512   1.286  2.0381  0.9098 -0.8048
  409MOL0     H55149   2.027   4.554   1.331 -5.6751  1.3553 -3.3462
  409MOL0     H55150   2.295   4.232   1.335 -0.0897 -2.3187  1.8126
  409MOL0     H55151   2.401   4.357   1.385  0.6168 -1.2727 -2.4615
  409MOL0     H55152   2.261   4.197   1.599 -0.1682 -0.1170 -0.7416
  409MOL0     H55153   2.401   4.313   1.604 -1.1498  2.9011 -4.1017
  409MOL0     H55154   2.493   4.148   1.422  0.7589  1.9824  1.2625
  409MOL0     H55155   2.409   4.018   1.520 -4.0323  1.7878 -0.9529
  409MOL0     H55156   2.607   4.215   1.639 -2.8769  0.9730 -0.6537
  409MOL0     H55157   2.527   4.099   1.732  1.6723  1.4201  1.2209
  409MOL0     H55158   2.655   3.920   1.581  0.6459  0.2513 -0.3322
  409MOL0     H55159   2.722   4.054   1.495 -1.5137 -0.4545 -0.7332
  409MOL0     H55160   2.844   4.127   1.700  0.6773 -0.9247 -2.0141
  409MOL0     H55161   2.796   3.993   1.789  2.2459 -2.0572 -0.8414
  409MOL0     H55162   3.031   4.001   1.647  1.1268  1.2977 -5.0789
  409MOL0     H55163   2.942   3.975   1.514  0.7206  2.2424  0.5093
  409MOL0     H55164   2.927   3.781   1.751 -0.6437 -1.3682 -0.8746
  409MOL0     H55165   2.832   3.770   1.616 -0.3169  0.1666  3.0122
  409MOL0     H55166   3.142   3.619   1.773  1.6164  1.1024  0.2982
  409MOL0     H55167   3.301   3.423   1.673  0.6013 -0.6360 -0.7373
  409MOL0     H55168   3.330   3.434   1.504  2.1549 -0.5211  0.4595
  409MOL0     H55169   3.480   3.637   1.683 -1.3886  0.2399 -0.2907
  409MOL0     H55170   3.532   3.469   1.648 -0.9248  0.5907  2.3959
  409MOL0     H55171   3.461   3.662   1.428  2.1427  0.6854 -2.1358
  409MOL0     H55172   3.554   3.520   1.409 -2.5196 -1.3202  1.2150
  409MOL0     H55173   3.671   3.739   1.590 -3.0057 -0.7584 -0.3504
  409MOL0     H55174   3.696   3.741   1.414  1.5747  0.1625 -0.1514
  409MOL0     H55175   3.937   3.402   1.554 -0.4513 -0.4799 -5.5114
  409MOL0     H55176   4.179   3.434   1.591  0.2468 -1.0520  1.1144
  409MOL0     H55177   4.577   3.694   1.438 -1.7923 -0.0538  1.2213
  409MOL0     H55178   4.817   3.689   1.491 -0.0009 -1.9166 -0.5777
  409MOL0     H55179   5.033   3.414   1.465 -0.0133  1.1772 -2.2515
  409MOL0     H55180   4.971   3.566   1.411  2.2247  1.4881 -1.8610
  409MOL0     H55181   5.185   3.569   1.414  0.6831 -2.6010  0.5476
  409MOL0     H55182   5.137   3.689   1.540 -0.9026 -1.1905  1.5493
  409MOL0     H55183   5.167   3.488   1.705 -0.4973  3.5636  0.2805
  409MOL0     H55184   5.268   3.412   1.586  2.1155  0.4328 -0.7088
  409MOL0     H55185   5.323   3.700   1.682  3.1392  0.8531 -1.7192
  409MOL0     H55186   5.418   3.604   1.566 -2.8039  2.7056 -3.1799
  409MOL0     H55187   5.465   3.419   1.726 -3.3381 -1.6900  1.2031
  409MOL0     H55188   5.387   3.521   1.853  0.5860 -0.2676  1.4119
  409MOL0     H55189   5.611   3.633   1.690  4.2086  1.2937  1.5991
  409MOL0     H55190   5.532   3.688   1.842 -1.2324 -0.2150 -0.3469
  409MOL0     H55191   5.664   3.418   1.842  2.3076  0.2654 -2.9965
  409MOL0     H55192   5.635   3.535   1.969  3.4294 -0.2413  0.4027
  409MOL0     H55193   5.848   3.548   1.736 -2.1575  1.8702 -1.8202
  409MOL0     H55194   5.805   3.688   1.834  0.3011 -0.0067  0.2271
  409MOL0     H55195   4.762   3.338   1.723  0.7930  0.4852 -1.5131
  409MOL0     H55196   4.521   3.369   1.707  0.6624 -0.3850  2.6164
  409MOL0     H55197   4.148   3.835   1.468  2.5628 -1.1658  2.4624
  409MOL0     H55198   3.891   3.804   1.435  1.4532  1.4712  1.0300
  409MOL0     H55199   2.088   4.146   1.470  1.8695  1.7803  0.0540
  409MOL0     H55200   1.868   4.098   1.374  1.6339  0.0471  2.1158
  409MOL0     H55201   1.549   4.061   0.954 -1.8017 -1.4213 -1.3127
  409MOL0     H55202   1.341   4.010   0.913  0.5009 -0.8609  1.0209
  409MOL0     H55203   1.140   3.936   0.917  0.1054  0.1567  1.5039
  409MOL0     H55204   1.074   4.075   0.831 -0.0159  1.2523  0.6713
  409MOL0     H55205   0.856   4.050   0.953 -3.4004 -2.2647  1.2111
  409MOL0     H55206   0.909   3.890   1.014  2.6634 -0.8687 -0.2230
  409MOL0     H55207   0.897   3.980   0.728 -2.7535  1.1780  0.2668
  409MOL0     H55208   0.767   3.900   0.788  0.9971 -1.9857 -2.8957
  409MOL0     H55209   1.046   3.772   0.785  0.3194  1.4548  0.9932
  409MOL0     H55210   0.890   3.683   0.806 -2.2120  2.0160  0.4815
  409MOL0     H55211   0.942   3.734   0.387 -0.2649  1.6472 -0.6650
  409MOL0     H55212   1.186   4.274   1.216 -0.2971 -0.8159 -0.3345
  409MOL0     H55213   1.423   4.299   1.395 -0.0293 -0.0886  0.2199
  409MOL0     H55214   1.479   4.438   1.290  0.3689 -0.0115  1.2555
  409MOL0     H55215   1.309   4.407   1.327 -0.6347 -1.7745 -2.3386
  410MOL0     O55216  10.908   6.478   3.896  0.3672  0.5874  0.0219
  410MOL0     C55217  10.858   6.484   3.790  0.6639 -1.0480  0.4819
  410MOL0     O55218  10.930   6.519   3.683  0.2067 -0.4537  0.4727
  410MOL0     C55219  11.048   6.587   3.715  0.2214 -0.2597 -0.9047
  410MOL0     C55220  11.050   6.726   3.704  0.9615 -0.3094  0.1869
  410MOL0     C55221  11.169   6.794   3.721 -0.3991 -0.5807  0.0236
  410MOL0     C55222  11.284   6.732   3.763 -0.1880 -0.0332  0.9197
  410MOL0     O55223  11.383   6.815   3.813  0.5539 -0.6873  0.1875
  410MOL0     C55224  11.508   6.759   3.856  0.3376  0.2179  0.3280
  410MOL0     C55225  11.610   6.870   3.874  0.0111 -0.0332 -0.2617
  410MOL0     C55226  11.747   6.818   3.919  1.2254  0.2495 -1.3917
  410MOL0     C55227  11.848   6.932   3.946  0.1449  0.7766 -0.1501
  410MOL0     C55228  11.993   6.894   3.960 -1.1396  1.2379 -0.8837
  410MOL0     C55229  12.082   7.014   3.961 -0.6393 -0.1141  0.1486
  410MOL0     C55230  12.232   6.982   3.999  0.4656 -0.9907  0.3359
  410MOL0     C55231  12.286   7.110   4.070 -0.4007  0.7140  0.0659
  410MOL0     N55232  12.430   7.090   4.105  0.0307  0.4675  0.2112
  410MOL0     C55233  12.539   7.050   4.034  0.7330  0.6785  1.0025
  410MOL0     C55234  12.648   7.084   4.101 -0.3078  1.1167 -0.2910
  410MOL0     C55235  12.788   7.090   4.034  0.3444  0.4877 -0.5959
  410MOL0     C55236  12.887   7.156   4.126 -1.0890 -0.1918  0.7571
  410MOL0     C55237  13.029   7.123   4.095 -0.4347  0.4294 -0.5342
  410MOL0     C55238  13.143   7.183   4.194  0.7026 -0.7333  0.3553
  410MOL0     O55239  13.120   7.123   4.323  0.4917  0.2599 -0.6506
  410MOL0     C55240  13.150   6.991   4.357  0.6769  0.3118  0.3532
  410MOL0     C55241  13.227   6.912   4.273 -0.2919  0.1597 -0.3686
  410MOL0     C55242  13.276   6.795   4.324  0.3829  0.3393 -0.4130
  410MOL0     C55243  13.233   6.748   4.452  0.0490 -0.3050  0.1338
  410MOL0     C55244  13.287   6.618   4.508 -0.0431 -0.2191 -0.8062
  410MOL0     O55245  13.380   6.552   4.436 -0.0107  0.1350  0.1109
  410MOL0     C55246  13.449   6.450   4.498 -0.1557 -0.0453 -0.6393
  410MOL0     C55247  13.383   6.338   4.556 -0.5912 -0.5869  0.1576
  410MOL0     C55248  13.462   6.227   4.582 -0.0665 -0.2038 -0.5828
  410MOL0     C55249  13.598   6.225   4.579  0.1770  0.4068 -0.2343
  410MOL0     O55250  13.663   6.110   4.629 -0.3251 -0.8078 -0.4131
  410MOL0     C55251  13.800   6.111   4.618 -0.6430  0.5433 -0.9243
  410MOL0     C55252  13.833   6.059   4.476 -0.4797 -0.0120 -0.7514
  410MOL0     C55253  13.902   5.918   4.478  1.0418 -0.3275 -0.1050
  410MOL0     C55254  14.038   5.924   4.541 -0.6923  1.2156  0.0247
  410MOL0     C55255  14.104   5.784   4.510  0.0068  0.7004 -0.4093
  410MOL0     C55256  14.261   5.796   4.537  0.0748 -0.6975 -0.1325
  410MOL0     C55257  14.322   5.658   4.497  0.0893  0.8989  0.2828
  410MOL0     C55258  14.470   5.641   4.526  0.7109  0.4657 -0.2087
  410MOL0    Cl55259  14.519   5.476   4.485  0.0605  0.1084  0.2420
  410MOL0     C55260  13.663   6.333   4.517  0.2787  0.4411 -0.7295
  410MOL0     C55261  13.585   6.440   4.481  0.4315  0.6382 -0.5371
  410MOL0     O55262  13.232   6.576   4.612  0.1449 -0.7846  0.3877
  410MOL0     C55263  13.141   6.823   4.529 -0.2842  0.3538 -0.3314
  410MOL0     C55264  13.108   6.945   4.480  0.0674  0.4568 -0.9088
  410MOL0     N55265  12.611   7.116   4.231 -0.4115 -0.0837  0.0745
  410MOL0     N55266  12.487   7.124   4.232  0.3132 -0.9231  0.3696
  410MOL0     C55267  11.288   6.590   3.769  0.9301  0.5956  0.0904
  410MOL0     C55268  11.172   6.517   3.743 -0.3347 -0.6298 -0.2600
  410MOL0     C55269  10.707   6.463   3.759 -0.3176 -0.0437 -0.4496
  410MOL0     C55270  10.658   6.473   3.624 -0.1167  0.5738  0.1336
  410MOL0     C55271  10.528   6.439   3.585  0.0970 -0.5877  0.1919
  410MOL0     C55272  10.439   6.386   3.677  0.1132  0.0289 -0.3862
  410MOL0     O55273  10.319   6.332   3.635  0.2915 -0.2245  0.1796
  410MOL0     C55274  10.296   6.314   3.493  0.1139 -0.1865 -0.6028
  410MOL0     C55275  10.152   6.249   3.472  0.0844 -1.2311  0.7039
  410MOL0     C55276  10.134   6.102   3.530  0.2016 -0.5931  0.0049
  410MOL0     C55277   9.988   6.060   3.514 -0.1991  0.3641 -1.0763
  410MOL0     C55278   9.939   6.026   3.382  1.2972 -0.9865  0.5668
  410MOL0     C55279   9.881   5.995   3.278 -0.0861 -1.2233 -0.1700
  410MOL0     C55280  10.481   6.372   3.809 -0.7197  0.9208 -0.6536
  410MOL0     C55281  10.612   6.410   3.852  0.0960 -0.7010 -0.1642
  410MOL0     C55282  10.646   6.402   3.995 -0.1121  0.2390  0.0096
  410MOL0     H55283  10.962   6.782   3.675  1.5819  0.3768 -0.4159
  410MOL0     H55284  11.161   6.902   3.728 -0.9238 -0.3044 -3.4819
  410MOL0     H55285  11.494   6.684   3.935 -0.1370 -0.7505 -0.6372
  410MOL0     H55286  11.553   6.700   3.775 -1.2692 -2.2477  1.0939
  410MOL0     H55287  11.568   6.948   3.938  0.6097 -0.8942  1.2265
  410MOL0     H55288  11.630   6.918   3.778  3.6433  1.8658  1.2627
  410MOL0     H55289  11.791   6.748   3.847  0.5410 -1.3457 -0.3083
  410MOL0     H55290  11.731   6.751   4.004  1.9690 -0.0487 -1.4739
  410MOL0     H55291  11.846   7.000   3.861 -0.4856 -1.2044 -1.7845
  410MOL0     H55292  11.812   6.988   4.033 -0.0240 -2.3537  1.9841
  410MOL0     H55293  12.011   6.828   4.045 -0.9663  2.5288  0.0927
  410MOL0     H55294  12.010   6.840   3.866  1.6439  0.7619 -0.1726
  410MOL0     H55295  12.082   7.058   3.861 -2.5323  2.5138  1.1875
  410MOL0     H55296  12.032   7.079   4.033 -1.5937 -2.9923  2.2375
  410MOL0     H55297  12.283   6.967   3.903 -0.2734  0.8192 -0.3879
  410MOL0     H55298  12.236   6.891   4.060 -0.6026 -1.5173 -0.3550
  410MOL0     H55299  12.269   7.199   4.009  1.9402  0.8425 -0.5019
  410MOL0     H55300  12.225   7.126   4.159  0.0834  0.5485  0.4362
  410MOL0     H55301  12.525   7.027   3.929 -1.5995  1.7223  1.0264
  410MOL0     H55302  12.821   6.987   4.020  0.9785  0.6109 -0.0728
  410MOL0     H55303  12.778   7.145   3.940 -1.6023  2.5409  0.6966
  410MOL0     H55304  12.884   7.265   4.114  3.1385 -0.0628 -1.1977
  410MOL0     H55305  12.860   7.132   4.229 -0.7190 -0.0154  0.9005
  410MOL0     H55306  13.050   7.166   3.997  3.2698 -0.3959 -0.2577
  410MOL0     H55307  13.030   7.013   4.091 -0.2953  0.3382  1.0710
  410MOL0     H55308  13.128   7.290   4.210  1.1136 -1.0033  3.0210
  410MOL0     H55309  13.246   7.177   4.158  1.3288 -1.8014  2.1632
  410MOL0     H55310  13.252   6.941   4.172  1.5818  0.2983  0.0968
  410MOL0     H55311  13.342   6.740   4.258  0.9031 -1.9327  1.8646
  410MOL0     H55312  13.275   6.338   4.551 -0.5979 -3.1106 -1.8278
  410MOL0     H55313  13.404   6.144   4.620 -1.0194  0.5740 -0.2886
  410MOL0     H55314  13.857   6.201   4.642  0.1748 -0.4950  1.3622
  410MOL0     H55315  13.837   6.043   4.696 -3.1629 -2.1950 -1.9288
  410MOL0     H55316  13.743   6.066   4.414 -1.6414 -1.3506  0.6829
  410MOL0     H55317  13.908   6.118   4.423  1.9834 -2.3173 -0.0246
  410MOL0     H55318  13.849   5.845   4.539 -0.8354  2.2702  1.5793
  410MOL0     H55319  13.909   5.884   4.374 -0.4375 -0.7284 -0.0948
  410MOL0     H55320  14.026   5.927   4.650 -2.3797 -4.2402  0.3128
  410MOL0     H55321  14.099   5.993   4.483  1.7540  0.5528  1.6635
  410MOL0     H55322  14.101   5.766   4.402 -0.2658  2.3094 -0.6912
  410MOL0     H55323  14.056   5.704   4.567  0.8286  2.4040  2.9269
  410MOL0     H55324  14.310   5.868   4.471 -0.2293  0.4546  0.8547
  410MOL0     H55325  14.288   5.830   4.638  2.6237 -1.1767 -0.5870
  410MOL0     H55326  14.317   5.640   4.389  0.6633 -2.6848  0.7245
  410MOL0     H55327  14.269   5.579   4.549  2.2312 -0.0858  1.0784
  410MOL0     H55328  14.546   5.699   4.473  2.6506 -2.6512 -1.1571
  410MOL0     H55329  14.485   5.660   4.633  2.9261 -1.5833 -0.0404
  410MOL0     H55330  13.770   6.342   4.502  0.2015  1.0474 -0.9109
  410MOL0     H55331  13.649   6.512   4.430 -0.5869  0.4487 -2.1587
  410MOL0     H55332  13.106   6.792   4.627  1.3767  2.6862  1.1003
  410MOL0     H55333  13.045   7.009   4.540 -0.2082 -0.5525 -0.0881
  410MOL0     H55334  11.369   6.527   3.805  0.3237 -0.9183 -1.1003
  410MOL0     H55335  11.174   6.410   3.759  0.9911 -1.4688 -4.6272
  410MOL0     H55336  10.731   6.499   3.547  0.8038 -2.5207 -0.1761
  410MOL0     H55337  10.496   6.461   3.484 -0.6106  3.1493  1.0778
  410MOL0     H55338  10.379   6.252   3.458 -0.1451 -0.4440 -0.7684
  410MOL0     H55339  10.287   6.409   3.439 -1.6794  0.2857  0.4232
  410MOL0     H55340  10.145   6.244   3.363  1.2027  0.6275  0.5094
  410MOL0     H55341  10.072   6.313   3.509 -2.1563 -2.4748 -1.6312
  410MOL0     H55342  10.150   6.098   3.638 -0.1390 -0.6331  0.0545
  410MOL0     H55343  10.197   6.031   3.475  0.0311 -1.7546  1.2364
  410MOL0     H55344   9.985   5.972   3.578  1.4299  3.5617  4.0288
  410MOL0     H55345   9.941   6.137   3.575 -0.0865 -0.5801  0.2444
  410MOL0     H55346   9.832   5.967   3.187 -2.7110  2.0813  0.0422
  410MOL0     H55347  10.406   6.333   3.877  1.1472 -1.0256  0.3709
  410MOL0     H55348  10.558   6.377   4.054 -1.7109  0.4960 -2.1572
  410MOL0     H55349  10.726   6.331   4.020 -0.9018  0.3094  3.0242
  410MOL0     H55350  10.684   6.499   4.029 -0.1604 -0.4749  2.2349
  411MOL0     O55351   2.177   2.880   4.551  0.3149 -1.4462  1.0214
  411MOL0     C55352   2.192   2.768   4.591 -0.3833 -0.2041 -0.2226
  411MOL0     O55353   2.295   2.716   4.667 -0.1327  0.1060 -0.0424
  411MOL0     C55354   2.385   2.801   4.731 -0.2893 -0.2366 -0.4483
  411MOL0     C55355   2.464   2.902   4.665  0.3207  0.2817  0.5145
  411MOL0     C55356   2.562   2.981   4.726  0.1423  0.3064 -0.8203
  411MOL0     C55357   2.605   2.946   4.858  0.8297 -0.2665 -0.4829
  411MOL0     O55358   2.716   3.000   4.919 -0.1632  0.1277  0.0746
  411MOL0     C55359   2.820   3.025   4.824  0.1667  0.3194 -0.9268
  411MOL0     C55360   2.940   3.065   4.911 -1.1813  0.3619  1.1578
  411MOL0     C55361   3.080   3.051   4.842  0.0026 -0.9538  0.7553
  411MOL0     C55362   3.185   3.058   4.960  0.1603  0.8196 -0.1036
  411MOL0     C55363   3.331   3.059   4.904 -0.3755  0.1738 -0.5617
  411MOL0     C55364   3.362   3.189   4.838 -0.0569 -0.9189  1.1682
  411MOL0     C55365   3.514   3.206   4.806  0.3587 -0.0370 -0.2951
  411MOL0     C55366   3.536   3.343   4.739 -0.1991 -0.1760  0.2938
  411MOL0     N55367   3.551   3.457   4.833 -0.8298  0.1251  0.2764
  411MOL0     C55368   3.447   3.518   4.905 -0.4172 -0.7792  0.8177
  411MOL0     C55369   3.518   3.622   4.964 -0.2051  1.1666 -0.1114
  411MOL0     C55370   3.478   3.740   5.047  0.2288  0.4323  0.5766
  411MOL0     C55371   3.339   3.780   4.995 -0.2826 -0.6979  0.7741
  411MOL0     C55372   3.288   3.898   5.079 -0.1308  0.4068 -0.0481
  411MOL0     C55373   3.351   4.034   5.052 -0.4348 -0.5029  0.3277
  411MOL0     O55374   3.351   4.053   4.908 -0.4001  0.2019  1.1199
  411MOL0     C55375   3.237   4.091   4.836 -0.1880  0.4803 -0.8194
  411MOL0     C55376   3.124   4.144   4.901  0.5399  0.2574  0.1737
  411MOL0     C55377   3.016   4.192   4.822 -0.3255  0.6619  0.7397
  411MOL0     C55378   3.022   4.191   4.684  0.3961 -0.1357 -0.4939
  411MOL0     C55379   2.908   4.240   4.603  1.7659 -0.2484 -0.1986
  411MOL0     O55380   2.790   4.274   4.668 -0.8523 -0.1119  0.3243
  411MOL0     C55381   2.674   4.303   4.592 -0.2513  0.1340 -0.7048
  411MOL0     C55382   2.650   4.328   4.450 -0.0269  1.1006 -0.1760
  411MOL0     C55383   2.523   4.354   4.398 -0.0969  0.2912 -0.5152
  411MOL0     C55384   2.414   4.359   4.476 -0.0506 -0.7987 -0.8219
  411MOL0     O55385   2.293   4.394   4.416 -0.5498 -0.1731  0.0314
  411MOL0     C55386   2.173   4.346   4.485 -0.4433  0.3775  0.1263
  411MOL0     C55387   2.058   4.382   4.398  0.1518 -0.1669 -0.3755
  411MOL0     C55388   2.031   4.274   4.293 -0.6189  0.6504 -0.2858
  411MOL0     C55389   2.147   4.242   4.188  0.2346  0.1556 -0.7978
  411MOL0     C55390   2.084   4.175   4.065  0.0403 -0.9389 -0.3532
  411MOL0     C55391   1.998   4.052   4.097  0.9367  0.9878 -0.4497
  411MOL0     C55392   1.961   3.963   3.978 -0.4286 -0.3661 -0.6617
  411MOL0     C55393   1.900   3.833   4.031 -0.2711  0.4960 -0.1279
  411MOL0    Cl55394   2.023   3.735   4.115 -0.1431 -0.3474  0.1038
  411MOL0     C55395   2.427   4.330   4.614  0.4220  0.0828  0.0649
  411MOL0     C55396   2.556   4.306   4.666 -0.0744  0.7244 -0.1082
  411MOL0     O55397   2.919   4.253   4.484 -0.5333 -0.0863  0.0620
  411MOL0     C55398   3.133   4.141   4.622  0.6304 -0.4874 -0.0461
  411MOL0     C55399   3.243   4.089   4.691 -0.2676  0.7592 -0.0301
  411MOL0     N55400   3.656   3.614   4.934 -0.4154 -0.4885  0.3071
  411MOL0     N55401   3.668   3.514   4.854 -0.1037 -0.6170  0.1354
  411MOL0     C55402   2.533   2.852   4.924 -0.0743  0.3050 -0.4527
  411MOL0     C55403   2.426   2.778   4.868 -0.3472 -0.5381 -0.2308
  411MOL0     C55404   2.106   2.662   4.541 -0.6466  0.8748  0.1513
  411MOL0     C55405   2.091   2.541   4.616 -1.1060 -0.9265 -0.0336
  411MOL0     C55406   2.016   2.435   4.576  1.0931 -0.1093  0.1542
  411MOL0     C55407   1.951   2.438   4.458 -0.2949 -0.5260  0.1666
  411MOL0     O55408   1.874   2.336   4.423  0.1887  0.4811 -0.3829
  411MOL0     C55409   1.907   2.200   4.469  0.5874 -0.4634  0.0281
  411MOL0     C55410   1.899   2.093   4.357 -0.4369 -0.4280  0.0132
  411MOL0     C55411   1.999   2.135   4.251  0.2870 -0.4986  0.0587
  411MOL0     C55412   2.142   2.158   4.289  0.3086  0.1750  0.0150
  411MOL0     C55413   2.202   2.038   4.337 -0.3989 -0.3705 -0.3670
  411MOL0     C55414   2.251   1.937   4.383 -0.2834 -0.5068  0.4696
  411MOL0     C55415   1.955   2.554   4.378 -1.0171  0.0537  0.7766
  411MOL0     C55416   2.033   2.661   4.418 -0.0368 -0.8280  0.4851
  411MOL0     C55417   2.046   2.774   4.321 -0.4196  0.0026 -0.2430
  411MOL0     H55418   2.438   2.914   4.561  3.4545  0.0116 -0.3832
  411MOL0     H55419   2.601   3.067   4.671  1.1074 -0.0537 -0.7158
  411MOL0     H55420   2.847   2.935   4.767 -1.2538  1.4194 -3.5327
  411MOL0     H55421   2.799   3.104   4.751  0.7784  1.3159 -0.0559
  411MOL0     H55422   2.946   2.988   4.988 -0.4740 -0.9895 -0.1881
  411MOL0     H55423   2.940   3.168   4.949  4.0261  1.9411 -2.0789
  411MOL0     H55424   3.096   3.135   4.774  0.6981 -1.5190  0.2184
  411MOL0     H55425   3.090   2.958   4.787 -0.8445 -0.6092 -0.0032
  411MOL0     H55426   3.168   3.147   5.022  0.1708  1.3634 -0.8587
  411MOL0     H55427   3.173   2.966   5.017 -1.1543  1.5925  0.9208
  411MOL0     H55428   3.400   3.069   4.988 -2.3380 -1.3952  1.3553
  411MOL0     H55429   3.359   2.964   4.857 -2.4343 -0.1241 -1.3103
  411MOL0     H55430   3.306   3.203   4.745 -1.2576 -0.1406  1.9760
  411MOL0     H55431   3.334   3.263   4.913  4.0844  1.1034  0.9642
  411MOL0     H55432   3.532   3.126   4.733  1.5234 -1.8900  1.8872
  411MOL0     H55433   3.579   3.193   4.892  1.1662  2.6613 -0.4263
  411MOL0     H55434   3.625   3.322   4.679 -1.3831 -1.8890 -0.9526
  411MOL0     H55435   3.454   3.364   4.670  0.3727 -0.5588 -0.5171
  411MOL0     H55436   3.342   3.490   4.901 -0.1307 -1.7998 -0.4069
  411MOL0     H55437   3.468   3.710   5.152 -2.5292  1.7900  0.8031
  411MOL0     H55438   3.552   3.819   5.033  1.5120 -0.9661 -0.7840
  411MOL0     H55439   3.344   3.806   4.889 -0.3790  1.6063  1.2937
  411MOL0     H55440   3.267   3.698   5.000 -1.2953 -0.2549 -3.2906
  411MOL0     H55441   3.305   3.888   5.187  1.5458  5.5889  0.4580
  411MOL0     H55442   3.181   3.911   5.062  0.2258  1.0076 -2.0836
  411MOL0     H55443   3.454   4.034   5.089  0.5886  2.2176 -2.0956
  411MOL0     H55444   3.304   4.125   5.092 -0.3635 -1.5908  3.0609
  411MOL0     H55445   3.108   4.149   5.008 -1.3428  0.0084 -0.0603
  411MOL0     H55446   2.934   4.239   4.875  0.2203  1.6523  0.7130
  411MOL0     H55447   2.737   4.329   4.385  1.5207 -1.0688  1.7078
  411MOL0     H55448   2.517   4.376   4.292 -1.1996 -1.9230 -0.9823
  411MOL0     H55449   2.175   4.239   4.505 -2.1204  0.0869 -1.0620
  411MOL0     H55450   2.161   4.396   4.582  1.6163  2.5031 -0.6177
  411MOL0     H55451   1.971   4.395   4.463  0.3099  1.4527 -0.4686
  411MOL0     H55452   2.078   4.482   4.361 -1.4585  1.0598  1.8335
  411MOL0     H55453   2.009   4.181   4.347  1.1202  0.4582  0.1343
  411MOL0     H55454   1.945   4.311   4.237 -0.7453  0.0640 -0.4805
  411MOL0     H55455   2.228   4.185   4.236 -1.3916 -0.7153  1.0921
  411MOL0     H55456   2.189   4.339   4.162  0.2873  0.0200 -1.2124
  411MOL0     H55457   2.160   4.144   3.993  0.8903  0.2943 -0.0008
  411MOL0     H55458   2.027   4.252   4.012 -0.2418  0.3973  1.7934
  411MOL0     H55459   2.056   3.989   4.165 -1.1443  0.6841  1.1381
  411MOL0     H55460   1.910   4.093   4.146  0.7805  2.0929 -1.6019
  411MOL0     H55461   2.047   3.955   3.911 -0.6244  1.9856 -1.2838
  411MOL0     H55462   1.880   4.010   3.921 -0.7945 -1.3169 -0.9423
  411MOL0     H55463   1.815   3.867   4.091 -0.4767 -0.2803  0.0313
  411MOL0     H55464   1.866   3.771   3.947 -0.6487  0.0650  0.3425
  411MOL0     H55465   2.352   4.325   4.691  0.3599  0.6800  0.0434
  411MOL0     H55466   2.569   4.299   4.774 -1.3286  0.8475  0.0693
  411MOL0     H55467   3.141   4.136   4.514  0.2811  1.9584 -0.2464
  411MOL0     H55468   3.325   4.071   4.623 -1.3502 -2.7792 -0.5747
  411MOL0     H55469   2.551   2.834   5.030 -0.9146 -0.8465 -0.4909
  411MOL0     H55470   2.390   2.704   4.938  1.6174  1.5925  3.3644
  411MOL0     H55471   2.131   2.528   4.716  0.8349 -0.3753 -0.7003
  411MOL0     H55472   2.001   2.357   4.650  1.7067 -0.4931 -0.1176
  411MOL0     H55473   1.835   2.160   4.541  0.3168  0.5913  0.3474
  411MOL0     H55474   2.004   2.194   4.520 -0.1604  0.3532  1.6180
  411MOL0     H55475   1.799   2.092   4.313  0.5875 -2.1004 -2.4955
  411MOL0     H55476   1.935   2.000   4.402 -3.5643 -2.4349 -1.2169
  411MOL0     H55477   1.973   2.232   4.209  2.4902  0.6324  1.0780
  411MOL0     H55478   2.001   2.058   4.173 -1.5295  0.4664 -1.0060
  411MOL0     H55479   2.195   2.192   4.200 -0.2098  1.0760  0.0332
  411MOL0     H55480   2.152   2.229   4.372  0.5130  0.1292  0.0295
  411MOL0     H55481   2.319   1.860   4.413 -0.0630 -0.7968 -0.6887
  411MOL0     H55482   1.895   2.544   4.289  0.6998  0.6176 -0.4912
  411MOL0     H55483   2.015   2.740   4.222 -0.3970 -0.8239  0.0243
  411MOL0     H55484   2.008   2.872   4.351 -2.3268 -1.7561  3.9072
  411MOL0     H55485   2.148   2.811   4.309 -0.1793 -0.9251 -1.1343
  412MOL0     O55486   1.434   5.781   4.711 -0.0436 -0.4473 -0.1047
  412MOL0     C55487   1.404   5.707   4.615 -0.2340 -0.0646  0.1270
  412MOL0     O55488   1.334   5.751   4.496 -0.0255  0.2579 -0.0406
  412MOL0     C55489   1.315   5.887   4.474  0.5273  0.7234  0.2836
  412MOL0     C55490   1.217   5.914   4.375 -0.1296 -0.4119 -0.5353
  412MOL0     C55491   1.185   6.049   4.342  0.1128 -0.3808  1.0642
  412MOL0     C55492   1.241   6.158   4.403 -0.9974 -0.7711 -0.7042
  412MOL0     O55493   1.226   6.286   4.360  0.2633 -0.0821  0.0524
  412MOL0     C55494   1.298   6.321   4.239 -0.1458 -0.1858 -0.3905
  412MOL0     C55495   1.223   6.310   4.106 -0.1056  0.1664  0.1469
  412MOL0     C55496   1.331   6.325   3.993 -0.0918 -0.8290 -0.5175
  412MOL0     C55497   1.263   6.369   3.863 -0.1965 -0.0622  0.7195
  412MOL0     C55498   1.354   6.434   3.753  0.1528  0.0937  0.6792
  412MOL0     C55499   1.454   6.330   3.702 -0.6568  0.0934 -0.6061
  412MOL0     C55500   1.526   6.386   3.578  0.3814 -0.1426  0.3847
  412MOL0     C55501   1.601   6.523   3.563 -0.3137  0.7555 -0.3649
  412MOL0     N55502   1.739   6.514   3.619  0.4435 -0.1453  0.7780
  412MOL0     C55503   1.769   6.513   3.747  0.1912 -0.3467 -0.0079
  412MOL0     C55504   1.889   6.458   3.759  0.0527  0.1289  2.1868
  412MOL0     C55505   1.963   6.433   3.886  0.6900  0.1988 -0.0542
  412MOL0     C55506   2.115   6.444   3.856  1.0233  0.0090 -0.0777
  412MOL0     C55507   2.191   6.510   3.974 -0.0876  0.0866 -0.3568
  412MOL0     C55508   2.146   6.451   4.110 -0.3141  0.1206  0.3031
  412MOL0     O55509   2.140   6.311   4.104  0.1379 -0.3523  0.1225
  412MOL0     C55510   2.260   6.236   4.100 -0.6493 -0.0460 -0.1805
  412MOL0     C55511   2.234   6.098   4.082  0.1563 -0.2668  0.4586
  412MOL0     C55512   2.341   6.013   4.058 -0.2158  0.6708  0.0155
  412MOL0     C55513   2.474   6.055   4.069 -0.7652 -0.1347  0.5340
  412MOL0     C55514   2.596   5.967   4.053 -0.2720  0.0351  0.7794
  412MOL0     O55515   2.712   6.023   4.010  0.0472  0.0325 -0.4258
  412MOL0     C55516   2.819   5.937   4.020 -0.4550  0.8995  0.2862
  412MOL0     C55517   2.866   5.838   3.924 -0.2877  1.0671 -0.2261
  412MOL0     C55518   2.975   5.751   3.958  0.2949  0.2374  0.4523
  412MOL0     C55519   3.021   5.751   4.088 -0.2661 -0.1050 -0.1282
  412MOL0     O55520   3.130   5.679   4.135  0.8492  0.3918  0.0258
  412MOL0     C55521   3.210   5.617   4.044 -0.7296  0.0250  0.0471
  412MOL0     C55522   3.329   5.566   4.115  0.0869  1.5413 -0.3312
  412MOL0     C55523   3.439   5.503   4.036  0.6476  0.3518 -0.1694
  412MOL0     C55524   3.566   5.477   4.114 -0.4938 -0.3569  0.1607
  412MOL0     C55525   3.674   5.406   4.041  0.1588 -0.9810 -0.4108
  412MOL0     C55526   3.691   5.468   3.893  0.8653 -0.1647 -0.7567
  412MOL0     C55527   3.813   5.393   3.825 -0.3012  0.5792 -0.5860
  412MOL0     C55528   3.798   5.351   3.682  0.0611  0.1908 -0.3877
  412MOL0    Cl55529   3.653   5.235   3.681  0.1876 -0.1795 -0.1303
  412MOL0     C55530   2.973   5.842   4.180 -1.0513  0.4388 -0.3418
  412MOL0     C55531   2.874   5.937   4.146  0.6498 -0.1280  0.1116
  412MOL0     O55532   2.579   5.851   4.084 -0.7474  0.2906  0.1331
  412MOL0     C55533   2.501   6.194   4.092 -0.2662  0.4726 -0.7376
  412MOL0     C55534   2.394   6.284   4.106  1.2496  0.3295 -0.0001
  412MOL0     N55535   1.936   6.430   3.628 -0.0993 -0.3483 -0.2901
  412MOL0     N55536   1.843   6.471   3.546 -0.6191 -0.4146  1.2488
  412MOL0     C55537   1.351   6.128   4.489  0.8600  0.4477  0.2178
  412MOL0     C55538   1.387   5.995   4.523  0.2789 -0.2873  0.0479
  412MOL0     C55539   1.430   5.562   4.621 -0.5521  0.2330  0.5115
  412MOL0     C55540   1.482   5.493   4.509  0.0493 -0.2489 -0.0940
  412MOL0     C55541   1.501   5.353   4.495 -0.4104  0.0196 -0.0986
  412MOL0     C55542   1.469   5.277   4.599  1.2107 -1.0106 -0.0145
  412MOL0     O55543   1.474   5.143   4.580 -0.1212 -0.0572 -0.1367
  412MOL0     C55544   1.445   5.053   4.683 -0.2861  0.2842  0.3919
  412MOL0     C55545   1.297   5.045   4.712 -0.2681 -0.2572 -1.0957
  412MOL0     C55546   1.218   4.957   4.610  0.0475  0.1254 -0.1625
  412MOL0     C55547   1.197   5.024   4.473  0.3008  0.1233 -0.2238
  412MOL0     C55548   1.110   4.947   4.390  0.2048  0.5035 -0.3335
  412MOL0     C55549   1.062   4.875   4.306 -0.2148 -0.4692 -1.1012
  412MOL0     C55550   1.425   5.342   4.725 -0.4928  0.2016  0.4641
  412MOL0     C55551   1.407   5.482   4.732  1.0936  0.3708  0.2419
  412MOL0     C55552   1.361   5.530   4.870  0.2759  0.8089 -0.1076
  412MOL0     H55553   1.158   5.830   4.341 -1.8676  0.0090  1.2011
  412MOL0     H55554   1.101   6.047   4.274  0.0805  1.4028  1.0101
  412MOL0     H55555   1.333   6.424   4.255  0.3552 -0.3075 -0.7167
  412MOL0     H55556   1.390   6.263   4.234 -0.6780 -1.3161  1.6709
  412MOL0     H55557   1.142   6.383   4.107 -0.1402  0.1591 -0.9747
  412MOL0     H55558   1.167   6.216   4.097 -0.9156  0.5413  1.1260
  412MOL0     H55559   1.394   6.236   3.983  2.3588  0.6838  0.6203
  412MOL0     H55560   1.399   6.402   4.029  1.1967 -1.7336 -0.9448
  412MOL0     H55561   1.209   6.280   3.832 -2.1678  1.4196 -0.3563
  412MOL0     H55562   1.184   6.441   3.888  0.1140  1.0596 -1.2758
  412MOL0     H55563   1.299   6.469   3.664  2.0424 -0.2688 -0.6942
  412MOL0     H55564   1.401   6.521   3.799 -1.1001  1.2177 -0.0616
  412MOL0     H55565   1.531   6.314   3.778  0.8353  1.0820 -1.8576
  412MOL0     H55566   1.404   6.235   3.681  0.5899 -1.0793  1.4027
  412MOL0     H55567   1.443   6.393   3.507  2.6066 -0.4907 -2.4411
  412MOL0     H55568   1.585   6.302   3.539 -1.3854 -0.0375 -2.8740
  412MOL0     H55569   1.615   6.555   3.459 -1.4002  3.1850  0.1750
  412MOL0     H55570   1.546   6.597   3.621  0.9499  2.2303 -0.9654
  412MOL0     H55571   1.711   6.545   3.833 -0.9752  0.9157 -1.1880
  412MOL0     H55572   1.927   6.516   3.947 -1.4738  1.2469 -2.5729
  412MOL0     H55573   1.934   6.337   3.930 -1.8684 -0.0241 -1.9995
  412MOL0     H55574   2.154   6.342   3.843  1.4116  0.1750 -0.2402
  412MOL0     H55575   2.132   6.512   3.772  0.1446  0.4401  0.0854
  412MOL0     H55576   2.171   6.617   3.975  0.1368  0.1275 -0.1069
  412MOL0     H55577   2.297   6.493   3.954  0.5082 -1.9494  3.4794
  412MOL0     H55578   2.049   6.486   4.148 -1.2077 -3.4057  1.6626
  412MOL0     H55579   2.206   6.485   4.196 -0.3489  0.9487  0.0127
  412MOL0     H55580   2.131   6.063   4.073 -0.4616  0.2004  4.2129
  412MOL0     H55581   2.316   5.908   4.058  0.9658  0.3315  1.7629
  412MOL0     H55582   2.813   5.836   3.830 -0.3988  1.7094 -0.1799
  412MOL0     H55583   3.004   5.675   3.887 -0.2625  0.0792  0.3914
  412MOL0     H55584   3.159   5.525   4.012 -0.9909  0.0687  0.3245
  412MOL0     H55585   3.235   5.686   3.963  1.1321 -0.2334  0.3550
  412MOL0     H55586   3.375   5.631   4.189 -0.6813  1.6496  0.0543
  412MOL0     H55587   3.292   5.487   4.180  1.8324  1.5579  0.7294
  412MOL0     H55588   3.400   5.411   3.991  2.0714  0.1338 -1.0314
  412MOL0     H55589   3.454   5.576   3.956 -3.0654  1.4260 -0.0847
  412MOL0     H55590   3.543   5.409   4.196 -1.0951  1.9186  1.9917
  412MOL0     H55591   3.611   5.571   4.147  1.5784 -0.9495 -0.8369
  412MOL0     H55592   3.641   5.302   4.032 -0.2824 -1.0312  1.3932
  412MOL0     H55593   3.771   5.391   4.088  0.9493 -2.3299 -2.3350
  412MOL0     H55594   3.599   5.445   3.838  0.4536 -2.6589  0.8159
  412MOL0     H55595   3.717   5.574   3.892  0.1516  0.0523  0.6953
  412MOL0     H55596   3.819   5.302   3.885  2.4611 -0.0431 -1.6422
  412MOL0     H55597   3.900   5.459   3.837  2.2371 -2.3018 -1.5630
  412MOL0     H55598   3.787   5.434   3.612  1.6170 -2.1585 -3.7005
  412MOL0     H55599   3.890   5.300   3.653 -0.5810 -0.2751 -1.6550
  412MOL0     H55600   3.020   5.853   4.277  2.2006 -1.2316 -1.5628
  412MOL0     H55601   2.825   6.005   4.215 -2.3601 -1.6800 -0.2879
  412MOL0     H55602   2.605   6.221   4.080  0.3528 -2.5345 -4.1244
  412MOL0     H55603   2.417   6.390   4.106  1.6893  0.3922 -3.8737
  412MOL0     H55604   1.415   6.208   4.523 -0.1936 -0.0966  3.8502
  412MOL0     H55605   1.470   5.961   4.585  1.2202 -2.5469 -2.2525
  412MOL0     H55606   1.501   5.546   4.417  1.0143 -0.3474  0.0420
  412MOL0     H55607   1.533   5.303   4.403  0.4121 -1.6911  1.0577
  412MOL0     H55608   1.504   5.086   4.769  0.1440  2.3903 -0.6633
  412MOL0     H55609   1.488   4.955   4.659 -0.9754  0.2098 -0.5867
  412MOL0     H55610   1.261   5.148   4.710 -2.0181 -0.6755  1.9747
  412MOL0     H55611   1.288   5.002   4.812  1.1673  1.9724  0.0545
  412MOL0     H55612   1.118   4.940   4.651 -0.3679  1.1412 -0.7375
  412MOL0     H55613   1.269   4.860   4.598  0.7611  0.5283 -0.4326
  412MOL0     H55614   1.161   5.125   4.493 -0.4634 -0.0553 -0.6528
  412MOL0     H55615   1.300   5.035   4.437  0.4500 -0.1626  0.1167
  412MOL0     H55616   1.030   4.814   4.223 -1.2620  0.2693 -1.2668
  412MOL0     H55617   1.398   5.279   4.809  0.1078 -0.2753  0.3097
  412MOL0     H55618   1.405   5.627   4.896 -0.4332  2.3085 -3.9325
  412MOL0     H55619   1.252   5.532   4.869  0.2884  1.7349 -0.3407
  412MOL0     H55620   1.399   5.462   4.948  2.4851  0.9126 -1.0237
  413MOL0     O55621   0.788  11.009   9.833 -0.1000 -0.2460  0.2448
  413MOL0     C55622   0.749  10.925   9.919 -0.3710  0.5100 -0.0133
  413MOL0     O55623   0.815  10.809   9.933 -0.1031  0.6551 -0.0459
  413MOL0     C55624   0.937  10.791   9.867  2.0201  0.7140  0.2126
  413MOL0     C55625   1.043  10.760   9.954 -0.3236 -1.6320 -1.1159
  413MOL0     C55626   1.165  10.724   9.902  0.3647  0.1472  0.5994
  413MOL0     C55627   1.186  10.716   9.766 -0.1891 -0.3614  0.0519
  413MOL0     O55628   1.296  10.677   9.698  0.0228 -0.3787  0.1294
  413MOL0     C55629   1.417  10.639   9.763 -0.3524  0.0816 -0.4632
  413MOL0     C55630   1.507  10.760   9.779  0.4422 -0.4050  0.4024
  413MOL0     C55631   1.644  10.733   9.836  0.1786 -0.2370 -0.4131
  413MOL0     C55632   1.755  10.700   9.730 -0.2061  0.2552  0.0747
  413MOL0     C55633   1.901  10.704   9.795  0.5013 -0.4624  0.0141
  413MOL0     C55634   2.023  10.688   9.697  0.5996 -0.1411  0.3913
  413MOL0     C55635   2.145  10.739   9.754 -0.0513 -0.4801 -0.4783
  413MOL0     C55636   2.250  10.751   9.643  0.4870  0.2647 -0.3211
  413MOL0     N55637   2.379  10.768   9.702 -0.0562 -1.2395  0.1096
  413MOL0     C55638   2.468  10.677   9.734 -1.2860 -0.1922  0.1376
  413MOL0     C55639   2.571  10.748   9.787 -0.8144  0.3232  0.1478
  413MOL0     C55640   2.697  10.682   9.857 -0.4874 -0.1179  0.6453
  413MOL0     C55641   2.815  10.781   9.869  0.0949  0.3984  0.5413
  413MOL0     C55642   2.795  10.876   9.991 -0.2905 -0.0452  0.7851
  413MOL0     C55643   2.902  10.979  10.017 -0.0516  0.2030  0.7596
  413MOL0     O55644   3.013  10.911  10.088  0.6359  0.2982 -0.0134
  413MOL0     C55645   3.123  10.989  10.109 -0.2999 -0.0403 -0.7695
  413MOL0     C55646   3.245  10.932  10.159  0.1361  0.6049 -0.3516
  413MOL0     C55647   3.373  11.014  10.152 -0.2630  0.3249  0.2066
  413MOL0     C55648   3.369  11.153  10.115  0.1773  0.4667  0.0830
  413MOL0     C55649   3.490  11.245  10.120  0.8066  0.1795  0.0080
  413MOL0     O55650   3.471  11.372  10.103 -0.3526 -1.3720  0.4698
  413MOL0     C55651   3.572  11.467  10.091 -0.6380 -0.3253  0.2498
  413MOL0     C55652   3.535  11.601  10.119 -0.2568 -0.5350  0.0391
  413MOL0     C55653   3.627  11.708  10.127  0.0480 -0.2366  0.2002
  413MOL0     C55654   3.752  11.684  10.078 -0.0973 -0.2274 -0.5011
  413MOL0     O55655   3.849  11.777  10.064 -0.1506  1.0664 -0.1049
  413MOL0     C55656   3.818  11.912  10.024 -0.0119  0.1234 -0.8625
  413MOL0     C55657   3.941  11.993  10.026  0.5832  0.2614 -0.7481
  413MOL0     C55658   4.071  11.953   9.937  0.1690  1.0910 -0.3605
  413MOL0     C55659   4.191  12.043   9.973 -0.8222  0.5869  0.6226
  413MOL0     C55660   4.264  11.961  10.073 -0.1436  0.3731 -0.2109
  413MOL0     C55661   4.391  12.036  10.113  0.1586  0.2730 -0.2117
  413MOL0     C55662   4.479  11.952  10.208 -0.6349 -0.3385  0.9301
  413MOL0     C55663   4.621  12.013  10.224 -0.4272 -0.3735  0.2557
  413MOL0    Cl55664   4.717  11.944  10.368  0.1836  0.1072  0.1628
  413MOL0     C55665   3.793  11.553  10.051 -0.4340  1.3348  0.2691
  413MOL0     C55666   3.706  11.445  10.045  0.2572 -0.4274  0.3805
  413MOL0     O55667   3.599  11.186  10.146 -0.4837  0.0742  0.2896
  413MOL0     C55668   3.246  11.205  10.061 -0.5908  0.1014 -0.0436
  413MOL0     C55669   3.133  11.129  10.063  0.3152  1.1766 -0.1291
  413MOL0     N55670   2.540  10.883   9.774  0.1046 -0.1485 -0.3093
  413MOL0     N55671   2.425  10.894   9.721 -0.2371 -1.2136 -0.4752
  413MOL0     C55672   1.078  10.753   9.681 -0.7717 -0.1049  0.1707
  413MOL0     C55673   0.953  10.783   9.727 -0.7972  0.3566 -0.0912
  413MOL0     C55674   0.638  10.948  10.013 -1.2665 -0.0217 -0.5316
  413MOL0     C55675   0.643  10.883  10.142 -0.1674 -0.2344  0.0995
  413MOL0     C55676   0.545  10.899  10.234  0.1233 -0.2475  0.7587
  413MOL0     C55677   0.436  10.990  10.210 -0.3702 -0.3599 -0.3438
  413MOL0     O55678   0.346  11.020  10.314 -0.7861 -0.2872 -0.1838
  413MOL0     C55679   0.232  11.106  10.309 -0.0813  0.6775 -0.5203
  413MOL0     C55680   0.122  11.024  10.244  0.4730  0.1601  0.8605
  413MOL0     C55681  -0.014  11.089  10.277  0.1923 -0.4758  0.1321
  413MOL0     C55682  -0.047  11.227  10.224 -0.4965  0.4795  0.6097
  413MOL0     C55683  -0.048  11.223  10.077  0.8027  0.5063 -0.9910
  413MOL0     C55684  -0.063  11.228   9.959 -0.6143  0.2835  0.1380
  413MOL0     C55685   0.433  11.044  10.082 -0.2669 -0.5158 -0.2118
  413MOL0     C55686   0.533  11.035   9.982  0.4908  0.6297  1.1669
  413MOL0     C55687   0.515  11.108   9.843 -0.4206  0.0191 -0.3208
  413MOL0     H55688   1.024  10.768  10.061 -0.2525  0.6601 -1.2332
  413MOL0     H55689   1.236  10.700   9.981 -2.2008 -3.1279  2.1991
  413MOL0     H55690   1.401  10.596   9.863  4.1158 -0.7477  0.0760
  413MOL0     H55691   1.472  10.568   9.702  0.7494  1.6413 -1.3412
  413MOL0     H55692   1.465  10.843   9.837  1.1977  0.1879  0.1195
  413MOL0     H55693   1.525  10.806   9.681 -1.4539  0.5231  0.4413
  413MOL0     H55694   1.643  10.654   9.912  0.8407 -0.7441 -0.9164
  413MOL0     H55695   1.666  10.820   9.897 -0.2294 -0.9197  0.7367
  413MOL0     H55696   1.737  10.599   9.693 -2.1638  0.7491 -0.4708
  413MOL0     H55697   1.742  10.775   9.650 -0.8064 -0.8901 -0.9292
  413MOL0     H55698   1.908  10.798   9.851  1.1060 -0.8340  0.5810
  413MOL0     H55699   1.911  10.630   9.875 -1.6008  1.3511  2.1094
  413MOL0     H55700   2.036  10.586   9.660  2.2626  0.6590 -1.4042
  413MOL0     H55701   1.998  10.736   9.602  1.2647 -0.2082  0.1816
  413MOL0     H55702   2.175  10.674   9.837 -2.2499  0.3488  1.0761
  413MOL0     H55703   2.133  10.839   9.797 -0.5493 -0.7655  0.0651
  413MOL0     H55704   2.252  10.662   9.580 -2.4438 -0.1986  0.0820
  413MOL0     H55705   2.217  10.839   9.587  2.3236  1.0791 -0.2185
  413MOL0     H55706   2.460  10.568   9.731  1.0713 -0.4307  0.8330
  413MOL0     H55707   2.687  10.635   9.955  1.6437 -0.1340  0.9110
  413MOL0     H55708   2.734  10.604   9.789  1.4665  0.3188  1.1330
  413MOL0     H55709   2.908  10.726   9.883  0.2172 -0.3560 -2.5290
  413MOL0     H55710   2.824  10.850   9.785  2.0759  0.4190  0.7241
  413MOL0     H55711   2.780  10.820  10.083 -1.7153 -2.0289 -0.5694
  413MOL0     H55712   2.706  10.936   9.974 -0.5473  0.1706  2.7122
  413MOL0     H55713   2.861  11.060  10.077 -1.7204 -0.7247  0.9299
  413MOL0     H55714   2.928  11.022   9.919 -0.7477  3.7188  1.9743
  413MOL0     H55715   3.237  10.831  10.197 -1.5647  0.0057 -2.1124
  413MOL0     H55716   3.469  10.983  10.190  0.8288  4.0506  0.9279
  413MOL0     H55717   3.429  11.619  10.135  0.4804  2.0302  3.1667
  413MOL0     H55718   3.603  11.811  10.152 -0.3999 -0.8693  2.5800
  413MOL0     H55719   3.762  11.914   9.930  1.1886 -1.1658 -1.6319
  413MOL0     H55720   3.743  11.955  10.092 -2.8978 -1.0252 -3.1301
  413MOL0     H55721   3.924  12.096   9.991 -0.2604 -0.2342 -1.8691
  413MOL0     H55722   3.981  11.990  10.128  2.8256  1.2282 -1.5422
  413MOL0     H55723   4.085  11.846   9.955  0.3042  1.2771  0.6999
  413MOL0     H55724   4.048  11.967   9.831 -0.1422 -1.0254 -0.6068
  413MOL0     H55725   4.149  12.138  10.009 -0.0828 -0.3033  4.1695
  413MOL0     H55726   4.265  12.060   9.894  1.0759  0.8773  2.4088
  413MOL0     H55727   4.287  11.869  10.019  0.7522  0.6954 -0.3946
  413MOL0     H55728   4.196  11.936  10.155  1.3443 -2.1490  0.3696
  413MOL0     H55729   4.446  12.072  10.026  0.6120  0.1685  0.0250
  413MOL0     H55730   4.349  12.124  10.162  1.4527  1.7156 -1.5723
  413MOL0     H55731   4.510  11.850  10.180  1.4673  0.3836  0.4402
  413MOL0     H55732   4.429  11.935  10.304 -0.8190  0.1114  0.9144
  413MOL0     H55733   4.675  11.989  10.131 -0.7585  1.8244 -0.5571
  413MOL0     H55734   4.628  12.122  10.230  1.0537 -0.4089 -0.2877
  413MOL0     H55735   3.898  11.527  10.044 -1.3674 -2.8125 -1.3093
  413MOL0     H55736   3.751  11.347  10.034 -0.6549 -0.9535  1.2048
  413MOL0     H55737   3.253  11.309  10.030 -0.5457 -0.0673 -0.6043
  413MOL0     H55738   3.039  11.167  10.024  0.3358  2.9585  1.4578
  413MOL0     H55739   1.085  10.774   9.574 -2.3800  0.7202  0.1922
  413MOL0     H55740   0.873  10.811   9.660  1.3569  1.5994 -2.3273
  413MOL0     H55741   0.728  10.822  10.170 -2.4292 -2.9923  1.4108
  413MOL0     H55742   0.543  10.843  10.327 -0.1049  1.8072  2.0465
  413MOL0     H55743   0.253  11.206  10.272 -0.7700  2.6232  3.7358
  413MOL0     H55744   0.209  11.130  10.413  0.9178  1.0736 -0.3853
  413MOL0     H55745   0.115  10.917  10.269  1.2081 -0.0976  0.0360
  413MOL0     H55746   0.147  11.024  10.137  0.1350  0.6079  0.7814
  413MOL0     H55747  -0.006  11.085  10.386  1.2863 -0.2132  0.0678
  413MOL0     H55748  -0.096  11.020  10.252 -0.1706 -0.7824  1.9913
  413MOL0     H55749  -0.148  11.252  10.257 -0.3039  0.7693  0.9855
  413MOL0     H55750   0.022  11.306  10.256  1.1010 -0.7222  0.2733
  413MOL0     H55751  -0.091  11.233   9.856 -1.2859 -2.7239  0.0857
  413MOL0     H55752   0.356  11.118  10.063  2.3385  2.3871 -0.1779
  413MOL0     H55753   0.532  11.049   9.753 -1.3285  0.9708 -1.1494
  413MOL0     H55754   0.410  11.135   9.838 -0.5873 -0.7282 -0.9252
  413MOL0     H55755   0.580  11.197   9.840  1.2985 -1.2117 -0.9432
  414MOL0     O55756   1.857   0.738   4.676 -0.5032  0.5237 -0.1052
  414MOL0     C55757   1.889   0.658   4.769 -0.3189 -0.6414  0.0223
  414MOL0     O55758   1.802   0.610   4.869  0.4110 -0.7239 -0.0489
  414MOL0     C55759   1.669   0.659   4.870 -0.8325  0.1457  0.9995
  414MOL0     C55760   1.571   0.562   4.877  0.1837  0.6405 -0.5862
  414MOL0     C55761   1.433   0.604   4.870 -0.6818 -0.1460  0.4711
  414MOL0     C55762   1.398   0.736   4.830 -0.3178 -0.5630 -0.2847
  414MOL0     O55763   1.264   0.774   4.804  0.4493 -0.2632 -0.0998
  414MOL0     C55764   1.151   0.708   4.866 -1.0471  0.0655  0.0825
  414MOL0     C55765   1.012   0.760   4.821 -0.5904 -0.7160 -0.6185
  414MOL0     C55766   1.002   0.901   4.849  0.5054 -0.5451  0.0969
  414MOL0     C55767   0.933   0.972   4.724  0.3884  0.3842  0.6124
  414MOL0     C55768   0.988   1.119   4.720 -0.0973 -0.5865  0.3111
  414MOL0     C55769   1.135   1.135   4.667  0.6216 -0.3477  0.6775
  414MOL0     C55770   1.191   1.279   4.654  0.3737 -0.4000  0.7282
  414MOL0     C55771   1.137   1.357   4.536 -0.5764 -0.4527  0.2050
  414MOL0     N55772   1.182   1.322   4.400  0.4539 -0.3090 -0.1792
  414MOL0     C55773   1.299   1.253   4.358 -0.3939  0.1057 -0.2631
  414MOL0     C55774   1.299   1.248   4.223 -0.4923 -0.5925 -0.0585
  414MOL0     C55775   1.391   1.168   4.139 -1.0588  0.1556  0.3377
  414MOL0     C55776   1.526   1.237   4.135  0.6442  1.3123  0.7792
  414MOL0     C55777   1.633   1.146   4.063 -0.1755  0.0369  0.0600
  414MOL0     C55778   1.756   1.235   4.057 -0.5393  0.6029  0.1248
  414MOL0     O55779   1.833   1.163   3.962 -0.1769  0.2201  1.1756
  414MOL0     C55780   1.951   1.218   3.930 -0.4084  0.4288 -0.2467
  414MOL0     C55781   2.016   1.136   3.833  0.0940  0.0906 -0.4629
  414MOL0     C55782   2.138   1.168   3.779  0.5877 -0.1873 -0.2768
  414MOL0     C55783   2.204   1.284   3.824  0.2224  0.3718 -0.9870
  414MOL0     C55784   2.344   1.309   3.777  0.1121 -0.0462 -0.3079
  414MOL0     O55785   2.437   1.331   3.870  0.4318  0.5988 -0.0727
  414MOL0     C55786   2.572   1.331   3.833  0.2827  0.0790 -0.1075
  414MOL0     C55787   2.639   1.450   3.816 -0.3220 -0.8706 -0.5293
  414MOL0     C55788   2.773   1.460   3.789 -0.4669  0.0066  0.3253
  414MOL0     C55789   2.841   1.341   3.758  0.1678 -0.1728  0.1535
  414MOL0     O55790   2.964   1.332   3.705  0.0142 -0.1228  0.3328
  414MOL0     C55791   3.064   1.415   3.777 -0.5651  0.4563  0.4138
  414MOL0     C55792   3.189   1.398   3.678  0.6195  1.0811 -0.5147
  414MOL0     C55793   3.302   1.497   3.704 -0.4997 -0.6661 -0.5508
  414MOL0     C55794   3.398   1.515   3.587  0.5012 -0.0727 -0.1243
  414MOL0     C55795   3.508   1.603   3.637 -0.0375 -0.3958 -0.4355
  414MOL0     C55796   3.617   1.633   3.532  0.1978  0.1608 -0.1356
  414MOL0     C55797   3.713   1.743   3.563 -0.1017 -0.2498  0.1027
  414MOL0     C55798   3.658   1.870   3.503 -0.1397  0.2097  0.4055
  414MOL0    Cl55799   3.750   2.007   3.567 -0.0183 -0.1752 -0.4377
  414MOL0     C55800   2.773   1.217   3.765 -0.3993 -0.8565  1.2479
  414MOL0     C55801   2.643   1.215   3.803  0.0948  0.1092 -0.7552
  414MOL0     O55802   2.369   1.318   3.656  0.3666 -0.4728  0.5237
  414MOL0     C55803   2.139   1.369   3.921  1.0852 -0.3264  0.3705
  414MOL0     C55804   2.014   1.337   3.968 -0.3581  0.2075 -0.1575
  414MOL0     N55805   1.199   1.333   4.183 -0.0994  0.4484 -0.0200
  414MOL0     N55806   1.132   1.377   4.285  0.1567 -0.2265 -0.2111
  414MOL0     C55807   1.501   0.830   4.832 -0.2139 -0.1099  0.1635
  414MOL0     C55808   1.634   0.787   4.840 -0.0457  0.3255 -0.0705
  414MOL0     C55809   2.031   0.601   4.770  0.6726 -0.1747  0.0844
  414MOL0     C55810   2.066   0.509   4.862 -0.4269  0.8567  0.3847
  414MOL0     C55811   2.200   0.449   4.866  0.0886  0.1182 -0.1877
  414MOL0     C55812   2.296   0.486   4.775  0.6745 -0.1681 -1.1350
  414MOL0     O55813   2.419   0.434   4.775 -0.2302 -0.5485  0.4411
  414MOL0     C55814   2.442   0.298   4.801  0.5695  0.2439  0.7118
  414MOL0     C55815   2.555   0.278   4.901 -0.6506 -0.3100 -0.5422
  414MOL0     C55816   2.685   0.334   4.854 -0.2801 -0.3890  0.5459
  414MOL0     C55817   2.788   0.343   4.966 -0.5145 -0.0138  0.8684
  414MOL0     C55818   2.926   0.329   4.910  0.2187 -0.8045 -0.3394
  414MOL0     C55819   3.039   0.326   4.871 -0.0505 -0.5336  0.2292
  414MOL0     C55820   2.263   0.592   4.689 -0.5479  0.7282 -0.5856
  414MOL0     C55821   2.132   0.645   4.682  0.1181  0.1021 -0.8496
  414MOL0     C55822   2.113   0.738   4.559 -0.2365  0.1302 -0.4730
  414MOL0     H55823   1.597   0.456   4.879  0.2653  0.6479 -1.1020
  414MOL0     H55824   1.344   0.543   4.868 -1.0019  0.3165  0.3621
  414MOL0     H55825   1.158   0.605   4.831 -0.3998  0.7112 -1.7845
  414MOL0     H55826   1.150   0.712   4.975 -1.6706 -0.1122  0.0908
  414MOL0     H55827   0.946   0.702   4.887  0.1987 -1.4790 -0.4815
  414MOL0     H55828   0.982   0.745   4.717  0.0137  0.2977 -0.9519
  414MOL0     H55829   1.101   0.940   4.877  0.2107  0.7349 -0.5741
  414MOL0     H55830   0.943   0.911   4.940  0.4014 -0.4225  0.0174
  414MOL0     H55831   0.965   0.928   4.628 -0.0081  0.9422  0.2181
  414MOL0     H55832   0.823   0.968   4.721  0.3264  1.5440 -2.4624
  414MOL0     H55833   0.925   1.183   4.658 -0.4594  2.6125  3.6077
  414MOL0     H55834   0.979   1.162   4.821  0.0612 -0.3594  0.2299
  414MOL0     H55835   1.198   1.074   4.733  0.3100  0.0786  1.3723
  414MOL0     H55836   1.142   1.093   4.566  3.2325  0.8596  0.2648
  414MOL0     H55837   1.298   1.287   4.675  0.0216 -0.3431  2.8147
  414MOL0     H55838   1.141   1.339   4.732 -1.9536  2.7957 -2.8660
  414MOL0     H55839   1.030   1.335   4.531 -0.4635 -0.6745 -1.9430
  414MOL0     H55840   1.152   1.463   4.558  0.2074 -0.4632 -0.2481
  414MOL0     H55841   1.364   1.204   4.430 -1.1849  1.2285  1.2706
  414MOL0     H55842   1.410   1.067   4.177 -1.6210 -0.4260 -0.8497
  414MOL0     H55843   1.343   1.155   4.041  1.6707  1.0260 -1.2325
  414MOL0     H55844   1.513   1.322   4.068 -1.3958  0.3166 -0.1741
  414MOL0     H55845   1.550   1.272   4.236 -1.0705 -1.0356  2.1153
  414MOL0     H55846   1.608   1.105   3.964 -1.3277  0.0533  0.3368
  414MOL0     H55847   1.658   1.059   4.124  1.9486 -0.0225 -0.7804
  414MOL0     H55848   1.802   1.233   4.157  1.0725  1.0388 -0.5802
  414MOL0     H55849   1.730   1.337   4.028  2.0862  0.9383 -1.3209
  414MOL0     H55850   1.971   1.041   3.805 -1.3521  1.1434 -1.8992
  414MOL0     H55851   2.179   1.097   3.709  0.7537 -0.1528 -0.2146
  414MOL0     H55852   2.587   1.542   3.839 -1.2288 -1.8995  1.8143
  414MOL0     H55853   2.819   1.553   3.756  3.2110 -1.6907  0.1569
  414MOL0     H55854   3.040   1.522   3.772 -1.2516  0.2998  0.3376
  414MOL0     H55855   3.073   1.373   3.877 -2.3210  2.2450  1.3779
  414MOL0     H55856   3.213   1.292   3.691  0.0082  0.9094 -0.7310
  414MOL0     H55857   3.159   1.409   3.573  0.3309  0.9639 -0.4466
  414MOL0     H55858   3.269   1.594   3.743 -0.3597 -1.0503  0.5730
  414MOL0     H55859   3.360   1.460   3.789 -0.1842  0.3601 -0.2981
  414MOL0     H55860   3.350   1.575   3.509  0.4197  0.0640  0.0306
  414MOL0     H55861   3.422   1.413   3.554  3.1936  0.4634 -0.0499
  414MOL0     H55862   3.556   1.565   3.728 -0.9558 -2.9352 -0.9185
  414MOL0     H55863   3.452   1.692   3.666  1.9378  1.2445 -1.4573
  414MOL0     H55864   3.667   1.537   3.522  1.6828  0.7755  0.8981
  414MOL0     H55865   3.578   1.653   3.432  3.8300  0.4642 -1.6703
  414MOL0     H55866   3.818   1.730   3.538 -0.0181 -0.6064  0.6278
  414MOL0     H55867   3.718   1.752   3.672 -0.5727  1.0565  0.0408
  414MOL0     H55868   3.650   1.874   3.394 -0.4333 -1.6566  0.3353
  414MOL0     H55869   3.559   1.892   3.545  0.3145  3.0919  0.1567
  414MOL0     H55870   2.832   1.132   3.732  2.9653  1.7561 -0.0864
  414MOL0     H55871   2.604   1.116   3.826  0.9424  0.0224  0.3984
  414MOL0     H55872   2.189   1.455   3.965 -0.7261  0.0208  1.8590
  414MOL0     H55873   1.967   1.412   4.031  1.0713  1.9676 -1.1108
  414MOL0     H55874   1.474   0.934   4.820  1.7523  0.6583  1.7233
  414MOL0     H55875   1.706   0.869   4.833 -0.5728  0.7751 -0.2841
  414MOL0     H55876   1.994   0.465   4.931 -2.8628  0.8623 -2.0184
  414MOL0     H55877   2.226   0.379   4.945  1.5408 -0.5868 -1.2562
  414MOL0     H55878   2.479   0.251   4.709  1.8640 -1.0631  1.8482
  414MOL0     H55879   2.357   0.240   4.836  2.4624 -3.2181 -0.0105
  414MOL0     H55880   2.577   0.171   4.910  1.0464 -0.0670 -1.4093
  414MOL0     H55881   2.532   0.326   4.997 -2.2805  1.2270 -1.6258
  414MOL0     H55882   2.662   0.438   4.830 -0.7033  0.2973  3.5289
  414MOL0     H55883   2.722   0.274   4.770  0.8059  0.6542  0.2708
  414MOL0     H55884   2.777   0.440   5.015 -1.9273  0.4030 -0.2396
  414MOL0     H55885   2.780   0.263   5.040 -1.1936 -0.9902 -0.2369
  414MOL0     H55886   3.139   0.334   4.833 -0.4042 -0.0874 -0.6336
  414MOL0     H55887   2.338   0.631   4.620 -0.7547  0.3602 -1.0196
  414MOL0     H55888   2.026   0.714   4.497 -0.0618 -2.8154  0.2512
  414MOL0     H55889   2.104   0.843   4.587  0.9153 -0.0058  0.4816
  414MOL0     H55890   2.196   0.735   4.489  0.8682  1.7082  0.7088
  415MOL0     O55891  10.988   5.511  11.095  0.4400 -0.3377  0.0066
  415MOL0     C55892  10.997   5.515  11.212 -0.5793  0.3251 -0.4375
  415MOL0     O55893  11.097   5.445  11.292 -0.2030  0.5988 -0.1084
  415MOL0     C55894  11.202   5.387  11.222  0.2275 -0.3455 -0.7958
  415MOL0     C55895  11.327   5.438  11.254 -0.1323 -0.1231  0.6805
  415MOL0     C55896  11.441   5.383  11.201 -0.8760  0.0486  0.7960
  415MOL0     C55897  11.431   5.273  11.106 -0.2950 -1.1163 -0.1956
  415MOL0     O55898  11.548   5.232  11.056  0.3005 -0.1262 -0.7915
  415MOL0     C55899  11.553   5.101  11.024  0.0238  0.9481 -0.4444
  415MOL0     C55900  11.702   5.068  11.014 -0.3796 -0.7178  0.4855
  415MOL0     C55901  11.787   5.091  11.134 -0.2830  0.0652  0.0932
  415MOL0     C55902  11.927   5.027  11.126 -0.4023  0.5640  0.6891
  415MOL0     C55903  11.909   4.870  11.153 -0.1471  0.4775  0.4961
  415MOL0     C55904  12.042   4.791  11.169 -0.7217  0.3868 -0.0479
  415MOL0     C55905  12.125   4.807  11.303 -0.4715 -0.0576  0.0221
  415MOL0     C55906  12.174   4.670  11.370  1.3490 -0.8734  0.1793
  415MOL0     N55907  12.266   4.589  11.280 -0.3527 -0.9849  0.5812
  415MOL0     C55908  12.396   4.617  11.251 -0.0804  0.0545  0.7849
  415MOL0     C55909  12.442   4.501  11.189 -0.2835 -0.2487  0.7992
  415MOL0     C55910  12.587   4.466  11.150 -0.1549  0.2611 -0.9107
  415MOL0     C55911  12.660   4.353  11.235  0.1858 -0.8375 -0.7443
  415MOL0     C55912  12.807   4.342  11.205 -0.9501  0.1822 -0.1397
  415MOL0     C55913  12.913   4.388  11.309  0.3771  0.2024  0.1662
  415MOL0     O55914  12.894   4.528  11.323  0.8682 -0.2182 -0.0732
  415MOL0     C55915  12.995   4.593  11.386 -0.0771 -0.6486 -0.1380
  415MOL0     C55916  13.076   4.539  11.494  0.8330 -0.2159  0.3945
  415MOL0     C55917  13.163   4.631  11.549 -0.4606  0.5209 -0.0262
  415MOL0     C55918  13.178   4.763  11.508 -0.0375 -0.0229  0.1866
  415MOL0     C55919  13.285   4.844  11.576 -0.0242  0.5186 -0.5515
  415MOL0     O55920  13.335   4.802  11.707  0.1742  0.2338 -0.7380
  415MOL0     C55921  13.448   4.847  11.771  0.0690 -0.2028 -0.2063
  415MOL0     C55922  13.483   4.780  11.886  0.1419 -0.5531 -0.2185
  415MOL0     C55923  13.594   4.815  11.966 -0.2451  0.3369  1.2464
  415MOL0     C55924  13.673   4.919  11.928 -0.6814  0.1967  0.3506
  415MOL0     O55925  13.780   4.946  12.015  0.1102 -0.3027 -0.1055
  415MOL0     C55926  13.901   5.003  11.963  0.6694 -0.4587 -0.0746
  415MOL0     C55927  14.016   4.995  12.066  0.2347  0.1599 -0.0037
  415MOL0     C55928  14.139   5.061  12.001 -0.4760  0.1718  0.6928
  415MOL0     C55929  14.258   5.056  12.088 -0.5777 -1.0802 -0.2346
  415MOL0     C55930  14.381   5.102  11.995  1.1251 -0.5138 -0.0612
  415MOL0     C55931  14.518   5.084  12.067  0.6479 -0.5046  0.2488
  415MOL0     C55932  14.628   5.142  11.977  0.2256 -0.4620  0.6722
  415MOL0     C55933  14.766   5.103  12.015 -0.1095  0.1734  0.2285
  415MOL0    Cl55934  14.881   5.195  11.914 -0.1999 -0.2375  0.1264
  415MOL0     C55935  13.647   4.992  11.809  0.3037  1.0911 -1.3650
  415MOL0     C55936  13.528   4.955  11.743 -0.0891  0.8870 -0.1040
  415MOL0     O55937  13.323   4.940  11.507 -0.1384 -0.6636 -0.5148
  415MOL0     C55938  13.099   4.819  11.404  0.5438  1.0828 -0.2034
  415MOL0     C55939  13.004   4.727  11.345  0.3478  0.5901 -0.3030
  415MOL0     N55940  12.336   4.420  11.177  0.8786 -0.1087  0.7888
  415MOL0     N55941  12.231   4.466  11.231  0.9074  0.6566  0.3971
  415MOL0     C55942  11.303   5.230  11.063  0.1065 -0.0332 -0.0025
  415MOL0     C55943  11.188   5.284  11.135 -0.0410 -0.2140  0.2107
  415MOL0     C55944  10.888   5.598  11.279 -1.1236 -0.3221  0.2244
  415MOL0     C55945  10.792   5.668  11.192 -0.8145  0.0001 -0.5041
  415MOL0     C55946  10.693   5.737  11.248  0.5500 -0.4797  0.1715
  415MOL0     C55947  10.691   5.746  11.392 -0.1513 -0.7820 -0.6201
  415MOL0     O55948  10.593   5.811  11.463 -0.8721 -0.3604  0.5567
  415MOL0     C55949  10.474   5.838  11.394  0.2300 -0.3503  0.1398
  415MOL0     C55950  10.358   5.884  11.471 -0.2694  0.7152  0.1430
  415MOL0     C55951  10.306   5.782  11.566  0.7545 -0.3570 -0.0962
  415MOL0     C55952  10.215   5.857  11.670 -0.3072 -0.3660 -0.1736
  415MOL0     C55953  10.302   5.899  11.782 -1.4559 -0.8839 -0.2604
  415MOL0     C55954  10.383   5.910  11.873  0.1500  0.1589 -0.6536
  415MOL0     C55955  10.789   5.689  11.477  0.2624 -0.7754 -0.3570
  415MOL0     C55956  10.884   5.613  11.421 -0.0915  0.8826  0.1525
  415MOL0     C55957  10.963   5.530  11.518 -0.3268 -0.2553 -0.4445
  415MOL0     H55958  11.332   5.530  11.312  3.4740  0.3041 -0.0688
  415MOL0     H55959  11.535   5.430  11.226  0.5452 -1.1254 -1.9051
  415MOL0     H55960  11.502   5.045  11.103  0.6305  2.4845  1.1003
  415MOL0     H55961  11.510   5.078  10.926 -2.3816 -1.5961  1.0583
  415MOL0     H55962  11.751   5.113  10.927  0.9894 -0.5877  1.2959
  415MOL0     H55963  11.702   4.960  10.994 -0.4566 -0.8198  1.0245
  415MOL0     H55964  11.736   5.075  11.230 -1.6534 -3.4629 -1.0471
  415MOL0     H55965  11.806   5.198  11.128 -1.3742  0.2669  0.0484
  415MOL0     H55966  11.974   5.035  11.028  0.5568 -0.9174  0.9901
  415MOL0     H55967  11.990   5.066  11.206  0.0860  2.4213 -0.5438
  415MOL0     H55968  11.841   4.860  11.238 -2.9282 -1.7538 -1.7866
  415MOL0     H55969  11.858   4.831  11.065  0.1844  0.7718  0.1671
  415MOL0     H55970  12.026   4.684  11.154  1.3120 -0.0165  0.3717
  415MOL0     H55971  12.110   4.832  11.094 -0.6230  1.0734  0.4027
  415MOL0     H55972  12.057   4.857  11.373  1.1190  0.6780  1.0785
  415MOL0     H55973  12.210   4.874  11.288 -1.7476  1.0713 -2.7057
  415MOL0     H55974  12.232   4.696  11.460 -0.0194 -1.0681  1.1460
  415MOL0     H55975  12.098   4.594  11.391 -0.5340  1.0147  0.5731
  415MOL0     H55976  12.465   4.696  11.279  0.8989 -0.2298 -0.6945
  415MOL0     H55977  12.580   4.431  11.046  0.0730  0.8275 -1.1194
  415MOL0     H55978  12.649   4.555  11.141  0.2370 -0.0846 -1.7333
  415MOL0     H55979  12.656   4.388  11.338  0.8968  0.1118 -1.0314
  415MOL0     H55980  12.608   4.257  11.225  0.8325 -1.2686 -0.0528
  415MOL0     H55981  12.833   4.390  11.110  3.5395 -0.7951  0.3579
  415MOL0     H55982  12.823   4.237  11.179 -2.2883 -0.4320  1.3319
  415MOL0     H55983  13.016   4.361  11.283 -0.4238 -1.3493 -1.6764
  415MOL0     H55984  12.893   4.335  11.403  0.5544  1.9014  1.2059
  415MOL0     H55985  13.071   4.437  11.531  1.7511 -0.3589  0.1490
  415MOL0     H55986  13.224   4.591  11.629 -0.3485 -0.8829 -0.7833
  415MOL0     H55987  13.419   4.694  11.903  1.4600 -2.1102 -2.6170
  415MOL0     H55988  13.618   4.753  12.052 -1.5252  2.2322  3.1085
  415MOL0     H55989  13.923   4.956  11.867  0.3660 -2.8961  0.9619
  415MOL0     H55990  13.879   5.106  11.934 -1.4951 -0.4639  1.3028
  415MOL0     H55991  13.989   5.048  12.157 -0.2872  2.2197 -1.2907
  415MOL0     H55992  14.030   4.888  12.085 -1.0281  0.2858  1.9088
  415MOL0     H55993  14.164   5.003  11.911  0.2223  1.2014  0.1999
  415MOL0     H55994  14.111   5.164  11.977 -2.6961 -0.1562  1.6188
  415MOL0     H55995  14.276   4.960  12.136 -1.5092 -0.2112  1.9994
  415MOL0     H55996  14.257   5.131  12.168 -1.0132  1.0595 -2.1162
  415MOL0     H55997  14.376   5.204  11.956 -0.1321 -0.3081  0.5724
  415MOL0     H55998  14.377   5.040  11.905 -1.3109 -0.2044 -0.2325
  415MOL0     H55999  14.522   5.147  12.157 -0.3370 -0.2450  0.1237
  415MOL0     H56000  14.538   4.981  12.096 -0.0211 -0.7365 -0.1028
  415MOL0     H56001  14.616   5.251  11.973 -0.2387 -0.5148 -3.2429
  415MOL0     H56002  14.604   5.116  11.873 -1.0206  0.9496  0.5745
  415MOL0     H56003  14.791   5.121  12.120  1.2076 -2.8767  0.5382
  415MOL0     H56004  14.790   4.997  12.003  0.2506  0.2326  0.4133
  415MOL0     H56005  13.700   5.084  11.785  0.1945  1.5395  0.0288
  415MOL0     H56006  13.497   5.015  11.658  2.0084  2.3210  0.0635
  415MOL0     H56007  13.101   4.924  11.374  0.1539  0.9528 -0.6912
  415MOL0     H56008  12.932   4.756  11.270 -1.2897  4.2354  2.3222
  415MOL0     H56009  11.287   5.157  10.984 -0.1011  1.4493 -1.3782
  415MOL0     H56010  11.087   5.246  11.140 -1.5562  3.3074 -0.5594
  415MOL0     H56011  10.804   5.675  11.084 -0.2806  2.1161 -0.3624
  415MOL0     H56012  10.624   5.793  11.186  0.7332  1.4721  1.5931
  415MOL0     H56013  10.446   5.748  11.338  0.5699 -0.2552 -0.1905
  415MOL0     H56014  10.497   5.910  11.315  1.5571 -1.1101 -0.2127
  415MOL0     H56015  10.271   5.911  11.409  0.7445  1.7113 -0.8831
  415MOL0     H56016  10.380   5.968  11.537 -2.1712  0.5932  1.0095
  415MOL0     H56017  10.384   5.731  11.623  1.0441  1.1559  0.9304
  415MOL0     H56018  10.239   5.710  11.517  0.6457 -0.5626  0.3540
  415MOL0     H56019  10.180   5.949  11.622  1.2279  0.9390  1.1180
  415MOL0     H56020  10.133   5.807  11.722  1.0851 -0.4233  2.0887
  415MOL0     H56021  10.448   5.905  11.958 -0.9117 -0.5320  0.1433
  415MOL0     H56022  10.774   5.687  11.584 -0.5733 -1.8359 -0.4781
  415MOL0     H56023  10.929   5.527  11.622  1.8022 -4.1280  0.3150
  415MOL0     H56024  10.948   5.426  11.487 -0.0551  0.3296 -2.7176
  415MOL0     H56025  11.069   5.556  11.509 -0.2670 -1.1154 -3.0217
  416MOL0     O56026   0.090  11.048   8.745 -0.4812 -0.5334 -0.5418
  416MOL0     C56027   0.082  10.985   8.848 -0.2845 -0.8030  0.6000
  416MOL0     O56028   0.189  10.967   8.937 -0.1697  0.0284  0.6978
  416MOL0     C56029   0.319  10.982   8.888 -0.6500 -0.0700 -0.1197
  416MOL0     C56030   0.371  11.105   8.853  1.3264 -0.3382  0.4620
  416MOL0     C56031   0.506  11.116   8.818  0.6428  0.1772 -0.0673
  416MOL0     C56032   0.589  11.007   8.811  0.0568 -0.1924  0.5070
  416MOL0     O56033   0.717  11.029   8.781  0.2696 -0.0687 -0.6120
  416MOL0     C56034   0.812  10.923   8.816 -0.8226  0.1724 -0.1931
  416MOL0     C56035   0.958  10.988   8.832  0.1006 -0.8706  0.2462
  416MOL0     C56036   0.979  11.093   8.945  0.0056 -0.3994 -0.1513
  416MOL0     C56037   1.047  11.026   9.062 -0.9918  0.6198  0.4598
  416MOL0     C56038   1.085  11.120   9.164  0.6088  0.3984  0.3726
  416MOL0     C56039   1.120  11.053   9.296  0.3374  0.6354 -0.9138
  416MOL0     C56040   1.265  10.993   9.291 -0.0637 -0.2058 -0.0838
  416MOL0     C56041   1.305  10.943   9.427  0.1987  0.0525  0.4618
  416MOL0     N56042   1.442  10.918   9.420 -0.4332  0.1753 -0.7704
  416MOL0     C56043   1.501  10.826   9.345  0.4948 -0.3701  1.0518
  416MOL0     C56044   1.631  10.842   9.365 -0.5496 -1.0249  0.4394
  416MOL0     C56045   1.746  10.753   9.311 -0.2578  0.7268 -0.0292
  416MOL0     C56046   1.863  10.830   9.270 -0.2818  0.0265  0.9967
  416MOL0     C56047   1.969  10.727   9.231 -0.1380 -0.2532 -0.2418
  416MOL0     C56048   2.099  10.783   9.166  0.1950 -0.7586  0.0214
  416MOL0     O56049   2.161  10.864   9.267  0.0484  0.8581  0.6198
  416MOL0     C56050   2.287  10.908   9.244  0.0635 -0.1927 -0.3373
  416MOL0     C56051   2.359  10.976   9.347  0.4770  0.0971 -0.4282
  416MOL0     C56052   2.499  11.012   9.331 -0.3428  0.0043  0.2659
  416MOL0     C56053   2.564  10.984   9.202 -0.8124  0.6709  0.5188
  416MOL0     C56054   2.701  11.031   9.184 -0.1096  0.5017 -1.0857
  416MOL0     O56055   2.770  11.079   9.294 -0.6572 -0.0046 -0.2562
  416MOL0     C56056   2.886  11.151   9.270 -0.6726 -0.8488 -0.5388
  416MOL0     C56057   2.886  11.291   9.301 -0.4786 -0.5115  1.1684
  416MOL0     C56058   2.994  11.364   9.284  0.3376 -0.2794  0.0005
  416MOL0     C56059   3.115  11.308   9.246  0.1829 -0.1635 -0.0125
  416MOL0     O56060   3.235  11.378   9.233 -0.3079  0.9744 -0.7282
  416MOL0     C56061   3.220  11.507   9.180 -0.1607  0.1663 -0.9747
  416MOL0     C56062   3.366  11.559   9.174  0.0243 -0.5426 -0.6607
  416MOL0     C56063   3.457  11.490   9.073  0.1336 -0.0715 -0.3764
  416MOL0     C56064   3.608  11.514   9.099 -0.0738 -0.1315  0.3969
  416MOL0     C56065   3.680  11.473   8.974  0.7130 -0.2190  0.7759
  416MOL0     C56066   3.832  11.498   8.970 -0.2932  0.7293 -0.0488
  416MOL0     C56067   3.885  11.451   8.834 -0.0109  0.8596  0.1459
  416MOL0     C56068   4.035  11.436   8.838 -0.0504  0.7530  1.0079
  416MOL0    Cl56069   4.107  11.444   8.681  0.2728 -0.0083  0.0435
  416MOL0     C56070   3.123  11.168   9.228 -0.0649 -0.7487  0.1261
  416MOL0     C56071   3.008  11.094   9.247 -0.5994 -0.0501 -0.1021
  416MOL0     O56072   2.744  11.035   9.069 -0.4238  0.1349 -0.3505
  416MOL0     C56073   2.495  10.914   9.102  0.5314 -0.1505 -0.5931
  416MOL0     C56074   2.355  10.891   9.122  0.3851 -0.3756  0.5483
  416MOL0     N56075   1.649  10.943   9.455  1.0138 -0.1252 -0.1262
  416MOL0     N56076   1.530  10.982   9.496 -0.3646  0.3256 -0.0449
  416MOL0     C56077   0.529  10.881   8.849 -0.3647 -0.6170 -1.4425
  416MOL0     C56078   0.401  10.863   8.897  0.4811 -0.6634  0.2064
  416MOL0     C56079  -0.064  10.966   8.887 -0.3756  0.1882 -0.4216
  416MOL0     C56080  -0.157  11.058   8.837 -0.1087  0.0592 -0.1749
  416MOL0     C56081  -0.295  11.039   8.867 -1.2336 -0.0117  0.4454
  416MOL0     C56082  -0.340  10.922   8.931  0.1572 -0.9237 -0.1754
  416MOL0     O56083  -0.476  10.912   8.952 -0.2003  0.0429  0.0586
  416MOL0     C56084  -0.522  10.847   9.071 -0.1395 -0.3655  0.8707
  416MOL0     C56085  -0.677  10.847   9.093 -0.6077  0.5025 -0.4707
  416MOL0     C56086  -0.751  10.747   9.001 -0.7642  0.1116  0.2632
  416MOL0     C56087  -0.898  10.776   8.993 -0.1758  0.3538  0.5362
  416MOL0     C56088  -0.963  10.697   8.885 -0.6052 -0.2468 -0.1497
  416MOL0     C56089  -1.013  10.621   8.808 -0.2934  0.4662 -0.7192
  416MOL0     C56090  -0.248  10.827   8.974  0.8019  0.6330  0.4714
  416MOL0     C56091  -0.105  10.848   8.951 -0.6547 -0.2776  1.2104
  416MOL0     C56092  -0.011  10.734   8.979 -1.1809  0.0306 -0.3256
  416MOL0     H56093   0.312  11.194   8.868 -1.9663 -2.7416  3.7992
  416MOL0     H56094   0.551  11.213   8.803  0.8655 -0.1391 -1.7005
  416MOL0     H56095   0.787  10.863   8.904 -1.5039 -0.6093 -0.8982
  416MOL0     H56096   0.813  10.857   8.729 -0.4648  2.1364 -1.7381
  416MOL0     H56097   0.983  11.050   8.746  3.5306  0.3081  1.9376
  416MOL0     H56098   1.030  10.907   8.819 -1.3913 -2.0996 -0.7500
  416MOL0     H56099   0.886  11.139   8.979  0.9546  0.9496  0.6989
  416MOL0     H56100   1.044  11.176   8.915 -1.1860  0.3105 -0.8356
  416MOL0     H56101   0.972  10.961   9.109  0.7646 -0.8266  1.3742
  416MOL0     H56102   1.134  10.973   9.023 -2.5011 -0.6311 -1.3874
  416MOL0     H56103   1.174  11.176   9.133 -0.0904  2.1278  1.4150
  416MOL0     H56104   1.002  11.187   9.187  0.1136  0.6936 -1.9963
  416MOL0     H56105   1.120  11.131   9.373 -0.4493  0.1277 -0.3914
  416MOL0     H56106   1.033  10.994   9.324 -0.9273  3.3170  1.3040
  416MOL0     H56107   1.334  11.070   9.256  0.1400 -0.2676  0.1782
  416MOL0     H56108   1.262  10.903   9.229 -0.3830 -0.5690  0.4524
  416MOL0     H56109   1.287  11.028   9.495 -0.5766  0.4747 -0.2553
  416MOL0     H56110   1.239  10.859   9.449  0.8795 -0.2161  1.5360
  416MOL0     H56111   1.452  10.754   9.280 -0.0997  0.9694 -0.0360
  416MOL0     H56112   1.776  10.670   9.375 -0.4191  0.5086 -0.2319
  416MOL0     H56113   1.705  10.707   9.220 -0.7030 -1.5786  1.2566
  416MOL0     H56114   1.839  10.897   9.188  1.8742  1.0490  1.1358
  416MOL0     H56115   1.898  10.905   9.342 -1.3003  1.0725  0.4259
  416MOL0     H56116   1.925  10.650   9.167  0.1880  0.1801 -0.9932
  416MOL0     H56117   1.997  10.684   9.328  0.0798  0.7259  0.1367
  416MOL0     H56118   2.083  10.841   9.074  0.4682  0.9964  1.0220
  416MOL0     H56119   2.156  10.698   9.129 -0.2168 -0.4176 -1.4884
  416MOL0     H56120   2.319  10.977   9.448 -0.4977  3.2962 -0.7246
  416MOL0     H56121   2.553  11.060   9.412 -2.9026  2.1216  0.8533
  416MOL0     H56122   2.799  11.346   9.336  1.7588  3.2336  1.4561
  416MOL0     H56123   2.984  11.471   9.295  1.7434  0.0094 -1.2316
  416MOL0     H56124   3.165  11.504   9.086 -0.9184 -0.1007 -0.5295
  416MOL0     H56125   3.168  11.574   9.250  1.0151  2.3565 -2.0945
  416MOL0     H56126   3.363  11.667   9.161 -0.5299 -0.6195 -1.2486
  416MOL0     H56127   3.406  11.529   9.271 -1.5968 -0.0007  0.2202
  416MOL0     H56128   3.444  11.381   9.079 -1.0077  0.1310  2.6843
  416MOL0     H56129   3.428  11.506   8.969 -0.4053 -0.3871 -0.2770
  416MOL0     H56130   3.647  11.457   9.184  3.3547 -0.9569 -1.5392
  416MOL0     H56131   3.635  11.620   9.102  2.0658 -0.4928 -2.0730
  416MOL0     H56132   3.643  11.535   8.892 -3.5251 -3.0427  0.2320
  416MOL0     H56133   3.661  11.369   8.948  0.9722 -0.3152  0.9759
  416MOL0     H56134   3.862  11.603   8.981  0.1830  0.8574 -2.2424
  416MOL0     H56135   3.881  11.435   9.045 -0.4305  0.5867 -0.0807
  416MOL0     H56136   3.850  11.519   8.756  0.7686 -0.4541 -1.4088
  416MOL0     H56137   3.843  11.350   8.826 -1.9615  1.3803  2.4522
  416MOL0     H56138   4.075  11.509   8.908 -1.0033  1.6286  0.6521
  416MOL0     H56139   4.066  11.335   8.869  3.1328  1.2092 -0.2796
  416MOL0     H56140   3.222  11.125   9.220 -0.1200 -0.7373 -0.7999
  416MOL0     H56141   2.997  10.987   9.234 -1.0535 -0.2489  1.6769
  416MOL0     H56142   2.551  10.900   9.010 -0.9251  0.3774 -1.5919
  416MOL0     H56143   2.307  10.848   9.034  1.3261  0.5745 -0.4513
  416MOL0     H56144   0.594  10.794   8.855  0.6795  0.1356 -1.6509
  416MOL0     H56145   0.363  10.764   8.922  0.6795 -1.3346 -2.0105
  416MOL0     H56146  -0.125  11.151   8.791 -1.4822  1.0486  0.7572
  416MOL0     H56147  -0.376  11.109   8.848 -0.8942  0.5543  1.0643
  416MOL0     H56148  -0.476  10.899   9.155  1.2350  0.0114 -0.0806
  416MOL0     H56149  -0.485  10.744   9.074 -1.1814 -0.7275  1.9957
  416MOL0     H56150  -0.713  10.948   9.070 -0.9041  0.3095 -0.8641
  416MOL0     H56151  -0.697  10.822   9.197  1.6861  0.5474  0.0490
  416MOL0     H56152  -0.724  10.641   9.013  1.2327  0.6497  0.9262
  416MOL0     H56153  -0.712  10.775   8.903  0.5674  0.7708  0.9593
  416MOL0     H56154  -0.948  10.741   9.083 -1.1245  1.4516  0.4688
  416MOL0     H56155  -0.921  10.883   8.983 -2.1887  0.0655  1.5112
  416MOL0     H56156  -1.065  10.550   8.747 -0.9057  0.9848 -0.8095
  416MOL0     H56157  -0.280  10.731   9.012  0.9141  0.5729  0.4141
  416MOL0     H56158   0.055  10.712   8.895 -1.8470  0.2391 -0.9146
  416MOL0     H56159   0.041  10.745   9.075  0.3151 -3.1552 -0.6577
  416MOL0     H56160  -0.072  10.647   9.003  1.0927 -0.6350  4.0744
  417MOL0     O56161   9.226  11.316   5.830  0.0868 -0.2612  1.1267
  417MOL0     C56162   9.186  11.305   5.942 -0.0014  0.4486 -0.1888
  417MOL0     O56163   9.258  11.323   6.055 -0.1930  0.0245  0.7312
  417MOL0     C56164   9.390  11.339   6.053 -0.5178  0.1083 -0.8032
  417MOL0     C56165   9.490  11.343   5.953  0.2384  0.1454  0.2587
  417MOL0     C56166   9.629  11.370   5.978 -0.0407 -0.1198  0.2885
  417MOL0     C56167   9.673  11.405   6.107  0.5745 -0.1368  0.8406
  417MOL0     O56168   9.811  11.426   6.134  0.2408  0.0789  0.4310
  417MOL0     C56169   9.841  11.563   6.121  0.2518 -0.6053  0.8259
  417MOL0     C56170   9.993  11.581   6.116  0.3945  0.0705  0.0905
  417MOL0     C56171  10.026  11.731   6.116 -0.4750 -0.3393 -0.0535
  417MOL0     C56172  10.169  11.752   6.091 -0.4127  0.8490  0.3701
  417MOL0     C56173  10.199  11.895   6.052 -0.0948  0.0654  0.3234
  417MOL0     C56174  10.355  11.909   6.025  0.0749  0.3877  0.6061
  417MOL0     C56175  10.409  12.052   6.027  0.2635 -0.0887 -0.5117
  417MOL0     C56176  10.382  12.111   5.889  0.1385 -0.0384  1.2603
  417MOL0     N56177  10.489  12.072   5.799 -0.6626 -0.0366 -0.3260
  417MOL0     C56178  10.611  12.146   5.768  0.2491  0.4428 -0.1612
  417MOL0     C56179  10.681  12.059   5.693 -0.2730 -0.6477 -0.9490
  417MOL0     C56180  10.816  12.105   5.649  0.5371  0.7636  0.4074
  417MOL0     C56181  10.919  12.059   5.755  1.0624  0.2864 -1.0194
  417MOL0     C56182  10.930  11.899   5.777  0.2780 -0.4031  0.1125
  417MOL0     C56183  10.976  11.811   5.653 -1.0580  0.2042  0.7211
  417MOL0     O56184  11.061  11.864   5.556  0.2180  0.2751  0.1534
  417MOL0     C56185  11.194  11.850   5.585 -0.0565  0.1276  0.4466
  417MOL0     C56186  11.250  11.803   5.702 -0.4143  0.5497 -0.1828
  417MOL0     C56187  11.387  11.783   5.712 -0.4066  0.0237 -0.2613
  417MOL0     C56188  11.471  11.810   5.608  0.0177  0.3180 -0.2462
  417MOL0     C56189  11.620  11.795   5.626 -0.6795 -0.0031 -0.7556
  417MOL0     O56190  11.662  11.770   5.757  0.3177  0.1869 -0.0801
  417MOL0     C56191  11.787  11.707   5.782 -0.2599  0.0848 -0.2750
  417MOL0     C56192  11.845  11.745   5.903 -0.5021  0.3462  0.4501
  417MOL0     C56193  11.976  11.708   5.933 -0.8250  0.2905  0.7211
  417MOL0     C56194  12.045  11.617   5.855  0.1673 -0.1604  0.5184
  417MOL0     O56195  12.182  11.595   5.886 -0.2836 -0.2458  0.5951
  417MOL0     C56196  12.275  11.515   5.800  0.2400 -1.1360 -0.2926
  417MOL0     C56197  12.318  11.609   5.678 -0.4492 -0.5330 -0.0455
  417MOL0     C56198  12.392  11.738   5.724 -0.6285  0.1851  0.0474
  417MOL0     C56199  12.546  11.717   5.726 -0.4590  0.3701 -0.3298
  417MOL0     C56200  12.633  11.805   5.825 -0.0473  0.1907  0.4387
  417MOL0     C56201  12.625  11.951   5.780  0.1088 -0.3091  0.5106
  417MOL0     C56202  12.671  12.046   5.899 -0.1859 -0.0849 -0.2945
  417MOL0     C56203  12.815  12.024   5.924  0.8432 -0.5007 -0.0614
  417MOL0    Cl56204  12.846  12.118   6.065  0.2472  0.1743 -0.0190
  417MOL0     C56205  11.979  11.575   5.737 -0.2104  0.5386  0.5778
  417MOL0     C56206  11.860  11.620   5.695  0.8958  0.3097 -0.0607
  417MOL0     O56207  11.692  11.830   5.530 -0.2093  0.4062  0.4111
  417MOL0     C56208  11.415  11.856   5.485 -0.5065 -1.1482 -0.7730
  417MOL0     C56209  11.276  11.872   5.476 -0.2896 -0.6497  0.6890
  417MOL0     N56210  10.608  11.943   5.688 -0.5246  0.6955  0.3252
  417MOL0     N56211  10.498  11.952   5.740  0.9877  0.3481 -0.2201
  417MOL0     C56212   9.579  11.389   6.204 -0.2971 -0.4475  1.0001
  417MOL0     C56213   9.448  11.345   6.179  0.1263 -0.3581  0.0676
  417MOL0     C56214   9.050  11.261   5.967 -0.1727 -0.5254 -0.2539
  417MOL0     C56215   9.018  11.177   6.071  0.0265 -0.2195  0.0104
  417MOL0     C56216   8.885  11.133   6.084  0.5602  0.2359 -0.0175
  417MOL0     C56217   8.783  11.186   6.002  0.3689 -0.1576 -0.0944
  417MOL0     O56218   8.654  11.138   6.019  0.5440  0.3706  0.4662
  417MOL0     C56219   8.581  11.085   5.904  0.2820 -0.1142  0.0441
  417MOL0     C56220   8.517  10.949   5.929  0.6299  0.5046  0.1727
  417MOL0     C56221   8.391  10.951   6.027  0.0129 -0.6450 -0.0138
  417MOL0     C56222   8.342  10.809   6.049  0.4337  0.1726  0.0765
  417MOL0     C56223   8.278  10.762   5.926 -0.8882 -0.3302 -0.3041
  417MOL0     C56224   8.228  10.722   5.830  0.8327  0.6506  1.2315
  417MOL0     C56225   8.810  11.274   5.907 -0.1774  0.4217  0.4224
  417MOL0     C56226   8.941  11.313   5.885  0.2325 -0.0934 -0.5659
  417MOL0     C56227   8.964  11.419   5.783 -0.3441 -0.2396  0.7833
  417MOL0     H56228   9.459  11.317   5.852  1.0813 -2.8542  0.6694
  417MOL0     H56229   9.702  11.361   5.898 -0.5327 -1.5987 -0.0198
  417MOL0     H56230   9.805  11.595   6.023 -2.5715 -0.1567  1.9043
  417MOL0     H56231   9.798  11.628   6.198 -0.3253 -0.5483  0.4592
  417MOL0     H56232  10.025  11.540   6.020  0.3346  0.4980 -0.1172
  417MOL0     H56233  10.053  11.533   6.194  1.0424  0.0464 -0.4164
  417MOL0     H56234  10.001  11.781   6.210 -0.7595  0.7712 -0.7104
  417MOL0     H56235   9.963  11.758   6.031 -0.1428 -2.5377 -1.0834
  417MOL0     H56236  10.219  11.744   6.188  2.1729  3.1071 -0.6274
  417MOL0     H56237  10.215  11.683   6.019 -0.2465  0.3953  0.8985
  417MOL0     H56238  10.158  11.918   5.953 -0.6036  3.3119  1.1486
  417MOL0     H56239  10.171  11.973   6.124 -0.6429 -0.5325  0.7651
  417MOL0     H56240  10.411  11.870   6.111  0.9282  2.9110  1.2861
  417MOL0     H56241  10.384  11.851   5.937  0.7516  0.7662  0.5754
  417MOL0     H56242  10.517  12.055   6.048 -0.2637 -1.4864  3.1761
  417MOL0     H56243  10.361  12.115   6.102  1.1730  0.9636 -0.7884
  417MOL0     H56244  10.282  12.083   5.855  0.4925  1.1250 -0.8835
  417MOL0     H56245  10.386  12.221   5.886 -2.2653  0.0821 -0.0409
  417MOL0     H56246  10.641  12.245   5.801 -1.1688  0.2910  1.8092
  417MOL0     H56247  10.839  12.065   5.550 -1.3411 -0.0644  0.2579
  417MOL0     H56248  10.807  12.213   5.635 -0.0650  0.7982  0.9869
  417MOL0     H56249  11.012  12.110   5.727  2.0264 -0.6760  0.3067
  417MOL0     H56250  10.894  12.098   5.854  3.8892 -2.9867  1.2140
  417MOL0     H56251  10.832  11.859   5.804 -0.5147  1.1804 -0.3300
  417MOL0     H56252  10.995  11.880   5.863  0.1405  1.5930  0.7172
  417MOL0     H56253  10.881  11.789   5.602  0.6180 -1.3566 -2.0050
  417MOL0     H56254  11.015  11.716   5.691 -2.7235 -2.1657 -2.8652
  417MOL0     H56255  11.191  11.780   5.790  1.2513 -1.1119  0.5642
  417MOL0     H56256  11.410  11.753   5.813 -2.2251  1.7783  0.7305
  417MOL0     H56257  11.787  11.807   5.971 -0.2091 -1.4780  2.4682
  417MOL0     H56258  12.016  11.749   6.025  0.7627 -0.3323  0.3319
  417MOL0     H56259  12.365  11.488   5.857 -1.0926 -0.3681  2.3594
  417MOL0     H56260  12.225  11.423   5.770 -0.6745 -0.8422  0.2933
  417MOL0     H56261  12.387  11.562   5.606  0.8942 -1.2779  1.6444
  417MOL0     H56262  12.224  11.631   5.627 -0.9548 -1.1279  0.6167
  417MOL0     H56263  12.358  11.828   5.672 -0.4779 -0.5612 -1.3886
  417MOL0     H56264  12.361  11.752   5.828  0.8498 -3.0025  1.0507
  417MOL0     H56265  12.578  11.714   5.622 -2.1903  0.3662 -0.8978
  417MOL0     H56266  12.560  11.612   5.753  0.8569  0.9291  1.3481
  417MOL0     H56267  12.737  11.773   5.833 -0.6693 -1.7043  1.7649
  417MOL0     H56268  12.589  11.808   5.925 -1.0644 -1.9040  0.1251
  417MOL0     H56269  12.688  11.959   5.691 -0.8261  2.6352  0.0185
  417MOL0     H56270  12.525  11.989   5.758 -0.4164 -0.8368  1.8703
  417MOL0     H56271  12.610  12.022   5.987  0.6128 -0.7497  0.0928
  417MOL0     H56272  12.646  12.151   5.881 -3.8918 -1.0407 -1.6520
  417MOL0     H56273  12.836  11.918   5.940 -0.7833 -0.6074  1.7411
  417MOL0     H56274  12.877  12.050   5.837 -0.9180 -0.1155 -1.2521
  417MOL0     H56275  12.033  11.515   5.665  0.5215  1.4103  0.3827
  417MOL0     H56276  11.818  11.594   5.599 -1.9326  1.4446  0.7712
  417MOL0     H56277  11.481  11.854   5.399 -1.2126 -0.7198 -1.3371
  417MOL0     H56278  11.245  11.886   5.373  4.0360  3.2754 -0.4648
  417MOL0     H56279   9.611  11.381   6.308  1.6069 -1.2912  0.3928
  417MOL0     H56280   9.382  11.331   6.264 -3.6465  2.9374 -1.9686
  417MOL0     H56281   9.095  11.145   6.140  1.2089  2.8989  0.2950
  417MOL0     H56282   8.859  11.073   6.170  1.8339  2.6390  2.1807
  417MOL0     H56283   8.646  11.065   5.818  0.4483  0.8649 -0.0684
  417MOL0     H56284   8.505  11.159   5.879  0.6121  0.5320  0.9194
  417MOL0     H56285   8.596  10.885   5.969 -0.4180 -1.5884 -0.9309
  417MOL0     H56286   8.482  10.902   5.836 -0.4929  0.8328  0.4143
  417MOL0     H56287   8.310  10.998   5.972  0.2836  0.6200  0.6334
  417MOL0     H56288   8.413  11.004   6.120 -1.6822  1.0082 -0.5183
  417MOL0     H56289   8.431  10.752   6.075  0.1912  0.7435  2.3736
  417MOL0     H56290   8.267  10.808   6.128  1.8630  1.3084  1.5185
  417MOL0     H56291   8.185  10.677   5.744  0.7097 -2.5777  2.8409
  417MOL0     H56292   8.724  11.316   5.856  0.2783 -0.7481 -1.4009
  417MOL0     H56293   8.872  11.454   5.735  0.2423  1.7048  1.0036
  417MOL0     H56294   9.016  11.508   5.819 -0.2244 -0.1642  0.4210
  417MOL0     H56295   9.031  11.380   5.706 -0.4380  0.6896  0.2195
  418MOL0     O56296   2.089   7.139   9.305 -0.2470  0.1437  0.0020
  418MOL0     C56297   2.023   7.199   9.382  0.1955 -0.5862  0.0803
  418MOL0     O56298   2.069   7.297   9.459 -0.5410  0.0003  0.1018
  418MOL0     C56299   2.205   7.322   9.446 -0.6577  0.1135  0.4505
  418MOL0     C56300   2.294   7.276   9.542  0.2137  0.4932  0.3963
  418MOL0     C56301   2.431   7.311   9.524 -0.3187 -0.3036 -0.5800
  418MOL0     C56302   2.476   7.386   9.417  0.4994 -0.7688 -0.3845
  418MOL0     O56303   2.612   7.400   9.398 -0.1852 -0.2255 -0.5114
  418MOL0     C56304   2.673   7.475   9.290  0.1717 -0.0539 -0.2445
  418MOL0     C56305   2.790   7.393   9.228 -0.3943 -0.5107  0.7968
  418MOL0     C56306   2.740   7.256   9.171 -0.3457  0.8590 -1.1060
  418MOL0     C56307   2.677   7.278   9.037  0.5162  0.3930 -0.0386
  418MOL0     C56308   2.600   7.145   8.983  0.1045 -0.5467 -0.2325
  418MOL0     C56309   2.448   7.136   9.046 -0.5778  0.1650 -0.2811
  418MOL0     C56310   2.368   7.023   8.992 -0.9137 -0.1903  0.2351
  418MOL0     C56311   2.425   6.881   9.009  0.0935  0.0270  0.6851
  418MOL0     N56312   2.341   6.775   8.964 -0.8781  0.7536  0.4918
  418MOL0     C56313   2.216   6.748   9.016  0.3817  0.5515 -0.5753
  418MOL0     C56314   2.173   6.645   8.944  0.3828  0.5276  0.1401
  418MOL0     C56315   2.033   6.590   8.956  0.6801 -0.3992  0.1866
  418MOL0     C56316   2.023   6.471   9.053  0.1585  0.6534  0.4889
  418MOL0     C56317   1.876   6.431   9.091 -0.1515 -0.1680  0.9441
  418MOL0     C56318   1.783   6.449   8.976 -0.3936 -0.7188 -0.3855
  418MOL0     O56319   1.833   6.387   8.851 -0.0763  0.1909 -0.0559
  418MOL0     C56320   1.856   6.250   8.840 -0.0848 -0.0843 -0.5222
  418MOL0     C56321   1.812   6.156   8.928  1.1444  0.0634  0.5683
  418MOL0     C56322   1.847   6.017   8.917 -0.0519 -0.6153 -0.3315
  418MOL0     C56323   1.927   5.975   8.815 -1.1943 -0.1988 -0.4044
  418MOL0     C56324   1.995   5.840   8.816 -0.1090  0.0048 -0.4099
  418MOL0     O56325   2.062   5.803   8.709  0.1634 -0.3597  0.2579
  418MOL0     C56326   2.126   5.680   8.698  0.1717 -0.5165  0.1288
  418MOL0     C56327   2.242   5.666   8.627 -0.2189  0.5421  0.9781
  418MOL0     C56328   2.303   5.541   8.609  0.4172  0.0993  0.3914
  418MOL0     C56329   2.248   5.424   8.659  0.3514  0.7398 -0.2123
  418MOL0     O56330   2.321   5.313   8.640 -0.5591  0.2015 -0.2790
  418MOL0     C56331   2.294   5.197   8.726  0.9698 -0.2990  0.3028
  418MOL0     C56332   2.394   5.078   8.703  0.3547  1.1040  0.0477
  418MOL0     C56333   2.384   4.979   8.822  0.3363 -0.1417  0.6239
  418MOL0     C56334   2.259   4.890   8.819  0.0248  0.1979  0.6679
  418MOL0     C56335   2.269   4.776   8.721 -0.3563 -1.1725 -0.1259
  418MOL0     C56336   2.147   4.683   8.735  1.0183 -1.1166  0.8152
  418MOL0     C56337   2.010   4.749   8.693 -0.7680 -0.4398 -0.7057
  418MOL0     C56338   1.901   4.657   8.651  0.3496 -0.1567 -0.1827
  418MOL0    Cl56339   1.774   4.764   8.581  0.0043  0.2889  0.1564
  418MOL0     C56340   2.122   5.437   8.717  0.0533 -0.9405 -0.2289
  418MOL0     C56341   2.062   5.565   8.731 -0.1069  0.1651 -0.2207
  418MOL0     O56342   1.994   5.782   8.928 -0.0161  0.0479  0.0935
  418MOL0     C56343   1.967   6.070   8.709  0.2828  0.2744  0.1205
  418MOL0     C56344   1.919   6.201   8.724 -0.6661  0.5722  1.4173
  418MOL0     N56345   2.265   6.601   8.844 -0.2482 -0.8807 -0.9606
  418MOL0     N56346   2.366   6.689   8.859 -0.8831  1.1423  0.1386
  418MOL0     C56347   2.386   7.431   9.329  0.7598 -0.3485  0.4704
  418MOL0     C56348   2.252   7.403   9.344 -0.1795 -0.7816  0.2735
  418MOL0     C56349   1.887   7.165   9.408  0.1785 -0.2481  0.6684
  418MOL0     C56350   1.843   7.032   9.412 -0.1469  0.2879 -1.0494
  418MOL0     C56351   1.716   6.999   9.466 -0.7230 -0.1478  0.1178
  418MOL0     C56352   1.632   7.097   9.514 -0.1187 -0.0109 -0.6944
  418MOL0     O56353   1.501   7.084   9.554  0.0068 -0.0350 -0.3017
  418MOL0     C56354   1.426   6.993   9.475  0.2759  0.8485 -0.7582
  418MOL0     C56355   1.368   7.069   9.351 -1.2180 -0.4456  0.5929
  418MOL0     C56356   1.444   7.058   9.219  0.2955 -0.3783  0.8281
  418MOL0     C56357   1.406   7.177   9.128  0.4234 -0.3358  0.2259
  418MOL0     C56358   1.480   7.300   9.169 -0.0015  0.4391 -0.1116
  418MOL0     C56359   1.544   7.395   9.194  0.7428 -0.4617  0.0320
  418MOL0     C56360   1.676   7.230   9.506 -0.4073  0.4596  0.1420
  418MOL0     C56361   1.798   7.267   9.452  0.4113  0.0522 -0.2243
  418MOL0     C56362   1.819   7.412   9.443 -0.3082  0.1836  0.3589
  418MOL0     H56363   2.259   7.210   9.621  1.8854 -0.6655  0.2039
  418MOL0     H56364   2.495   7.275   9.604 -2.9818  0.0312  1.8460
  418MOL0     H56365   2.596   7.503   9.217  0.3053 -1.6061 -1.0138
  418MOL0     H56366   2.711   7.572   9.322 -0.8199  0.4458 -0.5371
  418MOL0     H56367   2.865   7.389   9.308 -1.2060  0.7505  1.6752
  418MOL0     H56368   2.828   7.455   9.147 -0.7269  1.9457  2.3935
  418MOL0     H56369   2.669   7.200   9.232  0.1942  1.8562  0.5297
  418MOL0     H56370   2.825   7.190   9.155 -2.3011 -1.2132 -3.9333
  418MOL0     H56371   2.617   7.369   9.034  1.2361  0.8509 -1.0526
  418MOL0     H56372   2.760   7.283   8.967  0.6175 -1.0707 -0.0561
  418MOL0     H56373   2.595   7.154   8.874 -0.3678 -2.2989 -0.3869
  418MOL0     H56374   2.654   7.051   8.997 -2.7327 -2.3610 -0.5170
  418MOL0     H56375   2.457   7.130   9.155 -0.0258 -0.9627 -0.3771
  418MOL0     H56376   2.397   7.232   9.040 -2.2064 -0.7104 -1.4371
  418MOL0     H56377   2.355   7.041   8.884 -1.6376  1.1313  0.5242
  418MOL0     H56378   2.272   7.028   9.043  1.2375  0.0438  4.6968
  418MOL0     H56379   2.514   6.878   8.947 -1.4291 -0.9480 -1.6012
  418MOL0     H56380   2.452   6.848   9.110  2.7410 -0.1742 -0.0210
  418MOL0     H56381   2.172   6.788   9.107  4.6065  1.2383  1.4403
  418MOL0     H56382   1.962   6.664   8.994 -0.0621 -1.3665  0.7048
  418MOL0     H56383   2.000   6.556   8.858 -1.1243 -1.5758  1.1517
  418MOL0     H56384   2.076   6.389   9.004  0.2268 -0.9882  3.1021
  418MOL0     H56385   2.081   6.494   9.143 -1.1697 -0.3430  1.6469
  418MOL0     H56386   1.845   6.495   9.174  0.1350  0.0288  0.9037
  418MOL0     H56387   1.875   6.328   9.128  1.1884 -1.2715 -1.8093
  418MOL0     H56388   1.759   6.555   8.967 -3.0279 -1.1706  0.5441
  418MOL0     H56389   1.692   6.394   9.002  0.3753 -3.2875 -2.6214
  418MOL0     H56390   1.750   6.179   9.014  1.7278  2.5312  0.3906
  418MOL0     H56391   1.850   5.956   9.006 -0.6082 -1.1836 -0.6925
  418MOL0     H56392   2.290   5.755   8.588 -1.7321  0.4447 -1.2677
  418MOL0     H56393   2.392   5.525   8.550 -0.2027 -2.8415  0.0777
  418MOL0     H56394   2.302   5.235   8.828  0.0238  3.1819 -0.7808
  418MOL0     H56395   2.199   5.151   8.701  1.4953 -1.4347  0.3525
  418MOL0     H56396   2.386   5.030   8.605 -1.6592  2.8806 -0.7381
  418MOL0     H56397   2.492   5.127   8.707  0.9986  0.0298 -1.6441
  418MOL0     H56398   2.470   4.912   8.828  1.1801  0.9907  1.5996
  418MOL0     H56399   2.377   5.036   8.915 -1.4914  0.0265  0.4260
  418MOL0     H56400   2.175   4.954   8.790 -0.7935 -1.1236  0.0076
  418MOL0     H56401   2.227   4.859   8.919 -3.8551  0.2384 -0.3623
  418MOL0     H56402   2.349   4.710   8.755 -1.1621 -2.0370  0.1493
  418MOL0     H56403   2.288   4.809   8.618  0.5478 -0.6312  0.2043
  418MOL0     H56404   2.157   4.604   8.661 -0.9569  0.0265 -0.7694
  418MOL0     H56405   2.151   4.630   8.831  0.2853 -2.9250 -0.1052
  418MOL0     H56406   2.034   4.808   8.603 -1.4836 -2.8588 -2.6034
  418MOL0     H56407   1.981   4.824   8.767  0.3463 -0.9850  0.3031
  418MOL0     H56408   1.944   4.580   8.585  2.8360  1.0390 -0.0632
  418MOL0     H56409   1.867   4.614   8.745  1.7918  0.5974  0.7244
  418MOL0     H56410   2.072   5.346   8.747  1.1346 -0.4512  3.5505
  418MOL0     H56411   1.957   5.572   8.759 -0.3755 -0.1848 -1.1147
  418MOL0     H56412   2.031   6.043   8.626  0.1720  1.6674 -0.4392
  418MOL0     H56413   1.938   6.259   8.635 -0.5844 -3.3506 -1.4173
  418MOL0     H56414   2.403   7.510   9.256 -2.0010 -0.2180 -0.1157
  418MOL0     H56415   2.184   7.444   9.270  1.1370  0.0877 -0.4751
  418MOL0     H56416   1.911   6.952   9.384 -1.5612 -2.3586  2.2726
  418MOL0     H56417   1.701   6.893   9.482  1.5770 -0.5028  0.2561
  418MOL0     H56418   1.336   6.961   9.528  1.5288 -0.8976  0.4550
  418MOL0     H56419   1.484   6.901   9.466 -0.3284 -0.0999  3.0536
  418MOL0     H56420   1.346   7.170   9.386  1.9304  1.3575 -2.0590
  418MOL0     H56421   1.270   7.030   9.323 -0.1904 -2.1267 -0.8884
  418MOL0     H56422   1.419   6.971   9.157  0.4340  1.0918 -1.4266
  418MOL0     H56423   1.554   7.052   9.220  0.3400 -4.3258 -1.7634
  418MOL0     H56424   1.431   7.163   9.022 -1.3037 -0.1715 -0.2265
  418MOL0     H56425   1.301   7.207   9.134  0.4752  0.0948 -0.8535
  418MOL0     H56426   1.605   7.483   9.199  0.0172 -0.0278  1.6433
  418MOL0     H56427   1.600   7.305   9.529 -2.7941 -2.0065  0.8752
  418MOL0     H56428   1.895   7.447   9.513 -0.2947 -1.6381  1.2872
  418MOL0     H56429   1.865   7.427   9.344  3.2662 -2.5462  1.4260
  418MOL0     H56430   1.726   7.470   9.449  0.5959  1.9308 -1.3268
  419MOL0     O56431   8.306   3.583  10.470  0.9065 -0.2957 -0.2853
  419MOL0     C56432   8.270   3.516  10.566  0.5600 -0.4078 -0.7013
  419MOL0     O56433   8.350   3.423  10.625  0.4273  0.1798  0.8076
  419MOL0     C56434   8.487   3.428  10.603 -0.1240 -0.3670 -0.1303
  419MOL0     C56435   8.558   3.516  10.697 -0.0155 -0.0711  1.1216
  419MOL0     C56436   8.695   3.528  10.678 -0.7027  0.2172 -0.0480
  419MOL0     C56437   8.764   3.438  10.590  0.2368 -0.0411  0.4282
  419MOL0     O56438   8.900   3.450  10.570 -0.0464  0.0836  0.0056
  419MOL0     C56439   8.941   3.563  10.495  0.0992  0.0340 -0.5876
  419MOL0     C56440   8.862   3.574  10.361  0.3986  0.0515 -0.5467
  419MOL0     C56441   8.926   3.677  10.267 -0.4628 -0.0565 -0.7447
  419MOL0     C56442   9.023   3.615  10.179  0.2389  0.5133  0.2348
  419MOL0     C56443   9.121   3.708  10.105 -0.4190 -0.4442 -0.3731
  419MOL0     C56444   9.157   3.654   9.970  0.5359  0.1667  1.5996
  419MOL0     C56445   9.269   3.737   9.891 -1.1014 -0.0518 -0.1498
  419MOL0     C56446   9.320   3.669   9.760  0.0098  0.3623 -0.6876
  419MOL0     N56447   9.412   3.760   9.688  0.2759 -0.0930 -0.3754
  419MOL0     C56448   9.494   3.865   9.733  0.4809 -0.4320  0.3630
  419MOL0     C56449   9.538   3.929   9.626  0.0658 -0.3830  0.1569
  419MOL0     C56450   9.614   4.062   9.619  0.0345  0.5958  0.2542
  419MOL0     C56451   9.766   4.029   9.618  0.5566  0.6266  0.1033
  419MOL0     C56452   9.854   4.169   9.619  1.4331  0.3131  0.2615
  419MOL0     C56453  10.003   4.155   9.632 -0.2606 -1.3862  0.4175
  419MOL0     O56454  10.060   4.286   9.659  0.0577  0.0155  0.5748
  419MOL0     C56455  10.190   4.301   9.612  0.0402  0.1824 -0.2583
  419MOL0     C56456  10.249   4.429   9.610  0.1175  0.0058  0.3344
  419MOL0     C56457  10.384   4.453   9.572 -0.8357  0.6009  1.1594
  419MOL0     C56458  10.471   4.349   9.537  0.0223 -0.0680 -0.2726
  419MOL0     C56459  10.618   4.369   9.518 -0.0880 -0.5647 -0.2588
  419MOL0     O56460  10.665   4.475   9.439  0.2258  1.0088 -0.1298
  419MOL0     C56461  10.794   4.464   9.400  0.5545 -0.1948 -0.2352
  419MOL0     C56462  10.810   4.463   9.265 -0.3423  0.4654  0.2555
  419MOL0     C56463  10.943   4.457   9.203  0.1055  0.9273 -0.0100
  419MOL0     C56464  11.053   4.446   9.274  0.3229 -0.8862  0.4581
  419MOL0     O56465  11.173   4.444   9.213 -0.1246  0.4196 -0.1420
  419MOL0     C56466  11.292   4.445   9.294  0.2376 -0.1416 -0.2530
  419MOL0     C56467  11.416   4.474   9.211 -0.3633 -1.3191 -0.0620
  419MOL0     C56468  11.545   4.439   9.287  0.9482 -0.0799 -0.0633
  419MOL0     C56469  11.655   4.499   9.206  0.3093 -0.5591 -0.0869
  419MOL0     C56470  11.775   4.408   9.189  0.8091  0.0097 -0.5765
  419MOL0     C56471  11.832   4.355   9.320 -0.8145  0.9723 -2.3527
  419MOL0     C56472  11.967   4.290   9.298 -0.0807  0.7359 -0.6666
  419MOL0     C56473  12.018   4.195   9.407 -0.1278  0.2710 -0.6940
  419MOL0    Cl56474  11.999   4.259   9.571  0.2053  0.0543  0.1573
  419MOL0     C56475  11.037   4.464   9.414 -0.1367  0.5840 -0.3942
  419MOL0     C56476  10.909   4.473   9.475  0.3719  0.5998  0.3076
  419MOL0     O56477  10.690   4.276   9.555 -0.0394 -0.1304  0.5369
  419MOL0     C56478  10.424   4.220   9.555  0.9364  0.5048 -0.3721
  419MOL0     C56479  10.283   4.199   9.586 -0.0144  0.3261 -0.1628
  419MOL0     N56480   9.494   3.857   9.511 -0.6163 -0.0001 -0.1362
  419MOL0     N56481   9.414   3.761   9.548 -0.7445 -0.3853 -0.2520
  419MOL0     C56482   8.692   3.344  10.511  0.4629 -0.4763  0.0967
  419MOL0     C56483   8.554   3.333  10.522 -0.5938 -0.5819  0.3214
  419MOL0     C56484   8.143   3.540  10.648 -0.7584  0.6907  0.6736
  419MOL0     C56485   8.133   3.491  10.778 -0.4586  0.2691  0.1457
  419MOL0     C56486   8.025   3.523  10.860  0.6672  0.3591  0.4284
  419MOL0     C56487   7.923   3.603  10.814  0.4445  0.2310 -0.1061
  419MOL0     O56488   7.815   3.613  10.900  0.4930  0.2045  0.9521
  419MOL0     C56489   7.715   3.718  10.881 -0.7561 -0.2836 -0.0984
  419MOL0     C56490   7.620   3.710  11.003  0.1220  0.1303 -0.1648
  419MOL0     C56491   7.531   3.831  10.995 -0.6734 -0.8825 -0.1240
  419MOL0     C56492   7.444   3.847  11.115  1.0337  0.7387  0.7366
  419MOL0     C56493   7.353   3.731  11.127  0.2287  0.1693 -0.2059
  419MOL0     C56494   7.278   3.636  11.137 -0.4652  0.1027  0.1383
  419MOL0     C56495   7.930   3.661  10.688 -0.8786 -0.3153 -0.8783
  419MOL0     C56496   8.036   3.629  10.601  0.3707  1.0953  0.3586
  419MOL0     C56497   8.038   3.680  10.450 -0.4940  0.1489  0.1428
  419MOL0     H56498   8.500   3.575  10.769 -0.8306 -0.1474  0.5387
  419MOL0     H56499   8.749   3.604  10.732 -2.3117  2.7492 -1.7733
  419MOL0     H56500   8.929   3.654  10.554  0.5909 -2.5363  3.9473
  419MOL0     H56501   9.049   3.550  10.483 -0.0173 -1.0225 -0.6060
  419MOL0     H56502   8.763   3.613  10.389 -1.6564 -3.0130 -2.8035
  419MOL0     H56503   8.842   3.479  10.311  0.4940  0.1484 -0.7697
  419MOL0     H56504   8.982   3.745  10.331 -2.8272  2.0558 -0.7631
  419MOL0     H56505   8.854   3.735  10.209  0.2036 -1.5647 -3.2222
  419MOL0     H56506   9.087   3.551  10.241  2.8300  0.9630 -1.7821
  419MOL0     H56507   8.955   3.553  10.119 -0.7464  1.5754  0.2238
  419MOL0     H56508   9.066   3.801  10.085  0.7277  0.0519 -1.3202
  419MOL0     H56509   9.219   3.733  10.146  0.6765 -0.6542 -2.7439
  419MOL0     H56510   9.199   3.555   9.988  1.0627  0.1193  0.2014
  419MOL0     H56511   9.072   3.642   9.903 -0.0584 -0.9643  2.5252
  419MOL0     H56512   9.356   3.761   9.954 -1.7191  4.2368 -0.6145
  419MOL0     H56513   9.226   3.832   9.859  1.7088  0.2426 -3.6768
  419MOL0     H56514   9.364   3.574   9.791  1.4546  1.5006  0.9974
  419MOL0     H56515   9.236   3.641   9.696  0.4432  0.6167 -1.3831
  419MOL0     H56516   9.505   3.917   9.828  1.1761 -0.3965  0.2697
  419MOL0     H56517   9.583   4.133   9.542 -2.6783  1.1657  1.7338
  419MOL0     H56518   9.591   4.111   9.714 -2.7056 -0.2456  0.1203
  419MOL0     H56519   9.778   3.972   9.711 -1.5905  1.1350  0.7286
  419MOL0     H56520   9.789   3.970   9.529 -2.7518 -0.4335 -0.1601
  419MOL0     H56521   9.810   4.229   9.698 -0.0500 -0.5141  0.1016
  419MOL0     H56522   9.833   4.213   9.521  0.5516  0.1491  0.3749
  419MOL0     H56523  10.031   4.110   9.536 -1.7265 -2.3544  0.4116
  419MOL0     H56524  10.032   4.086   9.711 -2.5214 -0.2576  2.3673
  419MOL0     H56525  10.173   4.506   9.616  0.2500 -0.0109  2.9696
  419MOL0     H56526  10.430   4.551   9.558  1.4027 -0.4951  0.2859
  419MOL0     H56527  10.723   4.459   9.200 -0.0923  0.3488 -0.0741
  419MOL0     H56528  10.964   4.447   9.097  2.6193  4.0551  0.0528
  419MOL0     H56529  11.280   4.525   9.368 -0.8434 -1.6365  1.2592
  419MOL0     H56530  11.302   4.349   9.344 -1.6825 -0.4138 -0.3183
  419MOL0     H56531  11.408   4.426   9.113 -0.8558  0.4739 -0.9475
  419MOL0     H56532  11.409   4.580   9.184 -1.4789 -1.4423 -0.3207
  419MOL0     H56533  11.540   4.453   9.395  1.4374 -1.3844  0.1450
  419MOL0     H56534  11.554   4.330   9.276 -0.2140 -0.2311  0.2627
  419MOL0     H56535  11.689   4.586   9.263 -0.8573  0.5835 -1.0790
  419MOL0     H56536  11.627   4.531   9.105 -1.7236 -0.7689  0.3707
  419MOL0     H56537  11.850   4.453   9.123 -0.6573 -0.1924 -2.4746
  419MOL0     H56538  11.738   4.321   9.133  1.6176 -1.9926  1.8192
  419MOL0     H56539  11.842   4.431   9.398 -1.9756 -1.2127  0.0832
  419MOL0     H56540  11.761   4.283   9.362  0.4282  1.2956  0.5835
  419MOL0     H56541  12.036   4.374   9.291 -0.3908  1.3241  2.0709
  419MOL0     H56542  11.976   4.240   9.202  0.5914 -0.1805 -0.1457
  419MOL0     H56543  11.968   4.099   9.395  1.2718 -0.3125 -2.2225
  419MOL0     H56544  12.124   4.179   9.386 -0.4481 -1.4793 -1.1264
  419MOL0     H56545  11.119   4.457   9.485 -0.2931  1.4730 -0.1118
  419MOL0     H56546  10.918   4.494   9.582  0.0465  2.8210 -0.0483
  419MOL0     H56547  10.487   4.134   9.535  0.9403  0.5857 -0.7221
  419MOL0     H56548  10.244   4.098   9.593 -0.7949  0.7191  1.8120
  419MOL0     H56549   8.745   3.277  10.444 -1.0646 -0.6320 -1.0086
  419MOL0     H56550   8.502   3.264  10.456  1.7262 -1.8030 -0.3182
  419MOL0     H56551   8.216   3.433  10.816 -0.3243 -0.8930 -1.7791
  419MOL0     H56552   8.000   3.480  10.956 -0.3067 -0.2897 -0.0900
  419MOL0     H56553   7.654   3.702  10.792 -1.2996 -2.3288  0.5744
  419MOL0     H56554   7.758   3.817  10.868 -3.8033  1.2105  0.3834
  419MOL0     H56555   7.661   3.695  11.103 -0.4016  2.9470  0.5572
  419MOL0     H56556   7.562   3.620  10.982  3.1043 -1.9128 -0.3064
  419MOL0     H56557   7.476   3.848  10.902  0.4612  0.5795 -0.5565
  419MOL0     H56558   7.594   3.918  11.014 -3.5558  0.8066  2.8993
  419MOL0     H56559   7.501   3.854  11.208 -0.0254 -1.9105  1.6882
  419MOL0     H56560   7.382   3.937  11.101 -2.7584 -1.2640  2.8391
  419MOL0     H56561   7.216   3.549  11.150  0.1585 -1.0011 -3.1776
  419MOL0     H56562   7.857   3.739  10.667 -0.4006  0.9585  1.7759
  419MOL0     H56563   8.107   3.765  10.442 -1.3964  0.7195 -2.0161
  419MOL0     H56564   8.068   3.604  10.378  1.2757 -1.2672  2.2200
  419MOL0     H56565   7.942   3.725  10.424 -0.3980 -0.9423 -2.2934
  420MOL0     O56566  11.228   5.393   4.641 -0.4187  0.3037 -0.3611
  420MOL0     C56567  11.245   5.480   4.729 -0.4200  0.0134  0.3150
  420MOL0     O56568  11.360   5.559   4.738 -0.8564 -0.6378  0.6178
  420MOL0     C56569  11.473   5.526   4.673  0.4614 -0.0278 -0.4832
  420MOL0     C56570  11.554   5.636   4.634 -0.3648  0.8568  0.1111
  420MOL0     C56571  11.685   5.602   4.576  0.1710  0.6746 -0.2210
  420MOL0     C56572  11.723   5.469   4.542  0.4457 -1.3696 -0.7928
  420MOL0     O56573  11.834   5.426   4.469  0.0328  0.2475  0.2256
  420MOL0     C56574  11.874   5.516   4.363 -1.2569  0.4873  0.0061
  420MOL0     C56575  11.778   5.519   4.250  0.0437  0.0161 -0.9452
  420MOL0     C56576  11.835   5.628   4.149  0.4954  0.4251 -0.5329
  420MOL0     C56577  11.720   5.647   4.048 -0.4672 -0.0984 -0.8646
  420MOL0     C56578  11.752   5.747   3.943  0.4321 -0.1173 -0.2749
  420MOL0     C56579  11.649   5.764   3.834 -0.1593 -0.0564  0.2160
  420MOL0     C56580  11.691   5.884   3.747  0.3778 -0.2552  0.6913
  420MOL0     C56581  11.590   5.901   3.637  0.3052 -0.1544 -0.7097
  420MOL0     N56582  11.618   6.032   3.568 -0.4099  0.5274 -0.2576
  420MOL0     C56583  11.723   6.115   3.547 -1.1241  0.2738 -0.5484
  420MOL0     C56584  11.691   6.211   3.457 -0.6624 -0.6455  0.1655
  420MOL0     C56585  11.782   6.319   3.402  0.2308  0.6573 -0.1538
  420MOL0     C56586  11.892   6.256   3.313 -0.0568 -0.3240  0.3007
  420MOL0     C56587  11.970   6.364   3.239  0.6094 -0.4148  1.1052
  420MOL0     C56588  12.048   6.456   3.328  0.5060  0.3101 -0.6880
  420MOL0     O56589  12.141   6.397   3.418 -0.1033  0.0970 -0.1893
  420MOL0     C56590  12.269   6.376   3.380 -0.0407 -0.5934  0.7586
  420MOL0     C56591  12.363   6.324   3.475  0.0861  0.1546  0.9292
  420MOL0     C56592  12.492   6.302   3.440  0.1857  0.2308 -0.1392
  420MOL0     C56593  12.533   6.316   3.307  0.2083 -1.0220 -0.5665
  420MOL0     C56594  12.670   6.279   3.275  0.2834 -0.8518 -0.1102
  420MOL0     O56595  12.720   6.327   3.161 -0.0022  0.0851  0.0963
  420MOL0     C56596  12.847   6.268   3.130 -0.2899  0.2767 -0.5481
  420MOL0     C56597  12.968   6.317   3.181  0.2800 -0.0047 -0.3769
  420MOL0     C56598  13.081   6.250   3.142  0.3257  0.2885  0.3096
  420MOL0     C56599  13.082   6.137   3.059 -0.0243  0.4127  0.2441
  420MOL0     O56600  13.195   6.064   3.041 -0.1673 -0.2429  0.8798
  420MOL0     C56601  13.196   5.923   3.063 -0.3982  0.7444  0.1273
  420MOL0     C56602  13.317   5.879   2.979  0.4577 -0.3065 -0.2421
  420MOL0     C56603  13.446   5.941   3.005 -0.5726 -0.2660  0.3186
  420MOL0     C56604  13.554   5.874   2.919 -1.3755 -0.2730 -0.4943
  420MOL0     C56605  13.694   5.924   2.959 -0.0627 -0.9190 -0.7678
  420MOL0     C56606  13.819   5.851   2.897  0.4819  0.3169  0.0642
  420MOL0     C56607  13.942   5.939   2.923  0.2996  0.6767 -1.0135
  420MOL0     C56608  14.071   5.861   2.903  0.0474 -0.0539  0.4013
  420MOL0    Cl56609  14.106   5.732   3.024  0.4677  0.2809  0.1188
  420MOL0     C56610  12.961   6.097   3.001 -0.2445 -0.9395  0.0062
  420MOL0     C56611  12.844   6.160   3.037  0.3746  0.1066 -0.4266
  420MOL0     O56612  12.724   6.204   3.348 -0.2753  0.8621  0.1821
  420MOL0     C56613  12.451   6.366   3.213  0.2840 -0.5293 -0.4872
  420MOL0     C56614  12.318   6.403   3.250  0.5268 -0.0809 -0.0312
  420MOL0     N56615  11.564   6.191   3.427 -0.0239 -0.4064  0.3498
  420MOL0     N56616  11.522   6.084   3.491 -0.1540  0.3436 -0.1948
  420MOL0     C56617  11.630   5.369   4.577 -1.2183 -0.6483  0.1143
  420MOL0     C56618  11.513   5.395   4.645  0.4265  1.0691  0.2341
  420MOL0     C56619  11.139   5.503   4.826  0.1934 -0.0324 -0.0564
  420MOL0     C56620  11.141   5.633   4.874 -0.2772 -0.0488  0.0755
  420MOL0     C56621  11.037   5.673   4.966 -1.8700  0.0204  0.2313
  420MOL0     C56622  10.928   5.591   4.989 -0.3182  0.3768  0.4965
  420MOL0     O56623  10.829   5.651   5.063  0.0656  0.9766 -0.8595
  420MOL0     C56624  10.735   5.563   5.122 -0.7231  0.1076 -0.3808
  420MOL0     C56625  10.645   5.646   5.227 -0.1183 -0.3312  0.4151
  420MOL0     C56626  10.544   5.555   5.289 -0.0813 -0.1294 -0.4595
  420MOL0     C56627  10.608   5.435   5.359 -0.4737  0.3948 -0.4173
  420MOL0     C56628  10.703   5.482   5.467 -0.1319 -0.0450  0.4653
  420MOL0     C56629  10.793   5.543   5.529 -0.5094  0.6068  0.5639
  420MOL0     C56630  10.926   5.460   4.935 -0.0096 -0.3838 -0.5128
  420MOL0     C56631  11.034   5.415   4.851 -0.3001  0.3648  0.3878
  420MOL0     C56632  11.034   5.284   4.778 -0.0325 -0.4728  0.7693
  420MOL0     H56633  11.537   5.733   4.680  1.4094  0.8280  0.8783
  420MOL0     H56634  11.752   5.684   4.552 -0.6593  1.1569 -0.9262
  420MOL0     H56635  11.894   5.614   4.406  1.3266  0.6234 -1.3134
  420MOL0     H56636  11.967   5.478   4.320  0.0007  1.9577  1.2868
  420MOL0     H56637  11.677   5.547   4.281 -0.5095 -0.2894 -2.4087
  420MOL0     H56638  11.768   5.423   4.198  0.1696  1.1083 -3.0694
  420MOL0     H56639  11.923   5.590   4.097 -0.3752 -2.4811 -0.0833
  420MOL0     H56640  11.867   5.718   4.201 -0.6098  1.3529 -1.4081
  420MOL0     H56641  11.712   5.556   3.988  1.1429  0.0226 -1.3000
  420MOL0     H56642  11.623   5.670   4.092 -0.5154 -0.2237 -0.9059
  420MOL0     H56643  11.757   5.841   3.999 -0.1852 -0.1809 -0.1054
  420MOL0     H56644  11.844   5.711   3.896 -0.4008 -0.1238 -1.9916
  420MOL0     H56645  11.660   5.679   3.766 -2.5130  0.1807 -0.5278
  420MOL0     H56646  11.550   5.774   3.878 -0.0619  0.5106  0.3159
  420MOL0     H56647  11.785   5.870   3.694 -0.2147 -0.0583 -0.4355
  420MOL0     H56648  11.702   5.969   3.816 -1.0064 -1.6440  2.7522
  420MOL0     H56649  11.597   5.816   3.569  1.2417 -1.1161  0.5454
  420MOL0     H56650  11.490   5.891   3.680  0.8487 -3.6845  0.0700
  420MOL0     H56651  11.820   6.095   3.591 -0.5976  0.2031 -1.7069
  420MOL0     H56652  11.731   6.387   3.333 -1.6762 -1.8864 -1.4658
  420MOL0     H56653  11.822   6.373   3.488 -1.2592  0.7235  0.5425
  420MOL0     H56654  11.962   6.196   3.371 -0.0765 -1.0792 -0.4414
  420MOL0     H56655  11.840   6.188   3.244 -0.7461 -1.0420  1.4904
  420MOL0     H56656  11.906   6.417   3.167  0.2086  0.4406  2.0578
  420MOL0     H56657  12.034   6.303   3.175 -2.8213 -2.0207 -1.1173
  420MOL0     H56658  11.978   6.512   3.390  0.4293 -0.0257 -0.4697
  420MOL0     H56659  12.087   6.535   3.263 -1.7363 -0.8277 -3.6321
  420MOL0     H56660  12.314   6.303   3.569 -2.4622  2.4582  0.2401
  420MOL0     H56661  12.550   6.239   3.506 -1.4861 -1.9222 -0.6039
  420MOL0     H56662  12.982   6.398   3.252 -0.2938 -1.8377  1.9084
  420MOL0     H56663  13.180   6.270   3.182  2.0247 -0.9081 -2.9770
  420MOL0     H56664  13.218   5.906   3.169  1.7747  3.2335  0.1469
  420MOL0     H56665  13.103   5.875   3.030 -0.5044  1.5119 -0.7169
  420MOL0     H56666  13.327   5.773   3.005 -0.2489 -0.3075  0.0480
  420MOL0     H56667  13.282   5.878   2.876 -0.7513  3.1959  0.0273
  420MOL0     H56668  13.449   6.050   2.993  1.8295 -0.2319  0.7103
  420MOL0     H56669  13.473   5.931   3.111  3.4111  4.6527  0.1689
  420MOL0     H56670  13.531   5.887   2.813 -0.6000 -0.6025 -0.7118
  420MOL0     H56671  13.551   5.766   2.936  1.7377 -0.1378  1.7057
  420MOL0     H56672  13.713   5.918   3.067  0.0306  0.0495 -0.7282
  420MOL0     H56673  13.692   6.031   2.938 -3.1432 -1.4731 -4.1899
  420MOL0     H56674  13.828   5.752   2.943 -3.8080  0.1410  0.9998
  420MOL0     H56675  13.806   5.827   2.791 -3.5718  2.1181 -0.0489
  420MOL0     H56676  13.949   5.973   3.026 -0.4022 -1.7134 -0.1191
  420MOL0     H56677  13.941   6.022   2.852 -3.3365  1.1910 -0.5782
  420MOL0     H56678  14.076   5.815   2.803  0.5307 -0.7906  0.7551
  420MOL0     H56679  14.157   5.929   2.910  1.0623 -1.2509  0.0411
  420MOL0     H56680  12.955   6.007   2.940 -1.4928  0.0386 -1.3971
  420MOL0     H56681  12.748   6.123   3.003  1.0440 -2.0083 -0.1845
  420MOL0     H56682  12.486   6.392   3.114  0.1301 -0.6607 -0.5776
  420MOL0     H56683  12.250   6.440   3.174  0.6112 -1.4440 -0.8040
  420MOL0     H56684  11.659   5.265   4.571  2.5419  0.2146  0.5833
  420MOL0     H56685  11.457   5.309   4.678 -1.1501  2.0593  0.2565
  420MOL0     H56686  11.218   5.701   4.841  0.5561 -0.0383  1.9292
  420MOL0     H56687  11.046   5.775   5.003  2.1169 -0.4562  1.0404
  420MOL0     H56688  10.786   5.488   5.183 -1.5545 -0.0961  0.0743
  420MOL0     H56689  10.677   5.511   5.045 -0.8961  1.1339 -0.9692
  420MOL0     H56690  10.593   5.730   5.179  0.4019  0.9958  2.0736
  420MOL0     H56691  10.713   5.692   5.300  0.3559 -1.3739  0.6459
  420MOL0     H56692  10.478   5.506   5.216 -0.9814 -2.1255  1.5798
  420MOL0     H56693  10.479   5.604   5.362  1.3750 -1.0622  1.5311
  420MOL0     H56694  10.525   5.381   5.405 -0.7845 -2.7285 -4.1810
  420MOL0     H56695  10.657   5.366   5.291  2.1032 -1.4158  2.9486
  420MOL0     H56696  10.877   5.579   5.584  0.0889  1.4061 -0.8248
  420MOL0     H56697  10.849   5.385   4.950  0.1408 -0.3170  0.7251
  420MOL0     H56698  10.993   5.304   4.679  3.2826 -0.2058 -0.6639
  420MOL0     H56699  11.129   5.231   4.781  0.9515  1.1654 -0.1161
  420MOL0     H56700  10.959   5.214   4.817  0.4928 -1.1029  0.6701
  421MOL0     O56701   4.104   9.798   4.857  1.0412 -0.2821 -0.0147
  421MOL0     C56702   4.218   9.845   4.850  0.1566  0.2312 -0.2367
  421MOL0     O56703   4.278   9.945   4.934 -0.3866  1.0847  0.2187
  421MOL0     C56704   4.198   9.975   5.042  0.1914 -0.6720 -0.5839
  421MOL0     C56705   4.089  10.070   5.036 -0.3432 -0.5580  0.2354
  421MOL0     C56706   4.008  10.101   5.143  0.2069  0.3437  0.0117
  421MOL0     C56707   4.034  10.048   5.265  0.1270 -0.1204  0.2295
  421MOL0     O56708   3.953  10.063   5.378 -0.2714 -0.2935 -0.2680
  421MOL0     C56709   3.927  10.199   5.414 -0.3584 -0.3119  0.2969
  421MOL0     C56710   3.811  10.220   5.518 -0.4992  0.4428  0.7382
  421MOL0     C56711   3.678  10.226   5.447  0.6213  0.1234  0.2326
  421MOL0     C56712   3.565  10.245   5.548  0.4424 -0.2769 -0.9505
  421MOL0     C56713   3.436  10.273   5.477 -0.1967  0.2400  0.2814
  421MOL0     C56714   3.341  10.349   5.574  0.1263  0.5169 -0.3693
  421MOL0     C56715   3.202  10.376   5.517  0.0849 -0.1305  0.0135
  421MOL0     C56716   3.203  10.473   5.399 -0.1215  0.1423 -0.6972
  421MOL0     N56717   3.249  10.612   5.436  0.2794  0.1447 -1.1196
  421MOL0     C56718   3.179  10.736   5.409  0.1020 -0.1196 -1.0923
  421MOL0     C56719   3.271  10.827   5.392  0.5746 -0.1873 -0.0600
  421MOL0     C56720   3.228  10.970   5.360  0.6311 -0.0233  0.2987
  421MOL0     C56721   3.151  11.034   5.475  0.0316 -1.2897 -0.1963
  421MOL0     C56722   3.235  11.066   5.602  0.0818 -0.8955  0.6020
  421MOL0     C56723   3.312  11.198   5.593 -0.3475 -0.6476 -0.1004
  421MOL0     O56724   3.236  11.310   5.636  0.0825 -0.4857 -0.3810
  421MOL0     C56725   3.301  11.429   5.651  0.6744 -0.0823  1.2127
  421MOL0     C56726   3.434  11.455   5.626 -0.9546 -0.0952 -0.1067
  421MOL0     C56727   3.483  11.588   5.638 -0.1191 -0.1959 -0.1575
  421MOL0     C56728   3.401  11.694   5.680 -0.4774 -0.1028 -0.1009
  421MOL0     C56729   3.460  11.829   5.697  0.2198  0.3476 -1.0024
  421MOL0     O56730   3.591  11.847   5.691  0.2251  0.5944  0.1083
  421MOL0     C56731   3.642  11.980   5.686  0.1599 -0.1789  0.4040
  421MOL0     C56732   3.590  12.074   5.598  0.7389  0.2369  0.8682
  421MOL0     C56733   3.647  12.207   5.587 -0.2862 -0.0942  0.1223
  421MOL0     C56734   3.761  12.235   5.669  0.0044  0.4103  0.2125
  421MOL0     O56735   3.844  12.338   5.661  0.1271 -0.4087  0.3311
  421MOL0     C56736   3.841  12.418   5.538  0.2709 -0.6414 -0.2995
  421MOL0     C56737   3.930  12.543   5.565 -1.4942 -0.3607  0.2679
  421MOL0     C56738   4.078  12.507   5.563 -0.3111 -0.2552 -0.0144
  421MOL0     C56739   4.157  12.644   5.571  0.2684 -0.4405  0.1322
  421MOL0     C56740   4.298  12.599   5.536 -0.5846  0.0835 -0.3427
  421MOL0     C56741   4.388  12.722   5.516 -0.5821  0.4491  0.0983
  421MOL0     C56742   4.507  12.693   5.417 -0.2518  0.2874 -0.4280
  421MOL0     C56743   4.636  12.742   5.459 -0.2942 -0.3037  0.1157
  421MOL0    Cl56744   4.689  12.665   5.610  0.6828  0.2671 -0.1381
  421MOL0     C56745   3.809  12.137   5.756  0.2222  0.0931 -0.0735
  421MOL0     C56746   3.752  12.014   5.775  0.0477 -1.1707  0.4239
  421MOL0     O56747   3.376  11.921   5.709 -0.2187  0.0494  0.7323
  421MOL0     C56748   3.270  11.667   5.724  0.3003  0.7496  0.5630
  421MOL0     C56749   3.217  11.535   5.698  0.1125 -0.6413 -0.1585
  421MOL0     N56750   3.397  10.773   5.405  0.7130  0.8842  0.0649
  421MOL0     N56751   3.379  10.647   5.441 -0.1988 -0.7195 -0.5296
  421MOL0     C56752   4.135   9.953   5.280 -0.3548  0.1550 -0.9820
  421MOL0     C56753   4.217   9.924   5.173 -0.0066 -0.4043  0.4525
  421MOL0     C56754   4.290   9.801   4.727  0.1516 -0.6592 -0.3133
  421MOL0     C56755   4.288   9.873   4.607 -0.1386  0.8565 -0.5356
  421MOL0     C56756   4.377   9.845   4.504 -0.1224  0.5522  0.0476
  421MOL0     C56757   4.455   9.729   4.517 -1.8198 -0.5922 -0.0948
  421MOL0     O56758   4.544   9.683   4.420  0.1237 -0.5739 -0.2602
  421MOL0     C56759   4.548   9.743   4.293 -0.3125 -0.4859  0.7133
  421MOL0     C56760   4.649   9.671   4.205  0.6366 -0.1028  1.3475
  421MOL0     C56761   4.605   9.524   4.192 -0.0897  0.0036 -1.0401
  421MOL0     C56762   4.700   9.431   4.115  0.8374 -0.4422  0.4946
  421MOL0     C56763   4.625   9.308   4.097  0.4641  0.3710 -0.6147
  421MOL0     C56764   4.579   9.194   4.099  0.3354  0.1907  0.6364
  421MOL0     C56765   4.458   9.650   4.635  0.4750 -0.0532 -0.1632
  421MOL0     C56766   4.381   9.687   4.745  0.2343 -0.2091 -0.0057
  421MOL0     C56767   4.386   9.599   4.871 -0.1621 -0.7197  0.1606
  421MOL0     H56768   4.071  10.113   4.938 -0.0276  0.4393  0.6083
  421MOL0     H56769   3.931  10.175   5.123  1.4812  1.5567 -0.6127
  421MOL0     H56770   4.016  10.250   5.453 -0.0314 -0.7503  0.1391
  421MOL0     H56771   3.917  10.264   5.326  1.7317  1.7347  1.4551
  421MOL0     H56772   3.839  10.314   5.566  2.9396  0.2433 -0.5190
  421MOL0     H56773   3.816  10.141   5.593  2.6387 -1.0723 -0.8587
  421MOL0     H56774   3.662  10.133   5.391  2.4436 -0.0053 -0.1444
  421MOL0     H56775   3.674  10.303   5.370  0.8560  0.9149  0.9967
  421MOL0     H56776   3.540  10.158   5.610 -2.4685  2.2306  1.7324
  421MOL0     H56777   3.593  10.329   5.612 -0.5519 -1.2472  0.8411
  421MOL0     H56778   3.452  10.332   5.386  2.4260  1.4489  1.4350
  421MOL0     H56779   3.391  10.176   5.449 -0.6126  0.5392 -0.1096
  421MOL0     H56780   3.335  10.293   5.668 -0.4914  2.6992  0.9809
  421MOL0     H56781   3.398  10.439   5.601 -0.0976  0.5813 -0.1021
  421MOL0     H56782   3.130  10.413   5.591  2.3512  2.8971  0.9016
  421MOL0     H56783   3.154  10.284   5.482  2.0706 -0.3623 -2.3305
  421MOL0     H56784   3.287  10.442   5.336  0.8684  1.0833  0.1124
  421MOL0     H56785   3.110  10.467   5.341 -0.6771  0.1996  0.1750
  421MOL0     H56786   3.071  10.741   5.414  0.0429 -1.2365 -1.0986
  421MOL0     H56787   3.321  11.024   5.338  1.9451 -2.1823  0.2949
  421MOL0     H56788   3.159  10.955   5.276  0.0665 -0.8484  0.8929
  421MOL0     H56789   3.089  11.121   5.456  0.1803 -0.2295  3.3698
  421MOL0     H56790   3.084  10.960   5.521 -1.3691  0.5552  0.8528
  421MOL0     H56791   3.302  10.984   5.627 -1.9830 -2.4986  1.2042
  421MOL0     H56792   3.159  11.069   5.682 -2.1020 -0.7795 -1.3550
  421MOL0     H56793   3.366  11.215   5.499  0.2505  2.8537  0.7377
  421MOL0     H56794   3.386  11.183   5.672  0.0821 -1.0549 -0.5737
  421MOL0     H56795   3.502  11.378   5.590  2.0577  2.4592 -0.4049
  421MOL0     H56796   3.588  11.604   5.618 -0.2136  2.5670  1.0990
  421MOL0     H56797   3.507  12.041   5.537 -1.6285  0.4797  3.7599
  421MOL0     H56798   3.608  12.286   5.524 -0.0230 -0.7761 -0.9122
  421MOL0     H56799   3.881  12.367   5.450  1.2266 -2.6156  1.2055
  421MOL0     H56800   3.735  12.438   5.520  0.3463 -1.9787 -2.7237
  421MOL0     H56801   3.913  12.603   5.475 -3.5310 -1.4360 -0.1269
  421MOL0     H56802   3.913  12.592   5.661  1.2632  0.4749  0.4393
  421MOL0     H56803   4.098  12.437   5.645 -1.3528 -1.5845 -0.8673
  421MOL0     H56804   4.105  12.461   5.468 -0.1072  0.7335 -0.4447
  421MOL0     H56805   4.158  12.694   5.668  1.3998 -0.6560  0.2497
  421MOL0     H56806   4.117  12.712   5.496 -1.5260  0.3110  1.6716
  421MOL0     H56807   4.298  12.559   5.434  1.1757 -2.4717  0.5601
  421MOL0     H56808   4.355  12.532   5.602  1.7698 -1.7026 -3.8462
  421MOL0     H56809   4.331  12.813   5.493 -0.5724  0.0383 -1.7024
  421MOL0     H56810   4.425  12.758   5.612 -1.8322 -0.5077  0.9722
  421MOL0     H56811   4.497  12.765   5.335  1.3636  2.9264  1.5098
  421MOL0     H56812   4.509  12.587   5.391 -0.5091  0.4395 -1.0876
  421MOL0     H56813   4.717  12.733   5.386 -0.4131  0.1413 -0.0732
  421MOL0     H56814   4.616  12.847   5.482  0.6707 -0.6247  2.7791
  421MOL0     H56815   3.894  12.155   5.820  0.0456 -0.8516  0.4483
  421MOL0     H56816   3.793  11.945   5.848 -0.2509  0.5399  2.3004
  421MOL0     H56817   3.197  11.737   5.764 -1.1439  0.8695 -2.0699
  421MOL0     H56818   3.111  11.523   5.720  0.1364 -1.3560 -0.4161
  421MOL0     H56819   4.159   9.906   5.375  0.7060  1.4557 -0.5814
  421MOL0     H56820   4.307   9.867   5.193  0.0577 -0.4855 -0.0476
  421MOL0     H56821   4.230   9.965   4.603  1.4284  1.8402 -2.9529
  421MOL0     H56822   4.396   9.915   4.423 -0.8332 -1.9690 -2.4716
  421MOL0     H56823   4.576   9.848   4.288 -0.5991 -0.4681 -1.7686
  421MOL0     H56824   4.452   9.738   4.242 -0.6984 -2.4294  1.5155
  421MOL0     H56825   4.751   9.689   4.239  1.1961  0.2573 -0.3819
  421MOL0     H56826   4.650   9.706   4.101  1.7534 -0.0237  1.3685
  421MOL0     H56827   4.509   9.525   4.139 -0.5136  0.4174 -0.2873
  421MOL0     H56828   4.586   9.481   4.291 -1.0420  2.4213 -0.0930
  421MOL0     H56829   4.727   9.475   4.019  1.2977 -1.7364  0.0127
  421MOL0     H56830   4.793   9.408   4.168  2.1935 -0.4725 -1.8007
  421MOL0     H56831   4.522   9.104   4.095 -0.8852  0.9491  0.5856
  421MOL0     H56832   4.519   9.561   4.630  2.5325  1.1818  1.3938
  421MOL0     H56833   4.453   9.650   4.940  1.0611  1.3266 -2.3380
  421MOL0     H56834   4.281   9.604   4.902 -0.1707 -0.8748  0.1561
  421MOL0     H56835   4.424   9.498   4.851  0.2999 -0.3572 -0.9058
  422MOL0     O56836   8.168   9.935   8.123 -0.7072 -0.5003  0.2597
  422MOL0     C56837   8.175   9.876   8.012  0.6149 -0.0014 -0.1026
  422MOL0     O56838   8.286   9.844   7.947 -0.5762 -0.3234  0.0934
  422MOL0     C56839   8.402   9.923   7.979  0.1375 -0.4301 -0.0064
  422MOL0     C56840   8.503   9.874   8.058  1.1661  0.6855  0.6503
  422MOL0     C56841   8.604   9.957   8.100 -0.3336  0.2201  0.0313
  422MOL0     C56842   8.629  10.079   8.033  0.0052  0.4264  0.5768
  422MOL0     O56843   8.749  10.133   8.070  0.0101 -0.0417 -0.0697
  422MOL0     C56844   8.793  10.236   7.987  0.8060 -0.9987  0.0599
  422MOL0     C56845   8.884  10.324   8.067 -0.3263  0.1884 -0.3159
  422MOL0     C56846   9.002  10.251   8.129 -0.2568  0.3452  0.0517
  422MOL0     C56847   9.097  10.332   8.215  0.4460  0.3485  0.5050
  422MOL0     C56848   9.192  10.242   8.303 -0.2153 -0.3568  0.0317
  422MOL0     C56849   9.327  10.289   8.282 -0.1664  0.4659  0.3764
  422MOL0     C56850   9.430  10.188   8.343  0.3055 -0.3582  0.2856
  422MOL0     C56851   9.575  10.234   8.329 -0.7204 -0.2299 -1.1596
  422MOL0     N56852   9.611  10.338   8.429  0.0564  0.7362  0.0597
  422MOL0     C56853   9.595  10.318   8.569 -0.8264  0.6213  0.2447
  422MOL0     C56854   9.618  10.433   8.626 -0.3674 -0.4148 -0.0868
  422MOL0     C56855   9.615  10.480   8.771  0.0292 -0.8223 -0.4427
  422MOL0     C56856   9.699  10.382   8.856 -0.3170 -0.8148 -1.2734
  422MOL0     C56857   9.843  10.377   8.816 -1.2115 -0.1329 -0.2236
  422MOL0     C56858   9.932  10.289   8.905 -0.3375  0.6695  0.4095
  422MOL0     O56859   9.936  10.340   9.039 -0.0648 -0.0685 -0.5237
  422MOL0     C56860  10.048  10.391   9.092 -0.1160  0.3779 -0.4095
  422MOL0     C56861  10.030  10.442   9.221  1.0914  0.3674 -0.2599
  422MOL0     C56862  10.131  10.509   9.292 -0.4115  0.4254  0.1115
  422MOL0     C56863  10.262  10.511   9.235  0.2236 -0.0214  0.1188
  422MOL0     C56864  10.363  10.580   9.309  0.2779  0.0787  0.4223
  422MOL0     O56865  10.488  10.536   9.275  0.1035 -0.4294  0.1183
  422MOL0     C56866  10.607  10.576   9.338  0.5911  1.0321  0.4552
  422MOL0     C56867  10.719  10.530   9.288 -0.6099 -0.7764  0.3738
  422MOL0     C56868  10.845  10.566   9.340  0.5750 -0.6146 -0.2414
  422MOL0     C56869  10.852  10.651   9.460 -0.8405 -0.3157  0.4568
  422MOL0     O56870  10.970  10.687   9.525 -0.7509 -0.4744  0.3869
  422MOL0     C56871  11.081  10.713   9.438  0.4654 -0.5969 -0.6745
  422MOL0     C56872  11.210  10.747   9.505 -0.5325  0.3100 -0.0305
  422MOL0     C56873  11.331  10.738   9.399 -0.6253 -0.4384  1.1478
  422MOL0     C56874  11.443  10.827   9.440  0.2859 -0.1938  0.4230
  422MOL0     C56875  11.530  10.856   9.318  0.0353 -0.0471 -0.3398
  422MOL0     C56876  11.649  10.933   9.359 -0.0109 -0.5477 -0.6522
  422MOL0     C56877  11.751  10.956   9.248  0.1439  0.1091 -0.1669
  422MOL0     C56878  11.855  11.056   9.296 -0.6810  0.5169  0.1204
  422MOL0    Cl56879  11.985  11.044   9.166  0.2286  0.0726  0.0556
  422MOL0     C56880  10.734  10.693   9.515 -0.4117  0.3611 -0.1646
  422MOL0     C56881  10.612  10.658   9.450 -0.6142  0.0494 -0.7380
  422MOL0     O56882  10.337  10.688   9.368 -0.3020 -0.2508  0.3558
  422MOL0     C56883  10.285  10.449   9.117 -0.3581  0.5341 -0.2132
  422MOL0     C56884  10.180  10.388   9.039 -0.5461 -0.2453  0.6327
  422MOL0     N56885   9.652  10.527   8.530 -0.0978 -0.4897 -0.1202
  422MOL0     N56886   9.650  10.469   8.412  0.0340 -0.0253  0.6751
  422MOL0     C56887   8.528  10.129   7.949 -0.4065 -0.0693 -0.2669
  422MOL0     C56888   8.415  10.054   7.926  0.6524 -0.8696  0.5384
  422MOL0     C56889   8.059   9.826   7.951 -0.4241  0.1826 -0.2540
  422MOL0     C56890   7.977   9.734   8.015 -0.8617 -0.0885 -0.5011
  422MOL0     C56891   7.864   9.665   7.963 -0.8255 -0.0185  0.6717
  422MOL0     C56892   7.830   9.691   7.836 -0.6716  0.0116  0.6931
  422MOL0     O56893   7.723   9.637   7.769 -0.6070 -0.4584 -0.4563
  422MOL0     C56894   7.638   9.541   7.836 -0.3782 -0.5490 -0.2994
  422MOL0     C56895   7.527   9.492   7.732 -0.4330  0.4110 -0.1744
  422MOL0     C56896   7.428   9.398   7.802  0.2264 -0.4654 -0.5185
  422MOL0     C56897   7.301   9.474   7.837  0.5007  1.0893 -0.0135
  422MOL0     C56898   7.200   9.362   7.859  0.3596 -0.4262  0.3021
  422MOL0     C56899   7.104   9.291   7.867  0.5398 -0.2262 -0.2976
  422MOL0     C56900   7.909   9.782   7.761 -0.7018 -0.5929  0.1426
  422MOL0     C56901   8.022   9.854   7.811  0.7124  0.1353  1.3073
  422MOL0     C56902   8.102   9.936   7.717 -1.4281  0.6274 -0.8313
  422MOL0     H56903   8.502   9.772   8.095 -2.3128  0.3649 -0.0337
  422MOL0     H56904   8.677   9.920   8.171 -0.4852 -1.8768 -0.8198
  422MOL0     H56905   8.852  10.186   7.910 -0.2176 -0.4616 -1.1247
  422MOL0     H56906   8.717  10.301   7.943  0.2476 -0.8569  1.2086
  422MOL0     H56907   8.823  10.376   8.142 -1.1298  0.2256 -0.9826
  422MOL0     H56908   8.920  10.393   7.990  0.8553 -1.8605 -1.6900
  422MOL0     H56909   9.056  10.198   8.050 -1.4962  0.6810 -1.0641
  422MOL0     H56910   8.971  10.174   8.201  3.4789  1.3359  3.0181
  422MOL0     H56911   9.153  10.396   8.145 -0.2175  1.3628  0.8772
  422MOL0     H56912   9.043  10.405   8.275  2.5765  2.2292  0.2877
  422MOL0     H56913   9.160  10.248   8.407  1.5655  1.8867  0.5433
  422MOL0     H56914   9.185  10.138   8.271 -1.7460 -0.1011 -0.5498
  422MOL0     H56915   9.343  10.297   8.174  0.7950  1.3662  0.5670
  422MOL0     H56916   9.347  10.386   8.329  0.3472  1.1676 -1.2279
  422MOL0     H56917   9.415  10.088   8.302  1.1778  0.5415 -2.5223
  422MOL0     H56918   9.408  10.183   8.450  0.0490  2.9358  0.4966
  422MOL0     H56919   9.635  10.143   8.334 -2.7558 -1.6552 -1.0023
  422MOL0     H56920   9.577  10.283   8.232 -3.5515  2.1989 -0.1671
  422MOL0     H56921   9.565  10.225   8.616  2.1400 -0.9003 -0.6157
  422MOL0     H56922   9.657  10.580   8.785 -1.9682 -0.0905  0.8225
  422MOL0     H56923   9.512  10.490   8.807 -0.5553 -2.6672 -1.4698
  422MOL0     H56924   9.696  10.417   8.959 -0.6314 -0.5082 -1.3807
  422MOL0     H56925   9.667  10.277   8.866 -0.4913 -0.5080  2.9877
  422MOL0     H56926   9.890  10.475   8.827  0.2354 -0.9884  1.7919
  422MOL0     H56927   9.846  10.324   8.720  0.9800  1.2685 -0.9977
  422MOL0     H56928  10.031  10.278   8.860 -0.5631 -3.6536  0.5700
  422MOL0     H56929   9.888  10.189   8.894  0.1298  0.6455 -1.6753
  422MOL0     H56930   9.935  10.418   9.268  1.8150 -1.9690  0.1840
  422MOL0     H56931  10.122  10.556   9.390  0.4928  2.7632 -0.8337
  422MOL0     H56932  10.709  10.465   9.202 -0.7155 -0.8762  0.4598
  422MOL0     H56933  10.939  10.529   9.301  1.0731 -2.5724  2.5037
  422MOL0     H56934  11.104  10.631   9.369  0.5390 -0.1407 -1.2040
  422MOL0     H56935  11.057  10.790   9.364  2.4593  0.3369 -0.4232
  422MOL0     H56936  11.201  10.847   9.548 -0.9762 -0.0474  0.7297
  422MOL0     H56937  11.235  10.684   9.591 -0.0715 -1.1592 -1.1934
  422MOL0     H56938  11.359  10.632   9.394  2.1761  0.2947 -1.2072
  422MOL0     H56939  11.300  10.766   9.298  1.7581  3.4435  1.2750
  422MOL0     H56940  11.491  10.782   9.528  0.2023  0.4115  0.7859
  422MOL0     H56941  11.406  10.920   9.483  1.6209 -0.0719  1.3916
  422MOL0     H56942  11.464  10.903   9.245  0.3912 -0.4677 -0.9417
  422MOL0     H56943  11.560  10.774   9.253 -1.5831  0.5395 -1.8914
  422MOL0     H56944  11.613  11.030   9.393 -1.8068 -2.3655  3.2746
  422MOL0     H56945  11.691  10.890   9.450 -2.0879  0.2509  0.7587
  422MOL0     H56946  11.709  10.992   9.154  1.3700  0.4403 -0.6192
  422MOL0     H56947  11.806  10.863   9.229 -1.3007 -1.6065  3.2699
  422MOL0     H56948  11.804  11.150   9.315 -3.2996 -1.0177  1.2970
  422MOL0     H56949  11.898  11.034   9.394 -0.8647 -1.2346 -0.1530
  422MOL0     H56950  10.737  10.750   9.607 -1.5581  0.1139  0.0519
  422MOL0     H56951  10.527  10.710   9.492  0.7875  1.6798  0.1918
  422MOL0     H56952  10.382  10.446   9.070 -1.9289 -3.2387 -3.8331
  422MOL0     H56953  10.200  10.332   8.948 -1.1380 -0.1100  0.4166
  422MOL0     H56954   8.538  10.223   7.896  1.5890 -0.1985 -0.2115
  422MOL0     H56955   8.333  10.098   7.869  0.5520 -0.4251  1.0219
  422MOL0     H56956   8.006   9.699   8.114  1.6859  3.3875  0.1868
  422MOL0     H56957   7.819   9.584   8.021  3.4100 -1.8014  1.8566
  422MOL0     H56958   7.584   9.590   7.917  1.4496 -1.0294  1.2628
  422MOL0     H56959   7.693   9.453   7.870 -0.5304  0.4836  2.8962
  422MOL0     H56960   7.579   9.437   7.653 -2.1416  1.2667 -1.9696
  422MOL0     H56961   7.479   9.572   7.677  1.2474 -0.2527 -2.7796
  422MOL0     H56962   7.480   9.367   7.893  0.4524 -1.0077 -0.8254
  422MOL0     H56963   7.407   9.314   7.734  1.3373  0.4092 -2.0145
  422MOL0     H56964   7.322   9.538   7.924 -0.5618  1.9925 -0.3965
  422MOL0     H56965   7.265   9.545   7.762 -2.8290 -0.0155  0.3678
  422MOL0     H56966   7.018   9.229   7.882  0.4784  0.1009  0.7574
  422MOL0     H56967   7.901   9.791   7.654 -0.3599  1.0741  0.2342
  422MOL0     H56968   8.134  10.030   7.763 -1.8728  1.0050 -1.2920
  422MOL0     H56969   8.192   9.880   7.689 -1.0266  2.1023 -2.7112
  422MOL0     H56970   8.042   9.952   7.627 -3.4392 -0.6055  0.2301
  423MOL0     O56971   6.832   4.593   1.361 -0.2506  0.0398  0.4430
  423MOL0     C56972   6.813   4.560   1.475  0.3090  0.5201 -0.4097
  423MOL0     O56973   6.906   4.492   1.554 -0.2348  0.2365 -0.3258
  423MOL0     C56974   7.031   4.474   1.507 -0.0676 -0.1352 -0.9515
  423MOL0     C56975   7.120   4.581   1.512  0.7270  0.2899 -0.8608
  423MOL0     C56976   7.251   4.573   1.475 -0.0928 -0.6016 -0.2337
  423MOL0     C56977   7.299   4.455   1.411 -0.4886 -0.0385 -0.7166
  423MOL0     O56978   7.430   4.439   1.371 -0.0857 -0.8791  0.5175
  423MOL0     C56979   7.484   4.551   1.295  0.2697  0.5912  0.0039
  423MOL0     C56980   7.632   4.546   1.279 -0.1548 -0.6173 -0.5720
  423MOL0     C56981   7.706   4.590   1.399 -0.5016  0.1180  0.7601
  423MOL0     C56982   7.852   4.614   1.376 -0.3178 -0.1121  0.0674
  423MOL0     C56983   7.935   4.639   1.502 -0.5875  0.1984 -0.4967
  423MOL0     C56984   8.080   4.685   1.454  0.6356 -0.6060  0.3326
  423MOL0     C56985   8.154   4.737   1.584  0.7088  0.4426  0.9217
  423MOL0     C56986   8.294   4.733   1.570 -1.0082 -0.2940  0.2732
  423MOL0     N56987   8.347   4.593   1.581 -1.0754  0.0552  0.0332
  423MOL0     C56988   8.459   4.558   1.662  0.2706  0.1576 -0.0365
  423MOL0     C56989   8.516   4.442   1.611 -0.0461 -0.1152  0.0779
  423MOL0     C56990   8.637   4.358   1.662  0.7596  0.0572  0.0928
  423MOL0     C56991   8.726   4.294   1.562 -0.5817 -0.2611 -0.3365
  423MOL0     C56992   8.812   4.392   1.477  0.1117  0.0270  0.1959
  423MOL0     C56993   8.905   4.318   1.372 -0.0567 -0.6450 -0.1164
  423MOL0     O56994   9.011   4.267   1.450 -0.2726 -0.5715  0.1556
  423MOL0     C56995   9.130   4.339   1.470 -0.0503  0.2546  0.3105
  423MOL0     C56996   9.230   4.284   1.552  0.1339  1.1763  0.4727
  423MOL0     C56997   9.353   4.351   1.566  1.1546  1.3282 -0.3400
  423MOL0     C56998   9.375   4.476   1.508 -0.4642  0.1194  0.9074
  423MOL0     C56999   9.506   4.541   1.516  0.4234 -0.1263  0.0978
  423MOL0     O57000   9.526   4.658   1.450 -0.3329 -0.4826 -0.6018
  423MOL0     C57001   9.647   4.692   1.424  0.1230 -0.2929  0.1407
  423MOL0     C57002   9.697   4.678   1.295  0.6548 -0.5060  0.7383
  423MOL0     C57003   9.825   4.730   1.266  0.3200  0.2438 -0.0672
  423MOL0     C57004   9.902   4.792   1.364 -0.5246 -0.2055 -0.3010
  423MOL0     O57005  10.032   4.832   1.345 -0.0063  0.6148  0.3057
  423MOL0     C57006  10.061   4.885   1.219  0.1159  0.0745 -0.0927
  423MOL0     C57007  10.195   4.958   1.238  0.9347 -0.1279 -0.3909
  423MOL0     C57008  10.313   4.859   1.231 -0.4122  0.2011 -0.1619
  423MOL0     C57009  10.434   4.913   1.311  0.2862  0.4227 -0.8600
  423MOL0     C57010  10.560   4.830   1.287 -0.7592 -0.4702  0.6773
  423MOL0     C57011  10.550   4.695   1.365  0.3160  0.7858  0.6505
  423MOL0     C57012  10.664   4.613   1.329 -0.1936  0.1679 -0.8673
  423MOL0     C57013  10.717   4.523   1.452 -0.2233 -0.1137  0.7019
  423MOL0    Cl57014  10.583   4.415   1.496 -0.6939  0.0918 -0.0104
  423MOL0     C57015   9.847   4.795   1.497  0.0265 -0.3301 -0.3596
  423MOL0     C57016   9.721   4.749   1.533 -0.2792 -0.2307  0.8279
  423MOL0     O57017   9.593   4.483   1.587  0.7210  0.4596 -0.1647
  423MOL0     C57018   9.277   4.526   1.425 -0.1181  0.5022 -0.7240
  423MOL0     C57019   9.159   4.457   1.397 -0.0590 -0.0264  0.5468
  423MOL0     N57020   8.432   4.412   1.502 -0.1764  0.3481  0.4418
  423MOL0     N57021   8.335   4.497   1.483  0.0559  0.3242 -0.2322
  423MOL0     C57022   7.209   4.347   1.404 -0.6036 -0.1146 -0.8182
  423MOL0     C57023   7.071   4.357   1.448  0.2468  0.7678  0.2984
  423MOL0     C57024   6.686   4.594   1.539 -0.5082 -0.6955 -0.6925
  423MOL0     C57025   6.663   4.557   1.673  0.5490 -0.8474  0.1917
  423MOL0     C57026   6.538   4.552   1.742 -0.0551  0.3133  0.0483
  423MOL0     C57027   6.434   4.610   1.670 -0.2565 -0.0707 -0.7848
  423MOL0     O57028   6.294   4.607   1.703  0.1322 -0.0634 -0.8120
  423MOL0     C57029   6.249   4.533   1.821  0.2693  0.1882 -0.3329
  423MOL0     C57030   6.098   4.540   1.819  0.4486 -0.0498 -0.4120
  423MOL0     C57031   6.033   4.445   1.715  0.0520 -0.1787 -0.7227
  423MOL0     C57032   5.879   4.423   1.729  0.5149 -0.3565  0.9966
  423MOL0     C57033   5.846   4.349   1.852  0.3989  0.4220 -0.1918
  423MOL0     C57034   5.855   4.293   1.958  0.1117 -0.0734  0.6606
  423MOL0     C57035   6.454   4.681   1.553  0.1230 -0.8452 -0.6566
  423MOL0     C57036   6.582   4.677   1.489  0.8047  0.0581 -1.1219
  423MOL0     C57037   6.584   4.740   1.355  0.7462 -0.0187 -0.5197
  423MOL0     H57038   7.094   4.676   1.557  1.5410 -0.0712  0.4401
  423MOL0     H57039   7.303   4.668   1.486 -1.5734  0.5325 -2.2684
  423MOL0     H57040   7.450   4.555   1.191 -1.0404  1.4992  0.4448
  423MOL0     H57041   7.454   4.641   1.350 -2.0597  0.0007 -0.1809
  423MOL0     H57042   7.660   4.619   1.203 -1.9650 -0.4222 -1.1105
  423MOL0     H57043   7.657   4.443   1.253 -1.7873 -1.6447  1.5908
  423MOL0     H57044   7.681   4.514   1.474  1.4988 -1.7685 -0.3716
  423MOL0     H57045   7.671   4.683   1.446 -1.1140 -0.0586  0.6581
  423MOL0     H57046   7.898   4.523   1.337  2.0239  0.3851  1.4414
  423MOL0     H57047   7.871   4.693   1.303 -0.6199 -0.4950 -0.4228
  423MOL0     H57048   7.891   4.727   1.550 -1.0870 -1.0482  1.4241
  423MOL0     H57049   7.925   4.548   1.561 -3.1528  0.5700 -0.2411
  423MOL0     H57050   8.131   4.601   1.405  2.6236  1.8852 -2.2513
  423MOL0     H57051   8.063   4.763   1.379 -1.8127 -0.9998  0.4054
  423MOL0     H57052   8.131   4.672   1.669 -3.1835 -0.6789 -0.7398
  423MOL0     H57053   8.111   4.835   1.606 -1.7602  0.3044 -2.3790
  423MOL0     H57054   8.330   4.769   1.473  1.5450  1.2864  1.6888
  423MOL0     H57055   8.341   4.799   1.644  2.0075 -3.5688  1.5682
  423MOL0     H57056   8.490   4.628   1.740  0.6711  1.8687 -1.6718
  423MOL0     H57057   8.692   4.425   1.729  1.2427 -0.0350 -0.2115
  423MOL0     H57058   8.585   4.284   1.723  0.4224  1.2807  1.3675
  423MOL0     H57059   8.790   4.235   1.628 -1.6036  2.0281  2.9736
  423MOL0     H57060   8.670   4.239   1.486  1.6008  0.3161 -2.4647
  423MOL0     H57061   8.873   4.451   1.546 -1.5233  1.8319  0.1845
  423MOL0     H57062   8.748   4.465   1.426  0.0731  1.2506  1.9074
  423MOL0     H57063   8.941   4.373   1.285 -0.3645 -1.9797 -1.1107
  423MOL0     H57064   8.860   4.226   1.335  1.4721 -2.0045  1.2177
  423MOL0     H57065   9.209   4.186   1.594 -0.0148 -0.0556 -2.2589
  423MOL0     H57066   9.430   4.303   1.624 -0.1869 -0.2325  0.2177
  423MOL0     H57067   9.633   4.630   1.222  2.8516 -1.3324 -0.7782
  423MOL0     H57068   9.853   4.717   1.162  2.1102  5.0120 -0.4070
  423MOL0     H57069  10.062   4.816   1.134  0.4385  0.0409 -0.0602
  423MOL0     H57070   9.982   4.960   1.210 -0.5837 -0.4101  1.6536
  423MOL0     H57071  10.219   5.033   1.162  0.3743 -1.1536 -1.6201
  423MOL0     H57072  10.206   5.001   1.338 -0.6396  2.6011 -1.2866
  423MOL0     H57073  10.282   4.764   1.278 -0.1739  1.5687  3.0229
  423MOL0     H57074  10.336   4.833   1.127 -1.7690 -0.4746 -0.3291
  423MOL0     H57075  10.405   4.919   1.416 -0.8419  0.5293 -1.1598
  423MOL0     H57076  10.449   5.013   1.269  1.0491  0.3894 -0.6914
  423MOL0     H57077  10.649   4.887   1.316 -0.6824  0.3677 -1.0803
  423MOL0     H57078  10.563   4.805   1.181 -3.0672 -0.6802  0.6056
  423MOL0     H57079  10.542   4.704   1.474 -1.9186  0.4441  0.5662
  423MOL0     H57080  10.459   4.638   1.344 -0.3841  1.8680  0.6142
  423MOL0     H57081  10.749   4.670   1.291 -0.7402  1.3544 -0.3335
  423MOL0     H57082  10.638   4.552   1.241  2.2342  0.3443 -1.7844
  423MOL0     H57083  10.803   4.463   1.422 -0.0336  0.8093 -0.6624
  423MOL0     H57084  10.758   4.590   1.529  4.5670  1.0600 -2.4434
  423MOL0     H57085   9.921   4.816   1.574  0.5586 -3.1608  0.0086
  423MOL0     H57086   9.678   4.749   1.633 -3.9146  0.4902 -0.5507
  423MOL0     H57087   9.298   4.617   1.371 -0.1016  0.7507 -0.3046
  423MOL0     H57088   9.094   4.500   1.321  1.0428 -1.7239 -1.4456
  423MOL0     H57089   7.252   4.259   1.356 -1.8056 -0.2898 -1.6345
  423MOL0     H57090   6.998   4.277   1.451  2.5543 -1.5395 -0.6036
  423MOL0     H57091   6.743   4.514   1.733  0.9567  1.1029  1.1253
  423MOL0     H57092   6.518   4.499   1.835 -1.4223 -3.1821 -2.0733
  423MOL0     H57093   6.281   4.581   1.914  0.4782  0.6869 -0.6579
  423MOL0     H57094   6.285   4.430   1.831 -0.1003  0.2056  1.7271
  423MOL0     H57095   6.078   4.648   1.813 -0.0066 -0.0698  0.5636
  423MOL0     H57096   6.059   4.521   1.919 -0.4153 -1.2674 -0.9694
  423MOL0     H57097   6.067   4.341   1.716 -0.1303 -0.3688  3.6793
  423MOL0     H57098   6.052   4.489   1.616  0.1626 -0.0039 -0.6240
  423MOL0     H57099   5.828   4.520   1.728  2.9592  0.9953  0.2302
  423MOL0     H57100   5.852   4.359   1.644 -0.1523  1.8622 -0.5568
  423MOL0     H57101   5.860   4.242   2.052 -1.0191  1.8700  1.8453
  423MOL0     H57102   6.368   4.739   1.521  0.0986  0.6962  1.9084
  423MOL0     H57103   6.519   4.828   1.348 -2.2869 -1.7673  2.6131
  423MOL0     H57104   6.681   4.778   1.324 -0.3681  0.8304 -3.3220
  423MOL0     H57105   6.567   4.661   1.280  0.2521 -0.0989 -0.3256
  424MOL0     O57106   3.356   8.886   4.395 -0.3724  0.4997  0.3797
  424MOL0     C57107   3.348   9.003   4.345  0.7739  0.4700 -2.0015
  424MOL0     O57108   3.438   9.060   4.272 -0.7694 -0.0765 -0.0960
  424MOL0     C57109   3.569   9.020   4.295  0.2887  0.3815 -0.6812
  424MOL0     C57110   3.644   8.967   4.195 -0.5440 -0.7370  0.1344
  424MOL0     C57111   3.778   8.925   4.220  0.1331 -0.2013  1.4629
  424MOL0     C57112   3.836   8.947   4.346  0.8464  0.2368 -0.5194
  424MOL0     O57113   3.960   8.902   4.384 -0.7919  0.0976  0.8119
  424MOL0     C57114   4.023   8.796   4.308  0.2340  0.1023 -0.8303
  424MOL0     C57115   4.128   8.857   4.221 -0.1838 -0.2683  0.4222
  424MOL0     C57116   4.269   8.908   4.298  0.1138 -0.0699  0.1751
  424MOL0     C57117   4.367   8.783   4.313 -1.0246  0.5515  0.4047
  424MOL0     C57118   4.491   8.835   4.375  0.0692  0.5514 -0.4732
  424MOL0     C57119   4.593   8.720   4.429 -0.3584 -0.3454  0.1159
  424MOL0     C57120   4.668   8.660   4.310 -0.8373  1.3810 -0.4185
  424MOL0     C57121   4.787   8.749   4.262 -0.3070  0.4258 -0.6460
  424MOL0     N57122   4.897   8.769   4.363  0.3923 -0.5260  0.7038
  424MOL0     C57123   4.927   8.898   4.398 -0.1571 -0.1598  0.0687
  424MOL0     C57124   5.036   8.876   4.484 -0.2150 -0.1349 -0.5124
  424MOL0     C57125   5.100   8.990   4.558 -1.2008 -0.5643 -0.0513
  424MOL0     C57126   5.252   8.983   4.532 -0.3306 -0.5900 -0.8689
  424MOL0     C57127   5.333   9.092   4.603 -0.2859  0.5617 -0.1631
  424MOL0     C57128   5.312   9.095   4.759 -0.3964 -0.4169 -0.4672
  424MOL0     O57129   5.368   9.218   4.808  0.0042  0.3227  0.6282
  424MOL0     C57130   5.499   9.229   4.845 -0.3639 -0.1593  0.5954
  424MOL0     C57131   5.545   9.330   4.935 -0.0238  0.4380 -0.3944
  424MOL0     C57132   5.686   9.337   4.973 -0.6280  0.2055  0.6392
  424MOL0     C57133   5.781   9.248   4.914  0.2776  0.1759 -0.3015
  424MOL0     C57134   5.925   9.279   4.944 -0.4823  0.8820  0.3911
  424MOL0     O57135   5.954   9.396   5.021  0.6902 -1.0936  0.6916
  424MOL0     C57136   6.086   9.409   5.048 -0.0963 -0.4013  0.4093
  424MOL0     C57137   6.154   9.518   4.985 -0.1710 -0.4896 -0.4887
  424MOL0     C57138   6.297   9.537   4.999 -0.0680 -0.0494 -0.0111
  424MOL0     C57139   6.362   9.444   5.067  0.2407  0.7827 -0.1653
  424MOL0     O57140   6.493   9.452   5.114  0.0719 -0.4275 -0.3801
  424MOL0     C57141   6.566   9.572   5.080  0.7556 -0.4437 -0.4870
  424MOL0     C57142   6.693   9.578   5.155  0.0249  0.2151 -0.2566
  424MOL0     C57143   6.823   9.542   5.070  0.1850 -0.0242 -0.1304
  424MOL0     C57144   6.952   9.539   5.161 -0.2951 -0.1537  1.0691
  424MOL0     C57145   7.079   9.508   5.074 -0.2423 -0.3084  0.0226
  424MOL0     C57146   7.208   9.532   5.163  0.6531  0.8569  0.4088
  424MOL0     C57147   7.324   9.556   5.068  0.2391 -0.0205  0.6772
  424MOL0     C57148   7.443   9.533   5.149 -0.8297  0.6361 -0.6886
  424MOL0    Cl57149   7.590   9.572   5.054 -0.5964  0.1076 -0.2039
  424MOL0     C57150   6.299   9.344   5.134  0.1888 -0.4056 -0.0270
  424MOL0     C57151   6.159   9.325   5.126 -1.5197  1.2282  0.4111
  424MOL0     O57152   6.006   9.198   4.902  0.2445  0.0803  0.2143
  424MOL0     C57153   5.738   9.148   4.827 -0.0445  0.2501 -0.2386
  424MOL0     C57154   5.594   9.136   4.797 -0.6847  0.0085 -0.0428
  424MOL0     N57155   5.055   8.740   4.499 -0.1535  0.7925  0.5366
  424MOL0     N57156   4.967   8.675   4.430 -0.8405 -0.1219 -1.0021
  424MOL0     C57157   3.762   9.015   4.446 -1.4419 -0.7914 -0.3473
  424MOL0     C57158   3.628   9.050   4.418  0.0004  0.6151  0.1235
  424MOL0     C57159   3.211   9.075   4.360  0.4283  0.1404 -0.3855
  424MOL0     C57160   3.185   9.184   4.277  0.3419 -0.1132  0.3547
  424MOL0     C57161   3.061   9.249   4.283  0.4729  0.7049  0.5838
  424MOL0     C57162   2.958   9.209   4.366  0.1002  0.2247  0.1021
  424MOL0     O57163   2.835   9.277   4.364 -0.2475  0.0550 -0.2491
  424MOL0     C57164   2.782   9.356   4.255 -0.7715  0.0344 -0.4307
  424MOL0     C57165   2.750   9.269   4.139 -0.0064  0.3355  0.5731
  424MOL0     C57166   2.685   9.135   4.160  0.3643 -0.0708  0.4480
  424MOL0     C57167   2.563   9.127   4.261  0.1863  0.2724  0.3964
  424MOL0     C57168   2.438   9.194   4.224 -0.5722  0.0083  0.1123
  424MOL0     C57169   2.325   9.237   4.199 -0.8927 -0.0317 -0.1191
  424MOL0     C57170   2.989   9.119   4.460  0.0542  0.6873 -0.1512
  424MOL0     C57171   3.113   9.048   4.464  0.0641  0.1949  0.0726
  424MOL0     C57172   3.133   8.955   4.579  0.1199  0.2259 -0.3000
  424MOL0     H57173   3.605   8.951   4.095 -1.2156  3.0745 -0.3693
  424MOL0     H57174   3.825   8.876   4.135 -1.3783 -0.0214  0.4795
  424MOL0     H57175   4.062   8.723   4.380 -1.1181 -0.2902 -0.4737
  424MOL0     H57176   3.950   8.739   4.249  1.4481 -2.1650 -0.2653
  424MOL0     H57177   4.088   8.939   4.161  1.9704  1.0801  0.7077
  424MOL0     H57178   4.162   8.784   4.147  2.2213 -0.9470  2.0432
  424MOL0     H57179   4.252   8.952   4.397  1.0954  1.6564 -0.3810
  424MOL0     H57180   4.316   8.976   4.227 -0.0904 -2.0010 -1.9400
  424MOL0     H57181   4.331   8.708   4.384 -0.9384  0.9964  0.9229
  424MOL0     H57182   4.385   8.738   4.215  1.1288 -0.5399  1.2202
  424MOL0     H57183   4.534   8.907   4.305 -1.3236  3.2435  1.2592
  424MOL0     H57184   4.468   8.895   4.464 -1.4019 -0.3375 -0.2261
  424MOL0     H57185   4.656   8.757   4.510 -0.4317 -0.6981  0.3372
  424MOL0     H57186   4.534   8.639   4.473 -1.0461  0.7265  1.2011
  424MOL0     H57187   4.603   8.643   4.223  0.4102  0.2601 -1.1844
  424MOL0     H57188   4.705   8.564   4.346  3.0684  2.7982 -0.1100
  424MOL0     H57189   4.832   8.701   4.174 -3.3966 -2.0075 -1.1026
  424MOL0     H57190   4.745   8.848   4.246  1.7690  1.3010 -1.0466
  424MOL0     H57191   4.875   8.992   4.382  0.2673  0.4357  1.9142
  424MOL0     H57192   5.051   9.085   4.536  0.8559  0.0571 -2.3155
  424MOL0     H57193   5.089   8.958   4.662 -2.1546 -0.5403 -0.1384
  424MOL0     H57194   5.282   8.889   4.580 -0.3833 -0.2275 -0.1053
  424MOL0     H57195   5.271   8.989   4.425  0.2306  2.0617 -0.7038
  424MOL0     H57196   5.297   9.187   4.563 -1.0236  0.5674  0.5052
  424MOL0     H57197   5.439   9.070   4.583 -0.1328 -0.2226  1.3710
  424MOL0     H57198   5.353   9.005   4.806  1.6636 -1.3331 -3.7233
  424MOL0     H57199   5.206   9.085   4.784 -0.0710 -2.3975  0.3011
  424MOL0     H57200   5.472   9.399   4.977  0.2808  0.6634 -0.2238
  424MOL0     H57201   5.717   9.413   5.044  1.6790  0.8649 -0.9755
  424MOL0     H57202   6.096   9.590   4.929  1.0584 -0.1767 -1.4119
  424MOL0     H57203   6.343   9.621   4.949 -0.5439  0.0813 -0.2347
  424MOL0     H57204   6.574   9.588   4.972 -0.8062  1.0937 -0.4265
  424MOL0     H57205   6.506   9.659   5.108 -0.5385 -0.7955 -2.0871
  424MOL0     H57206   6.706   9.674   5.205 -2.9607 -0.6954  2.6496
  424MOL0     H57207   6.683   9.511   5.241  0.4785  0.7634  0.2329
  424MOL0     H57208   6.813   9.446   5.018  1.6636  0.3141 -1.0908
  424MOL0     H57209   6.835   9.625   5.000 -0.3263 -0.5280 -0.8245
  424MOL0     H57210   6.943   9.463   5.238 -0.8145 -1.7566 -0.5121
  424MOL0     H57211   6.962   9.639   5.205  0.4823 -1.0352  3.0027
  424MOL0     H57212   7.073   9.571   4.984  2.2011  1.5586  1.0514
  424MOL0     H57213   7.074   9.404   5.039 -1.0415  0.5753 -2.7880
  424MOL0     H57214   7.181   9.625   5.214  0.7478 -0.3393  2.7991
  424MOL0     H57215   7.220   9.445   5.228 -0.1483 -0.5305 -1.2295
  424MOL0     H57216   7.317   9.661   5.036 -0.1865 -0.8509 -2.2147
  424MOL0     H57217   7.333   9.488   4.983 -3.1806 -0.4562  0.5389
  424MOL0     H57218   7.453   9.584   5.246  2.4524 -0.9304 -0.0381
  424MOL0     H57219   7.441   9.431   5.188 -3.2727  1.8055  2.7578
  424MOL0     H57220   6.363   9.282   5.196 -1.2543 -0.4683  1.4522
  424MOL0     H57221   6.113   9.240   5.177 -2.5255  0.7692 -1.1743
  424MOL0     H57222   5.816   9.092   4.776  0.1631 -0.2011  0.5479
  424MOL0     H57223   5.574   9.047   4.738  3.4921  0.6977 -2.9603
  424MOL0     H57224   3.810   9.021   4.543 -1.0647 -0.5944 -0.5423
  424MOL0     H57225   3.561   9.091   4.493  1.8024  0.0492  2.1419
  424MOL0     H57226   3.254   9.221   4.202 -1.3846 -1.4077 -1.9984
  424MOL0     H57227   3.044   9.321   4.204  1.7793  0.3915 -0.0125
  424MOL0     H57228   2.849   9.433   4.215 -0.0972 -0.1989  0.2026
  424MOL0     H57229   2.688   9.406   4.280 -1.2500  1.0714 -3.8460
  424MOL0     H57230   2.840   9.258   4.077 -0.6129  1.0470 -0.4734
  424MOL0     H57231   2.684   9.332   4.078  2.5482  1.8088 -0.8867
  424MOL0     H57232   2.757   9.065   4.205 -2.7670 -2.8400  1.5798
  424MOL0     H57233   2.650   9.088   4.067 -1.4737  0.0095  1.0511
  424MOL0     H57234   2.529   9.024   4.272  0.0989 -0.0433 -2.3282
  424MOL0     H57235   2.603   9.156   4.359  0.8143  0.1237  0.1869
  424MOL0     H57236   2.231   9.275   4.164 -0.4519  1.3601  0.1388
  424MOL0     H57237   2.920   9.095   4.541 -0.4107  1.9016 -0.1516
  424MOL0     H57238   3.231   8.984   4.616 -0.6979  4.7759 -1.1042
  424MOL0     H57239   3.066   8.965   4.664 -1.0465 -0.8144 -1.0508
  424MOL0     H57240   3.139   8.849   4.551  2.3018  0.7424 -2.0491
  425MOL0     O57241   1.808   9.488   0.246 -0.3758 -1.2526  0.5730
  425MOL0     C57242   1.781   9.545   0.347  0.2975  0.6523 -0.3967
  425MOL0     O57243   1.857   9.627   0.424 -0.1771 -0.2201 -0.6057
  425MOL0     C57244   1.983   9.665   0.400 -0.8885 -0.1547 -0.4184
  425MOL0     C57245   2.023   9.681   0.269  0.4119  0.4099  0.9783
  425MOL0     C57246   2.151   9.721   0.229 -0.1323  0.4758 -0.7009
  425MOL0     C57247   2.249   9.736   0.329 -0.0333  1.1979 -0.6230
  425MOL0     O57248   2.379   9.764   0.295 -0.3049  0.4208  0.1293
  425MOL0     C57249   2.474   9.661   0.336 -0.3570 -0.2329  0.1185
  425MOL0     C57250   2.551   9.639   0.211 -0.0593 -0.4026 -0.5977
  425MOL0     C57251   2.693   9.583   0.247 -0.4546 -0.6952 -0.0388
  425MOL0     C57252   2.779   9.554   0.127  0.1485 -0.5266  0.4348
  425MOL0     C57253   2.906   9.487   0.170  0.1010  0.4390 -0.5235
  425MOL0     C57254   3.013   9.583   0.226 -0.6663  0.2137  0.6026
  425MOL0     C57255   3.107   9.515   0.326  0.1334 -0.0003 -0.4849
  425MOL0     C57256   3.173   9.388   0.276 -0.6836 -0.3418  0.1717
  425MOL0     N57257   3.279   9.407   0.179  0.2489  0.1730  0.0774
  425MOL0     C57258   3.415   9.430   0.208  0.1566  0.2667 -0.1643
  425MOL0     C57259   3.474   9.435   0.087  0.3494 -0.1127  0.1443
  425MOL0     C57260   3.611   9.476   0.053 -0.4937 -0.7815  0.0964
  425MOL0     C57261   3.605   9.576  -0.059 -0.0804 -0.1917  0.5146
  425MOL0     C57262   3.748   9.607  -0.119  0.6944  0.2416 -0.7898
  425MOL0     C57263   3.827   9.682  -0.013  0.5147  0.1108  0.8488
  425MOL0     O57264   3.948   9.729  -0.073  0.3197 -0.3848 -0.7912
  425MOL0     C57265   4.053   9.774  -0.000 -0.3148  0.8024  0.2233
  425MOL0     C57266   4.048   9.791   0.140  0.2019  0.1605 -0.4818
  425MOL0     C57267   4.140   9.854   0.215  0.4949  0.3539 -0.2201
  425MOL0     C57268   4.259   9.901   0.153  1.1093  1.1579 -0.8862
  425MOL0     C57269   4.369   9.961   0.237  0.0578 -0.3099 -0.6106
  425MOL0     O57270   4.334  10.024   0.358 -0.0202 -0.2254 -0.2505
  425MOL0     C57271   4.424  10.096   0.421 -0.0402  0.0696  0.0177
  425MOL0     C57272   4.504  10.191   0.360 -0.8583  0.0352  0.3704
  425MOL0     C57273   4.590  10.280   0.426 -0.4825 -0.0587  0.7728
  425MOL0     C57274   4.591  10.276   0.563  0.3947  0.6411 -0.3355
  425MOL0     O57275   4.667  10.348   0.654  0.0637 -0.4841  0.5901
  425MOL0     C57276   4.799  10.365   0.601 -0.3314 -0.5954  0.0698
  425MOL0     C57277   4.897  10.426   0.711  1.0545 -1.4913  0.0429
  425MOL0     C57278   4.927  10.348   0.845 -0.2677  0.3112 -0.2007
  425MOL0     C57279   5.026  10.239   0.811 -0.8787  0.3638 -1.0512
  425MOL0     C57280   5.085  10.188   0.946  1.0122  0.3017 -0.2186
  425MOL0     C57281   5.213  10.101   0.921 -0.3032 -0.8251 -0.0413
  425MOL0     C57282   5.245  10.011   1.048 -1.2297 -0.5394 -0.3510
  425MOL0     C57283   5.301  10.090   1.170 -0.7604  0.8035  0.2355
  425MOL0    Cl57284   5.470  10.139   1.108  0.5155  0.1403  0.4613
  425MOL0     C57285   4.496  10.184   0.629 -0.6330  0.0414  0.2230
  425MOL0     C57286   4.415  10.101   0.558  0.3919  0.1781 -0.2219
  425MOL0     O57287   4.484   9.958   0.178  0.3778  0.0806 -0.0677
  425MOL0     C57288   4.268   9.879   0.013 -0.4428  0.5848 -0.5594
  425MOL0     C57289   4.172   9.811  -0.065  0.7556 -0.2308  0.1908
  425MOL0     N57290   3.367   9.411  -0.012  0.0779 -0.6308 -1.0749
  425MOL0     N57291   3.250   9.391   0.052 -0.9161 -0.2773  0.8610
  425MOL0     C57292   2.214   9.712   0.468 -0.2805 -0.0617  0.4575
  425MOL0     C57293   2.076   9.692   0.501 -0.4017  0.1665 -0.5203
  425MOL0     C57294   1.636   9.527   0.395 -0.3844 -0.1400  0.5400
  425MOL0     C57295   1.555   9.442   0.322 -0.1582 -0.4463  0.3729
  425MOL0     C57296   1.423   9.427   0.345  0.2666  0.1975  0.8713
  425MOL0     C57297   1.357   9.482   0.454 -0.3855 -0.4236 -0.4331
  425MOL0     O57298   1.229   9.475   0.488  0.2465 -0.3386  0.3115
  425MOL0     C57299   1.204   9.400   0.607 -0.0265  0.0437 -0.2068
  425MOL0     C57300   1.165   9.255   0.573 -0.1788  0.6327  0.9980
  425MOL0     C57301   1.068   9.240   0.452  0.8783  0.4004 -0.0242
  425MOL0     C57302   0.930   9.304   0.486  0.8473 -0.0919  0.3491
  425MOL0     C57303   0.820   9.254   0.401 -0.0599 -0.4308  0.3431
  425MOL0     C57304   0.731   9.213   0.322 -0.6631 -0.9253  0.1388
  425MOL0     C57305   1.442   9.561   0.534 -0.9538 -0.1515 -0.1697
  425MOL0     C57306   1.577   9.586   0.509  0.3507 -0.4648 -0.5501
  425MOL0     C57307   1.649   9.675   0.616 -0.3043  0.4913 -0.2446
  425MOL0     H57308   1.955   9.669   0.185  0.1339 -0.8012  1.3545
  425MOL0     H57309   2.187   9.742   0.129  2.1698 -1.8758 -0.4481
  425MOL0     H57310   2.541   9.712   0.406 -2.5007  0.9193  1.4497
  425MOL0     H57311   2.428   9.575   0.384 -2.2820  0.6759  0.0233
  425MOL0     H57312   2.562   9.733   0.156 -2.3866 -0.1180 -0.6955
  425MOL0     H57313   2.496   9.575   0.140 -3.2736 -1.1093  2.2682
  425MOL0     H57314   2.679   9.491   0.304  1.7791 -1.7623 -1.0969
  425MOL0     H57315   2.732   9.665   0.308 -0.5363 -0.0722 -0.8082
  425MOL0     H57316   2.719   9.496   0.057  1.3818  1.1670 -2.1463
  425MOL0     H57317   2.802   9.651   0.083 -2.0631  1.7129  3.7377
  425MOL0     H57318   2.866   9.426   0.251  1.6053  0.7103  0.4679
  425MOL0     H57319   2.952   9.428   0.090  3.1125  2.1920 -0.2376
  425MOL0     H57320   3.068   9.614   0.136 -3.4886 -1.8159 -2.0458
  425MOL0     H57321   2.976   9.676   0.270 -3.8972 -0.1487 -1.0920
  425MOL0     H57322   3.045   9.508   0.416  0.9416 -0.4968  0.0486
  425MOL0     H57323   3.191   9.581   0.348  2.2957 -1.9376 -2.3606
  425MOL0     H57324   3.214   9.341   0.366 -0.0435 -0.0167  0.0553
  425MOL0     H57325   3.097   9.316   0.245 -1.8159  0.1362  1.6924
  425MOL0     H57326   3.463   9.447   0.304  0.3766  3.0362 -0.6732
  425MOL0     H57327   3.663   9.517   0.141 -1.6756  2.9528 -0.7761
  425MOL0     H57328   3.661   9.384   0.021  0.8953  0.1896 -0.6150
  425MOL0     H57329   3.545   9.522  -0.133 -0.2550 -2.4649  2.2036
  425MOL0     H57330   3.561   9.666  -0.015  4.5936  3.6373 -1.8012
  425MOL0     H57331   3.730   9.668  -0.208  0.5478  0.8923 -0.3181
  425MOL0     H57332   3.794   9.513  -0.152 -0.7294 -1.2277  1.1947
  425MOL0     H57333   3.833   9.615   0.073 -2.1519 -0.0488  0.9814
  425MOL0     H57334   3.767   9.768   0.016  1.6336  0.9979  0.6409
  425MOL0     H57335   3.962   9.770   0.203  0.3682  2.9406  0.8755
  425MOL0     H57336   4.127   9.857   0.322 -0.2426 -0.6029 -0.2698
  425MOL0     H57337   4.517  10.200   0.252 -2.2030 -0.6953  0.1234
  425MOL0     H57338   4.656  10.348   0.375 -0.1626 -1.3776 -0.6388
  425MOL0     H57339   4.841  10.266   0.581  0.0269 -0.8227  1.8136
  425MOL0     H57340   4.791  10.436   0.518 -1.9791  2.7495  2.8303
  425MOL0     H57341   4.991  10.451   0.661 -0.3168  0.5327 -1.6733
  425MOL0     H57342   4.854  10.524   0.731  2.0155 -0.5308 -2.2230
  425MOL0     H57343   4.981  10.415   0.913  2.2508 -1.7112 -0.0696
  425MOL0     H57344   4.843  10.297   0.894 -1.0642  2.8152  1.2190
  425MOL0     H57345   5.112  10.278   0.756 -0.5332  0.4166 -0.4879
  425MOL0     H57346   4.976  10.159   0.756  0.1164  0.5578 -2.2873
  425MOL0     H57347   5.013  10.125   0.999  1.8292 -0.0980  0.4218
  425MOL0     H57348   5.105  10.279   1.003 -0.8425  0.8460 -0.3686
  425MOL0     H57349   5.200  10.043   0.830  2.1541 -0.6458 -0.5679
  425MOL0     H57350   5.298  10.164   0.894 -3.0321  1.8147 -3.2773
  425MOL0     H57351   5.326   9.940   1.026  1.4876  2.3623 -0.4381
  425MOL0     H57352   5.161   9.948   1.079 -2.2398  0.1719 -1.5290
  425MOL0     H57353   5.243  10.181   1.190  0.4315  1.3272  1.5082
  425MOL0     H57354   5.309  10.029   1.261  1.8563  0.1158 -0.3698
  425MOL0     H57355   4.485  10.184   0.737 -2.7928 -2.0249  0.0742
  425MOL0     H57356   4.348  10.041   0.619 -0.6160  1.4631 -0.0060
  425MOL0     H57357   4.360   9.916  -0.031 -0.9220  2.5617 -0.0040
  425MOL0     H57358   4.183   9.790  -0.171 -2.5714 -0.1139 -0.2855
  425MOL0     H57359   2.291   9.714   0.545  1.3257 -3.3557 -0.8748
  425MOL0     H57360   2.038   9.681   0.602 -3.7947  0.3768 -1.6526
  425MOL0     H57361   1.598   9.379   0.244 -0.1561 -1.2826  1.0252
  425MOL0     H57362   1.359   9.367   0.280 -1.0460  0.7935  1.5687
  425MOL0     H57363   1.113   9.438   0.654 -0.0337 -2.4645  2.1023
  425MOL0     H57364   1.288   9.397   0.677  1.3021  0.7270 -1.7008
  425MOL0     H57365   1.123   9.199   0.657  0.8602 -1.2273  0.3287
  425MOL0     H57366   1.257   9.205   0.542  0.1868  1.2508  1.0709
  425MOL0     H57367   1.053   9.135   0.424 -2.3409  1.0502 -1.1718
  425MOL0     H57368   1.112   9.289   0.364 -0.7061 -0.9587 -1.6470
  425MOL0     H57369   0.902   9.278   0.589 -4.4416 -4.3631 -1.6701
  425MOL0     H57370   0.930   9.411   0.462 -0.8772  0.4363  2.3539
  425MOL0     H57371   0.667   9.167   0.250 -0.6334 -1.3275  0.3629
  425MOL0     H57372   1.401   9.609   0.622 -1.0653  0.0109 -0.3106
  425MOL0     H57373   1.722   9.746   0.575 -0.9218  0.9375 -0.5944
  425MOL0     H57374   1.578   9.739   0.669  1.4041  1.4446  1.0040
  425MOL0     H57375   1.705   9.621   0.693  1.0064  0.5537 -1.1135
  426MOL0     O57376   2.109   8.797   7.848  0.4441 -0.3351  0.1390
  426MOL0     C57377   2.051   8.898   7.889 -0.9930  0.0862  0.2947
  426MOL0     O57378   2.058   9.020   7.827 -0.7309 -0.0857 -0.0992
  426MOL0     C57379   2.154   9.038   7.731 -0.0406 -0.2513  0.7630
  426MOL0     C57380   2.172   8.957   7.615 -0.0475 -1.4180  0.1038
  426MOL0     C57381   2.273   8.982   7.525  0.6024 -0.0268 -0.1664
  426MOL0     C57382   2.369   9.089   7.542  0.6195  0.1967  0.7083
  426MOL0     O57383   2.459   9.129   7.448  0.3802  0.4514 -0.5512
  426MOL0     C57384   2.466   9.066   7.315  0.8815 -0.2663 -0.1128
  426MOL0     C57385   2.349   9.114   7.232 -0.2819 -0.4590 -0.3000
  426MOL0     C57386   2.366   9.065   7.091 -0.1469 -0.5143  0.0649
  426MOL0     C57387   2.259   9.117   6.993 -0.9285  0.4462 -1.0493
  426MOL0     C57388   2.281   9.058   6.853 -0.1434  0.3091 -0.3618
  426MOL0     C57389   2.159   9.099   6.767  0.5889 -0.1749  0.1343
  426MOL0     C57390   2.180   9.089   6.613  0.7719 -0.4824  0.3357
  426MOL0     C57391   2.265   9.196   6.545  0.2400 -0.1273  0.0691
  426MOL0     N57392   2.414   9.177   6.569  0.1521  0.5153 -0.9280
  426MOL0     C57393   2.490   9.269   6.638  0.5013  0.6910 -0.0600
  426MOL0     C57394   2.611   9.214   6.643  0.2428 -0.2172 -0.0512
  426MOL0     C57395   2.732   9.281   6.694  0.3597 -0.2742 -0.0674
  426MOL0     C57396   2.823   9.328   6.582  0.2179  0.5447  0.4395
  426MOL0     C57397   2.937   9.413   6.648  0.3227  0.3477 -0.0698
  426MOL0     C57398   3.055   9.462   6.557 -0.3512 -0.1519  0.6388
  426MOL0     O57399   3.137   9.525   6.647  0.7989 -0.0445 -0.2382
  426MOL0     C57400   3.267   9.564   6.615  0.7031  0.6060 -0.2751
  426MOL0     C57401   3.357   9.568   6.724 -0.1015 -0.2450  0.4399
  426MOL0     C57402   3.485   9.623   6.699  0.1291 -0.3340  0.9415
  426MOL0     C57403   3.527   9.649   6.571  0.7341 -0.5085 -0.5910
  426MOL0     C57404   3.666   9.692   6.551 -0.0431 -0.8934  0.5893
  426MOL0     O57405   3.733   9.745   6.656 -0.4447  0.2119  0.6310
  426MOL0     C57406   3.871   9.775   6.649 -0.4891 -0.2583  0.2547
  426MOL0     C57407   3.964   9.682   6.612  0.0508  0.2904 -0.8656
  426MOL0     C57408   4.098   9.720   6.591 -0.6127 -0.4438 -0.6156
  426MOL0     C57409   4.149   9.852   6.619  0.1722 -0.1626  0.5495
  426MOL0     O57410   4.283   9.898   6.607  0.8902 -0.1214 -0.4963
  426MOL0     C57411   4.365   9.832   6.514  0.7184  0.2836 -0.9385
  426MOL0     C57412   4.507   9.894   6.503  0.3501 -0.3016 -0.0799
  426MOL0     C57413   4.505  10.044   6.486  0.0099 -0.8244  0.0138
  426MOL0     C57414   4.647  10.106   6.476  0.2819 -0.6106 -0.1702
  426MOL0     C57415   4.647  10.256   6.442 -0.2114  0.6815 -0.4515
  426MOL0     C57416   4.771  10.327   6.459  0.1951 -0.8589 -0.3452
  426MOL0     C57417   4.766  10.478   6.420  0.8023  0.7158  0.6964
  426MOL0     C57418   4.884  10.567   6.470  0.4650  0.4610 -0.0692
  426MOL0    Cl57419   4.861  10.725   6.413 -0.1020 -0.0091 -0.1343
  426MOL0     C57420   4.055   9.933   6.677 -0.6109 -0.4648  0.9442
  426MOL0     C57421   3.918   9.903   6.686  0.4459  0.0876  0.4151
  426MOL0     O57422   3.710   9.680   6.437 -0.1646  0.7608  0.0664
  426MOL0     C57423   3.436   9.637   6.460 -0.4993 -0.4119 -0.3428
  426MOL0     C57424   3.303   9.602   6.483 -0.2930  0.1782 -0.3183
  426MOL0     N57425   2.594   9.084   6.594  0.2621  0.4380  0.2084
  426MOL0     N57426   2.482   9.064   6.535 -0.9641  1.1035 -0.5457
  426MOL0     C57427   2.356   9.163   7.658  0.1684  0.7839 -0.8510
  426MOL0     C57428   2.253   9.141   7.751  0.3434  0.3654  0.0946
  426MOL0     C57429   1.978   8.890   8.019 -0.9470 -0.4062  0.5050
  426MOL0     C57430   1.987   8.767   8.092  0.0043  0.0969 -0.5612
  426MOL0     C57431   1.904   8.742   8.203  0.2575  0.4473 -0.9255
  426MOL0     C57432   1.803   8.831   8.241 -0.1940 -0.5607  0.3936
  426MOL0     O57433   1.718   8.774   8.335 -0.1994 -0.0388 -0.3908
  426MOL0     C57434   1.585   8.813   8.340 -0.1684 -0.5977  0.7907
  426MOL0     C57435   1.518   8.734   8.456  0.3336 -0.1170  0.6978
  426MOL0     C57436   1.369   8.709   8.436 -0.5515 -0.4177  1.0008
  426MOL0     C57437   1.308   8.646   8.555  0.7421  0.0501 -0.0558
  426MOL0     C57438   1.337   8.508   8.558  0.0735  0.7792  0.2679
  426MOL0     C57439   1.346   8.384   8.569 -0.1969  0.2405  0.4213
  426MOL0     C57440   1.796   8.954   8.168  0.2091  0.2117 -0.5584
  426MOL0     C57441   1.887   8.985   8.072  0.2038 -0.0266  0.2487
  426MOL0     C57442   1.893   9.126   8.007  0.3101  0.1928  0.6363
  426MOL0     H57443   2.104   8.874   7.601 -0.6421 -1.3800  2.3513
  426MOL0     H57444   2.286   8.914   7.441 -1.3067  0.8055 -1.1848
  426MOL0     H57445   2.557   9.087   7.259  1.1943  2.1036  1.1587
  426MOL0     H57446   2.452   8.959   7.334 -0.5391 -0.1394 -0.2732
  426MOL0     H57447   2.357   9.223   7.241  1.5964 -0.7235  3.0571
  426MOL0     H57448   2.256   9.089   7.285  1.6541  0.1628  3.7774
  426MOL0     H57449   2.381   8.956   7.089 -1.5345 -0.7091 -1.8104
  426MOL0     H57450   2.462   9.104   7.056  0.3537  0.5764  2.4577
  426MOL0     H57451   2.155   9.109   7.028 -0.2334 -0.4794  0.9657
  426MOL0     H57452   2.273   9.225   6.999  0.1966  0.3075 -0.9861
  426MOL0     H57453   2.374   9.088   6.804  0.2570 -0.1516  0.0982
  426MOL0     H57454   2.287   8.949   6.859 -1.2798  0.2389 -0.4212
  426MOL0     H57455   2.072   9.034   6.782 -0.2224  0.9525  0.4857
  426MOL0     H57456   2.129   9.199   6.801  0.9478  0.4162 -1.2182
  426MOL0     H57457   2.077   9.080   6.575  0.4166 -1.9416  1.5430
  426MOL0     H57458   2.220   8.994   6.577  1.6291  0.7550 -2.1872
  426MOL0     H57459   2.247   9.199   6.437 -2.1455 -2.5111  0.3131
  426MOL0     H57460   2.238   9.297   6.576 -0.0069  0.0803 -0.7952
  426MOL0     H57461   2.456   9.368   6.667 -0.4914  0.7569 -1.3668
  426MOL0     H57462   2.699   9.364   6.758 -0.2291  1.2016 -2.1961
  426MOL0     H57463   2.792   9.212   6.755  1.8308  1.0483  0.0433
  426MOL0     H57464   2.876   9.245   6.535 -1.0906  0.4126 -0.8507
  426MOL0     H57465   2.761   9.383   6.511 -0.2163 -0.5233 -0.0355
  426MOL0     H57466   2.972   9.360   6.737  2.2535 -1.7351 -1.9289
  426MOL0     H57467   2.892   9.509   6.676 -3.9935  0.4329 -5.5326
  426MOL0     H57468   3.024   9.532   6.478 -2.4967 -1.5338  0.1834
  426MOL0     H57469   3.099   9.379   6.501 -0.5909  1.2028 -1.7152
  426MOL0     H57470   3.322   9.560   6.826 -0.5276 -0.4792  0.2782
  426MOL0     H57471   3.557   9.636   6.779  0.0472 -1.6569  1.2569
  426MOL0     H57472   3.927   9.584   6.584 -2.2761  0.2072  2.0419
  426MOL0     H57473   4.165   9.645   6.549 -0.3931  0.3195 -1.6587
  426MOL0     H57474   4.383   9.736   6.563  5.4465  1.3238 -0.1700
  426MOL0     H57475   4.322   9.821   6.414  0.3064  0.2796 -0.7604
  426MOL0     H57476   4.568   9.868   6.591  0.8898 -0.5088 -0.5115
  426MOL0     H57477   4.558   9.845   6.419  0.0873 -1.0629  0.1947
  426MOL0     H57478   4.434  10.076   6.409 -2.1132 -0.9853  1.8073
  426MOL0     H57479   4.457  10.091   6.572 -1.1566  4.2196 -2.9594
  426MOL0     H57480   4.702  10.043   6.405  1.2136 -0.8531  0.7405
  426MOL0     H57481   4.710  10.089   6.564  1.1870  1.8091 -0.2785
  426MOL0     H57482   4.574  10.299   6.512  1.7944  2.6613  0.5599
  426MOL0     H57483   4.611  10.262   6.339  0.3706 -1.1004 -0.8045
  426MOL0     H57484   4.786  10.327   6.567 -3.1329 -0.5988  0.2174
  426MOL0     H57485   4.851  10.277   6.403 -2.0113 -1.6918 -3.0120
  426MOL0     H57486   4.674  10.520   6.460 -0.6526 -0.3826 -1.3298
  426MOL0     H57487   4.781  10.484   6.312  1.5532 -0.7036  0.6915
  426MOL0     H57488   4.889  10.559   6.579  0.3754 -1.0642 -0.1590
  426MOL0     H57489   4.977  10.525   6.433 -0.9090 -2.7126 -0.1878
  426MOL0     H57490   4.091  10.026   6.719  1.2233 -1.0586  0.7914
  426MOL0     H57491   3.847   9.973   6.730 -0.2877  1.6322 -2.9061
  426MOL0     H57492   3.471   9.664   6.361 -3.2701 -0.4666 -1.4458
  426MOL0     H57493   3.223   9.607   6.410 -0.0804  0.3895 -0.5367
  426MOL0     H57494   2.420   9.249   7.674  1.1189 -0.1989  0.9642
  426MOL0     H57495   2.246   9.207   7.836  3.2136  0.0166  0.7138
  426MOL0     H57496   2.052   8.685   8.065 -0.5959 -0.2555 -0.9450
  426MOL0     H57497   1.907   8.643   8.248 -0.0965  1.1376  0.6878
  426MOL0     H57498   1.548   8.770   8.247  2.2256 -3.0715  0.8702
  426MOL0     H57499   1.571   8.921   8.328  0.6082 -0.4719  0.9339
  426MOL0     H57500   1.536   8.794   8.545 -0.3461 -0.3031  0.9662
  426MOL0     H57501   1.556   8.632   8.463  0.8716 -0.3396 -3.2111
  426MOL0     H57502   1.352   8.635   8.357 -0.7872  0.3553  0.3166
  426MOL0     H57503   1.320   8.803   8.412 -2.5905 -1.0369  2.5257
  426MOL0     H57504   1.332   8.696   8.649  0.9911 -0.3191  0.0794
  426MOL0     H57505   1.200   8.658   8.540  0.6802  2.0411  1.4733
  426MOL0     H57506   1.348   8.278   8.582  2.5524  0.0451 -0.7997
  426MOL0     H57507   1.724   9.026   8.205  0.4277  0.1426  0.0129
  426MOL0     H57508   1.862   9.118   7.902  1.9507  1.3221  0.0280
  426MOL0     H57509   1.815   9.189   8.052  0.4811  1.1633 -0.3798
  426MOL0     H57510   1.996   9.162   8.009  0.1473  0.8562 -0.9990
  427MOL0     O57511   1.478  11.195   1.895 -0.0485  0.6541  0.6135
  427MOL0     C57512   1.543  11.294   1.935  0.2087 -0.1748  1.0304
  427MOL0     O57513   1.578  11.403   1.866  0.0832 -0.0346 -0.5310
  427MOL0     C57514   1.501  11.440   1.752  0.3099 -0.3265  0.3269
  427MOL0     C57515   1.566  11.534   1.675  0.7528  0.0797  0.4553
  427MOL0     C57516   1.509  11.580   1.556  0.1164  0.9097  0.3791
  427MOL0     C57517   1.380  11.546   1.522  0.4035 -0.1484  0.4946
  427MOL0     O57518   1.337  11.601   1.405 -0.2537 -0.7922 -0.7143
  427MOL0     C57519   1.222  11.552   1.343  0.8945  0.8808 -0.3263
  427MOL0     C57520   1.176  11.624   1.221  0.0950 -0.8178  0.4666
  427MOL0     C57521   1.253  11.565   1.101  0.5147  0.3990  0.6914
  427MOL0     C57522   1.409  11.583   1.105  0.2857 -0.6533  0.0876
  427MOL0     C57523   1.465  11.600   0.971  0.1634  0.0271  0.6880
  427MOL0     C57524   1.615  11.613   0.977  0.5220  0.0908 -0.2944
  427MOL0     C57525   1.692  11.503   1.041  0.3158 -0.0526  0.9057
  427MOL0     C57526   1.833  11.536   1.025  0.8124  0.0810 -0.0118
  427MOL0     N57527   1.907  11.454   1.121  0.3795  0.0515 -0.5023
  427MOL0     C57528   2.048  11.437   1.111  0.0467  0.0335 -0.4012
  427MOL0     C57529   2.076  11.320   1.186 -0.2934 -0.3239  0.0888
  427MOL0     C57530   2.221  11.260   1.204  0.2316  0.4220 -0.3345
  427MOL0     C57531   2.253  11.170   1.081 -0.8295 -0.8681  0.1643
  427MOL0     C57532   2.368  11.070   1.092  0.2126 -1.2087 -0.2509
  427MOL0     C57533   2.389  11.012   1.234  0.3451 -0.2373  0.7420
  427MOL0     O57534   2.463  11.099   1.323  0.2978  0.5057 -0.4929
  427MOL0     C57535   2.595  11.109   1.299  0.7472 -0.4753 -1.0160
  427MOL0     C57536   2.666  11.211   1.362 -0.1802 -0.2681 -0.2437
  427MOL0     C57537   2.800  11.236   1.344 -0.3230  0.8419 -0.6474
  427MOL0     C57538   2.875  11.148   1.263 -0.6604 -0.1812  0.0292
  427MOL0     C57539   3.020  11.170   1.246 -0.2552 -0.1300  0.2331
  427MOL0     O57540   3.066  11.287   1.294 -0.1295 -0.1903  0.2627
  427MOL0     C57541   3.202  11.312   1.299  0.4517  0.1445 -0.0940
  427MOL0     C57542   3.280  11.306   1.183  0.3710  0.0939 -0.8105
  427MOL0     C57543   3.414  11.347   1.189 -0.0848 -0.9198  0.2316
  427MOL0     C57544   3.474  11.386   1.311  0.4350 -0.0143 -0.3550
  427MOL0     O57545   3.610  11.423   1.305  0.2905 -0.0772  0.4770
  427MOL0     C57546   3.683  11.409   1.437 -0.3122 -0.1770  0.0599
  427MOL0     C57547   3.830  11.464   1.422  0.4694 -0.2659  0.1394
  427MOL0     C57548   3.919  11.432   1.538  0.3977 -0.4440  0.2942
  427MOL0     C57549   4.074  11.469   1.520 -0.5030  0.3838  0.5756
  427MOL0     C57550   4.159  11.446   1.650 -0.3849  0.3421  0.1319
  427MOL0     C57551   4.276  11.348   1.625  0.4326  0.2994  0.2951
  427MOL0     C57552   4.362  11.354   1.748 -0.8301  0.0407  0.3957
  427MOL0     C57553   4.490  11.264   1.729 -0.2284  0.3008 -0.0565
  427MOL0    Cl57554   4.467  11.099   1.654  0.0420 -0.0369  0.0295
  427MOL0     C57555   3.386  11.397   1.426  0.1824  0.2725 -0.6803
  427MOL0     C57556   3.250  11.362   1.420  0.0552  0.2459 -0.0152
  427MOL0     O57557   3.091  11.088   1.183 -0.6714  0.4134  0.7387
  427MOL0     C57558   2.809  11.045   1.198 -0.3558  0.2403  0.6225
  427MOL0     C57559   2.672  11.017   1.228  0.4140  0.2287  1.2252
  427MOL0     N57560   1.954  11.264   1.231  0.0699  0.1903  0.0746
  427MOL0     N57561   1.864  11.336   1.190 -0.0912 -0.1477  0.3015
  427MOL0     C57562   1.303  11.468   1.607  1.4953 -0.3350 -0.0111
  427MOL0     C57563   1.365  11.411   1.721 -0.5042  0.0412  0.0306
  427MOL0     C57564   1.604  11.282   2.066  0.5852  0.3312  0.0123
  427MOL0     C57565   1.740  11.317   2.094 -0.0829 -0.3289  0.5027
  427MOL0     C57566   1.797  11.283   2.215  0.4643  1.0770  0.1784
  427MOL0     C57567   1.726  11.225   2.318  0.4477  0.1430 -0.6667
  427MOL0     O57568   1.791  11.200   2.433 -0.1816 -0.3265 -0.3759
  427MOL0     C57569   1.718  11.145   2.548 -0.7340  0.0618  0.1371
  427MOL0     C57570   1.651  11.263   2.616 -0.0500  0.0411 -0.7143
  427MOL0     C57571   1.569  11.216   2.740  0.3014 -0.0501  0.2378
  427MOL0     C57572   1.440  11.305   2.757  0.0214  0.8001  0.3723
  427MOL0     C57573   1.474  11.425   2.838 -0.0766 -0.4980  0.1709
  427MOL0     C57574   1.480  11.521   2.915  0.9565  0.1001 -0.0753
  427MOL0     C57575   1.593  11.201   2.293 -0.1398  0.9181 -0.6561
  427MOL0     C57576   1.527  11.234   2.174 -0.1473 -0.0050 -0.5238
  427MOL0     C57577   1.376  11.215   2.170 -0.3725  0.5634  0.4946
  427MOL0     H57578   1.670  11.559   1.695  0.4829  0.5356  1.3404
  427MOL0     H57579   1.563  11.647   1.490  3.1602 -0.1180  1.6481
  427MOL0     H57580   1.226  11.444   1.333  1.7271  0.6821  1.8025
  427MOL0     H57581   1.137  11.565   1.411 -0.6731 -1.6751 -1.6419
  427MOL0     H57582   1.202  11.731   1.221 -0.5744 -0.6533  0.8036
  427MOL0     H57583   1.068  11.620   1.210 -0.0030 -1.0774  1.4153
  427MOL0     H57584   1.211  11.615   1.013  2.0935 -0.5366 -0.6427
  427MOL0     H57585   1.248  11.457   1.084  0.1788  0.3185  1.2742
  427MOL0     H57586   1.434  11.677   1.155  0.5209 -1.3017  1.2290
  427MOL0     H57587   1.446  11.495   1.159  0.9908  0.2332  1.0993
  427MOL0     H57588   1.435  11.523   0.900 -1.9314  3.2193 -2.1969
  427MOL0     H57589   1.422  11.692   0.930  1.0210  0.8330  1.5472
  427MOL0     H57590   1.641  11.627   0.872 -0.0027 -1.6555 -0.6763
  427MOL0     H57591   1.649  11.700   1.034  0.7148 -0.8468  1.0749
  427MOL0     H57592   1.663  11.412   0.987 -1.0259  1.3141 -0.7981
  427MOL0     H57593   1.671  11.507   1.148  0.1279  3.0122  0.8348
  427MOL0     H57594   1.855  11.524   0.919  1.7984 -1.5224  0.3409
  427MOL0     H57595   1.850  11.641   1.050 -1.5223  0.1298  1.7006
  427MOL0     H57596   2.119  11.497   1.055  2.2374 -2.4333 -0.4412
  427MOL0     H57597   2.285  11.344   1.231  2.6686 -2.1043  2.5118
  427MOL0     H57598   2.223  11.194   1.291  1.3219 -0.7568 -1.2112
  427MOL0     H57599   2.164  11.113   1.057  0.0070 -2.3813  0.5281
  427MOL0     H57600   2.266  11.239   0.997  2.0511  1.1858  2.0536
  427MOL0     H57601   2.463  11.115   1.062 -0.0170 -0.3726  0.2484
  427MOL0     H57602   2.337  10.998   1.015 -0.0359  0.8044 -2.1325
  427MOL0     H57603   2.435  10.913   1.231  0.6602 -0.0769 -0.0447
  427MOL0     H57604   2.290  10.990   1.274 -0.7445  0.9605 -1.1660
  427MOL0     H57605   2.609  11.285   1.416  0.9167  0.1811  0.3375
  427MOL0     H57606   2.848  11.319   1.393 -0.8883  0.4053  0.7017
  427MOL0     H57607   3.237  11.268   1.091  1.2579  0.9826 -1.6259
  427MOL0     H57608   3.476  11.331   1.101  1.8468 -0.0461  1.3755
  427MOL0     H57609   3.637  11.436   1.532 -0.3306 -2.2769  0.6994
  427MOL0     H57610   3.698  11.300   1.438  2.5478  0.1018  2.5418
  427MOL0     H57611   3.863  11.411   1.332  0.3943  0.9546 -0.6405
  427MOL0     H57612   3.833  11.571   1.396 -2.1812  0.7826  3.4366
  427MOL0     H57613   3.881  11.478   1.630  0.6502  1.1269 -0.3658
  427MOL0     H57614   3.909  11.323   1.540  0.1775 -0.5179 -2.0507
  427MOL0     H57615   4.088  11.573   1.492 -1.8316  0.2443 -0.7545
  427MOL0     H57616   4.117  11.421   1.431  1.7409  3.1292  0.0394
  427MOL0     H57617   4.120  11.405   1.744  1.7965  0.7203  1.2465
  427MOL0     H57618   4.194  11.547   1.670 -0.2885  0.7400 -1.8284
  427MOL0     H57619   4.223  11.255   1.606 -0.7396  1.0063  0.0060
  427MOL0     H57620   4.338  11.374   1.539 -1.4958  1.4975 -0.8091
  427MOL0     H57621   4.310  11.308   1.832  0.2377 -1.3824  0.3357
  427MOL0     H57622   4.386  11.456   1.778  0.0923  0.5167 -1.7307
  427MOL0     H57623   4.546  11.322   1.655 -1.1602  0.4196 -0.6966
  427MOL0     H57624   4.558  11.269   1.814  0.1748 -0.1305 -0.3439
  427MOL0     H57625   3.429  11.447   1.513 -1.5578  3.0382 -1.2809
  427MOL0     H57626   3.174  11.370   1.497 -0.3538 -1.3540 -0.2349
  427MOL0     H57627   2.849  10.970   1.130 -0.8115  0.7737 -0.2578
  427MOL0     H57628   2.636  10.928   1.179  1.7665 -0.4043  1.3528
  427MOL0     H57629   1.206  11.429   1.580  1.9710 -0.5049 -1.5596
  427MOL0     H57630   1.314  11.336   1.781 -2.3825  1.2451  0.0243
  427MOL0     H57631   1.806  11.359   2.020  1.2758 -2.6617  0.2992
  427MOL0     H57632   1.903  11.297   2.236  0.6802  0.2969 -0.3235
  427MOL0     H57633   1.787  11.098   2.619 -0.9951 -0.0899  0.2908
  427MOL0     H57634   1.645  11.068   2.522 -1.5531  1.4126 -1.7802
  427MOL0     H57635   1.583  11.310   2.545 -5.0025 -3.3816  1.2057
  427MOL0     H57636   1.728  11.329   2.655 -1.2925 -0.0853  2.2101
  427MOL0     H57637   1.617  11.203   2.837  0.4717  0.2696  0.1998
  427MOL0     H57638   1.536  11.114   2.718  0.1073 -0.3198  1.6721
  427MOL0     H57639   1.389  11.340   2.667 -0.0428  1.5955  0.7103
  427MOL0     H57640   1.369  11.245   2.815  2.5325 -0.6937  2.0969
  427MOL0     H57641   1.477  11.599   2.988  3.2345 -1.6276  2.0202
  427MOL0     H57642   1.525  11.156   2.364 -0.0040 -2.4204 -2.4681
  427MOL0     H57643   1.329  11.277   2.094 -1.4505  1.9163  2.1752
  427MOL0     H57644   1.355  11.111   2.142  2.1388 -0.0149  0.4830
  427MOL0     H57645   1.334  11.240   2.268 -0.7115 -0.9182  0.7496
  428MOL0     O57646   5.133   2.887   2.266  0.7172  0.0391  0.2469
  428MOL0     C57647   5.160   2.949   2.161 -0.0665 -0.4079 -0.2308
  428MOL0     O57648   5.081   2.951   2.051 -0.6620 -0.2822 -0.5721
  428MOL0     C57649   4.991   2.852   2.020  0.5171  0.0047 -0.5983
  428MOL0     C57650   5.044   2.723   2.025  0.4736 -0.2463 -0.5020
  428MOL0     C57651   4.953   2.612   2.010  0.1170  0.3104  0.2607
  428MOL0     C57652   4.819   2.633   1.991 -0.7200  0.0466  0.6625
  428MOL0     O57653   4.732   2.530   1.961 -0.3438 -0.2169  0.5115
  428MOL0     C57654   4.741   2.490   1.826  0.3705  0.2794  1.1526
  428MOL0     C57655   4.613   2.427   1.771 -0.3997  0.1956 -0.0201
  428MOL0     C57656   4.477   2.507   1.773 -0.4627  0.5092 -0.4203
  428MOL0     C57657   4.379   2.481   1.661  0.5529 -0.0586  0.9127
  428MOL0     C57658   4.249   2.557   1.681  0.2605 -0.3735 -1.0838
  428MOL0     C57659   4.158   2.571   1.549 -0.1671  0.2737 -0.3773
  428MOL0     C57660   4.045   2.676   1.567 -0.1704 -0.0260  0.3596
  428MOL0     C57661   3.972   2.685   1.436 -0.4500 -0.4147 -0.1334
  428MOL0     N57662   3.839   2.748   1.440 -0.3083  0.1530 -0.9024
  428MOL0     C57663   3.797   2.878   1.460 -1.5250  0.2116  0.1925
  428MOL0     C57664   3.662   2.876   1.452 -0.0101  0.0165  0.0780
  428MOL0     C57665   3.569   2.998   1.471  0.7926 -0.2969 -0.2747
  428MOL0     C57666   3.555   3.024   1.624 -0.4358  0.0719  0.0499
  428MOL0     C57667   3.640   3.135   1.679  0.1574  0.1017 -0.1754
  428MOL0     C57668   3.610   3.139   1.836  0.1240  0.0270 -0.3085
  428MOL0     O57669   3.688   3.243   1.894 -0.3044 -0.6465 -0.7694
  428MOL0     C57670   3.825   3.224   1.908 -0.3001 -1.1798 -0.7195
  428MOL0     C57671   3.896   3.102   1.895  0.4187 -0.6279 -0.2591
  428MOL0     C57672   4.038   3.098   1.915 -0.5031 -0.2382 -0.1786
  428MOL0     C57673   4.104   3.218   1.953 -0.3564 -0.7102 -0.6094
  428MOL0     C57674   4.253   3.219   1.960 -0.4712  0.4465 -0.8638
  428MOL0     O57675   4.311   3.324   2.024  0.6219  0.3642 -0.5957
  428MOL0     C57676   4.445   3.317   2.039  0.0483  0.1434  0.1659
  428MOL0     C57677   4.519   3.421   1.986  0.5667  0.4216 -0.0210
  428MOL0     C57678   4.663   3.409   1.987  0.0552 -0.0286 -0.3138
  428MOL0     C57679   4.724   3.303   2.055  0.3839 -0.1074  0.2876
  428MOL0     O57680   4.856   3.281   2.051 -0.0210 -0.1103 -0.0421
  428MOL0     C57681   4.942   3.384   1.985 -0.0987  1.7787  0.3293
  428MOL0     C57682   5.093   3.356   2.008 -0.3744  0.2005 -0.5978
  428MOL0     C57683   5.125   3.355   2.152 -0.9735  0.0598  0.3892
  428MOL0     C57684   5.094   3.485   2.234  0.4825 -0.0581  0.0233
  428MOL0     C57685   5.162   3.475   2.376  0.1625 -0.1746  0.6800
  428MOL0     C57686   5.211   3.609   2.432 -0.9144 -0.4757  0.2416
  428MOL0     C57687   5.326   3.665   2.348 -0.4976 -0.0754  0.2149
  428MOL0     C57688   5.436   3.578   2.291 -0.4853  0.4615  0.3523
  428MOL0    Cl57689   5.542   3.508   2.410 -0.2648  0.0747 -0.2145
  428MOL0     C57690   4.648   3.199   2.116 -0.2522  0.3542  0.1864
  428MOL0     C57691   4.509   3.209   2.109  0.2787 -1.1476  0.4861
  428MOL0     O57692   4.318   3.131   1.905  0.0966  0.4771  0.3544
  428MOL0     C57693   4.035   3.338   1.968 -0.6588 -0.4103 -0.2746
  428MOL0     C57694   3.895   3.337   1.947 -0.2906  0.3443 -0.4138
  428MOL0     N57695   3.623   2.743   1.428  0.3396 -0.0189  0.1340
  428MOL0     N57696   3.732   2.675   1.414  0.0239  0.4578 -0.9908
  428MOL0     C57697   4.778   2.765   1.964  1.2295  0.0961  0.2049
  428MOL0     C57698   4.864   2.879   1.989  0.2874 -0.0031 -0.0024
  428MOL0     C57699   5.283   3.039   2.144 -0.0866  1.0379 -0.0167
  428MOL0     C57700   5.330   3.058   2.018  0.3964  0.3611 -0.4882
  428MOL0     C57701   5.447   3.123   1.997 -0.2447 -0.1167  0.2987
  428MOL0     C57702   5.526   3.173   2.094 -0.1420 -0.7336  0.4255
  428MOL0     O57703   5.638   3.245   2.053 -0.0878  0.4244  0.0403
  428MOL0     C57704   5.730   3.307   2.149 -0.6870 -0.1167 -0.6668
  428MOL0     C57705   5.862   3.228   2.138 -0.1927  0.9492  0.3681
  428MOL0     C57706   5.983   3.294   2.195  0.4491  0.1206  0.8161
  428MOL0     C57707   6.093   3.198   2.186  0.3510  0.3586 -0.2620
  428MOL0     C57708   6.207   3.261   2.135 -0.2804  0.0494 -0.8897
  428MOL0     C57709   6.306   3.313   2.087 -0.0085  0.8338  0.4386
  428MOL0     C57710   5.473   3.163   2.226 -0.2371  0.2372 -0.8882
  428MOL0     C57711   5.355   3.086   2.255  0.9948 -1.0352 -0.2010
  428MOL0     C57712   5.311   3.079   2.401  0.3382 -1.1404 -1.1543
  428MOL0     H57713   5.152   2.718   2.030  0.5236 -3.2252 -2.4765
  428MOL0     H57714   4.985   2.510   2.028  0.5988  0.2333 -0.9351
  428MOL0     H57715   4.764   2.571   1.756 -2.1646 -0.4106 -0.6376
  428MOL0     H57716   4.814   2.409   1.817 -1.3130 -1.0791 -2.5158
  428MOL0     H57717   4.592   2.335   1.827  0.2622  0.8514  1.3491
  428MOL0     H57718   4.628   2.406   1.664 -2.6640  1.5769 -0.6965
  428MOL0     H57719   4.500   2.614   1.771 -0.1770  0.5288  1.6111
  428MOL0     H57720   4.426   2.482   1.867  2.0681 -2.3727  0.3154
  428MOL0     H57721   4.422   2.509   1.564 -4.3687  1.6063 -1.0514
  428MOL0     H57722   4.350   2.376   1.653  1.0134 -0.3448  2.5844
  428MOL0     H57723   4.187   2.506   1.756  2.0690  0.8350  1.3793
  428MOL0     H57724   4.266   2.658   1.719  1.9876 -2.0431  3.2757
  428MOL0     H57725   4.212   2.606   1.461 -1.5436  0.0332 -1.3571
  428MOL0     H57726   4.118   2.474   1.519  0.7599  0.1659 -1.3003
  428MOL0     H57727   4.101   2.767   1.590  0.5358  0.3028 -2.3144
  428MOL0     H57728   3.984   2.641   1.651  1.6431 -3.1840  0.5026
  428MOL0     H57729   4.035   2.743   1.367 -0.3944  3.1988  2.6342
  428MOL0     H57730   3.958   2.580   1.408 -3.1596  0.0084 -0.6721
  428MOL0     H57731   3.858   2.967   1.472  0.6188 -1.0333 -0.8381
  428MOL0     H57732   3.600   3.093   1.427  1.3284  0.8166  2.3107
  428MOL0     H57733   3.467   2.976   1.436  1.0435 -1.5088 -0.2848
  428MOL0     H57734   3.448   3.045   1.635 -0.3708  0.6529 -0.3585
  428MOL0     H57735   3.570   2.929   1.676  1.7704  0.4521  0.1715
  428MOL0     H57736   3.618   3.233   1.637  3.5580  1.4357  0.8087
  428MOL0     H57737   3.745   3.111   1.661 -0.0096 -0.1373 -0.8788
  428MOL0     H57738   3.634   3.042   1.882  2.7269  1.8919  2.6784
  428MOL0     H57739   3.502   3.154   1.842  0.0342 -1.1325  1.9079
  428MOL0     H57740   3.844   3.015   1.856 -2.4941  1.2854 -0.9887
  428MOL0     H57741   4.100   3.015   1.884  2.4066  1.8277 -0.3144
  428MOL0     H57742   4.470   3.503   1.934 -0.9385 -0.3068  0.1937
  428MOL0     H57743   4.716   3.487   1.933  1.6461  1.2602  2.7915
  428MOL0     H57744   4.925   3.369   1.878  2.3735 -1.7862  0.2595
  428MOL0     H57745   4.934   3.488   2.019  1.8962  1.7230  1.1024
  428MOL0     H57746   5.102   3.250   1.981 -0.3440  0.5645 -2.1082
  428MOL0     H57747   5.163   3.416   1.949  2.2894 -1.0229  1.1460
  428MOL0     H57748   5.060   3.287   2.209 -2.1394  0.2669 -0.6570
  428MOL0     H57749   5.228   3.323   2.169 -2.0435 -2.6916  2.6399
  428MOL0     H57750   4.987   3.502   2.245  0.4092  0.2812 -1.0998
  428MOL0     H57751   5.138   3.574   2.187  2.8255  0.4207  2.8111
  428MOL0     H57752   5.244   3.402   2.375  1.4757  1.2584  0.4707
  428MOL0     H57753   5.087   3.429   2.441 -0.5033  0.3395  0.2885
  428MOL0     H57754   5.130   3.683   2.434  1.3198  2.2889 -2.3431
  428MOL0     H57755   5.251   3.593   2.532 -0.4456  0.9221  0.3028
  428MOL0     H57756   5.377   3.736   2.415 -2.2007  1.4986 -0.0814
  428MOL0     H57757   5.285   3.716   2.261  0.1685 -1.2363 -0.8047
  428MOL0     H57758   5.391   3.503   2.225 -0.0365 -1.0437  1.6951
  428MOL0     H57759   5.501   3.635   2.223 -0.4701 -0.4470 -0.4183
  428MOL0     H57760   4.700   3.115   2.161  2.8831  0.7567 -2.2443
  428MOL0     H57761   4.440   3.134   2.146  0.5693 -2.1816 -0.9664
  428MOL0     H57762   4.093   3.428   1.980 -0.0063 -0.8504 -0.0592
  428MOL0     H57763   3.843   3.431   1.935  0.4757  0.7288 -0.7681
  428MOL0     H57764   4.673   2.773   1.939  1.0824  0.1900  0.8444
  428MOL0     H57765   4.832   2.982   1.992  0.1901 -0.0256 -0.2839
  428MOL0     H57766   5.266   3.018   1.940 -0.6149  1.3400 -0.1847
  428MOL0     H57767   5.486   3.137   1.896  1.3497 -0.4119  0.8497
  428MOL0     H57768   5.699   3.310   2.254 -1.9102  1.6625 -1.0239
  428MOL0     H57769   5.752   3.410   2.118 -5.7260  1.3119 -0.4153
  428MOL0     H57770   5.878   3.202   2.033 -0.4790  1.5514  0.1719
  428MOL0     H57771   5.850   3.133   2.191  1.0026 -0.1479 -1.2058
  428MOL0     H57772   5.964   3.325   2.298 -0.3060  0.5455  0.5620
  428MOL0     H57773   6.008   3.387   2.142  1.4152 -0.9642 -0.7062
  428MOL0     H57774   6.110   3.152   2.284 -1.9638 -1.9436 -0.8079
  428MOL0     H57775   6.069   3.110   2.124 -0.2428  0.1491  0.2521
  428MOL0     H57776   6.384   3.358   2.029  1.8255 -1.7296  0.7458
  428MOL0     H57777   5.524   3.212   2.308 -0.9833 -2.8096  1.5930
  428MOL0     H57778   5.377   3.010   2.456 -0.7211  0.3681  2.3062
  428MOL0     H57779   5.327   3.177   2.447 -2.4003 -0.3010 -1.8125
  428MOL0     H57780   5.203   3.066   2.411  0.1285  1.3525  0.7617
  429MOL0     O57781   4.773   6.573   8.006 -0.2120  0.5356 -0.3999
  429MOL0     C57782   4.752   6.528   7.896 -0.4743  0.4186 -0.2058
  429MOL0     O57783   4.843   6.508   7.799  1.0320  0.4539 -0.0468
  429MOL0     C57784   4.978   6.499   7.829  0.4592  1.4558 -0.3176
  429MOL0     C57785   5.069   6.571   7.754 -0.0739  0.7472 -0.4543
  429MOL0     C57786   5.202   6.557   7.782  0.7651  0.8074  0.1217
  429MOL0     C57787   5.247   6.470   7.886 -0.5653 -0.6098  0.5872
  429MOL0     O57788   5.378   6.475   7.932  0.2363  0.6303  0.5270
  429MOL0     C57789   5.474   6.420   7.838  0.0677  0.1776 -0.4007
  429MOL0     C57790   5.619   6.464   7.874  0.1734  0.5736 -0.0965
  429MOL0     C57791   5.721   6.447   7.756 -0.2224 -0.4177  0.7733
  429MOL0     C57792   5.865   6.477   7.818  1.7153 -0.3447  1.3147
  429MOL0     C57793   5.962   6.391   7.738  0.8139  0.4793  0.2955
  429MOL0     C57794   6.079   6.357   7.831  0.0326  0.1011 -0.3780
  429MOL0     C57795   6.155   6.481   7.877  0.1064 -1.0361 -0.1646
  429MOL0     C57796   6.256   6.460   7.983 -0.1166  0.0996  0.3403
  429MOL0     N57797   6.374   6.401   7.926 -0.1743 -0.1296  0.6528
  429MOL0     C57798   6.444   6.433   7.812  0.5058 -0.6506  0.0330
  429MOL0     C57799   6.540   6.340   7.795 -0.3929 -0.3005 -0.0438
  429MOL0     C57800   6.639   6.338   7.687 -0.8192  0.4208  0.1639
  429MOL0     C57801   6.778   6.368   7.734 -0.2101  0.2633  0.2157
  429MOL0     C57802   6.778   6.520   7.719  0.6465 -0.2658  0.2386
  429MOL0     C57803   6.912   6.571   7.737 -0.1240 -0.3365  0.4103
  429MOL0     O57804   6.889   6.701   7.768 -0.0430 -0.0279 -0.5152
  429MOL0     C57805   6.988   6.773   7.828 -0.2169  0.4859 -0.4037
  429MOL0     C57806   7.092   6.731   7.910  0.2173  0.4263 -0.4346
  429MOL0     C57807   7.197   6.807   7.948  0.6637  0.2781 -1.0780
  429MOL0     C57808   7.194   6.945   7.924  0.2301  0.3851 -0.5453
  429MOL0     C57809   7.299   7.035   7.959 -0.7998  0.6364 -0.1308
  429MOL0     O57810   7.313   7.145   7.895 -0.1083 -0.3571  0.3155
  429MOL0     C57811   7.413   7.237   7.922  1.1993  0.0668  0.2432
  429MOL0     C57812   7.534   7.221   7.867  0.3271  0.3183  0.5497
  429MOL0     C57813   7.637   7.316   7.879  0.2114  0.3523 -0.1974
  429MOL0     C57814   7.617   7.426   7.964 -0.8216  0.2201  0.3010
  429MOL0     O57815   7.725   7.508   7.985  0.5136  0.0502  0.1987
  429MOL0     C57816   7.723   7.620   8.082  0.3475 -0.0250  0.0052
  429MOL0     C57817   7.877   7.641   8.101 -0.9094 -0.6287 -0.1160
  429MOL0     C57818   7.910   7.754   8.195 -0.1109 -0.6167  0.1519
  429MOL0     C57819   8.062   7.783   8.219  0.4740  0.9642 -0.2625
  429MOL0     C57820   8.088   7.880   8.331 -0.8814 -0.3407 -0.3155
  429MOL0     C57821   8.238   7.908   8.346 -0.1351 -0.9054 -0.3925
  429MOL0     C57822   8.251   8.018   8.467 -0.0273  0.3053  0.0678
  429MOL0     C57823   8.172   8.003   8.598 -0.0936 -0.4477  0.0805
  429MOL0    Cl57824   8.200   7.846   8.683  0.0517 -0.2678 -0.0345
  429MOL0     C57825   7.489   7.452   8.017 -0.9129 -0.4249 -0.4037
  429MOL0     C57826   7.384   7.358   7.995 -0.2964  0.4750  0.6488
  429MOL0     O57827   7.369   6.994   8.049  0.1975 -0.6248  0.8482
  429MOL0     C57828   7.080   6.995   7.851 -0.0530  0.0139 -1.2061
  429MOL0     C57829   6.992   6.909   7.797  0.6524  0.4811  0.0074
  429MOL0     N57830   6.519   6.244   7.887 -0.3426  0.4512 -0.2074
  429MOL0     N57831   6.422   6.279   7.960  0.1551  0.7772  0.5835
  429MOL0     C57832   5.160   6.399   7.962 -0.6095 -0.0810 -0.6451
  429MOL0     C57833   5.024   6.421   7.937  0.0173 -0.1222  0.2042
  429MOL0     C57834   4.605   6.487   7.882  0.1457 -0.7218  0.3411
  429MOL0     C57835   4.509   6.538   7.967  0.5546 -0.0405  0.5086
  429MOL0     C57836   4.373   6.498   7.959 -0.5149  0.2553 -0.1906
  429MOL0     C57837   4.339   6.407   7.859  0.1214 -0.5079  1.1993
  429MOL0     O57838   4.201   6.368   7.865 -0.3312  0.3680 -0.2687
  429MOL0     C57839   4.168   6.250   7.790 -1.0263 -0.3061  0.3060
  429MOL0     C57840   4.030   6.201   7.835 -0.2574 -0.3344 -0.3904
  429MOL0     C57841   4.006   6.174   7.984  0.4157  0.1932 -0.3127
  429MOL0     C57842   3.886   6.083   8.001  0.7013 -0.0381 -0.2165
  429MOL0     C57843   3.853   6.072   8.148 -0.3174 -0.2849  0.1555
  429MOL0     C57844   3.805   6.066   8.264 -0.1590 -0.5034  0.6392
  429MOL0     C57845   4.431   6.365   7.766  0.1710  0.2365 -0.0927
  429MOL0     C57846   4.566   6.403   7.775 -0.7408  0.1561  0.1104
  429MOL0     C57847   4.662   6.342   7.674  0.5579 -0.1965  0.8574
  429MOL0     H57848   5.043   6.640   7.675 -0.7076 -2.2392 -3.0648
  429MOL0     H57849   5.257   6.635   7.730 -1.4871  1.0579 -2.1047
  429MOL0     H57850   5.473   6.312   7.851 -0.6892  0.3267  1.0085
  429MOL0     H57851   5.454   6.442   7.732  3.0817  2.1748 -0.6605
  429MOL0     H57852   5.659   6.405   7.956 -0.2746  0.0874 -0.2272
  429MOL0     H57853   5.613   6.571   7.897  0.3181  0.2022  1.7662
  429MOL0     H57854   5.705   6.500   7.662  0.1807 -1.6286 -0.0032
  429MOL0     H57855   5.707   6.341   7.732 -1.8703 -0.2996  1.1098
  429MOL0     H57856   5.887   6.584   7.804  1.5784 -0.0189  3.2142
  429MOL0     H57857   5.865   6.450   7.924 -2.0421 -1.0449  1.2554
  429MOL0     H57858   5.906   6.302   7.706 -0.8044  1.8026 -0.6990
  429MOL0     H57859   5.993   6.443   7.646 -1.0016  0.6781 -0.2345
  429MOL0     H57860   6.037   6.301   7.915  1.0358  2.6782  1.9678
  429MOL0     H57861   6.142   6.285   7.778  0.4712 -1.3633  1.9644
  429MOL0     H57862   6.085   6.554   7.919  1.6119  0.7994 -0.7154
  429MOL0     H57863   6.196   6.531   7.789  0.3049  0.0040  0.4981
  429MOL0     H57864   6.297   6.556   8.015 -1.0829  0.7026 -0.1885
  429MOL0     H57865   6.211   6.399   8.062 -0.1490 -1.9704 -1.1775
  429MOL0     H57866   6.425   6.523   7.755 -1.0146  0.0644  1.6084
  429MOL0     H57867   6.650   6.234   7.656  0.3562  0.6062 -0.0916
  429MOL0     H57868   6.606   6.390   7.596  1.7943 -0.3314 -1.3039
  429MOL0     H57869   6.790   6.341   7.840 -3.7271 -0.5834  0.5391
  429MOL0     H57870   6.854   6.331   7.664  0.8964  1.8389  0.5205
  429MOL0     H57871   6.714   6.563   7.796 -0.2447  0.9757 -1.1451
  429MOL0     H57872   6.744   6.555   7.622 -0.1806 -0.3700  0.4858
  429MOL0     H57873   6.990   6.564   7.660 -0.2676 -1.3762  0.3472
  429MOL0     H57874   6.948   6.520   7.827 -0.1316 -0.9902  0.0516
  429MOL0     H57875   7.111   6.625   7.926 -1.3903  0.3257  1.2047
  429MOL0     H57876   7.281   6.765   8.001 -0.5163  0.8284  1.4045
  429MOL0     H57877   7.552   7.137   7.800  1.3125 -0.6493  1.9863
  429MOL0     H57878   7.733   7.302   7.830 -0.1109  2.6696 -1.6059
  429MOL0     H57879   7.685   7.708   8.028  1.0485  0.1843 -0.1588
  429MOL0     H57880   7.674   7.611   8.179  1.4585 -3.1169  0.3816
  429MOL0     H57881   7.926   7.553   8.143  0.8151  1.7316  3.2840
  429MOL0     H57882   7.910   7.667   8.000 -5.2433 -1.2160 -1.9391
  429MOL0     H57883   7.861   7.839   8.147 -1.2307 -2.5688 -2.4315
  429MOL0     H57884   7.859   7.731   8.289 -0.4501 -0.2514  0.0619
  429MOL0     H57885   8.096   7.818   8.121  0.8432 -0.5679 -0.7115
  429MOL0     H57886   8.110   7.688   8.245 -0.9437  0.9584  2.7890
  429MOL0     H57887   8.053   7.843   8.428 -0.3794  0.3367  0.1336
  429MOL0     H57888   8.031   7.972   8.312 -0.6470 -0.0747  0.2666
  429MOL0     H57889   8.290   7.815   8.369  0.7268 -1.2568 -3.4080
  429MOL0     H57890   8.286   7.951   8.258  0.8916 -2.5689 -0.6764
  429MOL0     H57891   8.230   8.108   8.408  0.6945 -0.5420 -1.5374
  429MOL0     H57892   8.357   8.035   8.488  0.4534 -1.3540 -0.8410
  429MOL0     H57893   8.182   8.095   8.656 -2.2221  0.5416 -0.9973
  429MOL0     H57894   8.064   7.999   8.578  0.1360 -0.2667 -1.3423
  429MOL0     H57895   7.483   7.544   8.075  3.6816 -1.3191  1.9269
  429MOL0     H57896   7.289   7.374   8.045  0.1046 -0.3411  1.7240
  429MOL0     H57897   7.079   7.094   7.806 -2.6757 -0.1819 -1.7492
  429MOL0     H57898   6.915   6.939   7.727 -1.6588 -2.8159  0.9084
  429MOL0     H57899   5.189   6.324   8.035  1.2622  0.0145 -1.2542
  429MOL0     H57900   4.940   6.368   7.981 -1.4009  0.1988 -1.9596
  429MOL0     H57901   4.531   6.617   8.037  1.0682 -0.2469  0.5836
  429MOL0     H57902   4.304   6.544   8.029 -2.5523  0.4265 -2.1832
  429MOL0     H57903   4.232   6.167   7.822 -1.8632 -1.9475 -2.0525
  429MOL0     H57904   4.173   6.252   7.681 -0.9968 -0.6523  0.2999
  429MOL0     H57905   4.013   6.105   7.785 -4.1135  0.0781 -0.1929
  429MOL0     H57906   3.952   6.272   7.805 -1.7990 -0.9574  1.8821
  429MOL0     H57907   3.983   6.267   8.035 -1.1788 -0.5493  0.3826
  429MOL0     H57908   4.088   6.124   8.037  0.1095 -1.4387 -1.3108
  429MOL0     H57909   3.798   6.120   7.947  0.8772  1.0459  0.2113
  429MOL0     H57910   3.908   5.989   7.951 -0.5304 -0.2085 -0.4689
  429MOL0     H57911   3.785   6.053   8.369 -0.2031 -1.0053  0.5703
  429MOL0     H57912   4.415   6.293   7.686  0.2597 -2.5954  2.2334
  429MOL0     H57913   4.746   6.287   7.717 -1.0713 -0.7378  3.6586
  429MOL0     H57914   4.617   6.267   7.608 -0.0012  2.0097 -1.4125
  429MOL0     H57915   4.682   6.421   7.601 -2.1450 -1.6794 -1.7150
  430MOL0     O57916   4.889   3.184   4.231  0.1591  0.0990  0.0863
  430MOL0     C57917   4.878   3.274   4.315  0.7577  0.1937  0.0793
  430MOL0     O57918   4.982   3.361   4.357 -0.3174 -0.3425  0.5739
  430MOL0     C57919   5.104   3.297   4.375  0.4867 -0.5144  0.7848
  430MOL0     C57920   5.135   3.204   4.473 -0.5381  0.4162  0.1658
  430MOL0     C57921   5.269   3.148   4.478  0.4316  0.3452 -0.3864
  430MOL0     C57922   5.377   3.193   4.402  0.5120  0.2692 -0.3398
  430MOL0     O57923   5.506   3.135   4.393 -0.0542 -0.2437  0.7137
  430MOL0     C57924   5.616   3.222   4.350  0.2727 -0.1086  0.3769
  430MOL0     C57925   5.739   3.143   4.383 -0.7252  0.3114  0.2984
  430MOL0     C57926   5.781   3.153   4.524 -0.5236  0.9363  0.5582
  430MOL0     C57927   5.918   3.086   4.530  0.4245  0.1258  0.2783
  430MOL0     C57928   6.014   3.162   4.617  0.1215 -0.2837 -0.4901
  430MOL0     C57929   6.140   3.086   4.608  1.4121 -0.1489 -0.4913
  430MOL0     C57930   6.251   3.141   4.698  0.1441  0.2252 -0.1359
  430MOL0     C57931   6.383   3.057   4.675  0.1185 -0.6953  0.2577
  430MOL0     N57932   6.460   3.045   4.801 -0.1261 -0.2132 -0.8231
  430MOL0     C57933   6.577   3.118   4.824 -1.2549  0.4166  0.8135
  430MOL0     C57934   6.614   3.093   4.954  1.1621  0.7638  0.3295
  430MOL0     C57935   6.716   3.150   5.046  0.7440 -0.3740 -0.0704
  430MOL0     C57936   6.843   3.068   5.051  0.0392  0.1009  0.3873
  430MOL0     C57937   6.932   3.120   5.168  0.5010  0.3753  0.0808
  430MOL0     C57938   7.059   3.028   5.166 -1.0292 -0.2708  0.0756
  430MOL0     O57939   7.157   3.080   5.256  0.5367  0.6971  0.5648
  430MOL0     C57940   7.284   3.020   5.269  0.5771 -0.2130  0.5738
  430MOL0     C57941   7.396   3.101   5.286  0.4927 -0.0188  0.4410
  430MOL0     C57942   7.521   3.065   5.304  0.0072 -0.2406  0.2236
  430MOL0     C57943   7.550   2.931   5.311  0.2833 -0.4636 -0.3579
  430MOL0     C57944   7.692   2.885   5.327  0.3721 -0.2161  0.9440
  430MOL0     O57945   7.791   2.976   5.327  0.4812 -0.4933  0.3896
  430MOL0     C57946   7.922   2.940   5.301  0.5817 -0.2950 -0.9029
  430MOL0     C57947   7.978   2.895   5.182  0.1360 -0.1096 -0.0343
  430MOL0     C57948   8.115   2.875   5.159  0.2135  0.0278  0.1477
  430MOL0     C57949   8.201   2.886   5.261 -1.2018 -0.6817 -0.2943
  430MOL0     O57950   8.335   2.877   5.225  0.4541 -0.1090 -0.5289
  430MOL0     C57951   8.433   2.924   5.321 -0.6628 -0.0997 -0.5498
  430MOL0     C57952   8.573   2.879   5.276 -0.0983 -0.2768  0.0510
  430MOL0     C57953   8.685   2.948   5.349  1.0174 -0.7418 -0.5013
  430MOL0     C57954   8.723   2.863   5.468  0.6299 -0.3045 -0.3655
  430MOL0     C57955   8.826   2.941   5.556  0.0870 -0.1544  0.3874
  430MOL0     C57956   8.768   3.038   5.667 -0.0139  0.8678 -0.1072
  430MOL0     C57957   8.715   2.965   5.794  0.5881 -0.3851  0.2427
  430MOL0     C57958   8.570   3.007   5.822  0.3643  0.0478 -0.7584
  430MOL0    Cl57959   8.458   2.923   5.721  0.0833  0.6444 -0.0988
  430MOL0     C57960   8.144   2.926   5.385 -0.1773  0.0020  0.4202
  430MOL0     C57961   8.011   2.951   5.404 -0.4811 -0.3711 -0.1993
  430MOL0     O57962   7.709   2.763   5.328 -0.0279  0.7613 -0.0442
  430MOL0     C57963   7.443   2.839   5.289  0.0925  0.0810 -1.3868
  430MOL0     C57964   7.310   2.881   5.274 -0.1713 -0.2181  0.0915
  430MOL0     N57965   6.517   3.008   5.006 -0.2814  0.3486  0.8786
  430MOL0     N57966   6.428   2.974   4.910 -0.8164 -0.4312 -0.0717
  430MOL0     C57967   5.339   3.295   4.309  0.3233  0.4520 -0.3295
  430MOL0     C57968   5.202   3.342   4.301 -0.6341  0.4339  0.2890
  430MOL0     C57969   4.743   3.318   4.364 -0.5139  0.0738 -0.0053
  430MOL0     C57970   4.728   3.458   4.379 -0.6086 -0.3018 -0.2821
  430MOL0     C57971   4.618   3.513   4.427  0.8983 -0.0462 -0.8219
  430MOL0     C57972   4.497   3.434   4.455  0.0056 -0.3616 -0.6689
  430MOL0     O57973   4.393   3.514   4.501  0.8147  0.0467 -0.6594
  430MOL0     C57974   4.256   3.458   4.493  0.1059 -0.4898  0.9161
  430MOL0     C57975   4.168   3.581   4.513 -0.0884 -1.0327 -0.0561
  430MOL0     C57976   4.022   3.532   4.502  0.1335  0.2787  0.8973
  430MOL0     C57977   3.926   3.618   4.573  0.8109  0.5679  0.0479
  430MOL0     C57978   3.791   3.573   4.531  0.5536 -0.2606  0.1317
  430MOL0     C57979   3.683   3.547   4.500  0.7723  1.1661 -0.4527
  430MOL0     C57980   4.507   3.292   4.433  0.4665 -0.0403 -0.3620
  430MOL0     C57981   4.629   3.236   4.390 -0.5307  0.6131  0.1747
  430MOL0     C57982   4.644   3.090   4.358 -0.9457  0.1748  0.6686
  430MOL0     H57983   5.055   3.166   4.536  0.6081 -2.8899 -0.2108
  430MOL0     H57984   5.294   3.070   4.550  1.9192  0.9365 -0.2374
  430MOL0     H57985   5.611   3.251   4.245  0.2452  0.3287  0.4963
  430MOL0     H57986   5.609   3.307   4.419 -1.1909 -1.3269  1.8489
  430MOL0     H57987   5.807   3.190   4.312 -1.3803 -1.4632 -1.6086
  430MOL0     H57988   5.728   3.039   4.349  1.2234 -0.1215  0.8760
  430MOL0     H57989   5.710   3.100   4.588 -1.9341  2.3484  0.2242
  430MOL0     H57990   5.782   3.251   4.572  1.3153  0.7567  0.9324
  430MOL0     H57991   5.903   2.982   4.561  0.6493 -0.5062 -1.6087
  430MOL0     H57992   5.973   3.080   4.436 -0.3509 -1.5969 -0.1004
  430MOL0     H57993   6.019   3.265   4.581  0.8640 -0.0211  0.3095
  430MOL0     H57994   5.980   3.175   4.721 -1.5528  1.9083 -1.2445
  430MOL0     H57995   6.130   2.985   4.650 -1.0343 -1.2885 -3.4004
  430MOL0     H57996   6.171   3.082   4.503 -1.5266  0.3714 -1.4804
  430MOL0     H57997   6.211   3.145   4.799 -0.8248 -0.6708 -0.4641
  430MOL0     H57998   6.268   3.246   4.673 -3.7469  0.8388 -0.8637
  430MOL0     H57999   6.357   2.955   4.647 -2.1574 -0.3631  0.9298
  430MOL0     H58000   6.446   3.105   4.600  6.0922 -3.3329  2.9461
  430MOL0     H58001   6.628   3.179   4.750 -1.4661  0.4627  0.7052
  430MOL0     H58002   6.739   3.251   5.013  1.0578 -0.7548 -1.0491
  430MOL0     H58003   6.667   3.158   5.144 -1.5255  1.8461 -1.2899
  430MOL0     H58004   6.827   2.959   5.049  2.2815 -0.2761  0.0903
  430MOL0     H58005   6.891   3.093   4.956 -1.7825  0.5752 -0.4445
  430MOL0     H58006   6.884   3.097   5.263 -0.8320 -5.0148 -1.5110
  430MOL0     H58007   6.951   3.228   5.160 -1.0125  0.6762  0.3539
  430MOL0     H58008   7.098   3.036   5.064  0.9875 -0.2233  0.8108
  430MOL0     H58009   7.045   2.923   5.193 -0.2156 -0.2540  0.5781
  430MOL0     H58010   7.380   3.207   5.275 -1.6043 -0.5256 -2.7873
  430MOL0     H58011   7.596   3.143   5.303 -0.9106  0.6608 -0.9875
  430MOL0     H58012   7.903   2.876   5.106 -0.0059 -0.8086  0.2717
  430MOL0     H58013   8.167   2.853   5.067 -0.4166  0.8728 -0.4258
  430MOL0     H58014   8.433   3.032   5.333  0.8301 -0.1265 -0.2191
  430MOL0     H58015   8.417   2.885   5.422 -3.0271  0.3058 -0.6958
  430MOL0     H58016   8.583   2.771   5.292 -0.7644 -0.4246 -0.5098
  430MOL0     H58017   8.590   2.898   5.170 -1.4050  1.1491  0.0609
  430MOL0     H58018   8.780   2.960   5.297  1.9310 -0.5067  1.1489
  430MOL0     H58019   8.642   3.043   5.384 -0.2815 -1.7373  0.7084
  430MOL0     H58020   8.764   2.768   5.434 -0.4096 -0.6842 -0.5909
  430MOL0     H58021   8.632   2.843   5.525  1.1527  1.1709  1.0826
  430MOL0     H58022   8.894   3.001   5.493 -0.6042 -2.3047 -2.6471
  430MOL0     H58023   8.890   2.870   5.608  1.2801  1.4370  1.1729
  430MOL0     H58024   8.852   3.098   5.705  1.5226 -3.4729  4.6150
  430MOL0     H58025   8.686   3.102   5.632 -0.0027  1.8582  1.5621
  430MOL0     H58026   8.772   3.000   5.881 -2.8065  0.7237  2.2107
  430MOL0     H58027   8.714   2.857   5.807 -2.7729 -0.3464  1.2271
  430MOL0     H58028   8.539   2.978   5.922 -1.6577 -0.4272 -1.4789
  430MOL0     H58029   8.551   3.114   5.810 -0.6145  0.1867  1.6539
  430MOL0     H58030   8.203   2.942   5.475  2.0426 -0.1012 -0.9358
  430MOL0     H58031   7.988   2.984   5.505  1.7865 -0.0966  0.2757
  430MOL0     H58032   7.468   2.735   5.276  1.1082  0.0665  0.3341
  430MOL0     H58033   7.229   2.808   5.265  0.5016 -0.9144 -0.4723
  430MOL0     H58034   5.398   3.341   4.231  1.4332  0.7220  0.6390
  430MOL0     H58035   5.172   3.403   4.217  0.5184 -0.8070 -1.0908
  430MOL0     H58036   4.807   3.526   4.350 -0.3084 -0.7533 -0.5333
  430MOL0     H58037   4.623   3.621   4.432 -1.5434  0.1656 -1.4214
  430MOL0     H58038   4.237   3.378   4.565 -1.7601 -0.8336  0.1112
  430MOL0     H58039   4.240   3.412   4.395 -0.4445  0.2106  0.6671
  430MOL0     H58040   4.190   3.652   4.433 -0.2264 -2.4607 -1.4355
  430MOL0     H58041   4.189   3.635   4.605  3.3595  0.5647 -1.6011
  430MOL0     H58042   4.009   3.428   4.535  0.1384 -0.8191 -2.2448
  430MOL0     H58043   3.999   3.532   4.396 -1.2081 -0.4639  1.1688
  430MOL0     H58044   3.947   3.599   4.679  3.0519  0.0060 -0.4398
  430MOL0     H58045   3.939   3.725   4.551  1.4204  0.0926 -2.1892
  430MOL0     H58046   3.577   3.552   4.487  0.8140  1.5456 -0.6668
  430MOL0     H58047   4.425   3.227   4.462  0.1486  0.1645 -0.7888
  430MOL0     H58048   4.728   3.054   4.418 -2.8145  1.7965  4.5897
  430MOL0     H58049   4.555   3.031   4.386 -1.0706  0.3370  0.6121
  430MOL0     H58050   4.669   3.073   4.253  0.2813  2.0611  0.6240
  431MOL0     O58051   6.399   9.486   9.297 -0.5522  0.3413 -0.4989
  431MOL0     C58052   6.342   9.594   9.318 -0.2722  0.8188  0.0885
  431MOL0     O58053   6.402   9.699   9.385 -1.3640  0.1068 -0.9581
  431MOL0     C58054   6.533   9.678   9.442 -0.5834 -0.2269 -0.0970
  431MOL0     C58055   6.563   9.582   9.540 -0.6724 -0.4129  0.8626
  431MOL0     C58056   6.700   9.542   9.572  0.4288  0.8298 -0.2120
  431MOL0     C58057   6.802   9.606   9.505  0.0952  0.2994  0.6109
  431MOL0     O58058   6.933   9.580   9.515 -0.2646  0.0100 -0.2461
  431MOL0     C58059   6.980   9.473   9.600 -0.2943 -0.6258 -0.1000
  431MOL0     C58060   7.001   9.343   9.536 -0.3815  0.5052  0.5858
  431MOL0     C58061   7.098   9.343   9.410  0.0628 -0.4748 -0.8892
  431MOL0     C58062   7.237   9.416   9.439 -0.5690 -0.0376 -0.6022
  431MOL0     C58063   7.242   9.570   9.409  0.1787  0.5753 -0.1647
  431MOL0     C58064   7.307   9.603   9.277  0.1926  0.5732 -1.1081
  431MOL0     C58065   7.376   9.744   9.278  0.3600 -0.6298 -0.4644
  431MOL0     C58066   7.529   9.725   9.251  0.1547 -0.1572 -0.1285
  431MOL0     N58067   7.599   9.707   9.379 -0.1989 -0.4544 -0.1105
  431MOL0     C58068   7.666   9.807   9.450 -0.2347  0.8634  0.2770
  431MOL0     C58069   7.732   9.742   9.545 -0.2105  0.1382  0.6013
  431MOL0     C58070   7.820   9.806   9.646  0.2324 -0.0848  0.0957
  431MOL0     C58071   7.959   9.743   9.631  0.5290  0.1558 -0.4490
  431MOL0     C58072   8.069   9.824   9.707 -1.3278  0.6528 -0.0908
  431MOL0     C58073   8.206   9.749   9.703 -0.5583 -0.3730  0.5216
  431MOL0     O58074   8.314   9.832   9.739  0.3900 -0.9328  0.2560
  431MOL0     C58075   8.438   9.777   9.741 -0.4002 -0.0223  0.0562
  431MOL0     C58076   8.476   9.654   9.700 -0.6487  0.4169  0.0860
  431MOL0     C58077   8.607   9.604   9.716  0.6372  0.5515 -0.0040
  431MOL0     C58078   8.703   9.687   9.767 -0.3311  0.5115 -0.5864
  431MOL0     C58079   8.847   9.631   9.788 -0.4415 -0.3658 -0.4479
  431MOL0     O58080   8.937   9.716   9.846  0.1440  0.1186  0.4398
  431MOL0     C58081   9.065   9.687   9.841 -0.0545  0.1007 -0.1568
  431MOL0     C58082   9.138   9.582   9.789  0.2660  0.0997  0.0136
  431MOL0     C58083   9.270   9.557   9.809 -0.1620 -0.6824 -0.6687
  431MOL0     C58084   9.345   9.650   9.888  0.1612  0.2610 -0.7841
  431MOL0     O58085   9.484   9.646   9.908  0.6496 -0.3114 -0.1705
  431MOL0     C58086   9.549   9.531   9.863  0.6057  0.0050  1.1560
  431MOL0     C58087   9.698   9.561   9.878  0.1218  0.6150  1.1731
  431MOL0     C58088   9.731   9.559  10.031  0.1240  0.1141 -0.7192
  431MOL0     C58089   9.888   9.525  10.057 -0.0181  0.3076  0.9827
  431MOL0     C58090   9.995   9.631  10.031 -0.5806  0.3248 -0.5868
  431MOL0     C58091   9.971   9.771  10.097 -0.5819  0.6114 -0.2648
  431MOL0     C58092  10.100   9.849  10.124 -1.4854  0.1970  0.8345
  431MOL0     C58093  10.070   9.976  10.207  0.0398 -0.2825 -0.3380
  431MOL0    Cl58094  10.055   9.914  10.373  0.0030 -0.1342  0.4481
  431MOL0     C58095   9.271   9.761   9.934 -1.1313  0.6914 -1.0324
  431MOL0     C58096   9.133   9.777   9.925 -0.3387 -0.0124  0.0138
  431MOL0     O58097   8.871   9.523   9.735  0.0228 -0.1543  0.6051
  431MOL0     C58098   8.665   9.818   9.812 -0.5157  0.6574  0.0482
  431MOL0     C58099   8.534   9.857   9.789 -0.2833 -0.4197 -0.2061
  431MOL0     N58100   7.692   9.610   9.544  0.1926  0.5391  0.2532
  431MOL0     N58101   7.611   9.595   9.444 -0.4844 -0.2774  0.6631
  431MOL0     C58102   6.770   9.706   9.409  0.1737 -0.6433  0.0533
  431MOL0     C58103   6.637   9.734   9.374 -0.0335 -0.8627  0.9478
  431MOL0     C58104   6.198   9.611   9.273  0.1451  0.3596  0.6154
  431MOL0     C58105   6.160   9.561   9.145  0.5482  0.3596 -0.1146
  431MOL0     C58106   6.030   9.577   9.089 -0.8456  0.8586 -0.3070
  431MOL0     C58107   5.940   9.646   9.161  0.4808  0.2008 -0.3519
  431MOL0     O58108   5.812   9.669   9.113 -0.0238 -0.0902 -0.7734
  431MOL0     C58109   5.759   9.584   9.010 -0.2963  0.2779  0.7110
  431MOL0     C58110   5.597   9.564   9.003  0.6282 -0.4881  0.9760
  431MOL0     C58111   5.523   9.680   8.935  0.3838  0.1904 -0.0656
  431MOL0     C58112   5.373   9.685   8.972 -1.2106 -1.0649 -0.7194
  431MOL0     C58113   5.358   9.716   9.117  0.6840  0.2500 -0.2391
  431MOL0     C58114   5.348   9.736   9.239 -0.4253 -0.1482 -0.3350
  431MOL0     C58115   5.972   9.698   9.291  0.0888 -0.2483  0.0838
  431MOL0     C58116   6.096   9.676   9.348 -0.8401  0.6042 -0.8828
  431MOL0     C58117   6.121   9.728   9.486  0.0069 -0.6381 -0.1699
  431MOL0     H58118   6.479   9.545   9.599 -0.7882 -0.1280  0.8748
  431MOL0     H58119   6.729   9.479   9.655  0.2473  2.7334  1.3620
  431MOL0     H58120   7.075   9.514   9.636  0.4765 -1.4530 -1.1218
  431MOL0     H58121   6.919   9.457   9.689  0.3256 -1.4003  0.1988
  431MOL0     H58122   6.903   9.309   9.500  0.0290  1.5438 -1.7076
  431MOL0     H58123   7.037   9.274   9.612  4.4909  1.5627 -0.4107
  431MOL0     H58124   7.043   9.382   9.324  2.1115  0.5993 -1.7703
  431MOL0     H58125   7.120   9.238   9.389  0.0683 -0.6501 -0.0382
  431MOL0     H58126   7.268   9.396   9.542 -1.1349  2.2727  0.0756
  431MOL0     H58127   7.304   9.359   9.375 -2.4808  0.3980 -3.1816
  431MOL0     H58128   7.144   9.619   9.420 -0.0602  0.0704 -0.0197
  431MOL0     H58129   7.299   9.617   9.489 -1.1584  1.7613  0.1327
  431MOL0     H58130   7.387   9.529   9.264 -1.5199 -1.6940  0.4902
  431MOL0     H58131   7.239   9.605   9.191 -2.2710  4.3344  0.7057
  431MOL0     H58132   7.355   9.805   9.366  0.8185 -3.0827  1.4747
  431MOL0     H58133   7.339   9.796   9.189 -0.2420 -0.4451 -0.1134
  431MOL0     H58134   7.554   9.639   9.188  0.3823  1.5775 -2.5100
  431MOL0     H58135   7.562   9.809   9.189 -3.1688  2.1894  0.9873
  431MOL0     H58136   7.680   9.912   9.428 -0.9873  1.0613  0.7075
  431MOL0     H58137   7.828   9.914   9.631  0.7254 -0.3474 -1.7918
  431MOL0     H58138   7.795   9.783   9.750 -2.3020  0.6155 -0.3103
  431MOL0     H58139   7.952   9.636   9.654 -2.6458 -0.6315 -4.0501
  431MOL0     H58140   7.998   9.740   9.528 -0.5595 -3.9230 -0.9301
  431MOL0     H58141   8.047   9.850   9.811  2.1094  0.8685  0.6813
  431MOL0     H58142   8.083   9.918   9.652  1.0846 -0.5919 -1.7894
  431MOL0     H58143   8.214   9.717   9.599  1.2166  4.7258 -1.2246
  431MOL0     H58144   8.199   9.668   9.776  1.1534  0.0733  1.2260
  431MOL0     H58145   8.408   9.586   9.651  1.5843  1.1952 -4.6901
  431MOL0     H58146   8.637   9.515   9.663  2.8176  0.8043  0.6884
  431MOL0     H58147   9.100   9.503   9.725  0.2742  0.9785 -1.0997
  431MOL0     H58148   9.303   9.458   9.778  1.9456  0.6005 -2.9281
  431MOL0     H58149   9.512   9.442   9.915 -0.4794 -2.2972 -3.1324
  431MOL0     H58150   9.535   9.513   9.756 -0.1519 -0.3866  1.3155
  431MOL0     H58151   9.755   9.490   9.817  1.2093  0.2956  2.5082
  431MOL0     H58152   9.717   9.663   9.841 -0.4490  1.1215  2.2268
  431MOL0     H58153   9.703   9.651  10.082 -0.5852 -1.0970  1.1502
  431MOL0     H58154   9.667   9.485  10.078  0.6831 -0.0670 -0.2215
  431MOL0     H58155   9.922   9.433  10.008  3.0994  1.3571  0.9485
  431MOL0     H58156   9.917   9.504  10.160  0.3979 -1.1508  0.5876
  431MOL0     H58157  10.008   9.643   9.923  4.5374  1.6241 -0.0817
  431MOL0     H58158  10.090   9.592  10.068 -1.0865 -0.6387 -0.2564
  431MOL0     H58159   9.914   9.829  10.024 -1.6874 -0.6491 -0.4489
  431MOL0     H58160   9.905   9.759  10.183 -0.6602  1.7705 -0.1471
  431MOL0     H58161  10.148   9.879  10.030  1.2444  0.9849  2.3833
  431MOL0     H58162  10.171   9.777  10.166 -3.3053 -2.7119 -0.7748
  431MOL0     H58163  10.149  10.048  10.187 -1.7707  1.9397  0.0585
  431MOL0     H58164   9.981  10.030  10.173  0.2940  2.4196  2.7744
  431MOL0     H58165   9.328   9.823  10.002  0.1818 -1.4156 -0.1322
  431MOL0     H58166   9.082   9.854   9.982  2.6343  2.6657 -0.7062
  431MOL0     H58167   8.743   9.868   9.868  0.8447 -1.2861 -0.0112
  431MOL0     H58168   8.501   9.955   9.823  0.3647 -0.7852  1.5724
  431MOL0     H58169   6.848   9.756   9.353  1.0031 -2.3595 -0.3654
  431MOL0     H58170   6.637   9.805   9.292  1.5189 -1.3235  0.5082
  431MOL0     H58171   6.230   9.496   9.094  0.1537 -0.4731  0.3818
  431MOL0     H58172   6.013   9.526   8.995 -0.4048  0.7588 -0.3378
  431MOL0     H58173   5.801   9.483   9.023 -0.4872  0.2195  0.8670
  431MOL0     H58174   5.804   9.607   8.913  1.0464 -2.6851  0.4983
  431MOL0     H58175   5.567   9.540   9.105 -0.8064 -1.3144  0.3851
  431MOL0     H58176   5.588   9.479   8.936  0.9516 -0.7381  1.2463
  431MOL0     H58177   5.543   9.675   8.828 -0.0729  2.1739 -0.2817
  431MOL0     H58178   5.573   9.765   8.983  0.6273 -1.6510  3.2613
  431MOL0     H58179   5.325   9.771   8.925  2.7781  0.7505 -1.8971
  431MOL0     H58180   5.330   9.588   8.943 -0.4407 -1.5773 -0.1962
  431MOL0     H58181   5.340   9.763   9.342  3.4088 -0.9244  0.3094
  431MOL0     H58182   5.895   9.752   9.345  0.8540 -0.1378  1.0868
  431MOL0     H58183   6.113   9.636   9.545  3.2826 -0.5427  0.5895
  431MOL0     H58184   6.218   9.775   9.503  0.2721 -0.8055 -1.1687
  431MOL0     H58185   6.044   9.795   9.524 -1.1398 -2.9154  1.8414
  432MOL0     O58186   4.775   0.283   5.340  0.0523  0.5380  0.0575
  432MOL0     C58187   4.715   0.378   5.299 -1.2140 -0.6305 -0.1106
  432MOL0     O58188   4.766   0.503   5.309  0.3557  0.8070  0.1677
  432MOL0     C58189   4.892   0.528   5.355 -0.4340 -0.0685 -0.3500
  432MOL0     C58190   4.898   0.625   5.457  0.4966 -0.7795 -0.3616
  432MOL0     C58191   5.022   0.681   5.504  0.6960  0.0302  0.4290
  432MOL0     C58192   5.138   0.640   5.450 -0.7361 -0.6533 -0.0355
  432MOL0     O58193   5.252   0.684   5.504 -0.0527 -0.0187  0.1896
  432MOL0     C58194   5.348   0.582   5.547  0.5374  0.0828 -0.9349
  432MOL0     C58195   5.480   0.604   5.480 -0.5159  0.4341  0.3743
  432MOL0     C58196   5.599   0.524   5.539  0.6129 -0.1209 -0.3807
  432MOL0     C58197   5.722   0.565   5.461 -0.1629 -0.0295  0.1214
  432MOL0     C58198   5.843   0.490   5.519  0.0393  0.3721 -0.2997
  432MOL0     C58199   5.971   0.504   5.431 -0.0771 -0.7205 -0.6602
  432MOL0     C58200   6.069   0.399   5.471  0.0226 -0.4546  0.1955
  432MOL0     C58201   6.213   0.433   5.427 -0.2925  0.1907  0.2152
  432MOL0     N58202   6.313   0.360   5.505 -0.6397  0.2262  0.5513
  432MOL0     C58203   6.416   0.410   5.582 -0.7673 -0.5841 -0.3954
  432MOL0     C58204   6.459   0.306   5.656  0.4968 -0.1766 -0.0159
  432MOL0     C58205   6.559   0.316   5.762 -0.0569  0.3429  0.1605
  432MOL0     C58206   6.698   0.282   5.716  0.6354  0.6439 -0.2544
  432MOL0     C58207   6.769   0.406   5.657 -1.2507 -0.7893 -0.0890
  432MOL0     C58208   6.881   0.370   5.555  0.9884 -0.4717 -0.2924
  432MOL0     O58209   6.951   0.492   5.513  0.3998 -0.3072 -0.3364
  432MOL0     C58210   7.054   0.480   5.425 -0.1530  0.0899 -0.4653
  432MOL0     C58211   7.135   0.592   5.411  0.2687 -0.7845 -0.3093
  432MOL0     C58212   7.249   0.591   5.324 -0.6337 -0.2756  0.6414
  432MOL0     C58213   7.273   0.486   5.241 -0.8217  0.0377 -0.0145
  432MOL0     C58214   7.397   0.480   5.160  0.4533 -0.5467 -0.0786
  432MOL0     O58215   7.438   0.358   5.126 -0.4427  0.0207  0.2071
  432MOL0     C58216   7.556   0.346   5.068 -0.3334  0.7176 -0.0493
  432MOL0     C58217   7.573   0.286   4.945 -1.1081  0.8206  0.3740
  432MOL0     C58218   7.698   0.307   4.881  0.3363  0.7096 -0.2448
  432MOL0     C58219   7.808   0.361   4.947 -0.2846 -0.4460 -0.7015
  432MOL0     O58220   7.916   0.379   4.866  0.5209  0.3068 -0.3935
  432MOL0     C58221   8.026   0.454   4.924 -0.6084  0.0860  0.7554
  432MOL0     C58222   8.150   0.444   4.822 -0.3866 -0.3237  0.2259
  432MOL0     C58223   8.274   0.522   4.876  1.0960 -0.8071  1.0215
  432MOL0     C58224   8.418   0.487   4.832  0.2567  0.6052 -0.3209
  432MOL0     C58225   8.524   0.601   4.827  1.0412 -0.9858 -0.2164
  432MOL0     C58226   8.653   0.538   4.784 -0.1225  0.3504 -0.2652
  432MOL0     C58227   8.768   0.634   4.812 -0.0083  0.2395 -0.6634
  432MOL0     C58228   8.895   0.554   4.786 -0.7266 -0.6619  0.3818
  432MOL0    Cl58229   8.877   0.500   4.619 -0.4896  0.4020  0.6150
  432MOL0     C58230   7.796   0.410   5.073 -0.4831 -0.0552 -0.6755
  432MOL0     C58231   7.669   0.401   5.133  1.0042 -0.7427  0.8093
  432MOL0     O58232   7.451   0.584   5.122 -0.8026 -0.2978 -0.6354
  432MOL0     C58233   7.193   0.374   5.261  0.0934 -0.0783 -0.3345
  432MOL0     C58234   7.089   0.375   5.344  0.2315  0.4383 -0.7174
  432MOL0     N58235   6.407   0.194   5.596  0.8260  0.0372 -0.5957
  432MOL0     N58236   6.323   0.225   5.509  0.7679  0.0467 -0.3691
  432MOL0     C58237   5.132   0.548   5.350 -0.0877 -1.0357 -0.3089
  432MOL0     C58238   5.015   0.487   5.302  0.1634 -0.0545 -0.8966
  432MOL0     C58239   4.575   0.357   5.248  0.3130 -1.0903  0.4544
  432MOL0     C58240   4.494   0.472   5.240 -0.1405  0.4700  0.2416
  432MOL0     C58241   4.359   0.460   5.195  0.5423 -0.2791  0.0302
  432MOL0     C58242   4.303   0.340   5.158 -0.6439 -0.2055 -0.0275
  432MOL0     O58243   4.176   0.350   5.119  0.4556 -0.2730 -0.9195
  432MOL0     C58244   4.108   0.224   5.109  0.7009 -0.0842 -0.0875
  432MOL0     C58245   3.959   0.256   5.088 -0.1895  0.7826 -0.1124
  432MOL0     C58246   3.892   0.118   5.105 -0.5874 -0.6164 -0.1408
  432MOL0     C58247   3.745   0.120   5.100  0.2214 -0.1190 -0.6003
  432MOL0     C58248   3.685   0.216   5.007 -0.5899 -1.4162  0.5581
  432MOL0     C58249   3.640   0.296   4.928 -0.6822  0.0276  0.0456
  432MOL0     C58250   4.384   0.227   5.151  0.7549 -0.4442  0.0624
  432MOL0     C58251   4.519   0.231   5.205 -0.2647  0.6908 -0.5184
  432MOL0     C58252   4.593   0.098   5.195 -0.0500 -0.5339  0.4068
  432MOL0     H58253   4.799   0.652   5.492  0.4913  0.1581 -1.0433
  432MOL0     H58254   5.021   0.753   5.584  2.0240 -0.8394  1.2591
  432MOL0     H58255   5.356   0.588   5.656  0.0896  4.1308 -0.9750
  432MOL0     H58256   5.314   0.483   5.515  0.5890  0.0059 -0.7543
  432MOL0     H58257   5.506   0.709   5.497  1.4668  0.0081  0.2663
  432MOL0     H58258   5.477   0.599   5.371  0.9068 -1.1100  0.3687
  432MOL0     H58259   5.577   0.421   5.511  2.2594 -0.2399 -1.3279
  432MOL0     H58260   5.618   0.542   5.645  5.0359  0.8679 -1.1634
  432MOL0     H58261   5.697   0.537   5.358  1.7444 -0.8818 -0.1500
  432MOL0     H58262   5.749   0.669   5.483 -0.2708 -0.3080  1.7051
  432MOL0     H58263   5.875   0.512   5.621  1.4890 -0.8974 -0.4446
  432MOL0     H58264   5.817   0.385   5.530  0.8656  0.1483 -0.3958
  432MOL0     H58265   5.947   0.484   5.326 -0.0245  0.9351 -1.0116
  432MOL0     H58266   6.018   0.601   5.449 -1.8922 -0.0439  0.7301
  432MOL0     H58267   6.036   0.304   5.427  0.9479 -0.4381 -0.5609
  432MOL0     H58268   6.064   0.380   5.579  0.3556 -0.3187  0.2360
  432MOL0     H58269   6.213   0.419   5.318 -2.7570 -0.6438  0.2609
  432MOL0     H58270   6.240   0.539   5.430  0.1594  0.2371 -2.6230
  432MOL0     H58271   6.451   0.513   5.592  3.3494 -1.5640 -2.5365
  432MOL0     H58272   6.559   0.420   5.797  2.7136  1.3009 -2.2114
  432MOL0     H58273   6.528   0.251   5.844  3.9913 -2.7423 -0.4513
  432MOL0     H58274   6.753   0.234   5.796 -1.7190 -3.0289 -0.5990
  432MOL0     H58275   6.684   0.211   5.634  0.9118 -0.3758  0.5704
  432MOL0     H58276   6.802   0.470   5.739 -0.2453  2.0906 -2.5880
  432MOL0     H58277   6.703   0.479   5.609 -0.7525 -0.7505 -0.7212
  432MOL0     H58278   6.821   0.321   5.478 -1.4191  1.8232 -0.0213
  432MOL0     H58279   6.955   0.301   5.597  0.7263  0.2400  1.4438
  432MOL0     H58280   7.111   0.681   5.468  2.0466 -0.4587 -0.0072
  432MOL0     H58281   7.305   0.684   5.333 -1.4133  0.2246  0.4660
  432MOL0     H58282   7.497   0.221   4.903  0.0296  0.3361 -1.0104
  432MOL0     H58283   7.708   0.253   4.788 -0.6651 -1.7273  0.9782
  432MOL0     H58284   7.996   0.558   4.938 -0.6478  0.0655  0.8231
  432MOL0     H58285   8.056   0.398   5.012  1.1516 -0.9400 -0.4392
  432MOL0     H58286   8.178   0.338   4.817 -1.2614 -0.5130 -0.9929
  432MOL0     H58287   8.109   0.475   4.726 -2.6730  0.5550  1.4134
  432MOL0     H58288   8.260   0.620   4.831  0.3903 -0.3223  2.2502
  432MOL0     H58289   8.256   0.522   4.984  0.7821  1.8740  1.0182
  432MOL0     H58290   8.409   0.449   4.730  0.0202 -0.4197  0.0702
  432MOL0     H58291   8.445   0.396   4.886 -1.9056  0.6107  0.8630
  432MOL0     H58292   8.535   0.649   4.924  1.3060 -1.6830  0.1042
  432MOL0     H58293   8.496   0.681   4.758  3.1227  1.6157  1.7669
  432MOL0     H58294   8.666   0.438   4.825  0.6807  0.6500  0.2454
  432MOL0     H58295   8.629   0.516   4.680 -1.6648 -0.6507  0.2678
  432MOL0     H58296   8.760   0.668   4.915 -1.0144 -2.7559  0.3461
  432MOL0     H58297   8.758   0.723   4.749  0.7736  2.7087  2.4598
  432MOL0     H58298   8.977   0.626   4.794  1.5254 -3.1460  1.1123
  432MOL0     H58299   8.905   0.479   4.865 -2.4597 -0.5076  0.7760
  432MOL0     H58300   7.874   0.458   5.132 -1.5239 -0.1440  0.8118
  432MOL0     H58301   7.656   0.448   5.230  0.0733  2.0753 -0.5834
  432MOL0     H58302   7.212   0.293   5.190 -3.5928 -0.9193 -0.5862
  432MOL0     H58303   7.023   0.291   5.360 -3.2554  3.2240  0.7523
  432MOL0     H58304   5.227   0.511   5.313  0.5387 -0.1485  0.3927
  432MOL0     H58305   5.015   0.410   5.226 -1.4369 -2.3703  1.2744
  432MOL0     H58306   4.538   0.567   5.271  2.5348  0.2985 -2.5720
  432MOL0     H58307   4.297   0.548   5.188 -1.1052 -1.2805  1.3976
  432MOL0     H58308   4.127   0.164   5.198  1.2894  0.7525  0.3641
  432MOL0     H58309   4.141   0.172   5.018  0.2085  0.4819 -0.6040
  432MOL0     H58310   3.948   0.296   4.987  1.0586 -1.4487 -1.2251
  432MOL0     H58311   3.921   0.333   5.156 -1.2981  1.9520 -1.9704
  432MOL0     H58312   3.920   0.081   5.204 -2.6047  0.2994  0.8406
  432MOL0     H58313   3.929   0.040   5.037  1.6687 -1.1891  1.6007
  432MOL0     H58314   3.705   0.021   5.075  0.2656  0.0894 -1.5163
  432MOL0     H58315   3.725   0.138   5.206  0.0007 -0.0565 -0.6509
  432MOL0     H58316   3.594   0.368   4.863 -0.2854  2.1098  1.9533
  432MOL0     H58317   4.352   0.143   5.091 -0.4840  1.1194 -1.5960
  432MOL0     H58318   4.606   0.063   5.298 -1.2642  2.6803  1.7820
  432MOL0     H58319   4.530   0.029   5.138 -0.6133  0.6715 -0.4803
  432MOL0     H58320   4.689   0.109   5.144 -1.6012 -0.5432 -2.7653
  433MOL0     O58321   2.971   8.032   8.395 -0.8339  0.0563  0.0850
  433MOL0     C58322   2.978   7.912   8.395 -0.5199  0.2247  0.2226
  433MOL0     O58323   3.087   7.832   8.400 -0.2301 -0.2935 -0.0031
  433MOL0     C58324   3.215   7.887   8.413  0.0050  0.3288  0.2420
  433MOL0     C58325   3.314   7.791   8.441  0.5971  0.4961 -0.0863
  433MOL0     C58326   3.452   7.819   8.444 -0.3408 -0.8408 -0.2362
  433MOL0     C58327   3.490   7.959   8.442 -0.5784 -0.2963  0.6649
  433MOL0     O58328   3.627   7.985   8.441  0.4694 -0.0049 -0.4309
  433MOL0     C58329   3.684   8.044   8.327  0.1274  0.0701 -0.7673
  433MOL0     C58330   3.840   8.067   8.327  0.4234  0.0538  0.1469
  433MOL0     C58331   3.886   8.127   8.194 -0.3319 -0.1140  0.7698
  433MOL0     C58332   4.023   8.179   8.196  0.1803 -0.5983 -0.1584
  433MOL0     C58333   4.099   8.191   8.059 -0.1324 -0.8886 -0.5503
  433MOL0     C58334   4.242   8.224   8.098 -0.9210  0.3956  0.5378
  433MOL0     C58335   4.332   8.258   7.974 -0.2425 -0.6342 -0.2052
  433MOL0     C58336   4.480   8.282   8.017  0.3562  0.4455 -0.1853
  433MOL0     N58337   4.544   8.355   7.909  0.5313  0.2771  0.0757
  433MOL0     C58338   4.500   8.477   7.863 -0.3892 -0.8321  0.1233
  433MOL0     C58339   4.567   8.488   7.746 -0.4751  1.1576  0.5139
  433MOL0     C58340   4.556   8.601   7.658  0.0675 -1.2939  0.3582
  433MOL0     C58341   4.633   8.724   7.704 -0.3298  0.0409 -0.2435
  433MOL0     C58342   4.780   8.715   7.685 -0.3277  0.8841  0.4592
  433MOL0     C58343   4.859   8.832   7.740  0.4384 -0.0821 -0.0950
  433MOL0     O58344   4.979   8.848   7.668 -0.3267  0.1625 -0.6791
  433MOL0     C58345   5.102   8.825   7.719 -0.5113 -0.0513 -0.6877
  433MOL0     C58346   5.140   8.729   7.816  0.6105 -0.6324 -0.7340
  433MOL0     C58347   5.273   8.711   7.852  0.0376  0.2957  0.6251
  433MOL0     C58348   5.374   8.803   7.811 -0.5482  0.5337 -0.3016
  433MOL0     C58349   5.515   8.786   7.849  0.0999 -0.2973 -0.3468
  433MOL0     O58350   5.602   8.836   7.762 -0.4240 -0.5555 -0.0540
  433MOL0     C58351   5.738   8.826   7.801 -0.2585  0.7667  0.0843
  433MOL0     C58352   5.819   8.729   7.739  0.0179 -0.1452  0.3691
  433MOL0     C58353   5.957   8.723   7.768 -0.1333  0.0087  0.6448
  433MOL0     C58354   6.016   8.807   7.860 -0.6801  0.9710  0.2811
  433MOL0     O58355   6.144   8.771   7.880  0.3104  0.3156 -0.5442
  433MOL0     C58356   6.211   8.810   8.005  0.1028 -0.1053 -0.1876
  433MOL0     C58357   6.309   8.926   7.966 -0.7217  0.5027 -0.2887
  433MOL0     C58358   6.390   8.977   8.092 -0.3742 -0.3851 -1.0158
  433MOL0     C58359   6.532   8.910   8.119 -0.4494  0.0256 -0.3952
  433MOL0     C58360   6.605   8.959   8.244  0.1421  0.7911 -0.4458
  433MOL0     C58361   6.733   8.870   8.256 -0.5162  0.2844  0.3138
  433MOL0     C58362   6.845   8.888   8.153  0.3014  0.3211  0.2840
  433MOL0     C58363   6.875   9.045   8.128 -0.5690  0.3153  0.4146
  433MOL0    Cl58364   6.911   9.133   8.273  0.4877 -0.2101  0.2332
  433MOL0     C58365   5.933   8.908   7.919  0.2084 -0.2469  0.7795
  433MOL0     C58366   5.798   8.911   7.887  0.0631  0.0195 -0.6698
  433MOL0     O58367   5.543   8.737   7.963 -0.2651 -0.3746  0.4309
  433MOL0     C58368   5.340   8.902   7.720  0.2094  0.6757  0.6460
  433MOL0     C58369   5.209   8.909   7.669 -0.1600  0.1325 -0.0478
  433MOL0     N58370   4.661   8.392   7.731 -0.3420 -0.9566 -0.1173
  433MOL0     N58371   4.646   8.305   7.828  0.6322  0.1341 -0.0403
  433MOL0     C58372   3.392   8.058   8.414  0.5199  0.8146 -0.0039
  433MOL0     C58373   3.257   8.020   8.405 -1.0516  0.3216 -0.9685
  433MOL0     C58374   2.854   7.840   8.368  0.1443 -0.2658  0.6059
  433MOL0     C58375   2.859   7.704   8.337 -0.2138 -0.4436 -0.1006
  433MOL0     C58376   2.746   7.625   8.311  0.3677  0.7133 -0.5113
  433MOL0     C58377   2.616   7.680   8.320  0.9466 -1.0080  0.4203
  433MOL0     O58378   2.496   7.613   8.301  0.9209 -0.0192 -0.7873
  433MOL0     C58379   2.494   7.492   8.225 -0.0662  0.6367 -0.1539
  433MOL0     C58380   2.447   7.372   8.307 -0.1675  0.0782  0.4563
  433MOL0     C58381   2.411   7.245   8.229 -1.0174  0.0824  0.1226
  433MOL0     C58382   2.315   7.258   8.102  0.1521 -0.0266  0.7247
  433MOL0     C58383   2.188   7.323   8.133 -0.3637  0.4447  0.6010
  433MOL0     C58384   2.096   7.391   8.160  0.1919  0.2813  0.5588
  433MOL0     C58385   2.602   7.813   8.349 -0.3254 -0.4873  0.1685
  433MOL0     C58386   2.723   7.897   8.374  1.0743 -0.2165  0.8073
  433MOL0     C58387   2.689   8.031   8.423  0.2448 -0.5450 -0.8153
  433MOL0     H58388   3.286   7.687   8.455  0.5799  0.6129  0.8224
  433MOL0     H58389   3.531   7.744   8.440 -0.5997 -1.5134  3.5602
  433MOL0     H58390   3.657   7.983   8.240 -2.6835 -1.3441  0.9565
  433MOL0     H58391   3.622   8.127   8.290  0.8320 -0.0563 -2.3045
  433MOL0     H58392   3.883   7.970   8.352 -1.1345  0.2602  4.4819
  433MOL0     H58393   3.869   8.141   8.403  2.3354 -1.3667  0.8794
  433MOL0     H58394   3.834   8.220   8.169  0.3746 -0.0812 -0.6761
  433MOL0     H58395   3.869   8.054   8.115 -0.7615  1.5560 -0.7505
  433MOL0     H58396   4.029   8.274   8.249  1.4033 -0.6432 -0.1864
  433MOL0     H58397   4.092   8.121   8.258  4.7177  2.0876 -2.2314
  433MOL0     H58398   4.095   8.096   8.004  3.0587 -1.3340 -0.2222
  433MOL0     H58399   4.059   8.274   8.000  1.0942 -0.8172 -1.3236
  433MOL0     H58400   4.244   8.310   8.165  2.3260  0.5348  0.4050
  433MOL0     H58401   4.276   8.135   8.151 -0.0590 -1.4085 -2.7764
  433MOL0     H58402   4.292   8.349   7.928 -0.0412 -0.0166  0.8126
  433MOL0     H58403   4.322   8.175   7.904 -4.4734  1.3478 -2.2864
  433MOL0     H58404   4.497   8.333   8.113  1.5053 -0.9662  0.3998
  433MOL0     H58405   4.536   8.188   8.024 -0.1103  0.0729 -1.3023
  433MOL0     H58406   4.427   8.546   7.903  0.1684 -0.9690  1.4513
  433MOL0     H58407   4.602   8.580   7.561 -1.1142 -3.2734  0.1690
  433MOL0     H58408   4.453   8.622   7.629  0.0383 -2.3355 -0.3790
  433MOL0     H58409   4.598   8.804   7.638 -1.1392 -1.7021 -2.0154
  433MOL0     H58410   4.610   8.744   7.809 -0.8445 -1.8467  0.0387
  433MOL0     H58411   4.794   8.717   7.576  1.2867 -1.5974  0.5449
  433MOL0     H58412   4.822   8.624   7.730  1.5437  0.3431 -2.1006
  433MOL0     H58413   4.868   8.832   7.849 -1.9469 -0.7416  0.1697
  433MOL0     H58414   4.796   8.914   7.703  0.4885 -1.0311 -2.5189
  433MOL0     H58415   5.076   8.662   7.874  0.4846 -1.5053 -1.8478
  433MOL0     H58416   5.295   8.631   7.922 -0.5253 -0.9571 -0.6047
  433MOL0     H58417   5.767   8.659   7.674 -0.0087  0.0582  0.1696
  433MOL0     H58418   6.018   8.646   7.722  0.8084  0.6521  0.7959
  433MOL0     H58419   6.138   8.843   8.080 -1.5886 -1.3486 -1.2137
  433MOL0     H58420   6.261   8.724   8.051  1.0219  0.6782  0.3098
  433MOL0     H58421   6.381   8.879   7.897 -0.6834 -1.3019  0.9176
  433MOL0     H58422   6.255   9.009   7.920 -0.1366  0.9294 -0.2231
  433MOL0     H58423   6.417   9.083   8.090 -0.4914 -0.3557 -1.0741
  433MOL0     H58424   6.320   8.973   8.176 -0.6334  1.3310 -1.1165
  433MOL0     H58425   6.591   8.918   8.027  2.2955  0.9871  1.3193
  433MOL0     H58426   6.517   8.802   8.127  0.8730 -0.2014 -0.7938
  433MOL0     H58427   6.540   8.949   8.332  1.4260  3.1205  0.8684
  433MOL0     H58428   6.637   9.063   8.233  1.3852  0.4947  0.1725
  433MOL0     H58429   6.783   8.889   8.352  4.0088  2.8606 -2.1908
  433MOL0     H58430   6.701   8.766   8.254 -0.3230  0.2339 -1.4721
  433MOL0     H58431   6.817   8.840   8.059  0.9175  0.9109 -0.2178
  433MOL0     H58432   6.934   8.842   8.197 -0.6031 -0.8682  0.8981
  433MOL0     H58433   6.966   9.058   8.069 -0.4045  1.6769  0.9462
  433MOL0     H58434   6.792   9.080   8.066  0.7265 -1.5435 -2.6747
  433MOL0     H58435   5.980   8.986   7.979  0.4321  1.7667 -1.8348
  433MOL0     H58436   5.727   8.978   7.934  1.7060  0.7289  0.9430
  433MOL0     H58437   5.400   8.980   7.673 -1.5348  1.8033  0.2074
  433MOL0     H58438   5.181   8.985   7.597  0.2045 -1.5439 -2.0487
  433MOL0     H58439   3.428   8.159   8.400  2.9692  0.1276  0.8445
  433MOL0     H58440   3.194   8.107   8.386 -1.8445 -0.0556 -0.1432
  433MOL0     H58441   2.953   7.653   8.317 -0.3712 -0.1885 -1.6879
  433MOL0     H58442   2.750   7.521   8.280 -0.9204 -0.2948  2.3310
  433MOL0     H58443   2.586   7.469   8.171 -1.4552 -1.4653 -1.8183
  433MOL0     H58444   2.415   7.506   8.150  0.0178 -0.2919 -0.4203
  433MOL0     H58445   2.358   7.413   8.355 -0.1825 -0.8657  1.2827
  433MOL0     H58446   2.523   7.354   8.384  1.2304 -0.5105 -0.9884
  433MOL0     H58447   2.351   7.182   8.295 -0.2456 -0.0557  0.6998
  433MOL0     H58448   2.492   7.176   8.204 -3.3128 -3.3084  1.3000
  433MOL0     H58449   2.366   7.309   8.020  0.3269 -1.0084  0.2073
  433MOL0     H58450   2.290   7.157   8.070  2.6051 -0.3298 -0.4132
  433MOL0     H58451   2.009   7.448   8.187 -1.0357 -0.3978 -1.7154
  433MOL0     H58452   2.500   7.850   8.359 -0.6042 -1.7062  2.3975
  433MOL0     H58453   2.722   8.102   8.347  1.5770 -2.3776 -2.0279
  433MOL0     H58454   2.581   8.041   8.442  0.0371 -0.3500 -2.0026
  433MOL0     H58455   2.748   8.040   8.515 -0.3840 -3.8477  0.0400
  434MOL0     O58456   2.361   1.271  10.323  0.0423 -0.2221  0.6256
  434MOL0     C58457   2.250   1.327  10.305 -0.2203  0.2168  0.4919
  434MOL0     O58458   2.232   1.448  10.242 -0.9412 -0.4912  0.7112
  434MOL0     C58459   2.336   1.518  10.178 -0.8585  0.6884  0.2517
  434MOL0     C58460   2.287   1.630  10.115  0.4298 -0.2169 -0.1617
  434MOL0     C58461   2.360   1.710  10.023  0.4267  0.1814  0.7536
  434MOL0     C58462   2.476   1.650   9.973 -0.2278 -0.3472 -1.2060
  434MOL0     O58463   2.530   1.717   9.867  0.0056 -0.3428 -0.5095
  434MOL0     C58464   2.563   1.625   9.758  0.1970  0.0324 -0.1383
  434MOL0     C58465   2.593   1.723   9.635 -0.6632  0.9081  0.5876
  434MOL0     C58466   2.740   1.775   9.651  0.3822  0.1066 -0.6200
  434MOL0     C58467   2.804   1.836   9.522 -0.3703 -0.3494 -0.4735
  434MOL0     C58468   2.944   1.897   9.542 -0.4741 -0.7163 -0.6262
  434MOL0     C58469   3.009   1.955   9.417 -0.3680 -0.6752 -0.3775
  434MOL0     C58470   3.144   2.024   9.434  0.7830 -0.6605 -0.7497
  434MOL0     C58471   3.180   2.086   9.574 -1.1625  0.8535 -0.5793
  434MOL0     N58472   3.301   2.166   9.587 -0.3226  0.5323  0.4049
  434MOL0     C58473   3.345   2.237   9.699 -0.4170  0.0869 -0.1657
  434MOL0     C58474   3.459   2.291   9.664 -0.4867  0.4157  0.3637
  434MOL0     C58475   3.548   2.389   9.735  0.0017  0.4608  0.0330
  434MOL0     C58476   3.682   2.326   9.772  0.6385 -1.1866 -0.6554
  434MOL0     C58477   3.796   2.435   9.777  0.8018 -0.2216  0.4901
  434MOL0     C58478   3.939   2.389   9.808  0.5564  0.5263  0.0892
  434MOL0     O58479   4.024   2.496   9.757  0.2814 -0.6931  0.3971
  434MOL0     C58480   4.158   2.470   9.746 -1.1648  0.3890 -0.7951
  434MOL0     C58481   4.225   2.364   9.811  0.6851 -0.1023  0.6949
  434MOL0     C58482   4.364   2.350   9.811 -0.0781  0.3082  0.5086
  434MOL0     C58483   4.448   2.436   9.732  0.2575  0.5493 -0.6014
  434MOL0     C58484   4.592   2.413   9.722 -0.0928 -0.2631 -0.3199
  434MOL0     O58485   4.659   2.476   9.623  0.4543 -0.4628 -0.5258
  434MOL0     C58486   4.792   2.465   9.625  0.4759  0.3707  0.3246
  434MOL0     C58487   4.867   2.506   9.739  0.0079 -0.2463 -0.3558
  434MOL0     C58488   5.009   2.527   9.721  0.5334  0.0117  0.0217
  434MOL0     C58489   5.072   2.493   9.599  0.2870  0.1949 -0.8326
  434MOL0     O58490   5.205   2.496   9.594  0.4579  1.1707 -0.2794
  434MOL0     C58491   5.286   2.534   9.702 -0.0970 -0.2017  0.4834
  434MOL0     C58492   5.434   2.526   9.653  0.2304 -0.0869  0.4648
  434MOL0     C58493   5.546   2.479   9.749 -0.4502  1.5201 -0.3142
  434MOL0     C58494   5.691   2.516   9.699 -0.2756  0.1182 -0.2669
  434MOL0     C58495   5.789   2.546   9.821 -0.4039  0.1051  0.1443
  434MOL0     C58496   5.937   2.586   9.784 -0.2730  0.3977  0.5688
  434MOL0     C58497   6.039   2.513   9.881  1.7522  0.1156 -0.6892
  434MOL0     C58498   6.017   2.561  10.032  0.8394  0.0848  0.2940
  434MOL0    Cl58499   6.139   2.483  10.122 -0.1443 -0.1728 -0.0841
  434MOL0     C58500   5.001   2.420   9.503  0.0055  0.0162  0.6842
  434MOL0     C58501   4.855   2.412   9.509  0.0656  0.2070 -0.1258
  434MOL0     O58502   4.642   2.333   9.798 -0.6152 -0.3773  0.0940
  434MOL0     C58503   4.386   2.547   9.669 -0.6788  0.4575 -0.2842
  434MOL0     C58504   4.245   2.560   9.672  0.9335  0.4775  0.5492
  434MOL0     N58505   3.488   2.260   9.532  0.3109  0.3854  0.2711
  434MOL0     N58506   3.390   2.186   9.486  0.0146 -0.6839 -0.0452
  434MOL0     C58507   2.536   1.541  10.041  1.1117 -0.7228  0.0610
  434MOL0     C58508   2.463   1.476  10.138  0.8763  0.7410 -1.2745
  434MOL0     C58509   2.119   1.267  10.354 -0.5615 -0.1607 -0.1972
  434MOL0     C58510   2.010   1.350  10.372 -0.4710 -0.5705 -0.1884
  434MOL0     C58511   1.890   1.298  10.411  0.0772 -0.2962  0.0447
  434MOL0     C58512   1.875   1.163  10.438 -0.1666 -0.3202 -0.1073
  434MOL0     O58513   1.760   1.114  10.488 -0.3929 -0.0042 -0.6427
  434MOL0     C58514   1.707   1.185  10.603 -0.8280 -0.1313 -0.4199
  434MOL0     C58515   1.568   1.246  10.568 -0.1419 -0.3775  0.3198
  434MOL0     C58516   1.468   1.130  10.598  0.7655  0.4367 -0.4245
  434MOL0     C58517   1.323   1.169  10.567  0.3255  0.2224  0.2013
  434MOL0     C58518   1.237   1.052  10.591 -0.4260 -0.2305  0.6295
  434MOL0     C58519   1.161   0.958  10.618 -0.1131  0.2298  0.9057
  434MOL0     C58520   1.985   1.073  10.410 -0.6521 -0.4396 -0.5314
  434MOL0     C58521   2.112   1.126  10.368  0.4935  0.2963  0.2677
  434MOL0     C58522   2.210   1.013  10.320  0.4760 -0.6816  0.5551
  434MOL0     H58523   2.188   1.672  10.132  0.2168  1.3128 -4.0344
  434MOL0     H58524   2.326   1.803   9.978 -2.3167  0.2837  2.8189
  434MOL0     H58525   2.648   1.560   9.779 -0.4373 -0.9518 -0.5306
  434MOL0     H58526   2.479   1.559   9.737 -0.3258  0.6622 -0.0542
  434MOL0     H58527   2.514   1.797   9.620  0.2852  1.9798  0.7222
  434MOL0     H58528   2.591   1.654   9.550  3.2222 -0.9499  1.7614
  434MOL0     H58529   2.792   1.684   9.683 -0.1435 -0.6084 -1.7292
  434MOL0     H58530   2.745   1.858   9.722  1.8639  0.4900 -1.1525
  434MOL0     H58531   2.818   1.752   9.454 -0.4133 -0.0218 -0.8897
  434MOL0     H58532   2.742   1.914   9.477 -0.6505 -0.7574 -0.7941
  434MOL0     H58533   2.941   1.981   9.613 -0.0743  0.0966 -1.5468
  434MOL0     H58534   3.009   1.822   9.587  1.4837  0.0548 -2.0622
  434MOL0     H58535   3.009   1.873   9.344 -1.5580 -2.8899  1.9706
  434MOL0     H58536   2.930   2.011   9.368  0.8701  1.4804 -0.0385
  434MOL0     H58537   3.147   2.103   9.359  0.1268 -0.6185 -0.7442
  434MOL0     H58538   3.223   1.950   9.419  3.1886  0.8655  2.8570
  434MOL0     H58539   3.105   2.153   9.619  0.2309  0.7109  2.1591
  434MOL0     H58540   3.196   1.997   9.635  0.0184  0.6581 -1.1593
  434MOL0     H58541   3.283   2.243   9.788 -0.0063 -0.3299  0.1542
  434MOL0     H58542   3.557   2.477   9.671  0.6382 -0.4426 -1.1441
  434MOL0     H58543   3.488   2.423   9.820  1.5384  0.4967  1.1361
  434MOL0     H58544   3.663   2.285   9.872 -0.2172 -2.2266 -1.2222
  434MOL0     H58545   3.694   2.247   9.698 -1.2350 -0.9553 -1.2557
  434MOL0     H58546   3.772   2.511   9.852 -0.5625 -1.8075  1.7420
  434MOL0     H58547   3.791   2.482   9.679  0.2216  1.6794  1.3920
  434MOL0     H58548   3.967   2.303   9.747  2.4510  1.1253  0.0603
  434MOL0     H58549   3.951   2.380   9.916  1.2609  2.0693  0.1777
  434MOL0     H58550   4.165   2.289   9.861 -0.7336  0.4217 -0.1731
  434MOL0     H58551   4.414   2.271   9.867  2.3115  0.5666 -1.1653
  434MOL0     H58552   4.830   2.526   9.839  0.4958 -1.9333  0.1949
  434MOL0     H58553   5.073   2.542   9.808 -0.8491 -0.7221  1.2094
  434MOL0     H58554   5.258   2.634   9.737  3.0230  1.0565 -0.3156
  434MOL0     H58555   5.281   2.469   9.790 -1.6585  0.8038  1.1932
  434MOL0     H58556   5.434   2.469   9.560 -3.2007  0.2979  0.0887
  434MOL0     H58557   5.461   2.630   9.635 -0.6854  0.8773  3.8505
  434MOL0     H58558   5.533   2.525   9.848  0.3273  0.7211  0.1818
  434MOL0     H58559   5.537   2.371   9.764  1.1578  1.2330 -1.1483
  434MOL0     H58560   5.679   2.598   9.628 -0.1961 -1.1112 -1.7545
  434MOL0     H58561   5.729   2.436   9.634 -2.4103  0.6465 -2.3310
  434MOL0     H58562   5.792   2.451   9.875  0.9659 -0.4137 -0.8041
  434MOL0     H58563   5.755   2.638   9.870  2.1227  1.5688 -0.6451
  434MOL0     H58564   5.952   2.548   9.683 -2.2902  1.2761 -0.1146
  434MOL0     H58565   5.952   2.694   9.793 -1.6181  0.5492  1.4119
  434MOL0     H58566   6.141   2.521   9.844  1.1719  0.4987 -2.2908
  434MOL0     H58567   6.016   2.406   9.877  1.9230  0.0263  0.3034
  434MOL0     H58568   6.026   2.670  10.033  1.6496  0.0323 -0.1325
  434MOL0     H58569   5.919   2.526  10.064 -1.1030  5.5468  1.4029
  434MOL0     H58570   5.053   2.382   9.416  0.5677  0.7778  0.6725
  434MOL0     H58571   4.804   2.377   9.420  1.8920 -0.7278 -0.8596
  434MOL0     H58572   4.446   2.623   9.621  0.9189 -1.5146 -1.5403
  434MOL0     H58573   4.188   2.637   9.621  0.4593  0.0602  0.4518
  434MOL0     H58574   2.636   1.510  10.015  0.1709 -2.7047 -1.4434
  434MOL0     H58575   2.498   1.384  10.183  2.0404  1.7551 -0.0018
  434MOL0     H58576   2.026   1.456  10.356  1.3796 -0.6099  1.0866
  434MOL0     H58577   1.801   1.360  10.420 -0.3414 -0.8934  0.0194
  434MOL0     H58578   1.782   1.262  10.623  1.8975 -2.7549  0.1367
  434MOL0     H58579   1.698   1.113  10.685 -3.3708 -1.2399 -1.5739
  434MOL0     H58580   1.570   1.279  10.464  0.4218  2.6836  1.1842
  434MOL0     H58581   1.549   1.340  10.622 -1.8705  1.1069 -2.6188
  434MOL0     H58582   1.478   1.071  10.689  0.4570 -1.6414 -1.6871
  434MOL0     H58583   1.484   1.057  10.518 -3.0730 -3.1640  1.7424
  434MOL0     H58584   1.295   1.255  10.629 -3.8466  0.5450 -1.7758
  434MOL0     H58585   1.316   1.216  10.468 -3.5629  1.2227  0.7708
  434MOL0     H58586   1.105   0.869  10.638  1.1212 -0.6099  0.7433
  434MOL0     H58587   1.982   0.965  10.410  1.8346 -0.6261 -2.8486
  434MOL0     H58588   2.296   1.010  10.388  0.6050  0.0668  0.4285
  434MOL0     H58589   2.167   0.916  10.293 -2.4412  1.2914 -2.6096
  434MOL0     H58590   2.250   1.050  10.225 -0.8376  0.6504  0.4842
  435MOL0     O58591   0.475   8.404   7.697  0.2336  0.1126 -0.8520
  435MOL0     C58592   0.459   8.451   7.806 -0.4706  0.7037 -1.3324
  435MOL0     O58593   0.562   8.494   7.888  0.1611  0.1302 -0.4229
  435MOL0     C58594   0.694   8.486   7.849 -0.2220 -0.2960 -0.1063
  435MOL0     C58595   0.787   8.594   7.880 -0.0299 -0.0284  0.0075
  435MOL0     C58596   0.928   8.580   7.839  0.2929 -0.5534 -0.1538
  435MOL0     C58597   0.977   8.468   7.782  0.0156  0.7353 -0.3135
  435MOL0     O58598   1.108   8.449   7.746 -0.0954  0.6682 -0.0106
  435MOL0     C58599   1.162   8.562   7.664  0.3925 -0.5709  0.1919
  435MOL0     C58600   1.291   8.517   7.607 -0.4617 -0.1659 -0.3085
  435MOL0     C58601   1.288   8.387   7.517  0.0321 -0.9998 -0.5484
  435MOL0     C58602   1.419   8.348   7.472  0.3164 -0.2347  0.1877
  435MOL0     C58603   1.403   8.204   7.417  0.4878  0.1791  0.2140
  435MOL0     C58604   1.526   8.132   7.349 -0.5870  0.5199 -0.4035
  435MOL0     C58605   1.659   8.155   7.433 -0.3247 -0.2500  0.3874
  435MOL0     C58606   1.772   8.073   7.369 -0.5589  0.2894  0.0034
  435MOL0     N58607   1.911   8.088   7.416  0.1024 -0.6344  0.8822
  435MOL0     C58608   1.970   8.208   7.441  0.8690 -0.5507  0.1818
  435MOL0     C58609   2.104   8.167   7.442  1.3084  0.9046  0.2313
  435MOL0     C58610   2.226   8.249   7.465  0.3822  0.1461  0.0404
  435MOL0     C58611   2.352   8.165   7.455  0.3446 -0.0067  0.3513
  435MOL0     C58612   2.377   8.106   7.597 -0.2877  0.4125  0.5231
  435MOL0     C58613   2.448   8.210   7.687  0.2989  0.6529  0.5560
  435MOL0     O58614   2.479   8.164   7.826  0.1894  0.6399 -0.1942
  435MOL0     C58615   2.587   8.233   7.877  0.2904  0.4269 -0.7382
  435MOL0     C58616   2.662   8.180   7.982 -0.5404  0.4788 -0.3798
  435MOL0     C58617   2.772   8.238   8.048 -0.4399  0.5911  0.2888
  435MOL0     C58618   2.812   8.356   8.006  0.5541 -1.3475  0.0443
  435MOL0     C58619   2.923   8.423   8.079 -1.1463 -0.9676  0.7441
  435MOL0     O58620   2.983   8.364   8.184  0.0940 -0.0963 -0.9346
  435MOL0     C58621   3.115   8.379   8.208 -0.8031  0.1553 -0.2309
  435MOL0     C58622   3.212   8.409   8.114  0.4306 -0.1606  0.1456
  435MOL0     C58623   3.349   8.435   8.148  0.7235  0.3646  0.5257
  435MOL0     C58624   3.387   8.433   8.281 -1.0388  0.2731 -0.0231
  435MOL0     O58625   3.521   8.453   8.305 -1.1987  1.0444  0.5604
  435MOL0     C58626   3.578   8.440   8.435  0.1016  0.2196  0.0412
  435MOL0     C58627   3.732   8.463   8.425 -0.1865 -0.1076 -0.3153
  435MOL0     C58628   3.805   8.433   8.554  1.2438  0.2576 -0.7954
  435MOL0     C58629   3.949   8.492   8.567  0.0239  0.6189 -0.5181
  435MOL0     C58630   3.989   8.520   8.710 -0.1236 -0.5575  0.2903
  435MOL0     C58631   4.138   8.568   8.714 -0.0533  0.3317 -0.7742
  435MOL0     C58632   4.171   8.697   8.646 -0.3988  0.1283  0.8314
  435MOL0     C58633   4.096   8.826   8.691 -0.3226 -0.2819  0.6988
  435MOL0    Cl58634   3.917   8.835   8.649  0.3252  0.0192 -0.5285
  435MOL0     C58635   3.284   8.425   8.373 -0.5023 -0.5942  0.2070
  435MOL0     C58636   3.157   8.392   8.344  0.6770  0.3579  0.3441
  435MOL0     O58637   2.968   8.532   8.026  0.2616  0.1999  0.1561
  435MOL0     C58638   2.737   8.416   7.900  0.0225 -0.7476 -0.1338
  435MOL0     C58639   2.629   8.354   7.837  0.2680  0.1333  0.7309
  435MOL0     N58640   2.110   8.034   7.429 -0.7637 -0.0063  0.0986
  435MOL0     N58641   1.994   7.985   7.423 -0.7210 -0.2721  0.5398
  435MOL0     C58642   0.889   8.367   7.748  1.0496 -0.0669 -0.0600
  435MOL0     C58643   0.750   8.375   7.785  0.0473  1.0414  0.5515
  435MOL0     C58644   0.315   8.446   7.856  0.0836 -1.1866 -0.5671
  435MOL0     C58645   0.222   8.371   7.789  0.1937  0.0732 -0.4364
  435MOL0     C58646   0.084   8.368   7.820 -0.6508 -0.3471  0.4532
  435MOL0     C58647   0.038   8.443   7.927 -0.3231  0.1344 -0.4006
  435MOL0     O58648  -0.092   8.443   7.967  0.9432  0.5358 -0.8033
  435MOL0     C58649  -0.143   8.314   8.015 -0.4390 -0.9156 -0.4920
  435MOL0     C58650  -0.171   8.329   8.164  0.1431  0.6083  1.2368
  435MOL0     C58651  -0.271   8.439   8.191 -0.0162 -0.1461 -0.5303
  435MOL0     C58652  -0.310   8.424   8.342  0.5078 -0.1954 -0.3397
  435MOL0     C58653  -0.365   8.295   8.362  0.0246 -0.1935  0.4722
  435MOL0     C58654  -0.394   8.178   8.377 -0.3448  0.0592 -0.4744
  435MOL0     C58655   0.135   8.518   7.998  0.5564  0.7030  0.7445
  435MOL0     C58656   0.271   8.526   7.970  0.1133  0.5009  0.8203
  435MOL0     C58657   0.369   8.587   8.073 -0.2154  0.1871  0.1195
  435MOL0     H58658   0.748   8.690   7.915  2.1843  0.8537  0.2183
  435MOL0     H58659   0.996   8.660   7.870  0.2800 -1.1336  1.4970
  435MOL0     H58660   1.107   8.593   7.575  2.0906 -0.2054 -0.7755
  435MOL0     H58661   1.173   8.650   7.729 -0.3282 -1.0397  0.9780
  435MOL0     H58662   1.349   8.515   7.699 -2.0074  1.4962  0.7658
  435MOL0     H58663   1.321   8.596   7.538  1.0564 -1.0938 -0.7734
  435MOL0     H58664   1.221   8.397   7.432 -2.7338 -2.9623  1.2275
  435MOL0     H58665   1.251   8.314   7.590  1.0559  2.2326  3.6569
  435MOL0     H58666   1.449   8.417   7.392 -1.2631 -0.5711 -0.7376
  435MOL0     H58667   1.492   8.350   7.553 -1.8582  1.2157  2.2109
  435MOL0     H58668   1.379   8.149   7.508 -2.8249  0.4121 -0.3999
  435MOL0     H58669   1.319   8.201   7.347 -0.1097 -0.5394  0.9507
  435MOL0     H58670   1.513   8.024   7.343  1.3809  0.1841  0.5999
  435MOL0     H58671   1.522   8.176   7.249 -1.5370 -0.5535 -0.8523
  435MOL0     H58672   1.651   8.128   7.539 -1.4788 -2.0969 -0.1306
  435MOL0     H58673   1.690   8.259   7.423 -1.1026 -0.0038  0.4886
  435MOL0     H58674   1.730   7.973   7.381 -2.2293  1.2384  3.2813
  435MOL0     H58675   1.787   8.109   7.267  0.1492  3.2343  1.0610
  435MOL0     H58676   1.937   8.311   7.432  3.4195  0.5930  2.4413
  435MOL0     H58677   2.223   8.323   7.385  1.2643  0.0544 -0.0860
  435MOL0     H58678   2.231   8.303   7.560  2.4218  1.2339 -0.6191
  435MOL0     H58679   2.343   8.098   7.369  1.4712  0.7637 -0.4003
  435MOL0     H58680   2.424   8.241   7.422 -2.4992  2.0547 -1.6259
  435MOL0     H58681   2.447   8.023   7.598  1.1149  1.5635  0.9041
  435MOL0     H58682   2.285   8.077   7.649 -1.0892  0.2079 -0.9421
  435MOL0     H58683   2.377   8.292   7.699 -2.4279 -1.4271 -0.3745
  435MOL0     H58684   2.539   8.238   7.632  1.7485  1.1240  3.0728
  435MOL0     H58685   2.626   8.088   8.028 -0.1914 -0.2858 -1.5901
  435MOL0     H58686   2.828   8.199   8.133  0.1772  4.0618  1.6400
  435MOL0     H58687   3.188   8.416   8.008  2.0413 -2.3217 -0.4363
  435MOL0     H58688   3.425   8.439   8.071  0.1327  2.3172 -0.0265
  435MOL0     H58689   3.528   8.512   8.500 -1.6346  0.5004 -1.5226
  435MOL0     H58690   3.554   8.337   8.464 -0.1012 -0.2881 -1.7639
  435MOL0     H58691   3.791   8.414   8.347  0.6922  0.2907  0.0975
  435MOL0     H58692   3.742   8.570   8.407 -0.8223  0.3051  1.5961
  435MOL0     H58693   3.749   8.491   8.629  1.3787 -2.7770  1.8743
  435MOL0     H58694   3.796   8.327   8.579  0.6067  0.3590 -0.5713
  435MOL0     H58695   3.961   8.587   8.512  1.2773  1.4869  1.1651
  435MOL0     H58696   4.019   8.421   8.522  1.0292 -1.3120  3.6496
  435MOL0     H58697   3.979   8.428   8.769  1.3193 -0.6889  0.3833
  435MOL0     H58698   3.921   8.595   8.750  1.8053 -0.2544  3.3130
  435MOL0     H58699   4.175   8.580   8.817  1.4123 -2.1507 -0.9420
  435MOL0     H58700   4.200   8.482   8.686  1.2700  1.7945 -2.6130
  435MOL0     H58701   4.173   8.686   8.537 -0.1247 -1.1358  0.9413
  435MOL0     H58702   4.276   8.702   8.678  0.2031 -2.1073 -0.5770
  435MOL0     H58703   4.094   8.825   8.801 -2.3677 -2.6466  0.7467
  435MOL0     H58704   4.151   8.909   8.646 -0.7819 -0.3779 -0.0570
  435MOL0     H58705   3.315   8.430   8.477  1.9171  1.8463 -0.5218
  435MOL0     H58706   3.078   8.397   8.418 -0.7233 -0.6065 -1.0244
  435MOL0     H58707   2.766   8.516   7.867 -0.4084 -0.7255 -0.4539
  435MOL0     H58708   2.565   8.422   7.781 -1.4001 -1.7897  0.1476
  435MOL0     H58709   0.934   8.280   7.701  0.0357 -0.5745 -0.1380
  435MOL0     H58710   0.686   8.292   7.757  0.7983  0.4109  0.6828
  435MOL0     H58711   0.269   8.308   7.715  1.2373  0.0532  0.2287
  435MOL0     H58712   0.026   8.295   7.765  0.5104 -3.0885  2.6049
  435MOL0     H58713  -0.071   8.236   7.988  0.5779 -0.7948  1.6977
  435MOL0     H58714  -0.239   8.290   7.968 -0.9791 -0.0793  0.1720
  435MOL0     H58715  -0.077   8.366   8.206 -0.2408  3.5139 -0.1930
  435MOL0     H58716  -0.198   8.231   8.204 -1.0236 -0.1695 -1.2846
  435MOL0     H58717  -0.362   8.421   8.132 -0.9574 -1.2230  1.1671
  435MOL0     H58718  -0.224   8.535   8.167 -0.8797  1.0452  2.2201
  435MOL0     H58719  -0.221   8.445   8.402 -1.1570 -0.1584  2.2842
  435MOL0     H58720  -0.388   8.495   8.371  0.5614 -0.3792  0.2769
  435MOL0     H58721  -0.416   8.074   8.384 -0.4320  0.0095 -1.4357
  435MOL0     H58722   0.102   8.570   8.088  2.3752  1.9781  0.7328
  435MOL0     H58723   0.313   8.624   8.160  1.0075  1.0446  0.5648
  435MOL0     H58724   0.438   8.510   8.109  0.9462  1.7833  1.4353
  435MOL0     H58725   0.433   8.657   8.019 -1.4653  1.2565 -0.0309
  436MOL0     O58726  10.936   9.633   6.016  0.3228  0.6782  0.1258
  436MOL0     C58727  10.889   9.652   5.906  0.3057  0.2527  0.0062
  436MOL0     O58728  10.960   9.663   5.791 -0.3063 -0.1721 -0.3340
  436MOL0     C58729  11.077   9.593   5.794 -0.7516  0.4904 -0.5521
  436MOL0     C58730  11.211   9.648   5.794  0.6640 -0.5391 -0.3214
  436MOL0     C58731  11.316   9.556   5.818 -0.1504  0.0978 -0.4238
  436MOL0     C58732  11.304   9.429   5.848  0.0186 -0.6054  0.5863
  436MOL0     O58733  11.419   9.365   5.866  0.0073 -0.0613  0.2433
  436MOL0     C58734  11.397   9.239   5.922 -0.4646 -0.2637  0.7844
  436MOL0     C58735  11.526   9.173   5.981 -0.1495  0.5021 -0.2551
  436MOL0     C58736  11.570   9.249   6.100  0.3483 -0.3176  0.3879
  436MOL0     C58737  11.697   9.176   6.163  0.2727 -1.0212 -0.5614
  436MOL0     C58738  11.746   9.265   6.282 -0.4279  0.1906 -0.9421
  436MOL0     C58739  11.821   9.395   6.256  0.6324 -0.3425  0.9518
  436MOL0     C58740  11.918   9.399   6.143  0.9609 -0.5162  0.6472
  436MOL0     C58741  12.033   9.322   6.195 -0.6015 -0.0173  0.7803
  436MOL0     N58742  12.151   9.358   6.105  0.5982 -0.0038  0.9623
  436MOL0     C58743  12.146   9.355   5.964  0.4880  0.2159 -1.1338
  436MOL0     C58744  12.246   9.437   5.928  0.0311 -0.4247 -0.1784
  436MOL0     C58745  12.275   9.491   5.785  0.5694 -0.1634 -0.0719
  436MOL0     C58746  12.219   9.397   5.680  0.4678 -0.2314 -0.6472
  436MOL0     C58747  12.270   9.430   5.539 -0.7079  0.8549 -0.2785
  436MOL0     C58748  12.242   9.569   5.491 -0.9827  0.4685  0.4686
  436MOL0     O58749  12.300   9.578   5.364  0.3064 -0.4092 -0.7103
  436MOL0     C58750  12.436   9.588   5.346  0.0006  0.7934 -0.2420
  436MOL0     C58751  12.534   9.610   5.445 -0.4217 -0.2628 -0.0372
  436MOL0     C58752  12.672   9.615   5.413 -0.4385  0.0560 -0.3290
  436MOL0     C58753  12.717   9.604   5.278  0.6695 -0.1649 -0.1349
  436MOL0     C58754  12.860   9.610   5.254 -0.3806 -0.5930  1.0994
  436MOL0     O58755  12.941   9.609   5.370 -0.3347  0.3498  0.1632
  436MOL0     C58756  13.076   9.629   5.353  0.0774 -0.5988  0.8365
  436MOL0     C58757  13.165   9.540   5.410  0.4985  0.5099  1.0216
  436MOL0     C58758  13.300   9.556   5.381 -1.2361  0.7720 -0.6776
  436MOL0     C58759  13.351   9.666   5.315  0.3127  0.0731 -0.1606
  436MOL0     O58760  13.486   9.676   5.303  0.1636 -0.8413 -0.4417
  436MOL0     C58761  13.537   9.786   5.232 -0.2346  0.1704  0.0230
  436MOL0     C58762  13.685   9.775   5.214 -0.7610  0.0936  1.0060
  436MOL0     C58763  13.779   9.777   5.334  0.1863 -0.4605 -0.1114
  436MOL0     C58764  13.804   9.919   5.391 -0.2364 -0.0434  0.6766
  436MOL0     C58765  13.884  10.006   5.294  0.2356 -0.1927 -0.1448
  436MOL0     C58766  14.032   9.981   5.281 -0.7075 -0.4856  0.4089
  436MOL0     C58767  14.103  10.029   5.402  0.3924  0.3841 -0.4490
  436MOL0     C58768  14.256  10.030   5.385  0.7303  0.1057 -0.0346
  436MOL0    Cl58769  14.323  10.131   5.250 -0.0062 -0.0570  0.0897
  436MOL0     C58770  13.265   9.763   5.272  1.2050  0.2026  0.2629
  436MOL0     C58771  13.125   9.745   5.293  0.1241 -0.5002 -0.2681
  436MOL0     O58772  12.897   9.625   5.140 -1.2240 -0.5344  0.3904
  436MOL0     C58773  12.619   9.572   5.177 -0.7281  0.0939 -0.0329
  436MOL0     C58774  12.481   9.570   5.220 -0.8787 -0.3709  0.2936
  436MOL0     N58775  12.298   9.493   6.041 -0.0474  0.9425 -0.1301
  436MOL0     N58776  12.247   9.441   6.148 -0.0869 -0.2116  0.2641
  436MOL0     C58777  11.175   9.374   5.839 -0.1656 -0.5259 -0.0561
  436MOL0     C58778  11.067   9.450   5.809  0.2102  0.2469 -0.1420
  436MOL0     C58779  10.736   9.657   5.900  0.2101 -0.3889  0.0245
  436MOL0     C58780  10.655   9.597   5.997 -0.7364  0.3765  0.1760
  436MOL0     C58781  10.518   9.597   5.989 -0.8587 -0.3917 -0.5694
  436MOL0     C58782  10.451   9.636   5.875 -0.0351 -0.0656 -0.6574
  436MOL0     O58783  10.312   9.635   5.871  0.2133  0.3168 -0.7497
  436MOL0     C58784  10.231   9.650   5.995 -1.2668  0.3511  0.4416
  436MOL0     C58785  10.082   9.636   5.967  0.7178 -0.6209 -0.4800
  436MOL0     C58786  10.045   9.499   5.928 -0.2028 -0.0306 -0.8135
  436MOL0     C58787   9.898   9.487   5.883 -0.3119  0.4475  0.1531
  436MOL0     C58788   9.865   9.348   5.866 -0.3588  0.5489  1.1300
  436MOL0     C58789   9.836   9.232   5.859 -0.1972  0.3281  0.4575
  436MOL0     C58790  10.525   9.696   5.768  0.8561  1.0568  0.3971
  436MOL0     C58791  10.666   9.711   5.777  0.3604  0.2511  0.5302
  436MOL0     C58792  10.729   9.777   5.657 -1.0184 -0.4537  0.9354
  436MOL0     H58793  11.219   9.755   5.780  2.8439 -0.8784 -2.3267
  436MOL0     H58794  11.406   9.615   5.830  1.3888 -2.1404 -0.5153
  436MOL0     H58795  11.314   9.247   5.992 -0.9043  1.4723  0.1001
  436MOL0     H58796  11.366   9.166   5.847 -1.8708  1.0549  0.0353
  436MOL0     H58797  11.605   9.176   5.906  1.4179 -2.0577  1.1417
  436MOL0     H58798  11.508   9.070   6.013  0.3505  0.3912 -0.3262
  436MOL0     H58799  11.483   9.255   6.165 -0.0892 -1.6738 -0.0451
  436MOL0     H58800  11.602   9.349   6.068  0.6213  0.7000  3.5344
  436MOL0     H58801  11.669   9.074   6.190 -1.2738 -0.6013 -0.5113
  436MOL0     H58802  11.780   9.172   6.091  0.4399  1.7359 -0.6552
  436MOL0     H58803  11.662   9.285   6.350  0.7857  2.7949 -0.0724
  436MOL0     H58804  11.826   9.207   6.329  0.0757  0.3545 -1.5878
  436MOL0     H58805  11.733   9.457   6.237 -1.1689 -3.1430 -0.5589
  436MOL0     H58806  11.861   9.437   6.349 -1.8742 -1.3522  2.5820
  436MOL0     H58807  11.951   9.498   6.111  2.2280 -1.5816 -1.6041
  436MOL0     H58808  11.871   9.356   6.054 -2.7318 -0.3158  2.3466
  436MOL0     H58809  12.055   9.328   6.302 -0.8048  2.9392  0.7463
  436MOL0     H58810  12.014   9.219   6.162  1.8925 -0.0076 -0.9142
  436MOL0     H58811  12.086   9.289   5.903  1.1844 -2.5286  0.9401
  436MOL0     H58812  12.245   9.597   5.785 -0.3267 -0.4083 -0.3049
  436MOL0     H58813  12.382   9.499   5.760  0.7841  4.8775  1.3490
  436MOL0     H58814  12.252   9.296   5.707  2.8523  0.5809 -0.2885
  436MOL0     H58815  12.110   9.402   5.678  0.4571  1.8992 -4.0659
  436MOL0     H58816  12.238   9.351   5.471  3.1184  0.5016 -1.8715
  436MOL0     H58817  12.379   9.420   5.538 -0.7076  0.8923 -1.6505
  436MOL0     H58818  12.290   9.641   5.557  1.3299 -0.1140 -0.4740
  436MOL0     H58819  12.135   9.588   5.476 -1.3845 -1.7616  0.1005
  436MOL0     H58820  12.503   9.623   5.549 -0.5872  1.8677 -0.3115
  436MOL0     H58821  12.737   9.628   5.498  0.4972 -1.2094 -0.8350
  436MOL0     H58822  13.113   9.451   5.443 -0.0390 -0.7758 -2.7194
  436MOL0     H58823  13.365   9.475   5.409 -3.1817 -0.8590 -0.6331
  436MOL0     H58824  13.494   9.789   5.131  1.7760  1.8113 -0.8407
  436MOL0     H58825  13.516   9.879   5.285 -0.0591  0.7941 -0.9779
  436MOL0     H58826  13.702   9.681   5.161 -2.7979 -0.8035  1.8418
  436MOL0     H58827  13.719   9.849   5.142 -0.1696 -0.3207  0.8460
  436MOL0     H58828  13.729   9.720   5.413 -0.1824  1.2987  0.9663
  436MOL0     H58829  13.866   9.715   5.310  0.6044 -0.2526  0.8341
  436MOL0     H58830  13.857   9.910   5.487 -1.4273 -2.1753  1.2053
  436MOL0     H58831  13.709   9.971   5.411  1.7349  3.9519  0.5805
  436MOL0     H58832  13.866  10.108   5.326 -1.8136  0.1017 -1.9390
  436MOL0     H58833  13.845  10.006   5.191  1.3289 -2.1431 -0.6091
  436MOL0     H58834  14.050   9.875   5.267 -0.8592 -0.4264 -0.2857
  436MOL0     H58835  14.068  10.037   5.194 -1.8376  1.8951  1.3635
  436MOL0     H58836  14.082   9.961   5.485  0.8979 -0.0975 -0.7165
  436MOL0     H58837  14.067  10.130   5.426  0.6275 -0.0018  1.8001
  436MOL0     H58838  14.296  10.075   5.476 -1.1995  2.4654 -0.2488
  436MOL0     H58839  14.283   9.924   5.372  0.3424  0.0462 -0.3817
  436MOL0     H58840  13.303   9.854   5.227  1.2839  1.3585  2.5144
  436MOL0     H58841  13.058   9.821   5.254 -0.7025  0.1298  2.1857
  436MOL0     H58842  12.649   9.569   5.073  3.0433  1.0942  0.8861
  436MOL0     H58843  12.408   9.562   5.141 -2.4270  1.9217  1.3799
  436MOL0     H58844  11.162   9.267   5.852 -0.7962 -0.1281  3.7369
  436MOL0     H58845  10.967   9.408   5.799  0.6014 -1.4647  2.3030
  436MOL0     H58846  10.693   9.568   6.094 -1.3381  0.2833  0.3885
  436MOL0     H58847  10.476   9.560   6.082  0.7369 -0.2113  0.2512
  436MOL0     H58848  10.258   9.746   6.040 -0.4943  0.0597  0.5978
  436MOL0     H58849  10.260   9.568   6.060 -0.4583 -1.0908 -1.6253
  436MOL0     H58850  10.045   9.701   5.886  2.1798 -0.0934 -0.7511
  436MOL0     H58851  10.024   9.662   6.056 -0.2201 -0.6014 -1.0845
  436MOL0     H58852  10.056   9.437   6.017  0.4568  0.8379 -0.2791
  436MOL0     H58853  10.108   9.464   5.845 -1.7466  1.0899 -2.5267
  436MOL0     H58854   9.834   9.507   5.969 -0.0860 -0.4042  0.5275
  436MOL0     H58855   9.877   9.554   5.799  1.2878  0.9386  0.1041
  436MOL0     H58856   9.795   9.133   5.848 -0.6713  0.3212  2.0589
  436MOL0     H58857  10.459   9.730   5.689 -0.9293  0.6307  1.6238
  436MOL0     H58858  10.667   9.836   5.590  1.8474  1.2126 -0.4192
  436MOL0     H58859  10.797   9.854   5.693 -2.0276  1.3568 -0.8571
  436MOL0     H58860  10.786   9.703   5.600 -0.0586  2.0127 -1.5368
  437MOL0     O58861   0.386   6.813   7.247  0.1284 -0.7374 -0.2465
  437MOL0     C58862   0.357   6.709   7.304 -1.0187 -0.2239  0.1338
  437MOL0     O58863   0.438   6.595   7.312 -0.6891 -0.5546  0.4307
  437MOL0     C58864   0.562   6.588   7.252  0.1185 -0.1883 -1.0110
  437MOL0     C58865   0.576   6.579   7.113  0.2387  0.1297  0.5554
  437MOL0     C58866   0.708   6.563   7.059 -1.1032  0.7811 -0.7131
  437MOL0     C58867   0.821   6.557   7.138  0.1448 -0.6118 -0.4088
  437MOL0     O58868   0.936   6.534   7.070  0.2320  0.2336 -0.2013
  437MOL0     C58869   1.061   6.493   7.135  0.8689 -1.0899  0.1598
  437MOL0     C58870   1.134   6.625   7.170  0.1878  0.4176 -0.0334
  437MOL0     C58871   1.276   6.605   7.230  0.4821  0.1911  0.1545
  437MOL0     C58872   1.364   6.529   7.128  1.5918  0.7940  0.1414
  437MOL0     C58873   1.516   6.563   7.139 -0.5439 -0.5114 -0.6595
  437MOL0     C58874   1.614   6.467   7.060 -0.4526 -0.2385  0.3421
  437MOL0     C58875   1.767   6.491   7.085 -0.1013 -0.5230  0.0292
  437MOL0     C58876   1.815   6.627   7.025 -0.2070  0.4165  0.1405
  437MOL0     N58877   1.960   6.653   7.040 -0.0517 -0.5624  0.3097
  437MOL0     C58878   2.065   6.606   6.962  0.6952 -0.7360  0.2370
  437MOL0     C58879   2.185   6.639   7.027  0.0693  0.1511  0.4625
  437MOL0     C58880   2.318   6.617   6.965 -0.1571  0.3566 -0.0527
  437MOL0     C58881   2.435   6.653   7.062  1.3114 -0.0832  0.3616
  437MOL0     C58882   2.569   6.613   7.019  0.3499 -0.1242 -0.2745
  437MOL0     C58883   2.613   6.670   6.886  0.9593  0.2869  0.0407
  437MOL0     O58884   2.750   6.673   6.884  0.0578  0.5158  0.2096
  437MOL0     C58885   2.803   6.794   6.922 -0.2614 -0.1123  0.5407
  437MOL0     C58886   2.744   6.898   6.988 -0.3220 -0.5766  0.1524
  437MOL0     C58887   2.812   7.013   7.027  0.4736  0.1207  0.0960
  437MOL0     C58888   2.948   7.014   7.020 -0.2456 -0.2780 -0.3504
  437MOL0     C58889   3.029   7.135   7.057 -0.3993 -0.4391 -0.5528
  437MOL0     O58890   3.157   7.144   7.024  0.3571  0.2329  0.4095
  437MOL0     C58891   3.227   7.256   7.062 -0.0519  1.0152 -1.0498
  437MOL0     C58892   3.243   7.287   7.201  0.5987 -0.1344 -0.1124
  437MOL0     C58893   3.314   7.395   7.245  0.0345  0.1653 -0.2231
  437MOL0     C58894   3.376   7.481   7.158  0.1215 -0.3888  0.0827
  437MOL0     O58895   3.442   7.588   7.222  0.0121 -0.4212 -0.0913
  437MOL0     C58896   3.495   7.683   7.131  0.1150  0.2349  0.1114
  437MOL0     C58897   3.566   7.790   7.218 -0.8484 -0.0955  0.0109
  437MOL0     C58898   3.716   7.768   7.243  0.2088  0.1573  0.0784
  437MOL0     C58899   3.782   7.888   7.324 -0.1729 -0.1857  0.4173
  437MOL0     C58900   3.929   7.880   7.316 -0.6619 -1.6893 -0.0778
  437MOL0     C58901   3.971   7.991   7.414  0.2233  0.3955  0.2202
  437MOL0     C58902   4.120   7.993   7.434  0.1274 -0.5287 -0.2740
  437MOL0     C58903   4.162   8.116   7.531  0.2241  0.2639  0.3417
  437MOL0    Cl58904   4.085   8.084   7.694 -0.1373 -0.4527 -0.2032
  437MOL0     C58905   3.379   7.446   7.023  0.2227 -0.2240  0.3715
  437MOL0     C58906   3.309   7.326   6.973 -0.3052  0.5311  0.7381
  437MOL0     O58907   2.963   7.216   7.120  0.8609 -0.7051 -0.3941
  437MOL0     C58908   3.009   6.903   6.968 -0.2957  0.4113  0.1606
  437MOL0     C58909   2.940   6.793   6.914 -0.4887 -0.2043 -0.7473
  437MOL0     N58910   2.155   6.705   7.145  1.1284 -0.0827  0.0925
  437MOL0     N58911   2.018   6.711   7.151 -0.3673 -1.0571 -0.0153
  437MOL0     C58912   0.806   6.573   7.287  0.0725 -0.2355  0.0667
  437MOL0     C58913   0.675   6.575   7.337  0.0660  0.6340  0.8857
  437MOL0     C58914   0.233   6.687   7.376  0.0961  0.4714  0.7451
  437MOL0     C58915   0.237   6.606   7.497  0.4852  0.1224  0.2809
  437MOL0     C58916   0.123   6.599   7.582  0.1779  0.8301 -0.0569
  437MOL0     C58917  -0.005   6.642   7.535 -0.0485 -0.2724 -0.3056
  437MOL0     O58918  -0.108   6.618   7.620 -0.1499 -0.6289  0.1798
  437MOL0     C58919  -0.233   6.683   7.597  0.0290  0.7335 -0.2715
  437MOL0     C58920  -0.263   6.774   7.720  1.0333  0.6365 -0.6418
  437MOL0     C58921  -0.408   6.825   7.719 -0.0421 -1.1141 -0.4907
  437MOL0     C58922  -0.504   6.708   7.706  0.3499  0.4702 -0.0511
  437MOL0     C58923  -0.644   6.747   7.730 -0.0279 -0.2043  0.4403
  437MOL0     C58924  -0.760   6.767   7.762 -0.0089  0.6901  0.4105
  437MOL0     C58925  -0.010   6.706   7.413  1.6701 -0.6241 -0.2757
  437MOL0     C58926   0.107   6.739   7.341  0.8205 -1.2920  0.5379
  437MOL0     C58927   0.084   6.822   7.219 -0.1706 -0.6052  0.4171
  437MOL0     H58928   0.497   6.565   7.041  0.3412 -5.0730  1.1383
  437MOL0     H58929   0.723   6.531   6.957  0.1946 -2.7661  0.4608
  437MOL0     H58930   1.051   6.434   7.227  2.2595  0.8380  1.6371
  437MOL0     H58931   1.115   6.440   7.056 -2.9166 -1.2150 -2.5915
  437MOL0     H58932   1.072   6.676   7.244  0.9833  0.4748  0.6013
  437MOL0     H58933   1.138   6.686   7.079 -0.9541  2.2533  1.0844
  437MOL0     H58934   1.278   6.547   7.323 -2.5499  0.6203  0.5771
  437MOL0     H58935   1.319   6.702   7.258  0.9157 -0.4683  1.9347
  437MOL0     H58936   1.340   6.424   7.142 -2.2764  1.7586  2.3304
  437MOL0     H58937   1.338   6.561   7.027  1.9155  0.4165 -0.0619
  437MOL0     H58938   1.519   6.669   7.109 -0.3716  0.3661  2.2104
  437MOL0     H58939   1.543   6.562   7.244  2.0747  4.6356 -0.9808
  437MOL0     H58940   1.590   6.364   7.087  0.7204 -0.6620 -0.1887
  437MOL0     H58941   1.599   6.479   6.952  2.5849 -0.3003 -0.1736
  437MOL0     H58942   1.819   6.408   7.036 -1.5689 -0.1586 -2.3276
  437MOL0     H58943   1.789   6.490   7.192 -1.3060 -0.8957  0.2827
  437MOL0     H58944   1.790   6.639   6.920  2.7850 -2.5237 -1.1139
  437MOL0     H58945   1.772   6.709   7.083  1.0630  2.4291 -1.6367
  437MOL0     H58946   2.065   6.555   6.867  0.2437  0.0570 -0.2009
  437MOL0     H58947   2.315   6.510   6.946 -0.3420 -0.1723  2.5536
  437MOL0     H58948   2.320   6.665   6.867 -2.1107 -0.7806 -0.7024
  437MOL0     H58949   2.428   6.762   7.073 -0.2090  0.2205 -2.5796
  437MOL0     H58950   2.411   6.603   7.157  0.5166 -0.4055  0.0047
  437MOL0     H58951   2.578   6.504   7.016  0.9571 -0.0703 -2.7962
  437MOL0     H58952   2.632   6.657   7.096 -1.8337  0.5827  1.2136
  437MOL0     H58953   2.555   6.760   6.864  0.6235 -0.0681 -0.5635
  437MOL0     H58954   2.594   6.599   6.805  3.0941 -1.4807  0.9987
  437MOL0     H58955   2.635   6.904   6.993 -0.2790  2.0751 -0.4817
  437MOL0     H58956   2.757   7.097   7.068  0.4846 -1.0685  2.7641
  437MOL0     H58957   3.190   7.223   7.271 -1.8265 -0.7265 -2.3574
  437MOL0     H58958   3.335   7.399   7.351  0.8853 -0.5268 -0.3576
  437MOL0     H58959   3.576   7.642   7.070  0.8391 -0.9848  1.8184
  437MOL0     H58960   3.418   7.721   7.063 -1.6931 -2.5331  0.4436
  437MOL0     H58961   3.555   7.880   7.157  1.2031  1.5955  1.9784
  437MOL0     H58962   3.514   7.812   7.312  1.5053 -1.6191  1.7828
  437MOL0     H58963   3.728   7.687   7.316  0.9369  1.9488  2.0451
  437MOL0     H58964   3.768   7.741   7.151 -0.4299  0.5092 -0.3933
  437MOL0     H58965   3.747   7.886   7.427 -2.0149 -1.2673 -0.1758
  437MOL0     H58966   3.750   7.982   7.278  0.3202  1.0109  2.4122
  437MOL0     H58967   3.966   7.905   7.216 -0.2606  2.9797  1.0082
  437MOL0     H58968   3.966   7.784   7.356  2.6570 -0.9219 -0.9655
  437MOL0     H58969   3.945   8.093   7.384  2.8827  1.4690  1.3213
  437MOL0     H58970   3.913   7.973   7.505 -1.9052  0.0393 -1.1298
  437MOL0     H58971   4.162   7.995   7.333 -0.6894 -4.9713 -0.8771
  437MOL0     H58972   4.159   7.901   7.479  1.4754  0.2443  0.2175
  437MOL0     H58973   4.270   8.130   7.528  0.0095  1.9012 -0.6346
  437MOL0     H58974   4.130   8.212   7.490  2.9195  0.8516 -0.6271
  437MOL0     H58975   3.437   7.508   6.956 -0.2271  1.1917  1.2605
  437MOL0     H58976   3.319   7.296   6.869  2.7097 -0.5406  1.2242
  437MOL0     H58977   3.116   6.903   6.955 -0.3900  0.1721 -0.6854
  437MOL0     H58978   2.989   6.704   6.877  1.1348  1.2518 -2.2449
  437MOL0     H58979   0.888   6.570   7.357 -0.3047 -0.7455  0.4967
  437MOL0     H58980   0.656   6.574   7.444  1.6245 -1.2479  1.1960
  437MOL0     H58981   0.324   6.552   7.533  0.4059 -0.6353 -0.6412
  437MOL0     H58982   0.140   6.557   7.680  1.9876  0.9236 -0.2963
  437MOL0     H58983  -0.305   6.602   7.585  0.8678  0.1752 -1.8283
  437MOL0     H58984  -0.243   6.743   7.506  2.1882  0.8601 -0.4645
  437MOL0     H58985  -0.195   6.860   7.726  0.8718  0.6616  2.0361
  437MOL0     H58986  -0.249   6.726   7.817 -3.1247  0.5230  0.0609
  437MOL0     H58987  -0.412   6.894   7.634  2.1399  0.5918  0.7068
  437MOL0     H58988  -0.417   6.884   7.810 -0.7566 -2.3376  0.2659
  437MOL0     H58989  -0.508   6.657   7.610 -0.9277 -0.0235  0.2394
  437MOL0     H58990  -0.480   6.633   7.781  0.8488 -1.1295 -1.7460
  437MOL0     H58991  -0.860   6.789   7.795  0.3014  0.3063  1.6823
  437MOL0     H58992  -0.104   6.743   7.372  1.4490  1.0973  1.6552
  437MOL0     H58993   0.118   6.926   7.231 -2.5237  0.9268 -3.8212
  437MOL0     H58994   0.146   6.778   7.141 -0.1868 -0.8507  0.5407
  437MOL0     H58995  -0.015   6.811   7.174  0.8265 -3.9541 -1.2589
  438MOL0     O58996   3.227   3.933   2.474 -0.0645  1.1770 -0.4329
  438MOL0     C58997   3.170   3.837   2.535 -0.2788  0.4068 -0.2359
  438MOL0     O58998   3.224   3.707   2.550 -0.0023  0.1743 -0.0824
  438MOL0     C58999   3.358   3.682   2.506 -0.8231  0.4960  0.0523
  438MOL0     C59000   3.408   3.564   2.572  0.4803 -1.6223  0.0858
  438MOL0     C59001   3.532   3.524   2.539 -1.0520 -0.5690 -0.5117
  438MOL0     C59002   3.616   3.590   2.452 -0.3904  0.2569  0.1909
  438MOL0     O59003   3.741   3.543   2.428 -0.3825 -0.1370 -0.5435
  438MOL0     C59004   3.752   3.453   2.307 -1.0984 -0.4540 -0.9002
  438MOL0     C59005   3.871   3.370   2.306 -0.3599 -0.6656  0.7934
  438MOL0     C59006   3.989   3.469   2.285  0.4006  0.1509  0.8205
  438MOL0     C59007   4.128   3.402   2.306  0.0591  0.4555 -0.6528
  438MOL0     C59008   4.245   3.507   2.297  0.4747  0.6545  0.0932
  438MOL0     C59009   4.267   3.539   2.445 -0.1721 -0.2232 -0.1218
  438MOL0     C59010   4.372   3.647   2.460 -0.1432  0.5166 -0.3316
  438MOL0     C59011   4.393   3.693   2.605 -0.4132 -0.2687  0.1084
  438MOL0     N59012   4.468   3.817   2.611 -0.1274 -0.1026 -0.0242
  438MOL0     C59013   4.470   3.891   2.730 -0.8516 -0.4772  0.0727
  438MOL0     C59014   4.565   3.988   2.713 -0.0011 -0.7193 -0.9660
  438MOL0     C59015   4.595   4.099   2.815 -0.0939  0.1616 -0.7602
  438MOL0     C59016   4.605   4.231   2.737 -0.8331 -0.0830  0.7111
  438MOL0     C59017   4.639   4.343   2.831 -0.2585  0.0709  0.7740
  438MOL0     C59018   4.661   4.481   2.767 -0.0769  0.8283 -0.1512
  438MOL0     O59019   4.724   4.556   2.874  0.1143  0.3572  0.6174
  438MOL0     C59020   4.814   4.652   2.844  0.4116  0.1456 -0.2531
  438MOL0     C59021   4.834   4.708   2.710  0.3180  1.2392 -0.3954
  438MOL0     C59022   4.929   4.813   2.686  0.2559 -0.1989 -0.4536
  438MOL0     C59023   5.011   4.866   2.796  0.4679  0.5467 -0.7727
  438MOL0     C59024   5.118   4.976   2.777  0.5298 -0.3554 -0.3957
  438MOL0     O59025   5.200   5.007   2.879  0.4120  0.0568  0.1788
  438MOL0     C59026   5.282   5.110   2.850  0.0105  0.1320 -0.9060
  438MOL0     C59027   5.243   5.228   2.914  0.3862  0.3091  0.2975
  438MOL0     C59028   5.345   5.327   2.933  0.3750 -0.5453  1.1176
  438MOL0     C59029   5.470   5.313   2.869  0.4212  0.1671 -0.2802
  438MOL0     O59030   5.570   5.402   2.899  0.2392  0.5746  1.1022
  438MOL0     C59031   5.610   5.492   2.787 -0.4707  0.4812 -0.4149
  438MOL0     C59032   5.760   5.532   2.810  0.3437  0.6160 -0.2248
  438MOL0     C59033   5.802   5.637   2.715 -0.0517  0.8341 -0.8179
  438MOL0     C59034   5.772   5.778   2.775 -0.0264  0.6277  0.4998
  438MOL0     C59035   5.799   5.877   2.666  1.4059 -0.7283  0.5163
  438MOL0     C59036   5.781   6.027   2.720  1.1088  0.1118 -0.6178
  438MOL0     C59037   5.788   6.134   2.610  0.6034 -0.2101 -1.0377
  438MOL0     C59038   5.801   6.280   2.655 -0.0902 -0.3743 -0.5592
  438MOL0    Cl59039   5.655   6.332   2.748 -0.3548  0.0496 -0.1053
  438MOL0     C59040   5.496   5.202   2.793 -0.5479  0.9153 -0.0527
  438MOL0     C59041   5.403   5.092   2.787 -0.8631 -0.2146 -0.1086
  438MOL0     O59042   5.128   5.019   2.663 -1.0541 -0.1830 -0.4591
  438MOL0     C59043   4.993   4.803   2.924 -0.3458 -0.0370  0.3206
  438MOL0     C59044   4.902   4.694   2.945  1.0234 -0.5702 -0.3720
  438MOL0     N59045   4.618   3.970   2.586 -0.6490 -0.3713 -0.8656
  438MOL0     N59046   4.562   3.866   2.528 -0.3546 -0.2538  0.4470
  438MOL0     C59047   3.573   3.699   2.387  0.3682  0.0784 -0.5338
  438MOL0     C59048   3.436   3.735   2.397 -0.7613  0.2855 -0.6117
  438MOL0     C59049   3.036   3.860   2.594 -0.2615  0.5702  0.1463
  438MOL0     C59050   2.953   3.954   2.531 -0.0363 -0.7935 -0.0935
  438MOL0     C59051   2.823   3.985   2.573  0.2453  0.3381 -0.4790
  438MOL0     C59052   2.754   3.908   2.672 -0.5887 -0.4967 -0.2640
  438MOL0     O59053   2.629   3.932   2.722  0.2781  0.0799  0.8996
  438MOL0     C59054   2.537   4.009   2.644  0.3286 -1.1485 -0.5672
  438MOL0     C59055   2.489   3.928   2.524 -0.5161 -0.3062  0.8087
  438MOL0     C59056   2.388   3.813   2.550 -0.1920 -0.1026 -0.1787
  438MOL0     C59057   2.234   3.861   2.556 -0.2031  0.5164 -0.0155
  438MOL0     C59058   2.166   3.849   2.431  0.0599  0.2196 -0.2128
  438MOL0     C59059   2.105   3.845   2.325  0.5104 -0.0710 -0.0616
  438MOL0     C59060   2.832   3.811   2.731  0.2388 -0.0944  0.0705
  438MOL0     C59061   2.962   3.782   2.693 -0.5000  0.2518  0.3557
  438MOL0     C59062   3.038   3.667   2.776  0.1362 -0.1475 -0.0389
  438MOL0     H59063   3.341   3.509   2.638  1.3870 -0.4530  2.0853
  438MOL0     H59064   3.563   3.430   2.584 -1.1073 -0.0763  0.5846
  438MOL0     H59065   3.665   3.387   2.300  1.0868 -3.7457  0.5179
  438MOL0     H59066   3.746   3.505   2.211  0.3545  0.7401 -0.3709
  438MOL0     H59067   3.867   3.299   2.223 -0.7513  3.6951 -3.3347
  438MOL0     H59068   3.882   3.329   2.407  0.2874 -0.8950  0.6334
  438MOL0     H59069   3.989   3.537   2.371  0.6200 -1.0091  1.7691
  438MOL0     H59070   3.982   3.517   2.188 -1.7366  1.2981  1.4700
  438MOL0     H59071   4.120   3.346   2.400 -0.2727  0.0680 -0.9069
  438MOL0     H59072   4.145   3.332   2.223 -3.4069 -2.5692  0.9054
  438MOL0     H59073   4.337   3.456   2.266 -0.4012 -1.1086  0.2732
  438MOL0     H59074   4.223   3.592   2.231  1.6548 -0.0128 -1.1963
  438MOL0     H59075   4.176   3.570   2.498  1.4067  0.9002  2.0573
  438MOL0     H59076   4.309   3.452   2.496  0.5272  1.1325  1.7056
  438MOL0     H59077   4.354   3.734   2.395 -2.2419  2.4071  2.5161
  438MOL0     H59078   4.467   3.603   2.429  1.2123  2.3782  0.9412
  438MOL0     H59079   4.293   3.704   2.649 -0.2268  2.8070 -0.0570
  438MOL0     H59080   4.445   3.616   2.663 -0.7010 -2.4961 -2.3801
  438MOL0     H59081   4.420   3.874   2.824  3.5815  0.6807  2.9603
  438MOL0     H59082   4.534   4.111   2.905 -0.2265 -0.1943 -0.7997
  438MOL0     H59083   4.696   4.075   2.851  0.6596  0.0999 -2.8138
  438MOL0     H59084   4.678   4.224   2.656 -0.3849  0.2398  1.0850
  438MOL0     H59085   4.513   4.252   2.681  1.3054  0.3128 -3.0120
  438MOL0     H59086   4.731   4.318   2.884  1.1937 -0.6631 -1.8992
  438MOL0     H59087   4.560   4.355   2.905  0.1584  3.6287  0.7928
  438MOL0     H59088   4.566   4.527   2.737 -0.5292 -0.1896 -0.3028
  438MOL0     H59089   4.728   4.477   2.681  0.7590 -1.9834  0.5189
  438MOL0     H59090   4.766   4.671   2.633 -3.6110 -2.1287  4.1220
  438MOL0     H59091   4.942   4.856   2.587 -1.7571  1.5626 -0.0184
  438MOL0     H59092   5.143   5.230   2.956  0.6130  1.1805  0.8351
  438MOL0     H59093   5.315   5.424   2.971 -0.7650 -0.4723  0.1064
  438MOL0     H59094   5.600   5.444   2.689  1.5219  2.0082 -1.4611
  438MOL0     H59095   5.552   5.585   2.798 -2.2035 -0.6636  0.4513
  438MOL0     H59096   5.777   5.563   2.913  0.6185 -1.5588  0.4468
  438MOL0     H59097   5.829   5.446   2.808  0.2002  0.4904  0.1336
  438MOL0     H59098   5.907   5.626   2.687  0.3495  2.7655 -0.2184
  438MOL0     H59099   5.737   5.630   2.628 -1.6542 -1.0023  0.4452
  438MOL0     H59100   5.843   5.796   2.857  2.1465  1.5866 -1.4704
  438MOL0     H59101   5.671   5.778   2.816  0.1913 -1.9492  1.2356
  438MOL0     H59102   5.732   5.877   2.580 -1.6373  4.6369  2.4247
  438MOL0     H59103   5.901   5.865   2.628  0.8097 -0.6314 -1.1759
  438MOL0     H59104   5.684   6.045   2.767  1.5465  0.2579  0.2539
  438MOL0     H59105   5.860   6.054   2.791  0.3293  1.0999 -0.1047
  438MOL0     H59106   5.692   6.121   2.557  0.3318  1.0054 -0.8654
  438MOL0     H59107   5.868   6.117   2.537  3.1449 -2.4720  2.0313
  438MOL0     H59108   5.894   6.292   2.712  0.4308  1.4235 -1.7017
  438MOL0     H59109   5.802   6.349   2.570  0.5130 -1.1328 -1.1744
  438MOL0     H59110   5.597   5.191   2.754 -1.2377  0.7094 -1.9143
  438MOL0     H59111   5.433   5.001   2.736  1.8341  0.4619  0.1204
  438MOL0     H59112   5.045   4.838   3.011 -0.0979 -0.2501  0.2594
  438MOL0     H59113   4.899   4.665   3.049  1.8745  1.9535  0.4254
  438MOL0     H59114   3.639   3.747   2.316 -0.1991  0.5708 -0.7338
  438MOL0     H59115   3.391   3.808   2.330  2.0980  1.1623 -1.7428
  438MOL0     H59116   2.991   4.009   2.445 -0.5317 -0.8189 -0.3308
  438MOL0     H59117   2.771   4.066   2.523  0.7614  0.1958 -1.2620
  438MOL0     H59118   2.588   4.102   2.614  2.0429 -1.3108  1.5372
  438MOL0     H59119   2.455   4.038   2.710  2.4440  2.6864  0.7056
  438MOL0     H59120   2.569   3.888   2.462  0.3400 -2.0379  2.9214
  438MOL0     H59121   2.449   3.997   2.449  1.9609  0.7957  0.4002
  438MOL0     H59122   2.424   3.767   2.643 -1.3225  1.3037  1.0121
  438MOL0     H59123   2.391   3.733   2.476 -1.3195 -1.0223  0.7339
  438MOL0     H59124   2.188   3.799   2.634 -0.2022  1.7451  1.0021
  438MOL0     H59125   2.221   3.958   2.605 -0.9515  0.2679  0.2954
  438MOL0     H59126   2.043   3.863   2.239  0.2168  0.7528  0.3074
  438MOL0     H59127   2.784   3.749   2.807 -0.4343 -0.5856 -0.7312
  438MOL0     H59128   3.084   3.587   2.717  0.9267  0.2866 -0.0222
  438MOL0     H59129   3.121   3.710   2.833 -0.2245 -0.3624  0.6559
  438MOL0     H59130   2.967   3.614   2.840  0.2451  0.8685  0.9404
  439MOL0     O59131  10.686   7.391   5.684 -0.1714 -0.4675  0.1132
  439MOL0     C59132  10.718   7.431   5.571 -0.2577  0.2138  0.3371
  439MOL0     O59133  10.842   7.431   5.519 -0.2788  0.3302  0.9695
  439MOL0     C59134  10.949   7.416   5.605  0.1917  0.1729  1.2175
  439MOL0     C59135  10.981   7.520   5.684 -0.6401 -0.8155  0.4223
  439MOL0     C59136  11.105   7.522   5.749 -0.0093 -0.5161  0.0387
  439MOL0     C59137  11.192   7.416   5.767  0.3733  0.3100  0.6720
  439MOL0     O59138  11.298   7.431   5.853 -0.0547 -0.3443 -0.3344
  439MOL0     C59139  11.310   7.315   5.935 -0.8892  0.5787  0.4066
  439MOL0     C59140  11.455   7.289   5.984  0.2081  0.2127  0.6355
  439MOL0     C59141  11.549   7.266   5.865  0.3468 -0.8916  0.2688
  439MOL0     C59142  11.682   7.233   5.919 -0.7949  0.6883 -1.1416
  439MOL0     C59143  11.791   7.224   5.818 -0.3467 -0.1849  0.1116
  439MOL0     C59144  11.928   7.170   5.889  0.1672 -0.9243  0.7901
  439MOL0     C59145  12.044   7.204   5.798  0.3421 -0.8936  0.7530
  439MOL0     C59146  12.176   7.143   5.825 -0.0915  0.2529 -0.3882
  439MOL0     N59147  12.265   7.135   5.711 -0.1863 -0.7286 -0.4443
  439MOL0     C59148  12.312   7.257   5.649  1.0698 -0.4272 -0.7729
  439MOL0     C59149  12.423   7.215   5.580 -1.0649  0.0916 -0.3628
  439MOL0     C59150  12.500   7.317   5.496 -0.2527  0.2281 -0.0482
  439MOL0     C59151  12.566   7.429   5.585  0.0024 -0.2262 -1.1118
  439MOL0     C59152  12.655   7.521   5.497 -0.1824 -0.2709  0.1556
  439MOL0     C59153  12.775   7.445   5.445  0.0580  0.2213  0.4187
  439MOL0     O59154  12.892   7.533   5.438 -0.2105  0.5079  0.0578
  439MOL0     C59155  13.008   7.463   5.380 -0.0596 -0.4577  0.1168
  439MOL0     C59156  13.112   7.551   5.337 -0.3980  0.3613 -0.0505
  439MOL0     C59157  13.246   7.503   5.319 -0.1200  0.4446 -0.5941
  439MOL0     C59158  13.272   7.358   5.328  0.3600 -1.1976  0.2585
  439MOL0     C59159  13.402   7.309   5.305  0.0479  0.2957 -0.6530
  439MOL0     O59160  13.421   7.180   5.327 -0.5194 -0.0214  0.4679
  439MOL0     C59161  13.528   7.116   5.280  0.1431 -0.8933  0.0502
  439MOL0     C59162  13.519   7.001   5.205  0.2894  0.4405 -0.3496
  439MOL0     C59163  13.640   6.935   5.157 -0.0204  0.0866 -0.3942
  439MOL0     C59164  13.766   6.974   5.198 -0.3110 -0.3898  0.6823
  439MOL0     O59165  13.886   6.919   5.155 -0.0198  0.5974  0.2205
  439MOL0     C59166  13.885   6.771   5.138  0.6197  0.0511 -0.3040
  439MOL0     C59167  14.017   6.703   5.110 -0.5276 -0.2872  1.1230
  439MOL0     C59168  14.113   6.782   5.024 -0.0820 -0.9478 -0.4389
  439MOL0     C59169  14.245   6.712   5.029  0.6993 -0.1255 -0.2487
  439MOL0     C59170  14.338   6.760   4.926  0.1853 -1.1302 -0.5794
  439MOL0     C59171  14.467   6.671   4.930  0.7603 -0.3479  0.8411
  439MOL0     C59172  14.576   6.705   4.826  0.7385 -0.5045 -0.4034
  439MOL0     C59173  14.701   6.621   4.836  0.1992  0.5679  0.0301
  439MOL0    Cl59174  14.810   6.689   4.970  0.3821 -0.0355 -0.1578
  439MOL0     C59175  13.775   7.098   5.261 -0.0331 -0.7835 -0.9146
  439MOL0     C59176  13.660   7.153   5.317 -0.0643  0.1060  0.2907
  439MOL0     O59177  13.485   7.391   5.266 -0.4965 -0.6198 -0.0650
  439MOL0     C59178  13.165   7.275   5.350  0.4641 -0.0840  0.2713
  439MOL0     C59179  13.033   7.326   5.383  0.4280 -0.0538 -0.2742
  439MOL0     N59180  12.462   7.090   5.626  0.2201 -0.2981 -0.3475
  439MOL0     N59181  12.367   7.048   5.706 -0.3280  0.2219  0.2973
  439MOL0     C59182  11.160   7.315   5.670  0.6208 -0.1183  0.3730
  439MOL0     C59183  11.041   7.317   5.591 -0.2902 -0.2044 -0.7836
  439MOL0     C59184  10.604   7.455   5.481 -0.0299  0.4052 -0.8516
  439MOL0     C59185  10.637   7.496   5.349 -0.2709  0.7725 -0.0010
  439MOL0     C59186  10.543   7.523   5.251  1.2270  0.2249 -0.4098
  439MOL0     C59187  10.409   7.502   5.285  0.2074  0.0617 -0.1445
  439MOL0     O59188  10.303   7.517   5.198  0.4653 -0.1102 -0.2081
  439MOL0     C59189  10.338   7.595   5.082  0.7328  0.2949  0.4353
  439MOL0     C59190  10.212   7.606   4.993  0.3190 -0.5790  0.9655
  439MOL0     C59191  10.111   7.699   5.063  0.5692 -0.3825  0.7748
  439MOL0     C59192   9.985   7.697   4.983  1.2574 -0.5271  0.7717
  439MOL0     C59193   9.881   7.769   5.048  0.6792  0.7502  0.3708
  439MOL0     C59194   9.786   7.820   5.108 -0.2294 -0.0753 -0.3538
  439MOL0     C59195  10.375   7.464   5.414 -0.0887 -0.9139 -0.2667
  439MOL0     C59196  10.465   7.439   5.512  0.1783  0.1638 -0.4889
  439MOL0     C59197  10.400   7.422   5.645 -0.4587 -0.1867  0.9924
  439MOL0     H59198  10.936   7.619   5.689  4.7748  2.0512  0.1901
  439MOL0     H59199  11.128   7.620   5.789  2.3397 -0.9078 -0.2355
  439MOL0     H59200  11.260   7.345   6.027  1.1541  4.3522  0.4741
  439MOL0     H59201  11.279   7.221   5.888  0.8479  0.2302 -0.1247
  439MOL0     H59202  11.447   7.204   6.052  1.6148  0.4903  1.1723
  439MOL0     H59203  11.494   7.373   6.043  0.5639 -0.3526  1.2098
  439MOL0     H59204  11.557   7.358   5.806  3.1732  0.9415  3.1835
  439MOL0     H59205  11.510   7.184   5.802 -0.2336 -1.1752  0.9793
  439MOL0     H59206  11.719   7.308   5.990  1.9877 -1.2154 -0.4109
  439MOL0     H59207  11.670   7.133   5.960  1.5899  1.0256  0.6097
  439MOL0     H59208  11.756   7.145   5.750  0.6494 -1.3813  0.9410
  439MOL0     H59209  11.807   7.322   5.774 -0.7311  0.2025  0.8243
  439MOL0     H59210  11.938   7.207   5.991 -0.2887 -1.5987  1.0866
  439MOL0     H59211  11.922   7.061   5.902  0.3417 -0.6806  3.5338
  439MOL0     H59212  12.060   7.312   5.788  0.0053 -0.9897 -1.1720
  439MOL0     H59213  12.023   7.165   5.698  2.8539  0.0973 -0.2602
  439MOL0     H59214  12.226   7.195   5.907  1.5265 -5.0307  2.4657
  439MOL0     H59215  12.153   7.045   5.867  1.0097  0.0903 -0.1310
  439MOL0     H59216  12.272   7.356   5.664  2.5736 -0.2712  3.2754
  439MOL0     H59217  12.584   7.260   5.455 -2.2063 -2.1879 -0.9441
  439MOL0     H59218  12.459   7.353   5.401  3.2271 -1.4526 -2.4165
  439MOL0     H59219  12.490   7.489   5.635 -1.0356  0.6565 -3.5786
  439MOL0     H59220  12.630   7.370   5.651  0.2610 -0.0124 -1.1716
  439MOL0     H59221  12.682   7.609   5.557  1.7966  0.0786 -1.1459
  439MOL0     H59222  12.603   7.549   5.405  0.0059 -1.9709 -0.4914
  439MOL0     H59223  12.744   7.409   5.347  0.9863 -2.9008  1.1641
  439MOL0     H59224  12.797   7.359   5.509  2.4112  2.0463  2.2836
  439MOL0     H59225  13.100   7.659   5.335  3.7021  1.0152  0.7637
  439MOL0     H59226  13.327   7.573   5.301 -0.8049  1.5453  0.4885
  439MOL0     H59227  13.422   6.969   5.166 -0.4030  2.0331 -0.0009
  439MOL0     H59228  13.624   6.844   5.101  1.3093 -0.8035  0.6098
  439MOL0     H59229  13.847   6.733   5.234 -0.7931  0.2571 -0.7520
  439MOL0     H59230  13.810   6.741   5.064  0.6013 -0.6367 -0.0107
  439MOL0     H59231  14.064   6.668   5.203 -1.5676  2.6732  2.9162
  439MOL0     H59232  13.987   6.619   5.046  2.3756  0.2504 -1.1679
  439MOL0     H59233  14.080   6.812   4.924 -1.1696 -0.6071  0.0098
  439MOL0     H59234  14.131   6.875   5.079 -0.6269 -1.3748  0.4859
  439MOL0     H59235  14.226   6.604   5.029 -2.7808  0.3321  1.8496
  439MOL0     H59236  14.293   6.717   5.127 -0.2091 -0.1473  0.2083
  439MOL0     H59237  14.356   6.867   4.940  0.0696 -0.6654 -3.3041
  439MOL0     H59238  14.295   6.744   4.826 -0.3626 -4.4457  0.0764
  439MOL0     H59239  14.514   6.689   5.027 -0.2608 -0.2197  1.3215
  439MOL0     H59240  14.438   6.569   4.905 -1.4687  0.6567 -1.0499
  439MOL0     H59241  14.593   6.812   4.815  2.5550 -0.7700 -0.4576
  439MOL0     H59242  14.524   6.687   4.731 -2.4059 -0.2306  1.1115
  439MOL0     H59243  14.669   6.519   4.860  1.5875 -0.9074 -3.7314
  439MOL0     H59244  14.748   6.616   4.737 -3.4079  1.6945 -1.9049
  439MOL0     H59245  13.874   7.136   5.286 -0.7169 -0.2527  1.2902
  439MOL0     H59246  13.675   7.234   5.387  0.1024  1.9429 -1.7518
  439MOL0     H59247  13.178   7.167   5.354  2.1392  0.1215  1.6451
  439MOL0     H59248  12.960   7.249   5.407 -1.1810  0.8904 -1.8548
  439MOL0     H59249  11.224   7.228   5.655  0.3335 -0.2374 -0.1728
  439MOL0     H59250  11.024   7.229   5.529  0.5869 -0.2818 -0.9241
  439MOL0     H59251  10.743   7.493   5.326 -0.4637 -0.1772 -0.8298
  439MOL0     H59252  10.579   7.538   5.149  2.6136  3.3445  0.4082
  439MOL0     H59253  10.413   7.538   5.026  1.1702  1.6595 -0.4296
  439MOL0     H59254  10.377   7.692   5.116  0.4896  0.5254  0.0660
  439MOL0     H59255  10.184   7.503   4.970 -2.1540  0.5066 -1.6474
  439MOL0     H59256  10.240   7.647   4.895 -2.1024 -0.7244  0.1316
  439MOL0     H59257  10.154   7.798   5.048  0.8261 -0.7439 -1.0582
  439MOL0     H59258  10.094   7.683   5.170 -1.7867 -2.1479  0.2439
  439MOL0     H59259  10.009   7.743   4.887  0.5305 -0.1338  0.7662
  439MOL0     H59260   9.946   7.595   4.971 -0.5824  0.3997 -2.4638
  439MOL0     H59261   9.714   7.869   5.171  0.6373  0.5120  0.2117
  439MOL0     H59262  10.271   7.482   5.437 -0.0207  1.7602 -1.5828
  439MOL0     H59263  10.443   7.497   5.711  0.0330  0.2363  0.1940
  439MOL0     H59264  10.292   7.440   5.636 -0.2594  1.6186  1.7705
  439MOL0     H59265  10.427   7.320   5.677  1.4854 -0.8097 -2.2601
  440MOL0     O59266   6.685   7.967  10.252 -0.0518  0.5721  0.3326
  440MOL0     C59267   6.736   8.078  10.271  1.0374  0.1205 -0.4900
  440MOL0     O59268   6.672   8.195  10.245 -0.3492  0.0147  0.3626
  440MOL0     C59269   6.540   8.184  10.213  0.6190 -0.5727 -0.4707
  440MOL0     C59270   6.498   8.199  10.078  0.2536  0.3378 -0.5247
  440MOL0     C59271   6.362   8.185  10.041 -0.6369 -0.1196 -0.0180
  440MOL0     C59272   6.271   8.152  10.142 -0.5653  0.7287  0.2236
  440MOL0     O59273   6.136   8.161  10.105  0.1413 -0.0487  0.1874
  440MOL0     C59274   6.095   8.053  10.021 -0.3031  0.5159  0.6316
  440MOL0     C59275   5.947   8.059   9.973 -0.6191 -0.6488 -0.2629
  440MOL0     C59276   5.921   7.960   9.860 -0.0938  0.3866  0.4969
  440MOL0     C59277   5.767   7.960   9.835 -1.4102  0.1173  0.0310
  440MOL0     C59278   5.714   7.861   9.726  0.4297  0.1826  0.0734
  440MOL0     C59279   5.748   7.712   9.753 -0.4502  0.3181 -0.3011
  440MOL0     C59280   5.713   7.618   9.632  0.0613  0.3122 -0.0893
  440MOL0     C59281   5.727   7.476   9.685  0.1711 -0.1336 -0.6504
  440MOL0     N59282   5.714   7.372   9.587  0.5720 -0.0024 -0.5801
  440MOL0     C59283   5.589   7.313   9.558 -0.4208  0.3546  0.2353
  440MOL0     C59284   5.618   7.213   9.483 -0.7706 -0.3193  0.7378
  440MOL0     C59285   5.525   7.132   9.397  0.6738  0.5602 -0.9997
  440MOL0     C59286   5.539   7.153   9.242  0.5029 -0.0094  0.0917
  440MOL0     C59287   5.489   7.034   9.154 -0.1682 -0.0900  0.1636
  440MOL0     C59288   5.336   7.022   9.165 -0.0969  0.0276 -0.5266
  440MOL0     O59289   5.267   7.141   9.128  0.1812 -0.2724 -0.4656
  440MOL0     C59290   5.133   7.128   9.119 -0.7364 -0.6841  0.4277
  440MOL0     C59291   5.052   7.177   9.218  0.6222 -0.8302 -0.3288
  440MOL0     C59292   4.913   7.164   9.214  0.0370 -0.2924 -0.0160
  440MOL0     C59293   4.850   7.094   9.109  0.1494  0.1612 -0.2053
  440MOL0     C59294   4.705   7.081   9.115  0.4327  0.3928  0.7507
  440MOL0     O59295   4.639   7.037   9.001 -0.1375  0.3841  0.0574
  440MOL0     C59296   4.502   7.035   8.996 -0.0083 -0.0284 -0.4888
  440MOL0     C59297   4.455   6.907   9.011 -0.1881  0.0259  0.3462
  440MOL0     C59298   4.312   6.890   9.009 -0.4599  0.4702 -0.3895
  440MOL0     C59299   4.221   6.993   8.990 -0.1111 -0.2702  0.7825
  440MOL0     O59300   4.083   6.976   9.008  0.2215  0.4898 -0.5296
  440MOL0     C59301   4.034   6.841   9.017 -0.0644  0.1156  0.5506
  440MOL0     C59302   3.877   6.841   9.053 -0.5035  1.0575  0.1860
  440MOL0     C59303   3.873   6.872   9.200 -0.2107  1.2612 -0.0530
  440MOL0     C59304   3.722   6.861   9.243  0.1757  0.1083 -0.1154
  440MOL0     C59305   3.705   6.936   9.377 -0.3815  0.1131  0.0550
  440MOL0     C59306   3.569   6.931   9.432  0.5898 -0.3437 -0.3003
  440MOL0     C59307   3.548   6.799   9.507  0.0398 -0.6661  0.0237
  440MOL0     C59308   3.402   6.787   9.557  0.2901  0.3474 -0.8923
  440MOL0    Cl59309   3.384   6.623   9.602 -0.2266 -0.5660 -0.2173
  440MOL0     C59310   4.288   7.122   8.974  0.3639 -0.2887 -0.0104
  440MOL0     C59311   4.416   7.150   8.970  0.1184  0.2498  0.1800
  440MOL0     O59312   4.648   7.108   9.219 -0.1448  0.3655  0.9581
  440MOL0     C59313   4.923   7.046   9.005 -0.1856  0.9924 -0.8243
  440MOL0     C59314   5.067   7.061   9.011  0.6975 -0.8897  0.8213
  440MOL0     N59315   5.754   7.200   9.476 -0.5246 -0.4088  0.7269
  440MOL0     N59316   5.812   7.295   9.536 -0.0128  0.3202 -0.4327
  440MOL0     C59317   6.309   8.132  10.274  0.2140  0.0029 -0.0876
  440MOL0     C59318   6.445   8.144  10.311 -0.8719 -0.0576  0.5864
  440MOL0     C59319   6.854   8.099  10.339 -0.6971  0.1756  0.1411
  440MOL0     C59320   6.884   7.999  10.432 -0.7629  0.1681  0.5409
  440MOL0     C59321   7.002   8.000  10.504 -1.0897 -1.0546 -0.5455
  440MOL0     C59322   7.094   8.114  10.501  1.2209 -1.1560 -0.7008
  440MOL0     O59323   7.208   8.133  10.574  0.0146  0.0069 -0.1877
  440MOL0     C59324   7.220   8.077  10.699  0.0151  1.1236  0.2212
  440MOL0     C59325   7.329   8.148  10.786  0.2900  0.2835  0.6851
  440MOL0     C59326   7.440   8.208  10.697  0.2460 -0.3360  0.2768
  440MOL0     C59327   7.546   8.270  10.783  0.4205 -0.4674 -0.4178
  440MOL0     C59328   7.648   8.334  10.708 -0.4160 -0.2764 -0.1067
  440MOL0     C59329   7.743   8.392  10.649  0.3687 -0.2763  0.1213
  440MOL0     C59330   7.070   8.204  10.396 -0.2507 -0.9614  0.6323
  440MOL0     C59331   6.952   8.199  10.315  0.2315  0.9220 -0.0280
  440MOL0     C59332   6.926   8.300  10.210 -0.4671  0.7854 -0.0557
  440MOL0     H59333   6.566   8.227   9.998 -1.2612 -1.8667 -2.7260
  440MOL0     H59334   6.319   8.208   9.944 -2.3865  0.9106  0.9502
  440MOL0     H59335   6.160   8.040   9.934 -0.2583 -0.6541  0.8239
  440MOL0     H59336   6.096   7.958  10.075  3.1619 -2.2946 -3.6485
  440MOL0     H59337   5.937   8.157   9.927 -1.0291 -0.9816 -0.9048
  440MOL0     H59338   5.881   8.054  10.060  0.8964 -0.0809  0.9553
  440MOL0     H59339   5.953   7.861   9.893 -1.3136 -0.5424 -0.9759
  440MOL0     H59340   5.975   7.984   9.768 -2.4945  2.2189 -0.5512
  440MOL0     H59341   5.714   7.924   9.924  1.5524 -1.7732  1.1827
  440MOL0     H59342   5.742   8.063   9.807 -2.0421 -0.0244  0.0570
  440MOL0     H59343   5.606   7.878   9.725  0.6874  2.5160 -2.7875
  440MOL0     H59344   5.758   7.892   9.631 -2.2214 -0.1664 -1.3502
  440MOL0     H59345   5.857   7.704   9.766  0.0769  0.5083 -3.5603
  440MOL0     H59346   5.696   7.681   9.843  0.8109 -0.4759  0.1867
  440MOL0     H59347   5.786   7.644   9.556  0.3939 -0.2371  0.0405
  440MOL0     H59348   5.609   7.639   9.604  0.2316  1.5770  0.1779
  440MOL0     H59349   5.824   7.464   9.733  1.1688 -4.1498 -3.2078
  440MOL0     H59350   5.650   7.462   9.762  1.1081  1.8922  0.7268
  440MOL0     H59351   5.488   7.339   9.590  0.0163 -2.1124  4.4367
  440MOL0     H59352   5.552   7.029   9.419  0.1700  0.8551  1.2838
  440MOL0     H59353   5.419   7.137   9.424  0.9070 -2.6790  1.0413
  440MOL0     H59354   5.493   7.246   9.206 -2.6119 -1.1298  0.8495
  440MOL0     H59355   5.645   7.145   9.218 -0.3341 -2.8087 -3.6011
  440MOL0     H59356   5.539   6.942   9.186 -3.1694 -1.7468  0.4906
  440MOL0     H59357   5.531   7.044   9.053  0.3230  0.5787  0.4258
  440MOL0     H59358   5.313   6.997   9.269 -1.4673  3.1588  0.0469
  440MOL0     H59359   5.293   6.944   9.102 -1.3803  0.4075 -0.1541
  440MOL0     H59360   5.100   7.209   9.310  1.6232  0.6030 -1.3003
  440MOL0     H59361   4.847   7.206   9.289  1.5806  0.7730  0.7960
  440MOL0     H59362   4.523   6.823   9.016 -1.1745 -1.0608 -2.6480
  440MOL0     H59363   4.281   6.786   9.022  0.3246 -0.1203 -2.6747
  440MOL0     H59364   4.033   6.794   8.918 -1.4447 -0.7855  0.9686
  440MOL0     H59365   4.089   6.779   9.089 -0.3050 -0.6409  0.1014
  440MOL0     H59366   3.823   6.912   8.990  0.5749  0.7836 -1.0863
  440MOL0     H59367   3.836   6.742   9.030 -1.3312  0.9803  1.8065
  440MOL0     H59368   3.919   6.791   9.257 -1.1902  0.7941  0.0890
  440MOL0     H59369   3.929   6.962   9.227  1.6934 -0.1188  0.8400
  440MOL0     H59370   3.705   6.756   9.267 -1.4164  0.6793  1.4631
  440MOL0     H59371   3.653   6.892   9.164  0.7817  1.8311 -0.0212
  440MOL0     H59372   3.729   7.038   9.347  2.9994 -0.7913 -0.7208
  440MOL0     H59373   3.779   6.894   9.446  0.6528  0.1556 -1.0098
  440MOL0     H59374   3.550   7.023   9.488 -0.0705  2.2380 -4.3621
  440MOL0     H59375   3.508   6.935   9.341  1.3039  3.2345 -0.7318
  440MOL0     H59376   3.609   6.796   9.599  0.0269  1.5225  0.1590
  440MOL0     H59377   3.559   6.716   9.438 -0.3533  0.0815 -0.9532
  440MOL0     H59378   3.389   6.854   9.642  2.6199 -0.1208 -0.0891
  440MOL0     H59379   3.329   6.808   9.478 -1.2945 -0.5906  0.2521
  440MOL0     H59380   4.226   7.211   8.971  0.0311 -0.5185 -0.1467
  440MOL0     H59381   4.452   7.252   8.956 -0.9992  0.6924  0.4123
  440MOL0     H59382   4.869   6.997   8.924 -0.1755 -0.9261  0.2841
  440MOL0     H59383   5.132   7.028   8.930 -0.1979  0.2969 -0.4330
  440MOL0     H59384   6.237   8.121  10.354  0.4740 -2.7541 -0.1296
  440MOL0     H59385   6.491   8.131  10.409  0.8073 -0.5398 -0.2385
  440MOL0     H59386   6.818   7.914  10.442  1.4882 -1.8253 -0.6072
  440MOL0     H59387   7.023   7.916  10.569  0.0511 -1.7574 -1.7736
  440MOL0     H59388   7.243   7.970  10.694  1.9964  1.4312  1.5981
  440MOL0     H59389   7.124   8.078  10.752  0.1564  1.9228  0.4631
  440MOL0     H59390   7.377   8.079  10.856  0.1082 -1.9422 -1.2909
  440MOL0     H59391   7.284   8.230  10.843  0.6673 -0.1144  1.5809
  440MOL0     H59392   7.394   8.286  10.635  0.5049  0.3020  0.8722
  440MOL0     H59393   7.480   8.132  10.629 -1.4444  0.2427 -1.4616
  440MOL0     H59394   7.515   8.349  10.853  1.2267  2.5956 -3.2307
  440MOL0     H59395   7.592   8.183  10.830  1.4011 -0.1829 -0.8338
  440MOL0     H59396   7.816   8.448  10.594 -1.5849  1.3842 -0.8987
  440MOL0     H59397   7.150   8.266  10.358 -1.0041 -0.7949 -0.7225
  440MOL0     H59398   7.020   8.357  10.200  0.2565 -0.4534 -0.5125
  440MOL0     H59399   6.898   8.251  10.116 -0.6289 -0.3167  0.5605
  440MOL0     H59400   6.846   8.364  10.248 -0.8780 -0.8409  1.9679
  441MOL0     O59401   8.312   0.838   6.629 -0.3283 -0.6542 -0.1548
  441MOL0     C59402   8.234   0.740   6.617  0.0656 -1.2486  0.1385
  441MOL0     O59403   8.253   0.616   6.679  0.5161 -1.3799 -0.5045
  441MOL0     C59404   8.360   0.598   6.758 -0.4418 -0.5884 -0.1721
  441MOL0     C59405   8.351   0.537   6.886  0.6527 -0.7787  0.0016
  441MOL0     C59406   8.467   0.503   6.961  0.1691  0.4294 -0.0298
  441MOL0     C59407   8.595   0.527   6.908 -0.0957 -0.2420 -0.1270
  441MOL0     O59408   8.707   0.496   6.982  0.4799 -0.1740 -0.0923
  441MOL0     C59409   8.832   0.455   6.922  0.5726  0.4223 -0.5188
  441MOL0     C59410   8.945   0.486   7.021  0.0537 -0.0974 -0.3202
  441MOL0     C59411   9.076   0.408   6.973  0.7566 -0.0651  0.2253
  441MOL0     C59412   9.173   0.431   7.084 -0.0744 -0.0060 -0.9847
  441MOL0     C59413   9.291   0.338   7.070 -0.4225  0.0877  0.0156
  441MOL0     C59414   9.368   0.345   6.936  0.4720 -0.3207 -0.7113
  441MOL0     C59415   9.489   0.248   6.940  1.1721 -0.1273  0.1107
  441MOL0     C59416   9.597   0.265   7.049 -1.0735  0.3887  0.0778
  441MOL0     N59417   9.623   0.407   7.068 -0.0137  1.0242 -0.6656
  441MOL0     C59418   9.684   0.489   6.968  1.0046  0.3779  0.6696
  441MOL0     C59419   9.706   0.608   7.037  0.7492 -0.5142 -0.1414
  441MOL0     C59420   9.775   0.729   6.983  0.0913  0.0129  0.3810
  441MOL0     C59421   9.902   0.701   6.908 -0.5868  0.1148  0.1245
  441MOL0     C59422   9.973   0.828   6.863  0.8126  0.1250 -0.3265
  441MOL0     C59423  10.118   0.809   6.822 -0.2092 -0.1140  0.0459
  441MOL0     O59424  10.182   0.933   6.824 -1.1419 -0.1686 -0.1737
  441MOL0     C59425  10.306   0.944   6.760 -0.0368  0.3974  0.0817
  441MOL0     C59426  10.358   1.069   6.756 -0.6783 -0.4423 -0.0907
  441MOL0     C59427  10.494   1.091   6.708 -0.3849  0.4669  0.2800
  441MOL0     C59428  10.568   0.980   6.665 -0.4385  0.4437  0.2042
  441MOL0     C59429  10.708   0.991   6.609  0.8641  0.8592 -0.2234
  441MOL0     O59430  10.732   1.112   6.566 -0.2901  0.7808 -0.2173
  441MOL0     C59431  10.831   1.146   6.481 -0.2307  0.5100 -0.2610
  441MOL0     C59432  10.814   1.258   6.404  0.7210  0.0143  1.0686
  441MOL0     C59433  10.914   1.314   6.315  0.3041 -0.3553 -0.2553
  441MOL0     C59434  11.038   1.254   6.317  0.7979 -0.0025  1.2628
  441MOL0     O59435  11.146   1.304   6.252 -0.5894 -0.6167 -0.3706
  441MOL0     C59436  11.167   1.444   6.265  0.0416  0.8788  0.2326
  441MOL0     C59437  11.322   1.470   6.272 -0.7304 -0.1165  0.4988
  441MOL0     C59438  11.389   1.492   6.136 -0.7171  0.4571  0.0102
  441MOL0     C59439  11.531   1.542   6.146  0.1270  0.2167  0.1472
  441MOL0     C59440  11.633   1.467   6.068 -0.2554  0.2123 -0.4261
  441MOL0     C59441  11.685   1.342   6.144  0.3695 -0.0663 -0.6234
  441MOL0     C59442  11.815   1.286   6.080  0.3383 -0.2613 -0.4736
  441MOL0     C59443  11.783   1.237   5.934 -1.0681  0.5667  0.4649
  441MOL0    Cl59444  11.934   1.185   5.854 -0.1426 -0.0224 -0.3626
  441MOL0     C59445  11.058   1.136   6.398  0.3591  0.0481 -0.6892
  441MOL0     C59446  10.954   1.082   6.477  0.1029 -0.9957 -1.1083
  441MOL0     O59447  10.777   0.895   6.597  0.2190  0.3195  0.3411
  441MOL0     C59448  10.514   0.848   6.674  1.2677 -1.0961 -0.2964
  441MOL0     C59449  10.384   0.831   6.726  0.4746 -0.2591  0.5979
  441MOL0     N59450   9.643   0.597   7.161  0.4783  0.5884  0.2067
  441MOL0     N59451   9.589   0.477   7.172 -0.8864  0.3044 -0.6616
  441MOL0     C59452   8.599   0.590   6.783  0.3528  0.2731 -0.4316
  441MOL0     C59453   8.485   0.615   6.707 -0.5889  0.1067 -1.2195
  441MOL0     C59454   8.100   0.761   6.557 -0.1521 -0.5617 -0.5572
  441MOL0     C59455   8.054   0.658   6.479  0.1608 -0.8130 -0.2698
  441MOL0     C59456   7.918   0.653   6.438  0.2597 -0.7125  0.1016
  441MOL0     C59457   7.838   0.767   6.446  0.9245  0.7186 -0.2802
  441MOL0     O59458   7.719   0.753   6.385 -0.1686  0.2040 -0.2508
  441MOL0     C59459   7.607   0.840   6.391 -0.0031 -0.5520 -0.7280
  441MOL0     C59460   7.507   0.777   6.303 -0.0882 -0.0420  1.0436
  441MOL0     C59461   7.457   0.660   6.382 -0.0883  0.4619 -0.0843
  441MOL0     C59462   7.335   0.591   6.307 -0.5033 -0.9973  0.0643
  441MOL0     C59463   7.210   0.671   6.290 -0.7420  0.0664  0.3449
  441MOL0     C59464   7.103   0.724   6.271  0.3973 -0.4974  0.7058
  441MOL0     C59465   7.890   0.881   6.507  0.7681 -0.2629 -0.3784
  441MOL0     C59466   8.017   0.882   6.576 -0.6350 -0.1467  0.9351
  441MOL0     C59467   8.072   1.000   6.641  0.3923  0.4861 -0.1229
  441MOL0     H59468   8.252   0.521   6.927 -0.6299  5.5297  0.3969
  441MOL0     H59469   8.467   0.431   7.042  0.5569  1.7695  1.2140
  441MOL0     H59470   8.836   0.348   6.901 -2.4702 -0.5094  2.7278
  441MOL0     H59471   8.846   0.506   6.827  2.2856 -3.0111 -2.2990
  441MOL0     H59472   8.923   0.460   7.125  2.3657 -0.9721  0.0285
  441MOL0     H59473   8.956   0.595   7.020  2.7364 -0.2305  1.9928
  441MOL0     H59474   9.097   0.455   6.877 -0.7063 -0.4831 -0.3342
  441MOL0     H59475   9.049   0.303   6.961 -0.8405  0.6393 -4.5873
  441MOL0     H59476   9.196   0.537   7.078 -1.8596  0.4045 -0.9818
  441MOL0     H59477   9.123   0.410   7.179 -1.4311 -1.0065 -1.8854
  441MOL0     H59478   9.359   0.353   7.155 -3.1772 -0.5725  2.4822
  441MOL0     H59479   9.252   0.236   7.073  1.8666 -0.8558  0.1174
  441MOL0     H59480   9.306   0.322   6.850  0.2050  0.7465 -0.8226
  441MOL0     H59481   9.385   0.452   6.923  2.2451 -0.5305 -0.3508
  441MOL0     H59482   9.549   0.260   6.849  2.0047  2.2351  0.9007
  441MOL0     H59483   9.440   0.151   6.955 -4.6014  2.4057  0.3848
  441MOL0     H59484   9.569   0.233   7.151 -1.0924  1.3933  0.3969
  441MOL0     H59485   9.683   0.210   7.010 -0.9658  1.3254 -1.0359
  441MOL0     H59486   9.724   0.471   6.869 -1.6084  1.7391 -0.7256
  441MOL0     H59487   9.706   0.782   6.917  1.4128  1.8691  0.3991
  441MOL0     H59488   9.798   0.804   7.059  2.1640 -0.5401  0.3670
  441MOL0     H59489   9.967   0.657   6.984  0.1640  0.7209 -0.1475
  441MOL0     H59490   9.886   0.629   6.827 -3.4230  0.6439  0.1375
  441MOL0     H59491   9.965   0.885   6.957  0.5610 -3.8518  2.3061
  441MOL0     H59492   9.916   0.867   6.779 -1.3726  0.0775  1.0650
  441MOL0     H59493  10.124   0.761   6.724 -0.6493  1.6994 -0.9175
  441MOL0     H59494  10.163   0.746   6.900 -1.9148 -0.2466  0.9706
  441MOL0     H59495  10.298   1.151   6.794 -0.4490 -1.0665  1.7354
  441MOL0     H59496  10.534   1.192   6.702  0.4500  0.3746  2.9196
  441MOL0     H59497  10.715   1.302   6.412  1.2022  1.0314  1.6547
  441MOL0     H59498  10.889   1.391   6.243 -0.4927 -1.6117 -1.3597
  441MOL0     H59499  11.113   1.492   6.183  0.7488 -1.5613 -1.8291
  441MOL0     H59500  11.129   1.483   6.360 -1.7984  3.1873 -1.3449
  441MOL0     H59501  11.334   1.557   6.337  0.1478 -0.0837  0.3063
  441MOL0     H59502  11.373   1.391   6.328  0.4075  1.2865  1.5263
  441MOL0     H59503  11.406   1.390   6.101  4.4418  1.3115 -0.8540
  441MOL0     H59504  11.345   1.556   6.060  2.8105  0.5775 -2.1783
  441MOL0     H59505  11.556   1.544   6.253 -0.2658 -1.5014  0.2867
  441MOL0     H59506  11.537   1.645   6.109 -0.1237  0.2990  0.3300
  441MOL0     H59507  11.719   1.533   6.055  0.9149 -1.4494 -1.4542
  441MOL0     H59508  11.590   1.422   5.978  0.4436 -2.7950  0.6422
  441MOL0     H59509  11.710   1.359   6.249 -0.1055  0.9391 -0.6623
  441MOL0     H59510  11.615   1.258   6.145  0.7280 -0.4302  2.5480
  441MOL0     H59511  11.845   1.196   6.135  3.9863  2.4376  2.4623
  441MOL0     H59512  11.904   1.349   6.085 -1.1764  1.9004  1.8980
  441MOL0     H59513  11.711   1.155   5.936  0.6714 -0.9972  0.8872
  441MOL0     H59514  11.747   1.318   5.869 -0.9750 -0.2060 -0.5637
  441MOL0     H59515  11.156   1.095   6.374 -0.3808 -0.2987 -3.5998
  441MOL0     H59516  10.974   0.981   6.512  2.0789 -1.2607 -2.7683
  441MOL0     H59517  10.570   0.759   6.649  3.3683  0.0793  0.0182
  441MOL0     H59518  10.354   0.729   6.746 -2.2065  0.4292  0.5240
  441MOL0     H59519   8.696   0.597   6.734 -0.0844 -1.4744 -1.6596
  441MOL0     H59520   8.513   0.659   6.612  2.8325  2.4236  0.6551
  441MOL0     H59521   8.111   0.566   6.481  0.6047 -0.5417 -0.5561
  441MOL0     H59522   7.880   0.561   6.395  1.4205 -2.6081  2.8827
  441MOL0     H59523   7.645   0.937   6.357 -0.0622 -1.2243 -2.8416
  441MOL0     H59524   7.574   0.843   6.496  1.0135 -4.2148 -0.1603
  441MOL0     H59525   7.567   0.755   6.215 -0.2913  4.4183 -0.4525
  441MOL0     H59526   7.428   0.845   6.269  1.6176  1.1354 -0.8116
  441MOL0     H59527   7.415   0.692   6.478 -0.0798  0.1109  0.0337
  441MOL0     H59528   7.523   0.575   6.398 -2.3499 -0.9520  2.6527
  441MOL0     H59529   7.363   0.563   6.205 -0.2611 -0.9792  0.1238
  441MOL0     H59530   7.304   0.499   6.356 -0.5097 -0.8217  0.3871
  441MOL0     H59531   7.010   0.769   6.244  0.0935 -1.5589 -0.0897
  441MOL0     H59532   7.839   0.975   6.523 -1.2749 -1.7409  2.8639
  441MOL0     H59533   8.153   1.045   6.582  0.7017 -0.7611 -0.6862
  441MOL0     H59534   7.990   1.072   6.635 -1.1255 -1.2792 -4.4566
  441MOL0     H59535   8.104   0.982   6.744 -0.4255 -1.7707 -0.2181
  442MOL0     O59536   9.646   0.494   0.601  0.2844  0.1267  0.1591
  442MOL0     C59537   9.543   0.567   0.595  0.4533 -0.0553  0.1612
  442MOL0     O59538   9.525   0.685   0.518 -0.3198  0.0940 -0.3149
  442MOL0     C59539   9.648   0.736   0.479 -0.6884  0.2614  0.4734
  442MOL0     C59540   9.760   0.761   0.555 -0.1413 -1.0734 -0.8393
  442MOL0     C59541   9.884   0.812   0.515  0.2348  0.5235  0.5659
  442MOL0     C59542   9.885   0.844   0.377  0.3001  0.2778  0.3551
  442MOL0     O59543   9.999   0.906   0.332  0.8478  0.3469  0.1586
  442MOL0     C59544  10.129   0.863   0.370 -0.9310 -0.3122  0.2091
  442MOL0     C59545  10.228   0.976   0.334  0.6032 -0.0154 -0.0117
  442MOL0     C59546  10.369   0.932   0.352 -0.2256 -1.2797 -0.1225
  442MOL0     C59547  10.469   1.049   0.345 -1.0262  0.3398  0.0325
  442MOL0     C59548  10.619   1.012   0.353 -0.8948 -0.5622  0.3526
  442MOL0     C59549  10.721   1.136   0.342 -1.2314  0.1756 -0.0604
  442MOL0     C59550  10.869   1.086   0.398  0.6280 -0.7241 -0.2670
  442MOL0     C59551  10.969   1.201   0.384  0.7085  1.0602 -0.2683
  442MOL0     N59552  11.092   1.183   0.460 -0.0871 -0.3497 -0.1668
  442MOL0     C59553  11.099   1.181   0.595  0.0192  0.0223 -0.5279
  442MOL0     C59554  11.232   1.195   0.617  0.6712  0.5445  0.1761
  442MOL0     C59555  11.305   1.189   0.746  0.3032  0.0363 -0.3826
  442MOL0     C59556  11.462   1.221   0.749  0.0478  0.2858  0.7725
  442MOL0     C59557  11.539   1.185   0.873 -0.3279 -0.0575  0.2846
  442MOL0     C59558  11.677   1.248   0.877 -0.8492  0.7083 -0.3539
  442MOL0     O59559  11.674   1.393   0.873 -0.0075 -0.2608 -0.5764
  442MOL0     C59560  11.788   1.456   0.916  0.6422 -0.8595  0.7422
  442MOL0     C59561  11.769   1.588   0.956  0.6571  0.6082 -0.2456
  442MOL0     C59562  11.874   1.649   1.021 -0.1032  1.0019 -0.1477
  442MOL0     C59563  12.005   1.593   1.043 -0.2689  0.0173 -0.1102
  442MOL0     C59564  12.114   1.652   1.126  0.1025 -0.8512 -0.2595
  442MOL0     O59565  12.198   1.569   1.194 -0.3652  0.5795 -0.2025
  442MOL0     C59566  12.335   1.595   1.198 -0.4988 -0.7416 -1.0989
  442MOL0     C59567  12.402   1.698   1.128  0.1131 -0.6326  0.0999
  442MOL0     C59568  12.535   1.719   1.140 -0.5607 -0.0249  0.4694
  442MOL0     C59569  12.624   1.638   1.212  0.5791  0.0956 -0.1986
  442MOL0     O59570  12.758   1.676   1.230 -0.3428 -0.2463 -0.3989
  442MOL0     C59571  12.845   1.571   1.291 -0.2966 -0.3993  0.0705
  442MOL0     C59572  12.993   1.609   1.273  0.6006  0.2776 -0.1576
  442MOL0     C59573  13.063   1.477   1.285 -0.6906  0.3433  0.1231
  442MOL0     C59574  13.209   1.502   1.252  1.1103 -0.7838 -0.4409
  442MOL0     C59575  13.301   1.437   1.357  0.2037 -0.2846  0.0245
  442MOL0     C59576  13.450   1.467   1.331  0.6782 -0.1391 -0.6735
  442MOL0     C59577  13.526   1.385   1.437  0.2106 -0.0473 -0.3399
  442MOL0     C59578  13.672   1.401   1.420  0.0126  0.0787 -0.3335
  442MOL0    Cl59579  13.734   1.275   1.297 -0.4977 -0.1252 -0.2354
  442MOL0     C59580  12.554   1.539   1.291  0.3788 -0.1397  0.9027
  442MOL0     C59581  12.418   1.519   1.282 -0.1439 -0.0776 -0.2960
  442MOL0     O59582  12.125   1.778   1.128 -0.9652  0.4969  0.6824
  442MOL0     C59583  12.021   1.469   0.986 -0.0664  0.5919  0.2696
  442MOL0     C59584  11.917   1.406   0.914  0.3473  0.2380  0.1824
  442MOL0     N59585  11.302   1.203   0.494  0.0138  0.8769 -0.3319
  442MOL0     N59586  11.209   1.201   0.406 -0.2231 -0.7415  0.2899
  442MOL0     C59587   9.768   0.842   0.296 -0.5834 -0.1226  0.0480
  442MOL0     C59588   9.652   0.787   0.348 -1.0739 -0.1258  0.7224
  442MOL0     C59589   9.416   0.523   0.672  0.2831 -0.1814  0.0971
  442MOL0     C59590   9.308   0.612   0.659 -0.2733  0.0591  0.2669
  442MOL0     C59591   9.191   0.608   0.741 -1.0422  0.3152  0.5414
  442MOL0     C59592   9.178   0.494   0.823  0.8605  0.0162  0.3530
  442MOL0     O59593   9.067   0.464   0.896 -0.2019 -0.5086 -0.3520
  442MOL0     C59594   8.947   0.531   0.857  0.1009  1.3880  0.2276
  442MOL0     C59595   8.828   0.471   0.942  0.0189  0.0777  0.2044
  442MOL0     C59596   8.707   0.552   0.912  0.4848  0.2029 -0.0742
  442MOL0     C59597   8.594   0.494   0.991 -1.0786 -0.4993  0.6296
  442MOL0     C59598   8.603   0.547   1.130  0.0063 -0.0434 -0.3276
  442MOL0     C59599   8.618   0.572   1.245 -0.0601 -0.5996 -0.2412
  442MOL0     C59600   9.281   0.407   0.837 -0.1553 -0.4506 -0.2450
  442MOL0     C59601   9.406   0.420   0.770  0.1239 -0.6116 -0.0373
  442MOL0     C59602   9.505   0.318   0.806 -0.7431  0.4863 -0.3288
  442MOL0     H59603   9.751   0.740   0.661 -0.6403  0.6472 -0.5161
  442MOL0     H59604   9.968   0.810   0.584  1.2090 -0.6928 -0.5909
  442MOL0     H59605  10.144   0.843   0.477  3.6573  0.6874 -0.0474
  442MOL0     H59606  10.156   0.767   0.325 -0.5771 -1.4901  2.7667
  442MOL0     H59607  10.206   1.064   0.394  1.4489  0.5318 -0.4840
  442MOL0     H59608  10.218   1.014   0.231 -0.4066  2.2009  0.8465
  442MOL0     H59609  10.392   0.862   0.271  1.8944 -0.4484 -0.3239
  442MOL0     H59610  10.368   0.868   0.440  2.2476 -1.9297 -0.4798
  442MOL0     H59611  10.450   1.112   0.257 -0.4576  2.7834  1.5464
  442MOL0     H59612  10.466   1.109   0.437 -0.1939 -1.8353  1.5504
  442MOL0     H59613  10.643   0.967   0.450 -0.0862 -2.9468 -0.8744
  442MOL0     H59614  10.637   0.941   0.271  0.0508  0.9110 -0.7573
  442MOL0     H59615  10.732   1.167   0.237 -1.0223  1.0460  0.2175
  442MOL0     H59616  10.691   1.223   0.400 -1.1940 -1.2154  2.1465
  442MOL0     H59617  10.906   1.003   0.338  0.4029 -0.8672 -0.2065
  442MOL0     H59618  10.852   1.062   0.503  1.8849 -1.2668 -0.1729
  442MOL0     H59619  10.995   1.200   0.278 -0.2565 -0.4092 -0.5121
  442MOL0     H59620  10.916   1.295   0.406 -2.8901 -0.3833 -2.0002
  442MOL0     H59621  11.021   1.168   0.670 -0.7897 -1.3045 -1.5500
  442MOL0     H59622  11.267   1.253   0.827 -0.3084 -1.1368  0.2885
  442MOL0     H59623  11.297   1.085   0.781 -0.6972 -0.4120 -1.8288
  442MOL0     H59624  11.511   1.181   0.660 -3.5415 -1.8513 -0.4406
  442MOL0     H59625  11.473   1.327   0.723 -0.3825 -0.0546 -0.8638
  442MOL0     H59626  11.555   1.076   0.874 -2.1861 -0.4115  2.5862
  442MOL0     H59627  11.479   1.201   0.964 -2.0301 -0.2810 -0.7514
  442MOL0     H59628  11.738   1.207   0.796 -1.6794 -2.6762  0.5690
  442MOL0     H59629  11.730   1.213   0.965 -0.6731  1.1562 -0.2824
  442MOL0     H59630  11.675   1.641   0.962  0.4980  0.4292 -1.0455
  442MOL0     H59631  11.852   1.749   1.056 -2.9525  0.2298  0.5220
  442MOL0     H59632  12.350   1.761   1.057 -1.6117  0.6668  2.3834
  442MOL0     H59633  12.577   1.800   1.082 -3.1175  1.5970  0.6988
  442MOL0     H59634  12.822   1.575   1.398 -3.2067  0.7792 -0.4899
  442MOL0     H59635  12.822   1.473   1.248 -0.7305 -0.6007  0.7313
  442MOL0     H59636  12.997   1.645   1.170 -1.2961  0.8149 -0.0762
  442MOL0     H59637  13.034   1.689   1.335 -0.1624  1.5056 -1.1830
  442MOL0     H59638  13.064   1.440   1.388 -2.0576  1.7065  0.6687
  442MOL0     H59639  13.026   1.398   1.219  2.7786 -0.7880 -0.6672
  442MOL0     H59640  13.234   1.608   1.242 -3.1754  0.7165  2.3259
  442MOL0     H59641  13.222   1.451   1.156 -0.6230 -1.8167 -0.1754
  442MOL0     H59642  13.277   1.331   1.351 -2.3880  0.3006 -1.2911
  442MOL0     H59643  13.279   1.470   1.459 -3.0944  0.6650 -0.8783
  442MOL0     H59644  13.458   1.416   1.234 -0.3086 -1.5416 -0.0484
  442MOL0     H59645  13.477   1.573   1.334 -0.0434  0.0928 -1.7567
  442MOL0     H59646  13.494   1.282   1.423 -0.5872  0.2269 -0.6062
  442MOL0     H59647  13.499   1.428   1.534 -0.5793  0.6416 -0.8395
  442MOL0     H59648  13.688   1.509   1.408 -1.6059  0.3862  0.0773
  442MOL0     H59649  13.715   1.385   1.519  0.3268 -1.2517 -0.6662
  442MOL0     H59650  12.615   1.479   1.357 -0.0961 -0.6814  0.8581
  442MOL0     H59651  12.383   1.446   1.354  1.6542  1.7440  2.5931
  442MOL0     H59652  12.112   1.413   1.004 -0.3573  0.2298  0.6259
  442MOL0     H59653  11.935   1.309   0.870  0.1732  0.6779 -0.8874
  442MOL0     H59654   9.767   0.860   0.189  0.3178  0.0914  0.0701
  442MOL0     H59655   9.562   0.785   0.287  0.6802  1.4583 -2.1608
  442MOL0     H59656   9.306   0.705   0.603 -2.1561  1.2914  2.2205
  442MOL0     H59657   9.115   0.684   0.728 -0.1842  0.7704 -2.4620
  442MOL0     H59658   8.938   0.512   0.750  1.7507  2.0705 -0.0557
  442MOL0     H59659   8.948   0.639   0.871  1.6762  1.5875 -1.1293
  442MOL0     H59660   8.866   0.458   1.044 -2.0282  0.8059  1.1041
  442MOL0     H59661   8.817   0.366   0.913 -3.3058  0.9415 -2.2444
  442MOL0     H59662   8.692   0.551   0.803  0.3689 -0.1134 -0.0568
  442MOL0     H59663   8.713   0.654   0.950  0.1897 -0.3447  1.5288
  442MOL0     H59664   8.497   0.532   0.956 -0.0457  0.1369 -1.7027
  442MOL0     H59665   8.595   0.385   0.994 -0.5809 -0.5361 -0.5402
  442MOL0     H59666   8.648   0.612   1.340  0.2535  0.3429 -0.7266
  442MOL0     H59667   9.263   0.333   0.914 -2.9831  1.1675  0.7894
  442MOL0     H59668   9.520   0.314   0.914 -0.9025 -1.6820 -0.3316
  442MOL0     H59669   9.468   0.217   0.784  1.9157 -1.3284  2.6077
  442MOL0     H59670   9.598   0.331   0.750 -1.0083 -2.9422 -1.8624
  443MOL0     O59671   3.175   1.193   5.312  0.0243 -0.9452 -0.4598
  443MOL0     C59672   3.153   1.281   5.233 -0.0015 -0.1407  0.0851
  443MOL0     O59673   3.247   1.358   5.165 -0.3365 -0.2473 -0.1746
  443MOL0     C59674   3.372   1.327   5.143 -0.3916  0.2560 -0.2546
  443MOL0     C59675   3.453   1.424   5.087 -0.0070  0.9386  0.4971
  443MOL0     C59676   3.588   1.400   5.055 -0.0705 -0.2102 -0.1381
  443MOL0     C59677   3.658   1.284   5.089  0.6133 -0.3238 -0.7082
  443MOL0     O59678   3.792   1.257   5.063 -0.2789  0.0439  0.3736
  443MOL0     C59679   3.892   1.355   5.074 -1.1951  1.1133 -0.3917
  443MOL0     C59680   4.028   1.290   5.110  0.0396 -0.1206 -0.0402
  443MOL0     C59681   4.148   1.379   5.088 -0.2941  0.0738 -0.0682
  443MOL0     C59682   4.136   1.516   5.156 -0.3589  0.3447  0.3694
  443MOL0     C59683   4.255   1.609   5.120  0.3468  0.2198  0.1109
  443MOL0     C59684   4.225   1.749   5.155  0.2822 -0.2057 -0.4869
  443MOL0     C59685   4.255   1.788   5.307  0.6625  0.1065 -0.2906
  443MOL0     C59686   4.201   1.932   5.330 -0.5844  1.0847  0.5982
  443MOL0     N59687   4.278   2.021   5.245 -0.1110  0.4082 -1.0202
  443MOL0     C59688   4.223   2.091   5.140 -0.1924 -0.7887  0.1465
  443MOL0     C59689   4.327   2.156   5.084 -0.1760 -0.6988 -0.5760
  443MOL0     C59690   4.319   2.246   4.968 -0.5014 -1.2129 -0.6469
  443MOL0     C59691   4.446   2.275   4.895 -0.0694 -0.4825  0.4313
  443MOL0     C59692   4.539   2.390   4.962  0.7817  0.3161  0.1928
  443MOL0     C59693   4.653   2.453   4.878 -0.4798  0.1345  0.1832
  443MOL0     O59694   4.716   2.553   4.949 -0.1756 -0.4472  0.5513
  443MOL0     C59695   4.857   2.553   4.954  0.2538  0.8505 -0.3436
  443MOL0     C59696   4.945   2.522   4.844  0.1798  0.6566 -1.2377
  443MOL0     C59697   5.083   2.513   4.865 -0.3693 -0.1015 -0.0247
  443MOL0     C59698   5.139   2.539   4.991 -0.3085 -0.3088  0.5587
  443MOL0     C59699   5.281   2.522   5.016 -0.1534  0.0090 -0.0851
  443MOL0     O59700   5.349   2.442   4.934 -0.1087  0.6477  0.0716
  443MOL0     C59701   5.477   2.404   4.980 -1.1908 -0.9174  0.2820
  443MOL0     C59702   5.586   2.425   4.891 -0.1333  0.0471  0.0842
  443MOL0     C59703   5.715   2.378   4.932 -0.3563 -0.2983  0.5714
  443MOL0     C59704   5.737   2.318   5.057 -0.1836 -0.5771  0.5976
  443MOL0     O59705   5.868   2.300   5.104  0.5126 -0.1527  0.1733
  443MOL0     C59706   5.934   2.429   5.116 -0.0559  0.5385 -0.5651
  443MOL0     C59707   6.008   2.440   5.252  0.5483 -0.5761 -0.1241
  443MOL0     C59708   6.057   2.298   5.290  0.2041  0.4557 -0.5486
  443MOL0     C59709   6.167   2.293   5.395 -0.3910 -0.7206  0.1486
  443MOL0     C59710   6.203   2.149   5.437  0.7709 -0.1077  0.6213
  443MOL0     C59711   6.321   2.140   5.543 -0.5503 -0.1000  0.6371
  443MOL0     C59712   6.447   2.219   5.481 -1.1496 -0.2318 -0.8258
  443MOL0     C59713   6.543   2.232   5.595 -0.1210  0.7277 -0.2799
  443MOL0    Cl59714   6.600   2.067   5.648 -0.2808 -0.1393  0.1519
  443MOL0     C59715   5.625   2.305   5.142  0.5290 -0.0686 -0.7799
  443MOL0     C59716   5.496   2.350   5.107  0.1175  0.4582 -0.4519
  443MOL0     O59717   5.327   2.572   5.118  1.0429  0.0665 -0.4978
  443MOL0     C59718   5.052   2.594   5.092 -0.0373  0.1988 -0.0007
  443MOL0     C59719   4.919   2.597   5.073 -0.0162  0.4205 -0.9101
  443MOL0     N59720   4.439   2.141   5.167  0.1113 -0.4481 -0.7400
  443MOL0     N59721   4.408   2.060   5.264  0.4159  0.2227  0.9653
  443MOL0     C59722   3.565   1.181   5.149 -2.3088  0.0229 -0.2699
  443MOL0     C59723   3.434   1.198   5.175  0.8489  0.7091  0.0392
  443MOL0     C59724   3.008   1.315   5.210  0.0347 -0.1960 -0.8002
  443MOL0     C59725   2.906   1.221   5.216  0.1532  0.3630 -0.3578
  443MOL0     C59726   2.777   1.241   5.194 -0.1905 -0.6224  0.2617
  443MOL0     C59727   2.732   1.371   5.163 -0.0108  0.4419  0.2663
  443MOL0     O59728   2.606   1.402   5.119 -0.0149 -0.0312 -0.2687
  443MOL0     C59729   2.499   1.323   5.180  0.2678 -0.2181  0.4570
  443MOL0     C59730   2.373   1.407   5.175  0.7380  0.0907 -0.3993
  443MOL0     C59731   2.386   1.533   5.263  1.0143 -0.6515  0.0020
  443MOL0     C59732   2.248   1.563   5.333  0.3066 -1.0091  0.0732
  443MOL0     C59733   2.284   1.656   5.447  0.5598  0.3432  0.7992
  443MOL0     C59734   2.317   1.734   5.537  0.2327  0.3046  0.5914
  443MOL0     C59735   2.827   1.474   5.160  0.9889 -0.1994  0.3725
  443MOL0     C59736   2.964   1.452   5.182 -0.1071 -1.1838 -0.1207
  443MOL0     C59737   3.059   1.576   5.195 -0.2225  0.5273 -0.8042
  443MOL0     H59738   3.408   1.515   5.048 -0.1947 -0.0512 -1.7295
  443MOL0     H59739   3.627   1.487   5.003 -1.7117 -1.8369 -4.5957
  443MOL0     H59740   3.914   1.405   4.979 -0.8763  0.4632 -0.6623
  443MOL0     H59741   3.867   1.424   5.155 -1.4192  1.1620 -0.4990
  443MOL0     H59742   4.037   1.203   5.044 -0.9829  0.1734 -0.5783
  443MOL0     H59743   4.027   1.267   5.217 -1.1094  0.8332  0.1719
  443MOL0     H59744   4.162   1.395   4.981 -2.7086 -0.2217 -0.4874
  443MOL0     H59745   4.244   1.336   5.119  0.1239  0.9186 -0.1438
  443MOL0     H59746   4.040   1.562   5.129 -0.4270  1.1114  1.8278
  443MOL0     H59747   4.147   1.508   5.264 -0.8131 -0.3476  0.3749
  443MOL0     H59748   4.347   1.566   5.159  0.0422 -1.0216 -0.4791
  443MOL0     H59749   4.280   1.615   5.013  1.0610  0.4377  0.2857
  443MOL0     H59750   4.291   1.811   5.094 -3.0656  2.0200 -2.1961
  443MOL0     H59751   4.129   1.783   5.115  0.8371 -0.3022 -1.9726
  443MOL0     H59752   4.363   1.779   5.319  0.4777 -3.8883 -0.2300
  443MOL0     H59753   4.203   1.718   5.373  1.8459 -1.4260 -0.9115
  443MOL0     H59754   4.096   1.938   5.301 -0.7989  0.6620  1.2851
  443MOL0     H59755   4.217   1.956   5.435 -1.8216 -1.5258  1.4676
  443MOL0     H59756   4.123   2.079   5.099  1.3622 -2.6077 -3.5329
  443MOL0     H59757   4.236   2.209   4.907 -2.2843 -1.1890  1.6349
  443MOL0     H59758   4.285   2.342   5.006  2.0348 -0.1779 -0.8214
  443MOL0     H59759   4.498   2.179   4.892  1.8736  0.4642  1.6312
  443MOL0     H59760   4.417   2.302   4.793  0.4042  2.0237  0.8840
  443MOL0     H59761   4.581   2.353   5.056 -1.7121 -2.9430  0.2034
  443MOL0     H59762   4.487   2.485   4.978  1.7928  1.3563 -2.0974
  443MOL0     H59763   4.613   2.499   4.788 -0.6335 -2.7101 -1.3077
  443MOL0     H59764   4.723   2.371   4.857  0.8825  1.4004 -0.3748
  443MOL0     H59765   4.914   2.499   4.742  0.5568  0.8618 -1.3992
  443MOL0     H59766   5.143   2.492   4.776  0.5189 -1.6359  0.8959
  443MOL0     H59767   5.587   2.481   4.799  3.2878 -0.2371 -0.1821
  443MOL0     H59768   5.806   2.392   4.874 -0.7306  0.0279  0.0397
  443MOL0     H59769   6.011   2.435   5.038  0.7437  0.7845  0.2283
  443MOL0     H59770   5.861   2.510   5.105 -0.8451  0.0007  0.5396
  443MOL0     H59771   6.091   2.512   5.254  1.4008 -1.4786 -1.6911
  443MOL0     H59772   5.931   2.477   5.320 -0.1543  0.4198 -1.4316
  443MOL0     H59773   5.976   2.243   5.339  1.4844  0.6342  1.9122
  443MOL0     H59774   6.096   2.249   5.201  2.6605  1.4568 -0.1002
  443MOL0     H59775   6.146   2.357   5.481  1.7636  3.0659 -1.8807
  443MOL0     H59776   6.256   2.338   5.350 -1.0400 -0.5635 -1.0377
  443MOL0     H59777   6.232   2.097   5.345  0.2282  1.8718 -0.7252
  443MOL0     H59778   6.110   2.110   5.479  0.2992 -1.0112 -1.1556
  443MOL0     H59779   6.281   2.183   5.635 -0.2654  2.5429 -0.3913
  443MOL0     H59780   6.343   2.033   5.543 -1.2163 -0.2925 -1.7596
  443MOL0     H59781   6.416   2.322   5.461 -1.9595 -0.5546 -1.2962
  443MOL0     H59782   6.482   2.178   5.385 -2.1095  1.1904 -1.8236
  443MOL0     H59783   6.625   2.289   5.549 -0.6148 -0.8151 -3.3556
  443MOL0     H59784   6.506   2.279   5.686  1.9254  0.0904  0.9277
  443MOL0     H59785   5.653   2.265   5.239  1.5475 -0.5146 -1.2470
  443MOL0     H59786   5.420   2.331   5.182  0.1624 -0.0712 -0.5345
  443MOL0     H59787   5.091   2.614   5.191  2.0889  1.1699 -0.9838
  443MOL0     H59788   4.859   2.628   5.158  2.8484  0.4288  1.2505
  443MOL0     H59789   3.603   1.080   5.164 -0.5002  0.8697  1.1311
  443MOL0     H59790   3.374   1.120   5.221  1.0165  0.5002 -0.0978
  443MOL0     H59791   2.938   1.121   5.244  1.2414  0.7945 -0.0014
  443MOL0     H59792   2.714   1.153   5.206 -0.1326 -0.5630  1.0329
  443MOL0     H59793   2.511   1.287   5.283 -1.7422  0.1996  0.8889
  443MOL0     H59794   2.481   1.237   5.115 -0.2771  0.7194 -0.6745
  443MOL0     H59795   2.292   1.339   5.204 -1.0212  2.1601 -0.2478
  443MOL0     H59796   2.343   1.442   5.076 -2.6890  0.5289  0.6649
  443MOL0     H59797   2.427   1.618   5.207  3.8915 -0.6205  1.9025
  443MOL0     H59798   2.457   1.510   5.343  0.5244 -0.6411  0.4367
  443MOL0     H59799   2.190   1.610   5.253  1.7335  0.3372 -0.2224
  443MOL0     H59800   2.196   1.479   5.379  0.0999 -0.4497  0.8836
  443MOL0     H59801   2.363   1.783   5.620 -1.7549  0.5760  1.5865
  443MOL0     H59802   2.795   1.572   5.127 -0.5488 -0.9068 -0.3264
  443MOL0     H59803   3.005   1.669   5.210 -0.4147  0.0869  1.4847
  443MOL0     H59804   3.133   1.577   5.275 -0.9726  0.8277 -0.1032
  443MOL0     H59805   3.112   1.597   5.101  0.5818  0.9489 -0.2673
  444MOL0     O59806   3.779   0.115   5.461 -0.0574  0.5898  0.2415
  444MOL0     C59807   3.840   0.050   5.546  0.6729  0.6363  0.4865
  444MOL0     O59808   3.947   0.085   5.626  0.1864 -0.4408  0.6232
  444MOL0     C59809   3.989   0.219   5.602 -0.4228  0.4938  0.4635
  444MOL0     C59810   3.915   0.329   5.630  0.2031 -1.1313  0.2240
  444MOL0     C59811   3.946   0.458   5.581  0.8713 -0.5934 -0.7071
  444MOL0     C59812   4.067   0.472   5.509  0.1928  0.1313 -0.6815
  444MOL0     O59813   4.111   0.584   5.451  0.2067 -0.4061 -0.2934
  444MOL0     C59814   4.089   0.709   5.524 -0.2356  0.6285 -0.6159
  444MOL0     C59815   4.208   0.811   5.540 -0.3324 -0.1028 -0.5641
  444MOL0     C59816   4.330   0.751   5.600 -0.7035 -0.2529 -0.9609
  444MOL0     C59817   4.425   0.863   5.643  0.6735 -0.3195 -0.7931
  444MOL0     C59818   4.541   0.797   5.729 -0.5527 -0.0434  0.0759
  444MOL0     C59819   4.622   0.894   5.814 -0.1372  0.8941 -0.1205
  444MOL0     C59820   4.743   0.828   5.880 -0.1086 -0.2318 -0.0089
  444MOL0     C59821   4.842   0.930   5.940  0.2440 -0.1921  0.7844
  444MOL0     N59822   4.972   0.928   5.870 -0.1592  0.2142 -0.0670
  444MOL0     C59823   5.082   0.857   5.918  0.4609 -0.2248 -0.2156
  444MOL0     C59824   5.172   0.883   5.824 -0.1450 -0.2198 -1.2945
  444MOL0     C59825   5.297   0.807   5.837 -0.6280 -0.1475 -0.8581
  444MOL0     C59826   5.429   0.882   5.796  0.3822 -0.6524  0.0443
  444MOL0     C59827   5.552   0.792   5.778  0.0081  0.1561  0.9705
  444MOL0     C59828   5.681   0.834   5.855  0.1815  0.3100  0.3452
  444MOL0     O59829   5.693   0.763   5.978  0.2292  0.3618  0.4667
  444MOL0     C59830   5.795   0.805   6.069  0.0452  0.5835 -1.0565
  444MOL0     C59831   5.807   0.728   6.189  1.3187 -0.6120 -0.1787
  444MOL0     C59832   5.899   0.746   6.281  0.0437  0.3090  0.1487
  444MOL0     C59833   5.990   0.842   6.269  0.4951  0.1529  0.8073
  444MOL0     C59834   6.088   0.866   6.378 -0.7452 -0.2691  0.0134
  444MOL0     O59835   6.053   0.829   6.505  0.6505 -0.0595  0.2954
  444MOL0     C59836   6.126   0.853   6.619  0.9731 -0.4557  0.7391
  444MOL0     C59837   6.242   0.930   6.633 -0.2168  0.3021 -0.3173
  444MOL0     C59838   6.312   0.938   6.755  0.9982 -0.1007  0.0473
  444MOL0     C59839   6.269   0.865   6.867 -0.8633  0.7015  0.6782
  444MOL0     O59840   6.343   0.886   6.979  0.2528 -0.8206  0.7046
  444MOL0     C59841   6.263   0.921   7.095  0.0006  0.1556 -0.2291
  444MOL0     C59842   6.249   1.076   7.099  0.6831  0.1945 -0.1961
  444MOL0     C59843   6.140   1.144   7.013  0.0848  0.2417 -0.3157
  444MOL0     C59844   6.004   1.134   7.080  0.1260  0.1941  0.1115
  444MOL0     C59845   5.897   1.214   6.995 -0.3759  0.7761 -0.0453
  444MOL0     C59846   5.844   1.135   6.875  0.2737  0.6636 -0.4841
  444MOL0     C59847   5.757   1.230   6.789 -0.8606 -1.2194  0.2908
  444MOL0     C59848   5.679   1.141   6.694 -0.1895 -0.4844  0.6276
  444MOL0    Cl59849   5.801   1.093   6.568 -0.4261 -0.1618 -0.2797
  444MOL0     C59850   6.158   0.792   6.857  0.6786  0.6981 -0.4611
  444MOL0     C59851   6.085   0.784   6.736 -0.2949 -0.0177  0.6450
  444MOL0     O59852   6.194   0.925   6.351  0.4050  0.4832 -0.4096
  444MOL0     C59853   5.992   0.923   6.150  0.3782  0.4897  0.8821
  444MOL0     C59854   5.898   0.899   6.047  1.2074  0.4236  0.2333
  444MOL0     N59855   5.131   0.986   5.737 -0.6214  0.4526 -0.3363
  444MOL0     N59856   5.006   1.010   5.763  0.0320 -0.5718 -0.3053
  444MOL0     C59857   4.150   0.360   5.492  0.2317  0.6921 -0.3724
  444MOL0     C59858   4.111   0.236   5.539 -0.1692 -0.6022 -0.1127
  444MOL0     C59859   3.776  -0.072   5.598 -0.7735 -0.2200 -0.1209
  444MOL0     C59860   3.806  -0.114   5.736 -0.1379 -0.4945  1.1859
  444MOL0     C59861   3.757  -0.228   5.795  0.1868  0.6609  0.2641
  444MOL0     C59862   3.686  -0.311   5.713 -0.0307  0.5741  1.0944
  444MOL0     O59863   3.657  -0.429   5.782 -0.6809 -0.2064  0.2836
  444MOL0     C59864   3.579  -0.525   5.705 -0.2333 -0.5214 -0.3861
  444MOL0     C59865   3.554  -0.651   5.793  0.5353 -0.2334 -1.0008
  444MOL0     C59866   3.672  -0.737   5.827  0.7303  0.2197  0.6044
  444MOL0     C59867   3.663  -0.849   5.934 -0.1402 -0.1688 -0.8347
  444MOL0     C59868   3.799  -0.885   5.980 -0.6317 -0.3860  0.4881
  444MOL0     C59869   3.915  -0.910   6.002  0.5072 -0.2738  0.1475
  444MOL0     C59870   3.643  -0.276   5.582 -0.1857 -0.1494 -0.8670
  444MOL0     C59871   3.682  -0.151   5.520  0.4055  1.6661  0.4161
  444MOL0     C59872   3.642  -0.116   5.380 -0.0413 -0.6646 -0.1343
  444MOL0     H59873   3.821   0.318   5.684  0.0321 -1.9981 -0.2329
  444MOL0     H59874   3.871   0.536   5.580  1.1150 -0.3353  0.1511
  444MOL0     H59875   4.000   0.754   5.479 -0.4755  1.4436  0.6340
  444MOL0     H59876   4.051   0.682   5.623  0.4751 -0.7723 -0.6998
  444MOL0     H59877   4.174   0.902   5.590  1.0654  0.8300 -1.2436
  444MOL0     H59878   4.232   0.854   5.442 -0.6224 -0.8426 -0.9626
  444MOL0     H59879   4.389   0.677   5.544  0.6583  1.4064 -1.8073
  444MOL0     H59880   4.291   0.698   5.687  1.5432 -3.4641 -1.7188
  444MOL0     H59881   4.454   0.926   5.558  0.6558  1.8926  0.7760
  444MOL0     H59882   4.374   0.931   5.712  1.1757  0.6929 -1.3957
  444MOL0     H59883   4.516   0.710   5.790 -2.6219  2.1799  2.6218
  444MOL0     H59884   4.610   0.757   5.654 -0.6112  1.2474 -0.6863
  444MOL0     H59885   4.666   0.975   5.754 -0.0163  1.4096  0.6540
  444MOL0     H59886   4.560   0.937   5.893 -1.7080 -2.0208  0.3919
  444MOL0     H59887   4.806   0.781   5.804  2.5688  2.0685  0.6284
  444MOL0     H59888   4.715   0.761   5.962  0.8338  2.8762  3.1542
  444MOL0     H59889   4.796   1.028   5.925 -3.2717 -1.8757 -0.7165
  444MOL0     H59890   4.852   0.907   6.046  0.0802  1.3466  1.1517
  444MOL0     H59891   5.099   0.784   5.996 -1.7875 -1.1481 -0.5228
  444MOL0     H59892   5.310   0.773   5.940 -1.6900 -1.6771 -1.1994
  444MOL0     H59893   5.287   0.711   5.785  0.6112 -0.5500 -0.3916
  444MOL0     H59894   5.413   0.945   5.708  2.5134  0.5403  0.4498
  444MOL0     H59895   5.446   0.963   5.868 -0.9726  1.0143 -1.4027
  444MOL0     H59896   5.577   0.797   5.672 -2.5436 -0.9510  0.2442
  444MOL0     H59897   5.534   0.685   5.791  0.7633 -0.0886  0.0956
  444MOL0     H59898   5.696   0.942   5.865 -0.0737  0.3418  0.3943
  444MOL0     H59899   5.763   0.811   5.786  0.9051  1.4650  0.7886
  444MOL0     H59900   5.731   0.652   6.188 -1.3221  1.8550  0.3760
  444MOL0     H59901   5.898   0.684   6.369  0.5319 -0.7414 -0.5600
  444MOL0     H59902   6.287   0.984   6.551  2.2380 -1.8298 -0.4996
  444MOL0     H59903   6.410   0.985   6.763  1.3090 -0.7297  0.0523
  444MOL0     H59904   6.164   0.875   7.096 -0.2619  0.0399 -5.3007
  444MOL0     H59905   6.314   0.899   7.189  0.5483  4.6431  0.7486
  444MOL0     H59906   6.235   1.103   7.204  0.1317  0.5173 -0.3477
  444MOL0     H59907   6.339   1.127   7.063  2.3692 -0.4665  2.7950
  444MOL0     H59908   6.170   1.249   7.011 -1.7161  0.7778 -1.2737
  444MOL0     H59909   6.126   1.101   6.913  1.0082 -0.4363 -0.1730
  444MOL0     H59910   5.999   1.178   7.180  2.4333 -0.7174  0.6744
  444MOL0     H59911   5.971   1.030   7.086  1.1452 -0.1348  0.1756
  444MOL0     H59912   5.947   1.305   6.963  2.6711 -0.3485  1.1554
  444MOL0     H59913   5.812   1.232   7.061 -1.3342 -3.4992  0.1670
  444MOL0     H59914   5.929   1.093   6.822 -0.7555  0.0428 -1.6870
  444MOL0     H59915   5.791   1.053   6.924  1.2545  1.3517  1.9061
  444MOL0     H59916   5.817   1.305   6.736  0.2663 -0.9001  1.9568
  444MOL0     H59917   5.702   1.301   6.852  1.6040  0.1013  1.0785
  444MOL0     H59918   5.645   1.053   6.750  0.4261 -0.2887  1.3332
  444MOL0     H59919   5.601   1.202   6.648 -1.4002 -0.7833  2.1967
  444MOL0     H59920   6.127   0.722   6.934 -1.1238  1.7878 -0.1230
  444MOL0     H59921   5.990   0.731   6.731 -0.7215  0.8205 -0.6034
  444MOL0     H59922   6.064   1.003   6.136  0.1440  0.7837  1.3285
  444MOL0     H59923   5.904   0.966   5.961  0.7214 -0.1782 -0.2752
  444MOL0     H59924   4.247   0.366   5.445  0.8964  1.8754  1.0741
  444MOL0     H59925   4.180   0.154   5.530 -0.4221 -0.8991  0.6631
  444MOL0     H59926   3.879  -0.057   5.792  0.0897  1.5816 -1.0504
  444MOL0     H59927   3.789  -0.265   5.892 -3.6428 -0.2265  1.3595
  444MOL0     H59928   3.633  -0.560   5.616 -1.9664 -2.1752 -0.8465
  444MOL0     H59929   3.486  -0.478   5.673  0.5447  0.2653 -1.6187
  444MOL0     H59930   3.483  -0.717   5.741  0.8257 -1.7477  0.4284
  444MOL0     H59931   3.508  -0.613   5.884 -1.4417  1.4522 -2.6144
  444MOL0     H59932   3.751  -0.673   5.867 -0.1773  2.5455 -1.0250
  444MOL0     H59933   3.707  -0.777   5.731  1.1200  2.7087 -0.3864
  444MOL0     H59934   3.600  -0.815   6.016 -0.1778 -0.4171 -0.7597
  444MOL0     H59935   3.616  -0.939   5.893  1.5668 -2.9345  2.7086
  444MOL0     H59936   4.014  -0.927   6.039  0.6220 -2.1042 -0.8478
  444MOL0     H59937   3.574  -0.342   5.530  0.0706 -0.1574 -1.1970
  444MOL0     H59938   3.588  -0.197   5.330  0.9906 -0.4603 -1.6344
  444MOL0     H59939   3.586  -0.023   5.390  1.5419  0.3877 -0.5902
  444MOL0     H59940   3.731  -0.104   5.317 -0.8067  1.2566 -0.8868
  445MOL0     O59941   0.575   1.421   3.361  0.2295 -0.0570  0.1295
  445MOL0     C59942   0.667   1.403   3.442  0.6015  0.6929  0.1974
  445MOL0     O59943   0.648   1.399   3.580  0.4230  0.0335  0.7935
  445MOL0     C59944   0.525   1.415   3.644 -0.4135  0.2345  0.6668
  445MOL0     C59945   0.409   1.352   3.601  0.3422 -0.7460 -0.0742
  445MOL0     C59946   0.291   1.366   3.679 -0.1867  0.3274 -0.2873
  445MOL0     C59947   0.288   1.441   3.796  0.2697  0.2339 -0.0897
  445MOL0     O59948   0.176   1.464   3.870  1.0022  0.5279 -0.0098
  445MOL0     C59949   0.089   1.577   3.827  0.3234  0.0369 -0.7522
  445MOL0     C59950  -0.061   1.528   3.836  0.5861 -0.1316 -0.2257
  445MOL0     C59951  -0.078   1.393   3.775  0.1743  0.8733 -1.0026
  445MOL0     C59952  -0.063   1.280   3.876 -0.6035  0.5490 -0.9002
  445MOL0     C59953  -0.140   1.146   3.843 -0.3036 -0.1974  0.6017
  445MOL0     C59954  -0.289   1.147   3.847  1.3952 -0.1852  0.1615
  445MOL0     C59955  -0.369   1.014   3.815  0.0914  0.2190  0.1837
  445MOL0     C59956  -0.524   1.041   3.817  0.3847  0.3023  0.2240
  445MOL0     N59957  -0.601   0.916   3.800  0.0059  0.9814 -0.0718
  445MOL0     C59958  -0.728   0.890   3.847  0.5466  0.1983  0.2081
  445MOL0     C59959  -0.765   0.774   3.783  0.3300  0.7453 -0.3716
  445MOL0     C59960  -0.898   0.698   3.803  0.2822  0.2434  0.7823
  445MOL0     C59961  -1.017   0.792   3.764 -0.2716  0.0274 -0.3569
  445MOL0     C59962  -1.147   0.713   3.778  0.4468  0.4344 -0.1941
  445MOL0     C59963  -1.208   0.710   3.920 -0.0674  0.5139  0.9303
  445MOL0     O59964  -1.294   0.601   3.941  0.0267  0.5723  0.0237
  445MOL0     C59965  -1.245   0.480   3.981 -0.1519  0.1974  0.0287
  445MOL0     C59966  -1.112   0.447   3.984  0.7547  0.8231 -0.2287
  445MOL0     C59967  -1.071   0.323   4.027  0.6763 -0.3783  0.9794
  445MOL0     C59968  -1.167   0.228   4.068  0.6470  0.2684  1.5652
  445MOL0     C59969  -1.132   0.095   4.126  0.2762 -0.4402  0.3219
  445MOL0     O59970  -1.001   0.068   4.152 -0.3202  0.5439  0.6868
  445MOL0     C59971  -0.974  -0.071   4.134 -0.2395  0.1679 -0.1209
  445MOL0     C59972  -1.042  -0.175   4.064 -0.9774 -0.6430  1.4616
  445MOL0     C59973  -0.996  -0.308   4.048  0.4647  0.4160 -0.4614
  445MOL0     C59974  -0.872  -0.336   4.106  0.3926 -0.5174  0.2602
  445MOL0     O59975  -0.817  -0.456   4.088  0.4493 -0.3718  0.1824
  445MOL0     C59976  -0.792  -0.524   4.212 -0.2802 -0.1176 -0.0149
  445MOL0     C59977  -0.681  -0.615   4.185  1.0140  0.0521  0.0807
  445MOL0     C59978  -0.637  -0.695   4.308  0.3724  0.5883 -0.5340
  445MOL0     C59979  -0.533  -0.801   4.260 -0.1555 -0.2521 -0.3652
  445MOL0     C59980  -0.468  -0.861   4.384  0.3635  0.3296  0.0319
  445MOL0     C59981  -0.367  -0.972   4.342 -0.5454 -0.0314  0.7742
  445MOL0     C59982  -0.239  -0.914   4.283  0.7251 -0.5409 -0.5712
  445MOL0     C59983  -0.139  -1.024   4.239 -0.0949  0.0123  0.0971
  445MOL0    Cl59984  -0.021  -0.954   4.142  0.4421 -0.5842  0.2582
  445MOL0     C59985  -0.804  -0.233   4.174  0.3837  0.1466 -0.5831
  445MOL0     C59986  -0.850  -0.107   4.186  0.6068 -0.6176  0.2162
  445MOL0     O59987  -1.226   0.017   4.158 -1.0009 -0.4646 -0.1117
  445MOL0     C59988  -1.306   0.260   4.057  0.3816 -0.1328 -0.1548
  445MOL0     C59989  -1.345   0.386   4.024 -0.3217 -0.2935  0.5815
  445MOL0     N59990  -0.661   0.730   3.712 -0.6546  0.1588 -0.5883
  445MOL0     N59991  -0.556   0.804   3.727  0.3486 -0.1359  0.3148
  445MOL0     C59992   0.410   1.498   3.839  0.1117 -0.1721  0.0473
  445MOL0     C59993   0.531   1.482   3.766  0.3629 -0.5722  0.7758
  445MOL0     C59994   0.797   1.363   3.388  0.2801  0.3159  0.0674
  445MOL0     C59995   0.853   1.437   3.283  0.9380 -0.5933 -0.1001
  445MOL0     C59996   0.979   1.409   3.222  0.1662  1.7282 -1.0113
  445MOL0     C59997   1.043   1.289   3.270  0.0419 -0.1463 -0.4112
  445MOL0     O59998   1.166   1.252   3.233  0.2468  0.3453  1.8506
  445MOL0     C59999   1.211   1.309   3.112 -0.4871  0.3718  0.2083
  445MOL0     C60000   1.349   1.230   3.079 -0.6689 -0.6001 -0.1043
  445MOL0     C60001   1.331   1.086   3.020  0.9023  0.0880  0.4698
  445MOL0     C60002   1.466   1.024   2.966  0.1905 -0.3778 -1.1310
  445MOL0     C60003   1.579   1.019   3.066  0.3993  0.4235 -0.4221
  445MOL0     C60004   1.680   1.039   3.128 -0.0716 -1.0586 -0.0545
  445MOL0     C60005   0.989   1.215   3.381 -0.2766 -1.1202 -0.0887
  445MOL0     C60006   0.867   1.251   3.436 -0.0551 -0.2001  0.1032
  445MOL0     C60007   0.816   1.168   3.550  0.0809 -0.0495 -0.1829
  445MOL0     H60008   0.405   1.302   3.505  1.3830  0.4497 -0.7810
  445MOL0     H60009   0.209   1.303   3.649 -0.6539 -0.1706  1.8393
  445MOL0     H60010   0.104   1.663   3.892 -0.0879 -0.0208 -0.5784
  445MOL0     H60011   0.130   1.592   3.727 -1.3976 -1.3583 -1.7257
  445MOL0     H60012  -0.123   1.602   3.783  0.7209  2.7913  3.2836
  445MOL0     H60013  -0.108   1.519   3.934 -3.1037  0.9072 -1.6745
  445MOL0     H60014  -0.009   1.376   3.692  1.1273  0.2313 -0.1156
  445MOL0     H60015  -0.177   1.389   3.729 -0.7350  0.2019  0.8969
  445MOL0     H60016   0.041   1.254   3.895 -0.6201  1.2987  0.3228
  445MOL0     H60017  -0.112   1.313   3.969 -0.0918 -3.2833  0.9095
  445MOL0     H60018  -0.118   1.118   3.740 -0.5258 -3.5954  1.3834
  445MOL0     H60019  -0.108   1.065   3.909 -0.2993 -0.2436  0.5424
  445MOL0     H60020  -0.321   1.179   3.946 -0.4374  1.1651 -0.8040
  445MOL0     H60021  -0.323   1.212   3.765 -0.9414  2.4391  2.9727
  445MOL0     H60022  -0.341   0.940   3.890  1.7247  0.1826 -0.4111
  445MOL0     H60023  -0.350   0.977   3.713 -0.5111 -3.3432  1.2421
  445MOL0     H60024  -0.549   1.088   3.913 -2.3201 -1.0829  0.2781
  445MOL0     H60025  -0.554   1.097   3.728  0.7361  0.1220 -0.0101
  445MOL0     H60026  -0.793   0.944   3.915 -0.2842 -2.6957  1.9148
  445MOL0     H60027  -0.909   0.601   3.754  1.7283  0.4136  0.0818
  445MOL0     H60028  -0.914   0.690   3.911  2.0778 -0.3121  1.0401
  445MOL0     H60029  -1.035   0.872   3.836 -0.4725 -3.3554  3.7849
  445MOL0     H60030  -1.016   0.830   3.662 -2.3667  1.7982  0.2152
  445MOL0     H60031  -1.121   0.615   3.738 -0.4013 -0.4878  1.4118
  445MOL0     H60032  -1.218   0.753   3.706 -1.2596  1.5527  1.9699
  445MOL0     H60033  -1.258   0.806   3.934  1.7209  2.0788 -2.1076
  445MOL0     H60034  -1.125   0.698   3.990  1.7514  0.4000 -1.1061
  445MOL0     H60035  -1.033   0.506   3.937  0.0497  0.3612 -2.0498
  445MOL0     H60036  -0.968   0.292   4.036  0.0329 -2.5114  1.5715
  445MOL0     H60037  -1.123  -0.143   4.000  0.7380  0.8131 -0.0855
  445MOL0     H60038  -1.056  -0.379   3.993  2.5374 -0.8799 -1.2008
  445MOL0     H60039  -0.758  -0.454   4.289  0.9768  1.4691 -1.9344
  445MOL0     H60040  -0.877  -0.584   4.247 -0.7938  0.3260 -0.4948
  445MOL0     H60041  -0.728  -0.678   4.109 -0.8279 -0.7590  1.8169
  445MOL0     H60042  -0.599  -0.555   4.146  0.0282  3.2456  2.4892
  445MOL0     H60043  -0.589  -0.624   4.377  0.6665  2.0698 -2.1894
  445MOL0     H60044  -0.727  -0.737   4.353  2.3789 -1.9776  1.4034
  445MOL0     H60045  -0.454  -0.744   4.211 -0.4789  2.2517  1.8189
  445MOL0     H60046  -0.581  -0.879   4.200 -0.6083 -2.1007  2.2290
  445MOL0     H60047  -0.544  -0.906   4.447  2.2067 -1.0236  1.4144
  445MOL0     H60048  -0.419  -0.779   4.437  0.5062  0.0797  0.2876
  445MOL0     H60049  -0.334  -1.025   4.432 -1.3563  1.4809  2.0212
  445MOL0     H60050  -0.418  -1.047   4.281  0.9945 -0.4232 -0.0764
  445MOL0     H60051  -0.192  -0.849   4.357  3.0640 -1.1866 -1.4168
  445MOL0     H60052  -0.268  -0.846   4.202 -0.2647 -3.1098 -2.5309
  445MOL0     H60053  -0.090  -1.062   4.330  1.1256  0.0939 -0.5105
  445MOL0     H60054  -0.184  -1.107   4.182 -2.8876  0.0850  1.9602
  445MOL0     H60055  -0.704  -0.247   4.215  0.5005  0.4227 -0.7702
  445MOL0     H60056  -0.783  -0.032   4.228 -0.9685  0.8699  0.1895
  445MOL0     H60057  -1.380   0.183   4.077  1.1319 -0.7396  0.3561
  445MOL0     H60058  -1.448   0.418   4.019 -0.3349 -0.2978  0.8260
  445MOL0     H60059   0.422   1.563   3.926  1.8495  0.6166 -0.7303
  445MOL0     H60060   0.624   1.515   3.811 -0.5024 -1.2284  3.1846
  445MOL0     H60061   0.808   1.524   3.237  1.1842 -0.8644 -0.8677
  445MOL0     H60062   1.020   1.476   3.147 -0.5492 -0.4835 -3.5376
  445MOL0     H60063   1.234   1.415   3.128 -0.5153  0.4886 -0.4959
  445MOL0     H60064   1.148   1.295   3.024 -0.0580 -0.5125  0.0209
  445MOL0     H60065   1.392   1.226   3.180 -1.6586  2.7610  0.5818
  445MOL0     H60066   1.419   1.291   3.022 -1.5048  0.6058  0.1221
  445MOL0     H60067   1.272   1.094   2.929  0.3053  0.2167  0.8616
  445MOL0     H60068   1.275   1.019   3.085 -0.5270 -0.3267 -1.1548
  445MOL0     H60069   1.446   0.924   2.927  1.4089  0.0796 -3.0693
  445MOL0     H60070   1.499   1.093   2.887 -1.7998  1.0034 -0.8434
  445MOL0     H60071   1.779   1.045   3.168  0.2211  2.3220 -0.9852
  445MOL0     H60072   1.047   1.131   3.417  1.3752  0.0163  0.0072
  445MOL0     H60073   0.868   1.072   3.554 -2.9802 -1.8581 -0.5817
  445MOL0     H60074   0.833   1.228   3.640 -0.6837 -2.0108  1.3431
  445MOL0     H60075   0.710   1.142   3.544  0.2769 -0.9616  0.1790
  446MOL0     O60076   7.657   1.705  11.007  0.1325 -0.1767  0.2414
  446MOL0     C60077   7.597   1.707  11.116  1.0320 -0.4465  0.1269
  446MOL0     O60078   7.658   1.693  11.241 -0.2253  0.2704 -0.4045
  446MOL0     C60079   7.790   1.661  11.238  0.2066 -0.3995 -0.0269
  446MOL0     C60080   7.835   1.547  11.174 -0.2610  0.1635  0.1283
  446MOL0     C60081   7.971   1.511  11.191  1.1835  0.0774  0.1140
  446MOL0     C60082   8.063   1.597  11.259  0.2664  0.8192 -0.4903
  446MOL0     O60083   8.197   1.572  11.278  0.0808  0.5499  0.4849
  446MOL0     C60084   8.226   1.446  11.322  0.1626 -0.2581  0.4647
  446MOL0     C60085   8.372   1.428  11.344 -0.7753  0.2845  0.5667
  446MOL0     C60086   8.457   1.480  11.228  0.1497 -0.6131 -0.1590
  446MOL0     C60087   8.603   1.438  11.234 -0.2141  0.0828  0.5186
  446MOL0     C60088   8.625   1.300  11.167 -0.4146 -0.8444 -0.3648
  446MOL0     C60089   8.641   1.314  11.019 -0.7868  0.6759  1.0751
  446MOL0     C60090   8.690   1.181  10.953 -0.0025 -0.7059 -0.2436
  446MOL0     C60091   8.585   1.078  10.919  0.0239 -0.2288 -0.8960
  446MOL0     N60092   8.464   1.130  10.857  0.7120 -0.0017  0.2056
  446MOL0     C60093   8.346   1.168  10.925 -0.1418 -0.6802  0.2188
  446MOL0     C60094   8.259   1.212  10.829 -0.1086 -0.4676  0.1824
  446MOL0     C60095   8.118   1.258  10.865  0.5534  0.3060 -0.2988
  446MOL0     C60096   8.099   1.408  10.835 -0.4182  0.1497  0.1487
  446MOL0     C60097   7.952   1.435  10.828 -0.3492 -0.3337 -0.4689
  446MOL0     C60098   7.919   1.591  10.823  0.2264  0.5939 -0.2347
  446MOL0     O60099   7.945   1.639  10.686  0.4771 -0.1965  0.1724
  446MOL0     C60100   7.844   1.616  10.599  0.0345  0.1320  0.2778
  446MOL0     C60101   7.718   1.681  10.613 -0.5005  0.6066 -0.0897
  446MOL0     C60102   7.620   1.645  10.515  0.4474 -0.1788 -0.7466
  446MOL0     C60103   7.645   1.562  10.404 -0.4622 -0.4098 -0.1957
  446MOL0     C60104   7.548   1.534  10.287  0.3652  0.2629  0.8015
  446MOL0     O60105   7.592   1.467  10.175  0.0954 -0.2107 -0.4013
  446MOL0     C60106   7.499   1.455  10.076  0.2210  0.4409 -0.4476
  446MOL0     C60107   7.503   1.550   9.964 -0.4096 -0.3928 -0.1074
  446MOL0     C60108   7.407   1.551   9.865 -0.2187  0.1367  0.6002
  446MOL0     C60109   7.307   1.454   9.863 -0.4784 -0.8947  0.0453
  446MOL0     O60110   7.208   1.469   9.778  0.1269 -0.1232  0.2069
  446MOL0     C60111   7.087   1.399   9.802 -0.3585 -0.2564  0.5110
  446MOL0     C60112   7.002   1.460   9.686 -0.4646 -0.2439  0.1327
  446MOL0     C60113   6.853   1.417   9.690  0.3146 -0.0431 -0.1498
  446MOL0     C60114   6.830   1.276   9.662 -0.0806 -0.2862  1.3927
  446MOL0     C60115   6.678   1.259   9.659 -0.3925  0.5376 -0.8527
  446MOL0     C60116   6.622   1.116   9.646 -0.4414  0.2383 -0.3160
  446MOL0     C60117   6.467   1.134   9.665 -0.3719 -0.2022  0.2957
  446MOL0     C60118   6.397   1.007   9.632 -0.2790  0.0872 -0.8173
  446MOL0    Cl60119   6.223   1.045   9.643  0.2424  0.2858  0.1934
  446MOL0     C60120   7.313   1.356   9.966 -0.0747  0.8362 -0.2273
  446MOL0     C60121   7.406   1.357  10.072 -0.3018 -0.0877  0.2832
  446MOL0     O60122   7.430   1.572  10.305 -0.3865  0.9792  0.0837
  446MOL0     C60123   7.771   1.496  10.403  0.4855 -1.0149 -0.0852
  446MOL0     C60124   7.865   1.524  10.499  0.5145  0.1474  0.1416
  446MOL0     N60125   8.313   1.176  10.700  0.6446 -0.6366 -0.2114
  446MOL0     N60126   8.429   1.135  10.720  0.0163 -0.3131 -0.1507
  446MOL0     C60127   8.017   1.712  11.320 -0.0433  0.0543 -0.4651
  446MOL0     C60128   7.884   1.745  11.303  0.2650  0.7221 -0.6986
  446MOL0     C60129   7.450   1.734  11.116 -0.3764  0.4524 -0.4907
  446MOL0     C60130   7.378   1.675  11.008 -0.0750 -0.6244  0.2379
  446MOL0     C60131   7.237   1.687  11.005 -0.2681 -0.5228  0.2012
  446MOL0     C60132   7.169   1.742  11.118 -0.7657  0.4221  0.5843
  446MOL0     O60133   7.031   1.722  11.141  0.0453 -0.4347 -0.1012
  446MOL0     C60134   6.936   1.745  11.033  0.7013  0.0604  0.0370
  446MOL0     C60135   6.928   1.896  11.001 -0.5614  0.7443 -0.3427
  446MOL0     C60136   6.835   1.917  10.889 -0.1396  0.1087  0.2039
  446MOL0     C60137   6.830   2.062  10.857  0.0472 -0.3207 -0.1769
  446MOL0     C60138   6.748   2.073  10.742  0.7104  0.1293 -0.5468
  446MOL0     C60139   6.656   2.063  10.665 -0.4869  0.9292  0.1060
  446MOL0     C60140   7.237   1.784  11.227  0.1519  0.5198 -0.2097
  446MOL0     C60141   7.375   1.791  11.231 -1.1622  0.3153 -0.4276
  446MOL0     C60142   7.445   1.882  11.334 -0.0319  0.1648  0.6878
  446MOL0     H60143   7.765   1.476  11.131  2.0635 -0.0960 -3.6337
  446MOL0     H60144   8.018   1.418  11.162  1.3582  0.0985  0.3240
  446MOL0     H60145   8.165   1.431  11.411  1.0417 -0.7529  1.0031
  446MOL0     H60146   8.202   1.378  11.240  0.1142 -1.2001  1.2439
  446MOL0     H60147   8.388   1.321  11.333 -0.1977  0.3262  0.9681
  446MOL0     H60148   8.407   1.475  11.437 -2.2272  1.9468  0.3331
  446MOL0     H60149   8.462   1.589  11.224 -0.8386 -0.5799 -1.0206
  446MOL0     H60150   8.411   1.454  11.132  0.8127  0.3285 -0.7463
  446MOL0     H60151   8.666   1.515  11.188  0.7566 -0.6411  0.6078
  446MOL0     H60152   8.637   1.434  11.337 -0.8922 -1.4341  0.7077
  446MOL0     H60153   8.720   1.258  11.199 -0.3038  0.1246  0.6174
  446MOL0     H60154   8.541   1.233  11.189 -0.9706  0.2730  1.0846
  446MOL0     H60155   8.551   1.346  10.967 -1.1072 -0.4137  0.9300
  446MOL0     H60156   8.715   1.394  11.005  1.0799 -0.5918  2.9864
  446MOL0     H60157   8.766   1.139  11.019 -0.4349  3.1099  3.1022
  446MOL0     H60158   8.737   1.209  10.859  0.5331  1.3840  0.5937
  446MOL0     H60159   8.631   1.011  10.846 -0.7901 -0.5613 -1.1064
  446MOL0     H60160   8.563   1.026  11.013 -0.7397  0.4461 -0.6843
  446MOL0     H60161   8.332   1.182  11.032 -0.5393  1.6715 -0.0915
  446MOL0     H60162   8.049   1.194  10.810  0.2878  0.1548  0.1996
  446MOL0     H60163   8.107   1.239  10.973 -2.3271  0.8138 -0.4178
  446MOL0     H60164   8.166   1.461  10.904  3.4565 -2.8542 -0.9405
  446MOL0     H60165   8.143   1.427  10.737  5.9692 -1.9371  2.0441
  446MOL0     H60166   7.903   1.406  10.921  0.0278  2.3898  0.6702
  446MOL0     H60167   7.906   1.387  10.741  0.6247 -0.4646 -0.9219
  446MOL0     H60168   7.961   1.645  10.908  1.1487 -0.1038 -0.2306
  446MOL0     H60169   7.811   1.603  10.839  0.2094  1.1027 -0.7050
  446MOL0     H60170   7.699   1.755  10.690  1.6183  1.6976 -0.5275
  446MOL0     H60171   7.518   1.681  10.524 -0.5102 -2.9931  1.0148
  446MOL0     H60172   7.578   1.628   9.974  0.6562 -1.4858  0.7654
  446MOL0     H60173   7.418   1.629   9.791 -2.4127  0.4565  0.5620
  446MOL0     H60174   7.105   1.295   9.775 -1.4094 -0.4809  0.6454
  446MOL0     H60175   7.057   1.424   9.903  0.4947 -0.7254  0.8954
  446MOL0     H60176   7.001   1.569   9.687 -1.7372 -0.2069 -1.5884
  446MOL0     H60177   7.040   1.427   9.589 -1.9606  0.3433 -0.6786
  446MOL0     H60178   6.817   1.439   9.791  0.3971 -1.5672  0.2247
  446MOL0     H60179   6.795   1.472   9.615  1.0950 -2.1101 -2.4144
  446MOL0     H60180   6.882   1.212   9.734  2.0794 -1.3272 -0.9289
  446MOL0     H60181   6.879   1.249   9.568  1.6563  3.5553  0.9985
  446MOL0     H60182   6.631   1.321   9.582 -0.4986  2.2819  0.5781
  446MOL0     H60183   6.645   1.289   9.758  1.8698 -0.7069  0.3685
  446MOL0     H60184   6.644   1.086   9.543  1.0814 -2.7079  0.7428
  446MOL0     H60185   6.671   1.046   9.715 -0.2263  0.5826 -0.1204
  446MOL0     H60186   6.429   1.216   9.605  2.3138  1.5279  0.7864
  446MOL0     H60187   6.465   1.165   9.770  0.6184 -0.9693  0.5662
  446MOL0     H60188   6.423   0.959   9.537 -1.7436 -2.7216  0.1197
  446MOL0     H60189   6.429   0.938   9.710 -1.0423  2.3395  1.6292
  446MOL0     H60190   7.230   1.290   9.989 -1.3735  2.9433  1.5376
  446MOL0     H60191   7.396   1.291  10.158 -1.3357  2.1002  1.9184
  446MOL0     H60192   7.794   1.435  10.317 -0.3540 -0.3911 -0.7706
  446MOL0     H60193   7.956   1.465  10.509  0.2322 -0.5073 -1.0198
  446MOL0     H60194   8.077   1.788  11.368 -0.2629  0.6941 -1.1838
  446MOL0     H60195   7.843   1.834  11.348  2.5228  0.8396  1.2943
  446MOL0     H60196   7.416   1.624  10.920 -1.4414  2.6152 -2.4715
  446MOL0     H60197   7.178   1.659  10.919 -1.9834  1.8502  0.5035
  446MOL0     H60198   6.838   1.702  11.056  0.9657  1.4242  4.8100
  446MOL0     H60199   6.969   1.693  10.942 -0.5430  0.4269 -0.6507
  446MOL0     H60200   7.026   1.943  10.985 -0.0477 -0.5104 -0.9923
  446MOL0     H60201   6.888   1.941  11.093 -0.6272  3.6861 -1.7091
  446MOL0     H60202   6.736   1.879  10.916  0.8225 -2.6021  0.1932
  446MOL0     H60203   6.867   1.858  10.802 -0.0752  0.0791  0.2482
  446MOL0     H60204   6.777   2.119  10.934 -0.5566  0.2518 -1.0063
  446MOL0     H60205   6.930   2.106  10.846 -0.1596  0.2866  0.3073
  446MOL0     H60206   6.590   2.043  10.584  0.4846 -2.8970  0.0536
  446MOL0     H60207   7.184   1.804  11.320  2.0115 -0.0035  1.0146
  446MOL0     H60208   7.360   1.936  11.377  1.4564  1.6474  1.9128
  446MOL0     H60209   7.500   1.842  11.419 -1.9050  0.0804  1.9173
  446MOL0     H60210   7.513   1.952  11.284 -1.6520  0.5228 -1.1404
  447MOL0     O60211   2.411   3.686  10.152 -0.3274  0.5338  0.7805
  447MOL0     C60212   2.386   3.589  10.219 -0.6628  0.3838 -0.0330
  447MOL0     O60213   2.483   3.497  10.263 -0.1504 -0.8025  0.6928
  447MOL0     C60214   2.604   3.501  10.216 -0.2996 -0.2891  0.6651
  447MOL0     C60215   2.651   3.394  10.125 -0.6355  0.1874 -0.0630
  447MOL0     C60216   2.787   3.389  10.086  0.4608 -0.2496  0.4232
  447MOL0     C60217   2.873   3.500  10.104  0.0332 -0.0591  1.3476
  447MOL0     O60218   2.997   3.481  10.052 -0.5173 -0.0403  0.3793
  447MOL0     C60219   3.115   3.536  10.118 -0.4129  0.1287 -0.6012
  447MOL0     C60220   3.146   3.463  10.257  0.6588  0.5249  0.1452
  447MOL0     C60221   3.185   3.316  10.215  0.0489 -0.0898  0.0289
  447MOL0     C60222   3.236   3.241  10.330 -0.6281  0.8204 -0.7958
  447MOL0     C60223   3.290   3.106  10.272  0.0422 -0.8199 -0.1726
  447MOL0     C60224   3.426   3.115  10.202 -0.2845  0.0321 -0.3709
  447MOL0     C60225   3.470   2.977  10.160 -0.1177 -0.4593 -0.2209
  447MOL0     C60226   3.605   2.967  10.093  0.0289 -1.1160  0.3080
  447MOL0     N60227   3.715   3.029  10.173  0.1697 -0.0878  0.2208
  447MOL0     C60228   3.766   2.990  10.289 -0.0502  0.1784 -1.5779
  447MOL0     C60229   3.885   3.065  10.302  0.7913  0.6533 -0.0479
  447MOL0     C60230   3.995   3.040  10.398  0.7727  1.1790  0.1119
  447MOL0     C60231   4.078   2.918  10.343 -0.1991  0.3403  0.5639
  447MOL0     C60232   4.208   2.896  10.418 -0.4774 -0.0546 -0.2203
  447MOL0     C60233   4.168   2.814  10.549  1.0674 -0.4623  0.1139
  447MOL0     O60234   4.275   2.741  10.600 -0.3710  0.2274 -0.3514
  447MOL0     C60235   4.381   2.802  10.667 -0.5203 -0.1494  0.6821
  447MOL0     C60236   4.499   2.726  10.674 -0.5222  1.0271 -0.6429
  447MOL0     C60237   4.621   2.777  10.725  0.0065  0.8298 -0.8273
  447MOL0     C60238   4.625   2.908  10.776  1.3150  0.4586  0.6402
  447MOL0     C60239   4.754   2.966  10.838  0.3778 -0.5189  0.0502
  447MOL0     O60240   4.871   2.932  10.776 -0.6415 -0.6903  0.1538
  447MOL0     C60241   4.993   2.971  10.828  1.0962 -0.4206  0.0371
  447MOL0     C60242   5.090   3.032  10.752  0.1964  0.0778  0.2579
  447MOL0     C60243   5.221   3.055  10.795 -0.2408 -0.2464 -0.3089
  447MOL0     C60244   5.253   3.024  10.931 -0.0511  0.0082 -0.6516
  447MOL0     O60245   5.376   3.039  10.991 -0.6843 -0.5130  0.1346
  447MOL0     C60246   5.471   3.110  10.917 -0.7575 -0.1378 -0.1930
  447MOL0     C60247   5.585   3.152  10.997  0.2237 -0.3899  0.6941
  447MOL0     C60248   5.687   3.045  11.008  0.6408  0.3990  0.3317
  447MOL0     C60249   5.804   3.072  11.094 -0.0616  0.4626  0.4848
  447MOL0     C60250   5.891   2.941  11.108 -0.8778  0.1628 -0.0550
  447MOL0     C60251   5.952   2.904  10.979 -0.2964 -0.0229 -0.2155
  447MOL0     C60252   6.056   2.789  10.993 -1.1214 -0.4710 -0.2751
  447MOL0     C60253   6.194   2.844  10.996 -0.3216 -0.3158 -1.0212
  447MOL0    Cl60254   6.300   2.700  11.009  0.0131  0.3213 -0.2078
  447MOL0     C60255   5.148   2.975  11.011  0.5747  0.4028 -0.7724
  447MOL0     C60256   5.019   2.946  10.961 -0.5812  0.3345  0.7356
  447MOL0     O60257   4.742   3.045  10.927 -0.4875  0.4652 -0.3376
  447MOL0     C60258   4.504   2.990  10.773 -1.1980  0.7807  0.2590
  447MOL0     C60259   4.386   2.933  10.716  0.2279  0.2466 -0.6907
  447MOL0     N60260   3.887   3.160  10.200  0.9161  0.3286 -0.1424
  447MOL0     N60261   3.791   3.136  10.126  0.9743 -0.2021  0.2193
  447MOL0     C60262   2.820   3.607  10.178  0.3316  0.3321 -0.7140
  447MOL0     C60263   2.691   3.608  10.235 -0.4649 -0.5286  0.3464
  447MOL0     C60264   2.248   3.574  10.274  0.1272  0.2853  0.0360
  447MOL0     C60265   2.191   3.440  10.296  0.6065  0.3237  0.4565
  447MOL0     C60266   2.059   3.416  10.336 -0.1604 -0.1714  0.2766
  447MOL0     C60267   1.981   3.535  10.374  0.2124 -0.1315  0.6286
  447MOL0     O60268   1.862   3.497  10.432  0.0915  0.1390 -0.5376
  447MOL0     C60269   1.754   3.600  10.443 -0.5806 -0.1045  0.3448
  447MOL0     C60270   1.684   3.621  10.312 -0.5186 -0.7347  0.8247
  447MOL0     C60271   1.537   3.669  10.325 -0.3612 -0.9970  0.2903
  447MOL0     C60272   1.470   3.659  10.191  0.1689 -0.4183 -0.3920
  447MOL0     C60273   1.324   3.696  10.213 -1.3634 -0.8564  0.8994
  447MOL0     C60274   1.219   3.718  10.254  0.1965 -0.7671 -0.1575
  447MOL0     C60275   2.031   3.665  10.360 -0.4509  0.5383  1.1199
  447MOL0     C60276   2.164   3.683  10.316 -0.0903 -0.3032 -0.8077
  447MOL0     C60277   2.204   3.828  10.312 -0.6977  0.0149 -0.2116
  447MOL0     H60278   2.590   3.307  10.100  2.1289 -1.8101 -0.2549
  447MOL0     H60279   2.818   3.300  10.033 -2.1381 -0.8120 -0.2563
  447MOL0     H60280   3.206   3.523  10.058  0.2092 -0.7461  0.4836
  447MOL0     H60281   3.101   3.644  10.125  0.2303  0.2919 -1.6770
  447MOL0     H60282   3.067   3.466  10.332  0.5499  4.9886  0.1254
  447MOL0     H60283   3.231   3.509  10.307  0.4205  1.8962 -0.6488
  447MOL0     H60284   3.254   3.315  10.131 -1.9921 -2.0432 -1.7738
  447MOL0     H60285   3.085   3.275  10.195 -1.6311  2.7388  1.8631
  447MOL0     H60286   3.319   3.302  10.365 -0.2572  1.8026 -3.2204
  447MOL0     H60287   3.163   3.222  10.410 -0.5554 -1.3498 -1.1923
  447MOL0     H60288   3.305   3.038  10.357  0.4628  0.9376  1.2318
  447MOL0     H60289   3.218   3.074  10.197 -0.2020  0.5956 -0.5766
  447MOL0     H60290   3.428   3.184  10.118  0.8381 -0.6245 -0.9066
  447MOL0     H60291   3.493   3.160  10.276  1.1021 -0.6333 -1.1826
  447MOL0     H60292   3.389   2.936  10.098  0.6223  0.6356 -2.0215
  447MOL0     H60293   3.476   2.912  10.248  2.8726 -1.5055 -1.0605
  447MOL0     H60294   3.624   2.859  10.100  0.0156 -1.1252  0.2010
  447MOL0     H60295   3.616   2.999   9.989 -1.2065 -1.8779 -0.0798
  447MOL0     H60296   3.738   2.906  10.351 -2.3170 -0.1200 -2.9287
  447MOL0     H60297   4.052   3.134  10.401  0.0752  1.5945  0.5816
  447MOL0     H60298   3.956   3.028  10.500 -1.9001  0.5388 -0.9041
  447MOL0     H60299   4.016   2.828  10.341  1.4054 -0.8134 -1.2890
  447MOL0     H60300   4.111   2.937  10.240  1.0152  0.2626  0.9242
  447MOL0     H60301   4.258   2.992  10.432 -1.2636  0.2162  0.8357
  447MOL0     H60302   4.284   2.842  10.360  0.5701  2.3483 -1.2220
  447MOL0     H60303   4.080   2.752  10.529 -0.7738  1.9863  0.1299
  447MOL0     H60304   4.132   2.881  10.629  0.3499 -0.2110 -0.4066
  447MOL0     H60305   4.492   2.623  10.641 -1.7480  0.6503  0.6937
  447MOL0     H60306   4.712   2.718  10.734 -0.8254 -0.2366  1.2358
  447MOL0     H60307   5.053   3.065  10.655  1.6140 -0.7957 -0.6231
  447MOL0     H60308   5.291   3.111  10.734  0.6288  1.8605  2.3960
  447MOL0     H60309   5.497   3.057  10.825 -0.2385  1.7457 -1.1750
  447MOL0     H60310   5.427   3.205  10.888  0.7388  0.6039 -0.1182
  447MOL0     H60311   5.634   3.240  10.954  0.9587 -1.2167 -0.2037
  447MOL0     H60312   5.547   3.189  11.093  0.2708 -0.3733  0.7063
  447MOL0     H60313   5.633   2.962  11.055  0.7945  2.1038  3.8580
  447MOL0     H60314   5.716   3.020  10.905  1.3638  1.4032  0.2856
  447MOL0     H60315   5.766   3.110  11.189 -0.1243 -1.0008  1.0708
  447MOL0     H60316   5.864   3.158  11.061  3.3114 -1.5368  0.9414
  447MOL0     H60317   5.838   2.851  11.142  1.6225 -2.4871 -2.6320
  447MOL0     H60318   5.962   2.972  11.185 -0.4424  0.7058 -0.6640
  447MOL0     H60319   5.886   2.863  10.902  1.1040 -0.2657 -1.3328
  447MOL0     H60320   6.008   2.991  10.943  0.2184  0.0076  0.6290
  447MOL0     H60321   6.038   2.732  10.902  1.3488 -1.8246  0.0011
  447MOL0     H60322   6.031   2.723  11.076 -0.2494 -1.6277 -0.9035
  447MOL0     H60323   6.222   2.900  10.906 -0.6205  4.3397  1.4534
  447MOL0     H60324   6.208   2.919  11.074 -0.2676  0.9888 -2.2450
  447MOL0     H60325   5.167   2.932  11.109  4.1514  0.4712 -1.3108
  447MOL0     H60326   4.943   2.907  11.028 -2.3573  0.0769 -1.3259
  447MOL0     H60327   4.522   3.090  10.812  2.4117  0.5646 -0.4597
  447MOL0     H60328   4.296   2.993  10.709 -1.3908 -1.6993  1.7904
  447MOL0     H60329   2.871   3.698  10.208  0.4673 -0.2269  0.8390
  447MOL0     H60330   2.653   3.696  10.285 -0.0874 -0.7227  0.9814
  447MOL0     H60331   2.251   3.350  10.291 -3.0432 -2.3211  0.3622
  447MOL0     H60332   2.010   3.319  10.332  0.2088 -0.3872  0.7853
  447MOL0     H60333   1.778   3.700  10.480  5.1001 -0.5663 -1.1208
  447MOL0     H60334   1.693   3.558  10.524  1.1116  3.4844  3.7882
  447MOL0     H60335   1.698   3.526  10.260  0.5148 -1.5109  2.4159
  447MOL0     H60336   1.740   3.695  10.256 -2.2972 -2.0701 -3.0406
  447MOL0     H60337   1.534   3.774  10.355 -4.5904 -1.4933  2.3750
  447MOL0     H60338   1.479   3.627  10.407 -0.0995 -0.2197  0.8907
  447MOL0     H60339   1.522   3.725  10.121  1.4525 -0.4543  0.4842
  447MOL0     H60340   1.469   3.560  10.143 -2.9654  0.9049 -3.4921
  447MOL0     H60341   1.118   3.732  10.287  0.1833 -0.1987 -0.4280
  447MOL0     H60342   1.982   3.749  10.408  0.9115  0.6686  2.3722
  447MOL0     H60343   2.127   3.888  10.261 -0.1864  0.9935  0.1406
  447MOL0     H60344   2.212   3.867  10.414  0.8040 -0.7469 -0.0160
  447MOL0     H60345   2.301   3.847  10.265  1.0830 -4.3722  1.1695
  448MOL0     O60346   3.015   7.523   5.878  0.0774 -0.7453 -0.5770
  448MOL0     C60347   2.919   7.562   5.814 -1.1280 -0.4058  0.1026
  448MOL0     O60348   2.930   7.621   5.688  0.1188  0.3734 -0.7385
  448MOL0     C60349   3.045   7.576   5.620  0.1707 -0.2941  0.0089
  448MOL0     C60350   3.044   7.454   5.549 -0.1743 -0.0263  0.0192
  448MOL0     C60351   3.162   7.396   5.490 -0.7700 -1.5807 -0.8769
  448MOL0     C60352   3.288   7.467   5.502 -0.0188 -0.9960  0.5743
  448MOL0     O60353   3.402   7.429   5.443 -0.3079  0.3417 -0.7669
  448MOL0     C60354   3.405   7.335   5.335  0.3463 -0.1795  0.8253
  448MOL0     C60355   3.540   7.319   5.272  0.3609 -0.5962  0.2867
  448MOL0     C60356   3.632   7.251   5.369  1.1548 -0.5616 -0.5878
  448MOL0     C60357   3.755   7.185   5.309 -0.5341  0.3483  0.5752
  448MOL0     C60358   3.861   7.161   5.421  0.5967  0.3813 -0.2642
  448MOL0     C60359   3.989   7.084   5.366 -0.2150  0.4606  0.1306
  448MOL0     C60360   4.074   7.025   5.478 -0.2686  0.5244  0.6614
  448MOL0     C60361   4.134   7.151   5.561 -0.0787 -0.2335  0.5667
  448MOL0     N60362   4.243   7.119   5.652 -0.3552  0.6879 -0.0508
  448MOL0     C60363   4.364   7.072   5.609 -0.2047  0.4388  0.4257
  448MOL0     C60364   4.444   7.064   5.717  0.0541  0.4790 -0.6168
  448MOL0     C60365   4.563   6.980   5.723 -0.6190 -0.1593  0.7797
  448MOL0     C60366   4.687   7.055   5.742  0.2066 -0.4713  0.4179
  448MOL0     C60367   4.799   6.962   5.795  0.2798 -0.5030  0.1748
  448MOL0     C60368   4.915   7.045   5.848 -0.2581 -0.6193  0.7138
  448MOL0     O60369   5.001   6.952   5.934  0.6514  0.3965  0.2251
  448MOL0     C60370   5.129   6.983   5.935 -0.4029 -0.4332 -0.3956
  448MOL0     C60371   5.220   6.886   5.953 -0.7650  0.1318  0.3119
  448MOL0     C60372   5.357   6.908   5.948 -0.9867  0.3125  0.2610
  448MOL0     C60373   5.402   7.045   5.939 -0.0220 -0.1357  0.4102
  448MOL0     C60374   5.545   7.076   5.941 -0.0672 -0.2776  0.1605
  448MOL0     O60375   5.629   6.981   5.896  0.5358 -0.7318  0.2166
  448MOL0     C60376   5.759   6.999   5.923  0.6704  0.1937 -0.4354
  448MOL0     C60377   5.807   6.902   6.014  1.2969  0.4646  0.4406
  448MOL0     C60378   5.942   6.908   6.046 -0.3499 -0.0301  0.3335
  448MOL0     C60379   6.022   7.010   6.003 -0.6249  0.4329 -0.4350
  448MOL0     O60380   6.154   7.021   6.057 -0.0559 -0.0220  0.3213
  448MOL0     C60381   6.250   7.056   5.956 -0.0698  0.5643  0.4200
  448MOL0     C60382   6.394   7.017   6.001  0.7397 -0.5852  0.3957
  448MOL0     C60383   6.499   7.114   5.941 -0.1629 -0.4278 -0.4232
  448MOL0     C60384   6.543   7.081   5.802  0.2328  0.1711  0.4161
  448MOL0     C60385   6.634   7.187   5.737  0.1730 -0.4541 -0.4230
  448MOL0     C60386   6.571   7.327   5.709  0.5449 -0.0534  0.1362
  448MOL0     C60387   6.469   7.315   5.595  0.0485 -0.1219 -0.3728
  448MOL0     C60388   6.379   7.439   5.585  0.0937  0.4357  0.5059
  448MOL0    Cl60389   6.469   7.565   5.499 -0.0567  0.4223 -0.0110
  448MOL0     C60390   5.975   7.092   5.906 -0.6610 -0.3530 -0.0310
  448MOL0     C60391   5.846   7.087   5.862  0.8065 -0.0546 -0.5081
  448MOL0     O60392   5.574   7.193   5.974  0.4978  0.1249  0.0044
  448MOL0     C60393   5.306   7.149   5.920 -0.0323  0.2038  0.9204
  448MOL0     C60394   5.169   7.116   5.916 -0.3932  0.1780 -0.0586
  448MOL0     N60395   4.376   7.116   5.826  0.5840  0.7186  0.4993
  448MOL0     N60396   4.253   7.148   5.788  0.0758  0.4118 -0.8400
  448MOL0     C60397   3.278   7.593   5.563 -0.6126 -0.4663 -0.5347
  448MOL0     C60398   3.165   7.649   5.624  0.0685 -0.1186  0.0673
  448MOL0     C60399   2.791   7.579   5.885  0.2471  0.3311 -0.2404
  448MOL0     C60400   2.694   7.656   5.823 -0.1651 -0.3113  0.2782
  448MOL0     C60401   2.576   7.695   5.877 -0.0754  0.0497 -1.4600
  448MOL0     C60402   2.536   7.639   6.000 -0.1809 -0.2047 -0.5558
  448MOL0     O60403   2.416   7.664   6.071  0.0114 -0.0253 -0.4295
  448MOL0     C60404   2.300   7.688   5.984  0.2455  0.2327  0.1967
  448MOL0     C60405   2.185   7.705   6.081  0.2678 -0.3190  0.4363
  448MOL0     C60406   2.056   7.728   6.004  0.0344 -0.6590  0.1241
  448MOL0     C60407   1.972   7.605   6.012 -0.4619 -0.3329  1.1532
  448MOL0     C60408   1.860   7.616   5.915 -0.1128  0.0079 -0.3242
  448MOL0     C60409   1.772   7.606   5.832 -0.2439 -0.1616  0.1273
  448MOL0     C60410   2.624   7.557   6.072 -0.2997  0.5742 -0.6685
  448MOL0     C60411   2.750   7.525   6.014  0.1156 -0.0883  0.1474
  448MOL0     C60412   2.837   7.432   6.098  0.1635  0.3819  0.8853
  448MOL0     H60413   2.948   7.403   5.545  0.8733 -2.0582 -0.5413
  448MOL0     H60414   3.156   7.296   5.448 -2.3844 -1.2877 -1.3950
  448MOL0     H60415   3.368   7.238   5.371  1.6474 -1.5621 -1.3551
  448MOL0     H60416   3.333   7.377   5.264 -0.3793 -0.8928  1.1255
  448MOL0     H60417   3.580   7.420   5.252  1.5541 -1.1205 -0.0699
  448MOL0     H60418   3.547   7.259   5.181  4.1458 -2.6488  1.6951
  448MOL0     H60419   3.580   7.170   5.420  0.8916 -0.2714 -0.3972
  448MOL0     H60420   3.666   7.326   5.441  0.9383  2.0823 -3.0680
  448MOL0     H60421   3.730   7.088   5.264 -1.1374  0.6303  0.3008
  448MOL0     H60422   3.801   7.251   5.235  1.8397 -0.9758  0.7672
  448MOL0     H60423   3.887   7.255   5.470  0.5377  0.5830 -0.6213
  448MOL0     H60424   3.801   7.103   5.492 -0.3393  2.5431  0.7902
  448MOL0     H60425   3.956   7.007   5.295  0.2115  0.9598 -0.6183
  448MOL0     H60426   4.044   7.161   5.313 -0.3216  1.6319  1.6668
  448MOL0     H60427   4.148   6.959   5.432 -0.3917  1.3165 -0.7195
  448MOL0     H60428   4.007   6.957   5.531  1.0071 -2.3445 -1.1685
  448MOL0     H60429   4.163   7.230   5.492  0.1567 -1.1279 -0.3775
  448MOL0     H60430   4.056   7.200   5.621 -0.7913 -0.3751 -0.2235
  448MOL0     H60431   4.381   7.045   5.506  0.5594  2.2358  0.0390
  448MOL0     H60432   4.549   6.898   5.794  0.7243  0.8217  2.2402
  448MOL0     H60433   4.584   6.939   5.624  1.0110 -0.9815  1.4280
  448MOL0     H60434   4.722   7.106   5.652 -2.5081 -0.5363 -0.7777
  448MOL0     H60435   4.674   7.130   5.821 -0.2236 -1.6246  1.4725
  448MOL0     H60436   4.819   6.886   5.719 -1.7321  0.1022 -1.0263
  448MOL0     H60437   4.773   6.914   5.890  2.4288  2.7650  2.6704
  448MOL0     H60438   4.870   7.118   5.916 -1.2125 -0.7538  0.2392
  448MOL0     H60439   4.962   7.102   5.767 -2.3887  0.0625 -0.1105
  448MOL0     H60440   5.179   6.786   5.956 -0.9379  0.2203  1.0723
  448MOL0     H60441   5.438   6.836   5.945 -1.3144 -0.0543  0.1261
  448MOL0     H60442   5.750   6.814   6.044  1.8604  0.0463  0.2997
  448MOL0     H60443   5.976   6.840   6.124 -1.5212 -1.6522 -0.5207
  448MOL0     H60444   6.228   7.015   5.856  0.7554  2.4298 -0.5747
  448MOL0     H60445   6.254   7.163   5.936  0.8655  0.4227 -0.1914
  448MOL0     H60446   6.401   7.042   6.107  0.8893  2.1459 -0.1753
  448MOL0     H60447   6.411   6.912   5.978 -0.1812 -0.4400 -1.0618
  448MOL0     H60448   6.466   7.217   5.957  3.3215  0.5322  1.5341
  448MOL0     H60449   6.588   7.110   6.004 -0.1439  3.8250  0.0698
  448MOL0     H60450   6.464   7.057   5.730  3.8664 -3.3652 -2.9124
  448MOL0     H60451   6.587   6.982   5.815 -0.0934 -0.2503 -1.4482
  448MOL0     H60452   6.664   7.145   5.641 -1.4387  1.2719 -1.7386
  448MOL0     H60453   6.724   7.187   5.799  0.8963 -0.8925 -1.4430
  448MOL0     H60454   6.536   7.367   5.804  1.6676  1.8105 -0.1720
  448MOL0     H60455   6.650   7.392   5.671 -0.2563 -1.2174 -4.1372
  448MOL0     H60456   6.411   7.223   5.608  0.1612 -0.1704 -0.2182
  448MOL0     H60457   6.524   7.303   5.501 -1.9288  0.0512 -1.6026
  448MOL0     H60458   6.290   7.424   5.522  0.1309  3.1398 -0.3351
  448MOL0     H60459   6.348   7.468   5.685 -1.0008 -0.0614  0.3284
  448MOL0     H60460   6.032   7.170   5.858  0.6047 -1.4188 -0.3183
  448MOL0     H60461   5.811   7.166   5.797 -0.2874  0.6707  0.9047
  448MOL0     H60462   5.337   7.252   5.910 -1.4286  0.5621 -0.1039
  448MOL0     H60463   5.101   7.201   5.913  0.5842  0.9784 -0.5098
  448MOL0     H60464   3.375   7.639   5.573 -0.9129  0.1817 -0.5625
  448MOL0     H60465   3.170   7.744   5.676 -0.3009  0.4359 -0.8678
  448MOL0     H60466   2.719   7.687   5.722 -0.4888 -0.1152  0.2587
  448MOL0     H60467   2.511   7.772   5.836  2.2817  2.6256 -0.6708
  448MOL0     H60468   2.289   7.594   5.928  0.9246 -0.2957  0.9205
  448MOL0     H60469   2.319   7.771   5.915  0.8441  0.2477  0.3685
  448MOL0     H60470   2.203   7.791   6.147  1.0614  0.8064 -1.1866
  448MOL0     H60471   2.175   7.616   6.144  0.8264 -2.3032 -2.1160
  448MOL0     H60472   2.070   7.767   5.903 -0.3198  4.4180  1.7102
  448MOL0     H60473   2.005   7.801   6.068 -1.1721 -1.3836  0.0153
  448MOL0     H60474   2.031   7.521   5.976  2.6656  3.4976 -4.1733
  448MOL0     H60475   1.935   7.575   6.110 -0.9720 -1.0695  0.7460
  448MOL0     H60476   1.697   7.571   5.764  1.0830  0.2445 -1.6125
  448MOL0     H60477   2.593   7.510   6.165 -0.0850 -0.6301 -1.1762
  448MOL0     H60478   2.866   7.357   6.024 -1.2470  1.6753 -1.0898
  448MOL0     H60479   2.930   7.478   6.133 -0.3405  2.2368 -0.0396
  448MOL0     H60480   2.774   7.393   6.179 -1.7161  0.0621 -0.6356
  449MOL0     O60481   3.498   7.488   4.035  0.7199  0.1370 -0.3296
  449MOL0     C60482   3.493   7.391   4.115  0.1301 -0.8607  0.0038
  449MOL0     O60483   3.373   7.326   4.140 -0.0618  0.0333 -0.0226
  449MOL0     C60484   3.255   7.386   4.090  0.1785  0.1383 -0.8362
  449MOL0     C60485   3.201   7.360   3.964 -0.5518 -0.5229 -0.0180
  449MOL0     C60486   3.090   7.433   3.912  0.3321  0.4635 -0.1517
  449MOL0     C60487   3.024   7.519   3.998 -0.4171  0.1780 -0.5486
  449MOL0     O60488   2.905   7.567   3.954  0.6671 -0.4524  0.3049
  449MOL0     C60489   2.905   7.702   3.900 -0.4895  0.9671 -0.6044
  449MOL0     C60490   2.775   7.778   3.916 -0.9639  0.3032 -0.1057
  449MOL0     C60491   2.732   7.818   4.056  0.1561 -0.0632 -0.2617
  449MOL0     C60492   2.593   7.852   4.068  0.9129  0.4869  0.5966
  449MOL0     C60493   2.539   7.862   4.215  0.1354  0.5372 -0.7762
  449MOL0     C60494   2.394   7.884   4.225 -0.5257  0.0132  0.0927
  449MOL0     C60495   2.340   7.943   4.361 -0.2126 -0.2503  0.2054
  449MOL0     C60496   2.330   7.842   4.476  0.2443  0.6122 -0.4998
  449MOL0     N60497   2.244   7.725   4.450  0.5086  0.0988  0.2414
  449MOL0     C60498   2.299   7.597   4.436  0.1197 -0.1903 -0.2081
  449MOL0     C60499   2.196   7.513   4.437  0.3082 -0.0588  0.6260
  449MOL0     C60500   2.208   7.361   4.440 -0.2322  0.3938 -0.4009
  449MOL0     C60501   2.197   7.298   4.306 -0.0034 -0.2361  0.3209
  449MOL0     C60502   2.201   7.145   4.312  1.2595 -0.1917  1.0978
  449MOL0     C60503   2.210   7.098   4.168 -0.1305 -0.2940  0.0398
  449MOL0     O60504   2.175   6.957   4.155 -0.7414  0.0532  0.8249
  449MOL0     C60505   2.284   6.876   4.167 -0.4025  0.0142 -0.4598
  449MOL0     C60506   2.314   6.823   4.293 -0.4893  0.0193 -0.0593
  449MOL0     C60507   2.417   6.733   4.310 -0.2019  0.3435 -0.5099
  449MOL0     C60508   2.487   6.683   4.197 -0.2589  0.0572 -0.2540
  449MOL0     C60509   2.582   6.571   4.217 -0.4639 -0.1223 -0.4056
  449MOL0     O60510   2.670   6.554   4.116  0.6592 -0.3070  0.5178
  449MOL0     C60511   2.777   6.475   4.119 -0.7035  1.1235 -0.9512
  449MOL0     C60512   2.816   6.430   3.998 -0.2994 -0.2966  0.5699
  449MOL0     C60513   2.927   6.352   3.978  0.1837 -0.4158  0.7295
  449MOL0     C60514   3.006   6.312   4.083  0.8219 -0.5481 -0.1488
  449MOL0     O60515   3.118   6.229   4.077  0.1450 -0.3207  0.8381
  449MOL0     C60516   3.130   6.146   3.961 -0.2846  0.6111 -0.0215
  449MOL0     C60517   3.274   6.103   3.945 -0.1276  0.3381  0.0044
  449MOL0     C60518   3.329   6.007   4.050 -1.0479 -0.3280  0.1698
  449MOL0     C60519   3.489   5.998   4.042  0.4065 -0.1614 -0.3297
  449MOL0     C60520   3.556   5.920   4.154  0.1098  0.4072  0.4945
  449MOL0     C60521   3.705   5.944   4.153  0.0677 -0.2249  0.1627
  449MOL0     C60522   3.788   5.859   4.051  0.2084 -0.2693 -0.5180
  449MOL0     C60523   3.926   5.818   4.099 -0.3549 -0.0050 -0.2313
  449MOL0    Cl60524   4.004   5.713   3.972 -0.2129  0.1053 -0.1763
  449MOL0     C60525   2.971   6.352   4.211 -1.3329  0.2643  0.4535
  449MOL0     C60526   2.861   6.434   4.228 -0.3228 -0.1901  0.2609
  449MOL0     O60527   2.559   6.488   4.305  0.1353 -0.1591 -0.0388
  449MOL0     C60528   2.457   6.734   4.075 -0.5908 -0.1790 -0.7278
  449MOL0     C60529   2.362   6.840   4.062  0.1832  0.2544 -0.4412
  449MOL0     N60530   2.079   7.586   4.435 -0.1989 -0.1638 -0.2212
  449MOL0     N60531   2.106   7.720   4.443  0.0864 -0.1451  0.2747
  449MOL0     C60532   3.094   7.563   4.111  0.9037  0.6977 -0.1463
  449MOL0     C60533   3.201   7.487   4.164  0.1799 -0.6986 -0.4192
  449MOL0     C60534   3.617   7.328   4.174  0.1111  0.2460  0.1109
  449MOL0     C60535   3.591   7.209   4.245 -0.7821  0.1373 -0.7909
  449MOL0     C60536   3.684   7.145   4.320 -2.0280 -0.2998  0.2936
  449MOL0     C60537   3.819   7.184   4.307 -0.2024  0.0523 -0.3035
  449MOL0     O60538   3.925   7.111   4.371  0.1176 -0.0846 -0.0546
  449MOL0     C60539   4.015   7.185   4.457  0.1764 -0.0287 -0.7755
  449MOL0     C60540   4.138   7.093   4.502 -0.7819 -0.3340  0.3623
  449MOL0     C60541   4.216   7.032   4.384 -0.3170  0.1238 -0.1416
  449MOL0     C60542   4.274   6.892   4.423  0.2480  0.6837 -0.0966
  449MOL0     C60543   4.346   6.881   4.553 -0.5702  0.2674 -0.6049
  449MOL0     C60544   4.433   6.867   4.635  0.2341  0.9047  0.0222
  449MOL0     C60545   3.848   7.302   4.241  0.0446 -0.1176  1.0902
  449MOL0     C60546   3.750   7.384   4.176 -0.1683 -0.7941 -0.5770
  449MOL0     C60547   3.776   7.511   4.099  0.6409  0.1527 -0.5853
  449MOL0     H60548   3.262   7.295   3.902 -0.3622 -0.7400  0.3901
  449MOL0     H60549   3.040   7.414   3.818 -1.7228  0.4016  0.9023
  449MOL0     H60550   2.990   7.757   3.942  1.0234 -1.7122  0.0310
  449MOL0     H60551   2.931   7.691   3.794  2.6984 -3.2337  0.3696
  449MOL0     H60552   2.694   7.712   3.883 -0.5044 -0.6097  0.5398
  449MOL0     H60553   2.774   7.861   3.845 -0.8535 -0.6533 -1.2741
  449MOL0     H60554   2.779   7.913   4.082 -1.2214  0.8285 -0.9001
  449MOL0     H60555   2.758   7.741   4.130 -1.5418  1.0574  1.5931
  449MOL0     H60556   2.563   7.943   4.016 -2.1175  0.1579  1.5709
  449MOL0     H60557   2.535   7.776   4.014  4.2771  0.4931 -3.5369
  449MOL0     H60558   2.564   7.764   4.258 -2.0570  0.0440 -0.4935
  449MOL0     H60559   2.591   7.948   4.257  1.0463  0.4832 -1.7597
  449MOL0     H60560   2.370   7.950   4.141 -1.1250 -2.1122 -1.4784
  449MOL0     H60561   2.344   7.791   4.199 -1.1160 -0.0759  1.4461
  449MOL0     H60562   2.243   7.991   4.342  0.0175 -0.4079 -1.4538
  449MOL0     H60563   2.396   8.036   4.376 -1.6732  0.5728  0.7698
  449MOL0     H60564   2.431   7.804   4.495  0.4471  1.3546 -0.0209
  449MOL0     H60565   2.294   7.891   4.567  0.0084 -3.3110  1.7444
  449MOL0     H60566   2.405   7.576   4.433  0.2449  0.4930 -1.4935
  449MOL0     H60567   2.299   7.328   4.492  0.2641  0.1063 -1.4264
  449MOL0     H60568   2.133   7.325   4.511 -3.2302  2.3148 -2.3651
  449MOL0     H60569   2.114   7.344   4.250  1.3293  0.5873 -1.0650
  449MOL0     H60570   2.292   7.320   4.258  0.3405 -2.4895 -0.1302
  449MOL0     H60571   2.108   7.111   4.359  1.1408 -2.4788 -0.6003
  449MOL0     H60572   2.273   7.095   4.377 -0.3278 -4.0842  0.1370
  449MOL0     H60573   2.306   7.125   4.122 -0.8148  2.1652 -0.0494
  449MOL0     H60574   2.130   7.150   4.116  0.0800 -0.6035 -0.6053
  449MOL0     H60575   2.255   6.868   4.372 -1.5526  1.1591 -1.4545
  449MOL0     H60576   2.451   6.697   4.406 -0.6780  0.8561 -0.1389
  449MOL0     H60577   2.757   6.453   3.910  0.3619  1.3810  0.5363
  449MOL0     H60578   2.961   6.329   3.878  1.4542  0.1156  1.0184
  449MOL0     H60579   3.062   6.062   3.973 -0.4896  0.9314  1.2128
  449MOL0     H60580   3.111   6.208   3.873  0.2727  0.6463 -0.1208
  449MOL0     H60581   3.278   6.044   3.853  1.0819 -0.8146  0.7569
  449MOL0     H60582   3.340   6.191   3.935  1.8016 -0.7160  2.3605
  449MOL0     H60583   3.305   6.047   4.149 -0.9063 -1.0811  0.5159
  449MOL0     H60584   3.287   5.906   4.043 -0.3579 -0.6463  0.5285
  449MOL0     H60585   3.522   6.102   4.042  1.6100 -0.4887 -2.3227
  449MOL0     H60586   3.525   5.962   3.945 -0.7124  2.4067 -1.7850
  449MOL0     H60587   3.535   5.814   4.165  0.0545  0.3985  0.3187
  449MOL0     H60588   3.509   5.965   4.242 -0.9918 -1.3543  0.8512
  449MOL0     H60589   3.725   6.051   4.140 -0.2542 -0.4370 -2.6890
  449MOL0     H60590   3.740   5.921   4.254  0.4761  2.5544  0.7468
  449MOL0     H60591   3.795   5.937   3.973 -1.0299  2.0234  1.5115
  449MOL0     H60592   3.728   5.775   4.015  0.0474 -0.3373 -0.0886
  449MOL0     H60593   3.983   5.911   4.109 -2.2049  1.1327  0.2062
  449MOL0     H60594   3.920   5.773   4.198  1.7102 -0.8735 -0.4461
  449MOL0     H60595   3.045   6.332   4.287  0.0454  3.6703  0.1928
  449MOL0     H60596   2.834   6.465   4.328 -2.9265  1.6207 -0.9103
  449MOL0     H60597   2.510   6.706   3.985  2.0913  2.3265 -0.0891
  449MOL0     H60598   2.327   6.872   3.964  0.9963 -1.8361 -1.4933
  449MOL0     H60599   3.051   7.643   4.170 -0.8180 -0.3319  0.0524
  449MOL0     H60600   3.265   7.516   4.247  3.1636  1.8827 -3.3241
  449MOL0     H60601   3.494   7.162   4.251 -2.4304  3.1835 -1.8121
  449MOL0     H60602   3.670   7.049   4.367  1.8320 -0.9515  0.4080
  449MOL0     H60603   3.967   7.215   4.551 -2.2619  0.5940 -2.1156
  449MOL0     H60604   4.054   7.275   4.410  3.1489  0.3239  2.0469
  449MOL0     H60605   4.103   7.017   4.572 -1.2203 -1.6747 -1.2391
  449MOL0     H60606   4.199   7.169   4.553  0.2737  0.9723 -2.6002
  449MOL0     H60607   4.290   7.102   4.343  1.5318 -0.8706  1.3317
  449MOL0     H60608   4.145   7.004   4.307 -1.7033 -0.4459  1.2813
  449MOL0     H60609   4.186   6.827   4.428 -0.0656  1.2005  1.6713
  449MOL0     H60610   4.341   6.872   4.339  0.5377  2.2799 -0.2700
  449MOL0     H60611   4.503   6.859   4.716 -0.5966  2.9475  0.9977
  449MOL0     H60612   3.952   7.333   4.238 -0.8533  3.2715  0.5491
  449MOL0     H60613   3.765   7.485   3.993 -2.4021  0.1390 -0.3492
  449MOL0     H60614   3.710   7.596   4.116 -0.8961 -0.7776 -1.5605
  449MOL0     H60615   3.872   7.559   4.119 -0.7445  1.9546  2.2877
  450MOL0     O60616   7.808   4.750  10.908 -0.1313  0.1416  0.1791
  450MOL0     C60617   7.725   4.732  10.824 -0.2067 -0.1023 -0.5521
  450MOL0     O60618   7.725   4.631  10.732 -0.5870 -0.1531  0.3169
  450MOL0     C60619   7.847   4.578  10.695  0.2595 -0.7218 -0.0473
  450MOL0     C60620   7.871   4.586  10.557 -0.0527 -0.1833  0.4094
  450MOL0     C60621   7.984   4.526  10.501 -0.6208  0.6753  0.0567
  450MOL0     C60622   8.067   4.451  10.580 -0.3755  0.6176 -0.3539
  450MOL0     O60623   8.181   4.386  10.531 -0.0068  0.0017  0.8230
  450MOL0     C60624   8.198   4.367  10.390  0.2995 -1.4528 -0.1713
  450MOL0     C60625   8.346   4.325  10.381  0.0487  0.4745 -0.6283
  450MOL0     C60626   8.383   4.281  10.241  0.0415 -0.3003  0.5915
  450MOL0     C60627   8.536   4.273  10.246 -0.1276  0.0220  0.1061
  450MOL0     C60628   8.585   4.281  10.102 -0.1227  0.1864 -0.0922
  450MOL0     C60629   8.736   4.314  10.102  0.7152 -0.2512  0.4976
  450MOL0     C60630   8.792   4.325   9.958  0.1530  0.3161  0.1475
  450MOL0     C60631   8.943   4.384   9.948  0.2767  0.2547  0.4373
  450MOL0     N60632   9.046   4.329  10.046 -0.0030 -0.0695  0.6499
  450MOL0     C60633   9.051   4.192  10.077 -0.4645  0.3527  0.5219
  450MOL0     C60634   9.166   4.191  10.154  0.0790  0.6608  0.9065
  450MOL0     C60635   9.219   4.058  10.209 -0.5597 -0.1283  0.0290
  450MOL0     C60636   9.352   4.017  10.145 -0.3210 -0.1621 -0.8079
  450MOL0     C60637   9.480   4.109  10.171  0.7262  0.5806 -1.2217
  450MOL0     C60638   9.598   4.046  10.108 -0.8847 -0.8895 -0.8370
  450MOL0     O60639   9.655   4.142  10.010 -0.7506 -0.2972 -0.6029
  450MOL0     C60640   9.791   4.155  10.001  0.5547  0.5598 -0.6041
  450MOL0     C60641   9.874   4.047   9.975 -0.0238 -1.0890  0.6973
  450MOL0     C60642  10.007   4.075   9.965 -0.8585  0.5041 -0.3024
  450MOL0     C60643  10.061   4.209   9.981  0.2782  0.2086 -1.2835
  450MOL0     C60644  10.210   4.234   9.970  1.1614 -0.2303 -0.1735
  450MOL0     O60645  10.295   4.133   9.944 -0.5012  0.4958  0.7631
  450MOL0     C60646  10.433   4.154   9.976 -0.4516 -0.0723 -0.9243
  450MOL0     C60647  10.488   4.081  10.082  0.5297 -0.0093 -0.1055
  450MOL0     C60648  10.622   4.099  10.113 -0.6790  0.3570 -0.5519
  450MOL0     C60649  10.707   4.181  10.039 -0.1429 -0.5715 -0.5620
  450MOL0     O60650  10.830   4.195  10.082 -0.3527  0.5176  0.2387
  450MOL0     C60651  10.922   4.263   9.996  0.7768  0.1672 -0.5034
  450MOL0     C60652  10.899   4.407  10.034  0.2170 -0.1611 -0.2192
  450MOL0     C60653  11.025   4.485  10.012 -0.0069 -0.3223  0.3723
  450MOL0     C60654  11.147   4.450  10.097  0.3485 -0.0148 -0.3173
  450MOL0     C60655  11.238   4.578  10.117  0.4566  0.0629 -0.2219
  450MOL0     C60656  11.355   4.553  10.202 -1.0512  0.1831  0.4975
  450MOL0     C60657  11.455   4.672  10.199 -0.3090 -0.3775 -1.0335
  450MOL0     C60658  11.603   4.626  10.241  0.1276 -0.2230 -0.3772
  450MOL0    Cl60659  11.718   4.742  10.248  0.0034  0.2232  0.0149
  450MOL0     C60660  10.648   4.241   9.930 -0.5002  0.2176 -0.4119
  450MOL0     C60661  10.518   4.232   9.901  0.1061 -0.8094  0.6266
  450MOL0     O60662  10.246   4.343  10.013 -0.4157 -0.6825  0.4360
  450MOL0     C60663   9.979   4.314  10.009  0.2883 -0.5320 -0.2413
  450MOL0     C60664   9.841   4.288  10.005  0.5136  0.0207 -0.6388
  450MOL0     N60665   9.216   4.324  10.160 -0.3321  0.3928  0.0707
  450MOL0     N60666   9.147   4.405  10.091  0.3828 -0.4704  0.3923
  450MOL0     C60667   8.043   4.439  10.718  0.0288 -0.0022  0.5724
  450MOL0     C60668   7.931   4.504  10.771  0.0119 -0.4028 -0.4609
  450MOL0     C60669   7.614   4.820  10.814 -0.1019  0.8927 -0.2985
  450MOL0     C60670   7.520   4.790  10.705 -0.5873 -0.6884  0.2589
  450MOL0     C60671   7.405   4.866  10.691  0.3441  0.4515  0.5925
  450MOL0     C60672   7.377   4.972  10.778 -0.0151  0.0132  0.0792
  450MOL0     O60673   7.260   5.046  10.769 -0.2342 -0.3556  0.2370
  450MOL0     C60674   7.204   5.072  10.641 -0.3071 -0.1203  0.1555
  450MOL0     C60675   7.082   5.161  10.625  0.1645  0.0822  0.5446
  450MOL0     C60676   6.959   5.099  10.694 -0.4228 -0.5353 -0.0406
  450MOL0     C60677   6.832   5.199  10.721  0.2711  0.5981  0.7501
  450MOL0     C60678   6.734   5.140  10.808 -0.1582 -0.0059  0.1967
  450MOL0     C60679   6.662   5.080  10.881  0.2993 -0.8172 -0.4984
  450MOL0     C60680   7.471   4.997  10.880 -0.4657  0.6296 -0.4932
  450MOL0     C60681   7.586   4.923  10.904 -0.3863 -0.7452 -0.4621
  450MOL0     C60682   7.659   4.961  11.033 -0.1461 -0.0919 -0.3810
  450MOL0     H60683   7.792   4.637  10.503 -1.9969 -0.9754  2.3311
  450MOL0     H60684   8.000   4.552  10.397  0.1017 -0.1858 -0.0591
  450MOL0     H60685   8.121   4.290  10.374 -4.2572  2.3889  0.8577
  450MOL0     H60686   8.172   4.448  10.321 -1.8704 -1.1923  0.8719
  450MOL0     H60687   8.385   4.250  10.451  2.0696  1.6944 -0.3368
  450MOL0     H60688   8.401   4.418  10.400 -0.7009  1.0875 -1.3824
  450MOL0     H60689   8.361   4.360  10.170  1.8957 -0.1882  0.0806
  450MOL0     H60690   8.338   4.184  10.219  2.8525 -1.2995 -1.3790
  450MOL0     H60691   8.573   4.356  10.308  0.5793 -1.2826  1.4912
  450MOL0     H60692   8.573   4.184  10.298 -0.6315  0.5553  1.4346
  450MOL0     H60693   8.576   4.189  10.043  0.8283  0.6645 -1.0260
  450MOL0     H60694   8.521   4.353  10.050 -2.4018 -0.7246  1.2951
  450MOL0     H60695   8.744   4.414  10.144 -1.7099  0.4261 -0.4863
  450MOL0     H60696   8.786   4.245  10.171  0.3492  0.2383  1.2542
  450MOL0     H60697   8.727   4.385   9.894  0.8698  0.0173 -0.8889
  450MOL0     H60698   8.791   4.223   9.919 -0.4443  0.1646  0.5512
  450MOL0     H60699   8.978   4.347   9.851 -2.6925  3.2990 -2.0477
  450MOL0     H60700   8.936   4.493   9.943 -0.6565  0.3334  2.2585
  450MOL0     H60701   8.987   4.112  10.043 -2.8097  2.0424  0.7166
  450MOL0     H60702   9.243   4.061  10.316  1.0456 -0.8468 -0.2870
  450MOL0     H60703   9.144   3.982  10.186 -0.8063 -0.4009  1.6539
  450MOL0     H60704   9.375   3.917  10.182  1.8288 -0.5659 -2.9802
  450MOL0     H60705   9.327   4.013  10.038 -3.0781 -0.4184 -0.2263
  450MOL0     H60706   9.491   4.114  10.280 -0.4521  2.1573 -1.1362
  450MOL0     H60707   9.474   4.215  10.147  2.6311  0.8294 -0.7355
  450MOL0     H60708   9.574   3.956  10.051  1.5539 -0.0307 -3.4355
  450MOL0     H60709   9.667   4.012  10.187 -0.6886  0.8940 -0.2033
  450MOL0     H60710   9.830   3.948   9.965 -2.7681  0.1920 -1.1775
  450MOL0     H60711  10.067   3.986   9.944 -1.7641 -1.0366  2.9645
  450MOL0     H60712  10.419   4.017  10.136  0.4365 -0.3190 -0.5896
  450MOL0     H60713  10.663   4.034  10.189  0.2934 -0.4921 -1.7778
  450MOL0     H60714  11.023   4.229  10.021 -0.1950 -2.1677  0.6192
  450MOL0     H60715  10.907   4.247   9.889  1.9812 -1.9513 -0.4245
  450MOL0     H60716  10.813   4.461   9.991  0.2448  0.2716  0.2561
  450MOL0     H60717  10.879   4.413  10.141  3.0776  0.2138  0.3724
  450MOL0     H60718  11.051   4.482   9.906 -2.2088  0.1820 -0.2360
  450MOL0     H60719  11.010   4.589  10.044  3.5123 -0.3168  2.4646
  450MOL0     H60720  11.209   4.365  10.063  0.7516 -0.4941  1.5210
  450MOL0     H60721  11.108   4.406  10.189 -0.3879 -1.3954 -1.2524
  450MOL0     H60722  11.168   4.654  10.153 -0.7484 -1.4589  0.7692
  450MOL0     H60723  11.272   4.610  10.018  0.7282  0.1846 -0.0901
  450MOL0     H60724  11.338   4.529  10.307  0.6302 -0.1586  0.7118
  450MOL0     H60725  11.402   4.466  10.157  1.3707  1.9155 -0.5043
  450MOL0     H60726  11.440   4.754  10.270  2.4470 -0.8054  0.1905
  450MOL0     H60727  11.456   4.712  10.097  1.9409  1.1178 -0.4995
  450MOL0     H60728  11.600   4.582  10.341 -2.1116  0.6002 -0.0252
  450MOL0     H60729  11.649   4.553  10.173  0.6599 -0.3314  0.0981
  450MOL0     H60730  10.708   4.314   9.878  2.3755 -1.4555  0.3526
  450MOL0     H60731  10.473   4.281   9.815  1.4950 -1.3033 -0.4209
  450MOL0     H60732  10.013   4.414  10.033  0.1322 -1.2020  3.2858
  450MOL0     H60733   9.767   4.362  10.032 -1.4487 -1.5212 -1.5397
  450MOL0     H60734   8.112   4.372  10.769  0.9918 -0.9266 -1.8015
  450MOL0     H60735   7.914   4.501  10.878 -0.7557 -1.0209 -0.5970
  450MOL0     H60736   7.537   4.704  10.641  1.6018 -1.4542  1.7628
  450MOL0     H60737   7.341   4.851  10.605  0.8178  2.1248 -0.0927
  450MOL0     H60738   7.185   4.976  10.592  5.5072 -0.7588 -1.6587
  450MOL0     H60739   7.282   5.115  10.577 -0.3813 -1.1827 -0.6739
  450MOL0     H60740   7.055   5.164  10.519  1.1479 -4.7755 -0.0601
  450MOL0     H60741   7.097   5.259  10.671 -1.1129  0.2183  0.7252
  450MOL0     H60742   6.980   5.045  10.787 -1.5515 -4.3898 -1.8616
  450MOL0     H60743   6.923   5.017  10.633  4.3571 -2.3615 -0.8771
  450MOL0     H60744   6.862   5.296  10.761  0.9888 -0.2877  2.4355
  450MOL0     H60745   6.785   5.216  10.623  2.1648 -1.9685 -0.7338
  450MOL0     H60746   6.609   5.022  10.955  0.8797  0.7210  1.2107
  450MOL0     H60747   7.439   5.062  10.961 -0.7355 -0.3694  0.2229
  450MOL0     H60748   7.752   5.009  11.001  0.4061 -0.7752  0.1629
  450MOL0     H60749   7.601   5.033  11.090 -0.1553 -0.3696 -0.0344
  450MOL0     H60750   7.675   4.882  11.107 -3.7129 -0.5504  0.0851
  451MOL0     O60751  11.280  10.378   7.421  0.5300 -0.1265 -0.5404
  451MOL0     C60752  11.215  10.408   7.319 -0.2312  0.0396  0.5537
  451MOL0     O60753  11.272  10.438   7.194 -0.5323  0.4372  0.3469
  451MOL0     C60754  11.401  10.398   7.171  0.1689  0.6168  0.1794
  451MOL0     C60755  11.489  10.490   7.105 -0.0699  0.3878  0.1028
  451MOL0     C60756  11.623  10.449   7.085  0.1089  0.0773 -1.2513
  451MOL0     C60757  11.670  10.318   7.124  0.0101  0.0201  0.3920
  451MOL0     O60758  11.793  10.274   7.112 -0.2306 -0.1006  0.2854
  451MOL0     C60759  11.897  10.376   7.101 -0.7350  0.4918 -0.4578
  451MOL0     C60760  12.029  10.306   7.088 -0.5177  0.0076 -0.1972
  451MOL0     C60761  12.139  10.404   7.100 -0.0398  0.5860 -0.3551
  451MOL0     C60762  12.264  10.348   7.034 -0.5665 -0.6580  0.0349
  451MOL0     C60763  12.386  10.444   7.032  0.5667 -0.0710  0.8094
  451MOL0     C60764  12.509  10.363   7.027 -0.4124  0.0943  0.3811
  451MOL0     C60765  12.636  10.453   7.011  0.3938  0.4297  0.2251
  451MOL0     C60766  12.761  10.365   6.988  0.1291  0.4282 -0.2151
  451MOL0     N60767  12.881  10.425   7.028 -0.0720 -0.8355 -0.5501
  451MOL0     C60768  13.003  10.370   7.041 -0.3762 -1.0022  0.1713
  451MOL0     C60769  13.087  10.457   7.110 -0.5581 -0.1027  0.3821
  451MOL0     C60770  13.233  10.444   7.129 -0.0320 -0.4509  0.3462
  451MOL0     C60771  13.260  10.414   7.279 -0.1722 -0.1413 -0.0546
  451MOL0     C60772  13.408  10.377   7.311  1.6489  0.8657  0.7420
  451MOL0     C60773  13.425  10.380   7.456  0.1124  0.3160 -0.2898
  451MOL0     O60774  13.545  10.325   7.510  0.4450 -0.5407 -0.4509
  451MOL0     C60775  13.660  10.397   7.475 -0.2335 -0.4516  1.0353
  451MOL0     C60776  13.674  10.535   7.440  0.1366 -0.5583  0.6516
  451MOL0     C60777  13.793  10.576   7.392 -0.4552 -0.1281 -0.3563
  451MOL0     C60778  13.902  10.495   7.379 -0.4560 -0.2096 -0.6112
  451MOL0     C60779  14.034  10.543   7.326  0.6380  0.4470  0.7555
  451MOL0     O60780  14.125  10.447   7.303 -0.7637 -0.1972  0.2306
  451MOL0     C60781  14.257  10.465   7.270  0.3343 -0.0276  0.3038
  451MOL0     C60782  14.312  10.373   7.185 -0.4605 -0.5463 -0.1535
  451MOL0     C60783  14.441  10.391   7.128  0.0802  0.6105 -0.1198
  451MOL0     C60784  14.521  10.502   7.173  0.8662  0.7884 -0.4972
  451MOL0     O60785  14.648  10.527   7.110  0.6037  0.0760 -0.7134
  451MOL0     C60786  14.749  10.603   7.174 -0.0805  0.3142 -0.1008
  451MOL0     C60787  14.848  10.507   7.241  0.0722  0.5022  0.1600
  451MOL0     C60788  14.951  10.593   7.321 -0.4880 -0.2975  0.3379
  451MOL0     C60789  14.911  10.662   7.447  0.2474  0.0857  0.0556
  451MOL0     C60790  15.027  10.719   7.525  0.5356  0.8097  0.4536
  451MOL0     C60791  14.957  10.803   7.632 -0.1688 -0.3365  0.6754
  451MOL0     C60792  15.062  10.886   7.705  1.0707  0.3545  0.0774
  451MOL0     C60793  15.012  10.919   7.848 -0.2877  0.2148  0.2010
  451MOL0    Cl60794  15.127  11.010   7.948 -0.0092 -0.2301 -0.4117
  451MOL0     C60795  14.469  10.577   7.276  0.2710 -0.1722 -1.3038
  451MOL0     C60796  14.334  10.566   7.325  0.3173  0.0647 -0.7277
  451MOL0     O60797  14.059  10.664   7.312 -0.0927 -0.5044  0.2662
  451MOL0     C60798  13.891  10.356   7.412  0.0818 -0.3945  0.1936
  451MOL0     C60799  13.772  10.313   7.470 -1.0870  0.8966  0.1516
  451MOL0     N60800  13.023  10.579   7.132  0.4753  0.7091  0.5102
  451MOL0     N60801  12.905  10.557   7.067 -0.1725  0.5107  0.1926
  451MOL0     C60802  11.565  10.232   7.169 -0.1847  0.0889  0.7499
  451MOL0     C60803  11.440  10.272   7.192 -0.0881 -0.9115 -0.1179
  451MOL0     C60804  11.066  10.407   7.323 -0.8371 -0.3683 -0.0475
  451MOL0     C60805  10.994  10.501   7.244  0.3854  0.6985 -0.6023
  451MOL0     C60806  10.856  10.484   7.237  0.3178 -0.3056  0.7993
  451MOL0     C60807  10.783  10.403   7.330 -0.9353  0.4444  0.1263
  451MOL0     O60808  10.645  10.389   7.334 -0.0247 -0.3318  0.5025
  451MOL0     C60809  10.570  10.491   7.265 -0.0420 -0.1163 -0.1971
  451MOL0     C60810  10.418  10.488   7.293  0.4090  0.0967 -0.1128
  451MOL0     C60811  10.382  10.488   7.448 -0.2083  0.9161  0.0888
  451MOL0     C60812  10.435  10.604   7.532 -0.3159 -0.3325  0.2033
  451MOL0     C60813  10.371  10.598   7.668  0.4557  0.9835  0.5472
  451MOL0     C60814  10.341  10.582   7.783  0.3886  0.3224 -0.1183
  451MOL0     C60815  10.859  10.321   7.413  0.3171  0.3927  0.2185
  451MOL0     C60816  10.996  10.309   7.398 -0.0039 -0.4373  0.1676
  451MOL0     C60817  11.063  10.186   7.455  0.0798  0.3969 -0.2996
  451MOL0     H60818  11.445  10.587   7.086 -3.0668 -0.9803 -0.5124
  451MOL0     H60819  11.700  10.518   7.052  1.0166 -0.8526 -1.1434
  451MOL0     H60820  11.886  10.439   7.013 -0.3334  1.4283  0.1453
  451MOL0     H60821  11.900  10.430   7.197  0.2274  0.1855 -0.3010
  451MOL0     H60822  12.029  10.260   6.989  0.2199  0.7047 -0.5395
  451MOL0     H60823  12.044  10.226   7.161 -0.1426 -0.7720 -1.1089
  451MOL0     H60824  12.151  10.421   7.207  2.1243  2.5029 -0.8206
  451MOL0     H60825  12.114  10.501   7.056 -2.0369  0.6709  0.8749
  451MOL0     H60826  12.283  10.255   7.089 -0.2152 -1.5037 -1.4643
  451MOL0     H60827  12.254  10.323   6.929 -1.1788  1.4303 -0.4557
  451MOL0     H60828  12.378  10.508   6.944  0.8884 -1.3395 -0.1626
  451MOL0     H60829  12.376  10.501   7.125 -1.3748 -0.0399  0.6176
  451MOL0     H60830  12.521  10.290   7.108  1.0904  0.6362  0.6645
  451MOL0     H60831  12.499  10.299   6.939  0.3914 -1.9476  1.6965
  451MOL0     H60832  12.657  10.509   7.103  1.1102 -2.9670  2.3156
  451MOL0     H60833  12.625  10.521   6.927  0.9655  0.1917 -0.0482
  451MOL0     H60834  12.738  10.268   7.033 -4.6885  1.4948  0.1880
  451MOL0     H60835  12.772  10.369   6.880  3.1588 -0.7642 -0.0580
  451MOL0     H60836  13.018  10.278   6.986 -2.6328 -0.2520 -1.8771
  451MOL0     H60837  13.267  10.360   7.067 -1.8754 -2.8270  2.3241
  451MOL0     H60838  13.279  10.532   7.084  2.3527 -3.2197 -3.1839
  451MOL0     H60839  13.222  10.498   7.338  0.5627  0.1046  0.0846
  451MOL0     H60840  13.198  10.331   7.315  0.7254  0.0750  2.1589
  451MOL0     H60841  13.466  10.453   7.258  2.6369 -0.7192 -0.5648
  451MOL0     H60842  13.427  10.278   7.269 -1.6588  1.1577 -1.8562
  451MOL0     H60843  13.353  10.313   7.505  1.6360 -1.6948 -0.6554
  451MOL0     H60844  13.405  10.483   7.486  2.0808 -0.0128  2.5441
  451MOL0     H60845  13.582  10.592   7.445  0.1741 -0.4918  0.5946
  451MOL0     H60846  13.793  10.676   7.348 -0.7819 -0.6458 -1.5786
  451MOL0     H60847  14.252  10.284   7.167 -1.0543 -0.7658  2.4895
  451MOL0     H60848  14.487  10.337   7.046  2.0478  3.5564 -1.1160
  451MOL0     H60849  14.802  10.658   7.095  2.7644 -0.7395  0.9741
  451MOL0     H60850  14.708  10.678   7.242 -1.6951 -0.4987 -0.1245
  451MOL0     H60851  14.793  10.443   7.310 -1.2766  0.4824 -0.8786
  451MOL0     H60852  14.896  10.448   7.162 -0.8176 -2.3332  1.6175
  451MOL0     H60853  15.045  10.542   7.343  0.3704  0.3341 -1.6065
  451MOL0     H60854  14.982  10.681   7.263 -5.4147  2.6759  1.6501
  451MOL0     H60855  14.863  10.592   7.516  1.0320  0.2490  0.7917
  451MOL0     H60856  14.837  10.739   7.425 -2.4036 -1.8280  1.7448
  451MOL0     H60857  15.085  10.783   7.458 -0.3482  0.5190 -0.6181
  451MOL0     H60858  15.091  10.640   7.566 -1.3632 -0.2409  1.5150
  451MOL0     H60859  14.878  10.870   7.595 -1.3373 -1.0984  1.7001
  451MOL0     H60860  14.917  10.732   7.705 -1.4509 -0.8698 -0.5138
  451MOL0     H60861  15.075  10.976   7.644  1.9939 -0.6169 -1.2357
  451MOL0     H60862  15.161  10.840   7.702  1.1938  0.5919 -2.7273
  451MOL0     H60863  14.917  10.967   7.825 -0.3624 -0.6585 -1.5306
  451MOL0     H60864  14.988  10.828   7.905 -0.8540  0.3830  0.2375
  451MOL0     H60865  14.522  10.668   7.302  2.2002 -0.8851 -2.5134
  451MOL0     H60866  14.287  10.626   7.403 -2.4004 -4.1281  1.2397
  451MOL0     H60867  13.972  10.286   7.395 -0.9471 -0.9409 -3.3036
  451MOL0     H60868  13.763  10.211   7.508 -4.6226  2.0307  2.9651
  451MOL0     H60869  11.608  10.135   7.194  2.5843  1.6570  2.6387
  451MOL0     H60870  11.373  10.202   7.241 -1.6118  1.8361  2.0625
  451MOL0     H60871  11.043  10.577   7.184 -0.7597  0.3800 -1.9820
  451MOL0     H60872  10.805  10.555   7.172  0.8393 -0.1697  0.5405
  451MOL0     H60873  10.577  10.470   7.158 -2.4627  1.4509 -0.7413
  451MOL0     H60874  10.600  10.596   7.271  1.2365 -0.4061 -1.0075
  451MOL0     H60875  10.374  10.393   7.261  1.9765 -2.0146  3.2973
  451MOL0     H60876  10.367  10.570   7.242 -3.6803 -2.1336 -0.1036
  451MOL0     H60877  10.422  10.395   7.491  0.0424  1.1199  0.3014
  451MOL0     H60878  10.275  10.476   7.469  0.0936  0.9849  1.8932
  451MOL0     H60879  10.544  10.605   7.544 -0.3031 -0.1765  0.0743
  451MOL0     H60880  10.413  10.698   7.481 -1.7365 -0.0833  1.2426
  451MOL0     H60881  10.319  10.560   7.885  3.3604 -0.8246  0.3970
  451MOL0     H60882  10.806  10.257   7.483 -1.5456 -2.0472 -3.1047
  451MOL0     H60883  11.093  10.193   7.559  0.1938 -2.7628 -0.0161
  451MOL0     H60884  10.999  10.097   7.457 -1.6976  1.5314  3.7984
  451MOL0     H60885  11.147  10.154   7.393 -0.0125 -0.9115  0.2059
  452MOL0     O60886   7.751   5.418   8.199  0.0816  0.1461  0.5528
  452MOL0     C60887   7.767   5.333   8.117 -0.3144 -0.3832  0.3705
  452MOL0     O60888   7.885   5.319   8.046 -0.6619  0.5457  0.0300
  452MOL0     C60889   7.980   5.416   8.033 -0.4491  0.5162 -0.1261
  452MOL0     C60890   7.969   5.558   8.043 -0.0179  0.1222 -0.3596
  452MOL0     C60891   8.079   5.643   7.997 -0.3735  0.0435 -0.2484
  452MOL0     C60892   8.201   5.583   7.961  0.7042 -0.3676  0.8092
  452MOL0     O60893   8.295   5.668   7.918 -0.1341  0.1382  0.7299
  452MOL0     C60894   8.425   5.621   7.870  0.1458 -0.1467 -0.1157
  452MOL0     C60895   8.523   5.736   7.854  0.4248 -0.8414  0.2537
  452MOL0     C60896   8.599   5.768   7.982 -0.6749  0.1307 -0.9820
  452MOL0     C60897   8.735   5.843   7.979 -0.0225  0.0273 -0.7735
  452MOL0     C60898   8.715   5.965   7.888  0.9090 -0.0492 -0.3899
  452MOL0     C60899   8.830   6.060   7.867  0.1661 -0.6521 -0.5080
  452MOL0     C60900   8.958   6.001   7.821 -0.4008 -0.9934 -0.5285
  452MOL0     C60901   9.070   6.110   7.839 -0.2152  0.0435  0.5260
  452MOL0     N60902   9.205   6.051   7.808 -0.4892  0.3114  0.5421
  452MOL0     C60903   9.285   5.993   7.900  0.1011  0.0786  0.5161
  452MOL0     C60904   9.376   5.927   7.834  0.1668  0.0065 -0.2198
  452MOL0     C60905   9.497   5.871   7.894  0.3207  1.3178  0.0577
  452MOL0     C60906   9.622   5.956   7.874  0.5376  0.8451 -0.7341
  452MOL0     C60907   9.620   6.061   7.994 -0.3934  0.1407  0.2083
  452MOL0     C60908   9.746   6.156   7.957 -0.4148  0.4264 -0.7237
  452MOL0     O60909   9.764   6.246   8.066 -0.4142 -0.3967  0.3855
  452MOL0     C60910   9.869   6.335   8.052  0.3705 -0.4300  0.2587
  452MOL0     C60911   9.947   6.352   7.934  0.4018  0.3460 -0.6217
  452MOL0     C60912  10.040   6.448   7.916 -0.3508 -1.2031  0.4229
  452MOL0     C60913  10.046   6.547   8.018 -0.1380 -0.8843 -0.2674
  452MOL0     C60914  10.142   6.664   8.012  0.4776 -0.2083  0.0531
  452MOL0     O60915  10.153   6.741   8.130  0.0947 -0.1394 -0.2512
  452MOL0     C60916  10.231   6.847   8.145 -0.5643  0.4764 -0.0281
  452MOL0     C60917  10.234   6.961   8.056  0.8970 -0.7912 -0.5212
  452MOL0     C60918  10.328   7.066   8.071  0.0035  0.2638  0.0045
  452MOL0     C60919  10.432   7.050   8.169 -0.1270  0.3309 -0.0436
  452MOL0     O60920  10.529   7.147   8.178 -0.7134 -0.3669 -0.8005
  452MOL0     C60921  10.554   7.242   8.067 -0.6001  1.3983  0.2203
  452MOL0     C60922  10.693   7.289   8.060 -0.4101 -0.0689 -0.5781
  452MOL0     C60923  10.745   7.369   8.172  0.5599  0.3283 -0.5955
  452MOL0     C60924  10.893   7.398   8.145  0.1947  0.6747  0.2008
  452MOL0     C60925  10.975   7.443   8.265 -0.6396 -0.0382 -0.0549
  452MOL0     C60926  11.121   7.477   8.216 -0.0818  0.1948  0.0926
  452MOL0     C60927  11.220   7.507   8.330  0.3398  0.6956  0.8286
  452MOL0     C60928  11.201   7.646   8.389 -0.1235 -0.6845 -0.3164
  452MOL0    Cl60929  11.312   7.675   8.525  0.1607 -0.3139 -0.5091
  452MOL0     C60930  10.428   6.938   8.251 -0.0120 -0.3212 -0.3157
  452MOL0     C60931  10.329   6.838   8.242 -0.1797  0.0316 -0.8412
  452MOL0     O60932  10.195   6.696   7.900 -0.0182 -0.3015 -0.2919
  452MOL0     C60933   9.969   6.532   8.131 -0.1427 -1.0783 -0.1162
  452MOL0     C60934   9.884   6.428   8.150 -0.0493 -0.2239 -0.3605
  452MOL0     N60935   9.341   5.933   7.700  0.5111 -0.7095  0.2572
  452MOL0     N60936   9.245   6.018   7.683 -0.2382  0.9398  0.6367
  452MOL0     C60937   8.219   5.446   7.973  0.3257  0.1143  0.0148
  452MOL0     C60938   8.114   5.361   8.005  0.2195  0.2455 -0.7605
  452MOL0     C60939   7.665   5.229   8.092  0.5453  0.1902 -1.3010
  452MOL0     C60940   7.544   5.246   8.164 -0.7380 -0.3177 -0.4013
  452MOL0     C60941   7.450   5.149   8.175  0.0542 -0.6268 -0.1808
  452MOL0     C60942   7.456   5.032   8.093 -0.3959  0.5130  0.2580
  452MOL0     O60943   7.358   4.933   8.085 -0.2782  0.6607 -0.0276
  452MOL0     C60944   7.398   4.820   8.155  1.2787  0.0307 -1.2254
  452MOL0     C60945   7.393   4.849   8.315  0.3019 -0.1052  0.0050
  452MOL0     C60946   7.256   4.861   8.373 -0.1153 -0.0496 -1.1228
  452MOL0     C60947   7.264   4.869   8.524 -0.3524  0.1257 -0.4578
  452MOL0     C60948   7.310   5.000   8.563  0.8473  0.5330 -0.9863
  452MOL0     C60949   7.340   5.107   8.606 -0.4823 -0.6420  0.2652
  452MOL0     C60950   7.557   5.024   8.004  0.2256 -0.1746 -0.0699
  452MOL0     C60951   7.665   5.118   8.003 -0.0005 -0.0160  0.2346
  452MOL0     C60952   7.776   5.105   7.904  0.5743  1.0008 -0.4857
  452MOL0     H60953   7.875   5.602   8.073  0.0809  0.7998 -0.9997
  452MOL0     H60954   8.068   5.751   7.990 -1.3720  0.2467  3.0673
  452MOL0     H60955   8.461   5.550   7.945 -2.4826 -0.4325  1.0058
  452MOL0     H60956   8.411   5.564   7.778 -0.2178  0.3343 -0.3625
  452MOL0     H60957   8.482   5.827   7.811 -0.1972 -1.1545  0.1658
  452MOL0     H60958   8.596   5.702   7.780  1.9090 -0.0344  1.2987
  452MOL0     H60959   8.613   5.682   8.047 -0.5729  1.8371  1.3708
  452MOL0     H60960   8.527   5.825   8.041  0.0320  0.5477 -0.5128
  452MOL0     H60961   8.765   5.876   8.079 -0.2749  0.0130 -0.6932
  452MOL0     H60962   8.808   5.768   7.947 -0.9456 -2.3036  2.0339
  452MOL0     H60963   8.675   5.936   7.791  1.3496  1.1238 -0.9474
  452MOL0     H60964   8.637   6.025   7.935  0.7760  2.1865 -3.2402
  452MOL0     H60965   8.803   6.132   7.789  0.6810  0.3154  0.1928
  452MOL0     H60966   8.848   6.110   7.962 -1.2192 -0.0186 -0.5524
  452MOL0     H60967   8.950   5.975   7.715 -0.7248 -0.2844 -0.6832
  452MOL0     H60968   8.980   5.915   7.885 -3.7090 -0.7575  1.1229
  452MOL0     H60969   9.044   6.194   7.774  1.3908 -1.5426 -2.3623
  452MOL0     H60970   9.070   6.144   7.943 -1.2172  0.0411  0.5346
  452MOL0     H60971   9.293   5.998   8.008  0.2528 -0.2783  0.5218
  452MOL0     H60972   9.472   5.855   8.000 -2.7458 -2.3378 -0.9738
  452MOL0     H60973   9.511   5.772   7.849  1.8380  0.6751  1.7896
  452MOL0     H60974   9.707   5.888   7.888 -1.4185 -1.6738 -0.5190
  452MOL0     H60975   9.634   6.004   7.777 -1.0759  2.4826 -0.1759
  452MOL0     H60976   9.634   6.017   8.093  0.1370  0.2262  0.1769
  452MOL0     H60977   9.535   6.129   8.000  0.8043  2.1638 -3.0223
  452MOL0     H60978   9.724   6.203   7.861  0.3025  2.1916 -0.0591
  452MOL0     H60979   9.832   6.089   7.942  0.1963  0.9602  0.2829
  452MOL0     H60980   9.941   6.268   7.865 -0.9158  1.9022 -2.4980
  452MOL0     H60981  10.115   6.453   7.838  1.7386 -1.3021  2.3316
  452MOL0     H60982  10.162   6.963   7.974 -0.4043 -2.2868  0.5258
  452MOL0     H60983  10.324   7.149   8.002 -0.1826  0.5628  0.3779
  452MOL0     H60984  10.522   7.188   7.977 -0.2874 -0.1363  0.9818
  452MOL0     H60985  10.489   7.329   8.078 -4.0648 -1.0350  0.8661
  452MOL0     H60986  10.753   7.199   8.046  2.4287  1.1855  2.1626
  452MOL0     H60987  10.696   7.353   7.971  1.3909 -0.2904 -0.7165
  452MOL0     H60988  10.697   7.466   8.181 -0.1921 -0.0678 -0.2867
  452MOL0     H60989  10.740   7.328   8.273 -1.5031  0.0149 -0.7914
  452MOL0     H60990  10.895   7.482   8.074  1.2735  0.4573 -0.0387
  452MOL0     H60991  10.942   7.308   8.105  0.0354  0.3980  0.6231
  452MOL0     H60992  10.972   7.368   8.346 -1.3907 -0.0240 -0.0685
  452MOL0     H60993  10.930   7.534   8.306 -1.7878 -0.3097 -0.6717
  452MOL0     H60994  11.152   7.394   8.152  1.4497 -1.2548  2.5701
  452MOL0     H60995  11.121   7.566   8.152 -0.7042  0.5034  0.5095
  452MOL0     H60996  11.314   7.477   8.283  0.0587 -1.5246  1.5326
  452MOL0     H60997  11.206   7.431   8.408 -1.1370 -0.4007 -0.4228
  452MOL0     H60998  11.221   7.723   8.313 -2.2116  1.3856  1.0927
  452MOL0     H60999  11.094   7.644   8.409 -0.4254  2.2072 -1.1099
  452MOL0     H61000  10.514   6.922   8.315  0.6257 -1.5232 -1.4197
  452MOL0     H61001  10.320   6.759   8.316 -1.5726 -1.2709 -2.3210
  452MOL0     H61002   9.972   6.613   8.203 -0.4553 -0.0023 -1.2722
  452MOL0     H61003   9.823   6.432   8.239 -0.6308  1.2715 -0.7989
  452MOL0     H61004   8.318   5.402   7.967  1.1501  1.8673  0.1149
  452MOL0     H61005   8.129   5.254   8.008  0.1109  0.2329  2.0851
  452MOL0     H61006   7.530   5.341   8.216 -1.0138  0.5080 -1.9386
  452MOL0     H61007   7.377   5.168   8.253  1.2157 -0.8194  0.9860
  452MOL0     H61008   7.499   4.790   8.126  0.7018 -0.8360 -2.4483
  452MOL0     H61009   7.331   4.735   8.139  0.8855  0.3366 -1.2267
  452MOL0     H61010   7.463   4.931   8.335  1.8254 -1.1345 -0.9071
  452MOL0     H61011   7.444   4.764   8.362  1.3194  1.5852  2.1745
  452MOL0     H61012   7.190   4.774   8.358 -1.4646  0.2971  2.0803
  452MOL0     H61013   7.207   4.948   8.329 -0.8524 -1.3479 -3.0194
  452MOL0     H61014   7.170   4.851   8.576  0.0504 -0.4631  0.0782
  452MOL0     H61015   7.338   4.798   8.562  0.4907 -0.4089 -2.8900
  452MOL0     H61016   7.381   5.199   8.643 -0.3693 -0.9409  0.8887
  452MOL0     H61017   7.566   4.935   7.942 -0.8380 -0.7821  0.6085
  452MOL0     H61018   7.768   5.020   7.834  0.2353 -0.4295  1.2127
  452MOL0     H61019   7.789   5.201   7.854  0.9458  1.1101 -0.1799
  452MOL0     H61020   7.868   5.085   7.960  0.9516 -0.4871 -1.5727
  453MOL0     O61021   1.735   1.646   7.820  0.2978 -0.3810 -0.0140
  453MOL0     C61022   1.737   1.615   7.941  0.4683 -0.6287 -0.3459
  453MOL0     O61023   1.829   1.540   8.002  0.0013 -0.1179 -0.1578
  453MOL0     C61024   1.933   1.496   7.925 -0.4877 -1.2079 -0.9722
  453MOL0     C61025   1.945   1.362   7.884 -0.0751  0.6905  0.3100
  453MOL0     C61026   2.056   1.319   7.812 -0.4756 -0.7717  0.2334
  453MOL0     C61027   2.157   1.410   7.787 -0.1271  0.5647  0.3026
  453MOL0     O61028   2.275   1.388   7.723  0.7314  0.1550  0.0881
  453MOL0     C61029   2.305   1.252   7.677 -0.2443  0.5628  0.1587
  453MOL0     C61030   2.461   1.231   7.658 -0.1191 -0.3357  0.7417
  453MOL0     C61031   2.552   1.276   7.779  0.4175  0.3419 -0.5199
  453MOL0     C61032   2.695   1.266   7.752 -1.2579  0.0902  0.2156
  453MOL0     C61033   2.779   1.307   7.868 -1.4311 -0.1283 -0.3752
  453MOL0     C61034   2.927   1.264   7.832 -0.1387  0.9936  0.1423
  453MOL0     C61035   3.036   1.282   7.938 -0.6989  0.1624  0.6607
  453MOL0     C61036   3.138   1.169   7.925  1.0514 -0.4969 -1.3917
  453MOL0     N61037   3.206   1.151   7.794 -0.3679  0.3225 -0.0604
  453MOL0     C61038   3.325   1.203   7.761  0.4045 -0.2227  0.6184
  453MOL0     C61039   3.349   1.171   7.625  0.2924  0.3168 -0.0765
  453MOL0     C61040   3.453   1.234   7.539  0.1358  0.4901 -0.8026
  453MOL0     C61041   3.602   1.192   7.571 -0.1997  0.5426  0.1475
  453MOL0     C61042   3.668   1.265   7.692 -0.2935  0.7745  0.5671
  453MOL0     C61043   3.823   1.219   7.711 -0.2256  0.5747 -0.2152
  453MOL0     O61044   3.893   1.311   7.792 -0.1293  0.0687  0.4780
  453MOL0     C61045   4.021   1.283   7.832  0.4699 -0.1840  0.2168
  453MOL0     C61046   4.106   1.188   7.771 -0.2104 -0.9680  0.7792
  453MOL0     C61047   4.233   1.171   7.811 -1.4929 -0.2684  0.7629
  453MOL0     C61048   4.279   1.239   7.922 -0.5563 -1.1229 -0.2877
  453MOL0     C61049   4.418   1.235   7.973  0.3537  0.0515  0.2258
  453MOL0     O61050   4.508   1.163   7.902 -0.1412 -0.1499  0.5748
  453MOL0     C61051   4.637   1.136   7.942  0.0358 -1.2111  0.5198
  453MOL0     C61052   4.708   1.186   8.054 -0.0652  0.5552  0.4899
  453MOL0     C61053   4.845   1.139   8.081  0.6453  0.0464 -0.4613
  453MOL0     C61054   4.900   1.043   8.005  0.6661  0.1732 -0.1984
  453MOL0     O61055   5.029   1.010   8.039  0.4990 -0.1241  0.3164
  453MOL0     C61056   5.118   0.993   7.927 -0.2468 -0.5121  0.2021
  453MOL0     C61057   5.150   1.133   7.871  0.0858 -0.3887 -0.3344
  453MOL0     C61058   5.209   1.245   7.959  0.3033 -0.5836  0.1803
  453MOL0     C61059   5.330   1.193   8.039  0.6985 -0.2572 -0.3362
  453MOL0     C61060   5.369   1.297   8.151 -0.2841  0.4254  0.6662
  453MOL0     C61061   5.516   1.258   8.191  0.5054 -0.0883  0.0011
  453MOL0     C61062   5.556   1.352   8.303  0.0700  0.7595 -0.6755
  453MOL0     C61063   5.684   1.294   8.363 -0.4035  0.5967  0.0422
  453MOL0    Cl61064   5.750   1.389   8.500 -0.4833  0.1359  0.2947
  453MOL0     C61065   4.826   0.985   7.897 -0.2728 -0.3231  0.0589
  453MOL0     C61066   4.700   1.042   7.858 -0.3432  0.3220  0.3411
  453MOL0     O61067   4.435   1.282   8.086  0.1336  0.5632  0.4421
  453MOL0     C61068   4.190   1.325   7.985  1.0893 -0.2023  0.2749
  453MOL0     C61069   4.063   1.352   7.939 -0.0307 -0.9182 -0.6333
  453MOL0     N61070   3.243   1.079   7.585 -0.5817 -0.2998  0.0156
  453MOL0     N61071   3.157   1.072   7.687  0.3510 -0.6735  0.3546
  453MOL0     C61072   2.149   1.543   7.837 -1.0508 -0.5869  0.5031
  453MOL0     C61073   2.031   1.593   7.906  1.0578  1.3438 -0.0308
  453MOL0     C61074   1.618   1.648   8.027  0.3651  0.4683 -0.0442
  453MOL0     C61075   1.622   1.629   8.162  1.0015 -0.6041 -0.2923
  453MOL0     C61076   1.520   1.659   8.247  0.0814  1.0677 -0.1368
  453MOL0     C61077   1.400   1.712   8.208 -0.6237 -0.2425 -0.7434
  453MOL0     O61078   1.296   1.714   8.295  0.5861  0.2638 -0.1080
  453MOL0     C61079   1.185   1.801   8.275 -0.3032 -1.0688 -0.8167
  453MOL0     C61080   1.213   1.933   8.347 -0.0621 -0.0180 -0.0560
  453MOL0     C61081   1.221   1.924   8.508  0.5430 -0.0216  0.4338
  453MOL0     C61082   1.080   1.904   8.565 -0.1499 -0.2086  0.1946
  453MOL0     C61083   1.104   1.832   8.690  0.3311 -0.3504  0.7015
  453MOL0     C61084   1.118   1.784   8.801  1.0377 -0.3976 -0.1323
  453MOL0     C61085   1.393   1.739   8.070 -0.0192  0.9884  0.4105
  453MOL0     C61086   1.504   1.712   7.979  0.4299 -0.1065  0.1413
  453MOL0     C61087   1.468   1.737   7.833  0.3693  0.5922 -0.3640
  453MOL0     H61088   1.853   1.307   7.904 -0.5744  2.1610  2.3245
  453MOL0     H61089   2.054   1.218   7.773  5.3003 -0.6159 -1.4268
  453MOL0     H61090   2.263   1.171   7.738 -1.8758  0.4506 -1.0581
  453MOL0     H61091   2.256   1.245   7.579 -0.7785 -1.0584  0.5020
  453MOL0     H61092   2.491   1.285   7.568 -1.3590  1.1513  1.1716
  453MOL0     H61093   2.486   1.129   7.630 -0.5235  0.0593 -1.2281
  453MOL0     H61094   2.531   1.227   7.874  1.6216 -0.1353 -0.4936
  453MOL0     H61095   2.528   1.381   7.802  0.7575  0.0347  1.4043
  453MOL0     H61096   2.722   1.161   7.740  0.8942  0.8722 -3.2290
  453MOL0     H61097   2.720   1.305   7.653 -2.2982 -1.8440 -0.8774
  453MOL0     H61098   2.771   1.414   7.892  0.8757  0.2993 -1.2348
  453MOL0     H61099   2.732   1.265   7.957  1.0463  1.8354  2.0551
  453MOL0     H61100   2.916   1.155   7.825 -1.5042  0.9607  2.1986
  453MOL0     H61101   2.958   1.314   7.739 -0.2945  0.1206 -0.3951
  453MOL0     H61102   2.983   1.280   8.034 -0.4434 -1.3492  0.8000
  453MOL0     H61103   3.089   1.374   7.914  3.5853 -2.6180 -1.9255
  453MOL0     H61104   3.213   1.178   8.004  0.3802 -0.0980 -0.7903
  453MOL0     H61105   3.073   1.082   7.944 -1.0157  1.0659 -0.9014
  453MOL0     H61106   3.376   1.271   7.829  0.9801 -0.8245  0.7887
  453MOL0     H61107   3.430   1.195   7.439 -1.3029  0.7812 -0.5953
  453MOL0     H61108   3.456   1.344   7.534  1.6845  0.5997  1.2829
  453MOL0     H61109   3.610   1.083   7.573  1.3574  0.6421  0.2223
  453MOL0     H61110   3.648   1.228   7.478  2.0575 -3.3853 -0.4847
  453MOL0     H61111   3.605   1.239   7.778 -1.5486 -0.4323 -0.6479
  453MOL0     H61112   3.656   1.371   7.668 -1.9772  0.2587 -1.1323
  453MOL0     H61113   3.877   1.207   7.618 -0.3562 -0.4717 -0.1767
  453MOL0     H61114   3.821   1.120   7.759  0.1473  0.5380 -0.2757
  453MOL0     H61115   4.072   1.140   7.680  1.8213  0.3806 -0.7712
  453MOL0     H61116   4.300   1.107   7.755  0.7429  3.1537 -0.7745
  453MOL0     H61117   4.656   1.256   8.118  0.0160  3.4974 -2.4383
  453MOL0     H61118   4.907   1.191   8.153  1.1735 -0.3248 -0.6437
  453MOL0     H61119   5.208   0.947   7.968 -0.4036  0.1461  1.3246
  453MOL0     H61120   5.087   0.920   7.851  0.1601 -2.3223  1.6851
  453MOL0     H61121   5.222   1.125   7.789  0.9491  0.3342  0.3354
  453MOL0     H61122   5.054   1.165   7.829 -0.2834  0.8945  1.4002
  453MOL0     H61123   5.247   1.317   7.885  0.6511 -2.1332 -1.2256
  453MOL0     H61124   5.140   1.291   8.029  0.6012 -2.1021  1.5116
  453MOL0     H61125   5.410   1.164   7.970  1.5849 -2.1908  1.4030
  453MOL0     H61126   5.303   1.099   8.088 -0.3486 -1.1705 -2.5104
  453MOL0     H61127   5.292   1.294   8.228 -1.5167 -2.3922 -0.5364
  453MOL0     H61128   5.373   1.397   8.105  1.6139  0.4206  0.7284
  453MOL0     H61129   5.513   1.152   8.218  2.1660 -0.4394 -1.0986
  453MOL0     H61130   5.584   1.269   8.107 -1.0426 -0.2452 -1.3080
  453MOL0     H61131   5.478   1.344   8.378  0.6057 -1.1527 -0.2774
  453MOL0     H61132   5.579   1.452   8.265 -1.0324 -0.0801 -3.9272
  453MOL0     H61133   5.655   1.194   8.394 -2.4464  1.4489  1.0586
  453MOL0     H61134   5.753   1.294   8.277 -2.8361 -0.5788 -2.0378
  453MOL0     H61135   4.871   0.905   7.840  0.4816 -0.5922  1.0017
  453MOL0     H61136   4.664   1.013   7.760  0.3694 -0.4481  0.2988
  453MOL0     H61137   4.209   1.381   8.076  2.4024  1.4017 -0.9232
  453MOL0     H61138   4.007   1.424   7.997 -2.2443 -1.3351 -2.1321
  453MOL0     H61139   2.234   1.609   7.832 -0.1266 -1.7746  0.1209
  453MOL0     H61140   2.025   1.697   7.934 -1.8087  1.6254 -1.3197
  453MOL0     H61141   1.698   1.560   8.197  0.6682 -1.0676 -0.4545
  453MOL0     H61142   1.534   1.637   8.353 -0.9230  1.4980  0.0971
  453MOL0     H61143   1.095   1.757   8.318 -0.0559 -2.2613 -1.4737
  453MOL0     H61144   1.164   1.819   8.170  0.1398 -3.3828 -1.3544
  453MOL0     H61145   1.135   2.004   8.319  0.5962  0.4402 -0.7544
  453MOL0     H61146   1.304   1.970   8.299  2.2038 -2.3711  2.1230
  453MOL0     H61147   1.260   2.012   8.559 -2.4006  1.3476  0.5669
  453MOL0     H61148   1.287   1.839   8.524 -0.4270 -1.0523 -0.8010
  453MOL0     H61149   1.033   1.998   8.594  2.4653  0.1238  4.1451
  453MOL0     H61150   1.017   1.844   8.499  2.8673 -2.5058 -0.8599
  453MOL0     H61151   1.114   1.740   8.898 -0.7113 -0.3827 -0.1666
  453MOL0     H61152   1.303   1.784   8.029 -1.5874  0.6635  3.2019
  453MOL0     H61153   1.474   1.638   7.787 -4.8715  0.3866 -1.2720
  453MOL0     H61154   1.365   1.772   7.817 -0.4585 -2.5672 -3.1578
  453MOL0     H61155   1.530   1.813   7.785 -1.2880  2.3349  0.0968
  454MOL0     O61156   0.238   9.726   4.979 -0.0067 -0.4607  0.4562
  454MOL0     C61157   0.187   9.786   4.888 -0.1433 -0.5436  0.5590
  454MOL0     O61158   0.224   9.902   4.832  0.2737 -0.5875 -0.9215
  454MOL0     C61159   0.313   9.980   4.904 -0.4425 -0.3419 -0.4746
  454MOL0     C61160   0.274  10.072   5.009 -0.1653 -0.4730 -0.3730
  454MOL0     C61161   0.376  10.141   5.078  0.8623 -0.0205 -0.1056
  454MOL0     C61162   0.510  10.134   5.040 -0.8247 -0.0499 -0.0676
  454MOL0     O61163   0.618  10.207   5.096  0.1130  1.0143  0.5304
  454MOL0     C61164   0.588  10.272   5.219 -0.7123 -0.0153  0.5040
  454MOL0     C61165   0.553  10.420   5.195 -0.0040  0.0420 -0.1346
  454MOL0     C61166   0.549  10.492   5.329  0.1195  0.5944  0.0302
  454MOL0     C61167   0.556  10.642   5.312 -0.0573 -0.4389 -0.6219
  454MOL0     C61168   0.547  10.713   5.451 -0.8330 -1.0701 -0.3829
  454MOL0     C61169   0.682  10.732   5.521 -0.2150 -0.3275 -0.9392
  454MOL0     C61170   0.683  10.845   5.632 -0.0129 -0.6345 -1.5219
  454MOL0     C61171   0.818  10.877   5.696  0.0603 -0.3797  0.6399
  454MOL0     N61172   0.795  10.991   5.786 -0.3049  0.0297  0.2311
  454MOL0     C61173   0.746  10.973   5.911  0.3230  0.2421 -0.4479
  454MOL0     C61174   0.753  11.096   5.965 -0.4396  0.0307  0.3811
  454MOL0     C61175   0.716  11.141   6.105 -0.1423  0.4403 -0.0175
  454MOL0     C61176   0.580  11.207   6.134  0.2287 -0.7063  0.5003
  454MOL0     C61177   0.581  11.356   6.094 -0.4608 -0.2072 -0.8619
  454MOL0     C61178   0.446  11.421   6.092  0.5251 -0.1314  0.0229
  454MOL0     O61179   0.354  11.342   6.165  0.1166  0.6565 -0.0393
  454MOL0     C61180   0.228  11.388   6.202  0.3548 -0.1486  0.8247
  454MOL0     C61181   0.192  11.526   6.192 -0.2572  0.1950 -0.0055
  454MOL0     C61182   0.070  11.574   6.226 -0.2907  0.2810  0.2015
  454MOL0     C61183  -0.032  11.486   6.278 -0.3529  0.1614  0.8173
  454MOL0     C61184  -0.170  11.528   6.316 -0.9593 -0.0285  0.2046
  454MOL0     O61185  -0.256  11.424   6.342  0.1924  0.0747  0.7873
  454MOL0     C61186  -0.384  11.439   6.380 -0.8617 -0.1719  0.3082
  454MOL0     C61187  -0.479  11.379   6.300  0.1137 -0.0328  0.8492
  454MOL0     C61188  -0.618  11.402   6.331  0.4153 -0.1327 -0.8327
  454MOL0     C61189  -0.659  11.500   6.432 -1.8450  0.0580 -1.7629
  454MOL0     O61190  -0.787  11.533   6.461 -0.4493  0.2468 -0.4432
  454MOL0     C61191  -0.862  11.431   6.519  0.5638  0.4062  0.2192
  454MOL0     C61192  -1.004  11.425   6.460 -0.6588 -0.5524 -0.0522
  454MOL0     C61193  -1.106  11.464   6.569 -0.3927 -0.9988 -0.1582
  454MOL0     C61194  -1.243  11.445   6.503  0.3171 -1.4499 -0.0046
  454MOL0     C61195  -1.336  11.371   6.597 -0.2515 -0.0230  0.2366
  454MOL0     C61196  -1.479  11.357   6.544 -0.2071  0.1856 -0.8223
  454MOL0     C61197  -1.553  11.304   6.672  0.1256  0.0604 -0.3740
  454MOL0     C61198  -1.697  11.262   6.644  1.0429  0.4238  0.0622
  454MOL0    Cl61199  -1.758  11.418   6.588  0.4093 -0.2202  0.0423
  454MOL0     C61200  -0.552  11.560   6.509 -0.0902  0.2480 -0.1169
  454MOL0     C61201  -0.421  11.515   6.487  0.5380 -0.3026 -0.4152
  454MOL0     O61202  -0.203  11.652   6.317 -0.2093 -0.0096 -0.1453
  454MOL0     C61203   0.004  11.353   6.295 -0.6646 -0.3924 -0.2147
  454MOL0     C61204   0.132  11.306   6.252  0.9033 -0.3375 -0.5934
  454MOL0     N61205   0.808  11.181   5.874 -0.7380 -0.4650 -0.5562
  454MOL0     N61206   0.824  11.123   5.762 -0.7825  0.9989  0.3215
  454MOL0     C61207   0.545  10.040   4.935  0.6654  0.0401 -0.0815
  454MOL0     C61208   0.447   9.973   4.869  0.8873  0.0115 -0.1924
  454MOL0     C61209   0.070   9.726   4.823 -0.7041  0.8567  0.1257
  454MOL0     C61210  -0.057   9.739   4.890 -0.6998  0.3065  1.1047
  454MOL0     C61211  -0.167   9.676   4.831  0.0125  0.1084 -0.2981
  454MOL0     C61212  -0.153   9.606   4.707 -0.2435 -0.3859 -0.1154
  454MOL0     O61213  -0.261   9.548   4.642  0.1006  1.1102  0.7526
  454MOL0     C61214  -0.390   9.573   4.700  0.1891  0.8671  0.2283
  454MOL0     C61215  -0.507   9.526   4.600 -0.2009  0.1860 -0.3753
  454MOL0     C61216  -0.650   9.564   4.647  0.4857 -1.0787 -0.0633
  454MOL0     C61217  -0.748   9.528   4.529 -0.2939 -0.0244  0.1040
  454MOL0     C61218  -0.878   9.510   4.591  0.2565 -0.0561  0.3582
  454MOL0     C61219  -0.993   9.518   4.626  0.0121 -0.2021 -1.2152
  454MOL0     C61220  -0.031   9.596   4.646  1.0771 -0.5491 -0.0324
  454MOL0     C61221   0.082   9.651   4.699 -0.5523 -0.6238 -1.2039
  454MOL0     C61222   0.215   9.646   4.624 -0.5991  0.0336  0.3056
  454MOL0     H61223   0.169  10.097   5.024  0.4704  2.2122  0.0885
  454MOL0     H61224   0.345  10.214   5.152  0.6502 -0.7798  0.5707
  454MOL0     H61225   0.504  10.232   5.276 -3.6602  1.5922 -2.3527
  454MOL0     H61226   0.685  10.261   5.268  1.0048  0.9628 -2.3772
  454MOL0     H61227   0.454  10.431   5.150 -0.5106  0.0892  0.9596
  454MOL0     H61228   0.629  10.460   5.128  0.1204  0.9493  0.5398
  454MOL0     H61229   0.629  10.459   5.396 -1.1513 -2.4104  0.2201
  454MOL0     H61230   0.458  10.462   5.381  1.3768  1.4494  2.9577
  454MOL0     H61231   0.644  10.671   5.254 -1.6651  2.8979 -1.5908
  454MOL0     H61232   0.471  10.677   5.253  0.3162  3.1368  0.7252
  454MOL0     H61233   0.498  10.810   5.436 -1.3151 -1.3095 -0.3564
  454MOL0     H61234   0.485  10.653   5.518 -1.0604  0.5237  0.9174
  454MOL0     H61235   0.713  10.635   5.561 -0.4215  0.1088  0.3174
  454MOL0     H61236   0.752  10.757   5.441 -1.1499 -2.1176 -2.3717
  454MOL0     H61237   0.613  10.828   5.714 -0.3208  1.3273 -1.3392
  454MOL0     H61238   0.654  10.931   5.571 -2.3319 -1.2555 -1.4101
  454MOL0     H61239   0.846  10.797   5.765  4.0509  1.9624  2.0643
  454MOL0     H61240   0.894  10.901   5.620 -1.2485  2.5300  0.0946
  454MOL0     H61241   0.709  10.879   5.950  0.1084  0.1109 -0.9631
  454MOL0     H61242   0.734  11.055   6.170  3.5434  1.4500  0.4885
  454MOL0     H61243   0.789  11.213   6.142 -1.3452  0.8689  1.6811
  454MOL0     H61244   0.513  11.145   6.074 -2.4516  2.2253  0.1653
  454MOL0     H61245   0.550  11.198   6.239 -0.1772 -3.3205  0.2106
  454MOL0     H61246   0.637  11.372   6.002  3.6024  0.7250  1.5447
  454MOL0     H61247   0.639  11.403   6.174  1.1618  1.3979 -2.8921
  454MOL0     H61248   0.406  11.437   5.991  0.9989 -0.7929 -0.2825
  454MOL0     H61249   0.452  11.522   6.134  0.0274 -0.5806  1.2168
  454MOL0     H61250   0.264  11.603   6.165  1.3489 -0.2089  2.8302
  454MOL0     H61251   0.051  11.680   6.211  1.0362  0.3425 -1.3796
  454MOL0     H61252  -0.447  11.314   6.219 -5.2542 -3.3417  0.9039
  454MOL0     H61253  -0.691  11.374   6.256 -1.5668  0.2181  0.8989
  454MOL0     H61254  -0.825  11.330   6.495 -1.1448 -0.0909 -0.4359
  454MOL0     H61255  -0.875  11.437   6.627 -0.2925 -1.3502  0.2509
  454MOL0     H61256  -0.998  11.494   6.375 -0.6837 -0.4818  0.0031
  454MOL0     H61257  -1.033  11.332   6.411  1.3930 -1.0567 -0.4247
  454MOL0     H61258  -1.100  11.395   6.654  0.0318 -0.0017  0.6340
  454MOL0     H61259  -1.094  11.569   6.597 -1.7959 -0.3943 -1.6323
  454MOL0     H61260  -1.243  11.380   6.414 -4.5278  0.1167 -1.4899
  454MOL0     H61261  -1.277  11.545   6.476  0.2296 -1.3293  0.5382
  454MOL0     H61262  -1.331  11.417   6.696  1.2774 -0.4036  0.3693
  454MOL0     H61263  -1.306  11.269   6.623 -1.9040 -0.8465 -0.8910
  454MOL0     H61264  -1.515  11.457   6.516 -0.0640  0.6960  0.7073
  454MOL0     H61265  -1.476  11.277   6.470  1.6657 -2.9161  2.2886
  454MOL0     H61266  -1.544  11.378   6.752  2.9808  1.0251 -1.4446
  454MOL0     H61267  -1.506  11.209   6.698 -1.1431 -0.0927  1.4628
  454MOL0     H61268  -1.711  11.190   6.563  3.5605 -0.4542  0.2942
  454MOL0     H61269  -1.758  11.235   6.730  0.7585  0.1190 -0.2341
  454MOL0     H61270  -0.580  11.620   6.595  1.5613 -0.7620  1.2015
  454MOL0     H61271  -0.350  11.544   6.564 -0.0845 -1.8282  0.8001
  454MOL0     H61272  -0.057  11.280   6.348  0.8732  0.4109  2.9321
  454MOL0     H61273   0.147  11.199   6.261 -3.1722 -1.0284  0.1149
  454MOL0     H61274   0.651  10.034   4.914  0.6174  0.3698 -0.4327
  454MOL0     H61275   0.473   9.904   4.790  0.9266  1.1409 -1.1923
  454MOL0     H61276  -0.060   9.795   4.984  1.3444  1.0022  0.8121
  454MOL0     H61277  -0.267   9.691   4.871  0.0190 -0.7699  0.0651
  454MOL0     H61278  -0.390   9.682   4.706  1.8814  1.0435 -2.0381
  454MOL0     H61279  -0.411   9.522   4.795 -1.7872 -0.0331 -0.6276
  454MOL0     H61280  -0.509   9.419   4.577 -1.6826  0.6487 -2.8221
  454MOL0     H61281  -0.479   9.579   4.508 -3.5015  2.1874 -0.3882
  454MOL0     H61282  -0.662   9.667   4.680  0.9223 -0.4587 -1.7578
  454MOL0     H61283  -0.673   9.510   4.739 -2.0638  1.8896  1.2161
  454MOL0     H61284  -0.744   9.606   4.453 -2.0623  1.1213  1.1278
  454MOL0     H61285  -0.729   9.433   4.478 -0.6169  0.9322 -1.8771
  454MOL0     H61286  -1.095   9.539   4.650  0.3984 -1.9191  2.6902
  454MOL0     H61287  -0.014   9.546   4.552 -0.2009 -0.3843 -0.3654
  454MOL0     H61288   0.251   9.749   4.612  2.3098 -1.1332 -2.4110
  454MOL0     H61289   0.292   9.580   4.663  0.2478  0.5472 -0.4299
  454MOL0     H61290   0.200   9.615   4.520 -0.4596 -0.8439  0.5429
  455MOL0     O61291   5.252   7.279   3.844  0.2504  0.5755 -0.2694
  455MOL0     C61292   5.245   7.387   3.905  0.0799  0.0367 -0.8527
  455MOL0     O61293   5.354   7.467   3.937  0.6286 -0.3736 -0.3191
  455MOL0     C61294   5.488   7.436   3.910  0.3316  0.6998 -1.0907
  455MOL0     C61295   5.537   7.321   3.846 -0.2229 -0.6135 -0.7868
  455MOL0     C61296   5.674   7.303   3.821  0.0959 -0.1165 -0.5398
  455MOL0     C61297   5.759   7.409   3.850  0.2403 -0.3667  0.6627
  455MOL0     O61298   5.891   7.418   3.821  0.0970 -0.7699  0.8938
  455MOL0     C61299   5.931   7.308   3.735 -0.0087  0.0391 -0.8344
  455MOL0     C61300   6.068   7.359   3.693  0.3733 -0.0525  0.6621
  455MOL0     C61301   6.057   7.487   3.608  0.3391  0.4734  0.0919
  455MOL0     C61302   6.179   7.505   3.504 -0.2173 -0.6816 -0.1831
  455MOL0     C61303   6.316   7.526   3.564 -0.0225  0.5733  0.3298
  455MOL0     C61304   6.329   7.657   3.632 -0.3972 -0.1825  0.6327
  455MOL0     C61305   6.469   7.690   3.691 -0.0819  0.2273  0.6641
  455MOL0     C61306   6.573   7.728   3.578 -0.4614 -0.6962 -0.4417
  455MOL0     N61307   6.701   7.776   3.647 -0.0693  0.6888 -0.1242
  455MOL0     C61308   6.710   7.879   3.724  0.3811 -0.2396  0.1060
  455MOL0     C61309   6.837   7.890   3.755  0.1861  0.5714 -0.4964
  455MOL0     C61310   6.895   8.004   3.846  0.2500  0.1672 -0.1246
  455MOL0     C61311   7.043   7.967   3.903 -0.7703  0.1525 -0.7442
  455MOL0     C61312   7.105   8.068   4.003  0.1500 -1.5882 -0.4209
  455MOL0     C61313   7.258   8.044   4.024 -0.1960  0.0107  0.4397
  455MOL0     O61314   7.339   8.137   3.949 -0.3976 -0.6073  0.2223
  455MOL0     C61315   7.465   8.154   3.999 -0.6177  0.0156 -0.4868
  455MOL0     C61316   7.520   8.064   4.089 -0.5422  0.1016 -0.3177
  455MOL0     C61317   7.650   8.091   4.146  0.9385 -0.8600  0.5808
  455MOL0     C61318   7.723   8.200   4.103  0.6300 -0.3723  0.2773
  455MOL0     C61319   7.856   8.221   4.165  0.7759 -0.3757 -0.3397
  455MOL0     O61320   7.917   8.113   4.217 -0.2083 -0.6432 -0.1382
  455MOL0     C61321   8.049   8.130   4.251 -0.1740 -0.7550  0.0293
  455MOL0     C61322   8.085   8.117   4.390  0.5439  0.4903  0.1354
  455MOL0     C61323   8.213   8.135   4.436 -1.0537  0.1233  1.0917
  455MOL0     C61324   8.310   8.165   4.341  1.3245  0.2838 -0.7037
  455MOL0     O61325   8.433   8.177   4.402  0.0912 -0.5481 -0.5064
  455MOL0     C61326   8.549   8.221   4.328  0.0218  0.3223  0.5331
  455MOL0     C61327   8.631   8.110   4.280  0.0849  1.3552  0.0764
  455MOL0     C61328   8.759   8.162   4.223  0.1172 -1.1769  0.4989
  455MOL0     C61329   8.874   8.179   4.322  0.3253 -0.4971 -0.0502
  455MOL0     C61330   8.998   8.224   4.240  0.2803  1.0452  0.1083
  455MOL0     C61331   9.110   8.279   4.333  0.1363  0.0780  0.7347
  455MOL0     C61332   9.244   8.294   4.271  0.0721  0.2658 -0.1359
  455MOL0     C61333   9.341   8.398   4.332  0.1218  0.6554 -0.6926
  455MOL0    Cl61334   9.354   8.340   4.500  0.1080 -0.2715 -0.0107
  455MOL0     C61335   8.271   8.177   4.203 -1.5438 -0.1210 -0.4895
  455MOL0     C61336   8.142   8.172   4.156 -0.2584  0.0510 -0.3959
  455MOL0     O61337   7.887   8.342   4.187 -0.4998  0.2491  0.5496
  455MOL0     C61338   7.673   8.292   4.013 -0.2034  1.1425  0.2615
  455MOL0     C61339   7.540   8.269   3.960  0.2312  0.3836 -0.3073
  455MOL0     N61340   6.906   7.786   3.695 -0.0455 -1.2037 -0.3091
  455MOL0     N61341   6.821   7.710   3.641  0.4407  0.6309 -0.2190
  455MOL0     C61342   5.719   7.532   3.907  0.7973  0.1035 -0.3310
  455MOL0     C61343   5.581   7.537   3.941 -0.1248  0.0844 -0.0113
  455MOL0     C61344   5.112   7.426   3.961  0.2548  0.4973 -1.1612
  455MOL0     C61345   5.012   7.320   3.984  0.2539 -0.3534 -1.0235
  455MOL0     C61346   4.889   7.357   4.035 -0.7627 -0.4149  0.6351
  455MOL0     C61347   4.859   7.488   4.075  0.4368  0.4358  0.6982
  455MOL0     O61348   4.738   7.534   4.107 -0.0044 -0.4856  0.0324
  455MOL0     C61349   4.639   7.444   4.160 -0.9976  1.5902 -0.5670
  455MOL0     C61350   4.505   7.510   4.162  0.5315 -0.3873  0.1518
  455MOL0     C61351   4.415   7.451   4.265 -0.6235 -0.0301  0.8196
  455MOL0     C61352   4.266   7.483   4.261 -0.1814  0.0552 -0.3122
  455MOL0     C61353   4.201   7.478   4.140 -0.2871 -0.2101  0.5339
  455MOL0     C61354   4.133   7.481   4.041  0.2561  0.4511 -0.5177
  455MOL0     C61355   4.962   7.578   4.061  0.7102 -0.5471  0.2421
  455MOL0     C61356   5.089   7.555   4.018 -0.6653  0.1828  0.4312
  455MOL0     C61357   5.186   7.679   4.013 -0.3013 -0.3676  0.3982
  455MOL0     H61358   5.471   7.241   3.815  0.1018 -1.6860  1.1733
  455MOL0     H61359   5.710   7.205   3.790  0.0130 -0.2624 -0.1782
  455MOL0     H61360   5.932   7.210   3.783  1.1913 -1.3225 -3.4169
  455MOL0     H61361   5.867   7.293   3.647 -3.2448 -3.4982  1.7602
  455MOL0     H61362   6.127   7.279   3.646 -0.3599  0.4637 -1.2182
  455MOL0     H61363   6.130   7.374   3.783 -2.9791 -1.1177  3.3705
  455MOL0     H61364   6.033   7.570   3.675 -2.9484 -1.1728  1.1960
  455MOL0     H61365   5.969   7.480   3.542  0.8655  0.8595 -0.6663
  455MOL0     H61366   6.177   7.417   3.439  0.6019 -1.1013  0.3353
  455MOL0     H61367   6.163   7.595   3.445 -2.9112 -2.1852 -1.9220
  455MOL0     H61368   6.349   7.442   3.626 -0.6699 -2.0364 -2.5671
  455MOL0     H61369   6.389   7.529   3.483  0.1889  0.2757  0.5056
  455MOL0     H61370   6.294   7.740   3.570 -0.2584  0.0682  0.8910
  455MOL0     H61371   6.263   7.662   3.718  0.0469  0.0891  0.9633
  455MOL0     H61372   6.508   7.614   3.760 -0.0643 -2.2947 -1.9286
  455MOL0     H61373   6.444   7.777   3.752  0.0869  1.5090 -1.0255
  455MOL0     H61374   6.598   7.642   3.515 -2.0265  0.5130 -2.8602
  455MOL0     H61375   6.526   7.808   3.519 -1.2662 -3.3185 -3.6220
  455MOL0     H61376   6.634   7.948   3.759  0.6957 -0.0631  0.4528
  455MOL0     H61377   6.910   8.089   3.779 -1.0499  0.2796 -0.2939
  455MOL0     H61378   6.828   8.027   3.929  1.8315 -0.5646  1.4381
  455MOL0     H61379   7.047   7.873   3.960  0.4234  1.0327  0.6927
  455MOL0     H61380   7.110   7.972   3.817 -2.0451  1.4368 -1.7104
  455MOL0     H61381   7.050   8.037   4.093  0.1280 -1.0175 -0.2383
  455MOL0     H61382   7.087   8.174   3.986  0.0301 -1.1190  2.2050
  455MOL0     H61383   7.290   7.944   3.993  3.6546  1.1717  0.0874
  455MOL0     H61384   7.277   8.060   4.131  0.6615  2.0629  0.0314
  455MOL0     H61385   7.479   7.969   4.122  0.9627  0.1959  2.1153
  455MOL0     H61386   7.682   8.017   4.219  0.5933  0.8612  2.5829
  455MOL0     H61387   8.003   8.099   4.458 -0.5174 -0.4943 -1.3441
  455MOL0     H61388   8.231   8.126   4.543  2.3467 -0.8851  0.5487
  455MOL0     H61389   8.522   8.291   4.249  3.4919  1.8850  0.5725
  455MOL0     H61390   8.613   8.281   4.393  1.4085 -1.0892  0.5401
  455MOL0     H61391   8.649   8.049   4.368  0.3523  0.9978 -0.2210
  455MOL0     H61392   8.570   8.046   4.215 -1.5245  0.2455  2.5431
  455MOL0     H61393   8.781   8.078   4.157 -1.4702 -1.4308  0.2577
  455MOL0     H61394   8.736   8.247   4.159  1.3150 -1.6154 -0.5624
  455MOL0     H61395   8.877   8.083   4.375 -1.7692 -0.5693  0.0108
  455MOL0     H61396   8.833   8.251   4.393 -1.4157 -0.7729 -0.7236
  455MOL0     H61397   8.980   8.304   4.167  2.4753  1.1124 -0.4253
  455MOL0     H61398   9.040   8.140   4.183 -0.6718 -0.0617  0.9800
  455MOL0     H61399   9.080   8.371   4.384  0.6351  1.3800 -1.2042
  455MOL0     H61400   9.124   8.210   4.417 -2.0855 -1.0102  0.3121
  455MOL0     H61401   9.231   8.322   4.166  0.2364  2.7719  0.4357
  455MOL0     H61402   9.283   8.193   4.257 -2.8361 -0.8075 -1.1920
  455MOL0     H61403   9.435   8.396   4.277 -0.5151 -0.0463 -1.7931
  455MOL0     H61404   9.297   8.497   4.342  0.1297  0.5561  0.5766
  455MOL0     H61405   8.344   8.201   4.125 -1.5113  0.3436 -0.3196
  455MOL0     H61406   8.112   8.192   4.054 -0.8891  1.3231  0.0203
  455MOL0     H61407   7.735   8.379   3.993  1.0013 -0.0785 -1.7528
  455MOL0     H61408   7.497   8.343   3.894  1.0834  1.0259 -0.1654
  455MOL0     H61409   5.786   7.614   3.930  0.3061  1.1080 -2.2536
  455MOL0     H61410   5.539   7.622   3.995  1.1240  0.2648  0.7239
  455MOL0     H61411   5.031   7.221   3.943  0.2534 -0.0442 -1.7762
  455MOL0     H61412   4.816   7.277   4.040 -0.5568 -0.5196  3.3321
  455MOL0     H61413   4.666   7.404   4.258 -1.3759  0.4350 -0.9189
  455MOL0     H61414   4.631   7.353   4.100 -0.8725  0.1603  1.4624
  455MOL0     H61415   4.452   7.499   4.066  2.1115  2.5109 -1.1779
  455MOL0     H61416   4.523   7.617   4.169 -2.1899  0.2082 -0.7322
  455MOL0     H61417   4.460   7.466   4.363 -0.7788 -3.6954  1.6029
  455MOL0     H61418   4.420   7.343   4.248  0.0849 -0.1733  1.8648
  455MOL0     H61419   4.212   7.415   4.327  0.8086 -0.4556 -0.0194
  455MOL0     H61420   4.246   7.585   4.295 -1.9671  0.4141 -2.2382
  455MOL0     H61421   4.094   7.487   3.942 -1.5891  1.9784  0.2529
  455MOL0     H61422   4.946   7.682   4.089  0.7200 -1.0362  2.2645
  455MOL0     H61423   5.143   7.770   4.057  2.0881  0.1008  2.0095
  455MOL0     H61424   5.279   7.665   4.070  0.7465  1.9680 -0.6249
  455MOL0     H61425   5.211   7.693   3.908 -1.5436  2.0868  0.3502
  456MOL0     O61426   0.834   4.278   3.354  0.1292  0.6565 -0.2956
  456MOL0     C61427   0.780   4.330   3.446 -0.5924  0.1842 -0.1518
  456MOL0     O61428   0.834   4.433   3.513 -0.1376 -0.9302  0.6629
  456MOL0     C61429   0.962   4.478   3.481 -0.2443  0.2631 -0.5775
  456MOL0     C61430   1.062   4.445   3.572  1.0598 -0.0485 -0.8339
  456MOL0     C61431   1.195   4.486   3.557 -0.0237 -0.7552 -0.5265
  456MOL0     C61432   1.236   4.562   3.449  0.4666  0.3067  0.7792
  456MOL0     O61433   1.368   4.608   3.425  0.6979 -0.1081 -0.4879
  456MOL0     C61434   1.467   4.567   3.522  0.3561  0.4831  0.8541
  456MOL0     C61435   1.587   4.654   3.499 -0.2011  0.3075  0.7295
  456MOL0     C61436   1.668   4.606   3.376 -0.4827  0.3331  0.3009
  456MOL0     C61437   1.815   4.651   3.386  0.7960  0.6707 -0.0872
  456MOL0     C61438   1.906   4.572   3.487 -0.0019  0.2326 -0.2085
  456MOL0     C61439   2.028   4.665   3.513 -0.9275 -0.1378  0.8268
  456MOL0     C61440   2.158   4.591   3.485 -0.2076 -0.7163  1.0881
  456MOL0     C61441   2.273   4.692   3.444  0.9528 -0.1584  0.3777
  456MOL0     N61442   2.406   4.630   3.451  0.1367 -0.7172 -0.7373
  456MOL0     C61443   2.469   4.607   3.335  0.8641  1.3022 -0.0167
  456MOL0     C61444   2.600   4.590   3.365 -0.8185  1.0480  0.1223
  456MOL0     C61445   2.706   4.536   3.270 -0.1593  0.0991  0.9618
  456MOL0     C61446   2.824   4.636   3.255  0.3868  0.0743  0.0261
  456MOL0     C61447   2.927   4.631   3.373  0.2705  0.7841 -0.1169
  456MOL0     C61448   3.069   4.686   3.334  0.1293  0.3486 -0.0993
  456MOL0     O61449   3.063   4.820   3.270  0.5227  0.4553  0.0630
  456MOL0     C61450   3.178   4.894   3.271 -0.8490  0.8341  0.2001
  456MOL0     C61451   3.304   4.835   3.272  0.3045  0.2108  0.5036
  456MOL0     C61452   3.428   4.896   3.284 -0.4685  0.1988 -0.7611
  456MOL0     C61453   3.431   5.026   3.284 -0.3950 -0.8604  0.4971
  456MOL0     C61454   3.566   5.095   3.289  0.9910 -0.4188 -0.7705
  456MOL0     O61455   3.666   5.026   3.225 -0.2670 -0.2937 -0.0881
  456MOL0     C61456   3.795   5.070   3.227 -0.3916 -0.3256 -0.1705
  456MOL0     C61457   3.854   5.100   3.103 -0.0363  0.1074  0.4276
  456MOL0     C61458   3.989   5.141   3.099  0.7676  0.2142 -0.1020
  456MOL0     C61459   4.057   5.165   3.216 -0.2807  0.1841  0.1278
  456MOL0     O61460   4.192   5.196   3.215 -0.2639 -0.1086  0.0604
  456MOL0     C61461   4.276   5.084   3.180 -0.1433  0.1644  0.1659
  456MOL0     C61462   4.406   5.145   3.124 -0.0416  0.6155  0.9516
  456MOL0     C61463   4.480   5.218   3.225  0.4409  0.0500  0.2363
  456MOL0     C61464   4.488   5.154   3.362  0.4505  0.1754  0.3340
  456MOL0     C61465   4.568   5.263   3.452 -0.0129 -0.7220  0.0039
  456MOL0     C61466   4.614   5.193   3.579 -0.9134 -0.3934  0.1166
  456MOL0     C61467   4.679   5.299   3.664  0.3734 -0.3038 -0.3062
  456MOL0     C61468   4.766   5.234   3.770  0.0303  0.6614 -0.2687
  456MOL0    Cl61469   4.844   5.345   3.883 -0.3223 -0.0952 -0.0098
  456MOL0     C61470   4.000   5.145   3.346  0.6588  0.0801  0.4816
  456MOL0     C61471   3.867   5.085   3.348  0.9851 -0.3170  1.3447
  456MOL0     O61472   3.572   5.195   3.360 -0.2424  0.1008  0.4874
  456MOL0     C61473   3.315   5.109   3.271 -0.1183 -0.0979 -0.5361
  456MOL0     C61474   3.189   5.038   3.259 -0.5794 -0.0503 -0.0687
  456MOL0     N61475   2.613   4.607   3.500 -0.0156 -0.8829 -0.1937
  456MOL0     N61476   2.494   4.633   3.553  0.1197 -0.3883 -0.2714
  456MOL0     C61477   1.138   4.594   3.362  0.2285 -0.7850 -0.1024
  456MOL0     C61478   1.002   4.558   3.376 -0.9836 -0.3609 -0.7367
  456MOL0     C61479   0.646   4.282   3.494 -0.7900 -0.0185 -0.0080
  456MOL0     C61480   0.603   4.316   3.618 -0.2425 -0.5715 -1.3620
  456MOL0     C61481   0.484   4.283   3.668  0.4482 -0.9329  0.1825
  456MOL0     C61482   0.398   4.194   3.603 -0.6391 -0.7231  0.4938
  456MOL0     O61483   0.288   4.151   3.681 -0.5368 -0.0514  0.6007
  456MOL0     C61484   0.220   4.032   3.637 -0.3556 -0.1521  0.0160
  456MOL0     C61485   0.131   3.987   3.751  0.4090  0.1827  0.0384
  456MOL0     C61486   0.008   4.066   3.778 -0.6971 -0.0224 -0.4652
  456MOL0     C61487  -0.082   4.100   3.660 -0.0120  0.1457 -0.5217
  456MOL0     C61488  -0.121   3.975   3.594  0.4246 -0.3876 -0.7171
  456MOL0     C61489  -0.154   3.875   3.537  0.3454  0.2881  0.0671
  456MOL0     C61490   0.431   4.157   3.470  0.0070  0.1837 -0.4609
  456MOL0     C61491   0.553   4.208   3.416  0.2047  0.6001  1.0128
  456MOL0     C61492   0.578   4.177   3.268 -0.1239 -0.1703 -0.1552
  456MOL0     H61493   1.028   4.386   3.656  1.5161  0.2367 -0.4454
  456MOL0     H61494   1.267   4.459   3.634 -2.9693  0.3982  2.9241
  456MOL0     H61495   1.431   4.590   3.623  0.6660  2.1224  0.6328
  456MOL0     H61496   1.495   4.462   3.523 -0.6177 -0.0178 -3.5185
  456MOL0     H61497   1.649   4.644   3.589  1.7517 -1.0135 -0.6898
  456MOL0     H61498   1.553   4.757   3.483  0.1252  0.0031 -2.4248
  456MOL0     H61499   1.636   4.656   3.284  1.4509  2.3197  0.6257
  456MOL0     H61500   1.664   4.497   3.366  1.7565  0.2044  0.3034
  456MOL0     H61501   1.853   4.649   3.283 -1.6149 -1.3391 -1.0675
  456MOL0     H61502   1.820   4.754   3.423  2.4170  0.3403  0.6887
  456MOL0     H61503   1.860   4.545   3.583  1.5727 -0.0438  0.5067
  456MOL0     H61504   1.938   4.477   3.444 -0.4893 -0.5798  1.1399
  456MOL0     H61505   2.035   4.753   3.449 -0.0256 -1.7188 -1.3589
  456MOL0     H61506   2.028   4.708   3.614 -0.6689 -0.6471  1.0466
  456MOL0     H61507   2.148   4.527   3.397  0.9387 -0.0797  0.4711
  456MOL0     H61508   2.192   4.526   3.566 -0.1756 -1.3271  0.5903
  456MOL0     H61509   2.261   4.739   3.346 -2.3732 -1.4098  0.0700
  456MOL0     H61510   2.279   4.773   3.517  0.5110  1.6436 -1.4749
  456MOL0     H61511   2.413   4.590   3.243  0.2931 -0.8735  0.6676
  456MOL0     H61512   2.738   4.442   3.316  0.0912 -1.5445 -2.2579
  456MOL0     H61513   2.669   4.514   3.169  0.2605  0.9825  0.6097
  456MOL0     H61514   2.885   4.607   3.169  1.7070  0.1964  0.8937
  456MOL0     H61515   2.787   4.739   3.255 -0.7362 -0.3029  0.5431
  456MOL0     H61516   2.921   4.526   3.405  1.0537 -0.1239 -2.7623
  456MOL0     H61517   2.889   4.681   3.463 -1.7470 -1.8303  0.6351
  456MOL0     H61518   3.110   4.617   3.259  2.6191  1.0242  0.5416
  456MOL0     H61519   3.130   4.701   3.423 -2.1860  3.9153  1.0977
  456MOL0     H61520   3.314   4.727   3.260 -0.1276  0.1912  0.3054
  456MOL0     H61521   3.522   4.842   3.291  1.5519  3.2273 -2.3258
  456MOL0     H61522   3.792   5.083   3.016  0.1872 -0.5222  0.3867
  456MOL0     H61523   4.036   5.160   3.003  1.0675  3.7629  0.5947
  456MOL0     H61524   4.290   5.024   3.270 -1.2476  0.1314  0.3289
  456MOL0     H61525   4.229   5.021   3.104 -1.8777  1.7316 -0.1269
  456MOL0     H61526   4.474   5.062   3.104  0.2332  1.2551 -0.9745
  456MOL0     H61527   4.396   5.199   3.029 -1.4568 -2.5776 -0.8817
  456MOL0     H61528   4.582   5.226   3.186  0.4347 -2.2358 -0.4052
  456MOL0     H61529   4.421   5.310   3.234 -0.0757 -0.2809  0.3061
  456MOL0     H61530   4.536   5.056   3.368 -0.1871 -0.0504  3.2677
  456MOL0     H61531   4.395   5.135   3.415  0.9590  0.6804  1.4432
  456MOL0     H61532   4.503   5.348   3.472  0.0382 -0.3297 -1.4143
  456MOL0     H61533   4.645   5.308   3.389 -1.6877 -0.5185 -1.9910
  456MOL0     H61534   4.526   5.149   3.627 -0.9943 -0.7709 -0.3678
  456MOL0     H61535   4.681   5.112   3.549 -0.1309  0.1875  0.2613
  456MOL0     H61536   4.597   5.356   3.708  0.8933  0.4204 -0.2597
  456MOL0     H61537   4.736   5.368   3.602 -0.7030  1.7710  0.9294
  456MOL0     H61538   4.699   5.171   3.830  0.3385  2.2479  1.8147
  456MOL0     H61539   4.839   5.169   3.720  1.3305  1.8236  0.0831
  456MOL0     H61540   4.066   5.158   3.431  2.3581  2.4838 -1.0624
  456MOL0     H61541   3.807   5.057   3.434 -2.0327  1.0959 -0.1639
  456MOL0     H61542   3.318   5.215   3.246  0.7496  0.0051 -0.0057
  456MOL0     H61543   3.097   5.094   3.252 -0.8156 -0.1701  1.7160
  456MOL0     H61544   1.167   4.649   3.273 -0.9826  2.7932  1.5501
  456MOL0     H61545   0.931   4.606   3.309 -4.4126  1.5308  3.7526
  456MOL0     H61546   0.667   4.373   3.684  0.0088 -1.5737 -0.7211
  456MOL0     H61547   0.458   4.310   3.770 -0.2222  1.0439 -0.4550
  456MOL0     H61548   0.285   3.949   3.606  0.9282  0.8306 -0.0127
  456MOL0     H61549   0.162   4.061   3.549  3.1936 -2.0126 -3.2578
  456MOL0     H61550   0.193   3.991   3.841 -1.0663  1.0927  1.0595
  456MOL0     H61551   0.104   3.881   3.739 -0.5240  0.4928 -0.7829
  456MOL0     H61552   0.041   4.167   3.805 -4.3172  1.5702 -1.4752
  456MOL0     H61553  -0.039   4.025   3.868 -2.1649  0.3142 -1.0544
  456MOL0     H61554  -0.172   4.145   3.703 -0.7027 -0.8997 -0.8281
  456MOL0     H61555  -0.032   4.163   3.586 -3.3590  2.1451 -1.3012
  456MOL0     H61556  -0.177   3.778   3.497  0.2335  0.2271  0.2805
  456MOL0     H61557   0.365   4.111   3.397  1.4211  1.2054 -2.4759
  456MOL0     H61558   0.669   4.117   3.254 -0.6564 -1.3698  1.3789
  456MOL0     H61559   0.491   4.124   3.229 -1.0976  0.7918  0.6838
  456MOL0     H61560   0.590   4.271   3.213  2.8921 -0.2836  0.1478
  457MOL0     O61561   2.453   4.666   1.236 -0.0637  0.2629 -0.3210
  457MOL0     C61562   2.424   4.746   1.150  0.6828 -0.6047  0.2337
  457MOL0     O61563   2.513   4.781   1.050 -0.5365  0.1964  0.3904
  457MOL0     C61564   2.649   4.737   1.060  0.1346 -0.6364  0.4143
  457MOL0     C61565   2.703   4.656   0.960 -0.4182 -0.5322  0.4007
  457MOL0     C61566   2.839   4.625   0.976  0.5801  0.4378  0.0826
  457MOL0     C61567   2.927   4.680   1.062 -0.1608  0.0001 -1.0056
  457MOL0     O61568   3.063   4.644   1.094 -0.1111  0.1575  0.0859
  457MOL0     C61569   3.155   4.648   0.978 -0.5337  0.7876  0.0792
  457MOL0     C61570   3.206   4.794   0.959 -0.7902 -0.0191  0.1173
  457MOL0     C61571   3.284   4.848   1.080 -0.0765 -0.2152  0.1867
  457MOL0     C61572   3.369   4.973   1.033  0.4633 -0.3202 -0.1820
  457MOL0     C61573   3.474   5.018   1.134 -0.3097 -0.3272 -0.5883
  457MOL0     C61574   3.595   4.915   1.146  0.0307  0.2401  0.7212
  457MOL0     C61575   3.719   4.959   1.220 -0.9274  0.3899  0.1446
  457MOL0     C61576   3.825   4.840   1.233  0.4026 -0.4168 -0.0902
  457MOL0     N61577   3.969   4.887   1.236  0.0963 -0.1644  0.2587
  457MOL0     C61578   4.091   4.806   1.236  0.1958 -0.7193  0.1052
  457MOL0     C61579   4.199   4.890   1.215 -0.2286  0.4272 -0.0230
  457MOL0     C61580   4.348   4.870   1.234  0.2486  0.9628  0.0566
  457MOL0     C61581   4.389   4.750   1.155  0.7747  0.5053 -0.1064
  457MOL0     C61582   4.434   4.792   1.013 -0.4000  0.0236  0.2970
  457MOL0     C61583   4.509   4.676   0.945 -0.0330 -0.5831 -0.6800
  457MOL0     O61584   4.626   4.638   1.027  0.3902 -0.2699  0.5858
  457MOL0     C61585   4.730   4.722   1.049 -0.2550 -0.2696  0.6247
  457MOL0     C61586   4.772   4.804   0.942 -0.1576 -0.0441 -0.1298
  457MOL0     C61587   4.893   4.863   0.950 -0.4059 -0.9803 -1.1521
  457MOL0     C61588   4.971   4.869   1.067 -0.5187  0.0792  0.1227
  457MOL0     C61589   5.085   4.963   1.087  0.0023  0.1601  0.6366
  457MOL0     O61590   5.134   5.029   0.978  0.3092 -0.5972 -1.3317
  457MOL0     C61591   5.262   5.086   0.991  0.6176 -0.3929 -0.0003
  457MOL0     C61592   5.285   5.218   1.024 -0.8583 -0.6749  0.1388
  457MOL0     C61593   5.408   5.274   1.032 -0.1394  0.0342 -0.4391
  457MOL0     C61594   5.521   5.191   1.005  0.0195 -0.2405  0.2685
  457MOL0     O61595   5.647   5.246   0.996 -0.0998  0.2990  0.1396
  457MOL0     C61596   5.677   5.356   1.083  0.1525 -0.6231  0.3580
  457MOL0     C61597   5.818   5.366   1.122 -0.1472  0.7390  0.0539
  457MOL0     C61598   5.855   5.259   1.231 -0.6959 -0.0169  0.0756
  457MOL0     C61599   6.005   5.241   1.254  0.2734 -0.3196  0.4277
  457MOL0     C61600   6.034   5.099   1.279 -0.0965  0.2967  0.0671
  457MOL0     C61601   6.005   5.033   1.422  0.4688  0.6431  0.1178
  457MOL0     C61602   6.073   4.894   1.428  0.0356  0.9353 -0.3626
  457MOL0     C61603   6.070   4.834   1.570 -0.1588 -0.5039  0.5086
  457MOL0    Cl61604   5.907   4.748   1.607  0.3330 -0.0118  0.1989
  457MOL0     C61605   5.498   5.062   0.965 -0.4383  0.3918  0.0473
  457MOL0     C61606   5.372   5.006   0.961  0.6070  1.0874 -0.3443
  457MOL0     O61607   5.141   4.950   1.193 -0.2799  0.0667 -0.2483
  457MOL0     C61608   4.925   4.789   1.169 -0.8368 -0.1934  0.6439
  457MOL0     C61609   4.806   4.715   1.160 -0.3732  0.3367 -0.0752
  457MOL0     N61610   4.141   5.024   1.200 -0.1229 -0.1459 -0.4227
  457MOL0     N61611   4.012   5.012   1.210  0.0755  0.3593 -0.1573
  457MOL0     C61612   2.870   4.779   1.142 -0.3791  0.1474 -0.0221
  457MOL0     C61613   2.731   4.806   1.139 -0.9004 -0.3122 -1.0612
  457MOL0     C61614   2.293   4.818   1.154 -0.4344  0.1615 -0.0006
  457MOL0     C61615   2.273   4.918   1.058  0.3237 -0.4751  0.1695
  457MOL0     C61616   2.151   4.989   1.041 -0.1397 -0.1307  1.1227
  457MOL0     C61617   2.050   4.970   1.129  0.6852  0.8228  0.5539
  457MOL0     O61618   1.934   5.049   1.118  0.8446  0.0663  0.3940
  457MOL0     C61619   1.829   5.042   1.221 -0.3318  0.5412 -0.1768
  457MOL0     C61620   1.754   5.171   1.234  0.4061 -0.0100  0.3315
  457MOL0     C61621   1.818   5.283   1.316 -0.6004 -1.1900 -0.1725
  457MOL0     C61622   1.966   5.295   1.288  0.0170 -0.5011  1.2066
  457MOL0     C61623   1.999   5.418   1.350  0.3017  0.4452 -0.1022
  457MOL0     C61624   2.007   5.517   1.418 -0.5479  0.5889 -0.0076
  457MOL0     C61625   2.075   4.881   1.233  1.2204 -0.2411 -0.0336
  457MOL0     C61626   2.190   4.801   1.246 -0.4050 -0.6873 -0.1029
  457MOL0     C61627   2.217   4.737   1.378  0.3033  0.3498  1.3084
  457MOL0     H61628   2.642   4.606   0.885 -1.9056 -0.9433  1.8097
  457MOL0     H61629   2.885   4.536   0.932 -0.8121 -1.4936  2.2847
  457MOL0     H61630   3.233   4.577   1.005 -1.6125 -0.7930 -0.7995
  457MOL0     H61631   3.117   4.611   0.882  1.5549 -1.9177  0.1866
  457MOL0     H61632   3.117   4.850   0.928 -1.1696  0.6074  2.1360
  457MOL0     H61633   3.280   4.801   0.879 -0.2360  1.8383  0.7256
  457MOL0     H61634   3.349   4.770   1.118 -1.0251 -0.5664  1.1566
  457MOL0     H61635   3.220   4.872   1.165 -0.0843 -0.8609  0.3672
  457MOL0     H61636   3.413   4.959   0.934 -1.3636  0.2781 -1.1137
  457MOL0     H61637   3.299   5.056   1.024 -0.9375 -1.4503 -0.0436
  457MOL0     H61638   3.508   5.117   1.103 -2.7683  1.3473  1.6618
  457MOL0     H61639   3.435   5.023   1.236 -0.4941 -0.4778 -0.6504
  457MOL0     H61640   3.565   4.815   1.179  0.6623  0.2405  1.3221
  457MOL0     H61641   3.624   4.902   1.041 -0.1440  1.2168  0.5428
  457MOL0     H61642   3.695   4.989   1.322  0.7199  1.2024  0.3333
  457MOL0     H61643   3.765   5.042   1.165 -1.3413  0.2122 -0.4786
  457MOL0     H61644   3.804   4.775   1.318 -1.8794 -1.4006 -1.3226
  457MOL0     H61645   3.812   4.782   1.141 -1.6609  0.7532 -0.5940
  457MOL0     H61646   4.089   4.702   1.266  1.1830 -1.8131 -3.1965
  457MOL0     H61647   4.401   4.955   1.191 -1.5968 -0.2319 -5.3830
  457MOL0     H61648   4.367   4.836   1.337  0.1327  1.1358  0.1353
  457MOL0     H61649   4.460   4.684   1.204  0.8780  0.4494 -0.3285
  457MOL0     H61650   4.299   4.690   1.133 -0.9840  2.6079  0.9653
  457MOL0     H61651   4.503   4.877   1.012  0.7020 -0.8293 -1.1397
  457MOL0     H61652   4.353   4.825   0.947 -0.0789  1.2195  0.4781
  457MOL0     H61653   4.533   4.690   0.839  0.2414  0.8081 -0.4502
  457MOL0     H61654   4.442   4.590   0.952  0.2908 -0.7154  1.0494
  457MOL0     H61655   4.722   4.821   0.847  2.3441  3.0714 -1.0965
  457MOL0     H61656   4.918   4.936   0.874  4.0731 -1.3719 -0.2824
  457MOL0     H61657   5.205   5.282   1.062  1.7394  2.5350  0.6421
  457MOL0     H61658   5.405   5.382   1.046  2.1934  0.3637 -1.9589
  457MOL0     H61659   5.652   5.447   1.028 -0.6269 -1.6321 -1.0258
  457MOL0     H61660   5.611   5.349   1.170  2.4842 -4.9807  2.1309
  457MOL0     H61661   5.884   5.337   1.039 -0.2810 -3.2768  1.1043
  457MOL0     H61662   5.850   5.459   1.169  3.9636 -0.6946  0.5578
  457MOL0     H61663   5.805   5.291   1.324  0.7131  0.3508  0.7282
  457MOL0     H61664   5.812   5.163   1.202 -1.3915  0.3445 -0.1264
  457MOL0     H61665   6.040   5.315   1.327  1.7736  0.0590 -0.6452
  457MOL0     H61666   6.054   5.270   1.161  1.3437  4.8286  2.2540
  457MOL0     H61667   6.142   5.102   1.260 -0.2028 -0.8914 -0.8475
  457MOL0     H61668   5.987   5.047   1.195  1.6117  1.9754 -2.0156
  457MOL0     H61669   6.038   5.100   1.503  0.4686  0.7192  0.0551
  457MOL0     H61670   5.896   5.023   1.424  0.3192  1.3722 -2.0263
  457MOL0     H61671   6.175   4.903   1.390  0.0315 -0.4164 -0.7250
  457MOL0     H61672   6.014   4.827   1.366 -0.5897  0.9062  0.2516
  457MOL0     H61673   6.162   4.776   1.580  2.5761  3.3136 -0.6574
  457MOL0     H61674   6.080   4.915   1.643  1.2452 -2.8320  3.1053
  457MOL0     H61675   5.577   4.993   0.940 -1.9972 -1.9492  1.1745
  457MOL0     H61676   5.357   4.904   0.926  2.5997  0.9649 -0.9331
  457MOL0     H61677   4.971   4.783   1.267 -1.8824  1.6241  1.2943
  457MOL0     H61678   4.775   4.647   1.239 -2.9332  1.0539 -0.3871
  457MOL0     H61679   2.942   4.824   1.210 -0.1577  1.5623 -1.1371
  457MOL0     H61680   2.686   4.875   1.209 -1.2236 -2.0089  0.4801
  457MOL0     H61681   2.340   4.940   0.975 -0.4624 -1.4001 -0.7545
  457MOL0     H61682   2.141   5.056   0.956 -0.6252  2.3393  3.0075
  457MOL0     H61683   1.871   5.016   1.319 -0.2355  1.8616  0.1528
  457MOL0     H61684   1.756   4.962   1.202  1.2481 -0.9035 -0.4310
  457MOL0     H61685   1.651   5.155   1.268  1.0056 -0.4726  1.9849
  457MOL0     H61686   1.731   5.213   1.135  0.2339 -0.8369  0.0076
  457MOL0     H61687   1.812   5.263   1.423  3.0286 -1.8866  0.0392
  457MOL0     H61688   1.771   5.379   1.293 -0.2918 -1.0590 -0.2681
  457MOL0     H61689   2.020   5.206   1.321  0.3582 -0.5534  0.5193
  457MOL0     H61690   1.984   5.304   1.181 -0.2877  1.9127  1.3054
  457MOL0     H61691   2.029   5.594   1.489  1.8577  0.6696 -0.7448
  457MOL0     H61692   2.001   4.856   1.309  0.1033 -4.8658 -2.3295
  457MOL0     H61693   2.311   4.771   1.424 -0.2312  1.4572  1.6139
  457MOL0     H61694   2.142   4.759   1.455  2.7404  2.8478  3.1830
  457MOL0     H61695   2.219   4.628   1.376 -1.2155  0.3027 -1.4350
  458MOL0     O61696   5.483  11.026   9.251 -0.9622  0.0216 -0.1252
  458MOL0     C61697   5.415  11.043   9.159  0.8339  0.5563  0.4885
  458MOL0     O61698   5.448  11.023   9.031  0.7716 -0.2742  0.4436
  458MOL0     C61699   5.575  10.993   8.988 -0.7894  0.5635  0.1681
  458MOL0     C61700   5.614  10.871   8.918  0.1093 -0.3203  0.7448
  458MOL0     C61701   5.742  10.852   8.864 -0.2487  0.5807  0.1469
  458MOL0     C61702   5.855  10.933   8.903  0.3906 -0.4782  0.1313
  458MOL0     O61703   5.971  10.910   8.853  0.4984  0.3283 -0.9263
  458MOL0     C61704   6.029  10.782   8.871  0.3985 -0.6772  0.0261
  458MOL0     C61705   6.156  10.764   8.799 -0.5561 -0.2434 -0.6255
  458MOL0     C61706   6.263  10.882   8.821 -0.4456  0.2865  0.6008
  458MOL0     C61707   6.373  10.849   8.933  0.1241  0.4660  0.8621
  458MOL0     C61708   6.513  10.901   8.898  0.3897  0.9133 -0.3402
  458MOL0     C61709   6.607  10.888   9.021  0.2550 -0.0567 -0.1294
  458MOL0     C61710   6.752  10.905   8.983  0.1494 -0.2484  0.0973
  458MOL0     C61711   6.819  11.012   9.071 -0.0975 -0.1661 -0.6744
  458MOL0     N61712   6.963  11.015   9.041  0.0502  0.0263  0.1825
  458MOL0     C61713   7.024  11.088   8.942 -0.4434 -0.2023  0.3498
  458MOL0     C61714   7.155  11.045   8.931 -0.2528 -0.4643 -0.3773
  458MOL0     C61715   7.250  11.105   8.843  0.6163 -0.7234 -0.8377
  458MOL0     C61716   7.359  11.186   8.907  0.0166  0.2176  0.0808
  458MOL0     C61717   7.462  11.226   8.796  0.4836 -0.5835 -0.2379
  458MOL0     C61718   7.590  11.280   8.855  0.4631  0.2698  0.5679
  458MOL0     O61719   7.589  11.420   8.872 -0.1111 -0.4188  0.7976
  458MOL0     C61720   7.712  11.477   8.910  1.1238 -0.0971 -0.1456
  458MOL0     C61721   7.710  11.617   8.907 -0.0479  0.1820  0.4245
  458MOL0     C61722   7.814  11.693   8.945 -0.4185 -0.7958  0.7600
  458MOL0     C61723   7.939  11.631   8.981  0.2289  0.5744  0.8968
  458MOL0     C61724   8.057  11.714   9.015  0.0730  0.5065 -0.2423
  458MOL0     O61725   8.156  11.636   9.071 -0.1908 -0.9205 -0.0046
  458MOL0     C61726   8.254  11.710   9.132 -0.5325  0.8720  0.4963
  458MOL0     C61727   8.270  11.678   9.264  0.2544  0.9542 -0.7754
  458MOL0     C61728   8.373  11.736   9.341  0.8645  0.1641  0.2615
  458MOL0     C61729   8.480  11.818   9.275 -0.2618 -0.7336 -0.9132
  458MOL0     O61730   8.586  11.887   9.334 -0.1055 -0.3950  0.0448
  458MOL0     C61731   8.617  11.863   9.473 -0.1886 -0.2381  0.1950
  458MOL0     C61732   8.726  11.943   9.533 -0.8989 -0.2151 -0.4365
  458MOL0     C61733   8.854  11.967   9.450  0.3316  0.0945  0.9642
  458MOL0     C61734   8.961  12.050   9.516  0.0916 -1.0097 -0.1113
  458MOL0     C61735   9.097  11.980   9.539 -0.2246 -0.4237 -0.7353
  458MOL0     C61736   9.177  12.063   9.637 -0.3470  0.6782 -0.8690
  458MOL0     C61737   9.300  11.981   9.677  0.3430  1.1941 -0.5323
  458MOL0     C61738   9.377  12.043   9.791 -0.1302 -0.0909  0.5544
  458MOL0    Cl61739   9.415  12.218   9.762  0.3924  0.2143 -0.1616
  458MOL0     C61740   8.452  11.859   9.146  0.0781  0.4582 -0.6130
  458MOL0     C61741   8.344  11.798   9.067  0.6636 -0.1193 -0.2292
  458MOL0     O61742   8.060  11.835   8.997  0.7249  1.0079  0.0089
  458MOL0     C61743   7.939  11.493   8.991 -0.0195  0.5438 -0.1783
  458MOL0     C61744   7.824  11.415   8.956  0.3406  0.3047 -0.4401
  458MOL0     N61745   7.180  10.951   9.025 -0.4474  0.0382 -0.0677
  458MOL0     N61746   7.066  10.937   9.084  1.0414 -0.2197  0.8409
  458MOL0     C61747   5.822  11.051   8.975  0.0755  0.4604  0.4060
  458MOL0     C61748   5.685  11.085   9.002  0.2489 -0.5755  0.5688
  458MOL0     C61749   5.276  11.075   9.185 -0.1416 -0.8266  0.6353
  458MOL0     C61750   5.182  11.027   9.094 -0.0598 -0.4899 -0.2015
  458MOL0     C61751   5.048  11.055   9.108  0.1410 -0.3650 -0.3491
  458MOL0     C61752   4.996  11.114   9.221  0.2015 -0.7714  0.4912
  458MOL0     O61753   4.858  11.136   9.239  0.5439 -0.1205 -0.8776
  458MOL0     C61754   4.772  11.045   9.160  0.2681 -0.0960 -0.2359
  458MOL0     C61755   4.728  11.124   9.036  0.8645  0.3581  0.6769
  458MOL0     C61756   4.642  11.037   8.953  0.0700  0.5277  0.0217
  458MOL0     C61757   4.616  11.115   8.826  0.4636  0.2557  0.2036
  458MOL0     C61758   4.495  11.208   8.846 -0.0951  0.1222 -0.7715
  458MOL0     C61759   4.402  11.281   8.863  0.2739 -0.1645  0.8273
  458MOL0     C61760   5.084  11.168   9.314 -0.8604 -0.9868  0.3112
  458MOL0     C61761   5.228  11.147   9.305  0.2998 -0.2900  0.1519
  458MOL0     C61762   5.322  11.199   9.416 -0.1040 -0.0981  0.5828
  458MOL0     H61763   5.531  10.804   8.900 -0.9600  1.4162 -1.2873
  458MOL0     H61764   5.737  10.761   8.805 -1.8158  0.6027  0.1879
  458MOL0     H61765   6.039  10.754   8.976  0.7553  0.2649  0.2483
  458MOL0     H61766   5.954  10.715   8.826 -1.7239  2.2408 -1.1775
  458MOL0     H61767   6.135  10.770   8.692 -0.3908  2.1962 -0.5864
  458MOL0     H61768   6.190  10.662   8.816 -0.8519 -0.2782 -0.2302
  458MOL0     H61769   6.214  10.980   8.829 -0.6556  0.6352 -3.2668
  458MOL0     H61770   6.329  10.876   8.735 -1.0607  3.8009 -0.2652
  458MOL0     H61771   6.345  10.893   9.028  1.1329  3.1244  0.0147
  458MOL0     H61772   6.373  10.740   8.946  0.3947  0.2829 -0.4765
  458MOL0     H61773   6.551  10.855   8.806 -0.6053  0.1614 -0.3947
  458MOL0     H61774   6.511  11.007   8.870  0.2202  1.3587  1.2993
  458MOL0     H61775   6.572  10.957   9.098  1.3881  1.9066 -1.2800
  458MOL0     H61776   6.607  10.786   9.060  1.8120 -1.1928 -2.7652
  458MOL0     H61777   6.755  10.942   8.880  0.1191 -3.7500 -1.3153
  458MOL0     H61778   6.811  10.813   8.992  3.5297  1.5186 -1.6863
  458MOL0     H61779   6.775  11.111   9.054  2.4640  1.4287  1.2296
  458MOL0     H61780   6.799  10.987   9.176 -2.1770  0.3334 -0.8973
  458MOL0     H61781   6.989  11.168   8.878 -2.4945  0.2224  1.8976
  458MOL0     H61782   7.295  11.023   8.786 -0.5536 -0.6253 -1.9465
  458MOL0     H61783   7.214  11.171   8.764  2.8100  0.7682 -0.6823
  458MOL0     H61784   7.306  11.275   8.941  0.1627  0.6004 -0.6747
  458MOL0     H61785   7.402  11.123   8.985 -1.8408 -1.1126  0.1293
  458MOL0     H61786   7.415  11.307   8.740  0.7988 -1.4313 -1.7892
  458MOL0     H61787   7.480  11.147   8.722 -3.2364 -0.1981 -1.7280
  458MOL0     H61788   7.659  11.249   8.776 -0.7421  0.1077 -0.4456
  458MOL0     H61789   7.606  11.233   8.953  1.3727 -0.5405  0.0473
  458MOL0     H61790   7.620  11.674   8.887  1.1653  1.6874 -1.0306
  458MOL0     H61791   7.788  11.798   8.946  1.5514 -0.2768  0.3475
  458MOL0     H61792   8.200  11.608   9.310  2.3500 -0.6909  0.1143
  458MOL0     H61793   8.381  11.722   9.449  0.8902 -2.3264 -0.0179
  458MOL0     H61794   8.522  11.877   9.524 -1.1389  1.8116 -1.9328
  458MOL0     H61795   8.622  11.755   9.491 -1.3765 -0.4796 -0.8057
  458MOL0     H61796   8.682  12.040   9.561 -0.3384  0.3590 -1.4694
  458MOL0     H61797   8.757  11.886   9.621 -1.2706 -1.6465 -1.2141
  458MOL0     H61798   8.900  11.868   9.442 -0.9636 -0.4804  0.3442
  458MOL0     H61799   8.833  12.015   9.354 -1.0390  0.0173  1.2068
  458MOL0     H61800   8.921  12.070   9.615 -1.1789  0.0190 -0.8009
  458MOL0     H61801   8.987  12.145   9.468 -0.0027 -0.7394  0.3770
  458MOL0     H61802   9.142  11.967   9.440 -1.6555  1.6930 -1.7287
  458MOL0     H61803   9.070  11.881   9.576 -0.5846  0.1382  0.5510
  458MOL0     H61804   9.201  12.150   9.576 -0.7700 -1.1214 -3.7673
  458MOL0     H61805   9.120  12.101   9.723 -1.6327 -0.6498 -1.1023
  458MOL0     H61806   9.358  11.965   9.586  1.0725 -0.0296  0.1131
  458MOL0     H61807   9.260  11.883   9.707 -1.6091  1.7057 -1.3444
  458MOL0     H61808   9.324  12.031   9.886  0.4959 -1.5937  0.7380
  458MOL0     H61809   9.470  11.986   9.797 -0.4445 -0.7144 -0.1962
  458MOL0     H61810   8.518  11.926   9.092  0.1666  0.4226 -0.5507
  458MOL0     H61811   8.326  11.826   8.963 -0.3445  6.9933  1.2935
  458MOL0     H61812   8.025  11.436   9.025  0.1717  1.5408  1.0592
  458MOL0     H61813   7.822  11.306   8.953  2.0122  0.2543 -3.3197
  458MOL0     H61814   5.898  11.122   9.006  0.3801 -0.4885  1.8750
  458MOL0     H61815   5.659  11.179   9.049  1.5339  0.2646 -0.3587
  458MOL0     H61816   5.219  10.971   9.009  0.0329 -2.2096  0.9181
  458MOL0     H61817   4.995  11.028   9.018  1.6075  0.8444 -1.6253
  458MOL0     H61818   4.678  11.021   9.212  1.2666  0.3896  1.9376
  458MOL0     H61819   4.823  10.952   9.136 -1.1590 -1.8045  2.7392
  458MOL0     H61820   4.823  11.155   8.992  0.7201  1.7420  1.2799
  458MOL0     H61821   4.663  11.209   9.061  1.0819  0.0996  2.2450
  458MOL0     H61822   4.553  11.005   9.007  1.2592  1.7257  2.9163
  458MOL0     H61823   4.701  10.950   8.922 -0.8081 -0.0535 -0.0440
  458MOL0     H61824   4.704  11.162   8.782  0.1376 -0.1282 -0.8986
  458MOL0     H61825   4.595  11.035   8.754 -0.9748  1.4967 -0.8183
  458MOL0     H61826   4.318  11.346   8.870  0.8765  1.1659 -2.4100
  458MOL0     H61827   5.039  11.221   9.398  0.6313  1.1114 -0.1301
  458MOL0     H61828   5.359  11.117   9.480 -4.4029 -1.8734  1.0888
  458MOL0     H61829   5.397  11.263   9.368 -1.2302 -1.8429 -3.9438
  458MOL0     H61830   5.263  11.261   9.484  0.8495 -0.5385  1.8707
  459MOL0     O61831   6.950   7.646   1.152  0.3921 -0.4511 -0.5940
  459MOL0     C61832   6.888   7.553   1.193 -0.7333 -0.0170  0.4727
  459MOL0     O61833   6.930   7.483   1.300  0.6890  0.1760 -0.0004
  459MOL0     C61834   7.044   7.523   1.364  0.1660 -0.3689 -0.1271
  459MOL0     C61835   7.028   7.624   1.453  0.2127 -0.2820 -0.1819
  459MOL0     C61836   7.140   7.684   1.510  0.2468 -0.0526 -1.0196
  459MOL0     C61837   7.269   7.640   1.481  0.2773  0.3527  0.5176
  459MOL0     O61838   7.390   7.681   1.535 -0.0623 -0.7049 -0.0924
  459MOL0     C61839   7.395   7.768   1.651 -0.0730  0.1060  0.0739
  459MOL0     C61840   7.541   7.808   1.669  0.3630 -0.3410  0.4335
  459MOL0     C61841   7.598   7.904   1.557  1.0000  0.4456 -0.2687
  459MOL0     C61842   7.659   8.036   1.616 -0.1356  1.1896  0.5231
  459MOL0     C61843   7.679   8.135   1.513  0.4648 -0.3206  0.0659
  459MOL0     C61844   7.785   8.099   1.405 -0.3137  0.7834 -0.3965
  459MOL0     C61845   7.929   8.063   1.459  0.4606 -1.2749  0.5718
  459MOL0     C61846   8.017   8.188   1.484 -0.2137  0.1039 -0.2485
  459MOL0     N61847   8.147   8.159   1.541  0.3860 -0.6510  0.6183
  459MOL0     C61848   8.245   8.071   1.509  0.6676  0.0298  0.6660
  459MOL0     C61849   8.320   8.069   1.620  0.2055  0.2544 -0.1753
  459MOL0     C61850   8.436   7.981   1.639 -0.4833 -0.0784 -0.2876
  459MOL0     C61851   8.559   8.054   1.592 -0.6896 -0.1986  0.4057
  459MOL0     C61852   8.599   8.158   1.692 -0.4555 -0.5467 -0.1759
  459MOL0     C61853   8.722   8.236   1.639  1.0453  0.0816 -1.0985
  459MOL0     O61854   8.846   8.161   1.663  0.1598  0.4834 -0.3875
  459MOL0     C61855   8.968   8.222   1.681  0.6652  0.2715  0.0506
  459MOL0     C61856   8.983   8.360   1.687 -1.0363  0.1283  0.8425
  459MOL0     C61857   9.113   8.411   1.693  0.0215 -0.4996  0.1492
  459MOL0     C61858   9.222   8.329   1.702 -0.9162  0.4368  1.0704
  459MOL0     C61859   9.350   8.380   1.734 -0.3148 -0.4813  0.4537
  459MOL0     O61860   9.457   8.300   1.702 -0.0478 -0.6510 -0.5982
  459MOL0     C61861   9.573   8.359   1.742  0.5090 -0.7832 -1.0838
  459MOL0     C61862   9.641   8.452   1.659  0.2681  0.6492 -0.7400
  459MOL0     C61863   9.757   8.509   1.711 -0.3427 -0.6524 -0.2776
  459MOL0     C61864   9.807   8.481   1.836 -0.2348  0.0407  0.1313
  459MOL0     O61865   9.926   8.536   1.879  1.0671  0.0968 -0.0694
  459MOL0     C61866   9.992   8.471   1.989  1.0432 -0.5874  0.1253
  459MOL0     C61867  10.133   8.512   2.006 -0.0613 -1.1533  0.3333
  459MOL0     C61868  10.172   8.653   1.937 -0.3679  0.3868  0.0377
  459MOL0     C61869  10.121   8.760   2.023  0.4298  0.1190 -0.4814
  459MOL0     C61870  10.157   8.904   1.981 -0.3184  1.3958  0.0820
  459MOL0     C61871  10.304   8.945   2.002 -0.4176 -0.3181 -0.0366
  459MOL0     C61872  10.324   9.097   1.961 -1.0456 -0.4158 -0.5446
  459MOL0     C61873  10.310   9.142   1.819  0.8141 -0.0261 -1.3668
  459MOL0    Cl61874  10.423   9.041   1.727 -0.0282 -0.5201 -0.2994
  459MOL0     C61875   9.732   8.388   1.916  0.2968 -0.3013  0.3163
  459MOL0     C61876   9.616   8.328   1.870 -0.3468  0.3428 -0.0038
  459MOL0     O61877   9.354   8.486   1.797 -0.7678  0.5874  0.6638
  459MOL0     C61878   9.206   8.191   1.696 -0.2549  0.1794  0.7480
  459MOL0     C61879   9.080   8.130   1.679 -0.1074 -0.3930  0.1841
  459MOL0     N61880   8.280   8.166   1.710 -0.0595 -0.1742 -0.0751
  459MOL0     N61881   8.171   8.216   1.662 -0.8808  0.0436  0.6826
  459MOL0     C61882   7.277   7.544   1.380  0.0076 -0.3524  0.0951
  459MOL0     C61883   7.170   7.487   1.322  0.4950  0.2851  0.2773
  459MOL0     C61884   6.770   7.506   1.118  1.0026 -0.2530  0.1135
  459MOL0     C61885   6.669   7.440   1.185 -0.5326  0.2633 -1.1919
  459MOL0     C61886   6.548   7.398   1.132  0.0006  0.6518 -0.2322
  459MOL0     C61887   6.519   7.429   1.000 -0.0279  0.0155  0.2711
  459MOL0     O61888   6.416   7.382   0.925 -0.4078  0.0658 -1.4809
  459MOL0     C61889   6.301   7.321   0.997  0.5743  0.2381  0.3306
  459MOL0     C61890   6.181   7.305   0.894  0.6674 -0.1384 -0.8452
  459MOL0     C61891   6.206   7.178   0.817 -0.5537 -0.3942 -0.5410
  459MOL0     C61892   6.098   7.125   0.713 -0.2763  0.3918 -0.0804
  459MOL0     C61893   6.046   6.994   0.749 -0.1974  0.8701 -0.1080
  459MOL0     C61894   5.996   6.886   0.763 -0.2110 -0.3320 -1.0001
  459MOL0     C61895   6.624   7.497   0.923  0.5706 -0.3724  0.0576
  459MOL0     C61896   6.738   7.550   0.986 -0.1055  0.1708 -0.3164
  459MOL0     C61897   6.813   7.654   0.907  0.1465 -0.0686  0.2891
  459MOL0     H61898   6.929   7.666   1.467  0.5082  0.3629  0.0336
  459MOL0     H61899   7.126   7.760   1.586 -4.6344 -3.4510  2.1325
  459MOL0     H61900   7.332   7.856   1.637 -1.4176 -1.0377 -1.4196
  459MOL0     H61901   7.365   7.712   1.739 -1.2790  1.5332  0.6055
  459MOL0     H61902   7.603   7.717   1.667  0.0183 -0.5800 -1.3275
  459MOL0     H61903   7.556   7.861   1.763  1.4309  1.4441 -0.6981
  459MOL0     H61904   7.517   7.915   1.485  1.6769 -3.0052 -1.7888
  459MOL0     H61905   7.674   7.850   1.499  2.9058  0.5371  1.9970
  459MOL0     H61906   7.599   8.073   1.700  0.4712  0.7060  1.1805
  459MOL0     H61907   7.747   8.007   1.673 -1.7021 -2.0569  1.5275
  459MOL0     H61908   7.581   8.152   1.468  1.2910  2.9051 -0.8092
  459MOL0     H61909   7.709   8.233   1.553  2.7956 -0.3050 -1.5311
  459MOL0     H61910   7.747   8.008   1.359  1.4523 -0.1637 -0.0878
  459MOL0     H61911   7.780   8.175   1.326 -3.2445  0.1777 -0.8850
  459MOL0     H61912   7.971   8.003   1.378 -2.2268 -2.9898  0.3258
  459MOL0     H61913   7.927   7.999   1.548 -2.5718  1.1458  2.4642
  459MOL0     H61914   8.025   8.243   1.389 -1.3678  0.3773 -0.2036
  459MOL0     H61915   7.961   8.251   1.553  2.2166 -0.3031  2.2712
  459MOL0     H61916   8.263   8.012   1.421 -0.3400 -1.6199  1.5176
  459MOL0     H61917   8.434   7.937   1.740  0.8832 -0.2096 -0.2982
  459MOL0     H61918   8.430   7.889   1.579 -1.2312 -1.2500  1.4806
  459MOL0     H61919   8.639   7.980   1.581  1.8608  2.3914  0.2576
  459MOL0     H61920   8.540   8.096   1.493  2.2770 -0.1560 -0.2629
  459MOL0     H61921   8.623   8.115   1.789  0.1186 -0.5803 -0.3318
  459MOL0     H61922   8.514   8.227   1.696  0.1970  0.3734 -1.2492
  459MOL0     H61923   8.726   8.327   1.698  0.9339  1.7506 -3.5187
  459MOL0     H61924   8.709   8.271   1.536  2.1864 -1.6543 -1.8875
  459MOL0     H61925   8.901   8.428   1.669 -0.0548  0.9556 -0.7331
  459MOL0     H61926   9.125   8.518   1.709  0.7559 -0.3122 -1.4296
  459MOL0     H61927   9.593   8.476   1.564 -2.1995 -1.3136 -0.1118
  459MOL0     H61928   9.810   8.575   1.644  1.6681 -0.6588  1.2206
  459MOL0     H61929   9.928   8.494   2.074 -1.7888  0.6350 -2.1876
  459MOL0     H61930   9.993   8.362   1.976 -3.2834 -0.9124  1.2719
  459MOL0     H61931  10.137   8.508   2.116  0.5164 -1.7451  0.2999
  459MOL0     H61932  10.198   8.435   1.964  0.4520  0.5081 -2.0952
  459MOL0     H61933  10.281   8.665   1.942 -0.4286  1.5575 -0.8950
  459MOL0     H61934  10.146   8.666   1.832 -0.3214  0.0500 -0.0168
  459MOL0     H61935  10.138   8.744   2.130 -0.2636  2.2132 -0.0230
  459MOL0     H61936  10.014   8.742   2.006  0.4006  0.3651 -0.5573
  459MOL0     H61937  10.090   8.970   2.038 -2.1189 -1.0431  1.0029
  459MOL0     H61938  10.125   8.911   1.877 -1.2829  0.0612  0.2579
  459MOL0     H61939  10.340   8.927   2.104  1.5451 -3.4127 -1.1217
  459MOL0     H61940  10.365   8.886   1.933  0.8890  1.1540 -0.1744
  459MOL0     H61941  10.426   9.134   1.976 -1.7120  2.0390 -1.5035
  459MOL0     H61942  10.261   9.154   2.030 -2.0658 -1.3531 -0.6790
  459MOL0     H61943  10.209   9.132   1.779  0.7349 -2.1541 -0.7413
  459MOL0     H61944  10.341   9.246   1.829 -1.2111  0.4708  0.9733
  459MOL0     H61945   9.763   8.375   2.020 -0.0393  0.1118  0.4703
  459MOL0     H61946   9.557   8.262   1.932 -2.1915  0.0583 -1.9409
  459MOL0     H61947   9.282   8.116   1.714  0.1911  0.6544  0.8382
  459MOL0     H61948   9.073   8.022   1.672 -0.5414 -0.3992  0.6937
  459MOL0     H61949   7.381   7.526   1.354  0.3395 -0.7243  1.6212
  459MOL0     H61950   7.187   7.413   1.244 -3.7187 -2.0966  1.2973
  459MOL0     H61951   6.680   7.411   1.289 -0.2230 -0.5347 -1.4411
  459MOL0     H61952   6.480   7.340   1.194 -1.2047  2.9985  0.8193
  459MOL0     H61953   6.280   7.387   1.081  1.6628 -0.3649  1.1078
  459MOL0     H61954   6.323   7.221   1.036 -2.1800  1.0886  4.7971
  459MOL0     H61955   6.179   7.398   0.837 -0.6059  0.5050  0.2018
  459MOL0     H61956   6.085   7.303   0.947  2.0024 -1.8077  1.7451
  459MOL0     H61957   6.211   7.098   0.891  0.1327  0.9938  0.9805
  459MOL0     H61958   6.298   7.186   0.758  0.0857 -0.9645  0.3562
  459MOL0     H61959   6.015   7.196   0.704 -0.4192  0.1280 -1.0544
  459MOL0     H61960   6.140   7.113   0.612 -0.6655  1.3170 -0.3663
  459MOL0     H61961   5.959   6.786   0.754  1.8528 -1.1275 -1.3066
  459MOL0     H61962   6.614   7.531   0.820  0.6467  2.1437  0.8138
  459MOL0     H61963   6.787   7.666   0.801  1.4059  2.6112  0.2154
  459MOL0     H61964   6.793   7.748   0.958  0.2583 -1.6562  3.5398
  459MOL0     H61965   6.921   7.645   0.916 -0.1203 -1.8980  3.0384
  460MOL0     O61966   4.355   4.992   9.077  0.1703  0.4025 -0.2082
  460MOL0     C61967   4.317   4.973   8.963  0.1026  0.0823 -0.3119
  460MOL0     O61968   4.363   5.047   8.857 -0.3080  0.3227  0.2323
  460MOL0     C61969   4.484   5.120   8.864  0.1870 -0.0566  0.4503
  460MOL0     C61970   4.604   5.068   8.916  0.2380 -0.0190 -1.3733
  460MOL0     C61971   4.724   5.132   8.899  0.0751  0.2250  0.6504
  460MOL0     C61972   4.735   5.250   8.826 -0.0427 -0.5782 -0.0086
  460MOL0     O61973   4.842   5.334   8.810  0.5591  0.1030  0.0149
  460MOL0     C61974   4.974   5.280   8.844 -0.1999 -0.6197 -0.1328
  460MOL0     C61975   5.062   5.400   8.857  0.5687 -0.2568  1.2064
  460MOL0     C61976   5.213   5.387   8.887  0.8409  0.6033  0.5254
  460MOL0     C61977   5.294   5.303   8.794 -0.3893 -0.6889  0.0161
  460MOL0     C61978   5.435   5.306   8.850 -0.5206  0.7746 -0.6313
  460MOL0     C61979   5.510   5.179   8.802  0.1850 -0.2866  0.3326
  460MOL0     C61980   5.655   5.189   8.830  0.0763 -0.9418  0.3598
  460MOL0     C61981   5.692   5.194   8.974  0.3896 -0.2560 -0.0906
  460MOL0     N61982   5.840   5.200   8.996  0.2679 -0.9768 -0.4629
  460MOL0     C61983   5.932   5.288   8.936  0.4563 -0.5317  0.6674
  460MOL0     C61984   6.045   5.262   9.003  0.6488  0.2252  0.1414
  460MOL0     C61985   6.174   5.327   8.991 -0.0166 -0.3216 -0.1264
  460MOL0     C61986   6.159   5.470   9.043 -0.1965  0.8634 -0.6942
  460MOL0     C61987   6.120   5.471   9.191  1.0384 -0.5637  0.0743
  460MOL0     C61988   6.114   5.613   9.248 -0.3729 -0.1394 -0.2754
  460MOL0     O61989   6.035   5.713   9.177  0.0432  0.0849  0.1824
  460MOL0     C61990   5.899   5.676   9.173 -0.0616  0.5141  0.1215
  460MOL0     C61991   5.817   5.740   9.081 -0.7060  0.3931  0.3171
  460MOL0     C61992   5.676   5.736   9.093  0.1883  0.4683  0.2829
  460MOL0     C61993   5.612   5.652   9.192 -0.6068 -0.3695 -0.0237
  460MOL0     C61994   5.463   5.639   9.209 -0.3043 -0.1182  0.1854
  460MOL0     O61995   5.396   5.713   9.125  0.0969  0.2383 -0.5634
  460MOL0     C61996   5.262   5.713   9.128  1.3794  0.4356  0.2179
  460MOL0     C61997   5.192   5.729   9.002  0.4735  0.1866  0.1643
  460MOL0     C61998   5.057   5.724   8.998  0.1169  0.0336 -0.5113
  460MOL0     C61999   4.981   5.714   9.117 -0.2979 -0.0565  0.1166
  460MOL0     O62000   4.851   5.691   9.096 -0.0339 -0.7823  0.4653
  460MOL0     C62001   4.769   5.801   9.139  0.5813  0.4440 -0.5437
  460MOL0     C62002   4.633   5.792   9.073 -0.4488 -1.2324 -0.1201
  460MOL0     C62003   4.558   5.659   9.074 -0.6998 -0.1528  0.4736
  460MOL0     C62004   4.523   5.591   9.206 -0.3850  0.5736  0.5106
  460MOL0     C62005   4.396   5.504   9.192  0.1265  0.1706  0.1260
  460MOL0     C62006   4.340   5.471   9.325 -0.3341 -0.2116 -0.4203
  460MOL0     C62007   4.222   5.359   9.322 -0.6906  0.4074 -0.0175
  460MOL0     C62008   4.177   5.325   9.463  0.4559 -0.3902  1.0151
  460MOL0    Cl62009   4.041   5.205   9.435 -0.6362 -0.0967  0.4188
  460MOL0     C62010   5.049   5.708   9.238 -0.3276  0.2861  0.1306
  460MOL0     C62011   5.185   5.704   9.242 -0.6666 -0.0620 -0.1660
  460MOL0     O62012   5.412   5.567   9.296  0.1083 -0.3809 -0.0619
  460MOL0     C62013   5.697   5.589   9.285  0.1617 -0.0351  0.6159
  460MOL0     C62014   5.834   5.601   9.270  0.8996 -0.2621 -0.3617
  460MOL0     N62015   6.021   5.169   9.103  0.7569  0.7473  1.0589
  460MOL0     N62016   5.900   5.129   9.094 -0.4776  0.5928 -0.2415
  460MOL0     C62017   4.615   5.299   8.773  0.6451  0.9189 -0.2740
  460MOL0     C62018   4.489   5.243   8.788 -0.4381  0.5958 -0.4514
  460MOL0     C62019   4.209   4.871   8.938 -0.4388 -0.7211 -0.4027
  460MOL0     C62020   4.242   4.765   8.856 -0.2966  0.0062  0.2349
  460MOL0     C62021   4.139   4.675   8.822  0.2991  0.3927  0.3815
  460MOL0     C62022   4.014   4.685   8.881 -0.4906 -0.5613  0.7695
  460MOL0     O62023   3.925   4.587   8.847 -0.3446 -0.2809 -0.2998
  460MOL0     C62024   3.840   4.550   8.957  0.4047 -0.9945  0.6013
  460MOL0     C62025   3.838   4.393   8.966 -0.6992  0.3562  0.1119
  460MOL0     C62026   3.781   4.329   9.085  0.4538 -0.4012 -0.2884
  460MOL0     C62027   3.627   4.344   9.069  0.2592 -0.9161 -0.6089
  460MOL0     C62028   3.575   4.329   9.209 -0.1696  0.8480  0.8233
  460MOL0     C62029   3.510   4.297   9.308 -0.4218 -0.1463 -0.1396
  460MOL0     C62030   3.985   4.805   8.948 -0.1822  0.6775  0.0283
  460MOL0     C62031   4.079   4.896   8.986  0.2703 -0.5646  0.3668
  460MOL0     C62032   4.030   5.012   9.072  0.8413  0.4223 -0.0498
  460MOL0     H62033   4.595   4.976   8.972  0.9416  0.0802 -1.0907
  460MOL0     H62034   4.821   5.088   8.924  0.3640 -0.5441 -1.6077
  460MOL0     H62035   4.978   5.231   8.942  0.3518  1.8095  1.1369
  460MOL0     H62036   5.019   5.219   8.766  1.2523  0.6772 -0.3589
  460MOL0     H62037   5.026   5.443   8.951  0.0324  0.3732  0.7178
  460MOL0     H62038   5.058   5.474   8.776  1.3186 -0.4133  1.0164
  460MOL0     H62039   5.214   5.337   8.985 -2.8288  0.8969  0.8466
  460MOL0     H62040   5.255   5.488   8.891  0.6527  0.6859  0.4424
  460MOL0     H62041   5.253   5.202   8.798 -1.1205 -0.3743  0.8428
  460MOL0     H62042   5.288   5.336   8.690  0.6938  1.0806  0.4646
  460MOL0     H62043   5.474   5.397   8.801  0.5468  1.2024  0.9206
  460MOL0     H62044   5.445   5.316   8.958  0.3224  0.3065 -0.6597
  460MOL0     H62045   5.463   5.094   8.852 -0.7714  0.9205  1.5564
  460MOL0     H62046   5.520   5.173   8.693  1.1395 -0.7921  0.4380
  460MOL0     H62047   5.682   5.285   8.785  0.8643 -2.1216 -1.8395
  460MOL0     H62048   5.700   5.108   8.773  1.1637  0.3111 -0.6296
  460MOL0     H62049   5.654   5.279   9.029  2.0583  0.8936 -0.6216
  460MOL0     H62050   5.658   5.108   9.032 -0.4440 -0.6262 -1.0988
  460MOL0     H62051   5.912   5.360   8.857 -2.3801 -2.8700 -0.9790
  460MOL0     H62052   6.248   5.271   9.048  0.5845 -0.0207 -0.5903
  460MOL0     H62053   6.212   5.319   8.888  1.6283  0.8466  0.3566
  460MOL0     H62054   6.254   5.521   9.024  0.3856  0.9578  2.0531
  460MOL0     H62055   6.081   5.527   8.992  0.2041  2.0448 -0.0117
  460MOL0     H62056   6.196   5.417   9.248  2.7027  0.4168 -1.1285
  460MOL0     H62057   6.025   5.422   9.212  2.6358 -3.0429  2.0684
  460MOL0     H62058   6.218   5.646   9.243  0.7378 -3.2849 -0.8463
  460MOL0     H62059   6.092   5.603   9.354 -0.8564 -2.6811 -0.5519
  460MOL0     H62060   5.860   5.806   9.006  2.6257 -0.0415  1.6711
  460MOL0     H62061   5.610   5.791   9.026  0.0325 -0.1890 -0.1169
  460MOL0     H62062   5.257   5.717   8.916  1.0853 -1.8594  0.8704
  460MOL0     H62063   5.002   5.718   8.905  0.3519  0.4293 -0.6804
  460MOL0     H62064   4.758   5.798   9.247  2.3918  0.4740 -0.3275
  460MOL0     H62065   4.807   5.900   9.113  1.2041  0.8126  1.5849
  460MOL0     H62066   4.567   5.872   9.110  1.1477 -0.6153  1.5708
  460MOL0     H62067   4.651   5.818   8.968 -1.6332  1.6195  0.2723
  460MOL0     H62068   4.460   5.684   9.032 -0.2780  0.7105 -0.0373
  460MOL0     H62069   4.599   5.593   8.997 -2.8684  0.8081 -1.6289
  460MOL0     H62070   4.507   5.674   9.276 -0.8526  0.6066  0.3710
  460MOL0     H62071   4.605   5.526   9.237 -0.2171 -0.6034 -2.0753
  460MOL0     H62072   4.422   5.416   9.132  0.7627  2.0388 -2.5077
  460MOL0     H62073   4.317   5.554   9.134  1.1412  1.2259 -0.3870
  460MOL0     H62074   4.412   5.434   9.398  1.1239  0.6617 -1.3596
  460MOL0     H62075   4.304   5.566   9.367  0.4179 -1.7766  4.3404
  460MOL0     H62076   4.275   5.268   9.292 -3.5187 -2.0335  1.7889
  460MOL0     H62077   4.137   5.391   9.261  0.1046  1.9456 -0.3786
  460MOL0     H62078   4.251   5.273   9.524 -0.5825 -2.2178  0.7723
  460MOL0     H62079   4.144   5.406   9.529 -0.6057 -0.5516  0.7085
  460MOL0     H62080   4.989   5.687   9.326 -1.8210 -1.4732 -1.2237
  460MOL0     H62081   5.228   5.705   9.342  0.4991  0.7029 -0.6651
  460MOL0     H62082   5.647   5.532   9.362  1.1560 -3.7550 -1.2675
  460MOL0     H62083   5.887   5.564   9.357 -0.1102 -0.1909  0.2912
  460MOL0     H62084   4.616   5.391   8.715 -2.8167  1.9793  1.1015
  460MOL0     H62085   4.399   5.292   8.753 -1.2130  0.9206  1.8308
  460MOL0     H62086   4.344   4.754   8.822  0.5811  1.4708  2.2627
  460MOL0     H62087   4.159   4.588   8.760 -3.9110 -0.6610  0.2072
  460MOL0     H62088   3.738   4.581   8.935  0.4393 -1.3607 -0.0712
  460MOL0     H62089   3.864   4.584   9.059 -0.7470 -1.3138  0.9886
  460MOL0     H62090   3.943   4.364   8.965 -1.0804 -1.1525 -2.0147
  460MOL0     H62091   3.786   4.351   8.879 -1.0779 -0.2168  0.6116
  460MOL0     H62092   3.813   4.388   9.171 -1.0454  1.1678 -0.7445
  460MOL0     H62093   3.800   4.222   9.095 -2.7751 -0.9526  1.7559
  460MOL0     H62094   3.598   4.432   9.010 -1.9963 -0.2825  1.2500
  460MOL0     H62095   3.592   4.254   9.019  1.7462 -2.1101  0.4320
  460MOL0     H62096   3.440   4.259   9.379 -2.1392  1.1240 -1.0969
  460MOL0     H62097   3.884   4.800   8.986  0.7910 -2.1488  2.6788
  460MOL0     H62098   4.055   5.098   9.009  0.1076  1.4449  1.0365
  460MOL0     H62099   3.928   5.002   9.109  0.8211  1.7322  0.2885
  460MOL0     H62100   4.096   5.014   9.159  1.6279 -1.8391 -0.5240
  461MOL0     O62101   9.403   8.833   8.827 -0.7474  0.2409  0.3673
  461MOL0     C62102   9.387   8.784   8.717  0.1554 -0.1616 -0.8581
  461MOL0     O62103   9.473   8.812   8.610  0.4122 -0.4489 -0.3320
  461MOL0     C62104   9.588   8.884   8.641 -0.1373  0.3090 -0.8988
  461MOL0     C62105   9.630   8.974   8.549  0.5987 -0.3812 -0.1839
  461MOL0     C62106   9.760   9.027   8.559  0.7648  0.8164  0.4671
  461MOL0     C62107   9.843   8.982   8.657 -0.2368  0.5866 -0.6079
  461MOL0     O62108   9.968   9.042   8.668  0.1472  0.4043  0.5660
  461MOL0     C62109  10.084   8.978   8.738  1.0957 -1.0221  1.1362
  461MOL0     C62110  10.196   9.081   8.747  1.1201 -0.4451 -0.4617
  461MOL0     C62111  10.324   9.024   8.807 -0.4338 -0.1984 -0.0718
  461MOL0     C62112  10.403   8.931   8.711  0.4893  0.2263  0.0043
  461MOL0     C62113  10.511   8.851   8.788 -0.4526  0.1637 -1.1601
  461MOL0     C62114  10.607   8.937   8.875  0.5200 -1.3796  1.0450
  461MOL0     C62115  10.672   8.856   8.980 -0.2055 -0.3098  0.1899
  461MOL0     C62116  10.763   8.743   8.921 -1.2233 -0.4020 -0.7042
  461MOL0     N62117  10.874   8.781   8.836 -1.0876  0.0092 -0.0743
  461MOL0     C62118  10.882   8.781   8.701  0.6506 -1.0146  1.4497
  461MOL0     C62119  11.011   8.815   8.665  0.3390  0.0092  0.3977
  461MOL0     C62120  11.067   8.830   8.526 -0.4279 -0.5223  0.0684
  461MOL0     C62121  11.204   8.776   8.524 -0.4623  0.3894 -1.1765
  461MOL0     C62122  11.278   8.798   8.394  1.0461 -0.1800  0.2685
  461MOL0     C62123  11.417   8.737   8.400 -0.6363 -0.2313  0.1339
  461MOL0     O62124  11.418   8.595   8.423 -0.4465 -0.6054 -0.2152
  461MOL0     C62125  11.541   8.539   8.450  0.1679 -0.9278  0.2804
  461MOL0     C62126  11.544   8.410   8.497  0.1701  0.0410  0.0046
  461MOL0     C62127  11.662   8.332   8.501  0.1067  0.6880  0.4240
  461MOL0     C62128  11.787   8.397   8.478 -0.4189 -0.6521  0.5616
  461MOL0     C62129  11.910   8.321   8.497  0.1779  0.7155  0.3610
  461MOL0     O62130  12.024   8.394   8.493  0.0664 -0.0483 -0.5664
  461MOL0     C62131  12.139   8.352   8.425  0.1761  0.8277  0.2484
  461MOL0     C62132  12.253   8.303   8.492  0.3290 -0.6964  0.5182
  461MOL0     C62133  12.372   8.263   8.434 -0.6791  0.1606  0.8199
  461MOL0     C62134  12.386   8.296   8.297  1.0550  0.6455 -0.2988
  461MOL0     O62135  12.510   8.266   8.248 -0.0814 -0.4300  0.3455
  461MOL0     C62136  12.553   8.364   8.148  0.0280  0.3107 -0.2319
  461MOL0     C62137  12.699   8.344   8.110 -0.7813 -0.7584 -0.2564
  461MOL0     C62138  12.787   8.375   8.230  0.3266 -0.7448  0.4162
  461MOL0     C62139  12.929   8.351   8.193 -0.3159 -0.1132  0.3219
  461MOL0     C62140  13.019   8.410   8.303  0.1285  0.6358  0.3723
  461MOL0     C62141  13.163   8.377   8.282  0.3255 -0.0967 -0.3044
  461MOL0     C62142  13.193   8.230   8.331 -0.2083 -0.0588 -0.1865
  461MOL0     C62143  13.328   8.184   8.297 -1.5871 -0.1263  0.4866
  461MOL0    Cl62144  13.461   8.278   8.379  0.4138 -0.1848 -0.0468
  461MOL0     C62145  12.277   8.347   8.225  0.2284  0.5717 -0.0053
  461MOL0     C62146  12.155   8.371   8.290  0.6530  0.0842  0.1667
  461MOL0     O62147  11.911   8.202   8.500 -0.0529 -0.4311  0.1415
  461MOL0     C62148  11.783   8.534   8.441  0.2677 -0.4994 -0.3790
  461MOL0     C62149  11.666   8.605   8.427  0.4160  2.0951 -0.0356
  461MOL0     N62150  11.080   8.833   8.779 -0.7353  0.5954 -0.7675
  461MOL0     N62151  10.996   8.809   8.882 -0.2802  0.1625 -0.0637
  461MOL0     C62152   9.815   8.875   8.742  0.1907  0.0611  1.0139
  461MOL0     C62153   9.680   8.831   8.735  0.8071 -0.3559  0.3814
  461MOL0     C62154   9.264   8.696   8.699  0.1302 -0.7280 -0.2341
  461MOL0     C62155   9.252   8.615   8.586  0.9903  0.5582  0.7364
  461MOL0     C62156   9.154   8.525   8.562 -0.4633 -0.4998 -0.0239
  461MOL0     C62157   9.051   8.506   8.649 -1.1095  0.6856  0.1005
  461MOL0     O62158   8.948   8.417   8.618  0.0277 -0.2107 -0.1416
  461MOL0     C62159   8.969   8.294   8.695 -0.1240 -0.5500 -0.2248
  461MOL0     C62160   8.878   8.196   8.622  0.2184  0.1865  0.7348
  461MOL0     C62161   8.734   8.246   8.603  0.1570  0.1290  0.0811
  461MOL0     C62162   8.612   8.144   8.617 -0.2156  0.1221  0.6042
  461MOL0     C62163   8.483   8.218   8.632  0.3894  0.5935  0.3371
  461MOL0     C62164   8.381   8.285   8.630 -0.9086  0.4090  0.1536
  461MOL0     C62165   9.052   8.589   8.768  0.2853 -0.6704  0.1758
  461MOL0     C62166   9.156   8.689   8.791  0.0594  1.1799  0.4898
  461MOL0     C62167   9.139   8.764   8.924 -0.1937  1.4880  0.1359
  461MOL0     H62168   9.560   8.999   8.471  1.4885 -0.3925 -1.0065
  461MOL0     H62169   9.787   9.108   8.492  2.3021  2.2997  2.7124
  461MOL0     H62170  10.058   8.960   8.843 -0.0685 -2.4992  0.6355
  461MOL0     H62171  10.122   8.888   8.689  1.2292 -1.6883  2.4104
  461MOL0     H62172  10.165   9.156   8.820 -2.1361 -2.0392  0.0083
  461MOL0     H62173  10.220   9.118   8.647 -0.3607 -1.4267 -1.2280
  461MOL0     H62174  10.306   8.966   8.899 -1.8812  0.0815 -0.1599
  461MOL0     H62175  10.387   9.108   8.838  1.7125 -0.8349 -2.3752
  461MOL0     H62176  10.336   8.853   8.673 -1.3185  1.0583  1.3458
  461MOL0     H62177  10.436   8.983   8.621 -0.4717 -1.0055 -1.1130
  461MOL0     H62178  10.463   8.776   8.851  2.4395 -1.1816 -0.4171
  461MOL0     H62179  10.574   8.799   8.716  1.3693  2.4230 -1.3123
  461MOL0     H62180  10.673   8.993   8.809  0.7329 -1.7806  0.9152
  461MOL0     H62181  10.546   9.012   8.927  0.7080 -1.0581  0.8007
  461MOL0     H62182  10.590   8.810   9.036 -1.7027  1.2109 -0.6716
  461MOL0     H62183  10.729   8.919   9.048  1.0372 -3.4381  2.3099
  461MOL0     H62184  10.811   8.705   9.012 -2.0202 -1.1000 -0.5661
  461MOL0     H62185  10.710   8.660   8.873 -0.3243  1.2304 -4.9192
  461MOL0     H62186  10.802   8.767   8.629  0.7251 -1.1660  1.3975
  461MOL0     H62187  10.998   8.776   8.460 -1.3740  0.6273  0.0773
  461MOL0     H62188  11.057   8.935   8.499 -0.4450 -0.5244  0.0668
  461MOL0     H62189  11.258   8.820   8.608  0.9755 -0.1051 -1.8151
  461MOL0     H62190  11.202   8.670   8.551 -0.3094  0.5205 -0.6423
  461MOL0     H62191  11.289   8.905   8.374  0.6171 -0.1982 -0.0725
  461MOL0     H62192  11.217   8.757   8.313  0.7665  2.0716 -0.7403
  461MOL0     H62193  11.470   8.779   8.486  0.5355 -2.0000  0.3182
  461MOL0     H62194  11.482   8.756   8.313  1.2483 -2.7654  0.8736
  461MOL0     H62195  11.446   8.367   8.520 -0.4586  0.5425 -1.6146
  461MOL0     H62196  11.671   8.229   8.535  0.9770  1.0284  1.2837
  461MOL0     H62197  12.238   8.299   8.599 -3.1708  1.0472  0.2315
  461MOL0     H62198  12.454   8.219   8.489 -0.7430 -2.1092 -0.7517
  461MOL0     H62199  12.494   8.358   8.056  1.6533 -1.1139 -1.2374
  461MOL0     H62200  12.552   8.462   8.196  1.1907 -0.8337  2.3033
  461MOL0     H62201  12.715   8.244   8.070 -2.1027  0.3186 -3.8297
  461MOL0     H62202  12.723   8.407   8.024 -0.9931  1.4564  1.2056
  461MOL0     H62203  12.770   8.476   8.267  1.6835 -0.2901 -0.1310
  461MOL0     H62204  12.772   8.311   8.318 -2.8300 -0.1647  0.4022
  461MOL0     H62205  12.952   8.405   8.101  2.3705 -2.1875 -0.3389
  461MOL0     H62206  12.951   8.245   8.182  1.7953  0.0645  2.0853
  461MOL0     H62207  12.979   8.375   8.399  0.5495 -0.3074  0.2130
  461MOL0     H62208  13.010   8.518   8.289 -1.3265  0.7447  1.7636
  461MOL0     H62209  13.194   8.384   8.177 -0.6401 -0.8648 -0.6544
  461MOL0     H62210  13.211   8.456   8.341 -2.1913  0.6168  0.9103
  461MOL0     H62211  13.117   8.157   8.301 -1.2049  0.1034  1.7549
  461MOL0     H62212  13.195   8.243   8.440  1.0294  1.8065 -0.3918
  461MOL0     H62213  13.337   8.076   8.316  2.5481 -0.3530 -1.5774
  461MOL0     H62214  13.351   8.185   8.190 -0.2936 -5.6423  0.3873
  461MOL0     H62215  12.286   8.380   8.122 -0.2021 -1.7935 -0.8559
  461MOL0     H62216  12.074   8.404   8.225  1.9878  0.2555 -1.4516
  461MOL0     H62217  11.873   8.587   8.412  0.0047  1.7790  2.5366
  461MOL0     H62218  11.669   8.711   8.402 -0.3689  2.6159  1.8776
  461MOL0     H62219   9.894   8.827   8.798  0.7766 -2.0468 -1.4338
  461MOL0     H62220   9.634   8.761   8.804  1.3131 -0.1441  0.9480
  461MOL0     H62221   9.324   8.634   8.508  0.1313 -0.9529 -0.4943
  461MOL0     H62222   9.146   8.465   8.472 -0.9705 -0.2733 -0.1362
  461MOL0     H62223   8.948   8.303   8.801 -1.6265 -1.5013 -0.4166
  461MOL0     H62224   9.071   8.255   8.691 -0.3145 -0.9820 -1.1267
  461MOL0     H62225   8.865   8.114   8.694 -0.0899 -0.0395  0.4203
  461MOL0     H62226   8.922   8.164   8.528 -1.3280  1.2589 -0.4062
  461MOL0     H62227   8.727   8.290   8.503 -0.0637  0.3844  0.2061
  461MOL0     H62228   8.730   8.325   8.680  2.6111 -1.8264  2.4374
  461MOL0     H62229   8.607   8.083   8.527  2.7757 -2.5973  2.1137
  461MOL0     H62230   8.614   8.073   8.701  0.2184  0.8066  1.1865
  461MOL0     H62231   8.299   8.353   8.641 -1.5254 -0.4259  0.8919
  461MOL0     H62232   8.968   8.570   8.834 -0.6306 -1.8964 -1.2857
  461MOL0     H62233   9.063   8.720   8.989 -0.7833  1.2283 -0.7167
  461MOL0     H62234   9.225   8.768   8.992  0.0404 -0.8464  0.0661
  461MOL0     H62235   9.105   8.867   8.909 -1.2005  0.7664 -3.3732
  462MOL0     O62236   1.910   0.788  10.282 -0.0298 -0.0119 -0.5421
  462MOL0     C62237   1.862   0.688  10.236 -0.2676  0.1092  0.2634
  462MOL0     O62238   1.916   0.617  10.133  0.0853 -0.1615  0.0556
  462MOL0     C62239   2.039   0.657  10.099  0.6639 -0.4296  0.2970
  462MOL0     C62240   2.158   0.636  10.175 -0.5431  0.0309 -0.2110
  462MOL0     C62241   2.283   0.687  10.130 -0.0296 -0.1693 -0.4651
  462MOL0     C62242   2.285   0.765  10.010  0.7043  0.1056  0.3146
  462MOL0     O62243   2.399   0.821   9.950  0.3459  0.1836 -0.1341
  462MOL0     C62244   2.510   0.812  10.040 -0.6607 -0.7933  1.1054
  462MOL0     C62245   2.626   0.913  10.008 -0.2565  0.1645  0.1193
  462MOL0     C62246   2.760   0.880  10.082 -0.5914  0.4228  0.5122
  462MOL0     C62247   2.866   0.973  10.055  0.1144 -0.4544  0.2148
  462MOL0     C62248   2.995   0.939  10.124  0.2337 -0.4697 -0.5638
  462MOL0     C62249   3.117   1.011  10.061 -0.4874  0.0328 -0.4990
  462MOL0     C62250   3.150   0.956   9.920 -0.1545  0.1953  0.7814
  462MOL0     C62251   3.293   0.996   9.867 -0.2713  0.2886 -0.3448
  462MOL0     N62252   3.406   0.955   9.944  0.8308  0.3875 -0.6750
  462MOL0     C62253   3.484   1.031  10.028 -0.1916  0.0339 -0.5356
  462MOL0     C62254   3.588   0.951  10.066 -0.2336  0.6993  0.4698
  462MOL0     C62255   3.706   0.997  10.149 -0.2506 -0.1737 -0.6419
  462MOL0     C62256   3.759   1.121  10.087  0.1632 -0.2682 -0.5324
  462MOL0     C62257   3.877   1.168  10.156 -0.0803  0.0020 -0.3816
  462MOL0     C62258   3.946   1.280  10.094  0.4016 -0.3559 -0.0250
  462MOL0     O62259   3.980   1.265   9.953 -0.5214 -0.2426  0.4087
  462MOL0     C62260   4.102   1.214   9.944 -0.4833  0.2229  0.5525
  462MOL0     C62261   4.210   1.301   9.978  0.2863  0.6535  0.4409
  462MOL0     C62262   4.335   1.253   9.971  0.2448 -0.0500 -0.4812
  462MOL0     C62263   4.369   1.125   9.933  0.0244  0.0963  0.6195
  462MOL0     C62264   4.509   1.079   9.935 -0.4876  0.5228  0.4247
  462MOL0     O62265   4.553   0.981   9.843  0.0255  0.3404  0.1739
  462MOL0     C62266   4.686   0.945   9.836  0.5102 -0.2066 -0.0517
  462MOL0     C62267   4.799   1.030   9.836 -0.0814 -0.2823 -0.6249
  462MOL0     C62268   4.932   0.981   9.821 -0.7629  0.0162 -0.0865
  462MOL0     C62269   4.941   0.842   9.803 -0.0601  0.1277 -0.8547
  462MOL0     O62270   5.056   0.765   9.793  0.5748  0.2727 -0.2758
  462MOL0     C62271   5.177   0.834   9.751  0.1479  0.0511  0.0740
  462MOL0     C62272   5.318   0.754   9.737  0.1735  0.6445 -0.7631
  462MOL0     C62273   5.338   0.652   9.849  0.2222 -0.1022  0.0302
  462MOL0     C62274   5.440   0.543   9.805 -0.5672  0.0073  0.5483
  462MOL0     C62275   5.442   0.429   9.910  0.3114 -0.3657  0.6517
  462MOL0     C62276   5.457   0.477  10.051  0.7164  0.4879 -1.2529
  462MOL0     C62277   5.479   0.358  10.152 -0.5981 -0.2777  0.3347
  462MOL0     C62278   5.350   0.283  10.173 -0.7650  0.4582 -0.5453
  462MOL0    Cl62279   5.385   0.122  10.239 -0.1523  0.0082 -0.1925
  462MOL0     C62280   4.828   0.764   9.787 -1.2979 -0.0559 -0.0233
  462MOL0     C62281   4.709   0.818   9.797 -0.2269  1.0630 -0.5992
  462MOL0     O62282   4.583   1.129  10.014  0.0037  0.1015  0.0840
  462MOL0     C62283   4.265   1.040   9.895 -0.2557 -0.3697  1.1863
  462MOL0     C62284   4.134   1.090   9.892 -0.8317  0.2273  0.2267
  462MOL0     N62285   3.573   0.829   9.990  0.2732 -0.1493 -0.4223
  462MOL0     N62286   3.466   0.831   9.926 -0.3138 -0.1495 -0.4606
  462MOL0     C62287   2.170   0.775   9.936 -0.0866 -0.5944  0.8094
  462MOL0     C62288   2.047   0.724   9.978  0.3301  0.0453 -0.6809
  462MOL0     C62289   1.727   0.645  10.275  0.1480  0.3057  1.3578
  462MOL0     C62290   1.642   0.586  10.177  0.1173 -0.0071 -0.2239
  462MOL0     C62291   1.511   0.549  10.211 -0.2523  0.4401 -0.4664
  462MOL0     C62292   1.460   0.572  10.338  0.1230 -0.8063  0.8955
  462MOL0     O62293   1.338   0.529  10.379 -0.2604 -0.4310  0.0659
  462MOL0     C62294   1.230   0.625  10.395  0.6289 -0.6038  0.4575
  462MOL0     C62295   1.122   0.584  10.285 -0.2635  0.0592 -0.5239
  462MOL0     C62296   1.036   0.470  10.323  0.8386 -0.3222  0.4443
  462MOL0     C62297   0.918   0.450  10.225  0.5744 -0.2018  0.0434
  462MOL0     C62298   0.827   0.355  10.268 -0.0908  0.4206 -0.2490
  462MOL0     C62299   0.755   0.278  10.335  0.7189 -1.1019 -0.1857
  462MOL0     C62300   1.541   0.627  10.438 -0.4727 -0.3255  0.4947
  462MOL0     C62301   1.673   0.660  10.409 -0.3944 -0.6418 -0.3252
  462MOL0     C62302   1.762   0.712  10.520 -0.2767  0.5913  0.1605
  462MOL0     H62303   2.160   0.578  10.266 -0.5232 -0.5073 -0.5517
  462MOL0     H62304   2.367   0.680  10.197  0.1093  3.3054 -0.0768
  462MOL0     H62305   2.471   0.845  10.137 -0.9878 -1.3823  1.1810
  462MOL0     H62306   2.545   0.709  10.046 -1.1465 -0.8848  3.3523
  462MOL0     H62307   2.602   1.018  10.026  0.9579  0.7852 -1.5800
  462MOL0     H62308   2.641   0.912   9.900 -1.9028  6.8174 -0.6041
  462MOL0     H62309   2.777   0.777  10.047 -3.4086  0.0716 -0.1204
  462MOL0     H62310   2.738   0.876  10.189 -4.1609 -1.4880 -0.1314
  462MOL0     H62311   2.881   0.976   9.947  1.7032 -0.5655  0.4051
  462MOL0     H62312   2.834   1.072  10.089  1.3265  0.1485 -0.3249
  462MOL0     H62313   2.984   0.975  10.227 -0.3697  0.1574 -0.8453
  462MOL0     H62314   2.996   0.829  10.130 -2.8565 -0.6053 -0.6833
  462MOL0     H62315   3.101   1.119  10.054  0.5502  0.1946 -0.5495
  462MOL0     H62316   3.203   0.992  10.127 -1.1152  0.8197  0.5803
  462MOL0     H62317   3.084   1.001   9.845 -0.3674  1.0395  1.4683
  462MOL0     H62318   3.138   0.847   9.922 -0.7594  0.2489  3.0879
  462MOL0     H62319   3.299   0.953   9.767  1.4132  1.1250 -0.6305
  462MOL0     H62320   3.298   1.105   9.862  1.1216  0.6706  4.4587
  462MOL0     H62321   3.465   1.125  10.078  0.5615 -0.5276  0.8451
  462MOL0     H62322   3.676   1.006  10.253  1.3835 -2.5417  0.1147
  462MOL0     H62323   3.769   0.908  10.141 -2.0280 -1.4241 -1.3989
  462MOL0     H62324   3.790   1.090   9.987 -0.6739  0.9325 -1.1800
  462MOL0     H62325   3.680   1.195  10.090 -0.9385 -1.3460 -1.7101
  462MOL0     H62326   3.947   1.085  10.146  1.1449  1.2467 -3.7768
  462MOL0     H62327   3.860   1.187  10.262 -0.8984  0.1191 -0.5226
  462MOL0     H62328   4.038   1.298  10.150  0.9726  2.5159 -1.7043
  462MOL0     H62329   3.885   1.371  10.096  3.0001  1.5529 -1.6629
  462MOL0     H62330   4.187   1.404  10.001 -0.0977  0.3791  1.3864
  462MOL0     H62331   4.419   1.316   9.999  1.3528 -1.3264 -0.8475
  462MOL0     H62332   4.780   1.137   9.835  0.4676 -0.1419  1.1103
  462MOL0     H62333   5.024   1.039   9.817  1.1983 -2.8886 -0.7255
  462MOL0     H62334   5.168   0.868   9.648  4.8964 -1.9598 -1.3044
  462MOL0     H62335   5.206   0.914   9.820  4.2656 -0.7183 -0.5144
  462MOL0     H62336   5.303   0.701   9.642  0.9120  1.6539 -1.4690
  462MOL0     H62337   5.403   0.821   9.724  2.1450 -1.1081  2.0489
  462MOL0     H62338   5.386   0.701   9.934 -1.5455  1.1868  0.3491
  462MOL0     H62339   5.239   0.612   9.872  0.3149 -0.0468  0.5322
  462MOL0     H62340   5.539   0.587   9.791 -0.8365  0.2430 -0.7794
  462MOL0     H62341   5.411   0.514   9.703  0.4826  0.2120  0.1789
  462MOL0     H62342   5.523   0.366   9.872  1.3528  0.6856  1.0721
  462MOL0     H62343   5.345   0.380   9.896 -0.6629  1.4122  0.7684
  462MOL0     H62344   5.539   0.549  10.046  3.8119 -2.6317  0.4263
  462MOL0     H62345   5.369   0.532  10.086  1.3357  0.4687  0.4359
  462MOL0     H62346   5.519   0.394  10.247 -3.0023 -0.6903  1.5824
  462MOL0     H62347   5.540   0.283  10.101 -1.7905 -0.3216 -1.0908
  462MOL0     H62348   5.296   0.343  10.246 -1.5336 -1.3729  0.4707
  462MOL0     H62349   5.283   0.261  10.089 -2.8731 -2.8587  1.7400
  462MOL0     H62350   4.863   0.664   9.763  0.1863 -0.2475  2.5670
  462MOL0     H62351   4.620   0.760   9.775 -0.0671  1.1527 -1.5320
  462MOL0     H62352   4.292   0.944   9.853 -0.9536 -0.1629  0.2472
  462MOL0     H62353   4.052   1.027   9.859  0.5040 -0.6513 -1.6197
  462MOL0     H62354   2.159   0.817   9.837 -2.5921 -1.6051  0.5708
  462MOL0     H62355   1.972   0.724   9.899 -0.0515 -3.6444 -0.4823
  462MOL0     H62356   1.692   0.565  10.082  2.8837  0.1635  1.0994
  462MOL0     H62357   1.445   0.497  10.143 -3.0702 -0.4098  2.6191
  462MOL0     H62358   1.258   0.730  10.382 -0.7218  0.4459  4.4796
  462MOL0     H62359   1.193   0.610  10.497  1.1703 -1.4282  0.5399
  462MOL0     H62360   1.181   0.551  10.199  0.2915 -0.3652  0.0114
  462MOL0     H62361   1.056   0.669  10.263 -1.4326  0.0828  2.5521
  462MOL0     H62362   0.999   0.491  10.424 -0.8473  0.2339 -0.2671
  462MOL0     H62363   1.085   0.373  10.315 -1.1449 -1.2330 -1.4854
  462MOL0     H62364   0.873   0.541  10.183 -0.9033 -0.2112  1.4727
  462MOL0     H62365   0.957   0.415  10.129 -2.2376  0.6130 -1.5268
  462MOL0     H62366   0.676   0.234  10.393 -0.5096 -0.0207 -0.9941
  462MOL0     H62367   1.493   0.613  10.535 -0.1429 -3.1151  0.3256
  462MOL0     H62368   1.765   0.822  10.513 -2.0213  0.6461 -0.2373
  462MOL0     H62369   1.721   0.696  10.620 -3.1008  0.0548 -0.9822
  462MOL0     H62370   1.865   0.678  10.514 -0.7045 -1.0311  1.4511
  463MOL0     O62371   0.094   0.447   4.529  0.7775 -0.4362 -0.1109
  463MOL0     C62372   0.042   0.435   4.415 -0.8140  0.3947  0.1563
  463MOL0     O62373   0.120   0.446   4.301 -0.0367  0.5650  0.0880
  463MOL0     C62374   0.213   0.544   4.290 -0.8640  0.7428 -0.4350
  463MOL0     C62375   0.317   0.520   4.206  0.4439  0.7112 -0.0232
  463MOL0     C62376   0.427   0.611   4.191 -0.0544  1.3809  0.1768
  463MOL0     C62377   0.436   0.720   4.276 -0.7514 -0.6473  0.6791
  463MOL0     O62378   0.545   0.800   4.261 -0.4022  0.5487  0.3051
  463MOL0     C62379   0.587   0.891   4.367  0.3615  1.1550 -0.0985
  463MOL0     C62380   0.721   0.948   4.327  0.4651  0.1159  0.1063
  463MOL0     C62381   0.834   0.833   4.335  0.2818 -0.9090  0.6282
  463MOL0     C62382   0.974   0.894   4.314  0.6262 -1.0334 -0.5929
  463MOL0     C62383   1.088   0.798   4.341  0.2520  0.6461 -1.1934
  463MOL0     C62384   1.220   0.868   4.318  0.2751 -0.1878  0.3226
  463MOL0     C62385   1.338   0.784   4.349 -0.5135 -0.1043  0.0834
  463MOL0     C62386   1.375   0.792   4.498 -0.4078 -0.4443  0.2178
  463MOL0     N62387   1.474   0.902   4.529 -0.5501 -0.2099  0.4751
  463MOL0     C62388   1.611   0.901   4.520 -1.2473 -0.2481 -0.3547
  463MOL0     C62389   1.656   1.029   4.540  0.4549  0.1285 -0.8570
  463MOL0     C62390   1.801   1.078   4.552 -0.2314 -0.4913 -0.4828
  463MOL0     C62391   1.887   1.082   4.421  1.3374  0.0175  0.2173
  463MOL0     C62392   2.006   1.178   4.439  0.3648  0.1673  0.0241
  463MOL0     C62393   2.086   1.189   4.304 -0.7473  0.7933  0.6095
  463MOL0     O62394   2.218   1.250   4.330 -0.0445 -0.5905  0.1119
  463MOL0     C62395   2.318   1.178   4.385  0.0810  0.8555  1.1623
  463MOL0     C62396   2.327   1.037   4.389  0.3107  0.3247  0.2387
  463MOL0     C62397   2.434   0.971   4.453  0.7474 -0.7797  0.1518
  463MOL0     C62398   2.541   1.045   4.500  0.3762 -0.3370 -0.0825
  463MOL0     C62399   2.660   0.974   4.550  0.4506  0.8939  0.5239
  463MOL0     O62400   2.667   0.840   4.525  0.3001  0.6294  0.2650
  463MOL0     C62401   2.774   0.764   4.555 -0.7622 -0.6687 -0.0749
  463MOL0     C62402   2.895   0.798   4.491 -0.3769  0.2342 -0.2176
  463MOL0     C62403   3.010   0.718   4.514  0.0488 -0.0089  0.0522
  463MOL0     C62404   3.000   0.590   4.574  0.2216 -0.2744  0.0594
  463MOL0     O62405   3.109   0.506   4.582  0.1435  0.7251 -0.8522
  463MOL0     C62406   3.242   0.558   4.566 -0.1281 -0.4466  0.2187
  463MOL0     C62407   3.338   0.456   4.627  0.4977  0.1154 -1.1099
  463MOL0     C62408   3.324   0.307   4.585 -0.0179 -1.4102 -0.2608
  463MOL0     C62409   3.438   0.229   4.650 -0.0863 -0.1414  0.8016
  463MOL0     C62410   3.465   0.099   4.564  0.4420  0.4109  0.0293
  463MOL0     C62411   3.536   0.106   4.429 -0.5355  0.9405 -0.7174
  463MOL0     C62412   3.670   0.173   4.440 -0.5636 -0.1956 -0.0225
  463MOL0     C62413   3.687   0.268   4.328 -0.5599 -0.0730  0.1005
  463MOL0    Cl62414   3.610   0.426   4.355 -0.3970  0.4720  0.1235
  463MOL0     C62415   2.871   0.543   4.605  0.0746 -0.1379 -0.8002
  463MOL0     C62416   2.762   0.628   4.610 -0.2759  0.3167  0.4381
  463MOL0     O62417   2.756   1.045   4.593  0.7493  0.3469 -0.8958
  463MOL0     C62418   2.533   1.194   4.496  0.3045  0.4141  0.2341
  463MOL0     C62419   2.419   1.258   4.441  0.8586 -0.1605 -0.3834
  463MOL0     N62420   1.545   1.104   4.555 -0.3622  0.4859  0.5202
  463MOL0     N62421   1.436   1.025   4.554 -0.1563  0.3864  0.2118
  463MOL0     C62422   0.322   0.751   4.350 -0.5184  0.1853 -0.5233
  463MOL0     C62423   0.215   0.663   4.365 -0.5445  0.2114 -0.2688
  463MOL0     C62424  -0.097   0.383   4.397  0.4293  0.6086 -0.3730
  463MOL0     C62425  -0.152   0.347   4.265 -0.8104  0.1424 -0.4836
  463MOL0     C62426  -0.291   0.307   4.250  0.2946 -0.9827 -0.7434
  463MOL0     C62427  -0.375   0.312   4.363  0.0474 -1.0829 -0.2314
  463MOL0     O62428  -0.509   0.269   4.331  0.0777 -0.6158 -0.9152
  463MOL0     C62429  -0.600   0.255   4.440  0.0252 -0.3890 -0.6867
  463MOL0     C62430  -0.736   0.211   4.379  0.3253 -0.1935  0.6597
  463MOL0     C62431  -0.853   0.246   4.456  0.3804 -0.3403  0.3669
  463MOL0     C62432  -0.881   0.163   4.582 -0.3115 -0.6170 -0.2423
  463MOL0     C62433  -0.995   0.218   4.652 -0.6351 -0.0819 -0.1888
  463MOL0     C62434  -1.091   0.279   4.694 -0.1432  0.6694  0.2356
  463MOL0     C62435  -0.323   0.345   4.492  0.8484  0.2723  0.1719
  463MOL0     C62436  -0.191   0.382   4.508  0.4027 -0.0599  0.0201
  463MOL0     C62437  -0.160   0.430   4.649 -0.4007 -0.5164  0.6132
  463MOL0     H62438   0.296   0.430   4.150 -1.0485  0.7126  0.5043
  463MOL0     H62439   0.520   0.613   4.135  0.2720  0.3384  0.6467
  463MOL0     H62440   0.508   0.966   4.375  0.0956  0.8947 -0.2550
  463MOL0     H62441   0.601   0.823   4.452  2.4475  0.1342 -1.1664
  463MOL0     H62442   0.753   1.038   4.381  1.3956  1.5794 -2.6284
  463MOL0     H62443   0.707   0.988   4.226 -0.0081  2.6529  1.1065
  463MOL0     H62444   0.815   0.755   4.261  1.2003 -1.2943  0.7867
  463MOL0     H62445   0.830   0.793   4.436  2.7623  0.4896  1.3722
  463MOL0     H62446   0.984   0.935   4.213  3.1787  0.3759  0.1414
  463MOL0     H62447   0.978   0.988   4.371  0.0101 -1.4826  0.2201
  463MOL0     H62448   1.080   0.773   4.447  5.0120 -2.1499 -1.2375
  463MOL0     H62449   1.087   0.707   4.281  3.7875 -1.0684  1.0454
  463MOL0     H62450   1.226   0.889   4.211  1.0641 -0.1424  0.3648
  463MOL0     H62451   1.223   0.965   4.367 -0.2437  0.2791 -0.5602
  463MOL0     H62452   1.418   0.812   4.281 -2.2094  0.5925 -1.7410
  463MOL0     H62453   1.323   0.679   4.324 -1.5814  0.1490 -0.3948
  463MOL0     H62454   1.276   0.816   4.537 -0.5825  1.8465 -1.4273
  463MOL0     H62455   1.421   0.697   4.524  0.5877 -0.2490 -0.7363
  463MOL0     H62456   1.674   0.814   4.505 -0.2236  0.2318  0.9895
  463MOL0     H62457   1.801   1.179   4.594  2.1815 -0.4924 -0.3410
  463MOL0     H62458   1.859   1.026   4.629 -0.5197 -1.0108 -0.6152
  463MOL0     H62459   1.919   0.982   4.388  2.8750  0.2263  0.9625
  463MOL0     H62460   1.819   1.110   4.340  1.7427  2.7119  0.7291
  463MOL0     H62461   2.070   1.142   4.520  2.1515  3.9534  0.4740
  463MOL0     H62462   1.976   1.272   4.486  1.1513  0.4101  0.0503
  463MOL0     H62463   2.042   1.263   4.236 -1.3134  1.0545  1.2476
  463MOL0     H62464   2.094   1.098   4.244  0.8970  0.6451  1.0140
  463MOL0     H62465   2.245   0.981   4.346  2.0391 -1.1993 -1.2673
  463MOL0     H62466   2.431   0.863   4.453 -0.6084 -0.7706  0.7083
  463MOL0     H62467   2.915   0.890   4.437  0.4825  0.5973  0.6741
  463MOL0     H62468   3.103   0.752   4.471 -1.3014  0.2875 -2.8828
  463MOL0     H62469   3.270   0.549   4.461 -2.8932  0.0269 -0.6380
  463MOL0     H62470   3.250   0.659   4.607  0.6658 -1.5455  2.9666
  463MOL0     H62471   3.436   0.495   4.597  0.0585  1.8694 -0.4019
  463MOL0     H62472   3.322   0.458   4.735  2.0346  1.9782 -0.8594
  463MOL0     H62473   3.227   0.278   4.625  0.2860 -2.7909 -0.4953
  463MOL0     H62474   3.324   0.281   4.479 -0.7159  0.0437 -0.6459
  463MOL0     H62475   3.426   0.216   4.758  1.0329  1.1468  1.1157
  463MOL0     H62476   3.528   0.292   4.649  1.0901 -1.6495 -3.1307
  463MOL0     H62477   3.387   0.023   4.563  0.2889  0.0755  5.6441
  463MOL0     H62478   3.535   0.041   4.625  0.1801 -0.1792 -0.2294
  463MOL0     H62479   3.544   0.006   4.386 -0.2020  0.1444  1.0843
  463MOL0     H62480   3.464   0.164   4.371 -0.1551 -0.7631 -3.0161
  463MOL0     H62481   3.748   0.100   4.417 -0.0475  1.0445 -2.6496
  463MOL0     H62482   3.687   0.221   4.536  0.2925  1.1442 -0.8110
  463MOL0     H62483   3.794   0.273   4.310 -0.8276  0.6419 -1.4611
  463MOL0     H62484   3.653   0.228   4.232  2.5503 -1.6711 -0.4745
  463MOL0     H62485   2.875   0.440   4.640 -0.4710  0.0971 -0.0222
  463MOL0     H62486   2.666   0.599   4.651  0.4855 -2.8066  0.2243
  463MOL0     H62487   2.619   1.252   4.529  2.4120 -1.7853 -1.1643
  463MOL0     H62488   2.417   1.367   4.439  2.0721 -0.1170 -0.3047
  463MOL0     H62489   0.310   0.834   4.419  0.2083 -1.5051  1.7922
  463MOL0     H62490   0.134   0.689   4.432  0.0253  1.4185 -0.0124
  463MOL0     H62491  -0.099   0.354   4.170  1.1011 -0.1012  0.5200
  463MOL0     H62492  -0.323   0.278   4.151 -1.1343 -0.2955 -0.4972
  463MOL0     H62493  -0.602   0.348   4.498 -2.1084 -0.6765 -0.2471
  463MOL0     H62494  -0.558   0.185   4.513  0.7974  2.3999  1.7330
  463MOL0     H62495  -0.726   0.104   4.363 -0.3923 -0.5021  2.1215
  463MOL0     H62496  -0.738   0.265   4.284  0.5514  0.2203  0.8831
  463MOL0     H62497  -0.936   0.246   4.384 -0.3896  3.1498  1.0287
  463MOL0     H62498  -0.840   0.351   4.485 -0.5138 -0.3827  0.9535
  463MOL0     H62499  -0.887   0.056   4.560  0.9350 -0.7097 -0.2382
  463MOL0     H62500  -0.789   0.172   4.641  1.0206  3.6835 -2.4830
  463MOL0     H62501  -1.176   0.334   4.731 -2.1806 -2.8526  1.3093
  463MOL0     H62502  -0.389   0.344   4.578 -0.8218  0.5258 -1.0519
  463MOL0     H62503  -0.077   0.371   4.690  0.4103  0.6282  0.6737
  463MOL0     H62504  -0.134   0.536   4.656 -1.3178 -0.3501  1.6951
  463MOL0     H62505  -0.242   0.413   4.719 -0.1919  0.4872  1.1134
  464MOL0     O62506   7.866   3.170   8.118  0.2755  0.4039  0.2809
  464MOL0     C62507   7.914   3.058   8.129 -0.1231  0.3978 -0.4181
  464MOL0     O62508   8.039   3.032   8.179  0.2207  0.1942  0.4278
  464MOL0     C62509   8.124   3.135   8.188 -0.4902 -0.3823  0.3017
  464MOL0     C62510   8.180   3.194   8.075 -1.1000  0.2594 -0.4879
  464MOL0     C62511   8.287   3.290   8.079  0.2960  0.8439 -0.2195
  464MOL0     C62512   8.337   3.332   8.204 -0.4812  0.3726  0.1374
  464MOL0     O62513   8.438   3.430   8.212 -0.2315  0.9195  0.1984
  464MOL0     C62514   8.461   3.510   8.088  0.6465  1.1042 -0.3287
  464MOL0     C62515   8.526   3.638   8.111 -0.2370 -0.0731  0.0556
  464MOL0     C62516   8.680   3.625   8.124  0.7586  0.2400 -1.1147
  464MOL0     C62517   8.760   3.548   8.012 -0.2578  0.1307  0.1056
  464MOL0     C62518   8.912   3.557   8.050 -0.3775 -0.1228 -0.7005
  464MOL0     C62519   8.970   3.704   8.034  0.6357 -0.6777 -0.0983
  464MOL0     C62520   9.120   3.712   8.018 -0.1565 -0.3347 -0.2952
  464MOL0     C62521   9.194   3.747   8.150  0.3710  0.1263 -0.0856
  464MOL0     N62522   9.346   3.765   8.140 -0.3463  0.2561 -1.1392
  464MOL0     C62523   9.434   3.732   8.239 -0.3341 -0.4005 -0.0788
  464MOL0     C62524   9.559   3.776   8.202  0.7096  0.0298  1.3541
  464MOL0     C62525   9.684   3.774   8.273 -0.0797  0.7339  0.6281
  464MOL0     C62526   9.735   3.912   8.304  0.2931 -0.3571  0.1587
  464MOL0     C62527   9.868   3.925   8.376  0.9339 -0.1910 -0.1458
  464MOL0     C62528   9.989   3.906   8.297 -0.1819 -0.2974  0.1049
  464MOL0     O62529   9.977   3.779   8.220  0.2830 -0.9234  0.6567
  464MOL0     C62530  10.089   3.716   8.167 -0.1865  0.6235 -0.5940
  464MOL0     C62531  10.225   3.751   8.187  0.2922  0.0497  0.9475
  464MOL0     C62532  10.325   3.673   8.132 -0.4088 -0.1233  0.5392
  464MOL0     C62533  10.301   3.573   8.046  0.4512  0.2396 -0.7171
  464MOL0     C62534  10.408   3.509   7.964 -0.0315 -0.1359 -0.7447
  464MOL0     O62535  10.531   3.560   7.972  0.0621 -0.1344  0.2881
  464MOL0     C62536  10.627   3.487   7.913 -1.5478 -1.2581  0.2728
  464MOL0     C62537  10.741   3.424   7.973  0.6585  0.2244 -0.1837
  464MOL0     C62538  10.850   3.378   7.898  0.8781  0.4188  0.4325
  464MOL0     C62539  10.840   3.385   7.758  0.1289 -0.6842  0.2102
  464MOL0     O62540  10.932   3.316   7.684  0.6599 -0.2576  0.4863
  464MOL0     C62541  11.017   3.216   7.732  0.2030 -0.2161  0.1527
  464MOL0     C62542  11.117   3.192   7.619  0.9712 -0.0801 -0.2503
  464MOL0     C62543  11.244   3.111   7.648  0.4130  0.3070 -0.9601
  464MOL0     C62544  11.209   2.976   7.704  0.1432 -0.9322  0.3404
  464MOL0     C62545  11.319   2.875   7.719 -0.7286  0.3460 -0.1149
  464MOL0     C62546  11.452   2.940   7.781  0.3368  0.4472  0.9170
  464MOL0     C62547  11.551   2.833   7.817  0.1879 -0.4215 -0.1678
  464MOL0     C62548  11.686   2.905   7.845 -0.3839  0.5988  0.2314
  464MOL0    Cl62549  11.665   2.992   8.000  0.0404 -0.1467  0.0197
  464MOL0     C62550  10.737   3.458   7.693  0.3991 -0.3054 -0.4043
  464MOL0     C62551  10.633   3.508   7.774 -0.1559 -0.4764  0.3915
  464MOL0     O62552  10.372   3.410   7.897  0.1512 -0.2997 -1.0852
  464MOL0     C62553  10.163   3.548   8.020  0.0352  0.4566 -0.8818
  464MOL0     C62554  10.055   3.605   8.087  0.7612 -0.2790  0.5015
  464MOL0     N62555   9.538   3.843   8.079 -0.2295  1.4364 -0.0490
  464MOL0     N62556   9.416   3.829   8.049 -0.2603  0.0693 -0.5832
  464MOL0     C62557   8.289   3.268   8.321  0.5333 -0.3812  0.1065
  464MOL0     C62558   8.186   3.173   8.310  0.2321 -0.3014  0.4801
  464MOL0     C62559   7.833   2.940   8.092  0.6316 -0.0768  0.6047
  464MOL0     C62560   7.832   2.824   8.176 -0.4631  0.1167  0.2391
  464MOL0     C62561   7.768   2.707   8.138 -0.2308  0.1642 -0.6900
  464MOL0     C62562   7.677   2.698   8.032  0.0866  0.5235 -0.1084
  464MOL0     O62563   7.608   2.579   8.009 -0.0714  0.0198 -0.1840
  464MOL0     C62564   7.521   2.560   7.889 -0.0625 -0.4996 -0.9098
  464MOL0     C62565   7.385   2.608   7.910 -0.6668 -0.0891 -0.1113
  464MOL0     C62566   7.316   2.540   8.034 -0.0429  0.4138  0.1598
  464MOL0     C62567   7.164   2.563   8.033 -0.1686  0.2404  0.2359
  464MOL0     C62568   7.123   2.703   8.022 -0.8439  0.5947 -0.0916
  464MOL0     C62569   7.081   2.818   8.023 -0.5354  0.5585 -0.5808
  464MOL0     C62570   7.666   2.813   7.948 -0.5165  0.9387 -0.2239
  464MOL0     C62571   7.735   2.933   7.975 -0.3026 -0.3603 -0.3823
  464MOL0     C62572   7.722   3.054   7.883 -0.4048  0.2188  0.7359
  464MOL0     H62573   8.137   3.160   7.981 -0.5310  0.6277 -0.8826
  464MOL0     H62574   8.334   3.321   7.986  3.6054  0.9864  1.3576
  464MOL0     H62575   8.501   3.457   8.001  0.2441 -0.2926  0.3165
  464MOL0     H62576   8.364   3.531   8.041  0.9935 -0.0638 -1.6311
  464MOL0     H62577   8.490   3.685   8.203 -2.3100  1.5477 -1.4895
  464MOL0     H62578   8.498   3.711   8.035 -5.4955 -3.2332 -1.5534
  464MOL0     H62579   8.699   3.567   8.215  1.4094  0.8789 -0.8268
  464MOL0     H62580   8.723   3.725   8.138  0.5687  0.1224  0.4805
  464MOL0     H62581   8.738   3.441   8.010 -2.8794  0.6059  0.7407
  464MOL0     H62582   8.742   3.596   7.915 -2.2743 -0.8841 -0.0686
  464MOL0     H62583   8.930   3.519   8.151  0.7644 -0.6043 -1.0658
  464MOL0     H62584   8.963   3.486   7.985  0.8302 -0.4099  0.5133
  464MOL0     H62585   8.928   3.746   7.942  1.4358  0.5002  0.0511
  464MOL0     H62586   8.939   3.760   8.123 -0.1194 -0.8153 -0.2672
  464MOL0     H62587   9.141   3.798   7.954  1.0712  0.2924  0.8914
  464MOL0     H62588   9.168   3.620   7.985  3.6930  1.6704 -0.8881
  464MOL0     H62589   9.150   3.844   8.178 -1.3044 -1.2306  2.3753
  464MOL0     H62590   9.167   3.686   8.236 -0.1865 -0.5920 -0.7528
  464MOL0     H62591   9.418   3.684   8.335 -1.6415 -0.6965 -0.4287
  464MOL0     H62592   9.664   3.716   8.364 -0.7534 -0.1826 -0.0813
  464MOL0     H62593   9.759   3.717   8.218 -0.8817 -0.0276  0.2948
  464MOL0     H62594   9.745   3.971   8.212 -1.2639 -0.2878 -0.0045
  464MOL0     H62595   9.654   3.967   8.354 -1.0627 -3.2951  1.3790
  464MOL0     H62596   9.858   3.859   8.463 -3.6837 -0.3512 -0.5705
  464MOL0     H62597   9.867   4.028   8.414  0.6085  0.1428 -1.0216
  464MOL0     H62598  10.074   3.919   8.365 -1.3412  3.6003  1.0318
  464MOL0     H62599  10.003   3.993   8.233  3.0190  0.0133  1.0366
  464MOL0     H62600  10.248   3.843   8.241 -2.3293  1.9641 -0.9363
  464MOL0     H62601  10.431   3.693   8.147  0.5575 -1.3037 -3.5495
  464MOL0     H62602  10.741   3.413   8.081 -2.8357 -1.0785 -0.1732
  464MOL0     H62603  10.935   3.331   7.947 -0.0428  0.0624  1.7478
  464MOL0     H62604  11.066   3.243   7.826 -0.4199 -2.6887  1.2740
  464MOL0     H62605  10.963   3.121   7.737  1.0069 -0.7469 -0.8818
  464MOL0     H62606  11.053   3.133   7.552  1.3007 -0.9709  0.2064
  464MOL0     H62607  11.133   3.288   7.570  0.8744 -0.4194 -0.9767
  464MOL0     H62608  11.315   3.107   7.565  1.5785 -1.3653  0.0544
  464MOL0     H62609  11.311   3.157   7.722 -0.4487  0.3133 -0.1604
  464MOL0     H62610  11.147   2.927   7.628  0.4295 -0.6609 -0.0755
  464MOL0     H62611  11.161   2.993   7.801 -1.4848 -2.8307 -0.0712
  464MOL0     H62612  11.346   2.837   7.620  0.0855 -0.6307  0.4615
  464MOL0     H62613  11.279   2.794   7.779  3.0164  0.5495  3.0812
  464MOL0     H62614  11.499   3.014   7.717 -2.4770  1.4260 -0.1633
  464MOL0     H62615  11.413   2.999   7.865 -0.8245  0.5769  0.3057
  464MOL0     H62616  11.560   2.762   7.735 -2.0040  0.4001 -1.2067
  464MOL0     H62617  11.507   2.794   7.908 -0.5812  2.7844  0.9800
  464MOL0     H62618  11.765   2.830   7.860  2.1140  3.0010 -0.1566
  464MOL0     H62619  11.716   2.964   7.758 -1.6755  2.9984  1.3259
  464MOL0     H62620  10.721   3.442   7.587 -2.8731 -3.1644  0.3392
  464MOL0     H62621  10.549   3.561   7.730  1.8511  2.0521 -0.6322
  464MOL0     H62622  10.138   3.466   7.953 -2.7059 -0.0009  0.5344
  464MOL0     H62623   9.954   3.577   8.061 -0.0059 -0.2864  3.2013
  464MOL0     H62624   8.331   3.296   8.418  1.8636  0.7527 -0.7583
  464MOL0     H62625   8.156   3.124   8.401  0.2758 -1.9552 -0.3523
  464MOL0     H62626   7.901   2.808   8.258 -0.7405  0.8134  0.6156
  464MOL0     H62627   7.791   2.616   8.193 -2.3104 -0.5909 -0.9885
  464MOL0     H62628   7.517   2.453   7.868  1.0394 -0.7877  0.2394
  464MOL0     H62629   7.564   2.618   7.807  2.8316  0.8110  1.3612
  464MOL0     H62630   7.316   2.599   7.826 -0.1732  3.7697 -1.1319
  464MOL0     H62631   7.397   2.715   7.933 -3.1683  0.0294  0.9728
  464MOL0     H62632   7.351   2.574   8.132 -0.2718 -1.9889  1.1260
  464MOL0     H62633   7.322   2.432   8.021  1.4652  0.3498  1.1503
  464MOL0     H62634   7.125   2.505   7.949  2.9205  0.0433 -1.1976
  464MOL0     H62635   7.129   2.523   8.128  0.0618  0.2944  0.3425
  464MOL0     H62636   7.057   2.922   8.023  2.6417  1.4337 -2.5157
  464MOL0     H62637   7.595   2.819   7.867 -0.2440  1.2277 -0.4446
  464MOL0     H62638   7.819   3.086   7.843 -0.8983  2.2767  1.0512
  464MOL0     H62639   7.651   3.039   7.801  0.0775  0.4368  0.2731
  464MOL0     H62640   7.669   3.135   7.933 -0.8236  1.0962 -1.0482
  465MOL0     O62641   9.969   0.367   4.505 -0.0229 -0.4711 -0.0986
  465MOL0     C62642   9.880   0.309   4.559  1.0322 -0.8021  0.2647
  465MOL0     O62643   9.880   0.186   4.611  0.0959  0.2492 -0.2605
  465MOL0     C62644   9.948   0.075   4.576  0.2878  0.8686  0.1542
  465MOL0     C62645   9.900  -0.048   4.639  0.1768 -0.7897  0.0929
  465MOL0     C62646   9.948  -0.166   4.605 -0.1102  0.4289  0.2628
  465MOL0     C62647  10.062  -0.170   4.524  0.5708  0.6041 -0.2000
  465MOL0     O62648  10.102  -0.294   4.482 -0.0285 -0.0668 -0.6566
  465MOL0     C62649  10.190  -0.309   4.376  0.2713  0.4266  0.6528
  465MOL0     C62650  10.218  -0.459   4.348  0.1492  0.9672 -0.0162
  465MOL0     C62651  10.103  -0.542   4.302  0.5647  0.5151 -1.0270
  465MOL0     C62652  10.134  -0.661   4.218  0.6643 -0.2145  0.3939
  465MOL0     C62653  10.161  -0.612   4.077  0.4064 -0.2718  0.0830
  465MOL0     C62654  10.117  -0.720   3.977  0.0878 -0.2464 -0.0718
  465MOL0     C62655  10.195  -0.850   4.000  0.3741  0.1647  0.3225
  465MOL0     C62656  10.245  -0.922   3.868 -0.2170 -0.5178 -0.3609
  465MOL0     N62657  10.364  -0.851   3.811 -0.4978 -0.0292  0.1746
  465MOL0     C62658  10.362  -0.731   3.737 -0.3021 -0.3821  0.0889
  465MOL0     C62659  10.489  -0.695   3.732 -0.5706 -0.0241 -0.3479
  465MOL0     C62660  10.540  -0.582   3.650 -0.1146 -0.3448 -0.1825
  465MOL0     C62661  10.591  -0.458   3.731  0.0238  0.2846  0.3845
  465MOL0     C62662  10.728  -0.496   3.801 -0.6020 -0.1325  0.0625
  465MOL0     C62663  10.792  -0.387   3.884 -0.1681  0.0108 -0.0708
  465MOL0     O62664  10.909  -0.429   3.953 -0.0448  0.2189  0.4731
  465MOL0     C62665  11.021  -0.483   3.892  0.5904 -0.0202 -0.0326
  465MOL0     C62666  11.053  -0.471   3.753  0.1599  0.2041  0.4498
  465MOL0     C62667  11.168  -0.526   3.701  0.8249  0.5615  0.3281
  465MOL0     C62668  11.262  -0.602   3.779  0.9472  0.6554 -0.1750
  465MOL0     C62669  11.388  -0.648   3.724  0.1411 -0.3667 -0.3084
  465MOL0     O62670  11.492  -0.642   3.813 -0.2342 -0.0167  0.4961
  465MOL0     C62671  11.622  -0.643   3.757  0.9822  0.3608 -0.1166
  465MOL0     C62672  11.641  -0.573   3.635  0.0645 -0.3927 -0.0117
  465MOL0     C62673  11.775  -0.583   3.591 -0.2826  0.2677  0.6983
  465MOL0     C62674  11.866  -0.680   3.641 -0.1398 -0.1065  0.0681
  465MOL0     O62675  11.998  -0.681   3.603 -0.2883 -0.1093 -0.0951
  465MOL0     C62676  12.079  -0.797   3.623 -0.5402 -0.1170 -0.1820
  465MOL0     C62677  12.191  -0.763   3.723  0.0070  0.1420 -0.0917
  465MOL0     C62678  12.295  -0.871   3.742  0.0598  0.3359  0.0353
  465MOL0     C62679  12.434  -0.805   3.779 -0.3663 -0.0719  0.8405
  465MOL0     C62680  12.497  -0.735   3.650 -0.3684  0.6686 -0.2998
  465MOL0     C62681  12.645  -0.771   3.626 -0.6168  0.0490 -0.3268
  465MOL0     C62682  12.735  -0.727   3.749  0.2042 -0.2821  0.1384
  465MOL0     C62683  12.878  -0.766   3.726 -0.1128 -0.0139 -0.1627
  465MOL0    Cl62684  12.893  -0.940   3.700 -0.1188  0.2104  0.0686
  465MOL0     C62685  11.834  -0.752   3.755 -0.2039  0.1567 -0.1333
  465MOL0     C62686  11.717  -0.728   3.817  0.2567 -0.7034 -0.0437
  465MOL0     O62687  11.387  -0.683   3.604  0.1389  0.4416  0.1998
  465MOL0     C62688  11.230  -0.612   3.919 -0.1673  0.2820  0.1246
  465MOL0     C62689  11.110  -0.552   3.970  0.7400 -0.0970 -0.0454
  465MOL0     N62690  10.564  -0.785   3.799  0.2336  0.6578  0.1632
  465MOL0     N62691  10.489  -0.882   3.846 -0.3543 -1.0249 -0.0736
  465MOL0     C62692  10.122  -0.052   4.472  0.0983  0.3444  0.0254
  465MOL0     C62693  10.064   0.071   4.496  0.6047  0.2735 -0.7079
  465MOL0     C62694   9.763   0.399   4.606 -0.2276  0.3301 -0.0860
  465MOL0     C62695   9.727   0.383   4.738 -0.0002 -1.1733 -0.2971
  465MOL0     C62696   9.611   0.448   4.787  0.5313 -0.0353  0.5682
  465MOL0     C62697   9.524   0.521   4.695 -0.0361  0.0502  0.0899
  465MOL0     O62698   9.394   0.557   4.719  0.3818 -0.1446  0.2448
  465MOL0     C62699   9.314   0.476   4.812  0.2562 -0.6021  0.4709
  465MOL0     C62700   9.264   0.355   4.736  0.1148  0.1983 -0.0009
  465MOL0     C62701   9.177   0.263   4.824  0.4181 -0.0844 -0.0177
  465MOL0     C62702   9.233   0.122   4.854 -1.3176  0.4357  0.7018
  465MOL0     C62703   9.357   0.137   4.931 -0.6404  0.0517  0.3489
  465MOL0     C62704   9.460   0.127   4.997  0.1597 -0.6896  0.1165
  465MOL0     C62705   9.580   0.558   4.572 -0.0412 -0.1443 -0.3830
  465MOL0     C62706   9.699   0.503   4.527  1.5343 -0.3469  0.6968
  465MOL0     C62707   9.737   0.547   4.393  0.5127  0.1284  1.2387
  465MOL0     H62708   9.820  -0.052   4.712  0.4624 -1.1068  0.3896
  465MOL0     H62709   9.911  -0.254   4.658 -1.3917  0.7495 -0.0583
  465MOL0     H62710  10.146  -0.276   4.282 -0.3342 -1.7095  0.1419
  465MOL0     H62711  10.289  -0.263   4.387  0.0634  1.1318 -0.2907
  465MOL0     H62712  10.267  -0.516   4.427 -1.2567  0.5130  0.5728
  465MOL0     H62713  10.287  -0.452   4.263 -2.5388  3.3152 -2.1915
  465MOL0     H62714  10.033  -0.475   4.252  0.5519  0.0801 -1.6094
  465MOL0     H62715  10.055  -0.571   4.395  1.3868 -0.8949 -1.0111
  465MOL0     H62716  10.224  -0.711   4.255  1.1309 -1.3006 -2.0309
  465MOL0     H62717  10.048  -0.729   4.217 -0.6786  1.4188 -0.2067
  465MOL0     H62718  10.103  -0.521   4.055  0.6780 -0.6282 -2.4727
  465MOL0     H62719  10.269  -0.596   4.081  0.5499 -1.3357  0.7204
  465MOL0     H62720  10.013  -0.752   3.978 -0.4106  1.3264  0.7249
  465MOL0     H62721  10.149  -0.684   3.878  0.7729  1.2965  0.6818
  465MOL0     H62722  10.138  -0.917   4.065 -0.3670 -1.3497 -1.7969
  465MOL0     H62723  10.290  -0.834   4.053  0.2787 -2.4360  1.4153
  465MOL0     H62724  10.280  -1.023   3.890 -1.8611 -1.0247  0.0260
  465MOL0     H62725  10.175  -0.919   3.784 -0.3906 -1.0446 -0.2338
  465MOL0     H62726  10.271  -0.697   3.690  0.8232  1.5644 -0.7833
  465MOL0     H62727  10.610  -0.627   3.580 -1.1701 -0.2102 -1.3531
  465MOL0     H62728  10.459  -0.548   3.584 -2.1661  0.6980  2.6416
  465MOL0     H62729  10.600  -0.373   3.663 -0.4830 -0.2510 -0.3670
  465MOL0     H62730  10.516  -0.428   3.805 -1.3003 -1.3671 -0.1966
  465MOL0     H62731  10.797  -0.518   3.719 -0.8328 -0.4371 -0.0538
  465MOL0     H62732  10.723  -0.587   3.862  0.2027  0.8572  1.6721
  465MOL0     H62733  10.723  -0.355   3.963  0.5664  2.0881 -0.2048
  465MOL0     H62734  10.799  -0.302   3.815  0.4654 -1.8309 -2.3712
  465MOL0     H62735  10.981  -0.426   3.685 -0.9697  0.0069  1.4802
  465MOL0     H62736  11.188  -0.516   3.595 -0.0431  0.6763  0.1642
  465MOL0     H62737  11.568  -0.517   3.578  0.3800  1.0139  0.9069
  465MOL0     H62738  11.795  -0.529   3.500 -3.7499 -1.5409 -1.3594
  465MOL0     H62739  12.014  -0.883   3.642 -1.4183  0.2085 -1.5709
  465MOL0     H62740  12.130  -0.820   3.528  2.0330  1.6556  0.6594
  465MOL0     H62741  12.236  -0.675   3.678 -2.8937  1.4192 -0.7542
  465MOL0     H62742  12.150  -0.740   3.822 -0.6950  2.4565 -0.8679
  465MOL0     H62743  12.265  -0.937   3.823  2.6803  1.1486  1.8311
  465MOL0     H62744  12.307  -0.926   3.648 -5.1479 -0.2284 -0.5958
  465MOL0     H62745  12.508  -0.877   3.813 -0.6785 -0.8582 -0.0992
  465MOL0     H62746  12.407  -0.726   3.850 -2.8156  1.4831 -1.6123
  465MOL0     H62747  12.487  -0.631   3.681 -2.1669 -0.3179  2.9691
  465MOL0     H62748  12.434  -0.750   3.562 -0.6713 -2.1811  0.2745
  465MOL0     H62749  12.664  -0.876   3.599  3.2581  0.1667  1.3422
  465MOL0     H62750  12.685  -0.715   3.542  0.6371 -0.9664 -0.4362
  465MOL0     H62751  12.706  -0.767   3.847  0.7468  0.9024  0.8012
  465MOL0     H62752  12.739  -0.618   3.753  2.0773 -0.3537  3.5281
  465MOL0     H62753  12.928  -0.722   3.640  3.1132  1.4729  2.2602
  465MOL0     H62754  12.942  -0.733   3.809 -0.5052  2.5618 -0.8191
  465MOL0     H62755  11.914  -0.808   3.802  1.3559  0.8346 -1.8252
  465MOL0     H62756  11.682  -0.774   3.909  1.8487 -1.9081  0.0080
  465MOL0     H62757  11.293  -0.669   3.987 -1.1670 -2.7895 -1.3019
  465MOL0     H62758  11.080  -0.563   4.074  3.6712  0.0066  0.9083
  465MOL0     H62759  10.220  -0.054   4.425  1.2280  3.0481  1.9627
  465MOL0     H62760  10.103   0.160   4.448  0.9551  0.9618  0.7872
  465MOL0     H62761   9.768   0.307   4.803 -2.0300  0.5525  3.2888
  465MOL0     H62762   9.570   0.418   4.883 -1.6238 -1.2703 -0.6685
  465MOL0     H62763   9.224   0.528   4.846  1.2326  2.1766 -0.8575
  465MOL0     H62764   9.362   0.442   4.904  0.2961  0.5689  0.9044
  465MOL0     H62765   9.336   0.287   4.690 -1.5046 -2.4013  1.0781
  465MOL0     H62766   9.200   0.381   4.651 -0.6831 -2.0392 -0.1576
  465MOL0     H62767   9.084   0.248   4.768 -0.1630  3.5025 -0.2348
  465MOL0     H62768   9.153   0.309   4.921  1.3936  1.0349 -0.2913
  465MOL0     H62769   9.157   0.073   4.916 -1.0816  2.6309  2.8738
  465MOL0     H62770   9.246   0.069   4.759 -2.1587  0.3896  0.5991
  465MOL0     H62771   9.549   0.119   5.057  0.6473  0.3693 -0.4388
  465MOL0     H62772   9.522   0.638   4.528 -0.0778 -0.2675 -0.5636
  465MOL0     H62773   9.654   0.597   4.342 -1.3815 -0.5496  3.5064
  465MOL0     H62774   9.815   0.623   4.405 -0.6368  1.1335  2.5779
  465MOL0     H62775   9.768   0.467   4.325 -4.0455 -0.6419 -0.3015
  466MOL0     O62776   7.183   7.282   9.930  0.3681 -0.1652  0.0315
  466MOL0     C62777   7.127   7.386   9.908 -0.3394  0.3274 -0.0754
  466MOL0     O62778   7.197   7.501   9.913  0.0348  0.0055 -0.0246
  466MOL0     C62779   7.331   7.528   9.959 -0.3526  0.4676 -0.2245
  466MOL0     C62780   7.431   7.434   9.997  0.0632 -0.3473  0.3726
  466MOL0     C62781   7.561   7.481  10.034  0.5239  0.2363  0.4281
  466MOL0     C62782   7.600   7.614  10.026  0.5470 -0.0085 -0.1247
  466MOL0     O62783   7.719   7.660  10.048 -0.8367 -0.1928  0.1531
  466MOL0     C62784   7.833   7.582  10.003 -0.1842  0.2386  0.1139
  466MOL0     C62785   7.954   7.668   9.972 -1.1029 -1.2333 -0.2932
  466MOL0     C62786   8.040   7.703  10.092 -0.2078  0.0398 -0.3834
  466MOL0     C62787   8.082   7.597  10.184  0.2267  0.2221 -0.0608
  466MOL0     C62788   8.190   7.637  10.291  0.3874 -0.2292  0.2962
  466MOL0     C62789   8.329   7.649  10.232  0.0484 -0.3006  0.0678
  466MOL0     C62790   8.435   7.689  10.338  0.2593  0.1735  1.1309
  466MOL0     C62791   8.453   7.587  10.448  0.4253  0.3547 -0.8537
  466MOL0     N62792   8.544   7.636  10.548 -0.3104  0.4961 -0.1043
  466MOL0     C62793   8.542   7.755  10.609  0.1280  0.0368  1.3823
  466MOL0     C62794   8.661   7.758  10.681  0.4246  0.0865 -1.2459
  466MOL0     C62795   8.713   7.886  10.747 -0.4982  0.8493 -0.1352
  466MOL0     C62796   8.831   7.933  10.665 -0.6774  1.1005  0.2879
  466MOL0     C62797   8.903   8.032  10.750  0.1434  0.1952  0.4196
  466MOL0     C62798   8.988   7.981  10.863  0.3725  0.0786 -0.2025
  466MOL0     O62799   9.076   8.090  10.914  0.1498  0.4273 -0.4335
  466MOL0     C62800   9.177   8.046  11.004 -0.7783 -0.7199  0.4916
  466MOL0     C62801   9.258   8.150  11.058 -0.4582 -0.6702  0.1276
  466MOL0     C62802   9.360   8.114  11.144 -1.1775  0.5487  0.5684
  466MOL0     C62803   9.390   7.980  11.172  0.8072 -0.0203  0.0957
  466MOL0     C62804   9.510   7.948  11.247  0.0799  0.6093 -0.0196
  466MOL0     O62805   9.601   8.048  11.258 -0.5056 -0.2225  0.0989
  466MOL0     C62806   9.717   8.035  11.329  0.5260  0.0829 -0.2836
  466MOL0     C62807   9.801   7.926  11.314  0.2810  0.1557  0.3714
  466MOL0     C62808   9.932   7.926  11.366 -0.6636  0.4202 -1.1531
  466MOL0     C62809   9.982   8.027  11.454 -0.1912 -0.9214  1.2288
  466MOL0     O62810  10.115   8.025  11.500  0.5234  0.4456  0.1901
  466MOL0     C62811  10.138   8.083  11.630 -0.1301 -0.4198 -0.5109
  466MOL0     C62812  10.281   8.056  11.674  0.2149 -0.4726  0.7806
  466MOL0     C62813  10.336   8.094  11.810 -0.1371 -0.4851 -0.3339
  466MOL0     C62814  10.322   8.241  11.840 -0.3045 -0.6518 -0.4260
  466MOL0     C62815  10.379   8.259  11.980  0.2698  0.0375  0.2042
  466MOL0     C62816  10.360   8.398  12.026  0.7424 -0.2007 -0.5509
  466MOL0     C62817  10.390   8.508  11.920  0.1818  0.2273 -0.4845
  466MOL0     C62818  10.369   8.647  11.984  0.4326  0.4597  1.0171
  466MOL0    Cl62819  10.483   8.672  12.127 -0.0063  0.2508  0.0757
  466MOL0     C62820   9.891   8.141  11.468  0.7009 -0.1183  0.2462
  466MOL0     C62821   9.762   8.142  11.405 -0.4011 -0.5207  0.7204
  466MOL0     O62822   9.512   7.840  11.308  0.5364  0.3878 -0.5326
  466MOL0     C62823   9.322   7.875  11.108 -0.2854 -0.6727 -0.4740
  466MOL0     C62824   9.216   7.907  11.028  0.1187  0.4703 -0.7023
  466MOL0     N62825   8.719   7.636  10.668 -0.2578 -0.2597 -0.0558
  466MOL0     N62826   8.654   7.561  10.584  0.0971 -0.8261 -0.3753
  466MOL0     C62827   7.495   7.704   9.990 -0.3171 -0.2413 -0.1745
  466MOL0     C62828   7.370   7.663   9.957  0.1416  0.2592 -0.3463
  466MOL0     C62829   6.995   7.387   9.860 -1.4382 -0.0276  0.3914
  466MOL0     C62830   6.978   7.449   9.737 -0.4367  0.1325 -0.5510
  466MOL0     C62831   6.864   7.429   9.661 -0.1990 -0.3905  0.1989
  466MOL0     C62832   6.756   7.346   9.702 -0.2451 -0.2147 -0.4837
  466MOL0     O62833   6.635   7.354   9.631 -0.0592  0.1824 -1.0205
  466MOL0     C62834   6.516   7.321   9.695 -0.3004  0.3917 -0.2776
  466MOL0     C62835   6.392   7.348   9.602  0.4096  0.4902  0.1434
  466MOL0     C62836   6.267   7.377   9.690  0.3201  0.0485  0.2539
  466MOL0     C62837   6.143   7.404   9.591  0.3110 -0.5909 -0.1663
  466MOL0     C62838   6.151   7.535   9.538 -0.3261 -0.8568 -0.0719
  466MOL0     C62839   6.157   7.648   9.495 -0.0017 -0.0102 -1.3335
  466MOL0     C62840   6.772   7.281   9.828 -0.2443 -1.0390  0.2478
  466MOL0     C62841   6.891   7.302   9.900  0.1335 -0.0454 -0.2954
  466MOL0     C62842   6.887   7.241  10.048  0.1734 -0.0215  0.6679
  466MOL0     H62843   7.417   7.328   9.978 -1.7207  0.2097 -1.8182
  466MOL0     H62844   7.634   7.403  10.047 -0.0414 -0.0639  2.0561
  466MOL0     H62845   7.859   7.513  10.085 -0.2026  2.5740  2.2020
  466MOL0     H62846   7.816   7.527   9.911 -0.3193 -3.4864  2.1541
  466MOL0     H62847   7.935   7.755   9.909 -2.4753 -0.8768  0.5653
  466MOL0     H62848   8.029   7.616   9.911  0.9569  1.9843 -0.7848
  466MOL0     H62849   7.985   7.777  10.150 -0.4354  0.3130 -0.9372
  466MOL0     H62850   8.131   7.747  10.051  0.1235  2.0476  2.2636
  466MOL0     H62851   7.998   7.557  10.242  1.6597 -1.9757  0.6511
  466MOL0     H62852   8.132   7.517  10.129 -1.4088 -0.0472 -1.2256
  466MOL0     H62853   8.167   7.728  10.347  0.2885  0.4399 -0.8040
  466MOL0     H62854   8.193   7.555  10.363 -2.2053 -0.2722  0.4136
  466MOL0     H62855   8.350   7.556  10.177 -1.4073 -0.2996 -0.5406
  466MOL0     H62856   8.331   7.714  10.145 -2.0953 -0.2494  0.0031
  466MOL0     H62857   8.398   7.787  10.369  2.9385  1.9462 -0.7356
  466MOL0     H62858   8.525   7.705  10.278  0.0642 -2.4338  0.0195
  466MOL0     H62859   8.357   7.553  10.486  0.6140 -0.8907 -1.4659
  466MOL0     H62860   8.491   7.496  10.401 -0.5570 -0.9665  0.8207
  466MOL0     H62861   8.474   7.838  10.592 -2.7860 -1.8174  3.1905
  466MOL0     H62862   8.641   7.967  10.754  1.2878  2.6049 -1.1401
  466MOL0     H62863   8.743   7.856  10.848 -0.2144 -0.1446 -0.5020
  466MOL0     H62864   8.900   7.851  10.644 -1.2599 -0.0872  2.6978
  466MOL0     H62865   8.807   7.978  10.568  1.0464  3.7776  0.9910
  466MOL0     H62866   8.835   8.112  10.780  1.3007  0.9199  1.1906
  466MOL0     H62867   8.975   8.082  10.686 -2.2530  2.9112 -0.3495
  466MOL0     H62868   9.050   7.899  10.828 -0.4745 -0.3943 -0.6168
  466MOL0     H62869   8.917   7.949  10.940 -2.1184  1.1866 -1.9193
  466MOL0     H62870   9.245   8.254  11.031  2.8961 -0.5078 -1.3620
  466MOL0     H62871   9.405   8.201  11.192 -3.8398  0.7707  2.9529
  466MOL0     H62872   9.777   7.836  11.258 -1.9782  1.3455 -0.6932
  466MOL0     H62873  10.004   7.845  11.355  0.3401  0.8647  1.5428
  466MOL0     H62874  10.127   8.191  11.626  1.6187  0.0104  2.9348
  466MOL0     H62875  10.072   8.042  11.706  1.0621  0.3525  0.9824
  466MOL0     H62876  10.304   7.949  11.678  1.4454 -0.1954  3.1226
  466MOL0     H62877  10.343   8.102  11.597 -1.4335 -0.2930 -0.5048
  466MOL0     H62878  10.284   8.028  11.880 -0.3991 -0.0579 -0.1256
  466MOL0     H62879  10.445   8.078  11.806  0.1387  0.6922  1.5017
  466MOL0     H62880  10.222   8.281  11.825 -0.5589 -0.6755  1.0285
  466MOL0     H62881  10.380   8.303  11.770 -1.8542  0.9788 -0.3272
  466MOL0     H62882  10.487   8.240  11.982  0.0980 -0.9897  0.9079
  466MOL0     H62883  10.334   8.186  12.049 -1.8927 -0.3609 -1.5317
  466MOL0     H62884  10.256   8.420  12.054  0.9103  0.5507 -0.4952
  466MOL0     H62885  10.429   8.397  12.111 -0.2609 -2.0430  0.2926
  466MOL0     H62886  10.324   8.499  11.833 -0.6541 -0.2239  0.1802
  466MOL0     H62887  10.494   8.494  11.888  0.7414 -2.5091  2.0793
  466MOL0     H62888  10.391   8.723  11.909 -0.8544 -0.5920 -0.4829
  466MOL0     H62889  10.264   8.665  12.011 -1.5844 -1.2519 -4.3801
  466MOL0     H62890   9.918   8.224  11.533  0.3811 -0.4202  0.7756
  466MOL0     H62891   9.700   8.229  11.424  0.9243 -0.1496  3.9459
  466MOL0     H62892   9.365   7.775  11.111  1.2264 -0.1245 -2.3968
  466MOL0     H62893   9.158   7.831  10.977 -0.7244 -0.0456  0.9693
  466MOL0     H62894   7.534   7.805   9.985 -0.3520 -0.1036  1.5841
  466MOL0     H62895   7.289   7.732   9.935 -1.6988 -1.1926  1.5249
  466MOL0     H62896   7.063   7.501   9.694 -1.0032  1.5076 -0.0737
  466MOL0     H62897   6.846   7.484   9.569  1.6637 -0.4275 -0.2158
  466MOL0     H62898   6.525   7.386   9.782 -2.5204  0.7309 -0.2491
  466MOL0     H62899   6.518   7.216   9.727  0.4831  1.0113  1.9338
  466MOL0     H62900   6.371   7.262   9.538  3.1942  1.3569 -2.1134
  466MOL0     H62901   6.404   7.442   9.548 -1.4926  0.6361 -0.0988
  466MOL0     H62902   6.272   7.454   9.767 -3.3110 -1.4541  2.2535
  466MOL0     H62903   6.254   7.292   9.758  0.6266 -0.0852  0.1502
  466MOL0     H62904   6.127   7.332   9.510  0.5414 -1.3262  0.4343
  466MOL0     H62905   6.054   7.394   9.654  0.5556  2.0291  0.7373
  466MOL0     H62906   6.176   7.750   9.472 -1.1708  0.5741  0.1279
  466MOL0     H62907   6.703   7.202   9.857 -1.1285 -0.2738  0.2838
  466MOL0     H62908   6.786   7.218  10.084 -0.0340  0.6122  0.4923
  466MOL0     H62909   6.951   7.152  10.046 -2.4720 -2.0325 -0.5587
  466MOL0     H62910   6.940   7.313  10.112  3.3003 -0.0255 -1.6888
  467MOL0     O62911   7.551  10.356   2.517 -0.3620  0.1774  0.1517
  467MOL0     C62912   7.451  10.303   2.563  0.0679  0.9228 -0.3329
  467MOL0     O62913   7.453  10.192   2.646 -0.1557  0.5443  0.0615
  467MOL0     C62914   7.577  10.141   2.670  1.2801  0.5090  0.9367
  467MOL0     C62915   7.661  10.183   2.768  0.1591 -0.0183  0.2052
  467MOL0     C62916   7.786  10.121   2.786  0.2980 -0.2701  1.3185
  467MOL0     C62917   7.826  10.009   2.711  0.3763  0.0799 -0.2820
  467MOL0     O62918   7.945   9.955   2.746 -0.0412 -0.1563 -0.0446
  467MOL0     C62919   7.960   9.816   2.751 -0.5426  0.5815 -0.3116
  467MOL0     C62920   8.076   9.773   2.666  0.1746 -0.6730 -0.3905
  467MOL0     C62921   8.206   9.838   2.723  1.2875  1.0312 -0.4468
  467MOL0     C62922   8.331   9.751   2.687 -0.3668 -0.4339  0.1343
  467MOL0     C62923   8.457   9.791   2.748 -1.3189 -0.2750 -1.3004
  467MOL0     C62924   8.574   9.688   2.711  0.1962 -0.2314  0.2130
  467MOL0     C62925   8.706   9.743   2.772 -0.2136 -1.0349 -0.8429
  467MOL0     C62926   8.830   9.666   2.730 -0.2271  0.2118  0.2003
  467MOL0     N62927   8.951   9.724   2.790 -0.4723  0.0074  0.3481
  467MOL0     C62928   9.075   9.755   2.731  0.1614  0.8087 -0.0775
  467MOL0     C62929   9.148   9.804   2.837  0.0022 -0.8685 -0.5149
  467MOL0     C62930   9.282   9.867   2.830  0.7157  0.5731 -0.5854
  467MOL0     C62931   9.381   9.761   2.786 -1.1614 -0.4321  0.7312
  467MOL0     C62932   9.423   9.670   2.888 -0.3323 -0.2639  0.3180
  467MOL0     C62933   9.486   9.712   3.023  0.3177  0.4565  0.9249
  467MOL0     O62934   9.559   9.830   3.008  0.0058 -0.4859 -0.2267
  467MOL0     C62935   9.691   9.836   2.953  0.0870 -0.5717  0.4958
  467MOL0     C62936   9.755   9.718   2.923  0.0776 -0.4358  0.3255
  467MOL0     C62937   9.883   9.728   2.861  0.6819  0.4147  0.0072
  467MOL0     C62938   9.945   9.852   2.827 -0.5808  0.2482 -1.3347
  467MOL0     C62939  10.083   9.856   2.766 -0.1543  0.8583  0.4656
  467MOL0     O62940  10.150   9.734   2.743 -0.2083 -0.8207 -0.1398
  467MOL0     C62941  10.275   9.729   2.692 -0.5179  0.4236 -0.2737
  467MOL0     C62942  10.365   9.642   2.762  0.1122  0.6620 -0.0649
  467MOL0     C62943  10.495   9.643   2.720  0.2877  0.0890  0.3413
  467MOL0     C62944  10.540   9.717   2.606  0.1945 -0.4720  0.6561
  467MOL0     O62945  10.671   9.721   2.563  0.0928  0.3145  0.3057
  467MOL0     C62946  10.780   9.709   2.665  1.3852  0.0358  0.9340
  467MOL0     C62947  10.881   9.820   2.639  0.3259  0.1334 -0.1087
  467MOL0     C62948  11.026   9.777   2.637 -0.1394 -0.3357 -0.7309
  467MOL0     C62949  11.117   9.891   2.600  0.6578 -0.1384 -0.6881
  467MOL0     C62950  11.231   9.835   2.523 -0.6490 -0.0944  0.7054
  467MOL0     C62951  11.360   9.924   2.515  0.4952  0.6666  0.7975
  467MOL0     C62952  11.454   9.860   2.407  0.2753  0.1678 -0.3862
  467MOL0     C62953  11.524   9.739   2.471  0.0572 -0.7510 -0.1162
  467MOL0    Cl62954  11.581   9.641   2.333  0.0163 -0.2267 -0.4083
  467MOL0     C62955  10.446   9.781   2.527  0.2676 -0.1266  0.1340
  467MOL0     C62956  10.315   9.791   2.573 -0.4329 -0.2809 -0.5874
  467MOL0     O62957  10.134   9.965   2.739 -0.2050 -0.4027 -0.2204
  467MOL0     C62958   9.878   9.969   2.875  0.2083 -0.5907 -0.0866
  467MOL0     C62959   9.754   9.963   2.936 -0.1753 -0.3896 -0.2581
  467MOL0     N62960   9.078   9.784   2.953  1.0681 -0.3248  0.7258
  467MOL0     N62961   8.963   9.738   2.920  0.0388  0.8830 -0.5003
  467MOL0     C62962   7.742   9.968   2.605 -0.4185  0.4787  0.3172
  467MOL0     C62963   7.617  10.036   2.582  0.7088 -0.0249  0.6643
  467MOL0     C62964   7.326  10.377   2.559  0.1159 -0.1732  0.1383
  467MOL0     C62965   7.222  10.329   2.637 -0.2384  0.0418  1.6184
  467MOL0     C62966   7.104  10.405   2.637 -0.0840 -0.5984  0.8400
  467MOL0     C62967   7.083  10.524   2.566 -0.1782  0.8741 -0.5950
  467MOL0     O62968   6.964  10.600   2.574  0.4146 -0.1799  0.0994
  467MOL0     C62969   6.947  10.718   2.491  0.2725 -0.4480  0.3746
  467MOL0     C62970   6.814  10.798   2.511  0.9972  0.0040  0.2370
  467MOL0     C62971   6.696  10.705   2.549  0.4239  0.0389 -0.2738
  467MOL0     C62972   6.566  10.789   2.566  0.1270  0.4536  0.6057
  467MOL0     C62973   6.453  10.707   2.614 -1.1803 -0.8171  0.4485
  467MOL0     C62974   6.351  10.652   2.645 -0.9885  0.2691 -0.8232
  467MOL0     C62975   7.185  10.567   2.488 -0.1819  0.6661 -0.4168
  467MOL0     C62976   7.309  10.497   2.484 -0.4377  0.0972  0.5778
  467MOL0     C62977   7.416  10.551   2.377 -1.0255 -0.6162 -0.0755
  467MOL0     H62978   7.637  10.267   2.833 -2.5459 -0.9047  0.4720
  467MOL0     H62979   7.840  10.158   2.873 -0.3043 -1.3215  2.1552
  467MOL0     H62980   7.980   9.784   2.854 -2.1243 -1.4384 -0.5847
  467MOL0     H62981   7.874   9.752   2.730  1.6572 -2.9268  0.5339
  467MOL0     H62982   8.077   9.781   2.557  0.5706 -0.2971 -0.3633
  467MOL0     H62983   8.071   9.664   2.678  1.9627 -0.8356 -0.8890
  467MOL0     H62984   8.192   9.828   2.831 -1.3674  0.1381 -0.8012
  467MOL0     H62985   8.224   9.945   2.713  0.9343  1.6433  3.6551
  467MOL0     H62986   8.308   9.648   2.714 -0.1365 -0.7545 -0.8349
  467MOL0     H62987   8.337   9.749   2.577 -0.5556 -0.9831  0.1340
  467MOL0     H62988   8.488   9.892   2.720  1.0367 -0.9063 -1.2021
  467MOL0     H62989   8.448   9.787   2.857  3.9822 -1.6750 -0.6286
  467MOL0     H62990   8.556   9.586   2.744  0.9698 -0.2895  0.4792
  467MOL0     H62991   8.583   9.682   2.602 -0.1054  0.2032  0.1647
  467MOL0     H62992   8.694   9.734   2.880  0.7030  1.0605 -0.5249
  467MOL0     H62993   8.704   9.852   2.757  1.5245  0.0377  4.5696
  467MOL0     H62994   8.820   9.564   2.770 -0.9106 -0.1320 -0.8109
  467MOL0     H62995   8.833   9.660   2.620 -0.2221  1.3710  0.1257
  467MOL0     H62996   9.098   9.744   2.626  0.8269  2.4703 -0.1446
  467MOL0     H62997   9.268   9.954   2.766 -0.5704 -0.1247 -1.2896
  467MOL0     H62998   9.306   9.906   2.930 -2.2714 -2.3045  1.4806
  467MOL0     H62999   9.343   9.714   2.695  0.4254  0.5738 -0.5116
  467MOL0     H63000   9.476   9.802   2.752 -0.1797 -2.0810  1.3170
  467MOL0     H63001   9.503   9.605   2.852  1.7852  1.3652  1.8182
  467MOL0     H63002   9.334   9.611   2.911  0.4864 -1.4173  0.6208
  467MOL0     H63003   9.551   9.634   3.065  1.2195  0.7408  0.1070
  467MOL0     H63004   9.411   9.734   3.099 -0.7268  3.8364 -0.8874
  467MOL0     H63005   9.724   9.616   2.941  0.4690 -0.8936 -1.4300
  467MOL0     H63006   9.935   9.633   2.850  1.2067  0.5442  1.2070
  467MOL0     H63007  10.335   9.601   2.858  0.5621 -1.5851 -0.8251
  467MOL0     H63008  10.574   9.581   2.762  1.5624  0.3143 -1.5877
  467MOL0     H63009  10.740   9.715   2.766 -3.1016  0.9223 -0.6574
  467MOL0     H63010  10.829   9.612   2.653 -0.9324 -1.0670 -0.5868
  467MOL0     H63011  10.857   9.862   2.541  1.8197  1.0043 -0.1273
  467MOL0     H63012  10.868   9.901   2.712 -2.2178  0.4457 -0.7954
  467MOL0     H63013  11.051   9.733   2.734  1.4888 -2.9269 -2.2072
  467MOL0     H63014  11.044   9.690   2.572  1.6996  0.5238 -1.4300
  467MOL0     H63015  11.148   9.944   2.690 -0.0840  0.7513 -0.9388
  467MOL0     H63016  11.064   9.964   2.538 -2.6962 -1.2570  0.6579
  467MOL0     H63017  11.199   9.805   2.423  2.3091 -3.8205  0.6411
  467MOL0     H63018  11.255   9.738   2.570 -3.1986 -0.9008  0.5023
  467MOL0     H63019  11.334  10.021   2.473 -1.1268 -0.3860 -0.7843
  467MOL0     H63020  11.406   9.933   2.614 -0.5097  1.8125  1.1849
  467MOL0     H63021  11.527   9.932   2.371  1.2809 -0.6709 -0.0627
  467MOL0     H63022  11.391   9.830   2.322 -0.2019  2.1230 -0.7672
  467MOL0     H63023  11.607   9.774   2.533 -0.0543  0.1349 -0.4424
  467MOL0     H63024  11.448   9.692   2.534 -2.4310  0.8972 -1.6953
  467MOL0     H63025  10.472   9.842   2.442 -0.7988  1.3742  0.8416
  467MOL0     H63026  10.237   9.851   2.527 -2.9338 -4.2548 -2.0243
  467MOL0     H63027   9.926  10.066   2.874  1.5639 -1.1738  1.7987
  467MOL0     H63028   9.703  10.054   2.967  1.7750  0.0250  1.9835
  467MOL0     H63029   7.758   9.887   2.535  1.6825  0.2228  1.0215
  467MOL0     H63030   7.545   9.993   2.513 -1.1452 -0.1242  2.5618
  467MOL0     H63031   7.228  10.241   2.700  0.9137 -0.6829  0.5324
  467MOL0     H63032   7.021  10.371   2.698 -0.8868 -0.5628 -0.1993
  467MOL0     H63033   6.955  10.692   2.385 -0.3000 -3.9554  1.0819
  467MOL0     H63034   7.021  10.799   2.499 -0.7997  0.4759  1.1807
  467MOL0     H63035   6.792  10.856   2.420  1.1068 -1.9527 -1.1070
  467MOL0     H63036   6.830  10.858   2.601 -3.2539 -0.6870  1.6405
  467MOL0     H63037   6.720  10.661   2.646  1.3499 -0.3406 -0.6701
  467MOL0     H63038   6.679  10.633   2.469 -2.3564 -1.3203  1.3680
  467MOL0     H63039   6.580  10.866   2.643  1.8214  0.5539  0.2293
  467MOL0     H63040   6.549  10.829   2.466  3.2374  0.8108  0.1435
  467MOL0     H63041   6.258  10.606   2.671 -1.4335  1.7735  0.3899
  467MOL0     H63042   7.168  10.654   2.426 -2.8190 -0.4648 -1.4651
  467MOL0     H63043   7.451  10.472   2.311 -2.8659 -0.0084 -1.8972
  467MOL0     H63044   7.361  10.624   2.317  1.4615 -1.6904 -4.0488
  467MOL0     H63045   7.502  10.601   2.422 -0.3408 -1.0584 -0.8807
  468MOL0     O63046   5.012   2.240   4.563 -0.6566 -0.5898 -0.3039
  468MOL0     C63047   4.910   2.206   4.622 -0.1625 -0.1144 -0.4298
  468MOL0     O63048   4.910   2.145   4.745  0.5281 -0.1410 -0.2609
  468MOL0     C63049   5.034   2.097   4.788  0.0624 -0.3460  0.4373
  468MOL0     C63050   5.090   2.144   4.906 -0.5043 -1.2791 -0.1238
  468MOL0     C63051   5.209   2.093   4.957 -1.2337  0.1721  0.4591
  468MOL0     C63052   5.284   2.002   4.882 -0.6923  1.1898  0.1602
  468MOL0     O63053   5.412   1.955   4.903 -0.1337  0.6986 -0.2842
  468MOL0     C63054   5.489   1.987   5.013  0.0620  0.0103 -1.2960
  468MOL0     C63055   5.587   1.887   5.056 -0.3147 -0.5414  0.2429
  468MOL0     C63056   5.704   1.958   5.130  0.0498 -0.1181  0.0933
  468MOL0     C63057   5.798   1.846   5.193 -0.2456 -0.7400  0.4855
  468MOL0     C63058   5.948   1.880   5.209  0.8471 -1.4832  1.1681
  468MOL0     C63059   6.024   1.758   5.253 -0.3257 -0.2174 -0.1392
  468MOL0     C63060   6.170   1.788   5.231 -0.0232 -0.4021 -0.7361
  468MOL0     C63061   6.251   1.658   5.235 -0.0040 -0.5890 -0.5816
  468MOL0     N63062   6.392   1.687   5.235 -0.5032  0.4573  0.4645
  468MOL0     C63063   6.462   1.740   5.344 -0.3679  0.7394  1.1088
  468MOL0     C63064   6.584   1.764   5.294 -0.0838  0.6308 -0.4395
  468MOL0     C63065   6.697   1.835   5.375  0.1425  0.3217 -0.6237
  468MOL0     C63066   6.825   1.756   5.358  0.0034  0.3562  0.4895
  468MOL0     C63067   6.941   1.816   5.428  0.9218 -0.2401 -0.0013
  468MOL0     C63068   6.989   1.728   5.536  0.2043 -0.1582 -0.5207
  468MOL0     O63069   7.053   1.615   5.479 -0.9353 -0.2947 -1.0944
  468MOL0     C63070   7.184   1.632   5.449  0.5913  0.1188 -0.2016
  468MOL0     C63071   7.279   1.708   5.519 -0.3585 -0.3408  0.8374
  468MOL0     C63072   7.409   1.729   5.488  0.3679  0.3555 -0.2793
  468MOL0     C63073   7.455   1.675   5.362 -0.0813  0.1095  0.3549
  468MOL0     C63074   7.598   1.674   5.323 -0.5946  0.9343  1.1056
  468MOL0     O63075   7.640   1.608   5.208 -0.1555  0.3435  1.0389
  468MOL0     C63076   7.761   1.641   5.164 -0.7818  0.3936 -0.8895
  468MOL0     C63077   7.868   1.600   5.236 -0.0892 -0.0124 -0.2628
  468MOL0     C63078   8.001   1.607   5.189  0.1685  0.6532  0.6515
  468MOL0     C63079   8.027   1.655   5.063 -0.4483 -0.8203  0.4705
  468MOL0     O63080   8.144   1.661   4.990 -0.1212 -0.4183 -0.3765
  468MOL0     C63081   8.256   1.571   5.040 -0.8436  0.1585 -0.4320
  468MOL0     C63082   8.384   1.621   4.964  0.4007 -0.2373 -0.1980
  468MOL0     C63083   8.501   1.540   5.015 -0.4349  1.3998  0.6393
  468MOL0     C63084   8.631   1.587   4.951 -0.8360  0.1567 -0.5105
  468MOL0     C63085   8.749   1.516   5.017  0.7157  0.0071 -0.0594
  468MOL0     C63086   8.891   1.559   4.946  0.0221 -0.0836 -0.1563
  468MOL0     C63087   8.904   1.524   4.796 -0.1067  0.4705 -0.3291
  468MOL0     C63088   9.046   1.539   4.738 -0.7443  1.0366 -0.0966
  468MOL0    Cl63089   9.135   1.398   4.793 -0.2162 -0.1866  0.5237
  468MOL0     C63090   7.916   1.717   4.997 -0.0421  0.3024 -0.3862
  468MOL0     C63091   7.785   1.713   5.046 -0.0975 -0.1853 -0.9980
  468MOL0     O63092   7.670   1.738   5.400  0.7092  0.6704  0.3115
  468MOL0     C63093   7.364   1.593   5.286  0.4342  0.1958  0.1632
  468MOL0     C63094   7.228   1.575   5.331  0.6523 -0.0447  0.2084
  468MOL0     N63095   6.591   1.717   5.169 -0.0878 -0.1467 -0.3529
  468MOL0     N63096   6.471   1.682   5.129  0.1139  0.1906  0.1014
  468MOL0     C63097   5.215   1.943   4.772  0.0079 -0.4454 -0.5921
  468MOL0     C63098   5.092   1.987   4.724 -0.0017 -0.4285 -0.0340
  468MOL0     C63099   4.784   2.209   4.549  0.0339 -0.2627  0.0078
  468MOL0     C63100   4.665   2.149   4.607  0.6566 -1.0598 -0.1949
  468MOL0     C63101   4.548   2.132   4.530  0.2029 -0.5284 -0.0448
  468MOL0     C63102   4.539   2.180   4.401 -0.2657  0.2360 -0.1923
  468MOL0     O63103   4.417   2.160   4.333 -0.5472 -0.2655 -0.1258
  468MOL0     C63104   4.405   2.200   4.191 -0.2008  0.4916  0.0549
  468MOL0     C63105   4.290   2.291   4.158 -0.7213 -0.4731  0.4261
  468MOL0     C63106   4.159   2.219   4.197 -0.4858  0.4565 -0.1850
  468MOL0     C63107   4.045   2.300   4.131 -0.1582  0.0431 -0.7198
  468MOL0     C63108   4.052   2.448   4.156 -0.4735 -0.2665 -0.5874
  468MOL0     C63109   4.036   2.568   4.182  0.0756  0.7700  0.0375
  468MOL0     C63110   4.652   2.247   4.341  0.1064  0.1044 -0.5048
  468MOL0     C63111   4.771   2.258   4.415 -0.3472  0.2865 -0.5837
  468MOL0     C63112   4.884   2.316   4.332  0.1260 -0.2830  0.0833
  468MOL0     H63113   5.044   2.228   4.957  5.6038  3.0745 -0.7092
  468MOL0     H63114   5.250   2.144   5.044 -2.6752 -0.0894  1.3250
  468MOL0     H63115   5.536   2.085   4.999 -2.9692  1.9761  0.9799
  468MOL0     H63116   5.423   2.006   5.099  0.8009 -0.5877 -0.5791
  468MOL0     H63117   5.617   1.832   4.967 -0.9307 -1.3018  0.4920
  468MOL0     H63118   5.537   1.819   5.126 -0.5713 -0.6937 -0.0869
  468MOL0     H63119   5.672   2.033   5.202  0.1006 -0.9961  1.0584
  468MOL0     H63120   5.767   2.013   5.060  1.6406 -1.4513  0.4087
  468MOL0     H63121   5.748   1.816   5.285  1.2985 -3.1222  0.6314
  468MOL0     H63122   5.791   1.762   5.123  1.6368 -0.3907 -0.1652
  468MOL0     H63123   5.990   1.929   5.120  2.7929 -1.4301  2.0640
  468MOL0     H63124   5.962   1.963   5.279 -0.6649  1.2759 -1.5332
  468MOL0     H63125   6.006   1.730   5.357  0.3583  0.2522  0.1039
  468MOL0     H63126   5.995   1.673   5.190 -0.0129 -0.2939 -0.1815
  468MOL0     H63127   6.208   1.866   5.299  1.0832 -1.1814 -0.4277
  468MOL0     H63128   6.186   1.828   5.131  1.1413 -0.8038 -0.7319
  468MOL0     H63129   6.229   1.588   5.317  2.5940 -2.9072 -1.7024
  468MOL0     H63130   6.222   1.603   5.145 -0.5473  2.2304 -2.2604
  468MOL0     H63131   6.428   1.761   5.445 -0.4597  1.0454  1.0135
  468MOL0     H63132   6.710   1.939   5.345 -0.4257  1.9987  4.0987
  468MOL0     H63133   6.658   1.847   5.477 -2.7836 -3.7472 -1.0285
  468MOL0     H63134   6.804   1.658   5.403 -2.0665  0.8894  0.8351
  468MOL0     H63135   6.863   1.748   5.256  1.2271  2.9954  0.6645
  468MOL0     H63136   6.907   1.911   5.471  1.4570 -1.1695  2.6613
  468MOL0     H63137   7.025   1.821   5.359 -0.0919 -1.5111 -1.3933
  468MOL0     H63138   6.904   1.693   5.595 -0.8103  2.6810 -0.1498
  468MOL0     H63139   7.044   1.799   5.599 -0.2058  0.7712 -1.1797
  468MOL0     H63140   7.244   1.740   5.617 -2.4468 -2.8934  1.0107
  468MOL0     H63141   7.479   1.777   5.556  0.2295  1.7263 -1.0642
  468MOL0     H63142   7.859   1.559   5.336  1.1900 -0.0360 -0.1407
  468MOL0     H63143   8.089   1.579   5.246 -1.0114  0.8046  2.6293
  468MOL0     H63144   8.275   1.577   5.147 -1.0849 -0.8223 -0.3246
  468MOL0     H63145   8.243   1.465   5.017  0.7534  0.3264 -2.4993
  468MOL0     H63146   8.370   1.608   4.857  0.9229  1.5338 -0.5202
  468MOL0     H63147   8.401   1.726   4.992  2.8955 -0.6105 -0.1008
  468MOL0     H63148   8.502   1.541   5.124 -0.7461  1.8412  0.6427
  468MOL0     H63149   8.492   1.438   4.979 -1.3556  1.9040 -0.6189
  468MOL0     H63150   8.644   1.695   4.965  1.6068  0.3226 -3.1621
  468MOL0     H63151   8.632   1.568   4.843  2.2956  0.5037 -0.6248
  468MOL0     H63152   8.737   1.408   5.011 -1.8083  0.2751 -1.0281
  468MOL0     H63153   8.759   1.534   5.124  0.7869 -0.6678  0.0491
  468MOL0     H63154   8.901   1.667   4.962  2.0731 -0.2781  0.1158
  468MOL0     H63155   8.969   1.503   4.998  2.4940  1.3219 -2.1285
  468MOL0     H63156   8.847   1.590   4.729  1.9494  2.1465 -0.5476
  468MOL0     H63157   8.862   1.423   4.790  1.4408 -0.1654 -1.1976
  468MOL0     H63158   9.050   1.541   4.629  1.1641 -0.6944 -0.1244
  468MOL0     H63159   9.094   1.629   4.777  0.7129 -0.2433  1.2122
  468MOL0     H63160   7.919   1.756   4.896  0.1391 -2.5415 -1.5582
  468MOL0     H63161   7.697   1.744   4.990 -0.5938 -0.9451 -0.6460
  468MOL0     H63162   7.404   1.541   5.199  1.0265  1.6665 -0.4877
  468MOL0     H63163   7.170   1.509   5.266  0.5237  0.6752 -0.4257
  468MOL0     H63164   5.262   1.867   4.709 -0.2890  0.0805 -1.4692
  468MOL0     H63165   5.050   1.945   4.633  0.1635  1.5497 -1.0651
  468MOL0     H63166   4.670   2.118   4.711  1.9560 -0.1708  0.0295
  468MOL0     H63167   4.465   2.079   4.576 -0.7643 -0.0054 -1.1362
  468MOL0     H63168   4.390   2.103   4.143 -1.5122 -0.1342  1.6420
  468MOL0     H63169   4.493   2.248   4.147 -1.3098  1.2111 -1.4839
  468MOL0     H63170   4.295   2.300   4.049  4.2646 -0.0650  0.4737
  468MOL0     H63171   4.312   2.386   4.207 -0.0536 -0.3438 -0.1135
  468MOL0     H63172   4.146   2.223   4.306 -1.3338 -1.5273 -0.1704
  468MOL0     H63173   4.168   2.117   4.160 -3.3194  0.0735 -0.0696
  468MOL0     H63174   4.042   2.282   4.023 -3.1276  1.2996 -0.9513
  468MOL0     H63175   3.954   2.259   4.176  0.6682 -2.5468 -1.2285
  468MOL0     H63176   4.030   2.667   4.221  3.3022  1.3543 -0.6688
  468MOL0     H63177   4.638   2.297   4.246 -0.8438  1.3451  0.2589
  468MOL0     H63178   4.926   2.227   4.285 -1.4642 -1.4606  0.7764
  468MOL0     H63179   4.855   2.374   4.244 -0.5215 -1.1483 -0.2901
  468MOL0     H63180   4.951   2.382   4.387  0.9697 -1.8004  0.9269
  469MOL0     O63181   7.668   5.364   5.116 -0.0791  0.2276  0.1791
  469MOL0     C63182   7.575   5.284   5.118 -1.2158  0.4162  0.4532
  469MOL0     O63183   7.587   5.150   5.157  0.0422 -0.0731  0.1334
  469MOL0     C63184   7.716   5.108   5.182  0.4224  0.2336 -0.2907
  469MOL0     C63185   7.805   5.088   5.081 -0.0823  0.4352 -0.7140
  469MOL0     C63186   7.933   5.043   5.110 -0.3409  0.1202 -0.4495
  469MOL0     C63187   7.978   5.027   5.244  0.7681 -0.1647  0.4561
  469MOL0     O63188   8.105   4.994   5.288  0.2144 -0.0529 -0.0881
  469MOL0     C63189   8.186   4.916   5.197 -0.4964  1.1399  0.2508
  469MOL0     C63190   8.309   4.850   5.273  0.1503 -0.2190 -0.9045
  469MOL0     C63191   8.419   4.956   5.321  0.1622  0.2958  0.2321
  469MOL0     C63192   8.390   5.016   5.456  1.1258  0.7749  0.2017
  469MOL0     C63193   8.488   5.129   5.494 -0.3215 -0.5239  0.2903
  469MOL0     C63194   8.640   5.091   5.499 -0.3962 -0.1635  1.0600
  469MOL0     C63195   8.726   5.181   5.581 -0.0433  0.3036  1.5050
  469MOL0     C63196   8.875   5.134   5.570  0.3466  0.4376  0.9274
  469MOL0     N63197   8.941   5.157   5.440 -0.0719 -0.0177 -0.3592
  469MOL0     C63198   8.963   5.278   5.388  0.0538 -0.2073 -0.2764
  469MOL0     C63199   9.003   5.263   5.259 -0.1873  0.3302  0.0670
  469MOL0     C63200   9.017   5.376   5.163  0.0181 -0.0690 -0.5049
  469MOL0     C63201   9.170   5.414   5.126 -0.1953  0.3757  0.2407
  469MOL0     C63202   9.241   5.452   5.254  0.5953 -0.1102 -0.6245
  469MOL0     C63203   9.384   5.489   5.213  0.0510  0.7828 -0.4062
  469MOL0     O63204   9.442   5.373   5.147  0.2301 -0.3629  0.2047
  469MOL0     C63205   9.570   5.391   5.088  0.4474  0.0903 -0.7702
  469MOL0     C63206   9.660   5.485   5.125 -0.2484  0.3057 -0.6806
  469MOL0     C63207   9.788   5.495   5.064 -0.7610  0.1112  1.2521
  469MOL0     C63208   9.828   5.396   4.966  0.3852  0.0702  0.6941
  469MOL0     C63209   9.964   5.382   4.912 -0.3593 -0.2560  0.0677
  469MOL0     O63210  10.052   5.485   4.932  0.0725 -0.3651 -0.0137
  469MOL0     C63211  10.183   5.490   4.906 -0.4554  0.2389 -0.6542
  469MOL0     C63212  10.243   5.608   4.870 -0.2799 -0.8226  0.6056
  469MOL0     C63213  10.383   5.609   4.835 -0.3706  0.3052  0.6451
  469MOL0     C63214  10.462   5.499   4.845 -0.2971  0.8455 -1.1350
  469MOL0     O63215  10.596   5.497   4.819  0.0698 -0.7386 -0.5850
  469MOL0     C63216  10.633   5.584   4.702 -0.1903 -0.4274 -0.0172
  469MOL0     C63217  10.692   5.479   4.599 -0.0327  0.5513 -0.2548
  469MOL0     C63218  10.759   5.536   4.466  0.2584 -0.0601 -0.2258
  469MOL0     C63219  10.902   5.586   4.503  0.3681 -1.0945  0.0747
  469MOL0     C63220  10.979   5.626   4.387  0.7028  0.2105 -0.9073
  469MOL0     C63221  11.126   5.660   4.414  0.0655  0.5758  0.5688
  469MOL0     C63222  11.205   5.698   4.288  0.9783 -0.4152  0.5851
  469MOL0     C63223  11.347   5.714   4.327  0.2103  0.2214  1.0029
  469MOL0    Cl63224  11.444   5.807   4.201  0.1876 -0.4128 -0.0861
  469MOL0     C63225  10.409   5.381   4.887  0.1343  0.3504 -0.0189
  469MOL0     C63226  10.267   5.374   4.914  0.1196 -0.4113  0.6196
  469MOL0     O63227  10.001   5.278   4.847  0.0003 -0.1229  0.5380
  469MOL0     C63228   9.730   5.296   4.932 -0.0407 -0.4807 -0.5444
  469MOL0     C63229   9.606   5.299   4.990 -0.3427  0.8365  0.3868
  469MOL0     N63230   9.004   5.121   5.237 -0.0962 -0.0018  0.3045
  469MOL0     N63231   8.963   5.058   5.352  0.6263 -0.5384  1.5314
  469MOL0     C63232   7.887   5.062   5.348  0.1207 -0.4618  0.1611
  469MOL0     C63233   7.756   5.103   5.313  0.4227  0.2668  0.0687
  469MOL0     C63234   7.448   5.334   5.075  0.0436 -0.3434  0.2712
  469MOL0     C63235   7.334   5.296   5.143  0.0999 -0.0714 -0.1394
  469MOL0     C63236   7.203   5.328   5.097  0.0485 -1.1160 -0.3714
  469MOL0     C63237   7.195   5.408   4.983 -0.1038  0.1544  0.5046
  469MOL0     O63238   7.074   5.447   4.918  0.4938  0.7253 -0.2846
  469MOL0     C63239   6.959   5.406   4.989 -0.4932  0.9508  0.6764
  469MOL0     C63240   6.841   5.446   4.906 -0.0037  0.3902  0.6199
  469MOL0     C63241   6.867   5.573   4.819  0.7660  0.9187  0.0695
  469MOL0     C63242   6.733   5.625   4.751 -0.2796  0.3437 -0.7701
  469MOL0     C63243   6.701   5.536   4.633 -0.1933 -1.1073  0.4340
  469MOL0     C63244   6.681   5.461   4.542  0.0166 -0.3718  0.4608
  469MOL0     C63245   7.304   5.451   4.908  0.2680 -0.5220 -0.6360
  469MOL0     C63246   7.431   5.418   4.964 -0.3952  0.0896  0.3368
  469MOL0     C63247   7.544   5.461   4.869 -0.3847 -0.1581 -0.1211
  469MOL0     H63248   7.774   5.119   4.982 -0.9131  1.2207 -0.2221
  469MOL0     H63249   7.998   5.032   5.025 -1.0903 -0.6255 -0.9344
  469MOL0     H63250   8.129   4.846   5.136  1.2998  1.7157 -2.2180
  469MOL0     H63251   8.225   4.982   5.119  2.8352 -2.4236 -1.3843
  469MOL0     H63252   8.353   4.773   5.209 -0.1751 -0.2309 -1.1171
  469MOL0     H63253   8.263   4.789   5.353  0.5858 -0.3374 -0.7401
  469MOL0     H63254   8.428   5.035   5.245  2.5518  0.8651  1.0374
  469MOL0     H63255   8.516   4.906   5.326  0.1588  0.3988  1.8723
  469MOL0     H63256   8.288   5.054   5.446  0.1811 -1.5678  0.5166
  469MOL0     H63257   8.381   4.940   5.535 -1.9445 -0.7211 -1.4251
  469MOL0     H63258   8.469   5.221   5.438  0.0082 -1.5060 -1.5215
  469MOL0     H63259   8.470   5.161   5.597 -1.9907 -1.9014  0.4819
  469MOL0     H63260   8.646   4.993   5.547  1.3043 -0.1648  0.9092
  469MOL0     H63261   8.685   5.079   5.400  1.9597  1.3744  1.8636
  469MOL0     H63262   8.686   5.183   5.684  0.8826  1.1030  1.8531
  469MOL0     H63263   8.710   5.278   5.535  0.2818 -0.4348 -0.2450
  469MOL0     H63264   8.939   5.184   5.643  4.2108  0.3187 -2.0305
  469MOL0     H63265   8.869   5.028   5.596  0.4248  0.3787  0.7128
  469MOL0     H63266   8.937   5.374   5.431 -0.2734 -0.0618 -0.7860
  469MOL0     H63267   8.967   5.347   5.070  2.2810 -0.8024 -1.5703
  469MOL0     H63268   8.975   5.468   5.204 -0.4510  0.3916 -2.0008
  469MOL0     H63269   9.212   5.320   5.090 -2.6816 -1.2908  1.4559
  469MOL0     H63270   9.174   5.491   5.048  1.6680 -1.8019 -1.9724
  469MOL0     H63271   9.253   5.379   5.335 -0.1659  2.2568  1.7801
  469MOL0     H63272   9.184   5.536   5.297  1.9545 -1.4657  4.5078
  469MOL0     H63273   9.430   5.524   5.306  1.0136 -0.6051 -0.3429
  469MOL0     H63274   9.380   5.578   5.149 -0.3407  2.0733  1.3150
  469MOL0     H63275   9.643   5.552   5.209  1.5196  0.0926 -0.1066
  469MOL0     H63276   9.861   5.569   5.096 -0.7708  0.4013  0.6234
  469MOL0     H63277  10.182   5.696   4.851 -0.9366 -1.9929 -4.2777
  469MOL0     H63278  10.430   5.702   4.805  2.3951 -1.2010  0.0305
  469MOL0     H63279  10.554   5.639   4.651 -0.9986  0.0149  1.6571
  469MOL0     H63280  10.706   5.662   4.725  1.5234 -1.0429 -2.7595
  469MOL0     H63281  10.757   5.410   4.653  0.2608 -0.0030 -1.2950
  469MOL0     H63282  10.608   5.413   4.573 -0.9364  1.8981 -0.8604
  469MOL0     H63283  10.763   5.464   4.384 -0.0455  1.1514 -1.3389
  469MOL0     H63284  10.694   5.610   4.420 -0.4989  1.5825  3.2011
  469MOL0     H63285  10.954   5.511   4.564  2.1401  1.1803  1.5279
  469MOL0     H63286  10.896   5.674   4.567  0.2595  0.2123 -1.6629
  469MOL0     H63287  10.934   5.714   4.340  1.4975  0.3973 -1.3425
  469MOL0     H63288  10.959   5.556   4.306 -2.0542  0.6296 -0.6583
  469MOL0     H63289  11.139   5.735   4.492 -0.1784  0.2810  0.8978
  469MOL0     H63290  11.174   5.572   4.457  3.9645  1.8841 -0.7195
  469MOL0     H63291  11.171   5.793   4.247  2.4203  0.4894  1.3705
  469MOL0     H63292  11.194   5.628   4.205 -1.7071 -0.3827  0.8337
  469MOL0     H63293  11.363   5.764   4.423 -1.0740  0.3540  1.1659
  469MOL0     H63294  11.385   5.611   4.334  1.6828  0.4074 -2.2585
  469MOL0     H63295  10.468   5.290   4.879 -0.1089  0.2796 -1.2752
  469MOL0     H63296  10.218   5.285   4.951 -0.2754 -1.8590 -2.9724
  469MOL0     H63297   9.751   5.226   4.852 -0.6988  1.7196 -2.7670
  469MOL0     H63298   9.527   5.230   4.962 -0.6466  0.2877  2.4256
  469MOL0     H63299   7.910   5.051   5.454  0.0425  1.0509  0.3562
  469MOL0     H63300   7.687   5.120   5.395  0.7374  0.4469  0.2990
  469MOL0     H63301   7.338   5.234   5.232 -4.3485  1.0156  1.0800
  469MOL0     H63302   7.123   5.288   5.159  0.3563 -1.1307  0.0213
  469MOL0     H63303   6.955   5.446   5.091 -1.6320  0.1872  0.9528
  469MOL0     H63304   6.956   5.297   4.993 -0.5499  0.8389 -1.3859
  469MOL0     H63305   6.747   5.463   4.960 -1.9563 -0.5001 -2.2857
  469MOL0     H63306   6.816   5.370   4.832 -0.6184  0.5893  0.6185
  469MOL0     H63307   6.944   5.555   4.742  0.8778  1.0904  0.1417
  469MOL0     H63308   6.904   5.649   4.888 -1.7213  1.3369  1.0234
  469MOL0     H63309   6.655   5.634   4.828 -2.5386 -2.6149 -2.5045
  469MOL0     H63310   6.756   5.724   4.711 -0.0759  0.3446 -0.6540
  469MOL0     H63311   6.677   5.399   4.454 -0.6385  0.7138 -0.3082
  469MOL0     H63312   7.290   5.510   4.818 -0.8885  1.4171  0.7547
  469MOL0     H63313   7.625   5.389   4.863 -0.4266 -0.0440 -3.3137
  469MOL0     H63314   7.517   5.476   4.764  0.3454 -0.6717 -0.3858
  469MOL0     H63315   7.580   5.554   4.916 -0.5024 -0.9060  1.5419
  470MOL0     O63316   3.107  11.095   4.747 -0.6855 -0.3756 -0.7351
  470MOL0     C63317   3.015  11.012   4.743  0.4585 -0.6111  0.5046
  470MOL0     O63318   3.022  10.911   4.650 -0.1426  0.4978 -0.2748
  470MOL0     C63319   3.115  10.919   4.550  0.0104 -0.2921  0.5368
  470MOL0     C63320   3.210  10.811   4.552 -0.1774 -0.2972  1.3712
  470MOL0     C63321   3.329  10.826   4.472  0.1873  0.5713 -0.1133
  470MOL0     C63322   3.338  10.931   4.383 -0.2443  0.0060  1.2215
  470MOL0     O63323   3.451  10.937   4.311 -0.3815 -0.4892  0.1831
  470MOL0     C63324   3.479  11.044   4.217  0.2872  0.3660 -0.1556
  470MOL0     C63325   3.609  11.007   4.141  0.0079 -0.9191  0.3487
  470MOL0     C63326   3.732  11.027   4.220 -0.7686  0.2670 -0.0524
  470MOL0     C63327   3.860  11.018   4.137 -0.3015 -0.2888  0.6928
  470MOL0     C63328   3.980  11.033   4.229 -0.8270  0.2161  0.1517
  470MOL0     C63329   4.024  11.185   4.258 -0.0941 -0.3275 -0.0964
  470MOL0     C63330   4.138  11.189   4.360  0.4094  1.1389  0.0661
  470MOL0     C63331   4.277  11.225   4.296  0.3126  0.7926 -0.2657
  470MOL0     N63332   4.332  11.128   4.195  0.3334 -0.5857  1.0420
  470MOL0     C63333   4.351  11.154   4.063  0.4161  0.7315  0.0663
  470MOL0     C63334   4.438  11.065   4.013 -1.5324  0.2147 -0.0963
  470MOL0     C63335   4.471  11.042   3.867  0.2029 -0.8073 -0.2981
  470MOL0     C63336   4.619  11.008   3.859 -0.3804  0.2692 -0.6612
  470MOL0     C63337   4.648  10.863   3.902  0.2875  0.6605  0.0465
  470MOL0     C63338   4.782  10.817   3.827 -0.4895  0.1387  0.1665
  470MOL0     O63339   4.875  10.929   3.826  1.2174  0.4971  0.0942
  470MOL0     C63340   5.004  10.912   3.785  0.5504 -0.7361 -0.8918
  470MOL0     C63341   5.071  11.030   3.744 -0.3380 -0.2432 -0.3018
  470MOL0     C63342   5.198  11.018   3.708 -0.5219 -0.0049 -0.5655
  470MOL0     C63343   5.262  10.898   3.695  0.1882 -0.0489  0.2098
  470MOL0     C63344   5.405  10.900   3.662 -0.1633  0.5770  0.2310
  470MOL0     O63345   5.490  11.007   3.676 -0.5492  0.1592 -0.5443
  470MOL0     C63346   5.626  10.996   3.641 -0.6745 -0.1262  0.2240
  470MOL0     C63347   5.678  11.081   3.538 -1.1324 -0.6286  0.0295
  470MOL0     C63348   5.810  11.082   3.515 -0.2012 -1.5115  1.0696
  470MOL0     C63349   5.895  10.996   3.586 -0.0968 -0.2263 -0.2075
  470MOL0     O63350   6.028  11.003   3.543 -0.1127  0.1949 -0.2294
  470MOL0     C63351   6.124  10.928   3.609 -0.4716 -0.3082 -0.2708
  470MOL0     C63352   6.261  10.960   3.558  0.0837  0.4762  0.4304
  470MOL0     C63353   6.371  10.905   3.650  0.1363 -0.0745  0.6554
  470MOL0     C63354   6.407  10.988   3.773 -0.4552 -0.0183  0.0739
  470MOL0     C63355   6.564  10.997   3.781  0.6694 -0.1922 -0.7228
  470MOL0     C63356   6.617  11.104   3.875  0.8141 -0.2393  0.8456
  470MOL0     C63357   6.574  11.082   4.024 -0.5521  0.4369 -0.1893
  470MOL0     C63358   6.547  11.213   4.091 -0.2066 -0.0322  0.3555
  470MOL0    Cl63359   6.690  11.327   4.072 -0.0404  0.3559 -0.3843
  470MOL0     C63360   5.848  10.904   3.680 -0.7294 -0.5596 -0.0134
  470MOL0     C63361   5.711  10.905   3.704 -0.0694  0.6540  0.0295
  470MOL0     O63362   5.450  10.789   3.626 -0.2002 -0.0666 -0.9479
  470MOL0     C63363   5.190  10.784   3.724 -0.1467  0.1086  0.7929
  470MOL0     C63364   5.061  10.788   3.767 -0.3189 -0.1357 -0.0429
  470MOL0     N63365   4.476  10.991   4.127 -0.6120 -0.5674 -0.1217
  470MOL0     N63366   4.409  11.022   4.232  0.3488 -0.3111 -0.0419
  470MOL0     C63367   3.237  11.029   4.378  0.4794 -0.1635 -0.0419
  470MOL0     C63368   3.135  11.031   4.468 -0.0492  0.9704  0.1107
  470MOL0     C63369   2.891  11.024   4.832  0.5319  0.1187 -0.4642
  470MOL0     C63370   2.788  10.923   4.824  0.4482 -0.3358 -0.4144
  470MOL0     C63371   2.678  10.926   4.903 -0.0460 -0.3921 -0.9862
  470MOL0     C63372   2.669  11.025   5.009  0.3085 -0.2220  0.1788
  470MOL0     O63373   2.559  11.025   5.080 -0.3379 -0.0511  0.8206
  470MOL0     C63374   2.532  11.115   5.185 -0.3962  0.7816  0.6601
  470MOL0     C63375   2.384  11.118   5.204 -0.2408  0.9141  0.0007
  470MOL0     C63376   2.328  11.208   5.318  0.0611  0.0433  0.6010
  470MOL0     C63377   2.289  11.351   5.267  0.0518  1.1821 -0.5382
  470MOL0     C63378   2.181  11.349   5.166 -0.4029 -0.2548  0.0790
  470MOL0     C63379   2.083  11.377   5.097 -0.9315  0.8893  0.0003
  470MOL0     C63380   2.779  11.113   5.031  0.1164 -0.1092 -0.0521
  470MOL0     C63381   2.883  11.116   4.937 -0.1338 -0.6575 -0.3477
  470MOL0     C63382   2.975  11.239   4.966  0.5704 -0.0448  0.3382
  470MOL0     H63383   3.198  10.737   4.630 -3.8582 -1.5102 -0.1267
  470MOL0     H63384   3.413  10.760   4.491  1.3574  2.4149  1.4541
  470MOL0     H63385   3.395  11.053   4.147 -1.3697  1.3379  1.8323
  470MOL0     H63386   3.490  11.139   4.272  2.3075  0.4258 -0.5851
  470MOL0     H63387   3.613  11.071   4.052 -1.6201  0.4994  1.2309
  470MOL0     H63388   3.609  10.901   4.112 -2.0899 -0.6625 -0.8204
  470MOL0     H63389   3.725  10.950   4.298  0.9199  1.2396  1.1494
  470MOL0     H63390   3.734  11.118   4.281 -0.8383 -0.0321  0.4026
  470MOL0     H63391   3.862  10.920   4.088  0.5414  0.3187 -0.5350
  470MOL0     H63392   3.870  11.095   4.060 -0.2900 -1.6664 -0.7294
  470MOL0     H63393   3.965  10.969   4.316  2.6609 -2.5810 -1.0916
  470MOL0     H63394   4.071  10.995   4.182 -1.0111 -1.4421  1.0876
  470MOL0     H63395   4.057  11.239   4.170 -1.3553  0.5892 -0.0312
  470MOL0     H63396   3.940  11.235   4.307 -0.6545 -0.2592 -1.1016
  470MOL0     H63397   4.158  11.093   4.409  0.3240  1.8327  1.5096
  470MOL0     H63398   4.113  11.259   4.440 -1.2829 -2.2161  2.7517
  470MOL0     H63399   4.260  11.325   4.255 -4.1107 -0.2698 -1.5677
  470MOL0     H63400   4.342  11.238   4.383 -0.6399  0.9597  0.4260
  470MOL0     H63401   4.296  11.234   4.014  0.4301  0.8336  0.2155
  470MOL0     H63402   4.415  10.956   3.829  1.2758 -1.6529 -0.0068
  470MOL0     H63403   4.435  11.117   3.795  0.3575 -0.0685  0.3853
  470MOL0     H63404   4.644  11.023   3.754  2.4940  2.0387  0.1451
  470MOL0     H63405   4.677  11.079   3.918  0.1341  1.2217 -2.2499
  470MOL0     H63406   4.565  10.799   3.871  0.4915  0.9387 -1.1044
  470MOL0     H63407   4.677  10.850   4.007  3.2943  1.7894 -0.5498
  470MOL0     H63408   4.775  10.790   3.722  1.0324 -0.8210  0.2866
  470MOL0     H63409   4.825  10.730   3.877 -1.5120 -0.4401  0.0613
  470MOL0     H63410   5.024  11.128   3.738 -0.5392 -0.2563  0.8786
  470MOL0     H63411   5.252  11.109   3.680  0.8105 -1.0413 -1.5333
  470MOL0     H63412   5.611  11.145   3.482 -0.5068 -0.2623 -0.3181
  470MOL0     H63413   5.852  11.151   3.443 -1.9612 -2.5578 -1.0849
  470MOL0     H63414   6.116  10.941   3.717  2.1537 -2.1892  0.2365
  470MOL0     H63415   6.106  10.821   3.590 -2.8618  0.5331 -3.6762
  470MOL0     H63416   6.272  10.916   3.459  0.0927 -0.5792  0.8847
  470MOL0     H63417   6.267  11.068   3.541  1.2851  1.0053  3.4801
  470MOL0     H63418   6.334  10.807   3.681 -2.8724  1.2090  1.5071
  470MOL0     H63419   6.462  10.903   3.590  0.6900  2.0981  1.3229
  470MOL0     H63420   6.362  10.944   3.863 -0.1375 -2.1812 -0.7694
  470MOL0     H63421   6.352  11.082   3.765 -3.2407 -1.7068 -2.0077
  470MOL0     H63422   6.592  11.030   3.680 -1.2534 -1.3293 -1.7022
  470MOL0     H63423   6.608  10.901   3.811 -3.3916 -1.7449  0.9824
  470MOL0     H63424   6.726  11.108   3.867  0.7114  1.7056 -0.1570
  470MOL0     H63425   6.572  11.199   3.846  0.7111 -1.0034 -1.7210
  470MOL0     H63426   6.662  11.039   4.073 -0.4607 -0.4674 -1.1116
  470MOL0     H63427   6.492  11.012   4.041  0.1138 -0.3675 -0.2363
  470MOL0     H63428   6.464  11.271   4.049 -0.0409 -0.6208 -0.8522
  470MOL0     H63429   6.521  11.195   4.195 -2.9556  1.0098 -0.0754
  470MOL0     H63430   5.900  10.827   3.735 -1.3889 -1.5272 -0.7245
  470MOL0     H63431   5.666  10.844   3.782  0.1927 -1.2371 -1.2169
  470MOL0     H63432   5.245  10.691   3.733  0.8206  0.5114 -0.7025
  470MOL0     H63433   5.017  10.692   3.792  0.8138 -0.5931  0.2481
  470MOL0     H63434   3.253  11.118   4.319 -0.0719 -0.5543 -0.8059
  470MOL0     H63435   3.065  11.114   4.478 -3.0186 -1.6439  3.0379
  470MOL0     H63436   2.785  10.856   4.739  1.8267 -0.5711 -0.3052
  470MOL0     H63437   2.591  10.861   4.899 -1.0487  0.4613  2.5746
  470MOL0     H63438   2.568  11.213   5.153  2.2249 -0.2826  0.1166
  470MOL0     H63439   2.578  11.084   5.279 -0.5818  0.8301  0.7689
  470MOL0     H63440   2.346  11.020   5.237  3.0994 -2.1782 -4.2936
  470MOL0     H63441   2.339  11.147   5.109  1.0954  3.4739  0.0598
  470MOL0     H63442   2.407  11.223   5.393  1.8773 -1.9933 -0.7852
  470MOL0     H63443   2.234  11.166   5.355  0.0162 -1.2181 -0.8434
  470MOL0     H63444   2.242  11.413   5.344  1.6467 -0.1801  1.6484
  470MOL0     H63445   2.379  11.401   5.230  1.6106 -0.9338  0.2127
  470MOL0     H63446   1.998  11.400   5.037  0.2849  1.1571 -1.7075
  470MOL0     H63447   2.777  11.189   5.109 -2.6261  0.2826 -0.4118
  470MOL0     H63448   3.030  11.289   4.886  0.7503  1.2699  1.2367
  470MOL0     H63449   2.914  11.319   5.008 -1.7047 -1.9412  0.8305
  470MOL0     H63450   3.051  11.209   5.040  0.6384 -0.4093  0.1213
  471MOL0     O63451   4.108   7.804   9.257  0.6127 -0.2368  0.1169
  471MOL0     C63452   4.153   7.731   9.340 -0.6452 -0.8278  0.3013
  471MOL0     O63453   4.289   7.728   9.373 -0.2357  0.4058  0.0203
  471MOL0     C63454   4.378   7.819   9.312 -0.4689  0.3135 -0.4039
  471MOL0     C63455   4.505   7.766   9.300  0.0217  0.0712  0.1088
  471MOL0     C63456   4.615   7.841   9.253 -0.3546 -0.1116  0.0388
  471MOL0     C63457   4.601   7.979   9.223  0.6566  0.5513 -0.8287
  471MOL0     O63458   4.706   8.050   9.161 -0.2611 -0.4572 -0.1299
  471MOL0     C63459   4.832   7.986   9.161 -0.1634 -0.9072 -0.0009
  471MOL0     C63460   4.908   8.009   9.296 -0.8507  0.7485 -0.1215
  471MOL0     C63461   5.058   7.989   9.285 -0.3442  0.6444  0.0293
  471MOL0     C63462   5.140   8.034   9.411 -0.4330  0.0687  0.8145
  471MOL0     C63463   5.291   8.061   9.390  0.8281 -0.0005 -0.4043
  471MOL0     C63464   5.363   8.073   9.527 -0.0461 -0.2448 -0.4145
  471MOL0     C63465   5.508   8.041   9.509 -1.5019  0.2823 -0.1511
  471MOL0     C63466   5.589   8.124   9.405  0.4702 -0.5487 -0.7766
  471MOL0     N63467   5.728   8.084   9.390 -0.4305 -0.3738  0.0614
  471MOL0     C63468   5.844   8.105   9.467  0.9122 -0.0423 -0.0680
  471MOL0     C63469   5.944   8.038   9.403  0.2538  0.0310  0.2615
  471MOL0     C63470   6.084   8.026   9.464  1.2975 -0.4775 -0.0688
  471MOL0     C63471   6.138   8.158   9.533 -0.1337 -0.0067 -0.2272
  471MOL0     C63472   6.279   8.123   9.590  1.0376  0.1426  0.3929
  471MOL0     C63473   6.352   8.244   9.654 -0.0827  0.9104  0.2073
  471MOL0     O63474   6.479   8.184   9.694  0.4920 -0.1977 -0.1534
  471MOL0     C63475   6.579   8.274   9.728 -0.7384  0.1850  0.7044
  471MOL0     C63476   6.699   8.217   9.779  0.6832 -0.2932 -0.1653
  471MOL0     C63477   6.804   8.299   9.827  0.0800  0.4128  0.2702
  471MOL0     C63478   6.795   8.439   9.825 -0.1874  0.3514 -0.4960
  471MOL0     C63479   6.905   8.530   9.874 -1.2483  0.5532 -1.1331
  471MOL0     O63480   7.016   8.474   9.924 -0.1797 -0.1000 -0.1171
  471MOL0     C63481   7.140   8.532   9.934  1.2125  0.5842 -0.8853
  471MOL0     C63482   7.182   8.663   9.889  1.0597 -0.6369 -0.2883
  471MOL0     C63483   7.307   8.710   9.919  0.5790  0.1066  0.4210
  471MOL0     C63484   7.392   8.638  10.000 -0.6190 -0.2934  1.0110
  471MOL0     O63485   7.509   8.707  10.022  0.1954  0.2423 -0.3415
  471MOL0     C63486   7.595   8.647  10.120 -0.5906 -0.2771 -1.0033
  471MOL0     C63487   7.558   8.717  10.262  0.2644 -0.6400  0.1717
  471MOL0     C63488   7.581   8.877  10.256 -0.5836 -0.2849  0.2598
  471MOL0     C63489   7.720   8.907  10.300  0.3139  0.1185 -0.6354
  471MOL0     C63490   7.744   9.056  10.308  0.1178  0.6898 -0.5997
  471MOL0     C63491   7.889   9.088  10.286 -0.0004  0.1196  0.1405
  471MOL0     C63492   7.897   9.237  10.259  0.2118 -0.2158  0.8082
  471MOL0     C63493   8.032   9.284  10.219 -0.2948 -0.5973  0.5978
  471MOL0    Cl63494   8.169   9.193  10.307  0.0761  0.1123 -0.1971
  471MOL0     C63495   7.352   8.512  10.040  0.5684 -0.7360  0.1733
  471MOL0     C63496   7.224   8.458  10.011 -0.1319 -0.1912  0.7346
  471MOL0     O63497   6.896   8.647   9.854  0.6723 -0.3075  0.0782
  471MOL0     C63498   6.673   8.498   9.780 -0.3764 -0.1292 -0.4737
  471MOL0     C63499   6.573   8.413   9.741  0.6765 -0.9716  0.5692
  471MOL0     N63500   5.897   7.969   9.294  0.4978 -0.6001  0.8627
  471MOL0     N63501   5.766   8.002   9.292  0.5097  0.3924  0.3095
  471MOL0     C63502   4.475   8.032   9.220  0.2413 -0.7716 -0.4524
  471MOL0     C63503   4.368   7.954   9.272 -0.4238  0.0255 -0.4149
  471MOL0     C63504   4.061   7.641   9.409 -0.6387  0.6972  0.0104
  471MOL0     C63505   4.113   7.564   9.514  0.4133 -0.4175 -0.3388
  471MOL0     C63506   4.035   7.494   9.604  0.3868  0.4238 -0.3485
  471MOL0     C63507   3.896   7.470   9.578  0.3042 -0.5959 -0.0014
  471MOL0     O63508   3.814   7.391   9.655  0.1117 -0.2434 -0.1575
  471MOL0     C63509   3.848   7.358   9.792  0.0589  0.1872 -0.1861
  471MOL0     C63510   3.724   7.382   9.884 -0.0586 -0.5323  0.4167
  471MOL0     C63511   3.592   7.322   9.838 -0.1437 -0.1390 -0.4431
  471MOL0     C63512   3.601   7.177   9.789 -0.2816  0.4091  1.1419
  471MOL0     C63513   3.658   7.087   9.895  0.5328 -0.3859  0.5382
  471MOL0     C63514   3.714   7.012   9.972 -0.6017  0.2213  0.8322
  471MOL0     C63515   3.842   7.549   9.473  0.3373 -0.3380 -0.1164
  471MOL0     C63516   3.917   7.644   9.396 -0.9197 -0.3914  0.0669
  471MOL0     C63517   3.842   7.725   9.299  0.0100  0.2049  0.2240
  471MOL0     H63518   4.511   7.660   9.322 -1.4930 -0.0237  0.1418
  471MOL0     H63519   4.702   7.779   9.235 -1.3189 -1.5032 -0.0469
  471MOL0     H63520   4.838   7.879   9.139  2.8059 -0.2563 -3.2313
  471MOL0     H63521   4.899   8.026   9.084  1.7306  0.9747  2.4535
  471MOL0     H63522   4.873   7.935   9.368 -0.2130 -0.6159 -1.1671
  471MOL0     H63523   4.881   8.107   9.337  2.1350  2.3637 -1.6899
  471MOL0     H63524   5.086   8.069   9.216 -1.3144  2.0148  1.1500
  471MOL0     H63525   5.087   7.889   9.255 -1.8030 -0.3568  1.7436
  471MOL0     H63526   5.098   8.127   9.451  1.7993  0.6098  2.0186
  471MOL0     H63527   5.121   7.960   9.489 -0.1694  0.6891  1.4783
  471MOL0     H63528   5.336   7.982   9.329 -1.8696  0.2129 -2.8810
  471MOL0     H63529   5.299   8.154   9.333 -0.3424 -0.1547 -0.8479
  471MOL0     H63530   5.354   8.168   9.581  0.4517 -2.1708  3.4209
  471MOL0     H63531   5.314   8.003   9.596  0.5569  1.9236  2.4032
  471MOL0     H63532   5.532   7.936   9.490  0.1537  0.9458 -2.0905
  471MOL0     H63533   5.554   8.077   9.602 -0.9010  0.0622 -0.3607
  471MOL0     H63534   5.542   8.113   9.307  0.6823  1.4060 -1.1409
  471MOL0     H63535   5.578   8.229   9.434  1.8531 -0.7018  0.4667
  471MOL0     H63536   5.847   8.152   9.565  0.4487 -1.5259  0.6970
  471MOL0     H63537   6.076   7.946   9.539  0.4812  0.3728  0.7722
  471MOL0     H63538   6.158   7.991   9.391  0.4539 -2.2861 -0.1327
  471MOL0     H63539   6.151   8.231   9.452  0.4255 -3.3704 -3.4463
  471MOL0     H63540   6.076   8.189   9.618  1.2606  1.9219  0.1554
  471MOL0     H63541   6.343   8.080   9.513  0.4032  0.5930 -0.4004
  471MOL0     H63542   6.271   8.048   9.669 -0.2827 -0.4428 -0.2711
  471MOL0     H63543   6.303   8.285   9.743  0.8908  3.2172 -0.2527
  471MOL0     H63544   6.358   8.330   9.586 -1.9610  0.4182 -0.6578
  471MOL0     H63545   6.695   8.109   9.784  1.4281 -0.4342 -2.0869
  471MOL0     H63546   6.892   8.241   9.852 -0.0880 -0.7892 -1.7536
  471MOL0     H63547   7.119   8.734   9.838 -0.3242  1.6154  4.0581
  471MOL0     H63548   7.342   8.802   9.874 -1.2573 -0.7254 -3.0529
  471MOL0     H63549   7.617   8.540  10.116  1.1500 -0.1793  2.2481
  471MOL0     H63550   7.696   8.685  10.103  0.8595 -2.7524  1.2097
  471MOL0     H63551   7.451   8.708  10.281  0.1401  2.1704  1.2994
  471MOL0     H63552   7.601   8.674  10.352 -4.3148 -2.2556  1.8791
  471MOL0     H63553   7.566   8.920  10.156  1.5516  2.8348  1.1428
  471MOL0     H63554   7.516   8.929  10.328  2.6021  1.2859  2.2221
  471MOL0     H63555   7.783   8.851  10.230  1.7741  1.6398 -0.5985
  471MOL0     H63556   7.745   8.859  10.396 -1.2710 -0.0511 -0.2816
  471MOL0     H63557   7.697   9.091  10.401  1.5118 -1.6009  1.0877
  471MOL0     H63558   7.692   9.100  10.223 -0.6046  0.4245 -0.3036
  471MOL0     H63559   7.954   9.060  10.369 -0.3844  2.1861  1.2108
  471MOL0     H63560   7.924   9.036  10.196 -3.5939 -1.8149 -0.3688
  471MOL0     H63561   7.876   9.291  10.352 -0.8305 -0.7974  0.9274
  471MOL0     H63562   7.823   9.269  10.185 -0.3183  1.7392  2.1147
  471MOL0     H63563   8.054   9.269  10.113 -1.6818 -2.7143  0.5543
  471MOL0     H63564   8.036   9.393  10.227 -3.6581 -0.2187 -1.1520
  471MOL0     H63565   7.424   8.447  10.088  0.5154 -0.0682  1.1940
  471MOL0     H63566   7.211   8.358  10.050  2.3663  0.2037  2.8473
  471MOL0     H63567   6.667   8.606   9.775  0.0468 -0.0772  0.0385
  471MOL0     H63568   6.479   8.461   9.715  0.1875 -0.1687  3.4493
  471MOL0     H63569   4.461   8.133   9.184  0.9968 -0.6909 -0.5244
  471MOL0     H63570   4.270   8.000   9.285  0.0567  0.5022  1.9329
  471MOL0     H63571   4.218   7.567   9.539  0.9471  1.8005 -2.5192
  471MOL0     H63572   4.089   7.450   9.687  1.2240 -1.1444 -1.6668
  471MOL0     H63573   3.931   7.413   9.837  0.1904 -1.0278  1.1398
  471MOL0     H63574   3.872   7.253   9.807 -0.3668 -0.1962 -2.0320
  471MOL0     H63575   3.713   7.490   9.897 -0.0665 -0.5203  0.3049
  471MOL0     H63576   3.747   7.352   9.987 -0.3396  0.7686  0.8850
  471MOL0     H63577   3.547   7.380   9.757 -1.0993 -0.2071  0.0235
  471MOL0     H63578   3.518   7.327   9.919 -0.1095  0.9186 -0.4715
  471MOL0     H63579   3.501   7.136   9.768  1.6490 -2.5257 -4.2787
  471MOL0     H63580   3.656   7.162   9.696 -2.9843  0.2882 -0.5750
  471MOL0     H63581   3.771   6.936  10.022  3.4165  2.8989  0.8004
  471MOL0     H63582   3.737   7.547   9.447  0.1159  2.7367  0.2388
  471MOL0     H63583   3.738   7.735   9.329 -1.4298 -2.7143 -3.1084
  471MOL0     H63584   3.881   7.826   9.281 -0.7220  0.0067 -3.2436
  471MOL0     H63585   3.841   7.669   9.205  0.5518 -1.4344  1.1554
  472MOL0     O63586  10.793   5.742   8.546  0.5707 -0.4414  0.0090
  472MOL0     C63587  10.777   5.624   8.506 -0.7507  0.0390  0.1694
  472MOL0     O63588  10.871   5.546   8.450  0.3623 -0.0080 -0.8241
  472MOL0     C63589  10.991   5.614   8.443 -0.3541 -0.1989 -0.7716
  472MOL0     C63590  11.093   5.589   8.535  0.5775  0.6082 -0.4179
  472MOL0     C63591  11.216   5.645   8.528 -0.0905 -0.5432  0.1102
  472MOL0     C63592  11.256   5.725   8.416 -0.5051 -0.1380  1.0391
  472MOL0     O63593  11.383   5.759   8.409  0.4883  0.0883 -0.7794
  472MOL0     C63594  11.438   5.803   8.288  0.5571 -0.6303  0.5244
  472MOL0     C63595  11.583   5.843   8.314  0.7825 -0.2459 -0.0011
  472MOL0     C63596  11.593   5.984   8.373 -0.0604  1.0711  0.2859
  472MOL0     C63597  11.738   6.004   8.417 -0.0164  0.0339 -0.4229
  472MOL0     C63598  11.755   6.134   8.485  0.3002  0.5232 -0.7356
  472MOL0     C63599  11.722   6.117   8.634 -0.0232 -1.1049 -0.3981
  472MOL0     C63600  11.773   6.234   8.708  0.2548 -0.5499 -0.2747
  472MOL0     C63601  11.732   6.230   8.858 -0.7480  0.0012  0.4276
  472MOL0     N63602  11.790   6.350   8.916 -0.0139  0.8568  0.5172
  472MOL0     C63603  11.712   6.454   8.961  0.0624 -0.3743  0.0450
  472MOL0     C63604  11.797   6.531   9.040  0.1333 -0.1021 -0.2267
  472MOL0     C63605  11.775   6.658   9.124  0.7727  0.7125  0.5068
  472MOL0     C63606  11.801   6.636   9.278 -0.3524 -0.1026  0.7053
  472MOL0     C63607  11.721   6.743   9.352 -0.4317 -0.0903 -0.5418
  472MOL0     C63608  11.724   6.711   9.501  0.4666  0.9177  0.3430
  472MOL0     O63609  11.854   6.709   9.562  1.4974  0.1200  0.5525
  472MOL0     C63610  11.896   6.820   9.629 -0.7451 -0.0620  0.1154
  472MOL0     C63611  11.895   6.946   9.577  0.2335  0.4876 -0.0995
  472MOL0     C63612  11.946   7.055   9.657  0.0831  0.5676 -0.0029
  472MOL0     C63613  11.996   7.036   9.790  0.2338 -0.3611  0.2688
  472MOL0     C63614  12.056   7.143   9.869 -0.2604 -0.1920 -0.4007
  472MOL0     O63615  12.108   7.120   9.983  0.0733 -0.3377 -0.7320
  472MOL0     C63616  12.182   7.195  10.071 -0.6146 -0.0412  0.0739
  472MOL0     C63617  12.236   7.321  10.040 -0.4971  0.4084  0.1313
  472MOL0     C63618  12.320   7.388  10.128 -0.1757  0.0386 -0.8997
  472MOL0     C63619  12.339   7.333  10.260 -0.7822  0.7483  0.3855
  472MOL0     O63620  12.421   7.392  10.346  0.2306  0.3806 -0.5880
  472MOL0     C63621  12.348   7.487  10.434 -1.0228  0.1164  0.4417
  472MOL0     C63622  12.443   7.596  10.486  0.6489  0.3655  0.1543
  472MOL0     C63623  12.523   7.523  10.589 -0.1620 -0.2550  0.4213
  472MOL0     C63624  12.607   7.616  10.677  0.1190  0.7146 -0.0246
  472MOL0     C63625  12.689   7.535  10.778 -0.3615  0.6816  0.8563
  472MOL0     C63626  12.784   7.629  10.850 -0.5993  0.2728 -0.6689
  472MOL0     C63627  12.798   7.571  10.994 -0.0238 -0.1545  1.4760
  472MOL0     C63628  12.928   7.626  11.066  0.1022  0.9612 -0.2866
  472MOL0    Cl63629  12.962   7.543  11.219  0.0687  0.4466 -0.0810
  472MOL0     C63630  12.286   7.209  10.287 -0.5896  0.3148 -0.2099
  472MOL0     C63631  12.217   7.132  10.190  0.8806 -0.0395  0.8360
  472MOL0     O63632  12.029   7.259   9.826  0.0905 -0.1434 -0.2000
  472MOL0     C63633  12.004   6.902   9.829  0.7863 -0.9985 -0.1808
  472MOL0     C63634  11.952   6.797   9.757  0.3592 -0.5656 -0.3482
  472MOL0     N63635  11.923   6.471   9.039  0.2134  0.5738 -0.0894
  472MOL0     N63636  11.921   6.371   8.962 -0.2257 -0.3124 -0.8710
  472MOL0     C63637  11.158   5.743   8.319  0.8472 -0.0742  0.7453
  472MOL0     C63638  11.026   5.692   8.332 -0.4878  1.4481  0.6164
  472MOL0     C63639  10.641   5.574   8.538  0.5329  0.5831 -0.9138
  472MOL0     C63640  10.537   5.624   8.463  0.4361  0.3815 -0.5661
  472MOL0     C63641  10.403   5.579   8.510 -0.4803 -0.0183 -0.4169
  472MOL0     C63642  10.378   5.485   8.615  0.5162 -0.8088 -0.1964
  472MOL0     O63643  10.252   5.447   8.653  0.0802  0.2058  0.3417
  472MOL0     C63644  10.242   5.341   8.750 -0.4272 -0.7754  0.0591
  472MOL0     C63645  10.098   5.304   8.783  0.1968 -0.9881  0.2883
  472MOL0     C63646  10.008   5.427   8.785  0.3335 -0.0019  0.5983
  472MOL0     C63647   9.883   5.406   8.865  0.2130 -0.3824  0.3319
  472MOL0     C63648   9.793   5.518   8.842  0.6812 -0.0839  0.6056
  472MOL0     C63649   9.701   5.594   8.833  0.3312 -0.2909  1.4354
  472MOL0     C63650  10.491   5.448   8.686 -0.6845  0.6518  0.4511
  472MOL0     C63651  10.623   5.481   8.643  1.0065  0.9706 -0.1875
  472MOL0     C63652  10.738   5.412   8.713 -0.6916 -0.6631  0.2436
  472MOL0     H63653  11.066   5.526   8.619 -1.5092  1.9841  0.0100
  472MOL0     H63654  11.295   5.631   8.602  0.4873  0.9686 -0.1920
  472MOL0     H63655  11.429   5.719   8.219  1.5351 -1.6713  1.6127
  472MOL0     H63656  11.393   5.889   8.237  2.3850  2.3087  3.4781
  472MOL0     H63657  11.655   5.834   8.232  2.6472  0.2903  1.5266
  472MOL0     H63658  11.622   5.774   8.389  2.0945  1.3092  0.7775
  472MOL0     H63659  11.523   6.003   8.455 -1.7609 -1.9722 -0.3208
  472MOL0     H63660  11.581   6.061   8.297  0.1968  0.1041 -0.7619
  472MOL0     H63661  11.775   5.920   8.475  1.0626  1.3369  0.8608
  472MOL0     H63662  11.809   5.998   8.334 -0.9336 -4.2017 -1.1295
  472MOL0     H63663  11.858   6.162   8.465  0.6790 -0.8707 -0.8666
  472MOL0     H63664  11.683   6.203   8.440 -3.5242 -3.4438 -1.4610
  472MOL0     H63665  11.615   6.101   8.649  0.4575 -1.9211  3.1982
  472MOL0     H63666  11.769   6.023   8.665  1.2393 -0.4227 -0.1636
  472MOL0     H63667  11.730   6.327   8.671  1.0927 -0.0749 -0.0924
  472MOL0     H63668  11.882   6.244   8.707  0.2500 -0.4940 -0.2448
  472MOL0     H63669  11.623   6.234   8.866 -0.6386 -0.6441  3.1959
  472MOL0     H63670  11.778   6.143   8.905 -0.4587  0.5937  1.2680
  472MOL0     H63671  11.608   6.473   8.937  0.7124 -0.2746 -3.0318
  472MOL0     H63672  11.832   6.742   9.083 -0.2319  0.6332 -1.1426
  472MOL0     H63673  11.672   6.682   9.097  0.7696 -0.4227 -0.5552
  472MOL0     H63674  11.760   6.536   9.295  0.2580 -0.8494 -1.7359
  472MOL0     H63675  11.906   6.630   9.309 -0.2037  0.3333  0.3097
  472MOL0     H63676  11.613   6.742   9.332 -0.5745  0.6085  0.1357
  472MOL0     H63677  11.748   6.848   9.335 -1.0624  0.7362  2.7100
  472MOL0     H63678  11.693   6.607   9.516  3.6564 -0.1041  0.5666
  472MOL0     H63679  11.656   6.777   9.556  2.4073  2.4751  0.9927
  472MOL0     H63680  11.866   6.964   9.474 -1.1080  2.0331  0.4995
  472MOL0     H63681  11.948   7.146   9.597 -3.0387  0.3034 -0.7255
  472MOL0     H63682  12.226   7.360   9.939  0.8354 -0.0774 -0.2186
  472MOL0     H63683  12.380   7.475  10.103 -0.0474  0.6842  1.4103
  472MOL0     H63684  12.272   7.542  10.379 -1.5743  1.3684  2.3259
  472MOL0     H63685  12.298   7.428  10.511  0.0493 -2.8694 -0.9809
  472MOL0     H63686  12.501   7.624  10.396 -0.4406  0.2036 -0.6117
  472MOL0     H63687  12.381   7.681  10.516  1.5362  1.7709 -1.7390
  472MOL0     H63688  12.464   7.471  10.664 -0.2274 -0.9849 -0.1332
  472MOL0     H63689  12.586   7.453  10.534  1.5576  3.2016 -2.4188
  472MOL0     H63690  12.551   7.695  10.726  0.5109  0.5609  0.6883
  472MOL0     H63691  12.685   7.667  10.619  0.7488 -0.4921 -0.2987
  472MOL0     H63692  12.746   7.453  10.732 -3.2044 -0.9445 -0.0309
  472MOL0     H63693  12.623   7.487  10.850 -1.6334  1.6175  0.3643
  472MOL0     H63694  12.880   7.631  10.799  0.8000  0.1735  1.8205
  472MOL0     H63695  12.742   7.730  10.859 -0.5603  0.3237 -1.0707
  472MOL0     H63696  12.817   7.463  11.000  2.2920 -0.0539 -1.6177
  472MOL0     H63697  12.710   7.587  11.056 -1.0033 -2.2961  0.7446
  472MOL0     H63698  13.012   7.608  10.998  0.1991 -2.3790  0.5463
  472MOL0     H63699  12.927   7.733  11.091 -1.4320  0.8688  0.1335
  472MOL0     H63700  12.304   7.166  10.384 -1.4914  0.1950 -0.0890
  472MOL0     H63701  12.185   7.034  10.223 -2.4954 -0.5012 -3.0797
  472MOL0     H63702  12.043   6.886   9.929 -0.0574  0.1113  0.3428
  472MOL0     H63703  11.961   6.694   9.790 -0.0282 -0.8043 -0.9738
  472MOL0     H63704  11.174   5.790   8.222  3.2646  0.1016  1.1671
  472MOL0     H63705  10.952   5.717   8.256 -0.4020  3.1805  1.0786
  472MOL0     H63706  10.542   5.682   8.371  0.6023 -0.3086 -0.9950
  472MOL0     H63707  10.321   5.620   8.452  0.1909  2.7644  0.4378
  472MOL0     H63708  10.285   5.373   8.845  0.0519 -1.9199  0.2393
  472MOL0     H63709  10.288   5.246   8.721  0.8238  0.1786 -1.2263
  472MOL0     H63710  10.087   5.238   8.869 -1.4104 -0.5855  0.4299
  472MOL0     H63711  10.055   5.242   8.703 -2.2143 -1.1985  1.6708
  472MOL0     H63712   9.984   5.440   8.679  0.6327 -1.5595  0.3150
  472MOL0     H63713  10.070   5.511   8.818  0.2449  2.1087 -3.9049
  472MOL0     H63714   9.840   5.306   8.860 -0.3985 -0.1347  0.5665
  472MOL0     H63715   9.894   5.419   8.973 -0.2188 -1.8142  0.5654
  472MOL0     H63716   9.624   5.668   8.822  1.1002  0.5284  1.5005
  472MOL0     H63717  10.476   5.397   8.780  0.7056  0.1342  0.4228
  472MOL0     H63718  10.698   5.351   8.795 -0.2649 -0.6119  0.4904
  472MOL0     H63719  10.793   5.351   8.641 -1.5361 -0.0378 -0.9748
  472MOL0     H63720  10.804   5.488   8.757 -0.9755 -0.0542 -0.3541
  473MOL0     O63721   9.973   4.287   7.001  0.3075  0.0883  0.3689
  473MOL0     C63722   9.996   4.175   7.033  0.0507 -0.7283  0.3029
  473MOL0     O63723  10.101   4.103   6.988 -0.4634 -0.4888 -0.0024
  473MOL0     C63724  10.210   4.164   6.929  0.3599 -0.1085 -0.7655
  473MOL0     C63725  10.256   4.286   6.969 -0.8640 -0.3782 -0.6002
  473MOL0     C63726  10.361   4.351   6.894  0.6757  0.5820  0.0166
  473MOL0     C63727  10.422   4.281   6.782 -0.5396 -0.0172 -0.1258
  473MOL0     O63728  10.529   4.333   6.713 -0.0057 -0.1843 -0.6551
  473MOL0     C63729  10.585   4.260   6.602  0.2707  0.3385  0.2889
  473MOL0     C63730  10.686   4.349   6.513 -0.0707 -0.2108  0.5534
  473MOL0     C63731  10.808   4.414   6.588 -0.7179  1.1092  0.6909
  473MOL0     C63732  10.897   4.508   6.509  0.1285  0.0967  0.2693
  473MOL0     C63733  11.012   4.534   6.600  0.5244  0.2999  0.2973
  473MOL0     C63734  11.131   4.613   6.531  0.5319 -0.5799  0.3229
  473MOL0     C63735  11.113   4.762   6.489 -0.0717 -0.4799  0.6069
  473MOL0     C63736  11.248   4.817   6.438 -0.6047  0.1782 -0.1201
  473MOL0     N63737  11.237   4.956   6.383  0.2316  0.4421 -0.1917
  473MOL0     C63738  11.130   5.003   6.305  0.4532 -0.5227 -0.5582
  473MOL0     C63739  11.162   5.127   6.290  0.3009  0.2821 -0.7649
  473MOL0     C63740  11.079   5.231   6.210  0.1785 -0.1879 -0.3783
  473MOL0     C63741  11.014   5.331   6.308  0.4615  0.0959  0.5239
  473MOL0     C63742  10.888   5.387   6.239 -0.3484 -0.0137 -0.4220
  473MOL0     C63743  10.822   5.496   6.316 -0.0549  0.2886 -0.4817
  473MOL0     O63744  10.694   5.536   6.261  0.3471  0.1725  0.0769
  473MOL0     C63745  10.573   5.516   6.320  0.1313  0.4360  0.4795
  473MOL0     C63746  10.464   5.578   6.260  0.3841  1.0950 -0.7207
  473MOL0     C63747  10.337   5.559   6.317 -0.4306  0.0819  0.6485
  473MOL0     C63748  10.314   5.463   6.415  1.1527  0.3682 -0.2483
  473MOL0     C63749  10.175   5.452   6.456 -0.4736  0.0062  0.1421
  473MOL0     O63750  10.082   5.536   6.403  0.0884 -0.3522 -0.7707
  473MOL0     C63751   9.958   5.544   6.458  0.3989  0.4373 -0.6892
  473MOL0     C63752   9.928   5.657   6.535  1.2010  0.3380  0.3541
  473MOL0     C63753   9.807   5.660   6.602  0.1691  0.2773 -0.4321
  473MOL0     C63754   9.717   5.549   6.601  0.6548 -0.5576 -0.4143
  473MOL0     O63755   9.596   5.559   6.661  0.1539 -0.1250 -0.5688
  473MOL0     C63756   9.556   5.675   6.737  0.1901 -0.3964  0.1201
  473MOL0     C63757   9.401   5.687   6.746 -0.4965  0.1214  0.0345
  473MOL0     C63758   9.347   5.612   6.876  0.9400  0.8198 -0.5042
  473MOL0     C63759   9.200   5.654   6.900  1.3490  0.3329 -0.3805
  473MOL0     C63760   9.114   5.621   6.774  0.7019  0.1441 -0.2305
  473MOL0     C63761   8.961   5.614   6.814 -0.0639 -0.0116 -0.0562
  473MOL0     C63762   8.876   5.651   6.686 -0.7154  0.3740  0.1267
  473MOL0     C63763   8.732   5.625   6.711 -0.3162 -0.0624  0.0909
  473MOL0    Cl63764   8.677   5.740   6.844 -0.0713 -0.0345 -0.3882
  473MOL0     C63765   9.746   5.441   6.513 -0.0907  0.6353  0.3407
  473MOL0     C63766   9.874   5.436   6.456 -0.1849 -0.5978  0.0740
  473MOL0     O63767  10.160   5.381   6.556 -0.1330 -0.1046 -0.0082
  473MOL0     C63768  10.422   5.398   6.465  0.3640 -0.2774 -0.2793
  473MOL0     C63769  10.547   5.423   6.422  0.1605 -0.0399 -0.0500
  473MOL0     N63770  11.286   5.154   6.338  0.2013  0.2925 -0.0245
  473MOL0     N63771  11.329   5.052   6.404  0.4302  0.5989 -0.8834
  473MOL0     C63772  10.369   4.154   6.747 -0.1935  0.0173 -0.3960
  473MOL0     C63773  10.259   4.104   6.811  0.2251  0.4242 -0.4169
  473MOL0     C63774   9.905   4.127   7.136 -0.0808  0.0402 -0.8968
  473MOL0     C63775   9.822   4.210   7.211  0.4239 -0.2460  0.4307
  473MOL0     C63776   9.747   4.161   7.313  0.1908 -0.4660  0.7613
  473MOL0     C63777   9.736   4.026   7.350 -0.1780 -0.7210  1.0961
  473MOL0     O63778   9.672   3.965   7.458 -0.1951 -0.3763  0.0809
  473MOL0     C63779   9.589   4.050   7.530  0.4622 -1.0730  0.6391
  473MOL0     C63780   9.515   3.970   7.637  0.2346 -0.3151 -0.4366
  473MOL0     C63781   9.396   3.894   7.590  0.7957  0.1354 -0.0417
  473MOL0     C63782   9.279   3.978   7.564 -0.6639 -0.6681 -0.1441
  473MOL0     C63783   9.155   3.911   7.542  0.1094  0.3595  0.5123
  473MOL0     C63784   9.064   3.847   7.498  0.1201  0.0700 -0.1749
  473MOL0     C63785   9.804   3.943   7.269  0.4022  0.2129 -0.8067
  473MOL0     C63786   9.887   3.987   7.162 -0.3682 -0.5055  0.0488
  473MOL0     C63787   9.975   3.880   7.095  0.3635 -0.2316 -0.2294
  473MOL0     H63788  10.233   4.329   7.065  0.5547 -2.2497  0.6654
  473MOL0     H63789  10.396   4.444   6.938  1.4603  0.3461 -0.1005
  473MOL0     H63790  10.638   4.172   6.638 -0.2775 -1.2060 -2.4250
  473MOL0     H63791  10.501   4.225   6.542 -1.5967 -0.5454  3.2635
  473MOL0     H63792  10.617   4.421   6.468 -1.2916 -1.6323  0.0649
  473MOL0     H63793  10.740   4.292   6.438 -0.8259  1.9620 -1.7584
  473MOL0     H63794  10.876   4.341   6.634  0.6255  2.6089  1.1896
  473MOL0     H63795  10.764   4.470   6.672 -2.7132  0.6795 -0.0244
  473MOL0     H63796  10.922   4.465   6.412  1.6938  0.0002  0.6979
  473MOL0     H63797  10.851   4.602   6.477  2.3847  0.9665 -0.6108
  473MOL0     H63798  10.978   4.581   6.693  2.6097 -1.2347  1.9432
  473MOL0     H63799  11.055   4.437   6.627  0.0091  0.4758  1.8681
  473MOL0     H63800  11.214   4.617   6.601  0.6554  1.6932  0.1225
  473MOL0     H63801  11.164   4.552   6.447  0.4263 -0.9354  0.5397
  473MOL0     H63802  11.084   4.818   6.578  1.1385 -2.7725  2.5502
  473MOL0     H63803  11.037   4.772   6.410  0.4167 -0.2123  0.1653
  473MOL0     H63804  11.326   4.807   6.514 -2.6175  0.5210  2.1233
  473MOL0     H63805  11.288   4.752   6.360  1.6900  0.6759  0.5596
  473MOL0     H63806  11.046   4.952   6.257 -1.0566  0.5284  0.8375
  473MOL0     H63807  11.140   5.283   6.136 -0.9205  1.6180 -0.0757
  473MOL0     H63808  11.007   5.172   6.154  0.7039 -1.7510  0.5176
  473MOL0     H63809  10.988   5.270   6.395 -0.1136 -0.8218 -0.2711
  473MOL0     H63810  11.076   5.415   6.339 -2.4559  2.2979  0.7502
  473MOL0     H63811  10.811   5.310   6.246 -0.5015  0.2272  0.6589
  473MOL0     H63812  10.910   5.427   6.139  1.5590  2.3157  0.8228
  473MOL0     H63813  10.895   5.577   6.320  1.0093 -0.5255 -2.2423
  473MOL0     H63814  10.815   5.463   6.420 -0.6532  1.5894 -0.0864
  473MOL0     H63815  10.457   5.644   6.173 -2.0019  2.6824  0.5569
  473MOL0     H63816  10.258   5.615   6.268 -1.3557 -1.1313  0.7267
  473MOL0     H63817   9.996   5.742   6.528  0.3973  0.8728 -2.7725
  473MOL0     H63818   9.778   5.759   6.637  2.2637  1.6094 -2.1934
  473MOL0     H63819   9.599   5.662   6.837 -2.0490 -1.4970  1.0083
  473MOL0     H63820   9.590   5.761   6.679  4.2350 -2.1554 -0.4378
  473MOL0     H63821   9.372   5.793   6.750  2.3339  0.9598  1.1273
  473MOL0     H63822   9.367   5.640   6.653  2.1664 -2.1099  0.0790
  473MOL0     H63823   9.360   5.505   6.861  0.1422  0.6663 -0.1709
  473MOL0     H63824   9.402   5.639   6.967  1.2800 -1.0579 -0.1143
  473MOL0     H63825   9.199   5.762   6.917  0.7189  0.0975  1.2483
  473MOL0     H63826   9.166   5.606   6.993  1.1530  2.1398  0.5279
  473MOL0     H63827   9.134   5.523   6.729 -3.1265 -0.8157 -0.1707
  473MOL0     H63828   9.126   5.707   6.708  1.3053  2.2154  2.4192
  473MOL0     H63829   8.936   5.514   6.850  0.1202 -0.0114  0.0760
  473MOL0     H63830   8.950   5.687   6.895 -1.5255 -1.7945  1.4268
  473MOL0     H63831   8.918   5.620   6.590  2.8652  1.4507  1.1914
  473MOL0     H63832   8.880   5.758   6.663  1.0683  0.0762 -1.1658
  473MOL0     H63833   8.665   5.658   6.630  0.4685 -0.9984 -0.9564
  473MOL0     H63834   8.730   5.518   6.732 -0.2227  0.5974  4.1996
  473MOL0     H63835   9.691   5.353   6.480 -0.1204  0.3167  1.2243
  473MOL0     H63836   9.889   5.354   6.386  1.7229 -1.1638  1.0616
  473MOL0     H63837  10.408   5.313   6.530 -1.4395 -0.6830 -1.1229
  473MOL0     H63838  10.634   5.376   6.467 -1.2974 -2.7437  0.1696
  473MOL0     H63839  10.401   4.092   6.663 -1.8938 -1.4416 -0.0388
  473MOL0     H63840  10.213   4.015   6.769  1.4289 -0.3441 -0.1756
  473MOL0     H63841   9.818   4.315   7.184  2.0081 -0.3560 -0.3965
  473MOL0     H63842   9.708   4.242   7.374  3.6189  2.2714 -0.3620
  473MOL0     H63843   9.525   4.107   7.462  0.7950 -1.0349  0.3591
  473MOL0     H63844   9.663   4.122   7.568  1.7385 -2.2316  0.4194
  473MOL0     H63845   9.472   4.042   7.707  0.5806  1.3691 -1.8878
  473MOL0     H63846   9.584   3.902   7.688  0.5765  0.6339  0.3994
  473MOL0     H63847   9.368   3.822   7.668 -0.0160  1.1354  0.6217
  473MOL0     H63848   9.425   3.842   7.499  2.1980  0.6160  0.1148
  473MOL0     H63849   9.267   4.036   7.655  1.5323 -2.7350  1.5969
  473MOL0     H63850   9.298   4.044   7.479  1.0001 -1.1695 -0.1873
  473MOL0     H63851   8.993   3.774   7.465  0.9133 -0.1670 -1.3996
  473MOL0     H63852   9.812   3.836   7.288 -0.6620  0.1206 -0.7951
  473MOL0     H63853  10.083   3.894   7.110  0.2150 -0.2753  1.0379
  473MOL0     H63854   9.958   3.786   7.148 -0.2742 -0.3024 -0.5558
  473MOL0     H63855   9.945   3.877   6.990 -1.5583  0.5841  0.2596
  474MOL0     O63856   8.664   9.875   0.866 -0.2302  0.3137  0.1734
  474MOL0     C63857   8.648   9.992   0.833 -0.0368 -0.2581 -0.3789
  474MOL0     O63858   8.742  10.077   0.783 -0.4844 -0.0708  0.1068
  474MOL0     C63859   8.864  10.017   0.748  0.1690 -0.2858  0.3960
  474MOL0     C63860   8.883   9.973   0.615 -0.0837  0.2155  0.4553
  474MOL0     C63861   9.015   9.942   0.571  1.0515 -0.2765  0.5933
  474MOL0     C63862   9.126   9.970   0.649 -1.0269  0.3777  1.2526
  474MOL0     O63863   9.259   9.939   0.604  0.1149 -0.2604  0.2393
  474MOL0     C63864   9.294   9.952   0.463  0.3882 -0.3007  0.4349
  474MOL0     C63865   9.435   9.932   0.451 -0.7539 -1.1298 -0.2573
  474MOL0     C63866   9.516  10.063   0.472  0.6684 -0.3601  0.6910
  474MOL0     C63867   9.648  10.023   0.528  0.7854  0.3119  0.8323
  474MOL0     C63868   9.749  10.133   0.530  0.7029 -0.8098  0.1990
  474MOL0     C63869   9.797  10.182   0.390  0.3479 -0.2065  0.5688
  474MOL0     C63870   9.886  10.309   0.390  1.1001  0.1035  0.1532
  474MOL0     C63871   9.966  10.310   0.266 -0.4815 -0.8565  0.1595
  474MOL0     N63872  10.056  10.426   0.267 -0.1903 -0.6899  0.2225
  474MOL0     C63873  10.017  10.560   0.247 -0.2958  0.5744 -0.9498
  474MOL0     C63874  10.117  10.639   0.287  1.3583 -0.0441  0.3514
  474MOL0     C63875  10.118  10.785   0.298 -0.3782 -0.0910 -0.5720
  474MOL0     C63876  10.057  10.861   0.162 -0.3050 -0.9745  0.3409
  474MOL0     C63877  10.146  10.846   0.038 -0.4042 -0.0188  0.0896
  474MOL0     C63878  10.263  10.946   0.035 -0.0837  0.0384 -0.4985
  474MOL0     O63879  10.309  10.933  -0.102  0.9104 -0.1981 -0.5444
  474MOL0     C63880  10.426  10.995  -0.127 -0.1989  0.0501  0.4879
  474MOL0     C63881  10.518  11.055  -0.042 -0.0247 -0.1410  0.0029
  474MOL0     C63882  10.636  11.111  -0.093 -0.0338 -0.4149 -0.0129
  474MOL0     C63883  10.662  11.117  -0.234  0.0439  0.2622 -0.0703
  474MOL0     C63884  10.784  11.190  -0.294  0.8524 -0.1958  0.1631
  474MOL0     O63885  10.858  11.268  -0.214 -0.0592 -0.1857 -0.0465
  474MOL0     C63886  10.940  11.364  -0.277 -0.2405 -0.5140 -0.4206
  474MOL0     C63887  10.891  11.456  -0.356  0.6449  0.0921  0.4662
  474MOL0     C63888  10.976  11.546  -0.426 -0.1198  0.0532 -0.3549
  474MOL0     C63889  11.114  11.547  -0.402 -0.2924 -0.5988  0.6910
  474MOL0     O63890  11.182  11.645  -0.463 -0.3438 -1.6168 -0.0691
  474MOL0     C63891  11.319  11.656  -0.433  0.5929 -0.0683 -0.1607
  474MOL0     C63892  11.399  11.769  -0.509 -0.2562  0.4988 -0.9010
  474MOL0     C63893  11.553  11.743  -0.530 -0.3690 -0.6490 -0.1384
  474MOL0     C63894  11.602  11.855  -0.622 -0.4977 -0.1568  0.2856
  474MOL0     C63895  11.746  11.834  -0.654  0.1496  0.1276 -0.0463
  474MOL0     C63896  11.823  11.963  -0.689 -0.1977 -0.3144  0.0055
  474MOL0     C63897  11.961  11.926  -0.735  0.1223  0.6308  0.5153
  474MOL0     C63898  12.061  12.039  -0.723 -0.2458 -0.1583 -0.4543
  474MOL0    Cl63899  12.222  12.028  -0.797 -0.0537  0.2547  0.0655
  474MOL0     C63900  11.170  11.463  -0.308  0.3085 -0.2817 -0.1141
  474MOL0     C63901  11.080  11.378  -0.245  0.3989 -0.0416  0.1438
  474MOL0     O63902  10.805  11.166  -0.413  0.6232 -0.2956 -1.0354
  474MOL0     C63903  10.569  11.054  -0.323 -1.1379  0.2747 -0.9221
  474MOL0     C63904  10.461  10.989  -0.268  0.3156  0.0719 -0.4966
  474MOL0     N63905  10.208  10.561   0.344  0.2703 -0.1706 -0.2015
  474MOL0     N63906  10.183  10.430   0.319  0.1754  1.0724  0.2563
  474MOL0     C63907   9.109  10.013   0.776  0.3511  0.0388 -0.2239
  474MOL0     C63908   8.979  10.039   0.819  0.8271  0.8749  0.4569
  474MOL0     C63909   8.526  10.056   0.870  0.3619  0.3822  1.1354
  474MOL0     C63910   8.530  10.196   0.896 -0.2363  0.3652 -0.3948
  474MOL0     C63911   8.419  10.263   0.938  0.1315  0.0211  0.8420
  474MOL0     C63912   8.296  10.190   0.957 -0.7844  0.8733 -0.3700
  474MOL0     O63913   8.193  10.266   1.000 -0.0610 -0.1815  1.4107
  474MOL0     C63914   8.090  10.198   1.068  0.0178 -0.8716 -1.3065
  474MOL0     C63915   7.971  10.170   0.975 -0.5214  0.1541  0.6649
  474MOL0     C63916   7.836  10.149   1.045 -0.4353  0.3581 -0.2433
  474MOL0     C63917   7.809  10.014   1.094 -0.0068  0.0560 -0.9245
  474MOL0     C63918   7.827  10.004   1.240  0.4816 -0.0827  0.1162
  474MOL0     C63919   7.838   9.998   1.365 -0.3366 -0.3890 -0.1685
  474MOL0     C63920   8.291  10.051   0.932 -0.4354 -0.3492 -0.5448
  474MOL0     C63921   8.406   9.983   0.886 -0.0541 -0.2367 -0.1667
  474MOL0     C63922   8.390   9.841   0.847  0.3978  0.3731  0.0964
  474MOL0     H63923   8.791   9.972   0.558 -0.1753 -2.2391  0.5732
  474MOL0     H63924   9.033   9.900   0.473  2.0383 -0.2604  0.7546
  474MOL0     H63925   9.242   9.877   0.403 -1.4269  2.1853 -1.3241
  474MOL0     H63926   9.259  10.049   0.427 -2.7902 -1.1538  0.8807
  474MOL0     H63927   9.453   9.900   0.348  0.4457 -3.2044  0.5432
  474MOL0     H63928   9.472   9.857   0.521  2.8449  1.4332  0.9104
  474MOL0     H63929   9.469  10.138   0.535  0.8590 -0.3699  0.8459
  474MOL0     H63930   9.533  10.106   0.373 -2.4145 -0.6159 -0.0610
  474MOL0     H63931   9.618  10.006   0.632  1.4459 -1.9566  0.7005
  474MOL0     H63932   9.671   9.923   0.491 -0.9275  0.9218 -2.1767
  474MOL0     H63933   9.713  10.222   0.582  2.2783  1.6768 -2.6155
  474MOL0     H63934   9.836  10.102   0.589  0.9414 -0.0965  0.2350
  474MOL0     H63935   9.867  10.108   0.352  1.1331  0.9066 -0.2142
  474MOL0     H63936   9.717  10.204   0.318  1.5443  0.1204 -0.6910
  474MOL0     H63937   9.950  10.324   0.477  2.3635 -1.4081 -0.4608
  474MOL0     H63938   9.819  10.395   0.379 -2.0592 -2.1651  0.3765
  474MOL0     H63939  10.035  10.226   0.256  0.3657  0.1000 -3.2093
  474MOL0     H63940   9.901  10.314   0.178  1.6475 -0.8943 -1.4995
  474MOL0     H63941   9.931  10.608   0.200  0.1217  1.7201 -0.5911
  474MOL0     H63942  10.070  10.820   0.390 -2.0139  1.3462 -1.8914
  474MOL0     H63943  10.219  10.825   0.311 -0.1700 -1.2463  2.0917
  474MOL0     H63944   9.965  10.810   0.133 -0.8137 -0.4856  1.0508
  474MOL0     H63945  10.024  10.960   0.195  0.5866 -0.8920  1.0421
  474MOL0     H63946  10.084  10.876  -0.047  1.1622  0.3581 -0.9817
  474MOL0     H63947  10.189  10.747   0.023  0.5037  0.5136 -1.0455
  474MOL0     H63948  10.338  10.922   0.111 -2.7927 -1.9435  1.8077
  474MOL0     H63949  10.231  11.048   0.055 -0.5490 -0.5751  2.3624
  474MOL0     H63950  10.498  11.064   0.065 -0.5019  0.0871 -0.1023
  474MOL0     H63951  10.698  11.161  -0.019 -2.8999 -2.5301  4.2595
  474MOL0     H63952  10.791  11.445  -0.397  1.2745 -0.2326 -1.0298
  474MOL0     H63953  10.939  11.619  -0.497 -1.6834 -0.7282 -0.3981
  474MOL0     H63954  11.331  11.665  -0.324  0.8998 -0.9414 -0.1145
  474MOL0     H63955  11.362  11.565  -0.475  0.2108  0.4707 -1.7999
  474MOL0     H63956  11.352  11.784  -0.607 -1.7790 -0.6561 -0.3901
  474MOL0     H63957  11.382  11.862  -0.454  1.7039  2.4667 -3.3928
  474MOL0     H63958  11.620  11.745  -0.443  2.6768  0.8588 -2.3596
  474MOL0     H63959  11.567  11.653  -0.590  0.4557 -2.6815  2.8494
  474MOL0     H63960  11.594  11.950  -0.568  0.1444  0.8573 -1.3405
  474MOL0     H63961  11.534  11.858  -0.708 -0.5043  1.4929  0.3142
  474MOL0     H63962  11.755  11.760  -0.734 -0.1490  1.8319 -1.7301
  474MOL0     H63963  11.791  11.793  -0.563 -1.3377  2.9052  2.0959
  474MOL0     H63964  11.775  12.014  -0.774  1.1076  0.0584 -0.5293
  474MOL0     H63965  11.835  12.024  -0.600  0.3054 -0.0757 -0.2246
  474MOL0     H63966  11.970  11.896  -0.840  1.6481 -0.2609  0.8759
  474MOL0     H63967  12.004  11.840  -0.682  2.5241  1.8600  0.7325
  474MOL0     H63968  12.014  12.128  -0.765  0.0039 -0.4814 -1.4348
  474MOL0     H63969  12.081  12.041  -0.615 -1.1979 -1.2849 -0.2386
  474MOL0     H63970  11.276  11.452  -0.290 -0.0506 -1.5082  1.4808
  474MOL0     H63971  11.116  11.310  -0.168 -1.9345 -1.0271  0.4415
  474MOL0     H63972  10.588  11.061  -0.430  0.6337  0.6329 -0.6133
  474MOL0     H63973  10.390  10.928  -0.323 -0.9606 -0.6479  1.8545
  474MOL0     H63974   9.190  10.022   0.847 -0.9573 -3.9340  2.0512
  474MOL0     H63975   8.979  10.075   0.921 -0.4893  1.7486  0.1702
  474MOL0     H63976   8.617  10.258   0.882  0.9505 -0.5082  2.3793
  474MOL0     H63977   8.419  10.371   0.946  0.0321  0.3213 -1.9735
  474MOL0     H63978   8.061  10.264   1.150 -1.9900 -2.1028 -0.9638
  474MOL0     H63979   8.112  10.105   1.121  2.8831  1.5123  2.0868
  474MOL0     H63980   7.989  10.082   0.914 -2.8875 -2.5921  3.5996
  474MOL0     H63981   7.972  10.260   0.913  0.7705  0.6600  1.3783
  474MOL0     H63982   7.760  10.166   0.968 -1.8016  1.8986  1.3620
  474MOL0     H63983   7.813  10.228   1.117 -2.5271 -1.1925  0.8677
  474MOL0     H63984   7.702  10.002   1.073 -0.5134  0.2009  1.3060
  474MOL0     H63985   7.867   9.937   1.043  2.3243  1.2829 -0.2744
  474MOL0     H63986   7.841   9.986   1.471  0.9581 -0.2104 -0.1777
  474MOL0     H63987   8.204   9.989   0.955 -2.5281  2.4274 -0.4071
  474MOL0     H63988   8.286   9.821   0.819  0.3869 -0.0890  0.4519
  474MOL0     H63989   8.441   9.824   0.752 -1.2161  1.3081 -0.9836
  474MOL0     H63990   8.414   9.766   0.923  1.0076  0.6829  0.2137
  475MOL0     O63991   5.825   0.706   5.186  0.5164 -0.8312 -0.0405
  475MOL0     C63992   5.807   0.730   5.070  0.2961  0.2122  0.3446
  475MOL0     O63993   5.906   0.778   4.987  0.5127 -0.0474  0.1817
  475MOL0     C63994   6.034   0.775   5.030 -0.1240 -0.4617  0.1768
  475MOL0     C63995   6.109   0.889   5.017 -0.0237 -0.1810  0.3398
  475MOL0     C63996   6.242   0.894   5.070  0.1712 -0.0383 -0.0387
  475MOL0     C63997   6.308   0.781   5.120  0.3701 -0.4637  0.8004
  475MOL0     O63998   6.441   0.772   5.160 -0.9214 -0.4236 -0.5262
  475MOL0     C63999   6.509   0.897   5.185  0.3927 -0.0458 -0.2665
  475MOL0     C64000   6.658   0.882   5.218 -0.4570 -0.5901 -0.0112
  475MOL0     C64001   6.712   1.025   5.256  0.2682 -0.2405 -1.1747
  475MOL0     C64002   6.863   1.040   5.217  0.3408  0.3782  0.1677
  475MOL0     C64003   6.951   0.948   5.305  0.6949 -0.3909 -0.3478
  475MOL0     C64004   7.098   0.961   5.266  0.6913 -0.3023 -0.6382
  475MOL0     C64005   7.157   1.099   5.295 -0.8981 -0.7799  0.3898
  475MOL0     C64006   7.309   1.100   5.267 -0.1762  0.1611  0.0763
  475MOL0     N64007   7.391   1.002   5.340  0.0860 -0.3990  0.7969
  475MOL0     C64008   7.462   0.895   5.285  0.6147 -0.7283  0.8608
  475MOL0     C64009   7.528   0.842   5.381 -0.6431  0.3307 -0.5301
  475MOL0     C64010   7.617   0.721   5.388 -0.7536 -0.4223 -0.2552
  475MOL0     C64011   7.776   0.745   5.397  0.4261  0.4229  0.1740
  475MOL0     C64012   7.834   0.610   5.429  0.0461  0.0631 -0.5603
  475MOL0     C64013   7.990   0.619   5.401 -0.2994  0.2622 -0.1183
  475MOL0     O64014   8.032   0.623   5.261 -0.5076 -0.9058 -0.2832
  475MOL0     C64015   8.163   0.658   5.251 -0.0964  0.2285  0.0297
  475MOL0     C64016   8.201   0.791   5.243 -0.1951 -0.0860 -0.0280
  475MOL0     C64017   8.334   0.821   5.233  0.3396 -0.4885 -0.0252
  475MOL0     C64018   8.441   0.725   5.227 -0.2210  0.3522  0.2606
  475MOL0     C64019   8.581   0.761   5.191 -0.0019 -0.0426  0.4672
  475MOL0     O64020   8.681   0.671   5.203  0.5194  0.3248  0.5007
  475MOL0     C64021   8.809   0.694   5.166 -0.1899  0.7983 -0.8417
  475MOL0     C64022   8.876   0.815   5.162  0.2222 -0.0728  1.0544
  475MOL0     C64023   9.016   0.822   5.125  0.5526  0.3176 -0.5615
  475MOL0     C64024   9.089   0.694   5.105  1.2255  0.1573  1.2225
  475MOL0     O64025   9.223   0.681   5.068 -0.1330  0.1924 -0.2072
  475MOL0     C64026   9.309   0.791   5.109  0.9547  0.9429 -0.5787
  475MOL0     C64027   9.448   0.748   5.101  0.6875  0.3441 -0.0837
  475MOL0     C64028   9.473   0.608   5.147  0.3514 -0.9207 -0.9892
  475MOL0     C64029   9.624   0.581   5.147 -0.6131 -0.1847 -0.2626
  475MOL0     C64030   9.665   0.443   5.207 -0.0070  0.0423 -0.1305
  475MOL0     C64031   9.814   0.414   5.165 -0.3294 -0.9149 -0.8809
  475MOL0     C64032   9.868   0.282   5.223  0.8428 -0.7077 -0.1156
  475MOL0     C64033  10.009   0.244   5.167  0.0008  0.4129 -0.0927
  475MOL0    Cl64034  10.037   0.261   4.989 -0.2844  0.5929  0.1882
  475MOL0     C64035   9.017   0.574   5.116  1.0767 -0.6318  0.4664
  475MOL0     C64036   8.885   0.570   5.150  0.4464 -0.0983 -0.3617
  475MOL0     O64037   8.600   0.882   5.172  0.3112  0.1657  0.4839
  475MOL0     C64038   8.396   0.591   5.244 -0.4887  0.2250  0.8321
  475MOL0     C64039   8.260   0.562   5.262  0.2913  0.1539  0.6184
  475MOL0     N64040   7.489   0.909   5.495  0.4957 -1.0376 -0.5867
  475MOL0     N64041   7.409   1.011   5.472  0.3489  0.3945  0.3529
  475MOL0     C64042   6.236   0.662   5.131  0.6097 -0.5376  0.2919
  475MOL0     C64043   6.099   0.659   5.084  0.8613 -0.2435  0.5243
  475MOL0     C64044   5.657   0.737   5.031  0.0882 -0.6393  0.0550
  475MOL0     C64045   5.565   0.646   5.086 -0.1330 -0.3369 -0.2304
  475MOL0     C64046   5.433   0.639   5.037 -0.6776 -0.3925  0.0898
  475MOL0     C64047   5.390   0.729   4.933 -0.3295  1.1454  0.0653
  475MOL0     O64048   5.267   0.741   4.870  0.1436  0.7938 -0.0394
  475MOL0     C64049   5.158   0.670   4.919  0.8365  0.0997 -0.1557
  475MOL0     C64050   5.108   0.732   5.044 -0.0727 -0.7603 -0.6543
  475MOL0     C64051   5.085   0.882   5.030  0.1146 -0.2580  0.2635
  475MOL0     C64052   4.969   0.924   4.941  0.8807 -0.3798  0.0690
  475MOL0     C64053   4.975   1.066   4.883  0.0572 -0.1583  0.0473
  475MOL0     C64054   4.963   1.188   4.874  0.2727 -0.1474  0.1067
  475MOL0     C64055   5.486   0.819   4.896 -0.1112 -0.8252  0.1357
  475MOL0     C64056   5.618   0.832   4.932 -0.7096  0.1661 -0.4641
  475MOL0     C64057   5.710   0.937   4.862  0.8218  0.6375 -0.2762
  475MOL0     H64058   6.061   0.977   4.975 -0.1017 -1.6255 -2.9167
  475MOL0     H64059   6.284   0.994   5.062 -0.9020  0.4196 -0.1566
  475MOL0     H64060   6.503   0.963   5.098 -1.8873  1.4913  0.9654
  475MOL0     H64061   6.453   0.959   5.256 -0.4282 -0.0612 -0.8962
  475MOL0     H64062   6.709   0.821   5.143 -0.0259  0.0490 -0.2421
  475MOL0     H64063   6.658   0.819   5.308  0.6392  0.5132  0.8012
  475MOL0     H64064   6.700   1.043   5.363  2.8548 -1.3028 -0.6184
  475MOL0     H64065   6.652   1.103   5.208 -1.2803 -0.4398  0.3635
  475MOL0     H64066   6.878   1.001   5.117  2.6664  3.4962 -0.8559
  475MOL0     H64067   6.898   1.144   5.219  1.3176  0.0903 -1.0336
  475MOL0     H64068   6.932   0.976   5.410  0.6639 -0.4549 -0.3360
  475MOL0     H64069   6.935   0.840   5.301  3.8229 -1.0813  1.8766
  475MOL0     H64070   7.155   0.894   5.331  4.6398  2.2380 -1.1288
  475MOL0     H64071   7.095   0.936   5.160 -2.3110 -0.9477 -0.4627
  475MOL0     H64072   7.141   1.115   5.402  1.8869 -2.2016  1.0963
  475MOL0     H64073   7.095   1.173   5.244 -2.0646 -0.6161  1.9765
  475MOL0     H64074   7.316   1.081   5.160  1.0003 -0.6836  0.2903
  475MOL0     H64075   7.353   1.197   5.294 -0.1553  0.4476 -0.9275
  475MOL0     H64076   7.471   0.861   5.182  0.5896  1.9699 -0.1030
  475MOL0     H64077   7.579   0.662   5.471  2.5705 -1.0606  0.9789
  475MOL0     H64078   7.602   0.656   5.301 -0.3022 -1.2261  0.2490
  475MOL0     H64079   7.820   0.770   5.300 -0.7237 -2.1814 -1.1461
  475MOL0     H64080   7.796   0.815   5.478 -0.3018 -0.7932  1.4489
  475MOL0     H64081   7.777   0.539   5.369 -2.2744  1.0585  0.3431
  475MOL0     H64082   7.819   0.587   5.535  1.1460 -0.7219 -0.5599
  475MOL0     H64083   8.047   0.536   5.442  2.2835  0.6537 -2.6231
  475MOL0     H64084   8.019   0.716   5.443 -2.8243  0.4253  1.4729
  475MOL0     H64085   8.116   0.859   5.245 -1.0964 -1.0595 -2.0789
  475MOL0     H64086   8.364   0.926   5.234  0.3627 -0.4796 -0.9527
  475MOL0     H64087   8.824   0.907   5.187  0.1244  0.4999 -1.0859
  475MOL0     H64088   9.073   0.914   5.114  1.7922 -0.4243 -0.5915
  475MOL0     H64089   9.293   0.888   5.059 -2.8302  0.5050 -0.5659
  475MOL0     H64090   9.287   0.818   5.213  0.1153  1.9349 -0.9883
  475MOL0     H64091   9.473   0.751   4.995  0.6880 -0.5898 -0.1198
  475MOL0     H64092   9.514   0.819   5.151  0.8133  0.3650 -0.2827
  475MOL0     H64093   9.435   0.604   5.250  0.7256 -0.3429 -0.8218
  475MOL0     H64094   9.414   0.540   5.085 -1.2934 -0.9118  0.4760
  475MOL0     H64095   9.683   0.656   5.201  1.0294 -2.4633  1.3226
  475MOL0     H64096   9.661   0.577   5.044  0.7269 -1.2711  0.2121
  475MOL0     H64097   9.601   0.363   5.169 -0.4793  0.4100 -0.1230
  475MOL0     H64098   9.650   0.446   5.315  0.2569  2.4604 -0.0929
  475MOL0     H64099   9.821   0.411   5.056  2.4358 -0.7710 -0.7823
  475MOL0     H64100   9.878   0.494   5.206  0.2089 -1.4771 -0.6019
  475MOL0     H64101   9.795   0.201   5.213 -0.6399  0.7556 -1.9845
  475MOL0     H64102   9.878   0.298   5.331  1.5758 -0.7879 -0.1678
  475MOL0     H64103  10.080   0.311   5.217 -0.3542  1.2360 -0.6591
  475MOL0     H64104  10.031   0.144   5.203 -1.3943 -0.5426 -1.7606
  475MOL0     H64105   9.067   0.478   5.115  1.0166 -0.7003 -2.3470
  475MOL0     H64106   8.835   0.474   5.153 -0.7527  0.5017 -0.1695
  475MOL0     H64107   8.454   0.499   5.247  0.3812  0.7577  0.4447
  475MOL0     H64108   8.230   0.457   5.259 -1.5420  0.6449  0.6570
  475MOL0     H64109   6.290   0.572   5.160 -1.5702 -2.4652 -1.2036
  475MOL0     H64110   6.047   0.564   5.096 -1.3423  0.5863 -1.6884
  475MOL0     H64111   5.584   0.573   5.163 -0.3979  0.2641  0.4202
  475MOL0     H64112   5.373   0.562   5.084  1.6300 -1.3752  1.6397
  475MOL0     H64113   5.186   0.564   4.929 -1.6398 -0.7054 -0.8282
  475MOL0     H64114   5.072   0.660   4.852  1.6085  1.8076 -1.4897
  475MOL0     H64115   5.186   0.725   5.121  0.6259  0.3936 -1.2181
  475MOL0     H64116   5.022   0.678   5.081 -0.1972  0.1864  0.4980
  475MOL0     H64117   5.174   0.943   5.014 -1.7229  1.8202 -2.9539
  475MOL0     H64118   5.057   0.919   5.130  1.6700  1.6053  0.0712
  475MOL0     H64119   4.952   0.856   4.857  1.8964 -1.5003  0.7458
  475MOL0     H64120   4.876   0.918   4.998  1.0215 -0.6265  0.2736
  475MOL0     H64121   4.955   1.294   4.864 -0.8936  0.5630  5.5175
  475MOL0     H64122   5.446   0.888   4.822 -1.1598  0.4842  1.8572
  475MOL0     H64123   5.766   0.994   4.936  2.1428 -0.1646 -0.6134
  475MOL0     H64124   5.777   0.895   4.786  3.2977  1.2075  1.4626
  475MOL0     H64125   5.648   1.013   4.814 -0.8413 -0.0317  0.7337
  476MOL0     O64126   7.945   4.576   8.471 -0.0815  0.3964  0.5583
  476MOL0     C64127   7.862   4.551   8.385  0.0466  0.4695 -0.5856
  476MOL0     O64128   7.894   4.523   8.256  0.7928  0.0608 -0.4567
  476MOL0     C64129   8.021   4.560   8.211  0.2809 -0.2089 -0.8551
  476MOL0     C64130   8.102   4.459   8.187  0.3640  0.4946 -0.3257
  476MOL0     C64131   8.230   4.476   8.151 -0.5754 -0.3887 -0.0630
  476MOL0     C64132   8.290   4.609   8.130  0.2202  0.8186 -0.0327
  476MOL0     O64133   8.412   4.617   8.079 -0.4593 -0.1549  0.4428
  476MOL0     C64134   8.460   4.737   8.018  0.1282 -0.5172 -1.0873
  476MOL0     C64135   8.604   4.722   7.994 -0.7316 -0.6750 -0.3636
  476MOL0     C64136   8.629   4.637   7.868  0.0264  0.2619  0.0719
  476MOL0     C64137   8.720   4.518   7.884  0.8055  0.3564  0.4916
  476MOL0     C64138   8.853   4.564   7.927  0.1214  0.9667 -0.4110
  476MOL0     C64139   8.949   4.455   7.968 -0.6333  0.9444 -0.6236
  476MOL0     C64140   9.093   4.485   7.911  0.3850  0.1567  0.4788
  476MOL0     C64141   9.113   4.475   7.763 -0.0529 -0.4010  0.7374
  476MOL0     N64142   9.260   4.459   7.728  0.5639 -0.2892  0.1946
  476MOL0     C64143   9.354   4.549   7.775 -0.1780  1.1285  0.0253
  476MOL0     C64144   9.465   4.498   7.719  0.4537  0.7424 -0.5223
  476MOL0     C64145   9.603   4.567   7.724 -0.4613  0.5237  0.1566
  476MOL0     C64146   9.683   4.527   7.598 -1.3273  0.3735  0.0200
  476MOL0     C64147   9.822   4.579   7.621 -0.4070 -0.4887 -0.5211
  476MOL0     C64148   9.924   4.534   7.514  0.0455 -1.0738  0.2341
  476MOL0     O64149   9.948   4.391   7.509 -0.1101  0.3216 -0.7254
  476MOL0     C64150  10.075   4.344   7.470 -0.1965  0.2538  0.0965
  476MOL0     C64151  10.111   4.220   7.517  0.1720  0.4267  0.9348
  476MOL0     C64152  10.228   4.159   7.470  0.7586 -0.5747 -0.3708
  476MOL0     C64153  10.319   4.232   7.392 -0.3015  0.1018  0.5249
  476MOL0     C64154  10.453   4.189   7.367  0.4061  0.0521 -0.4924
  476MOL0     O64155  10.542   4.278   7.324  0.1824 -0.1430  0.4023
  476MOL0     C64156  10.670   4.250   7.365  0.4205  0.3279 -0.5557
  476MOL0     C64157  10.771   4.245   7.271 -0.1722  0.2433 -0.1787
  476MOL0     C64158  10.906   4.236   7.313  0.2257  0.6294  0.7382
  476MOL0     C64159  10.944   4.238   7.444 -0.0174 -0.4473  0.0982
  476MOL0     O64160  11.074   4.233   7.483  0.1764 -0.0351 -0.7071
  476MOL0     C64161  11.175   4.318   7.419  0.3779  0.0028 -0.0057
  476MOL0     C64162  11.303   4.222   7.418  0.1666  0.9423 -0.4621
  476MOL0     C64163  11.430   4.296   7.380 -0.3143 -0.2549 -0.4819
  476MOL0     C64164  11.541   4.197   7.369 -0.3105 -0.1417 -0.0911
  476MOL0     C64165  11.675   4.267   7.369 -0.3584 -0.3232  0.6093
  476MOL0     C64166  11.783   4.177   7.311  0.1851 -0.5891  0.2489
  476MOL0     C64167  11.781   4.039   7.374  0.9935 -0.0604  0.1162
  476MOL0     C64168  11.903   3.967   7.338 -1.0335  0.6143 -0.6653
  476MOL0    Cl64169  12.037   4.045   7.436  0.0887 -0.4163  0.2098
  476MOL0     C64170  10.841   4.239   7.537  0.6724  0.1045  0.0945
  476MOL0     C64171  10.706   4.252   7.501 -0.4548 -0.4360 -0.1330
  476MOL0     O64172  10.482   4.077   7.412  0.0994  0.0816 -0.2637
  476MOL0     C64173  10.268   4.357   7.345 -1.0167 -0.4011  0.4820
  476MOL0     C64174  10.155   4.413   7.381  0.3318  0.7015  0.7718
  476MOL0     N64175   9.442   4.379   7.660  0.8490  0.7887  0.4331
  476MOL0     N64176   9.314   4.354   7.658 -0.9945  0.5244 -0.7810
  476MOL0     C64177   8.209   4.715   8.157  0.0165 -0.2346  0.0640
  476MOL0     C64178   8.075   4.696   8.194  0.4194  0.3293  0.2126
  476MOL0     C64179   7.722   4.540   8.425  1.0974 -0.1769 -0.7673
  476MOL0     C64180   7.627   4.508   8.322 -0.0566 -0.1562 -0.2772
  476MOL0     C64181   7.493   4.475   8.361 -0.0152 -0.7199  0.5914
  476MOL0     C64182   7.455   4.463   8.491  0.1853  0.4208  0.5320
  476MOL0     O64183   7.327   4.421   8.520  0.2504  0.5178  0.0842
  476MOL0     C64184   7.286   4.439   8.655 -0.5796  0.2014 -0.6560
  476MOL0     C64185   7.131   4.440   8.656 -0.6182 -0.5363  0.9584
  476MOL0     C64186   7.070   4.578   8.642 -0.8163 -0.8619 -0.0983
  476MOL0     C64187   6.917   4.561   8.636  0.3331 -0.5228  0.2123
  476MOL0     C64188   6.839   4.692   8.607 -0.3605 -0.0318  0.2801
  476MOL0     C64189   6.779   4.801   8.576  0.3131 -0.2969 -0.5222
  476MOL0     C64190   7.549   4.489   8.589 -0.2381 -0.4078 -0.2085
  476MOL0     C64191   7.677   4.534   8.567  0.4353  0.1107 -0.8909
  476MOL0     C64192   7.768   4.560   8.696 -0.0857 -0.0010 -0.0238
  476MOL0     H64193   8.072   4.356   8.206  1.1854 -0.3920 -3.1890
  476MOL0     H64194   8.305   4.398   8.135  2.0619  2.0969 -0.7117
  476MOL0     H64195   8.399   4.773   7.935  1.1666  0.8090 -1.3211
  476MOL0     H64196   8.452   4.820   8.089 -1.9397  0.8462 -2.7901
  476MOL0     H64197   8.653   4.672   8.078  0.0374 -1.7418 -1.4112
  476MOL0     H64198   8.645   4.823   7.983  2.0953 -1.5052  1.4584
  476MOL0     H64199   8.673   4.707   7.797  2.5389  1.4769  2.6605
  476MOL0     H64200   8.541   4.596   7.818  1.0074  1.2064 -2.6106
  476MOL0     H64201   8.679   4.445   7.954  3.5778  0.3767  2.2622
  476MOL0     H64202   8.734   4.475   7.784  0.9992 -0.6748  0.9465
  476MOL0     H64203   8.896   4.627   7.848  1.2685 -0.2021 -0.7529
  476MOL0     H64204   8.848   4.634   8.010  1.4786  1.3169 -0.6033
  476MOL0     H64205   8.958   4.461   8.077  2.0150  3.0015 -0.8611
  476MOL0     H64206   8.920   4.354   7.937  2.6157 -1.3875  3.0165
  476MOL0     H64207   9.161   4.419   7.965  2.8585  1.8670 -0.3089
  476MOL0     H64208   9.138   4.582   7.935  2.5264  0.5460 -4.0074
  476MOL0     H64209   9.061   4.387   7.725 -1.1598 -1.8019  4.9662
  476MOL0     H64210   9.073   4.555   7.699  0.2441 -2.1556 -1.8186
  476MOL0     H64211   9.348   4.648   7.819  0.2532  1.1769 -0.0168
  476MOL0     H64212   9.594   4.676   7.721  2.0388  0.7786 -0.3954
  476MOL0     H64213   9.662   4.535   7.810 -1.3062 -2.2464 -0.1930
  476MOL0     H64214   9.679   4.418   7.586 -0.7332  0.3132  0.3226
  476MOL0     H64215   9.641   4.578   7.511  1.2232  1.9585 -0.3886
  476MOL0     H64216   9.863   4.537   7.714 -2.7836  0.0109  0.8353
  476MOL0     H64217   9.834   4.687   7.615 -0.1110 -0.5782 -2.3081
  476MOL0     H64218  10.011   4.599   7.523 -1.8193  1.4408  1.6560
  476MOL0     H64219   9.881   4.561   7.417 -0.3483 -2.4595  0.0104
  476MOL0     H64220  10.048   4.169   7.590 -0.9610  1.7555  0.9236
  476MOL0     H64221  10.251   4.062   7.512 -1.6592 -1.1702 -0.2468
  476MOL0     H64222  10.738   4.249   7.167 -2.6650 -2.2807  0.3880
  476MOL0     H64223  10.969   4.258   7.227 -1.7854  2.5414 -0.3452
  476MOL0     H64224  11.153   4.336   7.313  1.0933 -0.7775 -0.2980
  476MOL0     H64225  11.188   4.406   7.482 -2.8641 -0.6046  1.6946
  476MOL0     H64226  11.306   4.171   7.515 -0.9168 -1.3641 -1.5691
  476MOL0     H64227  11.278   4.145   7.345  0.0033  2.2429 -1.8071
  476MOL0     H64228  11.407   4.337   7.281 -0.1660  2.2842  0.4517
  476MOL0     H64229  11.446   4.379   7.450  5.0322 -1.6997  0.4177
  476MOL0     H64230  11.530   4.141   7.275  1.0690  0.5691 -0.6948
  476MOL0     H64231  11.545   4.123   7.450  0.3418  0.9477  0.8972
  476MOL0     H64232  11.704   4.305   7.468  2.9747  0.7171 -0.6072
  476MOL0     H64233  11.682   4.355   7.304  0.6498 -0.5510  0.3884
  476MOL0     H64234  11.759   4.166   7.204 -0.0323 -0.6116  0.2985
  476MOL0     H64235  11.876   4.234   7.320 -1.5716  2.4159  0.6918
  476MOL0     H64236  11.697   3.978   7.341  1.1944 -0.0716 -0.3814
  476MOL0     H64237  11.763   4.038   7.482 -2.8928 -3.6321 -0.2814
  476MOL0     H64238  11.895   3.861   7.360 -1.4854  0.6049 -0.8528
  476MOL0     H64239  11.932   3.980   7.233  2.9860  0.0638  0.2079
  476MOL0     H64240  10.889   4.244   7.634  1.9443  0.0197 -0.5073
  476MOL0     H64241  10.638   4.277   7.581 -0.7963  0.1988 -0.6103
  476MOL0     H64242  10.330   4.414   7.276 -3.7206 -0.7497 -2.4552
  476MOL0     H64243  10.128   4.510   7.340 -0.2941  0.2556  0.0943
  476MOL0     H64244   8.252   4.814   8.161 -1.2446  0.3377 -0.1947
  476MOL0     H64245   7.992   4.764   8.211 -1.5638 -1.6834 -0.8919
  476MOL0     H64246   7.656   4.517   8.218 -1.0009  0.3174 -0.5072
  476MOL0     H64247   7.413   4.449   8.292 -1.3252 -0.6352  2.0185
  476MOL0     H64248   7.314   4.540   8.686 -0.4221 -0.4065  1.2725
  476MOL0     H64249   7.330   4.365   8.723  1.0624  0.8008 -1.0345
  476MOL0     H64250   7.094   4.386   8.744 -1.1793 -0.2825  0.8819
  476MOL0     H64251   7.101   4.387   8.564  3.4789 -0.4388 -0.6392
  476MOL0     H64252   7.106   4.633   8.554 -2.4852 -0.4974 -0.5835
  476MOL0     H64253   7.091   4.637   8.731  2.2021 -1.7035 -0.1409
  476MOL0     H64254   6.893   4.482   8.564  1.2580 -0.5264 -0.1091
  476MOL0     H64255   6.873   4.529   8.731 -2.6914  0.5186 -0.7165
  476MOL0     H64256   6.717   4.883   8.547 -2.0601 -1.6019  0.5690
  476MOL0     H64257   7.532   4.477   8.696  0.2899  2.0825  0.2153
  476MOL0     H64258   7.828   4.469   8.705 -2.0494 -1.2953  0.5319
  476MOL0     H64259   7.825   4.649   8.666  0.2623 -0.6235 -1.2653
  476MOL0     H64260   7.724   4.581   8.794 -0.7450 -1.3979  0.0065
  477MOL0     O64261   2.003   9.567   8.110  0.3353 -0.3962 -0.3693
  477MOL0     C64262   1.932   9.622   8.021 -0.2919 -0.4106  0.1584
  477MOL0     O64263   1.869   9.736   8.036 -0.0299  0.5068  0.0364
  477MOL0     C64264   1.925   9.838   8.102 -0.3315  0.1468  0.2390
  477MOL0     C64265   1.829   9.936   8.120 -0.6312 -0.1138 -0.8447
  477MOL0     C64266   1.876  10.058   8.170 -0.0916 -0.7016 -0.4189
  477MOL0     C64267   2.014  10.094   8.173  0.6398  0.6440  0.0137
  477MOL0     O64268   2.056  10.213   8.214  0.4671 -0.1109 -0.2054
  477MOL0     C64269   2.082  10.201   8.352  0.9876 -0.6267  0.4755
  477MOL0     C64270   2.229  10.177   8.380 -0.1080  0.2613  0.2739
  477MOL0     C64271   2.324  10.281   8.315  0.9006  0.5844  0.4706
  477MOL0     C64272   2.476  10.268   8.337  0.7991  0.3667 -0.5765
  477MOL0     C64273   2.557  10.196   8.236 -0.9619  0.2730  0.1248
  477MOL0     C64274   2.705  10.194   8.264 -0.2091  0.4497 -0.6443
  477MOL0     C64275   2.764  10.250   8.394  0.2292 -0.3163 -0.1960
  477MOL0     C64276   2.911  10.202   8.398 -0.1661 -0.4092  0.5675
  477MOL0     N64277   3.007  10.301   8.339  0.1605  0.5287  0.0581
  477MOL0     C64278   3.056  10.407   8.420  0.1471  0.0519 -1.2310
  477MOL0     C64279   3.140  10.468   8.338 -0.4768  0.0220 -0.7128
  477MOL0     C64280   3.220  10.584   8.394 -0.1141  0.0780  0.7099
  477MOL0     C64281   3.323  10.535   8.505 -0.5127 -0.8493 -0.4652
  477MOL0     C64282   3.446  10.482   8.432 -0.7228  0.2604 -0.4559
  477MOL0     C64283   3.547  10.415   8.529 -0.0102 -0.2809  0.7102
  477MOL0     O64284   3.671  10.395   8.460 -0.0550 -0.3495 -0.3703
  477MOL0     C64285   3.787  10.402   8.533 -0.7141  0.1176  0.1113
  477MOL0     C64286   3.797  10.417   8.669  0.5253  0.0184  0.2867
  477MOL0     C64287   3.920  10.431   8.731 -0.6439  0.3752  0.2116
  477MOL0     C64288   4.032  10.385   8.659 -0.2090  0.0278  1.0706
  477MOL0     C64289   4.155  10.367   8.713 -0.5951 -1.1651  0.0859
  477MOL0     O64290   4.250  10.315   8.637 -0.2147 -0.0483 -0.5099
  477MOL0     C64291   4.360  10.258   8.704 -0.7379 -0.2487  0.9588
  477MOL0     C64292   4.367  10.121   8.729  0.1331 -0.3593 -0.2171
  477MOL0     C64293   4.467  10.059   8.800 -0.3380 -1.0317 -0.1575
  477MOL0     C64294   4.567  10.146   8.847 -0.1203  0.2016  0.2842
  477MOL0     O64295   4.661  10.088   8.923 -0.8969  0.4142 -0.4897
  477MOL0     C64296   4.738  10.171   9.005 -0.7640  0.0103 -0.4645
  477MOL0     C64297   4.818  10.076   9.104 -0.1404 -0.6054 -0.5398
  477MOL0     C64298   4.942  10.163   9.145 -1.1085  0.2878  0.2691
  477MOL0     C64299   5.076  10.081   9.132 -0.3198  0.1316  0.0619
  477MOL0     C64300   5.201  10.157   9.153  0.0013  0.6609 -0.2895
  477MOL0     C64301   5.320  10.063   9.164  0.6756 -0.2508  0.8185
  477MOL0     C64302   5.450  10.142   9.184 -0.0438 -0.0132  0.7550
  477MOL0     C64303   5.575  10.051   9.155  0.2215  0.3063  0.8961
  477MOL0    Cl64304   5.717  10.144   9.179  0.4909  0.0592  0.1748
  477MOL0     C64305   4.571  10.292   8.828  0.0298  0.3809 -0.1986
  477MOL0     C64306   4.466  10.343   8.744  0.1228  0.3063  1.3076
  477MOL0     O64307   4.163  10.388   8.838  0.2675 -0.2090  0.5107
  477MOL0     C64308   4.023  10.375   8.521  0.3820 -0.0589  0.1309
  477MOL0     C64309   3.896  10.377   8.461 -0.6669 -0.1733  0.5725
  477MOL0     N64310   3.147  10.399   8.221 -0.1766  0.3039  0.6928
  477MOL0     N64311   3.071  10.291   8.223  0.0046 -0.1416 -0.4515
  477MOL0     C64312   2.107   9.994   8.134 -0.8092 -0.7724 -1.2034
  477MOL0     C64313   2.066   9.862   8.105  0.6550 -0.0271 -0.1739
  477MOL0     C64314   1.918   9.556   7.892  0.4524 -0.9523  0.7540
  477MOL0     C64315   1.782   9.556   7.846  0.0693 -0.4427 -0.6713
  477MOL0     C64316   1.740   9.481   7.731  0.1812  0.3488  0.2101
  477MOL0     C64317   1.839   9.400   7.668  0.7395 -0.6885  0.0896
  477MOL0     O64318   1.795   9.328   7.556 -0.0185 -0.0921 -0.1530
  477MOL0     C64319   1.896   9.245   7.490  0.1241 -0.3726 -0.7401
  477MOL0     C64320   1.846   9.175   7.363  0.5044 -0.1606 -0.7318
  477MOL0     C64321   1.937   9.049   7.347  1.0780 -0.1590 -0.0236
  477MOL0     C64322   1.917   8.974   7.221 -0.3142  0.0246  1.1285
  477MOL0     C64323   1.774   8.944   7.180 -0.7204 -0.2143 -0.4586
  477MOL0     C64324   1.669   8.900   7.145  0.1015  1.1854 -0.2625
  477MOL0     C64325   1.980   9.413   7.708  0.3172 -0.2351 -0.2217
  477MOL0     C64326   2.019   9.491   7.822 -0.7752  1.1752  0.5682
  477MOL0     C64327   2.162   9.486   7.865  0.3425  0.1914  0.0074
  477MOL0     H64328   1.731   9.909   8.082 -1.1388 -2.8678  2.0094
  477MOL0     H64329   1.805  10.138   8.187  1.5909  0.8113 -0.2608
  477MOL0     H64330   2.051  10.285   8.415 -0.9020 -2.0675  1.5992
  477MOL0     H64331   2.023  10.121   8.398  0.6540  0.7360  2.5824
  477MOL0     H64332   2.250  10.071   8.362 -0.1515 -0.2044  2.6683
  477MOL0     H64333   2.242  10.179   8.489 -1.7258  1.5048  0.4655
  477MOL0     H64334   2.273  10.371   8.350  1.1926 -0.2317  3.2858
  477MOL0     H64335   2.317  10.264   8.207  3.7481 -0.2927  0.3281
  477MOL0     H64336   2.520  10.368   8.341 -1.8176  1.5585  1.5881
  477MOL0     H64337   2.488  10.231   8.440 -0.8507  2.8427  0.5997
  477MOL0     H64338   2.517  10.095   8.231 -4.3810  1.2636  3.0664
  477MOL0     H64339   2.535  10.247   8.142  0.9439  0.6199 -0.1769
  477MOL0     H64340   2.738  10.091   8.244 -1.2725  0.2779 -1.6197
  477MOL0     H64341   2.744  10.260   8.186  2.1258  2.7361  2.2133
  477MOL0     H64342   2.721  10.202   8.483  0.9207 -1.5912 -0.5272
  477MOL0     H64343   2.768  10.359   8.405  1.6218 -0.4609  1.0064
  477MOL0     H64344   2.947  10.191   8.500  0.6662 -1.7246  0.1616
  477MOL0     H64345   2.927  10.108   8.345 -0.1909 -1.0452  1.6652
  477MOL0     H64346   3.049  10.415   8.528 -0.9574  0.8474 -1.3520
  477MOL0     H64347   3.258  10.653   8.317 -0.2398  1.4538  1.8495
  477MOL0     H64348   3.143  10.655   8.426  0.3500  2.3027 -2.5258
  477MOL0     H64349   3.339  10.620   8.571 -0.3224  0.8716 -2.6044
  477MOL0     H64350   3.278  10.453   8.562 -0.8593 -0.6489 -0.4491
  477MOL0     H64351   3.484  10.569   8.377  1.1869 -0.2761 -0.0504
  477MOL0     H64352   3.429  10.413   8.348  5.0873  0.6605 -2.3958
  477MOL0     H64353   3.519  10.323   8.581  0.7378 -1.3362 -0.6455
  477MOL0     H64354   3.547  10.491   8.607 -2.4228 -1.3625  1.8564
  477MOL0     H64355   3.726  10.437   8.749  1.2867 -0.7732  1.1846
  477MOL0     H64356   3.909  10.442   8.839  0.5587 -2.4386  0.7137
  477MOL0     H64357   4.279  10.078   8.684  1.5711 -0.9736 -2.6116
  477MOL0     H64358   4.475   9.952   8.817  3.6632 -0.8089  0.1131
  477MOL0     H64359   4.809  10.232   8.948  1.5091 -0.9742  1.1763
  477MOL0     H64360   4.675  10.246   9.054  0.7204  1.5370 -0.8000
  477MOL0     H64361   4.763  10.041   9.193 -1.0976  2.9170  0.4080
  477MOL0     H64362   4.856   9.987   9.053 -0.2652 -1.1497  0.2783
  477MOL0     H64363   4.946  10.252   9.081  1.2404 -0.5315 -0.8662
  477MOL0     H64364   4.930  10.196   9.248 -0.1209  0.5044  0.3288
  477MOL0     H64365   5.073  10.016   9.044 -0.3999 -1.4160  1.1695
  477MOL0     H64366   5.088   9.998   9.203  3.4964 -0.5133 -1.0755
  477MOL0     H64367   5.197  10.227   9.237  1.6609 -1.4035  1.6512
  477MOL0     H64368   5.222  10.210   9.059  2.9410 -1.0330 -0.7172
  477MOL0     H64369   5.295   9.989   9.241  3.3959 -1.9483  0.2376
  477MOL0     H64370   5.319   9.995   9.079  0.8422 -1.9231  2.1011
  477MOL0     H64371   5.462  10.200   9.276  1.3047 -0.4807  0.9062
  477MOL0     H64372   5.467  10.219   9.108 -2.1428  0.7896  1.0375
  477MOL0     H64373   5.577   9.967   9.225 -1.9735  1.3693  2.3268
  477MOL0     H64374   5.576  10.009   9.054 -0.3774 -0.1006  1.0570
  477MOL0     H64375   4.644  10.365   8.860  0.8059 -0.1539 -0.7087
  477MOL0     H64376   4.463  10.452   8.738  4.1107  0.5680  1.1238
  477MOL0     H64377   4.101  10.343   8.453  0.1007 -2.9545  1.0372
  477MOL0     H64378   3.904  10.366   8.353  1.3524  1.8258  0.4454
  477MOL0     H64379   2.213  10.014   8.125 -0.9729 -0.1022 -1.7476
  477MOL0     H64380   2.140   9.783   8.104  2.5225  1.5359  2.6610
  477MOL0     H64381   1.720   9.632   7.893  4.2662  2.3633  0.9605
  477MOL0     H64382   1.634   9.477   7.707  0.1915 -1.3393  0.3417
  477MOL0     H64383   1.928   9.179   7.571 -1.6080  2.0914  2.1684
  477MOL0     H64384   1.991   9.296   7.472 -0.0619  0.1161 -0.3615
  477MOL0     H64385   1.852   9.243   7.278  2.9650 -1.8296 -1.9781
  477MOL0     H64386   1.744   9.135   7.372  0.3440  0.0027 -1.7204
  477MOL0     H64387   1.929   8.989   7.438  2.8951  1.9575  1.6702
  477MOL0     H64388   2.043   9.076   7.357  1.2207 -1.1562  1.4791
  477MOL0     H64389   1.961   9.027   7.136 -0.1270 -1.7265  0.1015
  477MOL0     H64390   1.968   8.880   7.241 -3.9205 -2.1559  1.0224
  477MOL0     H64391   1.585   8.856   7.094  0.3578  1.8145 -1.2463
  477MOL0     H64392   2.070   9.365   7.670  0.0294  0.2173 -1.5309
  477MOL0     H64393   2.231   9.460   7.784  0.2948 -2.2497  0.6786
  477MOL0     H64394   2.191   9.578   7.916  0.2365  1.4137 -2.0029
  477MOL0     H64395   2.181   9.413   7.944  0.6484  2.0720  1.7432
  478MOL0     O64396   7.051   8.356   5.078  0.5069 -0.8091  0.1244
  478MOL0     C64397   7.144   8.270   5.072 -0.3719  0.7599 -0.8312
  478MOL0     O64398   7.119   8.132   5.085 -0.8591  0.3132 -0.2390
  478MOL0     C64399   7.000   8.077   5.035  0.6687 -0.2738 -0.5719
  478MOL0     C64400   6.974   7.943   5.065 -0.2273  0.0512 -0.1622
  478MOL0     C64401   6.865   7.876   5.016 -0.0787  0.1867 -0.9666
  478MOL0     C64402   6.763   7.944   4.947  0.8505  0.3524 -0.1960
  478MOL0     O64403   6.663   7.866   4.889 -0.3683  0.0847  0.6606
  478MOL0     C64404   6.574   7.916   4.786  0.6983  0.3658  0.0953
  478MOL0     C64405   6.472   7.809   4.734 -0.1192 -0.5461 -0.1473
  478MOL0     C64406   6.530   7.697   4.646 -1.1700  0.3771 -0.5543
  478MOL0     C64407   6.448   7.570   4.646  0.5512  0.3785 -0.3620
  478MOL0     C64408   6.333   7.571   4.543 -0.3166  0.0250 -0.0722
  478MOL0     C64409   6.284   7.428   4.546  0.2828  0.1606 -0.8051
  478MOL0     C64410   6.186   7.395   4.431  0.0115  0.3920  0.1099
  478MOL0     C64411   6.097   7.283   4.482 -0.8963  0.7385  1.0201
  478MOL0     N64412   6.177   7.161   4.519 -0.1567 -0.1865  0.2639
  478MOL0     C64413   6.241   7.085   4.421  0.5984 -0.2860  0.5753
  478MOL0     C64414   6.266   6.965   4.486 -0.1186 -0.3934  0.3315
  478MOL0     C64415   6.337   6.840   4.426  0.0585 -0.4228  0.1706
  478MOL0     C64416   6.468   6.805   4.492 -0.0111 -0.0023  0.0698
  478MOL0     C64417   6.556   6.730   4.408  0.1391  0.1227  0.0773
  478MOL0     C64418   6.634   6.812   4.300 -0.2630 -0.8962  0.3436
  478MOL0     O64419   6.726   6.910   4.348 -0.0753 -0.1617  0.3390
  478MOL0     C64420   6.845   6.861   4.388 -0.2084  0.5740 -0.9180
  478MOL0     C64421   6.891   6.726   4.422  0.5658 -0.1279 -0.1781
  478MOL0     C64422   7.013   6.703   4.487 -0.7236  0.5309 -0.6559
  478MOL0     C64423   7.096   6.807   4.525  0.1673 -0.2413 -1.4451
  478MOL0     C64424   7.213   6.771   4.594 -0.6749 -0.8970  0.3018
  478MOL0     O64425   7.314   6.865   4.572  0.1212 -0.3236 -0.7819
  478MOL0     C64426   7.440   6.846   4.623  0.7121  0.3189  0.7792
  478MOL0     C64427   7.470   6.829   4.761  0.1537  0.1155  0.2355
  478MOL0     C64428   7.602   6.809   4.802  0.2503  0.1868  0.3799
  478MOL0     C64429   7.706   6.824   4.715  0.1815  0.1474 -1.0164
  478MOL0     O64430   7.823   6.808   4.784 -0.2645 -0.1509  0.4926
  478MOL0     C64431   7.943   6.798   4.707  0.0766  0.2104  0.0195
  478MOL0     C64432   8.050   6.726   4.787 -0.4218  0.4708  0.8744
  478MOL0     C64433   8.086   6.804   4.919 -0.6142  0.0991  0.1312
  478MOL0     C64434   8.143   6.946   4.884 -0.4870  0.4270  0.1155
  478MOL0     C64435   8.188   7.019   5.025 -0.6885  0.1993  0.4643
  478MOL0     C64436   8.222   7.160   4.992 -0.7492 -0.8619 -0.4994
  478MOL0     C64437   8.354   7.183   4.917  0.1390 -0.6985 -0.0056
  478MOL0     C64438   8.381   7.335   4.893 -0.5040 -1.2000 -0.8942
  478MOL0    Cl64439   8.455   7.391   5.045  0.0766 -0.2641 -0.0102
  478MOL0     C64440   7.676   6.847   4.578 -0.3486  0.1884  0.4289
  478MOL0     C64441   7.540   6.859   4.537  0.4865 -0.2982  0.2300
  478MOL0     O64442   7.223   6.669   4.663 -0.3321 -0.3987 -0.1252
  478MOL0     C64443   7.052   6.938   4.495  0.0478 -0.9836  0.3552
  478MOL0     C64444   6.937   6.961   4.417  0.1319 -0.3310  0.4421
  478MOL0     N64445   6.218   6.961   4.617  0.6297 -0.4326 -0.8994
  478MOL0     N64446   6.158   7.080   4.631  0.5932 -0.0031  0.5105
  478MOL0     C64447   6.789   8.075   4.917  0.2613 -0.0482 -0.2316
  478MOL0     C64448   6.906   8.138   4.955 -0.4645  0.4428 -0.0078
  478MOL0     C64449   7.286   8.308   5.058 -0.1417  0.3121 -0.7201
  478MOL0     C64450   7.381   8.217   5.100  0.7734 -0.4401 -0.3175
  478MOL0     C64451   7.513   8.225   5.077  0.6285  0.2135 -0.6285
  478MOL0     C64452   7.564   8.337   5.015  0.3581 -0.1808  0.1958
  478MOL0     O64453   7.695   8.360   5.016 -0.3778 -0.1696  0.5198
  478MOL0     C64454   7.717   8.476   5.106  0.2360  0.4399  0.7762
  478MOL0     C64455   7.798   8.585   5.045 -1.1117  0.2205 -0.3754
  478MOL0     C64456   7.942   8.540   5.017  0.6767 -0.2221  0.3431
  478MOL0     C64457   8.025   8.656   4.960  0.0922  0.3022  0.4426
  478MOL0     C64458   8.065   8.750   5.064  0.3033  0.1224 -0.8001
  478MOL0     C64459   8.091   8.837   5.143 -0.8816  0.4541 -0.0714
  478MOL0     C64460   7.474   8.430   4.971 -1.3140  0.5356  0.0066
  478MOL0     C64461   7.337   8.418   4.986 -0.4784  0.4193  0.3576
  478MOL0     C64462   7.250   8.527   4.928 -0.0409  0.7132 -0.5104
  478MOL0     H64463   7.055   7.897   5.121  2.1514  3.4372 -0.5249
  478MOL0     H64464   6.858   7.772   5.043 -0.0906  0.4703  0.1693
  478MOL0     H64465   6.527   8.011   4.809  1.6619  1.0102 -0.5212
  478MOL0     H64466   6.630   7.939   4.695 -1.8488  0.7857 -1.4452
  478MOL0     H64467   6.395   7.852   4.668  0.6195 -1.2032 -1.4801
  478MOL0     H64468   6.421   7.773   4.823 -3.3479  2.4579 -0.5224
  478MOL0     H64469   6.633   7.678   4.676 -1.0678 -1.8003 -2.1029
  478MOL0     H64470   6.535   7.750   4.550  1.2806 -0.3226 -0.8870
  478MOL0     H64471   6.524   7.495   4.619  2.4796  1.8121  0.8283
  478MOL0     H64472   6.401   7.534   4.738  0.3716 -1.1929 -1.0431
  478MOL0     H64473   6.258   7.645   4.571 -0.3784  0.8023 -2.0961
  478MOL0     H64474   6.373   7.592   4.443  1.3398 -1.9403  0.1057
  478MOL0     H64475   6.370   7.362   4.533  2.9086  3.6517 -2.9706
  478MOL0     H64476   6.237   7.407   4.643 -1.7286  2.3038 -1.2217
  478MOL0     H64477   6.236   7.364   4.338  0.0212  2.6320 -0.6971
  478MOL0     H64478   6.112   7.473   4.409 -1.2870 -0.7847  0.1306
  478MOL0     H64479   6.040   7.322   4.567 -2.1342 -0.4777  0.8014
  478MOL0     H64480   6.029   7.259   4.399  0.0857  2.0032 -0.1917
  478MOL0     H64481   6.276   7.110   4.322 -1.3501 -2.5063 -0.7702
  478MOL0     H64482   6.275   6.755   4.454  1.0587 -0.8273  1.2241
  478MOL0     H64483   6.336   6.858   4.318 -0.9615  2.5054  0.5786
  478MOL0     H64484   6.516   6.898   4.523 -3.6740  2.3665 -0.6673
  478MOL0     H64485   6.460   6.746   4.584  1.1187 -1.4029 -0.6812
  478MOL0     H64486   6.506   6.647   4.358  1.3363 -0.8562  0.4384
  478MOL0     H64487   6.625   6.679   4.476 -2.5394 -0.9314  2.1884
  478MOL0     H64488   6.558   6.859   4.237 -1.7491  0.6622  3.0596
  478MOL0     H64489   6.689   6.748   4.231  0.7959  0.8304 -0.4737
  478MOL0     H64490   6.824   6.641   4.411  0.4495 -0.5019  2.6762
  478MOL0     H64491   7.034   6.603   4.522  1.2493  1.5155  1.1516
  478MOL0     H64492   7.394   6.815   4.837  0.9250  0.3952  1.0919
  478MOL0     H64493   7.623   6.795   4.908 -2.0933 -0.8367  0.7826
  478MOL0     H64494   7.931   6.739   4.615  4.4420 -2.5460  0.9412
  478MOL0     H64495   7.963   6.904   4.694 -2.0252  1.2863  3.9527
  478MOL0     H64496   8.012   6.627   4.812 -2.8615 -0.2180 -4.3830
  478MOL0     H64497   8.137   6.707   4.722 -2.9946 -2.0342 -2.1460
  478MOL0     H64498   7.992   6.822   4.972 -2.0043 -1.3629 -1.6805
  478MOL0     H64499   8.150   6.746   4.986 -3.3018 -1.0144  1.9260
  478MOL0     H64500   8.068   7.005   4.830 -0.1129  0.4673 -0.3678
  478MOL0     H64501   8.220   6.924   4.810  0.0099  0.0904  0.7246
  478MOL0     H64502   8.274   6.972   5.073 -1.8491 -1.7495  0.7373
  478MOL0     H64503   8.111   7.017   5.104  2.4814  0.4166  3.8219
  478MOL0     H64504   8.143   7.208   4.932 -0.0664 -1.9019 -2.3110
  478MOL0     H64505   8.233   7.204   5.091  1.0463 -1.9908 -0.1500
  478MOL0     H64506   8.347   7.136   4.819  1.4999  0.0100 -0.4644
  478MOL0     H64507   8.438   7.140   4.972  1.0960  0.7596 -0.2698
  478MOL0     H64508   8.441   7.352   4.803 -1.0379  0.3150 -0.9882
  478MOL0     H64509   8.287   7.388   4.876 -0.9378 -1.4639  0.5731
  478MOL0     H64510   7.757   6.843   4.506 -1.7356  0.8025 -1.2087
  478MOL0     H64511   7.519   6.882   4.433  0.2968  2.3538  0.7868
  478MOL0     H64512   7.117   7.025   4.510  1.4678 -1.5552 -1.9494
  478MOL0     H64513   6.914   7.067   4.407 -1.3803 -0.5216  1.5958
  478MOL0     H64514   6.716   8.129   4.857 -1.3183  0.8856  2.3727
  478MOL0     H64515   6.932   8.239   4.924  2.3773 -0.1076  0.2685
  478MOL0     H64516   7.356   8.132   5.162  1.4456 -1.4037 -1.3400
  478MOL0     H64517   7.573   8.140   5.110  1.0857 -0.1029 -2.2086
  478MOL0     H64518   7.763   8.431   5.194  1.7956 -0.8625 -0.6327
  478MOL0     H64519   7.629   8.535   5.134 -1.3512 -0.9021 -1.0824
  478MOL0     H64520   7.802   8.673   5.110 -1.7911  0.4692 -0.6653
  478MOL0     H64521   7.751   8.625   4.955  1.4237 -0.2362 -2.0108
  478MOL0     H64522   7.945   8.463   4.940  0.3716  0.6647 -0.5826
  478MOL0     H64523   7.978   8.492   5.109  0.6049 -0.6292  0.1569
  478MOL0     H64524   8.121   8.612   4.930  1.6275  2.4639  1.8219
  478MOL0     H64525   7.966   8.699   4.879  0.1949  0.6189  0.5333
  478MOL0     H64526   8.113   8.919   5.208  2.1540  2.2262 -3.0886
  478MOL0     H64527   7.522   8.514   4.921  1.0784 -0.2175  0.9114
  478MOL0     H64528   7.312   8.594   4.867  1.4423 -1.2777 -1.2996
  478MOL0     H64529   7.183   8.488   4.851 -0.0669 -4.3968  1.7205
  478MOL0     H64530   7.194   8.586   5.001  0.2556 -1.0616  1.2446
  479MOL0     O64531   1.514   7.892   1.731  0.3691  0.2383  0.7629
  479MOL0     C64532   1.459   7.846   1.831  0.7661 -0.8681  0.3508
  479MOL0     O64533   1.346   7.772   1.837  0.1798 -0.1194 -0.4120
  479MOL0     C64534   1.280   7.758   1.719 -0.4567 -0.1649 -0.4033
  479MOL0     C64535   1.162   7.823   1.684  0.8511  0.7156 -0.3854
  479MOL0     C64536   1.090   7.785   1.575  0.2857  0.1898 -0.2113
  479MOL0     C64537   1.122   7.672   1.509 -1.0933 -0.8017  0.4219
  479MOL0     O64538   1.052   7.649   1.390 -0.0499 -0.0492 -0.5475
  479MOL0     C64539   1.066   7.516   1.324 -0.7059  0.0109 -0.5007
  479MOL0     C64540   0.960   7.502   1.217  0.4418  0.5037 -0.1861
  479MOL0     C64541   0.985   7.598   1.099 -0.3566  0.4913 -0.8549
  479MOL0     C64542   1.092   7.546   1.007 -0.3333 -0.0388  0.5619
  479MOL0     C64543   1.135   7.630   0.875  0.4465  1.2690  0.8795
  479MOL0     C64544   1.021   7.626   0.771 -0.0091  0.1811 -0.5867
  479MOL0     C64545   0.927   7.744   0.810  0.6671  0.1901  0.0263
  479MOL0     C64546   0.922   7.851   0.697 -0.1811  0.6340  0.0243
  479MOL0     N64547   0.882   7.781   0.585  1.2603  0.5016  0.6552
  479MOL0     C64548   0.767   7.710   0.567 -0.0201 -0.1882  0.0562
  479MOL0     C64549   0.777   7.664   0.439 -0.8630  0.0149  0.4578
  479MOL0     C64550   0.685   7.580   0.362 -0.4484 -0.5742  0.4812
  479MOL0     C64551   0.583   7.680   0.301  0.0859  0.2759 -0.0925
  479MOL0     C64552   0.483   7.593   0.223  0.4954  0.1937  0.3004
  479MOL0     C64553   0.357   7.680   0.172 -0.1043  0.6923 -0.6231
  479MOL0     O64554   0.400   7.783   0.090 -0.4689  1.1068  0.4893
  479MOL0     C64555   0.307   7.851   0.017 -0.4065 -1.3448  0.1992
  479MOL0     C64556   0.317   7.851  -0.118 -0.4471  0.2486 -1.0398
  479MOL0     C64557   0.237   7.933  -0.201  1.1415  0.0160 -0.3628
  479MOL0     C64558   0.132   8.009  -0.141  0.1712 -0.7579  0.6100
  479MOL0     C64559   0.033   8.073  -0.227 -0.6813  0.6575 -0.4167
  479MOL0     O64560  -0.074   8.134  -0.160  0.2601 -0.0170  0.6646
  479MOL0     C64561  -0.173   8.199  -0.235  0.7267  0.4830  0.6206
  479MOL0     C64562  -0.146   8.297  -0.331  0.7416  0.2791  0.4111
  479MOL0     C64563  -0.256   8.358  -0.400 -0.2412 -0.9167 -0.5197
  479MOL0     C64564  -0.387   8.340  -0.351 -0.2566  0.0281  0.6932
  479MOL0     O64565  -0.485   8.418  -0.414  0.2317 -0.1772 -0.1685
  479MOL0     C64566  -0.607   8.353  -0.429 -0.1410 -0.3571 -0.3231
  479MOL0     C64567  -0.687   8.418  -0.540 -0.5702 -0.8168  0.0436
  479MOL0     C64568  -0.608   8.422  -0.676  0.5008  0.3024 -0.1684
  479MOL0     C64569  -0.610   8.282  -0.753  0.2114 -0.6035 -0.1270
  479MOL0     C64570  -0.752   8.224  -0.768 -0.0053  0.1174 -0.6898
  479MOL0     C64571  -0.772   8.110  -0.867  0.7878 -0.3809  0.0321
  479MOL0     C64572  -0.788   8.158  -1.012  0.0997  0.1700 -0.3610
  479MOL0     C64573  -0.928   8.203  -1.040  0.9593  0.0443 -0.9331
  479MOL0    Cl64574  -0.930   8.306  -1.188  0.8975 -0.0840  0.2477
  479MOL0     C64575  -0.414   8.243  -0.248 -0.2496  0.5661  0.1711
  479MOL0     C64576  -0.305   8.180  -0.190 -0.6511  0.8092 -0.3762
  479MOL0     O64577   0.051   8.072  -0.351 -0.4888 -0.2812  1.3406
  479MOL0     C64578   0.122   8.011   0.001 -0.4982 -0.2064 -0.0913
  479MOL0     C64579   0.219   7.940   0.082 -0.0943 -0.9187  0.3683
  479MOL0     N64580   0.883   7.716   0.370  0.6305  0.3198 -0.0251
  479MOL0     N64581   0.947   7.780   0.464 -0.0635  0.4609 -0.3645
  479MOL0     C64582   1.233   7.593   1.545 -0.0704 -0.4887  0.5294
  479MOL0     C64583   1.310   7.638   1.651  0.0434 -0.0290  0.3088
  479MOL0     C64584   1.527   7.877   1.960  0.4514 -0.2223 -0.2274
  479MOL0     C64585   1.665   7.869   1.967  0.5467  0.3017 -0.1393
  479MOL0     C64586   1.739   7.903   2.083  0.4793  0.9463  0.1110
  479MOL0     C64587   1.671   7.961   2.194  0.2123  0.5694 -0.2677
  479MOL0     O64588   1.725   8.003   2.314  0.5590  0.9831 -0.1379
  479MOL0     C64589   1.856   7.980   2.333  0.0330 -0.0367 -0.7211
  479MOL0     C64590   1.895   8.056   2.459 -0.1599 -0.1643 -0.7590
  479MOL0     C64591   2.008   7.996   2.545  0.0026  0.4571 -0.4374
  479MOL0     C64592   2.147   8.017   2.486 -0.3310  0.2738 -0.0058
  479MOL0     C64593   2.253   7.926   2.541 -0.8484  0.1405  0.6342
  479MOL0     C64594   2.332   7.845   2.594  0.1453 -0.3611 -0.2072
  479MOL0     C64595   1.527   7.960   2.187  0.3464 -0.5019  0.1736
  479MOL0     C64596   1.454   7.928   2.070  0.8597  0.1615  0.6955
  479MOL0     C64597   1.302   7.944   2.077 -0.1562 -0.1867 -0.1743
  479MOL0     H64598   1.131   7.913   1.737  2.4537  2.2222 -1.8791
  479MOL0     H64599   0.999   7.840   1.553 -1.8638 -2.9591  0.1231
  479MOL0     H64600   1.164   7.504   1.278  0.2143 -3.3692  1.9228
  479MOL0     H64601   1.063   7.439   1.402  2.3621 -0.4256 -0.6982
  479MOL0     H64602   0.862   7.519   1.263  0.7265 -0.1713  0.7070
  479MOL0     H64603   0.950   7.398   1.184  0.3033 -0.0204  1.3959
  479MOL0     H64604   1.013   7.698   1.133  1.9539 -0.8234  1.5224
  479MOL0     H64605   0.890   7.599   1.045 -0.4487  0.1500 -0.7024
  479MOL0     H64606   1.186   7.517   1.056  0.8634 -1.2880 -2.2451
  479MOL0     H64607   1.054   7.449   0.975  0.3360 -0.2189  0.2972
  479MOL0     H64608   1.154   7.734   0.902 -0.9108  1.8755 -0.3803
  479MOL0     H64609   1.223   7.592   0.822 -1.7608 -0.8938 -1.5451
  479MOL0     H64610   1.066   7.643   0.672 -0.1958  1.3103 -0.4890
  479MOL0     H64611   0.960   7.536   0.776 -0.3126  0.2365 -2.3685
  479MOL0     H64612   0.955   7.796   0.902  0.4832  1.1279 -0.4341
  479MOL0     H64613   0.827   7.701   0.824  1.8331 -2.5837  0.6006
  479MOL0     H64614   0.848   7.925   0.728 -0.8438  1.6429 -3.5926
  479MOL0     H64615   1.011   7.912   0.683 -0.7660  1.0757 -2.0640
  479MOL0     H64616   0.688   7.709   0.642  1.0864  1.9251  1.3706
  479MOL0     H64617   0.743   7.521   0.290 -0.2042 -0.0643  0.2550
  479MOL0     H64618   0.638   7.512   0.433 -0.2396 -1.7995 -0.5161
  479MOL0     H64619   0.540   7.738   0.382 -1.8787  0.0080 -0.8966
  479MOL0     H64620   0.632   7.748   0.230 -1.2961 -1.0385 -2.4596
  479MOL0     H64621   0.453   7.518   0.297  0.1940 -0.7270 -0.7307
  479MOL0     H64622   0.528   7.536   0.142 -3.4914  0.6774 -2.5584
  479MOL0     H64623   0.297   7.720   0.254  1.2734 -0.3652  1.0014
  479MOL0     H64624   0.294   7.617   0.109  0.6476 -1.8838  0.9948
  479MOL0     H64625   0.387   7.779  -0.158 -1.1037 -1.8384  1.2912
  479MOL0     H64626   0.243   7.916  -0.308  2.6307 -1.7559 -0.0511
  479MOL0     H64627  -0.045   8.333  -0.352  1.9956 -3.2983 -0.4091
  479MOL0     H64628  -0.249   8.436  -0.475  2.5546 -1.0174 -0.4790
  479MOL0     H64629  -0.583   8.250  -0.456  3.7487  0.0847  0.8829
  479MOL0     H64630  -0.652   8.363  -0.329  2.7812  0.3451  1.0213
  479MOL0     H64631  -0.780   8.361  -0.552 -0.0321 -1.1094 -5.1528
  479MOL0     H64632  -0.707   8.522  -0.512  0.4439 -0.6937  0.3304
  479MOL0     H64633  -0.656   8.500  -0.736  0.7934  1.3800  0.9489
  479MOL0     H64634  -0.505   8.451  -0.654  0.7558 -0.0140 -0.9312
  479MOL0     H64635  -0.552   8.212  -0.692 -1.7320 -1.6843  0.5464
  479MOL0     H64636  -0.571   8.292  -0.855 -2.0967  0.3022 -0.9729
  479MOL0     H64637  -0.813   8.308  -0.802 -0.0257  0.8787  1.1445
  479MOL0     H64638  -0.780   8.187  -0.669  1.9538 -1.2706 -0.5918
  479MOL0     H64639  -0.683   8.048  -0.850  2.3407  1.5364 -0.7567
  479MOL0     H64640  -0.857   8.045  -0.845  1.2443 -2.0512 -2.6446
  479MOL0     H64641  -0.770   8.081  -1.088  1.3952 -2.8852  2.8063
  479MOL0     H64642  -0.715   8.236  -1.036  0.1913  1.1453  2.6609
  479MOL0     H64643  -1.000   8.122  -1.051 -1.1633  1.8124 -0.8789
  479MOL0     H64644  -0.967   8.264  -0.957  0.6480  2.9925 -3.0718
  479MOL0     H64645  -0.513   8.231  -0.206  0.3774  0.8151  1.7944
  479MOL0     H64646  -0.318   8.116  -0.104  0.4988 -0.4132 -1.0704
  479MOL0     H64647   0.042   8.068   0.047 -1.6714 -2.6667  1.0926
  479MOL0     H64648   0.227   7.947   0.190  3.4927 -0.8175  0.2379
  479MOL0     H64649   1.269   7.511   1.483 -0.0646  0.7147 -1.1189
  479MOL0     H64650   1.401   7.593   1.690  0.1760 -0.8808 -0.9395
  479MOL0     H64651   1.719   7.832   1.880  0.3768 -1.0234  0.2976
  479MOL0     H64652   1.847   7.888   2.083  0.2711 -1.5525  3.1530
  479MOL0     H64653   1.917   8.011   2.248 -1.1880 -1.0565 -2.0065
  479MOL0     H64654   1.875   7.872   2.336  1.8105  0.2337 -0.9603
  479MOL0     H64655   1.805   8.064   2.520  0.7317 -0.4313  0.6518
  479MOL0     H64656   1.920   8.156   2.421 -2.0971  0.6451 -0.0447
  479MOL0     H64657   1.994   7.888   2.547 -1.3935  0.6243 -0.3533
  479MOL0     H64658   1.984   8.029   2.647  0.8048  2.7819 -0.9336
  479MOL0     H64659   2.147   7.996   2.379  0.2111  0.9190 -0.1421
  479MOL0     H64660   2.177   8.123   2.487  0.6513  0.0106 -0.2095
  479MOL0     H64661   2.404   7.783   2.644  0.6492 -0.6965 -1.3118
  479MOL0     H64662   1.481   7.996   2.278 -1.4493 -1.9499 -0.1059
  479MOL0     H64663   1.269   7.957   2.180 -1.6789 -0.7568 -0.5662
  479MOL0     H64664   1.281   8.037   2.024  1.1021  1.7026  2.4163
  479MOL0     H64665   1.240   7.858   2.051 -1.0359  0.4913 -0.3909
  480MOL0     O64666   1.009   5.488   0.070 -0.0588  0.5932 -0.9816
  480MOL0     C64667   1.059   5.504  -0.040  0.2192  0.1589 -0.5696
  480MOL0     O64668   0.992   5.491  -0.159 -0.2815  0.1775  0.4953
  480MOL0     C64669   0.855   5.493  -0.168 -0.2823 -0.3059 -0.8452
  480MOL0     C64670   0.762   5.452  -0.074 -0.0024  0.5108 -0.8272
  480MOL0     C64671   0.625   5.492  -0.071 -0.2741  0.0752  0.5989
  480MOL0     C64672   0.577   5.560  -0.183  0.5787 -0.6456 -0.7310
  480MOL0     O64673   0.438   5.586  -0.208 -0.7452  0.2215 -0.1638
  480MOL0     C64674   0.370   5.650  -0.097  0.0947  0.3585  0.1910
  480MOL0     C64675   0.244   5.708  -0.153  0.1292 -0.9120 -0.3984
  480MOL0     C64676   0.159   5.770  -0.035 -0.0952  0.1243  0.5359
  480MOL0     C64677   0.018   5.810  -0.076 -0.6496  0.2525 -0.1219
  480MOL0     C64678  -0.066   5.876   0.035 -0.9241  0.6565 -0.7358
  480MOL0     C64679  -0.212   5.873   0.003  1.5876 -0.4281  0.4468
  480MOL0     C64680  -0.249   5.965  -0.117 -0.5446  0.0178  0.7213
  480MOL0     C64681  -0.235   6.116  -0.081 -0.3945  0.0951 -0.1227
  480MOL0     N64682  -0.316   6.147   0.037 -0.3948 -1.2986 -0.1728
  480MOL0     C64683  -0.441   6.099   0.067 -0.2909 -0.3618  0.1634
  480MOL0     C64684  -0.490   6.176   0.163  0.4120 -0.6738  0.5542
  480MOL0     C64685  -0.618   6.168   0.234  0.4508 -0.2477 -1.1253
  480MOL0     C64686  -0.619   6.065   0.343  0.3160 -0.5553  0.8741
  480MOL0     C64687  -0.516   6.075   0.453  0.2376 -0.2470 -0.7149
  480MOL0     C64688  -0.515   5.954   0.543 -1.0806  0.3060 -0.7466
  480MOL0     O64689  -0.390   5.962   0.620 -0.0290 -0.3799  0.7000
  480MOL0     C64690  -0.284   5.897   0.552 -0.8041 -0.0928 -0.8093
  480MOL0     C64691  -0.302   5.759   0.542  0.0038 -1.3500 -0.0708
  480MOL0     C64692  -0.205   5.696   0.467 -0.5978  0.3805 -0.3538
  480MOL0     C64693  -0.080   5.764   0.434 -0.8393  0.8096  0.4875
  480MOL0     C64694   0.026   5.687   0.371 -0.3944  0.3759 -0.3847
  480MOL0     O64695   0.115   5.759   0.295  0.2018  0.2749 -0.0166
  480MOL0     C64696   0.248   5.726   0.286 -0.5941 -0.3605 -0.0443
  480MOL0     C64697   0.291   5.596   0.257 -0.8123  0.2363  0.1635
  480MOL0     C64698   0.434   5.579   0.261  0.2170  0.8245 -0.4157
  480MOL0     C64699   0.526   5.681   0.290 -0.0426  0.5514 -0.1660
  480MOL0     O64700   0.659   5.669   0.305  0.2352  0.8041 -0.0254
  480MOL0     C64701   0.712   5.541   0.348 -0.7910 -0.0100 -0.3933
  480MOL0     C64702   0.867   5.548   0.370  1.1743 -1.0144  0.8909
  480MOL0     C64703   0.916   5.640   0.484 -1.1953  0.3657  0.5529
  480MOL0     C64704   0.921   5.792   0.465 -0.2805  1.0201 -0.4855
  480MOL0     C64705   0.970   5.861   0.593  0.3836 -0.6512  0.1583
  480MOL0     C64706   1.113   5.838   0.637 -0.1223  0.5576 -0.0102
  480MOL0     C64707   1.208   5.836   0.525 -0.0661 -0.2687 -0.5140
  480MOL0     C64708   1.213   5.984   0.475 -0.0014  0.8693  0.3301
  480MOL0    Cl64709   1.352   5.986   0.354  0.5887 -0.3860  0.5326
  480MOL0     C64710   0.476   5.811   0.308  0.0062  0.3592 -0.0273
  480MOL0     C64711   0.338   5.836   0.302 -0.7801 -0.3179  0.1506
  480MOL0     O64712   0.022   5.565   0.376 -0.6366  0.5616  0.0538
  480MOL0     C64713  -0.063   5.905   0.449  0.8329 -0.2219 -0.9314
  480MOL0     C64714  -0.171   5.967   0.511 -0.0252  0.2266 -0.3659
  480MOL0     N64715  -0.404   6.278   0.191 -0.4918 -0.4693  0.0035
  480MOL0     N64716  -0.297   6.254   0.113 -0.7998 -0.0148 -0.0669
  480MOL0     C64717   0.664   5.595  -0.285  1.4283 -0.2716  0.6845
  480MOL0     C64718   0.801   5.571  -0.272  0.1850  0.6979 -0.5470
  480MOL0     C64719   1.205   5.520  -0.045  0.1568 -1.2090  0.0255
  480MOL0     C64720   1.277   5.499  -0.164 -1.1297 -0.6801  0.5202
  480MOL0     C64721   1.414   5.506  -0.173  0.2563  0.4054  0.7545
  480MOL0     C64722   1.483   5.549  -0.064 -0.8665  0.5469  1.0566
  480MOL0     O64723   1.618   5.537  -0.080 -0.0309 -0.4862 -0.0443
  480MOL0     C64724   1.694   5.631  -0.001  0.4827 -0.9972  0.1168
  480MOL0     C64725   1.829   5.650  -0.053  0.1002 -0.2660  0.2667
  480MOL0     C64726   1.909   5.766   0.021 -0.7891  0.1975  0.0654
  480MOL0     C64727   2.051   5.765  -0.037 -0.1819  0.0644 -0.1906
  480MOL0     C64728   2.139   5.822   0.070  0.0182  0.3351 -0.1174
  480MOL0     C64729   2.188   5.868   0.169  0.2948 -0.5012 -0.8401
  480MOL0     C64730   1.414   5.599   0.040 -0.2606  0.2381 -0.0202
  480MOL0     C64731   1.277   5.580   0.059  0.6086  0.3175 -0.8291
  480MOL0     C64732   1.218   5.640   0.181  0.1355 -0.0850  0.4099
  480MOL0     H64733   0.803   5.395   0.009  0.0764 -1.3179 -2.0614
  480MOL0     H64734   0.556   5.456   0.005 -2.4507 -0.2491 -1.4011
  480MOL0     H64735   0.346   5.569  -0.027  2.1332 -0.9902 -0.5690
  480MOL0     H64736   0.429   5.719  -0.036  0.9808 -0.0075 -0.2196
  480MOL0     H64737   0.191   5.628  -0.206 -0.2326 -0.0638 -1.3549
  480MOL0     H64738   0.274   5.786  -0.224 -0.6115  0.1836  0.4660
  480MOL0     H64739   0.206   5.867  -0.015 -1.7451  1.2983 -0.9646
  480MOL0     H64740   0.167   5.699   0.047  1.2713 -1.4047 -0.8252
  480MOL0     H64741   0.027   5.880  -0.160 -1.0544 -0.7840 -1.0530
  480MOL0     H64742  -0.021   5.712  -0.105  2.9888 -2.6830  3.6542
  480MOL0     H64743  -0.048   5.821   0.128  1.8361 -0.1865 -1.6935
  480MOL0     H64744  -0.029   5.979   0.039  1.4357 -0.0826 -1.8201
  480MOL0     H64745  -0.239   5.774  -0.035 -2.6480  0.9342 -0.6489
  480MOL0     H64746  -0.269   5.884   0.095  1.9936  0.6453  0.5892
  480MOL0     H64747  -0.353   5.954  -0.149 -0.7238  0.6764  1.0512
  480MOL0     H64748  -0.185   5.946  -0.204 -1.2916  0.5375  0.0392
  480MOL0     H64749  -0.129   6.132  -0.058 -1.1231  1.7177  2.6068
  480MOL0     H64750  -0.259   6.180  -0.166 -0.9703 -0.8967 -0.7252
  480MOL0     H64751  -0.488   6.006   0.036  0.8993 -1.4622  1.5453
  480MOL0     H64752  -0.635   6.264   0.284  0.5228 -1.3398  1.0940
  480MOL0     H64753  -0.697   6.149   0.160 -0.5448  0.3543 -0.2446
  480MOL0     H64754  -0.711   6.090   0.397 -1.2425 -0.7148 -1.5492
  480MOL0     H64755  -0.610   5.965   0.300  0.4044  0.7422 -2.3557
  480MOL0     H64756  -0.558   6.157   0.512  0.4286 -0.4279 -0.3335
  480MOL0     H64757  -0.411   6.093   0.431  0.9787  0.1689  2.7447
  480MOL0     H64758  -0.528   5.863   0.484 -0.3477 -0.3601  0.1009
  480MOL0     H64759  -0.595   5.959   0.617 -0.6555 -0.2655 -0.2476
  480MOL0     H64760  -0.392   5.705   0.570 -3.5206  3.0033 -1.6957
  480MOL0     H64761  -0.224   5.589   0.461 -3.2474  0.7806 -0.2968
  480MOL0     H64762   0.223   5.512   0.247  1.5348 -1.7983  0.2552
  480MOL0     H64763   0.481   5.482   0.247 -1.2299  0.2165 -1.1956
  480MOL0     H64764   0.648   5.512   0.432 -2.5278  1.7511 -1.0479
  480MOL0     H64765   0.696   5.471   0.266 -0.7297 -0.7728  0.2330
  480MOL0     H64766   0.911   5.450   0.390 -0.1996 -1.8445 -0.0034
  480MOL0     H64767   0.909   5.593   0.279 -0.3793  5.9910  3.0132
  480MOL0     H64768   0.874   5.612   0.582  0.0581  0.8014  1.2388
  480MOL0     H64769   1.022   5.615   0.497 -1.0916  0.6514  0.2494
  480MOL0     H64770   0.819   5.829   0.453 -0.6289  0.1532 -0.3402
  480MOL0     H64771   0.972   5.817   0.372 -1.7871 -0.3284 -1.7484
  480MOL0     H64772   0.907   5.825   0.675 -0.3745 -3.1334 -1.3976
  480MOL0     H64773   0.965   5.969   0.575 -0.7314 -0.6955  0.0897
  480MOL0     H64774   1.129   5.923   0.705 -4.3665  1.1687  0.4825
  480MOL0     H64775   1.125   5.754   0.706  1.5514  1.7288  1.2263
  480MOL0     H64776   1.171   5.769   0.447  0.1657 -0.3228 -0.5775
  480MOL0     H64777   1.310   5.807   0.552  0.2749 -1.0188 -2.3931
  480MOL0     H64778   1.121   6.007   0.421 -1.5928 -3.9800  0.4560
  480MOL0     H64779   1.231   6.058   0.553 -2.2428  1.8083  0.0192
  480MOL0     H64780   0.546   5.894   0.319 -1.8574  1.7347  3.0729
  480MOL0     H64781   0.293   5.934   0.314  0.0915 -0.0829  1.7778
  480MOL0     H64782   0.029   5.957   0.425  1.2563 -1.2511 -1.6216
  480MOL0     H64783  -0.168   6.073   0.535 -0.2181  0.4803 -1.3955
  480MOL0     H64784   0.631   5.649  -0.373 -0.0584  1.2934  2.1061
  480MOL0     H64785   0.862   5.611  -0.353  0.1090  1.2071 -0.3588
  480MOL0     H64786   1.216   5.476  -0.251  0.1502 -0.7025 -0.4039
  480MOL0     H64787   1.459   5.479  -0.268 -1.7012 -0.7564  0.0861
  480MOL0     H64788   1.702   5.611   0.107  2.0634  1.1704  0.4725
  480MOL0     H64789   1.641   5.726  -0.008 -0.1371 -1.2257  1.3255
  480MOL0     H64790   1.811   5.678  -0.157 -1.3486 -0.1748  0.5256
  480MOL0     H64791   1.886   5.556  -0.054 -0.5080 -0.6393  0.1966
  480MOL0     H64792   1.926   5.748   0.128  2.9539  3.0442  0.1509
  480MOL0     H64793   1.850   5.857   0.004 -0.3973  0.3740 -0.3458
  480MOL0     H64794   2.080   5.662  -0.060 -2.6962 -0.7320 -0.0843
  480MOL0     H64795   2.057   5.824  -0.130 -1.3110 -1.6702 -1.4150
  480MOL0     H64796   2.241   5.907   0.254  0.9633 -1.6227 -0.7223
  480MOL0     H64797   1.472   5.658   0.109  1.7695 -1.2842 -0.3322
  480MOL0     H64798   1.270   5.725   0.227 -1.3525  1.0839  0.0215
  480MOL0     H64799   1.130   5.697   0.151  0.4736  0.5758  0.6503
  480MOL0     H64800   1.194   5.566   0.258 -0.7991  2.8687  3.1933
  481MOL0     O64801   3.897   3.556   9.722 -0.4407  0.1181 -0.4191
  481MOL0     C64802   3.839   3.570   9.828  0.2292 -0.4685  0.5841
  481MOL0     O64803   3.905   3.578   9.948 -0.1585 -0.6301  0.3006
  481MOL0     C64804   4.032   3.534   9.955 -0.2037  0.5936 -1.2012
  481MOL0     C64805   4.072   3.395   9.959 -0.8230  0.1300 -0.1163
  481MOL0     C64806   4.209   3.354   9.978  0.7358  0.0306  0.1357
  481MOL0     C64807   4.315   3.446   9.994  0.5203  0.8347  0.3578
  481MOL0     O64808   4.438   3.408  10.029  0.3825  0.3907 -0.2235
  481MOL0     C64809   4.557   3.461   9.956  0.2017  0.4153 -0.4808
  481MOL0     C64810   4.678   3.371  10.004  0.3914  0.2421  0.1796
  481MOL0     C64811   4.785   3.338   9.904 -0.7543  0.2729  0.3596
  481MOL0     C64812   4.924   3.292   9.969  0.1018 -0.6285  1.1786
  481MOL0     C64813   5.012   3.237   9.853  0.3499  0.5101  0.1452
  481MOL0     C64814   5.156   3.219   9.903  0.2694 -1.4343 -0.0075
  481MOL0     C64815   5.181   3.156  10.044 -0.4902  0.0759 -0.2788
  481MOL0     C64816   5.327   3.123  10.065 -0.7757  0.1647 -0.5227
  481MOL0     N64817   5.415   3.236  10.030  0.5637 -0.0583 -0.3890
  481MOL0     C64818   5.431   3.347  10.105 -0.1963  0.5859  0.6967
  481MOL0     C64819   5.525   3.419  10.049 -0.0061 -0.2358  0.2868
  481MOL0     C64820   5.600   3.544  10.112 -0.0386 -0.2859 -0.6501
  481MOL0     C64821   5.683   3.514  10.238 -0.3430  0.5231 -0.3294
  481MOL0     C64822   5.810   3.439  10.208  0.1915 -1.2806 -0.4178
  481MOL0     C64823   5.895   3.408  10.328 -0.0179  0.2277 -0.4166
  481MOL0     O64824   5.955   3.527  10.377  0.7124  0.1512  0.4399
  481MOL0     C64825   6.068   3.510  10.448  0.3708 -0.1836 -0.5496
  481MOL0     C64826   6.138   3.626  10.489  0.1787  0.3180  1.0904
  481MOL0     C64827   6.252   3.618  10.573 -0.0495  0.5112  0.4686
  481MOL0     C64828   6.302   3.497  10.625  0.3592 -0.0073 -0.7699
  481MOL0     C64829   6.435   3.484  10.698 -0.3764 -0.3113  0.1397
  481MOL0     O64830   6.500   3.370  10.688  0.2858 -0.0931 -0.7848
  481MOL0     C64831   6.601   3.339  10.777 -0.6167  0.3658  0.2358
  481MOL0     C64832   6.674   3.221  10.745  0.0720 -0.0898 -0.4100
  481MOL0     C64833   6.779   3.179  10.831  0.3781 -0.3497  0.0432
  481MOL0     C64834   6.807   3.240  10.944 -0.3450 -0.1233 -0.2161
  481MOL0     O64835   6.915   3.208  11.025  1.2362 -0.5618  0.4454
  481MOL0     C64836   6.937   3.068  11.034 -0.0473  0.0671 -0.3904
  481MOL0     C64837   7.032   3.048  11.146  0.0419  0.0586  0.6453
  481MOL0     C64838   7.153   3.141  11.140 -0.4920 -0.7908  0.9796
  481MOL0     C64839   7.239   3.136  11.015  0.7599  0.3175  0.1031
  481MOL0     C64840   7.357   3.221  11.032 -0.3488  0.1695  0.2663
  481MOL0     C64841   7.431   3.223  10.900  0.1523 -0.4049 -0.0906
  481MOL0     C64842   7.566   3.296  10.911 -1.6786  0.3242  0.0974
  481MOL0     C64843   7.635   3.298  10.771 -0.3862  0.3526  0.5508
  481MOL0    Cl64844   7.809   3.280  10.769  0.0213 -0.0333 -0.1687
  481MOL0     C64845   6.732   3.351  10.980 -1.0611 -0.2183  1.0714
  481MOL0     C64846   6.619   3.395  10.901 -0.0715  0.3649 -0.9162
  481MOL0     O64847   6.475   3.578  10.756 -0.0596 -0.3067  0.9831
  481MOL0     C64848   6.231   3.376  10.586  0.7619 -0.3222 -0.1332
  481MOL0     C64849   6.111   3.388  10.507 -0.2789 -0.4419  0.7470
  481MOL0     N64850   5.579   3.340   9.951  0.2627 -0.1907  0.2585
  481MOL0     N64851   5.506   3.238   9.933 -0.3896  0.5414 -0.7883
  481MOL0     C64852   4.280   3.581   9.973 -0.1951  0.5961  0.0007
  481MOL0     C64853   4.145   3.621   9.958 -0.2972  0.1231 -0.4550
  481MOL0     C64854   3.701   3.599   9.829 -0.5457 -0.4234  0.2398
  481MOL0     C64855   3.638   3.679   9.728 -0.3954 -0.3733 -1.0368
  481MOL0     C64856   3.498   3.693   9.735  0.2139  0.1221  0.9769
  481MOL0     C64857   3.427   3.651   9.845  0.4246 -0.2232  0.5122
  481MOL0     O64858   3.305   3.689   9.874  0.5707 -0.0685  0.0510
  481MOL0     C64859   3.242   3.800   9.803 -0.3616 -0.3203 -0.0543
  481MOL0     C64860   3.295   3.932   9.869 -0.0615  0.2245  0.1040
  481MOL0     C64861   3.222   4.054   9.808  1.1062  0.7092  0.8539
  481MOL0     C64862   3.250   4.070   9.658 -0.9687 -0.2964 -0.2701
  481MOL0     C64863   3.392   4.095   9.623  0.2110 -0.2865  0.2113
  481MOL0     C64864   3.510   4.125   9.611 -0.6308 -0.4246  0.3435
  481MOL0     C64865   3.490   3.565   9.933 -0.0082 -0.1597 -0.1232
  481MOL0     C64866   3.624   3.537   9.926 -0.1687  0.3014  0.2582
  481MOL0     C64867   3.678   3.441  10.033  0.1917 -0.4569 -0.3939
  481MOL0     H64868   3.995   3.319   9.970  1.0493 -1.7080  0.9293
  481MOL0     H64869   4.232   3.251  10.002  3.5338  0.6297  0.3838
  481MOL0     H64870   4.552   3.462   9.847  1.6204 -0.2347 -0.5826
  481MOL0     H64871   4.572   3.567   9.977  0.0263  0.7730 -2.0458
  481MOL0     H64872   4.650   3.274  10.048  1.4556 -1.3165 -2.3378
  481MOL0     H64873   4.717   3.428  10.089 -1.1638  1.0232  0.4018
  481MOL0     H64874   4.803   3.431   9.849  0.0234  1.1947  2.1058
  481MOL0     H64875   4.754   3.264   9.829 -2.2650  0.1867  1.0268
  481MOL0     H64876   4.975   3.383  10.002 -0.0701  1.7073 -4.0526
  481MOL0     H64877   4.899   3.214  10.042 -1.0083 -1.2455  0.1873
  481MOL0     H64878   4.968   3.143   9.817  0.1525  1.6048 -2.7057
  481MOL0     H64879   5.008   3.291   9.758 -2.4639 -2.2531 -1.4892
  481MOL0     H64880   5.207   3.156   9.829  2.3896  0.2350 -0.0781
  481MOL0     H64881   5.200   3.319   9.897 -1.6187 -0.5247  0.7007
  481MOL0     H64882   5.116   3.072  10.068 -0.1615  0.1707  1.0328
  481MOL0     H64883   5.157   3.233  10.119  0.5008 -0.8529  1.0547
  481MOL0     H64884   5.348   3.098  10.169  1.9310  0.5139 -0.8925
  481MOL0     H64885   5.358   3.035  10.008  1.1268  0.9154 -0.7288
  481MOL0     H64886   5.377   3.367  10.197 -0.2709 -2.4069  1.3906
  481MOL0     H64887   5.652   3.596  10.032 -3.0453  2.3167 -1.0930
  481MOL0     H64888   5.530   3.623  10.140  0.0061 -0.5817  0.3671
  481MOL0     H64889   5.700   3.613  10.282 -0.6961  0.8561 -0.9339
  481MOL0     H64890   5.623   3.459  10.312  1.8094 -0.2472  0.9527
  481MOL0     H64891   5.869   3.506  10.145  0.2644 -0.4078  0.5533
  481MOL0     H64892   5.792   3.346  10.153  0.5372 -0.9087 -1.1763
  481MOL0     H64893   5.973   3.340  10.294  1.4229  0.8772  1.4264
  481MOL0     H64894   5.831   3.361  10.404  3.5987 -4.0834  0.4163
  481MOL0     H64895   6.102   3.719  10.448 -0.6974 -0.0473  1.0251
  481MOL0     H64896   6.308   3.705  10.605  0.8543  0.3479 -0.5868
  481MOL0     H64897   6.649   3.164  10.656 -1.9110  2.0108 -1.3039
  481MOL0     H64898   6.838   3.097  10.790  0.5208 -1.6188  2.6153
  481MOL0     H64899   6.844   3.017  11.062 -0.7646  0.0141 -2.6844
  481MOL0     H64900   6.962   3.016  10.942 -1.2478 -1.9394  0.3550
  481MOL0     H64901   6.978   3.068  11.239  0.3808 -0.4622  0.9562
  481MOL0     H64902   7.068   2.945  11.152  0.6375  0.2243  0.0092
  481MOL0     H64903   7.120   3.244  11.160 -0.3693 -0.0962 -1.9547
  481MOL0     H64904   7.211   3.101  11.224 -1.2338  0.5882  2.2155
  481MOL0     H64905   7.184   3.166  10.926 -0.0150  1.6274  0.9740
  481MOL0     H64906   7.270   3.033  10.997 -1.2425 -0.6974  1.9788
  481MOL0     H64907   7.411   3.175  11.116 -3.7997 -0.5201  2.3027
  481MOL0     H64908   7.334   3.324  11.060 -0.3400 -0.1050  1.3448
  481MOL0     H64909   7.445   3.121  10.862  1.8224 -0.9122  1.6835
  481MOL0     H64910   7.367   3.283  10.834 -1.4119 -0.0782  1.6411
  481MOL0     H64911   7.641   3.235  10.962 -2.7251 -2.1908 -1.1960
  481MOL0     H64912   7.565   3.395  10.958  0.3512  1.1300 -1.4015
  481MOL0     H64913   7.587   3.217  10.715 -3.0425  2.2541 -0.1326
  481MOL0     H64914   7.616   3.397  10.728  0.8812  0.6259  0.5881
  481MOL0     H64915   6.747   3.385  11.081  0.5360  0.2771  0.6922
  481MOL0     H64916   6.554   3.470  10.944  3.7863  0.7086  5.7782
  481MOL0     H64917   6.270   3.288  10.637  2.1441  0.9933  1.1968
  481MOL0     H64918   6.046   3.302  10.493 -1.1877  0.6037 -2.2313
  481MOL0     H64919   4.362   3.648   9.996  1.1832 -1.7362  2.5031
  481MOL0     H64920   4.134   3.728   9.942  1.1046  0.4519  0.6157
  481MOL0     H64921   3.698   3.723   9.648  0.6969  1.1213  0.5449
  481MOL0     H64922   3.445   3.739   9.652 -0.8646 -0.0745  1.5453
  481MOL0     H64923   3.136   3.782   9.824 -0.2144 -0.2351  0.7954
  481MOL0     H64924   3.258   3.798   9.695  4.0311 -3.4013  0.3949
  481MOL0     H64925   3.403   3.951   9.863 -0.2306  1.2018  0.1322
  481MOL0     H64926   3.275   3.921   9.976 -1.1891  0.6066 -0.0519
  481MOL0     H64927   3.249   4.141   9.869 -1.2338  2.3160 -0.2188
  481MOL0     H64928   3.115   4.038   9.828  1.1274 -0.5720  0.0059
  481MOL0     H64929   3.224   3.981   9.599 -1.3620 -0.8644  0.7355
  481MOL0     H64930   3.178   4.146   9.628 -3.1563 -0.2904  4.2114
  481MOL0     H64931   3.617   4.127   9.605 -0.6383  2.3871 -0.0410
  481MOL0     H64932   3.425   3.529  10.012 -1.2068 -1.8121 -1.7829
  481MOL0     H64933   3.707   3.487  10.128 -0.4785 -0.9864  0.0754
  481MOL0     H64934   3.606   3.362  10.054 -1.1996  0.8555 -0.0346
  481MOL0     H64935   3.765   3.383  10.001  1.7151  0.7574  1.3056
  482MOL0     O64936   5.744   3.324   1.106 -0.6140  0.1712 -0.3521
  482MOL0     C64937   5.661   3.367   1.190 -0.0243  0.6441  0.0076
  482MOL0     O64938   5.684   3.393   1.318 -0.1944  0.3936 -0.2126
  482MOL0     C64939   5.815   3.365   1.364 -0.0380 -0.3748 -0.0183
  482MOL0     C64940   5.862   3.462   1.464 -0.6637  0.1980 -0.5935
  482MOL0     C64941   5.982   3.432   1.540  0.2230 -0.4101  0.1102
  482MOL0     C64942   6.052   3.317   1.507  0.0981 -0.5504  0.3439
  482MOL0     O64943   6.166   3.273   1.570  0.0354  0.8938 -0.2067
  482MOL0     C64944   6.254   3.372   1.618 -0.2166 -0.8776 -0.1046
  482MOL0     C64945   6.389   3.306   1.612  0.9012  0.6671 -0.7162
  482MOL0     C64946   6.413   3.184   1.705  0.2251 -0.3456  0.0233
  482MOL0     C64947   6.560   3.171   1.738 -0.4429 -0.0421  0.7319
  482MOL0     C64948   6.571   3.037   1.815 -0.7841 -0.3908  0.3354
  482MOL0     C64949   6.702   3.053   1.898 -0.3963  0.4867  0.4702
  482MOL0     C64950   6.742   2.922   1.971  0.0123  0.6389  0.0214
  482MOL0     C64951   6.848   2.841   1.893 -0.5454 -0.6104  0.1934
  482MOL0     N64952   6.985   2.897   1.874 -0.4729 -0.1751 -0.5762
  482MOL0     C64953   7.045   3.018   1.918 -0.1139 -0.0006  0.2968
  482MOL0     C64954   7.179   3.003   1.895 -0.3094  0.5651 -1.2466
  482MOL0     C64955   7.270   3.110   1.943 -0.0201  0.6137  0.7602
  482MOL0     C64956   7.323   3.181   1.814 -0.0554 -0.3766 -0.5755
  482MOL0     C64957   7.435   3.100   1.748  0.3810 -0.2435 -0.3556
  482MOL0     C64958   7.572   3.128   1.800 -0.3263  0.1485 -0.0277
  482MOL0     O64959   7.664   3.062   1.711 -1.0860  0.5988  0.0239
  482MOL0     C64960   7.799   3.095   1.706  0.8036 -0.2622 -0.1943
  482MOL0     C64961   7.879   3.032   1.611 -0.0044  0.0062 -0.4370
  482MOL0     C64962   8.012   3.061   1.598  0.1560  0.6434  0.5550
  482MOL0     C64963   8.069   3.155   1.690 -0.4257 -0.1570  0.3511
  482MOL0     C64964   8.207   3.182   1.674 -0.7658 -0.3222  0.1908
  482MOL0     O64965   8.251   3.282   1.754 -0.7248 -0.2120 -0.6294
  482MOL0     C64966   8.387   3.321   1.753 -0.2993  0.0018 -0.5367
  482MOL0     C64967   8.492   3.233   1.740 -0.0658  0.0761 -0.3843
  482MOL0     C64968   8.626   3.277   1.749  0.0521 -0.1428 -0.0896
  482MOL0     C64969   8.654   3.412   1.770  0.4503 -0.9647  0.3499
  482MOL0     O64970   8.775   3.466   1.793  0.3369 -0.2209  0.1659
  482MOL0     C64971   8.888   3.398   1.843  0.6257  0.1262 -0.7681
  482MOL0     C64972   9.002   3.491   1.795 -0.5988  0.4204 -0.9557
  482MOL0     C64973   9.142   3.412   1.795 -0.4488  1.2479 -0.5713
  482MOL0     C64974   9.200   3.388   1.938 -0.3377 -0.1975 -0.8458
  482MOL0     C64975   9.341   3.328   1.935 -0.3205  0.0544 -0.1461
  482MOL0     C64976   9.379   3.292   2.087 -0.0872 -0.4663  0.3166
  482MOL0     C64977   9.498   3.198   2.102  0.1438  0.2494 -0.4269
  482MOL0     C64978   9.464   3.052   2.084  0.1771 -0.1628  0.3956
  482MOL0    Cl64979   9.598   2.947   2.137  0.0187  0.1304  0.2798
  482MOL0     C64980   8.542   3.505   1.771  0.0576 -0.0327  0.1108
  482MOL0     C64981   8.412   3.460   1.766 -0.1614 -0.2972 -0.3143
  482MOL0     O64982   8.275   3.123   1.593 -0.2561 -0.3060 -0.2736
  482MOL0     C64983   7.990   3.227   1.772 -0.7550  0.3859  0.5725
  482MOL0     C64984   7.854   3.198   1.780  0.3994  0.3860 -0.7262
  482MOL0     N64985   7.202   2.883   1.836  0.0635 -0.0068  0.6497
  482MOL0     N64986   7.086   2.822   1.831  0.2806 -0.8175 -0.0600
  482MOL0     C64987   5.999   3.224   1.419 -0.0743 -1.0936  0.3847
  482MOL0     C64988   5.881   3.240   1.344 -0.5503  0.4159 -0.6865
  482MOL0     C64989   5.521   3.359   1.162 -0.5378 -0.4587  0.0709
  482MOL0     C64990   5.428   3.370   1.273  0.1498 -0.3042  0.3771
  482MOL0     C64991   5.295   3.348   1.259  0.7300  0.6757 -0.1743
  482MOL0     C64992   5.245   3.323   1.133  0.1504  0.7784  0.0267
  482MOL0     O64993   5.104   3.304   1.123 -0.4012  0.5553  0.3163
  482MOL0     C64994   5.073   3.169   1.157 -0.4697  0.4936  0.6071
  482MOL0     C64995   4.932   3.143   1.109 -0.1028 -0.8596 -0.3516
  482MOL0     C64996   4.842   3.234   1.208  0.2171 -0.4952 -0.5987
  482MOL0     C64997   4.686   3.220   1.172  0.1381  0.3153  0.2934
  482MOL0     C64998   4.632   3.083   1.182 -0.1489  0.3929  0.3294
  482MOL0     C64999   4.581   2.975   1.183 -0.4863  0.3612  0.0420
  482MOL0     C65000   5.333   3.328   1.023 -0.0996 -0.3954  0.9484
  482MOL0     C65001   5.471   3.343   1.030  0.7454  0.2663  0.2653
  482MOL0     C65002   5.542   3.334   0.901  0.1567  0.7184  0.9654
  482MOL0     H65003   5.805   3.551   1.485 -1.4301 -0.4375  0.1023
  482MOL0     H65004   6.029   3.510   1.600  2.1957 -1.8223  0.4997
  482MOL0     H65005   6.263   3.465   1.562  1.6371 -0.0319  1.5105
  482MOL0     H65006   6.218   3.397   1.718  1.5116 -5.1783  1.8453
  482MOL0     H65007   6.448   3.393   1.641  1.5769  0.1720 -0.5770
  482MOL0     H65008   6.409   3.270   1.511  2.2210  0.6897 -0.4878
  482MOL0     H65009   6.359   3.098   1.667 -2.0930  1.1447 -0.2427
  482MOL0     H65010   6.359   3.207   1.797 -2.6455  2.1620 -2.0402
  482MOL0     H65011   6.629   3.167   1.653 -1.5256  0.4544 -0.1944
  482MOL0     H65012   6.594   3.260   1.792  3.6377  0.4496 -2.1289
  482MOL0     H65013   6.487   3.023   1.883 -0.3045  0.1774  1.0723
  482MOL0     H65014   6.562   2.953   1.746 -4.5672 -0.3950  0.6161
  482MOL0     H65015   6.788   3.098   1.848  0.3133 -2.2634 -0.9822
  482MOL0     H65016   6.670   3.124   1.975 -0.2471  0.7944  0.2535
  482MOL0     H65017   6.661   2.850   1.987  0.9728 -0.7752 -1.1850
  482MOL0     H65018   6.781   2.953   2.068  0.4944 -1.0726  0.4061
  482MOL0     H65019   6.863   2.750   1.952  0.4707  1.0177  2.6126
  482MOL0     H65020   6.828   2.817   1.788  2.7692 -2.3962 -0.1706
  482MOL0     H65021   6.994   3.093   1.978  1.7719  0.3010  1.6087
  482MOL0     H65022   7.225   3.177   2.018  0.3861  1.6109  0.1312
  482MOL0     H65023   7.362   3.078   1.994 -0.8120 -1.5930  0.8832
  482MOL0     H65024   7.238   3.206   1.749 -1.3503  0.5725  1.3702
  482MOL0     H65025   7.364   3.280   1.838 -1.4891  0.2849 -0.7417
  482MOL0     H65026   7.434   3.115   1.639  0.3216 -2.0772 -0.6370
  482MOL0     H65027   7.407   2.994   1.751 -1.9549  0.3009  3.0644
  482MOL0     H65028   7.576   3.094   1.904  0.4537  1.1728  0.3065
  482MOL0     H65029   7.594   3.236   1.797 -2.7190  0.6758 -1.6297
  482MOL0     H65030   7.836   2.951   1.552  0.3724 -0.1254 -0.5296
  482MOL0     H65031   8.064   3.012   1.517 -1.0558 -0.7673  0.5938
  482MOL0     H65032   8.469   3.127   1.728 -1.5550  0.4357 -0.9928
  482MOL0     H65033   8.698   3.196   1.741 -0.2531 -0.4842  0.5405
  482MOL0     H65034   8.874   3.401   1.952  0.9111 -2.1662 -0.6156
  482MOL0     H65035   8.897   3.295   1.808 -2.7875 -0.4904 -0.2044
  482MOL0     H65036   8.981   3.527   1.694  1.5619 -0.2802 -1.7218
  482MOL0     H65037   9.013   3.573   1.866 -1.4390  1.7258 -2.2999
  482MOL0     H65038   9.137   3.319   1.738  2.8487  0.4723  0.2269
  482MOL0     H65039   9.215   3.459   1.727  0.3684 -3.4698 -3.3884
  482MOL0     H65040   9.134   3.323   1.997  0.1997 -0.8754 -0.9781
  482MOL0     H65041   9.199   3.484   1.990 -0.2794 -1.2679  1.2471
  482MOL0     H65042   9.415   3.399   1.898 -2.6803  2.0540 -1.3291
  482MOL0     H65043   9.337   3.237   1.875  0.6541 -0.1254  0.0480
  482MOL0     H65044   9.395   3.382   2.147 -2.8534 -0.7724  1.7120
  482MOL0     H65045   9.296   3.241   2.137  0.2195 -0.0269  1.2944
  482MOL0     H65046   9.539   3.207   2.202 -0.6917  0.1810 -0.0679
  482MOL0     H65047   9.582   3.215   2.034  1.0708 -1.2188  0.3171
  482MOL0     H65048   9.381   3.018   2.146  0.3929 -3.7620 -1.0944
  482MOL0     H65049   9.431   3.033   1.982 -2.4159 -0.8578  1.3008
  482MOL0     H65050   8.561   3.612   1.772  2.4654 -0.3548 -2.0052
  482MOL0     H65051   8.329   3.526   1.789  1.3472  2.4187 -2.0457
  482MOL0     H65052   8.037   3.313   1.817 -0.5163  0.9388 -0.6995
  482MOL0     H65053   7.806   3.252   1.861  1.0521 -0.9715  0.6046
  482MOL0     H65054   6.053   3.132   1.399 -1.4837 -2.7435  3.4779
  482MOL0     H65055   5.834   3.166   1.279 -1.7102  0.4683  0.0592
  482MOL0     H65056   5.457   3.399   1.374  0.0196  0.7593  0.1152
  482MOL0     H65057   5.237   3.360   1.350  1.3202 -3.5751  1.0129
  482MOL0     H65058   5.094   3.139   1.260 -2.3380 -2.0359  0.3472
  482MOL0     H65059   5.133   3.102   1.096 -1.0863 -0.1342  0.6729
  482MOL0     H65060   4.901   3.040   1.125 -0.8934 -0.8361 -1.6258
  482MOL0     H65061   4.918   3.177   1.006 -0.0676  2.9031  0.7311
  482MOL0     H65062   4.868   3.340   1.214 -0.7105 -0.3341  1.2908
  482MOL0     H65063   4.844   3.193   1.310  0.4099 -1.1048 -0.8457
  482MOL0     H65064   4.634   3.279   1.247  3.9276  0.1002  3.4274
  482MOL0     H65065   4.664   3.248   1.068  0.0099  0.4985  0.3690
  482MOL0     H65066   4.531   2.881   1.194 -0.5805  0.5975  2.1226
  482MOL0     H65067   5.297   3.321   0.921  0.6583 -0.6033  0.6878
  482MOL0     H65068   5.604   3.424   0.892  0.2588  0.5360 -0.5174
  482MOL0     H65069   5.604   3.243   0.899 -0.5885  0.1561 -1.9301
  482MOL0     H65070   5.478   3.324   0.813 -0.9202  3.4527  1.3436
  483MOL0     O65071   8.259   8.637   0.990 -0.2321  0.7247  0.1115
  483MOL0     C65072   8.232   8.654   0.866  0.7588  0.9963 -0.0446
  483MOL0     O65073   8.323   8.649   0.768  0.1678  0.5638  0.8402
  483MOL0     C65074   8.460   8.645   0.797  0.3187 -0.4708 -0.8042
  483MOL0     C65075   8.516   8.523   0.834  0.5330 -0.6484  0.4937
  483MOL0     C65076   8.646   8.507   0.878  0.3533 -1.1171 -0.4490
  483MOL0     C65077   8.727   8.623   0.888 -0.2752  0.9660 -0.5240
  483MOL0     O65078   8.855   8.599   0.931  0.2742 -0.2971 -0.4790
  483MOL0     C65079   8.953   8.703   0.947 -0.1077 -0.2870  0.5559
  483MOL0     C65080   9.090   8.645   0.993 -0.9972  0.8016  0.7513
  483MOL0     C65081   9.148   8.538   0.900  0.0279  0.3842  0.0373
  483MOL0     C65082   9.274   8.488   0.955  1.1577 -0.4081  0.5209
  483MOL0     C65083   9.344   8.386   0.863  0.8587  0.4511  0.4627
  483MOL0     C65084   9.477   8.343   0.913  0.1900  0.1129 -0.1871
  483MOL0     C65085   9.561   8.251   0.812 -0.2277 -0.7876 -0.5028
  483MOL0     C65086   9.640   8.341   0.707  0.2319 -0.2002  0.1677
  483MOL0     N65087   9.777   8.383   0.734  0.5159  0.4952 -0.2000
  483MOL0     C65088   9.825   8.404   0.860 -0.9595 -0.5547 -0.0441
  483MOL0     C65089   9.958   8.404   0.847  0.1596  0.9487  0.6673
  483MOL0     C65090  10.057   8.421   0.958  0.5199 -0.3395 -0.0264
  483MOL0     C65091  10.068   8.569   1.005  0.0934  0.6575 -0.3444
  483MOL0     C65092  10.146   8.578   1.138 -0.5320 -0.3196  0.1556
  483MOL0     C65093  10.128   8.726   1.191 -0.2606  0.2263  0.5578
  483MOL0     O65094  10.244   8.760   1.273 -0.1332  0.4647  0.4475
  483MOL0     C65095  10.363   8.802   1.221 -0.8148 -0.3582 -0.0060
  483MOL0     C65096  10.458   8.834   1.316 -0.1566 -0.4822 -0.6807
  483MOL0     C65097  10.585   8.871   1.282 -1.2971 -0.7457  0.1038
  483MOL0     C65098  10.631   8.864   1.153  0.0383  1.4507  0.0408
  483MOL0     C65099  10.771   8.901   1.111 -0.0172 -0.7382 -0.3577
  483MOL0     O65100  10.817   8.852   0.993 -0.1641  0.1796  0.4060
  483MOL0     C65101  10.947   8.882   0.946 -0.1863 -0.1826  0.1327
  483MOL0     C65102  11.013   8.780   0.868 -0.3919 -0.0654 -0.5398
  483MOL0     C65103  11.137   8.801   0.809 -0.6093 -0.3110 -0.1202
  483MOL0     C65104  11.196   8.929   0.807  0.2776 -0.0663  0.2773
  483MOL0     O65105  11.328   8.935   0.758 -0.7923 -0.0029  0.1588
  483MOL0     C65106  11.408   9.054   0.769 -0.1071 -0.0719 -0.2322
  483MOL0     C65107  11.527   9.025   0.677 -0.1800 -0.6214  0.6548
  483MOL0     C65108  11.610   9.152   0.664  0.4369  0.2722  0.3134
  483MOL0     C65109  11.680   9.190   0.804 -0.0854  0.0161  0.7697
  483MOL0     C65110  11.794   9.288   0.772  0.3991 -0.3629 -0.1782
  483MOL0     C65111  11.747   9.424   0.721  1.4047 -0.7659 -0.6257
  483MOL0     C65112  11.855   9.535   0.723  0.0812  0.4731  0.8980
  483MOL0     C65113  11.793   9.668   0.677 -0.7537 -0.5690 -0.0870
  483MOL0    Cl65114  11.915   9.805   0.707 -0.4142  0.2504 -0.5988
  483MOL0     C65115  11.132   9.023   0.883 -0.1872 -0.4038 -0.2421
  483MOL0     C65116  11.010   9.005   0.941  0.4697  0.5364 -0.3505
  483MOL0     O65117  10.842   8.975   1.179  0.0152 -0.1931  0.0587
  483MOL0     C65118  10.540   8.830   1.056 -0.0361  0.1653  0.5466
  483MOL0     C65119  10.406   8.809   1.085 -0.1999  0.1498 -0.1749
  483MOL0     N65120   9.990   8.393   0.715 -0.4372 -0.0735  0.1447
  483MOL0     N65121   9.877   8.381   0.644  0.2971 -0.6988  0.3593
  483MOL0     C65122   8.681   8.744   0.841  1.2247  0.6108 -0.1905
  483MOL0     C65123   8.542   8.759   0.808 -0.0655  0.1033  0.0811
  483MOL0     C65124   8.088   8.691   0.832 -0.1323  0.0482 -0.7558
  483MOL0     C65125   7.999   8.750   0.929 -0.5270  0.2532  0.0044
  483MOL0     C65126   7.860   8.782   0.899  0.6248  0.6609 -0.1000
  483MOL0     C65127   7.805   8.760   0.777 -0.0580 -0.3629  0.2896
  483MOL0     O65128   7.675   8.799   0.749  0.0836  0.4058 -0.4197
  483MOL0     C65129   7.574   8.731   0.821 -1.1192 -0.5909 -0.0994
  483MOL0     C65130   7.443   8.792   0.779 -0.3743 -0.5142  0.3648
  483MOL0     C65131   7.323   8.707   0.815  0.1032 -0.4599  0.1761
  483MOL0     C65132   7.202   8.760   0.735 -0.1400 -0.6256 -0.3040
  483MOL0     C65133   7.175   8.903   0.767 -0.3847  0.6591  0.1624
  483MOL0     C65134   7.175   9.022   0.781  0.0547 -0.3825 -0.1677
  483MOL0     C65135   7.893   8.712   0.679  0.0889 -0.0259 -0.5425
  483MOL0     C65136   8.032   8.677   0.705  0.2748 -0.3653 -0.2810
  483MOL0     C65137   8.102   8.600   0.592 -0.6739 -0.2120  0.2729
  483MOL0     H65138   8.450   8.437   0.825  0.2770 -0.5200  1.1386
  483MOL0     H65139   8.682   8.409   0.908  2.5385 -0.5562 -1.0662
  483MOL0     H65140   8.966   8.760   0.855 -1.1445  0.0611  0.6049
  483MOL0     H65141   8.912   8.769   1.024 -0.9124 -1.1151  0.8633
  483MOL0     H65142   9.069   8.592   1.086  0.1645  1.4286  1.4002
  483MOL0     H65143   9.155   8.729   1.017 -0.9304  0.0549  3.5186
  483MOL0     H65144   9.163   8.592   0.807 -0.8141  1.8443  0.7146
  483MOL0     H65145   9.078   8.454   0.887  2.9460 -2.2084  0.0615
  483MOL0     H65146   9.337   8.577   0.968  0.5711 -0.1188  1.4353
  483MOL0     H65147   9.266   8.429   1.047  1.0649 -1.1074  0.0735
  483MOL0     H65148   9.284   8.294   0.867  3.5516 -1.4806 -0.2368
  483MOL0     H65149   9.339   8.416   0.758 -1.3370 -3.4318 -0.7507
  483MOL0     H65150   9.529   8.424   0.964 -1.2202 -0.7599  2.9106
  483MOL0     H65151   9.458   8.274   0.996  0.4817  0.6706  0.3520
  483MOL0     H65152   9.491   8.185   0.759 -1.6670 -1.3809  1.9214
  483MOL0     H65153   9.623   8.181   0.868  1.6806  2.4431  1.7247
  483MOL0     H65154   9.648   8.275   0.619 -2.8880 -0.3087 -0.1437
  483MOL0     H65155   9.587   8.429   0.670  0.8725  1.0039  2.0125
  483MOL0     H65156   9.766   8.421   0.950 -0.2169 -0.0145  0.3622
  483MOL0     H65157  10.035   8.346   1.034  1.6667 -0.6951 -0.0306
  483MOL0     H65158  10.158   8.385   0.938  1.1980 -0.5695  3.2358
  483MOL0     H65159  10.121   8.634   0.934 -0.3762  0.5459 -0.7995
  483MOL0     H65160   9.974   8.619   1.031 -0.3338 -0.1668 -0.2842
  483MOL0     H65161  10.251   8.548   1.126 -0.5898 -0.7853  0.7755
  483MOL0     H65162  10.101   8.514   1.215 -1.6380  1.2310  0.8297
  483MOL0     H65163  10.031   8.737   1.241 -1.0704  0.7000 -1.0460
  483MOL0     H65164  10.117   8.791   1.103  0.1149 -0.5912 -0.1146
  483MOL0     H65165  10.445   8.826   1.424  0.2619 -1.2096 -0.6759
  483MOL0     H65166  10.648   8.899   1.365 -2.7812  1.5746  0.5291
  483MOL0     H65167  10.952   8.691   0.862  0.2336 -0.5977  0.6858
  483MOL0     H65168  11.182   8.711   0.769 -1.1728 -1.8724  2.5518
  483MOL0     H65169  11.356   9.144   0.735 -4.6957 -1.7126  1.7361
  483MOL0     H65170  11.443   9.075   0.871 -0.7071 -0.7543  0.1180
  483MOL0     H65171  11.590   8.942   0.709  2.0388  1.5994  2.4033
  483MOL0     H65172  11.487   9.014   0.576 -2.0257  2.3484  0.9350
  483MOL0     H65173  11.690   9.122   0.596 -0.4367  4.5911 -3.0976
  483MOL0     H65174  11.543   9.229   0.625  0.6453  0.8643  1.1001
  483MOL0     H65175  11.731   9.096   0.830  3.0039  0.6410 -2.3205
  483MOL0     H65176  11.613   9.231   0.880  0.3209  4.8000 -1.1342
  483MOL0     H65177  11.859   9.241   0.698 -0.6603  0.6530 -1.8155
  483MOL0     H65178  11.848   9.311   0.864  0.3050 -0.4289 -0.1059
  483MOL0     H65179  11.696   9.427   0.624  1.7053 -0.9831 -0.7912
  483MOL0     H65180  11.682   9.460   0.801  1.3658 -1.4276 -0.3577
  483MOL0     H65181  11.934   9.505   0.654  0.4176  2.7054  0.2269
  483MOL0     H65182  11.904   9.545   0.821 -0.2609  2.6494  0.8962
  483MOL0     H65183  11.776   9.652   0.570 -2.3986 -0.8142  0.1789
  483MOL0     H65184  11.701   9.691   0.731 -1.1356  1.1080 -1.3619
  483MOL0     H65185  11.186   9.116   0.901 -1.8086  0.9225 -1.8013
  483MOL0     H65186  10.959   9.084   0.996 -0.4154 -0.3706  0.1701
  483MOL0     H65187  10.575   8.827   0.953 -0.4695  3.1429  0.2115
  483MOL0     H65188  10.335   8.780   1.008 -0.8084 -1.2439  0.8876
  483MOL0     H65189   8.751   8.826   0.854  1.1697  0.8129 -1.0726
  483MOL0     H65190   8.491   8.854   0.795  1.8241  1.0877 -0.4235
  483MOL0     H65191   8.047   8.779   1.022  1.2265  4.0306 -1.8717
  483MOL0     H65192   7.794   8.818   0.977  0.1901  0.3839 -0.3372
  483MOL0     H65193   7.586   8.750   0.928 -1.3385 -1.7779  0.1488
  483MOL0     H65194   7.589   8.623   0.808  1.3826 -0.3874  0.6232
  483MOL0     H65195   7.443   8.805   0.670  1.3357  0.7408  0.4565
  483MOL0     H65196   7.434   8.889   0.830 -0.4335  1.5281 -3.1865
  483MOL0     H65197   7.298   8.730   0.919 -0.4221  0.4186 -0.1395
  483MOL0     H65198   7.336   8.600   0.795  1.7427  0.5616 -6.0920
  483MOL0     H65199   7.218   8.735   0.630  2.0158 -1.0929  0.0952
  483MOL0     H65200   7.114   8.701   0.762  0.2439 -0.6946  0.8353
  483MOL0     H65201   7.188   9.126   0.802  0.9745 -0.8797  1.9320
  483MOL0     H65202   7.852   8.703   0.579  0.0056  1.6645 -0.7019
  483MOL0     H65203   8.041   8.561   0.510 -0.2294 -1.5933  0.5717
  483MOL0     H65204   8.189   8.653   0.552 -0.6157  2.2940  3.4011
  483MOL0     H65205   8.150   8.510   0.632  0.6790 -0.2050 -1.2101
  484MOL0     O65206  10.139   1.569   1.240 -0.6288 -0.2120  0.8468
  484MOL0     C65207  10.156   1.460   1.289  1.0164 -0.1817  0.3212
  484MOL0     O65208  10.271   1.398   1.300 -0.3527 -0.7789  0.1298
  484MOL0     C65209  10.366   1.448   1.216  0.7323  0.6803 -0.5554
  484MOL0     C65210  10.463   1.536   1.276  0.2824  0.3642  0.4037
  484MOL0     C65211  10.570   1.588   1.191 -0.2095  0.1455 -0.0508
  484MOL0     C65212  10.586   1.538   1.058 -0.3674 -0.3031 -0.2850
  484MOL0     O65213  10.690   1.589   0.984 -0.5687  0.0415 -0.1711
  484MOL0     C65214  10.757   1.710   1.022 -0.9449  0.7004 -0.7665
  484MOL0     C65215  10.879   1.684   1.111 -0.4525  0.5476  0.2518
  484MOL0     C65216  10.930   1.812   1.181  0.1617 -0.5644  0.3682
  484MOL0     C65217  11.078   1.787   1.207  0.3581 -0.9561 -0.3424
  484MOL0     C65218  11.156   1.894   1.298  0.3276  0.2550  0.3075
  484MOL0     C65219  11.310   1.893   1.255  0.7752  0.6641 -0.4236
  484MOL0     C65220  11.378   1.993   1.346 -0.8721  0.3270 -0.0759
  484MOL0     C65221  11.498   1.932   1.419 -0.0291 -0.3930 -0.0157
  484MOL0     N65222  11.578   2.033   1.472  0.2479  0.1385 -0.9772
  484MOL0     C65223  11.708   2.053   1.427  0.7077  0.5414  0.2820
  484MOL0     C65224  11.771   2.127   1.516  1.1192  0.4709  0.2334
  484MOL0     C65225  11.914   2.181   1.516  0.7604 -0.5432  0.2709
  484MOL0     C65226  12.008   2.091   1.595  0.0894  0.2292  0.3052
  484MOL0     C65227  12.151   2.101   1.550  0.1500 -0.7610  0.7821
  484MOL0     C65228  12.204   2.243   1.526 -0.8758 -0.3889 -0.4961
  484MOL0     O65229  12.347   2.241   1.523  0.5688  0.1105  0.1048
  484MOL0     C65230  12.415   2.229   1.637  0.8287  0.3211 -0.2551
  484MOL0     C65231  12.554   2.215   1.621 -0.0448  0.1136  1.0224
  484MOL0     C65232  12.639   2.201   1.729 -0.6005  0.1945  0.6330
  484MOL0     C65233  12.586   2.199   1.857 -0.6204 -0.3189 -0.0069
  484MOL0     C65234  12.680   2.179   1.977  0.7519 -0.9042 -1.1524
  484MOL0     O65235  12.815   2.207   1.955  0.1931  0.0160 -0.1225
  484MOL0     C65236  12.905   2.134   2.026 -0.3538 -0.2045 -0.1687
  484MOL0     C65237  12.912   2.151   2.165 -0.8472  0.0596 -0.3063
  484MOL0     C65238  13.020   2.085   2.240  0.6929  0.8162 -0.0003
  484MOL0     C65239  13.117   2.009   2.168  0.4737  0.8498 -0.4312
  484MOL0     O65240  13.241   1.965   2.209 -0.3650  0.4734  0.1357
  484MOL0     C65241  13.264   1.966   2.356  0.5235  0.6649 -0.6277
  484MOL0     C65242  13.403   1.922   2.405  0.0844  0.1364  1.2815
  484MOL0     C65243  13.498   2.034   2.434  0.1604 -0.3687 -0.0210
  484MOL0     C65244  13.524   2.120   2.311 -1.0565 -0.1692  0.3677
  484MOL0     C65245  13.626   2.238   2.329 -0.3968 -0.4878 -0.1762
  484MOL0     C65246  13.767   2.191   2.370  0.3510 -0.3502  0.4248
  484MOL0     C65247  13.827   2.089   2.269 -0.5498 -0.3437  0.3613
  484MOL0     C65248  13.964   2.037   2.311  0.0777  0.3510  1.1984
  484MOL0    Cl65249  14.057   2.193   2.289 -0.0323  0.3147 -0.0673
  484MOL0     C65250  13.087   1.981   2.033 -0.2178 -0.1767 -0.5639
  484MOL0     C65251  12.986   2.039   1.963 -0.3654 -0.6340  0.8459
  484MOL0     O65252  12.624   2.170   2.088 -0.1543  0.5058 -0.5362
  484MOL0     C65253  12.448   2.197   1.881 -0.4765 -0.1377  0.0126
  484MOL0     C65254  12.365   2.218   1.771  0.4893 -0.6437  0.2821
  484MOL0     N65255  11.675   2.145   1.611  0.3047  0.3955 -0.2887
  484MOL0     N65256  11.568   2.090   1.596 -0.6924  0.2789 -0.0059
  484MOL0     C65257  10.502   1.438   1.018 -0.7519  1.3749 -0.3220
  484MOL0     C65258  10.387   1.401   1.092 -0.1092  0.2434 -1.0586
  484MOL0     C65259  10.032   1.386   1.335 -0.3655 -0.3513  1.0296
  484MOL0     C65260  10.046   1.254   1.377  1.3485  0.3884  0.2707
  484MOL0     C65261   9.939   1.174   1.408  0.0956  0.3040  0.1173
  484MOL0     C65262   9.814   1.222   1.389  0.7167 -1.3727  0.1971
  484MOL0     O65263   9.699   1.144   1.403 -0.3242 -0.2369  1.2644
  484MOL0     C65264   9.714   1.006   1.425  0.1100 -0.3126 -0.1507
  484MOL0     C65265   9.587   0.948   1.368 -1.0042 -0.3627 -0.2942
  484MOL0     C65266   9.576   0.791   1.376  0.6887  0.4204 -0.1683
  484MOL0     C65267   9.625   0.721   1.499  0.1146  0.6055 -0.6287
  484MOL0     C65268   9.570   0.768   1.628  0.1304 -0.8916  0.0454
  484MOL0     C65269   9.520   0.835   1.713  0.6390 -0.3125 -0.0723
  484MOL0     C65270   9.792   1.352   1.350 -0.1172 -1.0010 -0.5205
  484MOL0     C65271   9.896   1.433   1.321 -0.3647 -0.1270 -0.0039
  484MOL0     C65272   9.855   1.567   1.272 -0.5991  0.0364  0.7265
  484MOL0     H65273  10.471   1.558   1.383 -2.4595 -4.6967  1.9610
  484MOL0     H65274  10.646   1.652   1.234  1.1498 -2.5729  1.8899
  484MOL0     H65275  10.784   1.759   0.928  0.0349 -1.1666 -1.5105
  484MOL0     H65276  10.694   1.783   1.075  2.8367  3.3619  0.5528
  484MOL0     H65277  10.954   1.640   1.045 -2.5168  0.5871 -2.2936
  484MOL0     H65278  10.861   1.610   1.189 -0.8051 -1.7343 -1.8886
  484MOL0     H65279  10.880   1.835   1.275  1.9507  2.6588  0.7037
  484MOL0     H65280  10.928   1.900   1.115  1.7006  0.0816  1.1357
  484MOL0     H65281  11.086   1.694   1.263 -2.6121 -0.6239  0.8239
  484MOL0     H65282  11.120   1.763   1.109 -0.0488 -2.2453 -0.2102
  484MOL0     H65283  11.122   1.997   1.285  3.7635  1.9243  2.9497
  484MOL0     H65284  11.150   1.860   1.402  1.1397 -1.5145 -0.1771
  484MOL0     H65285  11.348   1.790   1.249 -0.4923 -0.1149  2.8381
  484MOL0     H65286  11.320   1.920   1.149  0.4325 -0.6478 -0.8096
  484MOL0     H65287  11.305   2.037   1.414  2.5063  3.3341  1.9950
  484MOL0     H65288  11.406   2.081   1.287  1.6246 -0.5918 -0.3991
  484MOL0     H65289  11.458   1.872   1.500 -1.5103  1.1930  0.4857
  484MOL0     H65290  11.556   1.868   1.352 -1.5507 -1.2791 -0.5407
  484MOL0     H65291  11.754   2.013   1.338  0.4420 -0.1230  0.4414
  484MOL0     H65292  11.938   2.193   1.410 -4.2879 -1.3279 -1.2335
  484MOL0     H65293  11.923   2.280   1.562  0.2114 -0.2883 -0.1541
  484MOL0     H65294  12.017   2.120   1.700 -0.7934  1.0775  0.1559
  484MOL0     H65295  11.980   1.988   1.572  2.3181 -0.7437  1.6326
  484MOL0     H65296  12.167   2.051   1.454  1.3222 -1.1715  1.1799
  484MOL0     H65297  12.211   2.036   1.614 -0.6307 -1.2768  1.0142
  484MOL0     H65298  12.168   2.307   1.606 -3.0602 -1.0001 -0.9415
  484MOL0     H65299  12.162   2.279   1.432 -2.0625 -1.7174 -0.5039
  484MOL0     H65300  12.589   2.236   1.520  1.4143 -0.8267  1.3114
  484MOL0     H65301  12.747   2.203   1.714 -0.6189  1.0910  0.5337
  484MOL0     H65302  12.853   2.219   2.226  3.0524  1.3129  2.5084
  484MOL0     H65303  13.034   2.108   2.345 -0.0048  2.2838 -0.2033
  484MOL0     H65304  13.247   2.065   2.398 -1.2227 -0.0021  0.3588
  484MOL0     H65305  13.185   1.904   2.399 -1.0803  2.6290 -0.6101
  484MOL0     H65306  13.387   1.850   2.486  1.7101  0.5121  1.9868
  484MOL0     H65307  13.450   1.856   2.332  1.9252  1.0777  1.5452
  484MOL0     H65308  13.455   2.109   2.501 -3.3043  0.5573 -3.0223
  484MOL0     H65309  13.587   1.995   2.485 -1.2084 -0.1107  2.8116
  484MOL0     H65310  13.424   2.150   2.279 -0.9490  0.2505  0.4209
  484MOL0     H65311  13.561   2.059   2.228 -2.1001 -0.2874 -0.0271
  484MOL0     H65312  13.581   2.302   2.406  2.2557 -0.0190  1.1111
  484MOL0     H65313  13.632   2.295   2.236  3.3896  3.3004  2.0234
  484MOL0     H65314  13.825   2.284   2.374  0.7877 -0.5180 -1.3012
  484MOL0     H65315  13.775   2.154   2.473 -1.1834 -2.7570 -0.2363
  484MOL0     H65316  13.836   2.145   2.176  0.4402 -3.1314 -1.3370
  484MOL0     H65317  13.761   2.002   2.256 -0.9546  0.1699 -1.2085
  484MOL0     H65318  13.968   1.997   2.413  2.2801  0.9483  1.4004
  484MOL0     H65319  14.009   1.962   2.245 -0.2012 -1.0773  2.5756
  484MOL0     H65320  13.163   1.931   1.973  1.5634 -0.6162  1.8691
  484MOL0     H65321  12.965   2.018   1.859  0.1355 -0.1088  0.6305
  484MOL0     H65322  12.406   2.188   1.981  0.3796 -0.9764  0.3085
  484MOL0     H65323  12.260   2.236   1.790 -0.1821 -1.4049 -2.2275
  484MOL0     H65324  10.523   1.396   0.921  0.3460 -1.1127  0.9135
  484MOL0     H65325  10.321   1.323   1.054 -0.0388 -0.3485 -0.0040
  484MOL0     H65326  10.143   1.206   1.378  2.8397  3.2198  0.1326
  484MOL0     H65327   9.966   1.076   1.447  0.0881  0.2747  0.0471
  484MOL0     H65328   9.735   0.994   1.532  0.9785 -0.1415 -0.2950
  484MOL0     H65329   9.796   0.957   1.372 -0.6156  0.6121 -2.2519
  484MOL0     H65330   9.562   0.971   1.264 -0.5501  1.7104  0.0105
  484MOL0     H65331   9.511   0.991   1.434 -0.5512  0.0237 -0.0227
  484MOL0     H65332   9.630   0.748   1.291 -0.3100 -3.9301  1.1285
  484MOL0     H65333   9.470   0.772   1.361  0.7167 -1.6071  1.6265
  484MOL0     H65334   9.598   0.615   1.493 -2.0635  1.1508 -1.4365
  484MOL0     H65335   9.734   0.731   1.507  0.2211 -1.1654  0.5859
  484MOL0     H65336   9.474   0.897   1.787 -0.4462  0.1427 -1.0881
  484MOL0     H65337   9.688   1.376   1.336 -1.0116 -4.4084 -0.7165
  484MOL0     H65338   9.910   1.631   1.342  1.4367 -0.6877 -0.1401
  484MOL0     H65339   9.899   1.584   1.174 -0.8214 -1.9065  0.2420
  484MOL0     H65340   9.748   1.590   1.267 -0.3818  1.5862  2.1694
  485MOL0     O65341   6.805   7.344   1.690  0.4855  0.3530 -0.4666
  485MOL0     C65342   6.786   7.250   1.611  0.4227 -0.8782 -0.8288
  485MOL0     O65343   6.880   7.158   1.573 -0.1334  0.3396 -0.1791
  485MOL0     C65344   7.010   7.170   1.610 -0.1857  0.9853 -0.7878
  485MOL0     C65345   7.074   7.296   1.614 -0.4514 -0.1271  0.0448
  485MOL0     C65346   7.200   7.309   1.674  0.0450 -0.2441 -0.1262
  485MOL0     C65347   7.269   7.192   1.717 -0.0161  0.2743  0.4892
  485MOL0     O65348   7.401   7.209   1.762  0.0351 -0.1948  0.3439
  485MOL0     C65349   7.484   7.095   1.792  0.9423 -0.1322  0.7701
  485MOL0     C65350   7.617   7.149   1.848 -0.6363 -0.8572 -0.1711
  485MOL0     C65351   7.715   7.032   1.866  0.7628  0.7409  0.0951
  485MOL0     C65352   7.851   7.100   1.848  0.3377  0.5577  0.2012
  485MOL0     C65353   7.883   7.202   1.957  0.2942  0.5290  0.2408
  485MOL0     C65354   8.027   7.204   1.984 -0.6768 -1.3362 -1.2960
  485MOL0     C65355   8.057   7.276   2.117 -0.0867 -0.2686 -0.5979
  485MOL0     C65356   8.191   7.234   2.172 -0.0237  0.2261 -0.2055
  485MOL0     N65357   8.263   7.330   2.251  0.1998  0.3036  0.3817
  485MOL0     C65358   8.345   7.424   2.197 -0.2203 -0.0933  0.0570
  485MOL0     C65359   8.341   7.516   2.295  0.4294  0.2737  0.5165
  485MOL0     C65360   8.412   7.652   2.293 -0.7335 -0.8635  0.6229
  485MOL0     C65361   8.544   7.663   2.209  0.1294  0.3512  0.6035
  485MOL0     C65362   8.578   7.810   2.173  0.2769  1.1582  0.0615
  485MOL0     C65363   8.728   7.847   2.150  0.2515  0.9403 -0.4454
  485MOL0     O65364   8.781   7.781   2.035 -0.1567  0.6131 -0.3743
  485MOL0     C65365   8.920   7.793   2.016 -1.0170  0.1946  0.0729
  485MOL0     C65366   9.014   7.783   2.124  0.7872 -0.6046  0.1407
  485MOL0     C65367   9.154   7.784   2.096  0.4413  0.0047 -0.3822
  485MOL0     C65368   9.197   7.796   1.962 -0.1306  0.4374 -0.1692
  485MOL0     C65369   9.339   7.819   1.929  0.0420  0.1081 -0.1581
  485MOL0     O65370   9.420   7.796   2.032  0.1841  0.1561  0.0178
  485MOL0     C65371   9.551   7.845   2.031  1.0305  0.2050 -0.1904
  485MOL0     C65372   9.585   7.979   2.041  0.5928  0.3604  0.3563
  485MOL0     C65373   9.716   8.014   2.052 -0.7993 -0.5149 -0.4903
  485MOL0     C65374   9.824   7.920   2.064 -0.0940  0.0337  0.3449
  485MOL0     O65375   9.955   7.966   2.068  0.0078 -0.3013  0.2514
  485MOL0     C65376  10.060   7.870   2.084 -0.0230 -0.7978 -0.8304
  485MOL0     C65377  10.190   7.949   2.120  0.4731 -0.2444  0.7345
  485MOL0     C65378  10.197   7.990   2.269  0.8115  0.3830 -0.2245
  485MOL0     C65379  10.287   8.107   2.290 -0.5624  0.2337  0.5373
  485MOL0     C65380  10.374   8.092   2.418  0.5561  0.0448  0.2663
  485MOL0     C65381  10.475   7.974   2.398  0.7253  0.1260  0.2456
  485MOL0     C65382  10.600   7.999   2.474  0.7360  0.2584 -0.4542
  485MOL0     C65383  10.689   7.873   2.490  0.2634  0.2254  0.4878
  485MOL0    Cl65384  10.604   7.729   2.558  0.5484 -0.1826  0.2254
  485MOL0     C65385   9.788   7.785   2.057  0.8051  1.1927  0.4493
  485MOL0     C65386   9.654   7.755   2.047 -0.6928  0.3305  0.0205
  485MOL0     O65387   9.375   7.872   1.825 -0.3834  0.2474 -0.0140
  485MOL0     C65388   9.103   7.799   1.858  0.2566 -0.4042  0.8506
  485MOL0     C65389   8.967   7.798   1.885 -0.2134 -0.7411  0.1103
  485MOL0     N65390   8.271   7.476   2.408  0.6599  0.8231  0.0190
  485MOL0     N65391   8.227   7.357   2.379 -0.3038  0.1075 -0.7997
  485MOL0     C65392   7.207   7.069   1.706 -0.2082 -0.3914 -0.3132
  485MOL0     C65393   7.083   7.060   1.656  1.2008  0.3485  0.9109
  485MOL0     C65394   6.637   7.251   1.569 -0.8203 -0.0396 -0.1386
  485MOL0     C65395   6.555   7.354   1.619  0.5493  0.0343  0.0704
  485MOL0     C65396   6.414   7.352   1.592 -1.0141  0.0233 -0.6040
  485MOL0     C65397   6.355   7.254   1.516  0.7395 -0.1000  0.4952
  485MOL0     O65398   6.220   7.262   1.473  0.2562 -0.4335  0.3638
  485MOL0     C65399   6.141   7.359   1.536  0.3035  0.0187 -0.3343
  485MOL0     C65400   6.008   7.370   1.456 -0.0722 -0.0785 -0.5290
  485MOL0     C65401   6.037   7.434   1.316  0.1487  0.0367  0.8255
  485MOL0     C65402   5.931   7.401   1.210 -0.0043 -0.9858  0.0658
  485MOL0     C65403   5.946   7.263   1.159 -0.9776  0.6211 -0.3222
  485MOL0     C65404   5.965   7.150   1.117 -0.4162 -0.1717  0.0519
  485MOL0     C65405   6.434   7.145   1.468  0.0298 -0.6242  0.0573
  485MOL0     C65406   6.575   7.146   1.486 -0.0469 -0.3856  0.2568
  485MOL0     C65407   6.651   7.020   1.441 -0.6544 -0.1721  0.0799
  485MOL0     H65408   7.017   7.384   1.585 -0.1765  0.9914  2.5476
  485MOL0     H65409   7.240   7.409   1.689 -2.4646  0.4515  3.0513
  485MOL0     H65410   7.438   7.038   1.874 -0.6213 -0.2622 -0.1711
  485MOL0     H65411   7.501   7.025   1.710  0.4138  1.1319 -0.4414
  485MOL0     H65412   7.586   7.199   1.940 -2.6168 -1.2780 -0.5766
  485MOL0     H65413   7.657   7.219   1.774  2.1215 -1.4070  0.6627
  485MOL0     H65414   7.701   6.958   1.787  0.2266  2.9740 -2.0143
  485MOL0     H65415   7.694   6.995   1.967 -1.7318 -1.4520 -1.1098
  485MOL0     H65416   7.920   7.016   1.847  0.0254  0.2881 -0.8971
  485MOL0     H65417   7.868   7.144   1.749 -0.7368  2.4416  0.8071
  485MOL0     H65418   7.848   7.298   1.916 -1.7074 -0.4371 -0.4578
  485MOL0     H65419   7.813   7.187   2.039 -2.7925 -2.2325 -2.6009
  485MOL0     H65420   8.060   7.101   2.002 -2.0014 -1.2759  2.2130
  485MOL0     H65421   8.081   7.254   1.902 -1.0630  0.6065 -0.4280
  485MOL0     H65422   7.983   7.265   2.197  0.4197 -2.7702 -0.4040
  485MOL0     H65423   8.050   7.384   2.099 -0.1415  0.1340  1.5778
  485MOL0     H65424   8.180   7.148   2.238 -0.1063 -0.6539 -1.3321
  485MOL0     H65425   8.257   7.208   2.088 -0.0791 -3.2956  0.6949
  485MOL0     H65426   8.401   7.437   2.105 -1.8532 -5.2189 -1.9895
  485MOL0     H65427   8.331   7.710   2.247 -0.2239 -0.0888  0.6823
  485MOL0     H65428   8.439   7.684   2.394  0.7459  0.9132 -0.2649
  485MOL0     H65429   8.621   7.610   2.267 -0.3952 -3.7053 -2.0101
  485MOL0     H65430   8.543   7.612   2.113 -1.6684 -0.2725  0.9102
  485MOL0     H65431   8.539   7.873   2.253 -1.3898 -1.4706  1.4606
  485MOL0     H65432   8.515   7.836   2.087 -4.2596  2.2548  3.3531
  485MOL0     H65433   8.781   7.821   2.243 -0.3324  0.6484 -0.1817
  485MOL0     H65434   8.747   7.952   2.128  0.6803  0.4839 -2.4395
  485MOL0     H65435   8.973   7.755   2.220 -1.9126 -0.6815 -0.9387
  485MOL0     H65436   9.224   7.768   2.177 -0.4793  0.7707  0.5929
  485MOL0     H65437   9.521   8.066   2.044  2.3178  1.6712  0.5171
  485MOL0     H65438   9.738   8.120   2.055 -0.2044 -0.6539  0.9081
  485MOL0     H65439  10.043   7.802   2.168 -1.1283 -0.3979 -0.7123
  485MOL0     H65440  10.067   7.811   1.993 -2.7220 -2.8299  0.1559
  485MOL0     H65441  10.278   7.889   2.095 -0.2696 -1.3300  0.6612
  485MOL0     H65442  10.175   8.038   2.058 -4.6252 -0.4466  1.2101
  485MOL0     H65443  10.098   8.009   2.313  1.3422  4.1453 -0.3935
  485MOL0     H65444  10.238   7.903   2.321  1.5409  0.3286 -0.8693
  485MOL0     H65445  10.230   8.200   2.285 -0.2903  0.3414 -1.8159
  485MOL0     H65446  10.352   8.107   2.202  0.5769  1.5889  1.3354
  485MOL0     H65447  10.311   8.058   2.501 -2.4006  0.7733 -1.5051
  485MOL0     H65448  10.425   8.186   2.436  2.5960 -0.3703 -2.6128
  485MOL0     H65449  10.423   7.885   2.434 -0.3054  0.8188  0.5247
  485MOL0     H65450  10.494   7.964   2.291 -3.6492 -1.2475 -0.6167
  485MOL0     H65451  10.577   8.045   2.571 -1.1910 -0.4915 -0.5164
  485MOL0     H65452  10.658   8.076   2.423  1.8227 -1.0470 -1.2543
  485MOL0     H65453  10.721   7.853   2.387  2.5215  1.5653  0.8521
  485MOL0     H65454  10.773   7.909   2.550  0.8301  0.7235 -0.5656
  485MOL0     H65455   9.864   7.707   2.051  0.5248  0.8887  0.8068
  485MOL0     H65456   9.638   7.648   2.043  2.8741 -0.3238 -1.2904
  485MOL0     H65457   9.144   7.810   1.758 -0.4334  1.4363  0.7346
  485MOL0     H65458   8.906   7.792   1.796  4.5849  1.0817 -3.7941
  485MOL0     H65459   7.258   6.982   1.743  0.5433  0.7583  1.4799
  485MOL0     H65460   7.027   6.967   1.663  1.3141 -0.0691 -2.1144
  485MOL0     H65461   6.586   7.449   1.662 -0.7946  0.0247  1.1384
  485MOL0     H65462   6.367   7.446   1.621  2.0788  2.4921 -2.9366
  485MOL0     H65463   6.183   7.460   1.533  0.2612  0.1788  2.3526
  485MOL0     H65464   6.114   7.329   1.638 -0.3229 -3.1074 -1.3081
  485MOL0     H65465   5.937   7.438   1.503 -1.2887  0.7849 -3.4259
  485MOL0     H65466   5.967   7.269   1.455 -1.5953  0.2561  3.7908
  485MOL0     H65467   6.139   7.417   1.281  0.5419  0.9823  1.4813
  485MOL0     H65468   6.025   7.542   1.332 -2.1672  0.4264 -2.4413
  485MOL0     H65469   5.839   7.420   1.265  0.1740 -1.2649  0.4661
  485MOL0     H65470   5.921   7.470   1.126  0.5003  0.6767  1.3211
  485MOL0     H65471   5.969   7.047   1.089  1.5474 -0.1079 -0.0257
  485MOL0     H65472   6.383   7.065   1.416 -0.2825 -0.3080 -0.1298
  485MOL0     H65473   6.731   7.043   1.371 -0.4627  4.0599  1.4254
  485MOL0     H65474   6.698   6.964   1.523  0.1073  1.3858  0.7402
  485MOL0     H65475   6.573   6.957   1.397 -2.5671  1.1303  1.4240
  486MOL0     O65476   7.112   0.317  10.880 -0.2680 -0.1816 -0.4109
  486MOL0     C65477   7.087   0.324  10.998  0.2677 -0.7544 -0.1631
  486MOL0     O65478   7.170   0.315  11.100 -1.1508  1.4583  0.0130
  486MOL0     C65479   7.302   0.271  11.077 -0.5978 -0.5910  0.0685
  486MOL0     C65480   7.346   0.182  10.974  0.0277 -0.2699  0.8556
  486MOL0     C65481   7.478   0.139  10.953  0.5186  0.4226 -0.8396
  486MOL0     C65482   7.571   0.187  11.052  0.0196  0.4017 -0.0519
  486MOL0     O65483   7.700   0.150  11.038  0.1770 -0.0095  0.6776
  486MOL0     C65484   7.755   0.198  10.916 -0.8522 -0.4866  0.5253
  486MOL0     C65485   7.902   0.165  10.903  0.0031 -0.5881  0.5126
  486MOL0     C65486   7.924   0.021  10.856 -0.0206  0.3454 -0.5041
  486MOL0     C65487   8.070  -0.005  10.877  0.5799  0.2766  0.2544
  486MOL0     C65488   8.110  -0.146  10.820  0.2683  0.0560  0.1609
  486MOL0     C65489   8.023  -0.268  10.873  0.1190  0.2514  0.0858
  486MOL0     C65490   8.078  -0.399  10.821  0.1110 -0.4913  0.2236
  486MOL0     C65491   7.983  -0.509  10.846 -0.1670  0.3093 -0.1924
  486MOL0     N65492   8.040  -0.633  10.823  0.3607 -0.2765  0.4777
  486MOL0     C65493   8.141  -0.668  10.735  0.8088 -0.3522  1.0773
  486MOL0     C65494   8.173  -0.791  10.757 -0.4751  0.3637  0.0435
  486MOL0     C65495   8.267  -0.876  10.681 -0.6137  0.2501 -0.1045
  486MOL0     C65496   8.392  -0.876  10.768  0.6138 -0.1218  0.2090
  486MOL0     C65497   8.497  -0.930  10.680 -0.4762 -0.5596  0.5732
  486MOL0     C65498   8.624  -0.937  10.759 -0.8836 -0.7801 -0.2105
  486MOL0     O65499   8.602  -0.951  10.898 -0.2054  0.1901  0.4757
  486MOL0     C65500   8.707  -0.957  10.980  0.6637  0.3664  0.3927
  486MOL0     C65501   8.685  -0.975  11.119 -0.2382  0.3187 -0.0352
  486MOL0     C65502   8.789  -0.993  11.206 -0.2207 -0.2079 -0.1440
  486MOL0     C65503   8.924  -0.975  11.163 -0.3119 -0.5758 -0.1974
  486MOL0     C65504   9.036  -0.996  11.263 -0.0629 -0.5122 -0.1217
  486MOL0     O65505   9.155  -0.973  11.212 -0.3746 -0.5857 -0.3291
  486MOL0     C65506   9.271  -1.025  11.262  0.5643  0.5593  0.2265
  486MOL0     C65507   9.388  -0.968  11.219 -0.1814  0.3710  0.9407
  486MOL0     C65508   9.516  -1.029  11.252 -0.7417  0.1033 -0.5864
  486MOL0     C65509   9.519  -1.142  11.328  0.2494  0.0360  1.1125
  486MOL0     O65510   9.646  -1.196  11.349  0.4108 -0.1769 -0.3763
  486MOL0     C65511   9.650  -1.339  11.310  0.3370  0.8445  0.0568
  486MOL0     C65512   9.801  -1.376  11.340 -1.3007  0.0989 -0.6871
  486MOL0     C65513   9.903  -1.323  11.239  0.5096  0.4475  0.1386
  486MOL0     C65514   9.937  -1.170  11.255 -0.8083 -0.3556 -0.1993
  486MOL0     C65515  10.068  -1.138  11.169  0.7474  0.1313 -0.7165
  486MOL0     C65516  10.124  -1.000  11.219  0.1661  0.0878  0.1401
  486MOL0     C65517  10.241  -0.950  11.138  0.3913  0.6694  0.4129
  486MOL0     C65518  10.302  -0.817  11.187 -0.0218  0.1039  0.0465
  486MOL0    Cl65519  10.207  -0.703  11.082 -0.4731 -0.4267  0.3113
  486MOL0     C65520   9.400  -1.201  11.365  0.3890  0.7215 -0.2594
  486MOL0     C65521   9.277  -1.143  11.340  1.1889  0.4854  0.5705
  486MOL0     O65522   9.007  -1.023  11.375 -0.1525 -0.2469  0.8612
  486MOL0     C65523   8.950  -0.959  11.032  0.4644 -0.7464  0.8841
  486MOL0     C65524   8.842  -0.954  10.940  0.5297  0.8274  0.0022
  486MOL0     N65525   8.084  -0.836  10.850  0.2195  0.0738 -0.3941
  486MOL0     N65526   8.003  -0.744  10.892 -0.4518 -0.3048  1.1174
  486MOL0     C65527   7.536   0.262  11.169  0.6581  0.3271 -1.0142
  486MOL0     C65528   7.399   0.299  11.176 -0.0933 -0.1497 -0.6512
  486MOL0     C65529   6.946   0.375  11.035 -0.2848  0.3455 -0.1456
  486MOL0     C65530   6.930   0.403  11.176  0.7894  0.5835 -0.3599
  486MOL0     C65531   6.808   0.464  11.221 -0.4072  0.4784  0.1470
  486MOL0     C65532   6.703   0.478  11.136  0.7007 -0.1724 -0.1709
  486MOL0     O65533   6.578   0.505  11.192 -0.0566  0.4868 -0.5132
  486MOL0     C65534   6.457   0.473  11.128 -1.1425  0.9295 -0.0621
  486MOL0     C65535   6.409   0.589  11.046  0.1782  0.1209 -1.1454
  486MOL0     C65536   6.364   0.552  10.915  0.8574 -0.4868  0.0254
  486MOL0     C65537   6.253   0.652  10.859  0.2008 -0.6850  0.2551
  486MOL0     C65538   6.203   0.602  10.729 -0.6818 -0.3479 -0.4385
  486MOL0     C65539   6.164   0.550  10.627 -0.6322  0.4289  0.4396
  486MOL0     C65540   6.723   0.455  10.999  0.7340  0.5735  0.5933
  486MOL0     C65541   6.844   0.406  10.943  1.5972 -0.8641 -0.2069
  486MOL0     C65542   6.846   0.373  10.795 -0.0234  0.3408 -1.0809
  486MOL0     H65543   7.283   0.138  10.897  0.2729 -0.9941  1.0601
  486MOL0     H65544   7.499   0.061  10.880 -1.3721 -1.1900  0.2111
  486MOL0     H65545   7.705   0.156  10.828 -0.4168 -2.4358  1.1419
  486MOL0     H65546   7.738   0.305  10.905 -0.4133 -0.5722 -1.4620
  486MOL0     H65547   7.956   0.172  10.998 -0.0392  2.3353  0.4139
  486MOL0     H65548   7.952   0.235  10.835 -1.6578  0.2168  0.0900
  486MOL0     H65549   7.895   0.011  10.751  1.0374  0.8433 -0.8614
  486MOL0     H65550   7.866  -0.044  10.922  0.2090  0.6561  0.0024
  486MOL0     H65551   8.107   0.076  10.813 -2.2603  2.1161  0.7221
  486MOL0     H65552   8.102   0.004  10.981  1.0672 -0.1015  0.1350
  486MOL0     H65553   8.091  -0.139  10.713 -2.1135 -0.1346  0.5234
  486MOL0     H65554   8.217  -0.164  10.835  0.9966  1.5075 -2.5649
  486MOL0     H65555   8.035  -0.279  10.981  1.9522  2.1969  0.1404
  486MOL0     H65556   7.916  -0.255  10.851  0.2019  3.2110  1.0623
  486MOL0     H65557   8.167  -0.421  10.881  0.0461  0.8813  0.8753
  486MOL0     H65558   8.107  -0.398  10.716  0.6889 -0.2499  0.3758
  486MOL0     H65559   7.943  -0.504  10.948  2.5941  0.3140  0.9697
  486MOL0     H65560   7.895  -0.509  10.781  0.3640 -0.1978 -0.9230
  486MOL0     H65561   8.186  -0.608  10.657  0.6201  0.8371  1.8524
  486MOL0     H65562   8.216  -0.972  10.666 -0.4553  0.1027  0.2902
  486MOL0     H65563   8.288  -0.831  10.584  1.5439  1.3894  0.8279
  486MOL0     H65564   8.425  -0.774  10.790 -2.1695  1.0544 -0.6812
  486MOL0     H65565   8.369  -0.928  10.862  0.8319 -0.8811 -0.1495
  486MOL0     H65566   8.512  -0.877  10.585 -1.1674 -2.9925 -0.9749
  486MOL0     H65567   8.484  -1.032  10.643  1.4644 -0.8502  0.5787
  486MOL0     H65568   8.678  -0.843  10.743 -2.6619 -0.1741 -3.8241
  486MOL0     H65569   8.682  -1.024  10.727  0.3470 -0.7313  1.7262
  486MOL0     H65570   8.589  -0.970  11.170  0.1495  0.8661  0.6658
  486MOL0     H65571   8.764  -1.001  11.312  0.2568  4.4299  0.5214
  486MOL0     H65572   9.386  -0.882  11.154  0.2532  0.5172  1.1140
  486MOL0     H65573   9.608  -0.985  11.212  0.0771 -0.3524  0.7425
  486MOL0     H65574   9.591  -1.406  11.374  1.3924 -0.9801 -0.7763
  486MOL0     H65575   9.626  -1.357  11.204  2.4425 -1.1688 -0.1630
  486MOL0     H65576   9.835  -1.348  11.440  3.1690  1.5573 -2.4053
  486MOL0     H65577   9.787  -1.484  11.351 -2.2082  0.3223  0.6451
  486MOL0     H65578   9.993  -1.385  11.245 -0.4617 -0.8823  2.3365
  486MOL0     H65579   9.858  -1.332  11.140 -0.2824 -0.4579  0.5567
  486MOL0     H65580   9.948  -1.147  11.361  2.8452 -0.6741 -0.3642
  486MOL0     H65581   9.855  -1.113  11.211 -0.4755 -1.9670 -3.1977
  486MOL0     H65582  10.038  -1.134  11.064 -0.4385 -0.7060 -0.4229
  486MOL0     H65583  10.145  -1.215  11.182 -0.6879 -0.9986  1.6362
  486MOL0     H65584  10.042  -0.929  11.204 -0.3699 -0.5191  0.1512
  486MOL0     H65585  10.148  -1.013  11.325 -0.1025 -1.1321  0.0663
  486MOL0     H65586  10.240  -0.959  11.029 -0.7942 -0.7734  0.5066
  486MOL0     H65587  10.314  -1.026  11.165  0.6133  1.2327  1.4519
  486MOL0     H65588  10.293  -0.803  11.295  2.9870 -2.1714  0.7266
  486MOL0     H65589  10.405  -0.807  11.153 -0.0961  4.1088  0.5420
  486MOL0     H65590   9.400  -1.296  11.418 -0.4393  0.4086 -0.7988
  486MOL0     H65591   9.183  -1.186  11.374  0.5380  2.4957  1.4815
  486MOL0     H65592   9.048  -0.942  10.988 -0.2386 -1.0718 -0.8728
  486MOL0     H65593   8.866  -0.962  10.835 -3.0545 -2.8274 -0.7924
  486MOL0     H65594   7.616   0.285  11.239 -0.4776 -0.6106  0.6548
  486MOL0     H65595   7.361   0.345  11.267 -1.4584 -1.2697 -0.6154
  486MOL0     H65596   7.002   0.380  11.253 -0.8413 -0.1683  1.0137
  486MOL0     H65597   6.786   0.473  11.327 -2.4502 -1.8829  0.0289
  486MOL0     H65598   6.377   0.451  11.200 -1.9819  2.6291 -0.4206
  486MOL0     H65599   6.467   0.382  11.067  0.7002  1.6373 -0.8928
  486MOL0     H65600   6.493   0.660  11.040  0.9462 -0.6359  0.1352
  486MOL0     H65601   6.339   0.633  11.118 -1.3281 -2.4521 -0.9349
  486MOL0     H65602   6.313   0.455  10.914 -2.9418  1.1737  3.0496
  486MOL0     H65603   6.451   0.528  10.854  1.2920 -0.3821  0.5994
  486MOL0     H65604   6.178   0.659  10.939  1.0476  1.3523  0.9289
  486MOL0     H65605   6.297   0.750  10.845 -0.4099 -0.6963 -2.1939
  486MOL0     H65606   6.137   0.500  10.536 -2.3241  1.0983  0.5325
  486MOL0     H65607   6.643   0.477  10.929 -1.2085 -0.4941  2.3469
  486MOL0     H65608   6.747   0.362  10.751 -1.5415  0.2595  2.1318
  486MOL0     H65609   6.906   0.449  10.741 -0.3724  0.5487 -1.1777
  486MOL0     H65610   6.902   0.280  10.782  1.0403  0.9840 -1.2475
  487MOL0     O65611   7.559   1.622   0.685 -0.5503 -0.4240 -0.0415
  487MOL0     C65612   7.568   1.636   0.566  0.3897  0.6871 -0.4586
  487MOL0     O65613   7.684   1.657   0.504  0.3573 -0.0117  0.3818
  487MOL0     C65614   7.798   1.659   0.577  0.8723  0.4312 -0.0376
  487MOL0     C65615   7.825   1.772   0.659 -1.1074 -0.6988  0.0694
  487MOL0     C65616   7.934   1.771   0.738 -0.9962 -0.6422 -0.0053
  487MOL0     C65617   8.027   1.663   0.728  0.9349 -0.0827 -0.0459
  487MOL0     O65618   8.143   1.684   0.798  0.1153 -0.0671 -0.3410
  487MOL0     C65619   8.259   1.617   0.750  0.3854 -0.3801  0.8706
  487MOL0     C65620   8.379   1.695   0.798  0.3114  0.5703 -0.8751
  487MOL0     C65621   8.504   1.662   0.707 -0.9037  0.1390  0.6757
  487MOL0     C65622   8.627   1.755   0.734  0.9011 -0.0684  0.5402
  487MOL0     C65623   8.757   1.701   0.677 -0.2753 -0.0048  0.1036
  487MOL0     C65624   8.878   1.785   0.697  0.7623 -0.5364 -0.4436
  487MOL0     C65625   8.994   1.698   0.661 -0.0188 -0.3395  0.0520
  487MOL0     C65626   9.015   1.699   0.508  0.1594  0.4365  0.1135
  487MOL0     N65627   9.155   1.732   0.476 -0.6168 -0.0637 -0.2222
  487MOL0     C65628   9.205   1.810   0.367  1.1312  0.8394 -0.2207
  487MOL0     C65629   9.331   1.781   0.367  0.2278 -0.5049 -0.0481
  487MOL0     C65630   9.425   1.817   0.251 -0.4118 -0.2059 -0.2509
  487MOL0     C65631   9.516   1.930   0.305  1.4361  1.7057 -0.0356
  487MOL0     C65632   9.463   2.070   0.277  0.6712  0.0573  0.5894
  487MOL0     C65633   9.579   2.172   0.314 -0.0093 -0.6580 -1.1194
  487MOL0     O65634   9.688   2.155   0.219 -0.1697 -0.2617 -0.2019
  487MOL0     C65635   9.799   2.234   0.234 -0.1760 -0.0465 -0.5694
  487MOL0     C65636   9.903   2.197   0.150  0.0279  0.5500  0.1558
  487MOL0     C65637  10.019   2.261   0.141 -1.1254  0.3428 -0.3620
  487MOL0     C65638  10.056   2.360   0.238  0.1025  0.9460  0.1810
  487MOL0     C65639  10.188   2.425   0.247 -0.2671 -0.4347  0.6990
  487MOL0     O65640  10.291   2.370   0.180  0.3721  0.4246  0.8245
  487MOL0     C65641  10.412   2.427   0.162 -0.3449 -0.2104  0.5537
  487MOL0     C65642  10.480   2.414   0.040  0.5976  0.0918  0.6982
  487MOL0     C65643  10.597   2.479   0.017  0.5496 -0.5869  0.6020
  487MOL0     C65644  10.664   2.545   0.123 -0.8718  0.7242  0.3954
  487MOL0     O65645  10.790   2.604   0.097  0.1538 -0.9609 -0.1706
  487MOL0     C65646  10.817   2.740   0.153 -1.0064  0.4837 -0.3990
  487MOL0     C65647  10.886   2.729   0.290 -0.0359  0.0267  0.0307
  487MOL0     C65648  11.005   2.632   0.294  0.0580  0.5579 -0.6698
  487MOL0     C65649  11.089   2.625   0.425 -0.4948  0.5809  0.2227
  487MOL0     C65650  11.178   2.501   0.419  0.1289 -0.2181  0.4755
  487MOL0     C65651  11.276   2.496   0.535 -0.8310 -0.6383 -0.1111
  487MOL0     C65652  11.410   2.586   0.511 -0.4920  0.4425 -0.2173
  487MOL0     C65653  11.489   2.534   0.388 -0.2051  0.5081 -0.7182
  487MOL0    Cl65654  11.607   2.660   0.346 -0.1520  0.1765 -0.3125
  487MOL0     C65655  10.609   2.548   0.252  0.2406 -0.7956 -0.4882
  487MOL0     C65656  10.484   2.477   0.271  0.0043 -1.0635 -0.2010
  487MOL0     O65657  10.192   2.538   0.306  0.0220  0.4822  0.2372
  487MOL0     C65658   9.950   2.391   0.336  0.4498  0.1630  0.5690
  487MOL0     C65659   9.830   2.322   0.336  0.3634 -0.2149  0.5878
  487MOL0     N65660   9.365   1.688   0.463 -0.1476  0.0521  0.6916
  487MOL0     N65661   9.258   1.653   0.526  0.6001  0.0688 -0.1573
  487MOL0     C65662   7.992   1.547   0.664 -0.1724 -0.5567  0.3240
  487MOL0     C65663   7.880   1.545   0.580  0.2880  0.0403 -1.2919
  487MOL0     C65664   7.452   1.652   0.483 -0.3105  0.1124 -0.1140
  487MOL0     C65665   7.464   1.609   0.347  0.5976 -0.3128 -0.6668
  487MOL0     C65666   7.357   1.607   0.254  0.2741  0.6568 -0.0133
  487MOL0     C65667   7.239   1.669   0.297  0.4754  0.3114 -0.7040
  487MOL0     O65668   7.139   1.678   0.200 -0.6350 -0.2881 -0.2299
  487MOL0     C65669   7.048   1.789   0.206 -0.4465 -0.6946  0.4170
  487MOL0     C65670   6.933   1.772   0.107 -0.0669 -0.4457  0.8315
  487MOL0     C65671   6.807   1.765   0.195  0.8323  0.7837  0.3769
  487MOL0     C65672   6.683   1.751   0.100  0.3394 -0.0816  0.7131
  487MOL0     C65673   6.682   1.624   0.025  0.3156 -0.2411  1.0762
  487MOL0     C65674   6.677   1.523  -0.045  0.2469 -0.7947  0.2769
  487MOL0     C65675   7.223   1.724   0.423 -0.4017 -0.7401 -1.0378
  487MOL0     C65676   7.334   1.716   0.518  0.2896  0.2691 -0.0483
  487MOL0     C65677   7.315   1.777   0.656 -0.1721  0.8199  0.0491
  487MOL0     H65678   7.765   1.862   0.662  0.2394  0.2211  0.3941
  487MOL0     H65679   7.961   1.860   0.793 -2.7325 -1.0084  1.5540
  487MOL0     H65680   8.257   1.509   0.769  0.2502 -0.8064 -1.3574
  487MOL0     H65681   8.241   1.621   0.642 -1.9157 -2.5741  1.0633
  487MOL0     H65682   8.404   1.666   0.900  1.8932 -0.8305 -1.5965
  487MOL0     H65683   8.360   1.802   0.793 -0.4078  0.4523 -0.6932
  487MOL0     H65684   8.477   1.675   0.602 -1.0267  1.2567  0.8315
  487MOL0     H65685   8.531   1.557   0.719 -2.0749 -0.3903 -0.9566
  487MOL0     H65686   8.609   1.854   0.691 -0.1506 -2.0586 -4.2113
  487MOL0     H65687   8.641   1.756   0.843  1.6831 -3.4791  0.5832
  487MOL0     H65688   8.765   1.608   0.734  1.0629 -0.8362 -1.3855
  487MOL0     H65689   8.738   1.685   0.571 -0.4815 -1.7504  0.3872
  487MOL0     H65690   8.869   1.881   0.644 -0.4936 -0.4491 -0.1055
  487MOL0     H65691   8.891   1.796   0.805  2.8300 -4.0617 -0.1748
  487MOL0     H65692   9.000   1.592   0.688  2.6123 -0.1590  0.4341
  487MOL0     H65693   9.078   1.747   0.711 -2.2607  1.3969  2.3480
  487MOL0     H65694   8.995   1.594   0.488  0.6308  0.3209  0.2386
  487MOL0     H65695   8.940   1.754   0.450  0.8454  0.2965 -0.9201
  487MOL0     H65696   9.147   1.862   0.292 -0.1303  2.3399  1.6952
  487MOL0     H65697   9.485   1.729   0.224 -1.9210 -1.3039 -0.1768
  487MOL0     H65698   9.367   1.851   0.164  0.2399  0.9807 -0.2437
  487MOL0     H65699   9.539   1.910   0.410 -0.1166 -0.9972 -0.1158
  487MOL0     H65700   9.610   1.920   0.251  1.9406  1.2914  0.9089
  487MOL0     H65701   9.376   2.087   0.342 -0.8629  1.5677 -1.6883
  487MOL0     H65702   9.431   2.088   0.174  1.1752  0.0665  0.4318
  487MOL0     H65703   9.622   2.157   0.414  0.6268  2.3939 -0.8447
  487MOL0     H65704   9.538   2.273   0.316  0.8762 -0.2903  0.6262
  487MOL0     H65705   9.879   2.121   0.077 -1.2361  2.7154 -1.8227
  487MOL0     H65706  10.092   2.242   0.063 -0.5096  1.3545 -0.0584
  487MOL0     H65707  10.430   2.363  -0.042  1.4139  1.4475 -0.7008
  487MOL0     H65708  10.646   2.470  -0.079  0.8311  2.8726  0.3138
  487MOL0     H65709  10.889   2.798   0.094  0.9064 -0.1050  1.2514
  487MOL0     H65710  10.729   2.805   0.152 -1.1192  0.4781 -4.0108
  487MOL0     H65711  10.915   2.825   0.333  1.1089 -1.3759  2.5758
  487MOL0     H65712  10.821   2.683   0.365  2.7545 -3.3495  0.6252
  487MOL0     H65713  10.969   2.532   0.268  4.2312 -1.5213  0.6693
  487MOL0     H65714  11.071   2.670   0.215 -1.0940  1.7741 -1.0939
  487MOL0     H65715  11.026   2.611   0.514  2.1991 -4.8099  1.7027
  487MOL0     H65716  11.144   2.719   0.435 -0.9079  1.0278 -1.4352
  487MOL0     H65717  11.241   2.511   0.331  2.1354  2.6426  2.0992
  487MOL0     H65718  11.121   2.408   0.419  0.3936 -0.4513 -2.0220
  487MOL0     H65719  11.229   2.542   0.623 -0.5213  3.9231 -2.0631
  487MOL0     H65720  11.306   2.395   0.563 -1.4266 -0.9631 -0.6310
  487MOL0     H65721  11.467   2.586   0.604  0.5663 -3.1219 -0.7485
  487MOL0     H65722  11.383   2.689   0.484 -1.0786  0.1747 -0.6881
  487MOL0     H65723  11.538   2.437   0.401  0.0366  0.9339  2.4348
  487MOL0     H65724  11.426   2.544   0.299 -0.3599 -1.2316 -0.8409
  487MOL0     H65725  10.642   2.613   0.332 -1.9965 -1.0882  0.7657
  487MOL0     H65726  10.441   2.494   0.369  1.8007 -1.3624  0.6968
  487MOL0     H65727   9.979   2.459   0.416  1.7816  1.5486 -0.9969
  487MOL0     H65728   9.761   2.346   0.416 -0.6810  0.1701 -0.4076
  487MOL0     H65729   8.060   1.462   0.668 -0.5232 -0.9356 -1.2990
  487MOL0     H65730   7.864   1.455   0.521  1.1392 -3.2946  2.9759
  487MOL0     H65731   7.555   1.566   0.307  0.4297 -0.2716 -1.0914
  487MOL0     H65732   7.372   1.571   0.153 -0.2054  0.1049  0.1090
  487MOL0     H65733   7.108   1.879   0.186 -0.3031 -1.2225 -1.8213
  487MOL0     H65734   7.004   1.803   0.305  1.8054  1.7662  1.2134
  487MOL0     H65735   6.941   1.689   0.035 -4.6885 -0.7850  0.3710
  487MOL0     H65736   6.922   1.859   0.042  0.0829 -0.8507  0.2556
  487MOL0     H65737   6.777   1.859   0.243 -2.0894  0.2582 -0.2046
  487MOL0     H65738   6.806   1.689   0.274 -2.6729  0.5568  0.2992
  487MOL0     H65739   6.586   1.747   0.150  0.0188 -3.4753  0.0719
  487MOL0     H65740   6.671   1.836   0.033 -1.5332 -1.4842 -0.8427
  487MOL0     H65741   6.694   1.425  -0.086  0.7209 -0.9075  0.7249
  487MOL0     H65742   7.132   1.774   0.456 -0.0711 -0.9230  0.1662
  487MOL0     H65743   7.397   1.848   0.672  0.2871  0.4512 -0.6345
  487MOL0     H65744   7.221   1.833   0.658  0.8870  2.6877  0.4358
  487MOL0     H65745   7.312   1.711   0.743 -0.4527  1.9329  0.9091
  488MOL0     O65746   0.018   4.905   9.361  0.1273  0.3863 -0.0457
  488MOL0     C65747  -0.033   4.884   9.256 -0.8487  1.6411  0.0452
  488MOL0     O65748   0.034   4.849   9.146  0.0301 -0.2736 -0.0581
  488MOL0     C65749   0.165   4.883   9.137  0.3942 -0.6150 -0.0913
  488MOL0     C65750   0.232   4.983   9.209 -0.8221  0.5321  0.9461
  488MOL0     C65751   0.362   5.033   9.181  0.2026 -0.0610 -0.4924
  488MOL0     C65752   0.435   4.975   9.079 -0.3787 -0.1554 -0.4899
  488MOL0     O65753   0.564   5.010   9.050 -0.3299  0.4479 -0.2407
  488MOL0     C65754   0.589   5.142   9.018  1.0307 -0.3478  0.1366
  488MOL0     C65755   0.691   5.165   8.910 -0.3647 -0.5704 -0.3805
  488MOL0     C65756   0.730   5.326   8.900 -0.7163 -0.6138 -0.5842
  488MOL0     C65757   0.826   5.352   8.781 -0.4644  0.6661  0.2320
  488MOL0     C65758   0.937   5.243   8.766  0.2588 -0.2073  0.2546
  488MOL0     C65759   1.059   5.317   8.705  0.4491  0.7320 -0.2067
  488MOL0     C65760   1.165   5.209   8.678  0.3413  0.3253 -0.4048
  488MOL0     C65761   1.310   5.272   8.681 -0.0526 -0.3810 -0.9489
  488MOL0     N65762   1.326   5.374   8.577  0.5565 -0.6857  0.5434
  488MOL0     C65763   1.349   5.369   8.438  0.2728 -0.0468  0.8189
  488MOL0     C65764   1.360   5.483   8.388 -0.4025 -0.2980  0.7170
  488MOL0     C65765   1.384   5.516   8.240 -0.2328  0.1738  0.5242
  488MOL0     C65766   1.527   5.484   8.201  0.2395 -1.0198 -0.5390
  488MOL0     C65767   1.549   5.345   8.132  0.0466 -0.7628 -0.4640
  488MOL0     C65768   1.700   5.333   8.095 -0.7513  1.0089 -0.7653
  488MOL0     O65769   1.741   5.401   7.974 -0.5781 -0.3503  0.8350
  488MOL0     C65770   1.877   5.399   7.945  1.2584  0.5378  0.4310
  488MOL0     C65771   1.914   5.453   7.821 -0.8108 -0.2680  0.2488
  488MOL0     C65772   2.045   5.457   7.778 -0.2294  0.0729  0.0328
  488MOL0     C65773   2.148   5.407   7.859  0.2877 -1.2026  0.5455
  488MOL0     C65774   2.294   5.416   7.821  0.8985  0.0860 -0.4304
  488MOL0     O65775   2.380   5.395   7.926 -0.3858  0.4142 -0.2448
  488MOL0     C65776   2.512   5.424   7.913 -0.5939  0.5969 -0.1520
  488MOL0     C65777   2.560   5.532   7.830  0.0389 -0.1571 -0.0768
  488MOL0     C65778   2.699   5.560   7.847  0.1178 -0.2262  0.5920
  488MOL0     C65779   2.784   5.489   7.930 -0.2174  0.3094  1.7596
  488MOL0     O65780   2.919   5.521   7.927  0.6388 -0.8361  0.0556
  488MOL0     C65781   3.006   5.502   8.041 -0.2313 -0.0813  0.7380
  488MOL0     C65782   3.151   5.498   7.990  0.3392 -0.5219  0.3349
  488MOL0     C65783   3.170   5.413   7.868 -0.3132  0.7359 -0.4984
  488MOL0     C65784   3.316   5.438   7.813  0.6873 -0.1131 -0.1352
  488MOL0     C65785   3.321   5.368   7.672  0.2710  0.5807  0.1962
  488MOL0     C65786   3.450   5.388   7.599 -0.0454  0.1913  0.0010
  488MOL0     C65787   3.497   5.526   7.533  0.8875  0.2438  0.1817
  488MOL0     C65788   3.642   5.523   7.487  0.8047 -0.3974  0.0176
  488MOL0    Cl65789   3.738   5.499   7.632 -0.5143 -0.3414 -0.2766
  488MOL0     C65790   2.731   5.383   8.000  0.0207  0.4794  0.7213
  488MOL0     C65791   2.595   5.347   7.990 -0.3199  0.0562  0.4359
  488MOL0     O65792   2.314   5.431   7.701  0.1853 -0.0216 -0.6332
  488MOL0     C65793   2.112   5.335   7.972 -0.2279  0.3435  0.6714
  488MOL0     C65794   1.972   5.324   8.013  0.0774  0.5701 -0.7084
  488MOL0     N65795   1.322   5.573   8.481 -0.7594  0.2671 -0.1109
  488MOL0     N65796   1.294   5.504   8.590 -0.1082 -0.6475  0.0238
  488MOL0     C65797   0.373   4.867   9.014  0.8611  0.3416 -0.5802
  488MOL0     C65798   0.242   4.817   9.043 -0.9641 -0.1918  0.8720
  488MOL0     C65799  -0.183   4.858   9.245  0.0626  0.1023 -0.3163
  488MOL0     C65800  -0.238   4.848   9.117 -0.5259  0.8318 -0.6643
  488MOL0     C65801  -0.381   4.830   9.098  0.3740 -0.4357  0.6488
  488MOL0     C65802  -0.466   4.806   9.208  0.4723  1.3062  0.5729
  488MOL0     O65803  -0.606   4.800   9.210  0.1982 -0.7708 -0.1622
  488MOL0     C65804  -0.671   4.794   9.086 -0.7268  0.3705 -0.8959
  488MOL0     C65805  -0.817   4.789   9.126 -0.4451 -0.3767 -0.8653
  488MOL0     C65806  -0.859   4.651   9.191  0.2526 -0.8232 -0.2124
  488MOL0     C65807  -0.987   4.589   9.133  0.3346 -0.4210 -0.2143
  488MOL0     C65808  -1.111   4.659   9.168 -0.4626 -0.0780 -0.2814
  488MOL0     C65809  -1.221   4.704   9.198  0.6178  0.4021  0.4339
  488MOL0     C65810  -0.405   4.796   9.331 -0.1384 -0.0164 -0.8513
  488MOL0     C65811  -0.269   4.826   9.353 -0.3632 -0.2523  0.4802
  488MOL0     C65812  -0.219   4.804   9.495  0.3060 -0.8860 -0.2404
  488MOL0     H65813   0.186   5.043   9.287  0.8467  3.9028 -0.4415
  488MOL0     H65814   0.402   5.115   9.240  2.4893 -1.8378  0.5664
  488MOL0     H65815   0.490   5.178   8.990 -0.3552 -3.0599  1.1747
  488MOL0     H65816   0.606   5.207   9.105 -1.7816  1.8881 -0.8009
  488MOL0     H65817   0.664   5.123   8.813  1.4575 -0.1461 -1.1249
  488MOL0     H65818   0.782   5.109   8.933  0.0232  0.1090 -0.2263
  488MOL0     H65819   0.784   5.366   8.986  2.9452  0.0529 -2.9505
  488MOL0     H65820   0.642   5.390   8.890  0.8281  2.3381  2.6510
  488MOL0     H65821   0.781   5.368   8.682 -1.6428 -3.3750 -0.0677
  488MOL0     H65822   0.871   5.447   8.811 -1.3683  2.3993 -3.2194
  488MOL0     H65823   0.965   5.213   8.867  2.0062  1.7794  0.4210
  488MOL0     H65824   0.907   5.160   8.701  1.9961 -1.0272  0.4530
  488MOL0     H65825   1.040   5.364   8.608  0.3588  0.9988 -0.0602
  488MOL0     H65826   1.091   5.396   8.774  0.8368  0.0469  0.4195
  488MOL0     H65827   1.151   5.168   8.578  1.2213 -0.1714 -0.3354
  488MOL0     H65828   1.157   5.131   8.755 -1.5874  0.0574 -0.8430
  488MOL0     H65829   1.327   5.314   8.780  1.6248 -0.3700 -1.2200
  488MOL0     H65830   1.388   5.197   8.667 -0.2521 -0.5531 -1.1546
  488MOL0     H65831   1.368   5.282   8.376 -1.5073  0.2390 -0.1833
  488MOL0     H65832   1.316   5.467   8.170  0.5471 -2.1759  1.2995
  488MOL0     H65833   1.377   5.625   8.244  0.8647  0.2416  1.1623
  488MOL0     H65834   1.561   5.553   8.124 -0.3504  0.0235  0.1189
  488MOL0     H65835   1.592   5.497   8.288 -1.6209  2.5147  0.5216
  488MOL0     H65836   1.495   5.338   8.037  2.4540  0.5145 -2.0158
  488MOL0     H65837   1.539   5.267   8.208  0.5298  0.3438  0.7744
  488MOL0     H65838   1.733   5.231   8.073  0.9548  1.8157 -2.2279
  488MOL0     H65839   1.765   5.374   8.172  0.0198 -0.4183 -0.6128
  488MOL0     H65840   1.831   5.493   7.763 -0.2000  1.5017  0.5395
  488MOL0     H65841   2.082   5.517   7.696  0.9248  0.4938  0.8182
  488MOL0     H65842   2.495   5.594   7.770 -0.2098 -1.8993 -1.6878
  488MOL0     H65843   2.745   5.644   7.795  1.4535 -0.5555  1.1967
  488MOL0     H65844   2.979   5.586   8.105 -2.9432  1.1835 -1.8462
  488MOL0     H65845   2.992   5.405   8.090  1.6375 -1.0779 -0.5833
  488MOL0     H65846   3.185   5.600   7.973 -0.0384 -0.6097 -1.0384
  488MOL0     H65847   3.214   5.472   8.076 -1.0818 -0.9760  1.2831
  488MOL0     H65848   3.149   5.308   7.888 -0.5479  0.3566 -2.5195
  488MOL0     H65849   3.091   5.434   7.795 -1.6370  0.6773  0.8663
  488MOL0     H65850   3.393   5.416   7.888  1.3479  2.1719 -0.0786
  488MOL0     H65851   3.323   5.546   7.796 -0.7112  0.1427  0.7881
  488MOL0     H65852   3.235   5.400   7.612 -0.5066  0.6595  1.3363
  488MOL0     H65853   3.324   5.260   7.691  0.3526  0.2344 -1.5766
  488MOL0     H65854   3.535   5.357   7.660 -0.6876 -2.9947 -0.5578
  488MOL0     H65855   3.444   5.311   7.522 -1.3679 -1.3848  1.6122
  488MOL0     H65856   3.486   5.610   7.603  0.0029  3.1678 -3.2070
  488MOL0     H65857   3.428   5.542   7.450  2.4710  0.2766 -1.1566
  488MOL0     H65858   3.673   5.452   7.410  0.9701  1.3396 -1.6158
  488MOL0     H65859   3.651   5.624   7.445 -1.9958 -0.2944 -0.5113
  488MOL0     H65860   2.791   5.319   8.064 -0.1463  1.6880  2.1530
  488MOL0     H65861   2.551   5.273   8.056  1.9573 -0.1429  1.8435
  488MOL0     H65862   2.185   5.278   8.028  0.6238  0.2444 -0.4891
  488MOL0     H65863   1.956   5.277   8.109  2.2830  1.7214  0.2819
  488MOL0     H65864   0.427   4.803   8.945 -1.8813 -3.0355  0.1226
  488MOL0     H65865   0.196   4.730   8.998 -0.0937 -1.5767  2.5386
  488MOL0     H65866  -0.169   4.851   9.033  1.4978  0.0122  0.8862
  488MOL0     H65867  -0.429   4.841   9.002 -0.9468 -1.7417  1.1200
  488MOL0     H65868  -0.643   4.711   9.021  1.4117 -0.5398  1.0296
  488MOL0     H65869  -0.657   4.884   9.025 -2.0089  0.2384 -1.4171
  488MOL0     H65870  -0.879   4.797   9.037  0.1559 -1.4648 -1.4049
  488MOL0     H65871  -0.846   4.874   9.189  3.6449  2.2840 -2.1642
  488MOL0     H65872  -0.883   4.656   9.298  1.1321 -1.6007  0.0328
  488MOL0     H65873  -0.781   4.574   9.181  1.4815 -0.1375  2.7985
  488MOL0     H65874  -0.969   4.575   9.026  1.1618  2.2163 -0.4967
  488MOL0     H65875  -1.001   4.489   9.175  0.6579  0.5956  2.5319
  488MOL0     H65876  -1.313   4.748   9.229  0.1570 -1.4019  1.8254
  488MOL0     H65877  -0.448   4.777   9.428  2.3025  2.9409  0.9893
  488MOL0     H65878  -0.214   4.901   9.544  3.6254 -0.6501 -0.8427
  488MOL0     H65879  -0.285   4.734   9.548 -0.2329  0.0424  0.3436
  488MOL0     H65880  -0.120   4.759   9.501  0.6294 -0.0233  1.5119
  489MOL0     O65881   6.220   3.015   6.504 -0.7956  0.2460  0.6993
  489MOL0     C65882   6.243   2.973   6.386  0.4531  0.3532 -0.1581
  489MOL0     O65883   6.363   2.990   6.322 -0.0906  0.5207  0.1936
  489MOL0     C65884   6.467   3.046   6.387 -0.5751 -0.7127  0.3135
  489MOL0     C65885   6.544   2.959   6.474 -0.4669  0.1489 -0.4788
  489MOL0     C65886   6.646   3.023   6.542 -0.7411 -0.2513  0.4789
  489MOL0     C65887   6.699   3.149   6.519  0.0192  0.0598 -0.9047
  489MOL0     O65888   6.814   3.204   6.573  0.0630 -0.1790 -0.3299
  489MOL0     C65889   6.920   3.111   6.607 -0.0756  0.3080 -0.2005
  489MOL0     C65890   7.033   3.190   6.656 -0.6651 -0.7423  0.0171
  489MOL0     C65891   7.169   3.125   6.641  0.9439 -0.8341  0.1415
  489MOL0     C65892   7.265   3.234   6.710 -0.2704  0.0573  0.6404
  489MOL0     C65893   7.408   3.199   6.692 -0.1496 -0.4779  0.3826
  489MOL0     C65894   7.449   3.070   6.773  0.0127 -0.3103  0.3185
  489MOL0     C65895   7.455   3.106   6.919  0.2097  0.5127  0.1412
  489MOL0     C65896   7.553   3.023   7.007  0.2577  0.2720  0.1367
  489MOL0     N65897   7.523   2.884   6.992  0.8681  0.1751 -0.3504
  489MOL0     C65898   7.566   2.810   6.888 -0.1358 -0.4057 -0.8213
  489MOL0     C65899   7.508   2.692   6.922  0.0549  0.3009  0.6960
  489MOL0     C65900   7.542   2.567   6.848 -0.0220  0.2769  0.8153
  489MOL0     C65901   7.690   2.519   6.859 -0.2331 -0.0240 -0.0991
  489MOL0     C65902   7.708   2.365   6.845 -0.1329 -0.2419 -0.2140
  489MOL0     C65903   7.852   2.325   6.824  0.3854 -0.2896 -0.4657
  489MOL0     O65904   7.893   2.357   6.693 -0.4252 -0.4081 -0.1298
  489MOL0     C65905   8.023   2.319   6.677 -0.8887  0.6218  0.2721
  489MOL0     C65906   8.103   2.407   6.615  1.2731 -0.2952  0.1555
  489MOL0     C65907   8.237   2.391   6.613 -0.2489 -0.2698 -0.1898
  489MOL0     C65908   8.306   2.282   6.673 -0.4949  0.2230  0.0915
  489MOL0     C65909   8.456   2.264   6.654  0.2045  0.0504 -0.1298
  489MOL0     O65910   8.521   2.229   6.772 -0.4249 -0.4917  1.0031
  489MOL0     C65911   8.653   2.270   6.780  0.1536  0.1803  0.2329
  489MOL0     C65912   8.751   2.221   6.695 -0.0768 -0.3184  0.4865
  489MOL0     C65913   8.886   2.243   6.714 -0.6576  0.1305  0.1465
  489MOL0     C65914   8.935   2.319   6.818  0.2250 -0.1274  1.0304
  489MOL0     O65915   9.067   2.326   6.847  0.9729  0.1616  0.2556
  489MOL0     C65916   9.177   2.287   6.756  0.0358 -0.8132 -0.4458
  489MOL0     C65917   9.315   2.349   6.800  0.0293 -0.8262  0.5194
  489MOL0     C65918   9.434   2.285   6.734  0.2842  0.8916  0.6647
  489MOL0     C65919   9.413   2.250   6.584 -0.7926 -0.5209  0.0260
  489MOL0     C65920   9.559   2.242   6.529 -0.0061  0.5297  0.9517
  489MOL0     C65921   9.571   2.254   6.375 -0.1195 -0.0198  0.6939
  489MOL0     C65922   9.707   2.197   6.328 -0.0954 -0.2696  1.0031
  489MOL0     C65923   9.723   2.216   6.176  0.0993  0.1605 -0.4022
  489MOL0    Cl65924   9.619   2.107   6.083 -0.0240  0.3541  0.1103
  489MOL0     C65925   8.841   2.373   6.902 -0.6497 -0.2229  0.3211
  489MOL0     C65926   8.706   2.350   6.881  0.2134 -0.8725 -0.4396
  489MOL0     O65927   8.502   2.317   6.556 -0.5362  0.4183  0.3542
  489MOL0     C65928   8.229   2.181   6.734  0.0283  0.2164 -0.3866
  489MOL0     C65929   8.087   2.203   6.726  0.1251  0.2939 -0.7456
  489MOL0     N65930   7.430   2.702   7.033 -0.6729  1.1461 -0.3174
  489MOL0     N65931   7.435   2.820   7.075  0.0299  0.5973  0.6339
  489MOL0     C65932   6.620   3.226   6.429 -0.1754  1.2053  0.5121
  489MOL0     C65933   6.511   3.177   6.367 -0.3300  0.3910 -0.2314
  489MOL0     C65934   6.137   2.899   6.306  0.4889 -0.7905  0.5573
  489MOL0     C65935   6.160   2.895   6.162 -0.6990 -0.4077 -0.6212
  489MOL0     C65936   6.069   2.851   6.076 -0.4279  0.3404 -0.3526
  489MOL0     C65937   5.943   2.793   6.127 -0.6716 -0.6952 -0.4701
  489MOL0     O65938   5.854   2.729   6.047 -0.8220 -1.1279 -0.5598
  489MOL0     C65939   5.857   2.732   5.898 -0.2246 -0.3108  0.2673
  489MOL0     C65940   5.731   2.665   5.853 -0.2629 -1.1946  0.1692
  489MOL0     C65941   5.607   2.758   5.851  0.5563 -0.2305  0.7553
  489MOL0     C65942   5.471   2.682   5.830  0.2323 -0.4274 -0.5107
  489MOL0     C65943   5.464   2.645   5.689 -0.0436 -0.0522 -1.1065
  489MOL0     C65944   5.454   2.650   5.569 -0.1226  0.6950  0.0515
  489MOL0     C65945   5.920   2.799   6.264 -0.8173  0.2157 -0.2629
  489MOL0     C65946   6.013   2.852   6.357  0.0952 -0.6430  1.1176
  489MOL0     C65947   5.981   2.852   6.511  0.4181 -0.2848  0.3155
  489MOL0     H65948   6.528   2.853   6.492  0.6938  0.3185  2.0007
  489MOL0     H65949   6.696   2.958   6.614  0.3258 -1.1974 -1.0522
  489MOL0     H65950   6.898   3.041   6.688 -0.5372  0.4804 -0.1714
  489MOL0     H65951   6.943   3.049   6.520 -3.1322 -3.2306  1.2318
  489MOL0     H65952   7.023   3.210   6.763  1.4577 -1.3580  0.3763
  489MOL0     H65953   7.028   3.292   6.616 -1.7697 -0.1329  1.5887
  489MOL0     H65954   7.182   3.114   6.533 -2.9301  1.0364 -0.7060
  489MOL0     H65955   7.161   3.037   6.704 -0.3736 -2.0857 -1.6717
  489MOL0     H65956   7.245   3.327   6.657 -1.5695 -1.4460 -1.6731
  489MOL0     H65957   7.248   3.251   6.817  2.5308  4.0821  0.6776
  489MOL0     H65958   7.420   3.171   6.587  0.3827  0.0130  0.3040
  489MOL0     H65959   7.476   3.283   6.709 -0.4822 -0.5931  2.4709
  489MOL0     H65960   7.390   2.980   6.754  2.4316 -2.0261  0.5615
  489MOL0     H65961   7.551   3.057   6.737 -0.1121 -0.6662  0.0955
  489MOL0     H65962   7.357   3.096   6.967  0.8574  2.2613  1.9701
  489MOL0     H65963   7.480   3.211   6.934  0.1048  0.6798 -0.8303
  489MOL0     H65964   7.655   3.034   6.968 -0.6175 -0.8751 -2.7630
  489MOL0     H65965   7.550   3.053   7.112 -2.9889 -0.4756  0.3447
  489MOL0     H65966   7.635   2.823   6.805 -0.2415 -1.5889 -1.1156
  489MOL0     H65967   7.471   2.492   6.885  0.0607  0.6287  1.7056
  489MOL0     H65968   7.536   2.585   6.740  0.1246  1.3585  0.9769
  489MOL0     H65969   7.755   2.571   6.789 -2.3409  1.2541 -1.2135
  489MOL0     H65970   7.738   2.542   6.955  3.6156  1.3816 -2.1334
  489MOL0     H65971   7.650   2.314   6.768  0.0322  0.4598 -0.8136
  489MOL0     H65972   7.679   2.329   6.944 -2.4868  2.3562  0.1387
  489MOL0     H65973   7.871   2.220   6.851 -3.1289 -0.0828  3.8296
  489MOL0     H65974   7.912   2.371   6.903 -3.5430  0.6975  2.2290
  489MOL0     H65975   8.043   2.488   6.574 -0.4014  0.0202  2.9786
  489MOL0     H65976   8.288   2.473   6.561  0.5227 -1.8497 -2.0534
  489MOL0     H65977   8.704   2.160   6.619  0.1103 -1.0472  0.9373
  489MOL0     H65978   8.955   2.188   6.650 -1.0886  0.7790 -0.9088
  489MOL0     H65979   9.184   2.178   6.769 -0.5361 -0.6867  1.2265
  489MOL0     H65980   9.165   2.324   6.654 -2.2591 -0.7192 -0.1807
  489MOL0     H65981   9.324   2.455   6.774 -2.2584 -0.8809 -0.8176
  489MOL0     H65982   9.342   2.336   6.905  3.1554 -4.3404 -0.5309
  489MOL0     H65983   9.520   2.352   6.746  0.1699  1.1266  0.2065
  489MOL0     H65984   9.462   2.192   6.784  2.3837  2.4258  2.5937
  489MOL0     H65985   9.344   2.324   6.542 -1.4992 -2.0257 -1.6156
  489MOL0     H65986   9.369   2.149   6.580 -0.0344 -0.8996  1.0012
  489MOL0     H65987   9.604   2.148   6.563 -1.6224 -0.0637  1.5286
  489MOL0     H65988   9.622   2.317   6.578 -1.4656  0.6705  2.6964
  489MOL0     H65989   9.482   2.214   6.326  0.4747  0.8097 -1.1513
  489MOL0     H65990   9.576   2.358   6.341  0.4333 -0.4784 -0.6683
  489MOL0     H65991   9.704   2.091   6.355 -0.7255 -0.4220  0.3827
  489MOL0     H65992   9.797   2.239   6.372  0.1208 -2.3073  2.6498
  489MOL0     H65993   9.692   2.316   6.145 -3.6929 -1.5909 -3.1393
  489MOL0     H65994   9.830   2.204   6.156  0.1385 -1.4077  0.6391
  489MOL0     H65995   8.879   2.417   6.994  1.9104 -3.3159  0.9046
  489MOL0     H65996   8.643   2.392   6.959 -0.4533 -0.4165 -1.2113
  489MOL0     H65997   8.282   2.092   6.764 -0.8513 -1.0178 -2.3276
  489MOL0     H65998   8.019   2.126   6.763  1.5463 -0.5880  0.1478
  489MOL0     H65999   6.647   3.329   6.409 -1.9143  1.3149 -1.6869
  489MOL0     H66000   6.456   3.238   6.296  0.2554 -1.7813 -2.7302
  489MOL0     H66001   6.256   2.934   6.130 -0.3670 -1.5013 -0.9872
  489MOL0     H66002   6.087   2.837   5.970 -2.1722 -1.1215 -0.5106
  489MOL0     H66003   5.942   2.672   5.864 -0.8073 -0.8518 -0.2782
  489MOL0     H66004   5.874   2.833   5.860 -0.5092 -0.9440 -1.6444
  489MOL0     H66005   5.705   2.585   5.923  0.6996  0.7848  2.9515
  489MOL0     H66006   5.739   2.623   5.752 -0.3807 -2.7416  0.7711
  489MOL0     H66007   5.611   2.820   5.761 -2.2685  0.1622  0.8144
  489MOL0     H66008   5.612   2.814   5.945  0.1824  0.4627  0.3678
  489MOL0     H66009   5.468   2.590   5.889 -2.3717  0.3173  0.6352
  489MOL0     H66010   5.389   2.752   5.843  0.4542 -0.3692  0.7526
  489MOL0     H66011   5.443   2.663   5.463 -1.3842  2.5724  0.3646
  489MOL0     H66012   5.837   2.734   6.287  0.1895 -0.6678  1.0944
  489MOL0     H66013   5.881   2.818   6.539 -0.1968 -1.6008 -2.9718
  489MOL0     H66014   6.040   2.773   6.560 -1.3647 -0.6517  1.9960
  489MOL0     H66015   5.984   2.951   6.556 -1.3782  0.1545 -0.4600
  490MOL0     O66016   1.334   1.695   3.034  0.2001 -0.1228 -0.2808
  490MOL0     C66017   1.274   1.805   3.048  0.1882  0.2555  0.6052
  490MOL0     O66018   1.334   1.930   3.025 -0.7224  0.1462  0.2487
  490MOL0     C66019   1.467   1.934   2.989 -0.0543 -1.1118 -0.1499
  490MOL0     C66020   1.570   1.924   3.087  0.5049 -0.6438 -0.6422
  490MOL0     C66021   1.700   1.938   3.055  0.2505  0.0410 -0.4894
  490MOL0     C66022   1.739   1.969   2.919 -0.2112 -0.5113 -0.2058
  490MOL0     O66023   1.869   2.007   2.890 -0.0413  0.2441  0.1172
  490MOL0     C66024   1.974   1.943   2.978  0.4960 -0.5574 -0.6333
  490MOL0     C66025   2.110   1.973   2.913 -0.0302 -0.0717 -0.8718
  490MOL0     C66026   2.123   2.122   2.892 -0.1522 -0.7341  0.5505
  490MOL0     C66027   2.272   2.160   2.895 -0.1517  0.4381  0.4205
  490MOL0     C66028   2.275   2.312   2.895 -0.6398  0.2262 -0.0268
  490MOL0     C66029   2.426   2.344   2.878  1.0687 -0.1978  1.0346
  490MOL0     C66030   2.466   2.488   2.925 -0.5452  0.3517 -0.4141
  490MOL0     C66031   2.619   2.499   2.962 -0.2386 -0.0569  0.6691
  490MOL0     N66032   2.704   2.437   2.858 -0.3843 -0.2883  0.7539
  490MOL0     C66033   2.743   2.498   2.739 -0.2094 -1.1329  0.1986
  490MOL0     C66034   2.809   2.405   2.665  0.0090  0.1130  0.1217
  490MOL0     C66035   2.874   2.424   2.530 -0.4014 -0.0688 -0.3601
  490MOL0     C66036   2.992   2.514   2.523  0.2654 -0.7441 -0.0688
  490MOL0     C66037   3.018   2.555   2.368  0.5853 -0.2834 -0.0897
  490MOL0     C66038   3.139   2.636   2.340 -0.9812  0.6806  0.5273
  490MOL0     O66039   3.255   2.551   2.333 -0.1631 -0.3467 -0.3286
  490MOL0     C66040   3.383   2.598   2.338 -0.0347 -0.4115 -0.4000
  490MOL0     C66041   3.420   2.732   2.321 -0.5863 -0.5865  0.9165
  490MOL0     C66042   3.563   2.769   2.330  0.2920 -0.7371  0.1995
  490MOL0     C66043   3.664   2.671   2.344  0.2901  0.0284 -0.5594
  490MOL0     C66044   3.810   2.709   2.352  0.7781 -0.0703  0.0046
  490MOL0     O66045   3.838   2.841   2.327 -0.1367 -0.1712 -0.1936
  490MOL0     C66046   3.965   2.883   2.325 -0.3011 -0.5665 -0.8762
  490MOL0     C66047   4.011   2.974   2.234 -1.6116 -0.4567 -0.8833
  490MOL0     C66048   4.142   3.031   2.256 -0.3233 -1.1031 -0.0757
  490MOL0     C66049   4.216   3.016   2.372 -0.8314 -0.1391  0.7260
  490MOL0     O66050   4.343   3.071   2.374 -0.5780  0.0031  0.5979
  490MOL0     C66051   4.370   3.155   2.486 -0.2935  0.6573  0.2883
  490MOL0     C66052   4.489   3.232   2.447  0.4205 -0.0840 -0.3326
  490MOL0     C66053   4.562   3.308   2.569 -0.5620 -0.2547 -0.5726
  490MOL0     C66054   4.691   3.365   2.530 -0.0360 -0.9566  0.3853
  490MOL0     C66055   4.739   3.447   2.658  0.0093  0.1099  0.2474
  490MOL0     C66056   4.870   3.523   2.629 -0.3633 -0.8123  0.2933
  490MOL0     C66057   4.911   3.632   2.736  0.1698 -0.1272  0.1120
  490MOL0     C66058   4.878   3.775   2.695  1.2091  1.1740 -0.1470
  490MOL0    Cl66059   4.974   3.893   2.782  0.1689 -0.0909  0.5732
  490MOL0     C66060   4.166   2.930   2.465  0.1212  0.3303 -0.4745
  490MOL0     C66061   4.042   2.869   2.439 -0.9779  0.9179  0.1266
  490MOL0     O66062   3.893   2.625   2.375 -0.6793  0.1414 -0.4901
  490MOL0     C66063   3.620   2.536   2.366 -0.3467  0.1301  0.2409
  490MOL0     C66064   3.481   2.492   2.360 -0.2546  0.3728  0.5096
  490MOL0     N66065   2.797   2.291   2.729 -0.1314 -0.4278  0.0339
  490MOL0     N66066   2.743   2.307   2.847 -0.5356  0.5708  0.7125
  490MOL0     C66067   1.637   1.993   2.821 -0.1794 -0.2703 -0.2268
  490MOL0     C66068   1.503   1.964   2.857  0.7512  0.6721 -0.1450
  490MOL0     C66069   1.142   1.803   3.098  0.3140 -0.3846  0.7497
  490MOL0     C66070   1.122   1.880   3.217 -0.1512 -0.4778  0.2873
  490MOL0     C66071   0.995   1.889   3.271 -0.5808  0.8666  0.0620
  490MOL0     C66072   0.887   1.827   3.213 -0.0750 -0.9844 -0.0122
  490MOL0     O66073   0.759   1.824   3.270  0.6825 -0.1586 -0.2844
  490MOL0     C66074   0.737   1.921   3.379  0.8088 -0.5622 -0.2153
  490MOL0     C66075   0.595   1.910   3.417  0.0495  0.1887  0.2542
  490MOL0     C66076   0.548   1.765   3.427  0.8058 -0.4022 -0.4648
  490MOL0     C66077   0.397   1.765   3.467  0.2867 -0.2327 -0.1206
  490MOL0     C66078   0.384   1.811   3.608  0.0236 -0.4720  0.0741
  490MOL0     C66079   0.351   1.844   3.721 -0.4327 -0.4566  0.2683
  490MOL0     C66080   0.906   1.754   3.094 -0.0702  0.4355 -0.6140
  490MOL0     C66081   1.038   1.736   3.039 -0.1715 -0.1090 -0.3856
  490MOL0     C66082   1.058   1.634   2.921 -0.8817 -0.3922 -0.4603
  490MOL0     H66083   1.551   1.912   3.193  1.6015  1.3717 -0.1704
  490MOL0     H66084   1.768   1.904   3.132  0.3697 -0.4915 -0.8239
  490MOL0     H66085   1.980   1.978   3.082  0.2730 -0.9005 -0.5042
  490MOL0     H66086   1.956   1.836   2.989 -3.1629 -0.6394 -4.9263
  490MOL0     H66087   2.122   1.919   2.819  2.9432 -0.4531 -0.3743
  490MOL0     H66088   2.183   1.945   2.989 -2.4739 -1.2406  1.2068
  490MOL0     H66089   2.053   2.165   2.964  0.1194  1.2169 -0.2842
  490MOL0     H66090   2.093   2.157   2.793  0.2706  1.4584  1.1417
  490MOL0     H66091   2.326   2.134   2.987  0.9330 -0.1838 -0.3631
  490MOL0     H66092   2.328   2.108   2.817 -0.6690 -1.4834  1.2561
  490MOL0     H66093   2.221   2.354   2.810  1.5264 -0.3775 -1.7947
  490MOL0     H66094   2.244   2.353   2.991  1.8885  0.8737  0.5808
  490MOL0     H66095   2.479   2.277   2.946  0.2963  0.7248  2.6041
  490MOL0     H66096   2.457   2.334   2.773  1.4295  4.4059  0.4767
  490MOL0     H66097   2.410   2.512   3.016 -1.2475  0.9317 -0.9928
  490MOL0     H66098   2.447   2.565   2.850 -2.7252  1.8628  1.5852
  490MOL0     H66099   2.643   2.604   2.982  2.3012 -0.6302  0.9790
  490MOL0     H66100   2.636   2.442   3.054  1.7448 -2.1448 -0.8715
  490MOL0     H66101   2.723   2.599   2.705  1.1641 -1.6607 -2.4385
  490MOL0     H66102   2.914   2.329   2.494  0.8103  0.0392  0.6091
  490MOL0     H66103   2.798   2.447   2.455 -0.1841 -3.9240 -1.9893
  490MOL0     H66104   2.958   2.605   2.574  2.2974 -0.2118  0.4150
  490MOL0     H66105   3.074   2.458   2.569 -0.4707 -1.8679 -0.0823
  490MOL0     H66106   2.926   2.605   2.337  2.0770  1.3509 -2.2238
  490MOL0     H66107   3.025   2.462   2.310 -0.1274 -0.5842  0.2972
  490MOL0     H66108   3.152   2.705   2.424 -2.4931  0.8569  0.6366
  490MOL0     H66109   3.129   2.685   2.243 -0.7824 -1.5585 -0.6988
  490MOL0     H66110   3.344   2.801   2.288 -0.1951 -0.4512  0.2964
  490MOL0     H66111   3.599   2.870   2.318  0.5880 -0.9380 -0.6335
  490MOL0     H66112   3.947   3.021   2.160 -0.7493  1.9964 -0.1704
  490MOL0     H66113   4.185   3.095   2.180  2.9032 -0.3847  2.1740
  490MOL0     H66114   4.291   3.229   2.504 -1.9960 -1.0659  0.2903
  490MOL0     H66115   4.402   3.093   2.570  0.6186 -0.3174 -0.7403
  490MOL0     H66116   4.554   3.161   2.395 -1.1281 -1.2739 -0.7301
  490MOL0     H66117   4.467   3.312   2.376 -0.9731  0.1113  0.2911
  490MOL0     H66118   4.493   3.384   2.607  0.7294  1.0377 -0.7238
  490MOL0     H66119   4.579   3.237   2.650 -1.8887  1.6124  1.4532
  490MOL0     H66120   4.677   3.437   2.449 -0.6329  1.4133  2.4468
  490MOL0     H66121   4.768   3.294   2.499 -0.0652 -0.7212 -0.2391
  490MOL0     H66122   4.749   3.380   2.743  3.2177  0.3887  0.1966
  490MOL0     H66123   4.664   3.524   2.679 -0.7410 -0.1661 -1.2899
  490MOL0     H66124   4.940   3.444   2.601 -1.6459 -1.5716 -0.9657
  490MOL0     H66125   4.860   3.571   2.531  0.7203 -1.2268 -0.0385
  490MOL0     H66126   5.020   3.626   2.734  0.1116 -2.5731  1.2764
  490MOL0     H66127   4.867   3.613   2.834  0.2309  0.8187  0.3320
  490MOL0     H66128   4.892   3.787   2.588  0.4358  1.0473 -0.2722
  490MOL0     H66129   4.770   3.779   2.714  1.5744 -0.4382  3.0246
  490MOL0     H66130   4.222   2.915   2.556 -0.5140 -1.3771 -0.3322
  490MOL0     H66131   4.008   2.796   2.511 -0.2071 -1.3378 -1.6703
  490MOL0     H66132   3.699   2.462   2.365 -0.1952  0.2734  1.2413
  490MOL0     H66133   3.463   2.385   2.361  0.9576 -0.0967 -4.2738
  490MOL0     H66134   1.652   2.034   2.722 -0.1095 -0.9064 -0.4868
  490MOL0     H66135   1.423   1.956   2.784 -1.0334  1.4634  1.6446
  490MOL0     H66136   1.209   1.922   3.266 -1.0592  0.5880  1.0653
  490MOL0     H66137   0.984   1.934   3.370 -0.6096 -1.5460  1.2268
  490MOL0     H66138   0.750   2.026   3.352  1.1066 -0.2985  0.8848
  490MOL0     H66139   0.796   1.899   3.469 -1.2105  0.8454  1.5502
  490MOL0     H66140   0.538   1.964   3.340  1.9881 -0.5535 -1.8142
  490MOL0     H66141   0.584   1.960   3.514  1.2219  1.3536 -0.1813
  490MOL0     H66142   0.604   1.713   3.505 -0.6013 -1.3700 -0.0666
  490MOL0     H66143   0.562   1.711   3.333 -1.6706 -1.5656 -0.2330
  490MOL0     H66144   0.342   1.839   3.408  0.3350  1.1243  1.4579
  490MOL0     H66145   0.353   1.666   3.454  2.4166 -1.1661 -0.6490
  490MOL0     H66146   0.309   1.880   3.812  3.3371  5.9990  0.0288
  490MOL0     H66147   0.814   1.705   3.064  1.1212 -2.3587 -0.0073
  490MOL0     H66148   0.961   1.594   2.891 -1.0880  2.3999 -4.2014
  490MOL0     H66149   1.123   1.677   2.845  1.5281  1.1826  2.2740
  490MOL0     H66150   1.108   1.547   2.965  2.0252  2.1098  1.6584
  491MOL0     O66151   5.071   7.444   5.187 -0.1579 -0.6680 -0.2904
  491MOL0     C66152   5.065   7.489   5.069 -0.2997 -0.2839  0.2376
  491MOL0     O66153   5.151   7.459   4.963 -0.1605 -0.1927  0.7675
  491MOL0     C66154   5.264   7.380   4.991 -0.3722 -0.0101 -0.3960
  491MOL0     C66155   5.347   7.416   5.091 -0.1842 -0.7461 -0.0118
  491MOL0     C66156   5.461   7.339   5.113  0.0825 -1.0320 -0.1341
  491MOL0     C66157   5.491   7.228   5.040 -0.9895  0.1078  0.1402
  491MOL0     O66158   5.614   7.160   5.064  0.4352 -0.0278 -0.1776
  491MOL0     C66159   5.698   7.124   4.954  0.9923 -0.8866  0.3519
  491MOL0     C66160   5.829   7.088   5.024  0.2108 -0.3399  0.1666
  491MOL0     C66161   5.847   6.936   5.049 -1.1730  0.1480  0.8137
  491MOL0     C66162   5.996   6.912   5.090  0.2498  0.1709  0.8899
  491MOL0     C66163   6.034   6.767   5.079  0.1818  0.7013 -0.2936
  491MOL0     C66164   6.177   6.720   5.138  0.4482 -1.0420 -0.0978
  491MOL0     C66165   6.291   6.781   5.059 -0.0183 -0.0347 -0.6638
  491MOL0     C66166   6.432   6.701   5.077 -0.5055 -0.6777  0.3039
  491MOL0     N66167   6.537   6.744   4.988  0.2152 -0.8141  0.2287
  491MOL0     C66168   6.655   6.800   5.024  0.6534  0.8681  0.6706
  491MOL0     C66169   6.733   6.806   4.912  0.0021 -0.8761  0.0230
  491MOL0     C66170   6.868   6.850   4.891 -0.4570  0.3477 -0.1926
  491MOL0     C66171   6.971   6.822   5.005  0.2784 -0.9956  0.4111
  491MOL0     C66172   7.115   6.871   4.972  0.8978 -0.0871  0.2573
  491MOL0     C66173   7.208   6.861   5.096  0.5510 -0.0412  0.2063
  491MOL0     O66174   7.337   6.906   5.057 -0.8269  0.0589 -0.6838
  491MOL0     C66175   7.411   6.943   5.169  0.2888  0.3246 -0.0259
  491MOL0     C66176   7.527   7.014   5.130 -0.3444  0.0802 -1.1947
  491MOL0     C66177   7.615   7.063   5.231 -0.2772 -0.0707  0.3051
  491MOL0     C66178   7.583   7.035   5.366 -0.1268  1.3680  0.3811
  491MOL0     C66179   7.687   7.079   5.463  0.2919 -1.1005 -0.5649
  491MOL0     O66180   7.664   7.023   5.592  0.0466 -0.7576 -0.3755
  491MOL0     C66181   7.766   7.053   5.683  0.3361  0.1750  0.6597
  491MOL0     C66182   7.857   6.954   5.726 -0.0814  0.4622  0.4145
  491MOL0     C66183   7.938   6.976   5.838 -0.4115 -0.0675 -0.1348
  491MOL0     C66184   7.936   7.103   5.904 -0.6526 -0.5698 -0.0617
  491MOL0     O66185   8.014   7.138   6.020  0.1936 -0.0564 -0.0183
  491MOL0     C66186   8.062   7.028   6.108 -0.4494  0.3363 -0.1425
  491MOL0     C66187   7.942   6.946   6.176 -0.2432 -1.0052  0.3545
  491MOL0     C66188   7.993   6.861   6.294 -0.6823  0.8192 -0.3238
  491MOL0     C66189   8.053   6.730   6.245 -0.0275  0.3302 -0.2194
  491MOL0     C66190   7.957   6.622   6.195 -0.5413 -0.6170  0.4170
  491MOL0     C66191   7.835   6.594   6.294 -0.1544 -0.3148  0.4143
  491MOL0     C66192   7.752   6.472   6.238  0.1914 -0.2689  0.4970
  491MOL0     C66193   7.656   6.410   6.332 -0.1491 -0.3901 -0.6153
  491MOL0    Cl66194   7.746   6.342   6.471 -0.1714  0.1417  0.1705
  491MOL0     C66195   7.855   7.199   5.850  0.0528 -0.0070  0.2380
  491MOL0     C66196   7.762   7.169   5.751  0.2931  0.4541 -0.6094
  491MOL0     O66197   7.782   7.157   5.430 -0.2632 -0.0744  0.3123
  491MOL0     C66198   7.473   6.959   5.397  0.4218 -0.4652 -0.9157
  491MOL0     C66199   7.379   6.920   5.306  0.2792 -0.3919 -0.0635
  491MOL0     N66200   6.665   6.744   4.813  0.8372  0.0656 -0.2155
  491MOL0     N66201   6.551   6.705   4.859  0.2761  0.5834 -0.5850
  491MOL0     C66202   5.410   7.191   4.936  0.3805 -0.4910 -0.2135
  491MOL0     C66203   5.292   7.269   4.911 -0.2899 -0.5524  0.0512
  491MOL0     C66204   4.938   7.561   5.026 -0.2691 -0.3987 -0.1582
  491MOL0     C66205   4.846   7.589   5.130  0.9229  0.4959  0.3520
  491MOL0     C66206   4.717   7.652   5.092 -0.5199 -0.2832  0.2067
  491MOL0     C66207   4.704   7.721   4.973 -0.2076 -0.4109 -0.5207
  491MOL0     O66208   4.615   7.817   4.946  0.3335  1.3984  0.4336
  491MOL0     C66209   4.479   7.793   4.994  0.4486 -1.2828  0.7248
  491MOL0     C66210   4.418   7.901   5.082 -0.5409  0.2671 -0.7861
  491MOL0     C66211   4.409   8.040   5.015  0.3265  0.7271 -0.1287
  491MOL0     C66212   4.283   8.066   4.929 -0.0432 -0.4323  0.2120
  491MOL0     C66213   4.157   8.026   5.000 -0.4712  0.5228 -0.2683
  491MOL0     C66214   4.064   7.984   5.080 -0.5428 -0.2916 -0.4466
  491MOL0     C66215   4.800   7.706   4.880 -0.0461 -0.2627 -0.0999
  491MOL0     C66216   4.908   7.614   4.894  0.7953  0.6069  0.4497
  491MOL0     C66217   4.995   7.597   4.767  0.1688  0.2036 -0.2510
  491MOL0     H66218   5.325   7.501   5.154 -0.4836 -0.2521 -0.7679
  491MOL0     H66219   5.528   7.372   5.192 -0.0637 -0.7279 -0.1328
  491MOL0     H66220   5.663   7.046   4.885 -0.1520  1.4222 -1.8413
  491MOL0     H66221   5.719   7.213   4.895  0.4697 -0.4200  0.8651
  491MOL0     H66222   5.858   7.133   5.119  1.9900 -0.3286 -0.3341
  491MOL0     H66223   5.913   7.123   4.963  0.1156 -2.1907 -1.1245
  491MOL0     H66224   5.831   6.881   4.956 -0.7351 -3.1659  2.5396
  491MOL0     H66225   5.778   6.903   5.127  0.1274 -2.5041  0.9635
  491MOL0     H66226   6.061   6.964   5.020  1.6351 -0.3317  1.7502
  491MOL0     H66227   6.039   6.953   5.182  1.4855 -0.2675  0.5277
  491MOL0     H66228   5.965   6.707   5.139 -0.9829  0.6354 -1.6409
  491MOL0     H66229   6.020   6.726   4.979 -3.3744 -0.6151  0.5881
  491MOL0     H66230   6.181   6.752   5.242 -0.6581  0.7286 -0.5496
  491MOL0     H66231   6.181   6.611   5.137  1.9688 -1.0375 -2.4825
  491MOL0     H66232   6.300   6.889   5.070  4.2605 -0.0152 -2.3830
  491MOL0     H66233   6.280   6.766   4.951 -0.1297  1.1360 -0.8282
  491MOL0     H66234   6.468   6.719   5.179  2.2374  0.9903 -0.8205
  491MOL0     H66235   6.415   6.595   5.056  0.6391 -1.0364  1.0501
  491MOL0     H66236   6.691   6.840   5.118 -0.6181  3.0791  0.2916
  491MOL0     H66237   6.914   6.814   4.798 -0.1950  1.1736 -0.3943
  491MOL0     H66238   6.865   6.959   4.894  1.6512  0.4523  2.9100
  491MOL0     H66239   6.942   6.886   5.089  0.0938  0.0029 -0.3938
  491MOL0     H66240   6.965   6.717   5.036 -3.9850 -2.3071 -3.8016
  491MOL0     H66241   7.118   6.976   4.942  0.3182 -0.5318 -1.4698
  491MOL0     H66242   7.150   6.820   4.882  0.9323  0.5057 -0.0642
  491MOL0     H66243   7.201   6.758   5.133 -2.5221  0.0795  0.2432
  491MOL0     H66244   7.163   6.921   5.176  0.1940  0.4310 -0.3430
  491MOL0     H66245   7.558   7.013   5.026 -2.0677  1.9868 -1.7741
  491MOL0     H66246   7.709   7.100   5.193 -0.1835 -1.5734 -0.9975
  491MOL0     H66247   7.870   6.861   5.672 -1.1612  1.0940 -0.9892
  491MOL0     H66248   8.009   6.903   5.876 -2.8643 -2.8571 -0.5567
  491MOL0     H66249   8.127   6.959   6.055  0.7745 -1.1688  3.0554
  491MOL0     H66250   8.114   7.069   6.195  0.6813 -1.9921  0.3404
  491MOL0     H66251   7.865   7.017   6.209  1.2676 -0.1645  2.2504
  491MOL0     H66252   7.887   6.896   6.096  1.9235  1.1329 -2.7232
  491MOL0     H66253   8.076   6.901   6.353  2.5646 -2.7786 -2.0192
  491MOL0     H66254   7.909   6.834   6.359 -0.2332 -0.9577 -0.4303
  491MOL0     H66255   8.116   6.690   6.325 -0.0504  0.1446 -0.2938
  491MOL0     H66256   8.123   6.757   6.165  1.7140  0.3195  1.2162
  491MOL0     H66257   8.026   6.536   6.190 -1.0258 -0.9225 -2.2064
  491MOL0     H66258   7.933   6.657   6.095  1.2389  0.7596  0.4110
  491MOL0     H66259   7.876   6.570   6.392 -2.4427 -0.5771  1.3766
  491MOL0     H66260   7.765   6.679   6.292 -0.7905 -0.6256 -5.1394
  491MOL0     H66261   7.822   6.393   6.208 -0.3164 -1.1074  1.4622
  491MOL0     H66262   7.692   6.508   6.155  2.5565 -0.4407 -1.3858
  491MOL0     H66263   7.589   6.487   6.370  0.5385  0.0997 -0.3651
  491MOL0     H66264   7.603   6.335   6.273  1.3755  1.5057 -4.8027
  491MOL0     H66265   7.860   7.301   5.886 -0.7428  0.0825  0.1241
  491MOL0     H66266   7.681   7.239   5.732 -2.7290 -2.5494  0.4038
  491MOL0     H66267   7.457   6.909   5.492 -0.8110 -2.0607 -1.9267
  491MOL0     H66268   7.290   6.869   5.339  1.2701 -2.1359  0.0668
  491MOL0     H66269   5.430   7.104   4.874 -0.8091 -0.3492 -0.8250
  491MOL0     H66270   5.222   7.229   4.838  0.8230 -2.7206  0.0776
  491MOL0     H66271   4.858   7.563   5.234 -1.6576  0.8241  0.8115
  491MOL0     H66272   4.656   7.659   5.181 -1.0530  1.4613 -0.2650
  491MOL0     H66273   4.469   7.693   5.036 -2.8201 -1.9868 -1.4088
  491MOL0     H66274   4.419   7.788   4.903  1.7379 -2.5691 -0.1021
  491MOL0     H66275   4.470   7.918   5.176 -0.8245  0.8941 -0.7364
  491MOL0     H66276   4.321   7.869   5.119 -0.1160  0.0753  0.1879
  491MOL0     H66277   4.505   8.051   4.965  2.4553  0.9251  3.6486
  491MOL0     H66278   4.400   8.116   5.094  0.7260 -1.2632  1.9342
  491MOL0     H66279   4.292   8.166   4.886  2.8075 -0.6313  0.1915
  491MOL0     H66280   4.287   7.999   4.843  0.3506  2.0950 -1.8642
  491MOL0     H66281   3.983   7.944   5.138 -0.8926  0.7485 -0.1958
  491MOL0     H66282   4.786   7.757   4.786 -0.8844 -2.3386 -1.1646
  491MOL0     H66283   4.940   7.613   4.674 -1.5433 -1.0963  0.4658
  491MOL0     H66284   5.079   7.664   4.788 -0.5352  0.2920  2.8743
  491MOL0     H66285   5.034   7.496   4.754 -1.7961 -0.3533 -2.4313
  492MOL0     O66286   9.055   9.738   1.378 -0.0304 -0.6469 -0.1406
  492MOL0     C66287   8.994   9.803   1.288  0.3574 -0.2893 -0.5782
  492MOL0     O66288   9.032   9.818   1.159 -0.7066  0.3325  0.0049
  492MOL0     C66289   9.167   9.815   1.127 -0.4898 -0.1385 -0.4705
  492MOL0     C66290   9.262   9.890   1.186  0.0100 -0.4096  0.6400
  492MOL0     C66291   9.392   9.892   1.131 -0.5683  0.7608 -0.2419
  492MOL0     C66292   9.433   9.821   1.016 -0.2711 -0.0826 -0.4780
  492MOL0     O66293   9.565   9.825   0.969  0.4344 -0.6741 -0.7265
  492MOL0     C66294   9.586   9.786   0.828  0.2644  0.3342  0.1434
  492MOL0     C66295   9.734   9.786   0.795  0.3784 -0.0785  0.1833
  492MOL0     C66296   9.810   9.669   0.867  0.1532 -0.2298 -0.6392
  492MOL0     C66297   9.968   9.663   0.848  0.4743  0.7666 -0.0029
  492MOL0     C66298  10.019   9.519   0.873 -0.4863  0.2411 -0.1617
  492MOL0     C66299  10.164   9.501   0.912  0.1435  0.7005 -0.2609
  492MOL0     C66300  10.256   9.560   0.801  0.2167  0.5587 -0.0739
  492MOL0     C66301  10.243   9.489   0.662 -0.4428  0.2302  0.0588
  492MOL0     N66302  10.358   9.518   0.569  0.8800  0.1227  0.2197
  492MOL0     C66303  10.473   9.439   0.552  0.2909  0.0646  0.1950
  492MOL0     C66304  10.537   9.490   0.449 -0.3327 -0.4996 -0.5369
  492MOL0     C66305  10.657   9.420   0.392  0.1829 -0.3851  0.8688
  492MOL0     C66306  10.723   9.493   0.275  0.4480  0.2216  0.0519
  492MOL0     C66307  10.857   9.438   0.231 -0.2824 -0.3041  0.6300
  492MOL0     C66308  10.957   9.542   0.187  1.0102  0.4709 -0.1083
  492MOL0     O66309  11.083   9.483   0.185  0.3270  0.3975  0.3334
  492MOL0     C66310  11.182   9.552   0.131 -0.0971 -0.0817  0.0783
  492MOL0     C66311  11.182   9.698   0.119 -0.8039  1.3104 -0.2419
  492MOL0     C66312  11.296   9.755   0.072  0.0106 -0.0123  0.2233
  492MOL0     C66313  11.417   9.687   0.051  0.0706  0.3512  0.0650
  492MOL0     C66314  11.537   9.771   0.013  0.5601  1.1124 -0.2104
  492MOL0     O66315  11.534   9.906   0.039 -0.0414 -0.2373 -0.7244
  492MOL0     C66316  11.649   9.984   0.025  0.5162  0.2319 -0.6133
  492MOL0     C66317  11.753   9.979   0.120  0.0594  0.9742  0.2083
  492MOL0     C66318  11.862  10.058   0.105 -0.1475 -0.4649  0.4449
  492MOL0     C66319  11.871  10.142  -0.012  0.8497  0.8661  0.1357
  492MOL0     O66320  11.988  10.205  -0.029 -0.1107 -0.1412 -0.3027
  492MOL0     C66321  12.003  10.259  -0.166  0.1150 -0.1222 -0.2166
  492MOL0     C66322  12.153  10.280  -0.183 -0.5592  0.0600  0.3460
  492MOL0     C66323  12.179  10.307  -0.336  0.1955  0.5558  0.5178
  492MOL0     C66324  12.325  10.346  -0.360  0.5947  0.5597 -0.3770
  492MOL0     C66325  12.337  10.350  -0.518 -0.7568 -0.2871 -0.4224
  492MOL0     C66326  12.483  10.401  -0.534  0.4451  0.0773  1.3220
  492MOL0     C66327  12.512  10.462  -0.676  0.3805 -0.0624 -0.4809
  492MOL0     C66328  12.664  10.484  -0.691  0.3996 -0.4328 -0.1597
  492MOL0    Cl66329  12.711  10.610  -0.566 -0.3787 -0.2250 -0.0589
  492MOL0     C66330  11.758  10.147  -0.103  0.7768  0.0817  0.1513
  492MOL0     C66331  11.646  10.071  -0.077 -0.0850  0.0985  1.1774
  492MOL0     O66332  11.636   9.707  -0.014  0.2843 -0.3514  0.8575
  492MOL0     C66333  11.420   9.546   0.069 -0.0886  0.3939 -0.7525
  492MOL0     C66334  11.297   9.484   0.118 -0.1975  0.2800  0.2268
  492MOL0     N66335  10.469   9.594   0.407 -0.5120  0.3465  0.9694
  492MOL0     N66336  10.353   9.610   0.464 -0.0292  0.0170 -0.4200
  492MOL0     C66337   9.331   9.743   0.960 -0.2650  0.5103  0.1484
  492MOL0     C66338   9.203   9.741   1.016  0.7202 -0.3336 -0.4822
  492MOL0     C66339   8.849   9.832   1.323 -0.3127  0.6695  0.1670
  492MOL0     C66340   8.779   9.857   1.212  0.3128  0.6452 -0.1202
  492MOL0     C66341   8.637   9.872   1.228 -0.2308 -0.1450  0.2072
  492MOL0     C66342   8.570   9.874   1.348 -0.4807 -0.6962  0.5129
  492MOL0     O66343   8.439   9.890   1.348  0.7110 -0.1269 -0.1719
  492MOL0     C66344   8.355   9.861   1.460 -0.3358 -0.2391 -0.6979
  492MOL0     C66345   8.208   9.905   1.436  0.0294 -0.1170  0.3068
  492MOL0     C66346   8.121   9.856   1.552  0.8320 -0.4140  0.8292
  492MOL0     C66347   8.079   9.705   1.540 -1.2859  0.1484  0.6163
  492MOL0     C66348   7.964   9.684   1.451 -0.4673 -0.1038  0.9237
  492MOL0     C66349   7.858   9.670   1.389 -0.3954 -0.3727  0.3390
  492MOL0     C66350   8.648   9.853   1.462 -0.7203 -0.7426 -0.8550
  492MOL0     C66351   8.788   9.825   1.450 -0.2709  0.5975 -0.5484
  492MOL0     C66352   8.864   9.787   1.576  0.2392 -0.3562  0.0261
  492MOL0     H66353   9.245   9.948   1.276 -0.5878 -0.9381  0.8723
  492MOL0     H66354   9.470   9.950   1.179  2.0719 -0.6359 -2.5895
  492MOL0     H66355   9.548   9.686   0.806 -1.6219  1.1476 -0.5457
  492MOL0     H66356   9.531   9.849   0.757 -1.8440 -0.3265  1.1183
  492MOL0     H66357   9.780   9.882   0.818  0.7419 -0.7316  2.3842
  492MOL0     H66358   9.730   9.756   0.689 -2.0181 -0.1331  0.2197
  492MOL0     H66359   9.771   9.573   0.832  1.5879 -0.1435 -2.6185
  492MOL0     H66360   9.784   9.670   0.973  0.9477  0.9770 -0.4386
  492MOL0     H66361   9.991   9.682   0.743 -2.5767  0.9703 -0.7416
  492MOL0     H66362  10.025   9.735   0.907  1.4779 -0.3800  0.4827
  492MOL0     H66363   9.960   9.481   0.957 -0.3190 -2.0152 -1.0140
  492MOL0     H66364   9.995   9.473   0.777  0.4085  3.0055 -1.8618
  492MOL0     H66365  10.176   9.540   1.013 -2.2997 -2.4409  1.3991
  492MOL0     H66366  10.192   9.395   0.914  1.3529  1.0005 -0.1469
  492MOL0     H66367  10.357   9.535   0.834  0.3518 -0.7368 -1.3915
  492MOL0     H66368  10.246   9.669   0.803 -0.6790  0.5236 -1.4759
  492MOL0     H66369  10.240   9.382   0.681  1.1588  0.5275  2.4504
  492MOL0     H66370  10.147   9.511   0.614  0.4100 -0.0972 -1.8772
  492MOL0     H66371  10.499   9.349   0.609  1.8316  0.8712  0.8504
  492MOL0     H66372  10.733   9.394   0.466  0.1186  0.1254  1.1167
  492MOL0     H66373  10.629   9.324   0.347  0.7333 -0.5658  0.9040
  492MOL0     H66374  10.658   9.479   0.187 -0.2255 -0.1770  0.5944
  492MOL0     H66375  10.725   9.595   0.313 -0.1177 -0.2371  1.3875
  492MOL0     H66376  10.844   9.365   0.150  3.7202 -1.1387  0.5497
  492MOL0     H66377  10.900   9.381   0.313  0.1628  1.0705  1.3754
  492MOL0     H66378  10.955   9.619   0.265 -1.6717 -0.8451  1.2554
  492MOL0     H66379  10.931   9.583   0.089 -0.9758 -0.0568  0.1556
  492MOL0     H66380  11.093   9.752   0.150 -2.5536 -2.7530  2.6148
  492MOL0     H66381  11.295   9.863   0.058  1.1120 -0.0712 -0.3957
  492MOL0     H66382  11.734   9.916   0.206  2.3568 -0.0532  0.0558
  492MOL0     H66383  11.939  10.069   0.181 -0.7503 -0.5837  1.0859
  492MOL0     H66384  11.964  10.189  -0.240  2.3082  1.5142 -3.1110
  492MOL0     H66385  11.950  10.355  -0.171  0.9167  0.3374 -0.0422
  492MOL0     H66386  12.193  10.368  -0.131  0.4484  2.1319 -3.5695
  492MOL0     H66387  12.202  10.188  -0.151 -0.0419 -0.1398 -0.9900
  492MOL0     H66388  12.171  10.218  -0.399  0.7394  0.1460  1.0076
  492MOL0     H66389  12.106  10.375  -0.381  0.5135 -0.3208 -1.3897
  492MOL0     H66390  12.386  10.263  -0.322  2.5234  3.0278  2.3449
  492MOL0     H66391  12.366  10.431  -0.305  1.3007 -0.8434  1.3930
  492MOL0     H66392  12.275  10.432  -0.553 -1.1235 -0.9686 -1.4333
  492MOL0     H66393  12.316  10.250  -0.559  1.5235 -2.0173  2.2103
  492MOL0     H66394  12.505  10.483  -0.464 -0.2302  0.4739  1.0846
  492MOL0     H66395  12.552  10.319  -0.515  0.5926  0.0866  0.8382
  492MOL0     H66396  12.452  10.553  -0.692  1.1617  0.6189  0.3295
  492MOL0     H66397  12.471  10.396  -0.752 -0.6931  0.5139 -0.4185
  492MOL0     H66398  12.716  10.390  -0.674  1.8607  0.3920  0.1336
  492MOL0     H66399  12.692  10.531  -0.786 -2.4698  3.5591  0.7242
  492MOL0     H66400  11.737  10.209  -0.190  2.0535 -0.9383 -0.9120
  492MOL0     H66401  11.560  10.079  -0.144  0.4053 -2.0297  0.2311
  492MOL0     H66402  11.509   9.483   0.075  0.2476  0.9696  0.6277
  492MOL0     H66403  11.295   9.376   0.134 -1.8277  0.0370 -1.2975
  492MOL0     H66404   9.352   9.674   0.879 -3.0797 -1.6474  1.0805
  492MOL0     H66405   9.136   9.666   0.976 -1.6912  0.7279  1.3177
  492MOL0     H66406   8.810   9.862   1.108 -1.9593 -1.6356 -1.0247
  492MOL0     H66407   8.577   9.870   1.138 -1.3450 -3.4551  0.8774
  492MOL0     H66408   8.385   9.922   1.545 -2.2429 -0.9453  0.5244
  492MOL0     H66409   8.365   9.756   1.491 -0.1368 -0.7582 -2.3996
  492MOL0     H66410   8.163   9.871   1.342 -0.8908  0.8376  0.3851
  492MOL0     H66411   8.205  10.014   1.437  3.2547  0.0797 -0.8507
  492MOL0     H66412   8.033   9.921   1.562  2.3603  1.6430  1.3612
  492MOL0     H66413   8.184   9.875   1.639 -1.1435  0.5939  2.1234
  492MOL0     H66414   8.155   9.632   1.509 -1.6719  0.5403 -1.4239
  492MOL0     H66415   8.045   9.676   1.640  0.7687 -1.8083  0.8194
  492MOL0     H66416   7.765   9.677   1.336 -0.1040  0.2765 -0.1001
  492MOL0     H66417   8.607   9.841   1.562  0.8378  1.3955  0.1297
  492MOL0     H66418   8.938   9.865   1.597 -0.2643 -0.3967  2.2104
  492MOL0     H66419   8.799   9.775   1.663 -1.1435 -1.3303 -1.0901
  492MOL0     H66420   8.910   9.688   1.565 -0.7206 -0.7625 -0.4456
  493MOL0     O66421   1.801   9.541   6.010 -0.7220 -0.2020  0.1698
  493MOL0     C66422   1.761   9.427   5.976 -0.9392 -0.4164 -0.4020
  493MOL0     O66423   1.812   9.346   5.874 -0.4487  0.0776  0.0008
  493MOL0     C66424   1.945   9.374   5.839  0.0109 -0.4187  0.3477
  493MOL0     C66425   2.046   9.327   5.926 -1.4056  0.2529  0.1272
  493MOL0     C66426   2.174   9.366   5.912 -0.0405 -0.3214  0.3741
  493MOL0     C66427   2.208   9.456   5.800  1.0077  0.1527  0.2852
  493MOL0     O66428   2.336   9.502   5.794 -0.3467 -0.4117  0.1188
  493MOL0     C66429   2.387   9.542   5.665 -0.5026 -0.4039  0.5160
  493MOL0     C66430   2.545   9.553   5.658  0.2810 -0.1755 -0.3791
  493MOL0     C66431   2.610   9.619   5.777 -0.1077 -0.0647  0.3338
  493MOL0     C66432   2.716   9.713   5.721 -0.1585  0.4252 -0.5374
  493MOL0     C66433   2.819   9.765   5.835  0.3600 -0.0855  1.1917
  493MOL0     C66434   2.895   9.881   5.767  0.3116 -0.2182  0.4366
  493MOL0     C66435   3.010   9.940   5.857  0.2251  0.8061  0.3716
  493MOL0     C66436   3.068  10.068   5.802  0.6826 -0.1531 -0.6670
  493MOL0     N66437   3.173  10.127   5.884  0.2406  0.0396  0.3455
  493MOL0     C66438   3.280  10.055   5.925  0.1810 -0.6541  0.1183
  493MOL0     C66439   3.358  10.143   5.990 -0.6094  0.5028  0.2582
  493MOL0     C66440   3.485  10.117   6.060  0.0474 -0.1046  0.1371
  493MOL0     C66441   3.602  10.092   5.958  0.4646 -0.5285  0.2588
  493MOL0     C66442   3.736  10.098   6.036 -0.0706  0.7134  0.1666
  493MOL0     C66443   3.850  10.027   5.956  0.7663 -0.1120 -0.1506
  493MOL0     O66444   3.867   9.894   6.014  0.8718  0.0178 -0.0473
  493MOL0     C66445   3.952   9.812   5.946  0.2441  0.3177  0.1430
  493MOL0     C66446   4.025   9.841   5.834 -1.1168  0.2982  0.3352
  493MOL0     C66447   4.102   9.744   5.778 -0.3600  0.0768 -0.2648
  493MOL0     C66448   4.116   9.617   5.838 -0.7700  0.0366 -0.5077
  493MOL0     C66449   4.221   9.526   5.775 -0.2976  0.9979  1.2062
  493MOL0     O66450   4.311   9.580   5.684  0.8352  0.8165 -0.5167
  493MOL0     C66451   4.426   9.511   5.636  0.3079 -0.4081 -0.5241
  493MOL0     C66452   4.430   9.386   5.591  0.4126 -0.0399  0.2980
  493MOL0     C66453   4.538   9.317   5.554 -0.3171  0.2089  0.1930
  493MOL0     C66454   4.661   9.390   5.539  0.2446  0.5479 -0.6052
  493MOL0     O66455   4.783   9.329   5.518  0.1740  0.6826 -0.6556
  493MOL0     C66456   4.794   9.195   5.471  0.9995  0.0396  0.8096
  493MOL0     C66457   4.942   9.128   5.490 -0.5021 -0.6857  0.3616
  493MOL0     C66458   5.060   9.219   5.442  0.0584  0.5778  0.7263
  493MOL0     C66459   5.185   9.146   5.462 -0.6071  0.0436  0.2036
  493MOL0     C66460   5.317   9.227   5.419  0.3441  0.3430  0.9969
  493MOL0     C66461   5.438   9.154   5.467 -0.4391  0.5775  0.6515
  493MOL0     C66462   5.566   9.177   5.402  0.0902 -0.4730  0.3417
  493MOL0     C66463   5.577   9.140   5.256  0.3355 -0.3798 -0.0149
  493MOL0    Cl66464   5.742   9.136   5.213 -0.2652 -0.1168 -0.0294
  493MOL0     C66465   4.656   9.526   5.572  0.7081  0.1054  0.9228
  493MOL0     C66466   4.545   9.586   5.631  0.2422 -0.4447 -0.3221
  493MOL0     O66467   4.223   9.412   5.817  1.1769 -0.6481 -0.5599
  493MOL0     C66468   4.029   9.578   5.947 -0.6124 -1.0816  0.1269
  493MOL0     C66469   3.949   9.682   5.996  0.4273 -0.0457 -0.4604
  493MOL0     N66470   3.289  10.264   6.001 -0.3018 -0.0903 -0.6095
  493MOL0     N66471   3.179  10.250   5.937  0.3886  0.5556  0.1261
  493MOL0     C66472   2.113   9.487   5.708  0.1763 -0.8355  0.1146
  493MOL0     C66473   1.981   9.448   5.728 -0.5173  0.3957 -0.1481
  493MOL0     C66474   1.647   9.377   6.063 -0.7859  0.3749  0.0016
  493MOL0     C66475   1.596   9.454   6.166 -0.2970  0.4078 -0.2643
  493MOL0     C66476   1.502   9.416   6.256 -0.0138  0.1521  0.5530
  493MOL0     C66477   1.450   9.284   6.241 -0.7010  0.9252 -0.3828
  493MOL0     O66478   1.366   9.225   6.342  0.1309 -1.6103  0.6367
  493MOL0     C66479   1.238   9.289   6.342 -0.0199  0.3953  0.7237
  493MOL0     C66480   1.155   9.200   6.437 -0.5007 -0.2713  0.6282
  493MOL0     C66481   1.152   9.258   6.577 -1.2425 -0.6157  0.6652
  493MOL0     C66482   1.053   9.196   6.673  0.2562 -0.1905  0.9536
  493MOL0     C66483   0.912   9.240   6.636 -0.4475  0.2987  0.1664
  493MOL0     C66484   0.803   9.281   6.617  0.3500 -1.0861  0.6394
  493MOL0     C66485   1.472   9.212   6.130 -0.1038 -0.2951 -0.3564
  493MOL0     C66486   1.580   9.252   6.039  1.3367 -0.2966  0.6956
  493MOL0     C66487   1.619   9.138   5.945 -0.5967  0.3960  0.6921
  493MOL0     H66488   2.010   9.260   6.003  0.9654 -0.1416  0.9527
  493MOL0     H66489   2.236   9.332   5.994 -3.3213 -3.0689  1.9717
  493MOL0     H66490   2.355   9.468   5.591 -0.2558  0.3055 -0.3134
  493MOL0     H66491   2.340   9.640   5.654 -0.8951 -0.3360  2.5245
  493MOL0     H66492   2.575   9.610   5.569 -1.4746 -0.9781 -1.5341
  493MOL0     H66493   2.586   9.452   5.650 -2.5512 -1.2571 -2.9349
  493MOL0     H66494   2.661   9.546   5.841  1.1907  0.3010 -0.2550
  493MOL0     H66495   2.543   9.680   5.839  0.7001 -0.1681  1.3443
  493MOL0     H66496   2.789   9.655   5.663 -1.3447 -1.0500 -0.6095
  493MOL0     H66497   2.664   9.793   5.667 -0.8353  1.7489  1.9477
  493MOL0     H66498   2.764   9.807   5.920 -0.2560  0.4754  0.5289
  493MOL0     H66499   2.880   9.675   5.842  0.2765 -0.6974 -3.0836
  493MOL0     H66500   2.923   9.848   5.666 -4.4231  0.4795 -1.3808
  493MOL0     H66501   2.824   9.963   5.753  1.0496  0.3862  0.1680
  493MOL0     H66502   3.080   9.857   5.862 -0.6061 -0.2427 -2.8627
  493MOL0     H66503   2.969   9.964   5.956 -1.2893  0.4771 -0.1421
  493MOL0     H66504   3.110  10.043   5.704  0.6682 -0.9912 -0.4610
  493MOL0     H66505   2.989  10.139   5.776  2.6829  1.6486 -2.1710
  493MOL0     H66506   3.301   9.950   5.911 -2.2281 -1.1949 -0.0160
  493MOL0     H66507   3.507  10.205   6.121 -1.7458 -0.3940  1.2628
  493MOL0     H66508   3.476  10.030   6.125 -1.6928  0.2469  0.4354
  493MOL0     H66509   3.605   9.989   5.921 -0.2675  0.0485 -1.4848
  493MOL0     H66510   3.585  10.163   5.877 -1.8685  0.9894  1.9678
  493MOL0     H66511   3.718  10.050   6.132 -0.1922  0.8011  0.1887
  493MOL0     H66512   3.762  10.201   6.058 -0.3547  1.4307 -2.4949
  493MOL0     H66513   3.944  10.083   5.966 -1.3550  4.0148 -1.0631
  493MOL0     H66514   3.813  10.003   5.856 -1.8330 -0.9674  0.9203
  493MOL0     H66515   4.012   9.943   5.800  0.7914  0.3174 -0.4156
  493MOL0     H66516   4.169   9.762   5.695  1.2300  1.8034  1.3048
  493MOL0     H66517   4.340   9.326   5.603  0.8662 -0.9884 -0.8103
  493MOL0     H66518   4.505   9.216   5.532 -1.2477  0.5387  0.0135
  493MOL0     H66519   4.730   9.134   5.536  2.1841  0.7753  2.7401
  493MOL0     H66520   4.756   9.191   5.368 -1.2446  3.1856  1.3815
  493MOL0     H66521   4.954   9.092   5.593  0.4128  0.6886  0.7761
  493MOL0     H66522   4.941   9.036   5.432 -2.2131 -1.5901  1.7199
  493MOL0     H66523   5.060   9.244   5.335  4.6438 -0.2185  0.3094
  493MOL0     H66524   5.063   9.314   5.497  1.0722 -0.5017  2.5995
  493MOL0     H66525   5.186   9.053   5.405  2.1909 -0.0293  0.2279
  493MOL0     H66526   5.184   9.119   5.568 -4.5488 -2.6467 -0.2881
  493MOL0     H66527   5.310   9.332   5.451  2.2076  1.4625 -1.8963
  493MOL0     H66528   5.307   9.224   5.310 -0.0679  2.4059  0.9378
  493MOL0     H66529   5.447   9.170   5.575 -2.4608 -0.7624  1.0826
  493MOL0     H66530   5.412   9.049   5.451  0.5604  0.0818  1.9798
  493MOL0     H66531   5.640   9.119   5.459  1.0966 -1.5104 -1.8955
  493MOL0     H66532   5.589   9.283   5.410 -0.0847 -0.4168  0.0907
  493MOL0     H66533   5.547   9.034   5.255  1.2934 -0.6800 -1.8215
  493MOL0     H66534   5.516   9.205   5.193 -2.1813  0.8448  3.3750
  493MOL0     H66535   4.746   9.585   5.558  0.5750  1.1004  3.6252
  493MOL0     H66536   4.547   9.691   5.658 -1.4772 -1.0681  2.7554
  493MOL0     H66537   4.045   9.478   5.986  4.6914  0.0365  1.5069
  493MOL0     H66538   3.881   9.667   6.079  0.8665 -0.3773 -0.1535
  493MOL0     H66539   2.134   9.540   5.616 -1.6123 -0.6264 -0.2061
  493MOL0     H66540   1.903   9.487   5.663 -1.2128  3.0615  2.0789
  493MOL0     H66541   1.638   9.551   6.193  1.0798 -0.0186 -0.7956
  493MOL0     H66542   1.486   9.489   6.335 -0.1043  2.8252 -1.8023
  493MOL0     H66543   1.187   9.289   6.245  0.2229  1.0463  0.5880
  493MOL0     H66544   1.252   9.391   6.380 -1.4226  0.0783  2.1695
  493MOL0     H66545   1.199   9.100   6.433  0.9820  0.3912 -2.0842
  493MOL0     H66546   1.054   9.191   6.395  1.1356 -2.9220 -3.2854
  493MOL0     H66547   1.146   9.367   6.575 -0.1099 -0.5188  1.5210
  493MOL0     H66548   1.249   9.236   6.624 -1.0957 -0.1931  0.5675
  493MOL0     H66549   1.069   9.088   6.672 -1.0403 -0.4076 -0.5190
  493MOL0     H66550   1.079   9.235   6.772 -1.0534  0.1781  1.1676
  493MOL0     H66551   0.704   9.318   6.595  0.2065 -0.4568  2.2395
  493MOL0     H66552   1.415   9.123   6.104 -1.0678  0.7730 -2.0687
  493MOL0     H66553   1.606   9.169   5.841 -1.6627  0.3011  0.7884
  493MOL0     H66554   1.718   9.096   5.965 -0.7935 -0.6697 -0.4559
  493MOL0     H66555   1.556   9.049   5.956 -1.4202  0.5779 -1.8407
  494MOL0     O66556   0.223   2.962   3.820 -0.8510  0.2845  0.3735
  494MOL0     C66557   0.137   3.046   3.789  0.0131  0.6175  0.0805
  494MOL0     O66558   0.170   3.166   3.722 -0.0287 -0.0054 -0.0785
  494MOL0     C66559   0.300   3.186   3.684 -0.6526  0.7927 -0.1894
  494MOL0     C66560   0.336   3.226   3.554  0.4628 -0.1368  0.4338
  494MOL0     C66561   0.470   3.253   3.518  0.7897 -0.1868  0.6573
  494MOL0     C66562   0.576   3.236   3.602 -0.4448  0.6554 -0.3665
  494MOL0     O66563   0.712   3.250   3.583 -0.7417 -0.2373 -0.0876
  494MOL0     C66564   0.737   3.262   3.443  0.3160  1.0587  0.1769
  494MOL0     C66565   0.888   3.268   3.424 -0.6138  0.3752  0.3616
  494MOL0     C66566   0.930   3.418   3.426 -0.9639  0.0556 -0.6731
  494MOL0     C66567   1.083   3.423   3.406 -0.8453  0.3300  0.2594
  494MOL0     C66568   1.138   3.559   3.376  0.2875  1.3358  0.5522
  494MOL0     C66569   1.287   3.562   3.351  0.0973 -0.0756 -0.6639
  494MOL0     C66570   1.332   3.698   3.298  0.2205 -0.1639  0.0574
  494MOL0     C66571   1.477   3.702   3.254  0.5643 -0.5218  0.1729
  494MOL0     N66572   1.582   3.664   3.349 -0.2615  0.8531 -0.0192
  494MOL0     C66573   1.610   3.722   3.469  0.9030  1.1015  0.5813
  494MOL0     C66574   1.721   3.659   3.513  0.3743 -0.1772  0.2072
  494MOL0     C66575   1.793   3.684   3.643  0.1385  0.0581  0.4516
  494MOL0     C66576   1.934   3.753   3.632  0.1111  0.5121 -0.5705
  494MOL0     C66577   2.041   3.654   3.574 -0.1342  0.0191 -0.0876
  494MOL0     C66578   2.168   3.736   3.568  0.1263 -0.2474 -0.4098
  494MOL0     O66579   2.217   3.767   3.700 -0.0791 -0.4828 -0.1829
  494MOL0     C66580   2.352   3.757   3.712  0.0707  0.2041 -0.5498
  494MOL0     C66581   2.400   3.757   3.848  0.6686  0.2754  0.7409
  494MOL0     C66582   2.529   3.731   3.884 -0.3644 -0.2357  0.1495
  494MOL0     C66583   2.625   3.738   3.779 -0.1228 -0.0322 -0.1655
  494MOL0     C66584   2.770   3.738   3.813  0.3571  0.4191 -0.1085
  494MOL0     O66585   2.862   3.747   3.715 -0.0903 -0.1015 -0.3426
  494MOL0     C66586   2.996   3.770   3.752  0.6965 -0.1478 -0.0568
  494MOL0     C66587   3.097   3.685   3.702  0.5638 -0.1841 -0.3102
  494MOL0     C66588   3.226   3.731   3.702  0.3971 -0.6379  0.5305
  494MOL0     C66589   3.262   3.860   3.739  0.7056  1.0446 -0.3863
  494MOL0     O66590   3.396   3.885   3.734 -0.6865  0.7141  0.1155
  494MOL0     C66591   3.443   4.019   3.770  0.7054  0.6117 -0.0650
  494MOL0     C66592   3.585   4.045   3.705 -0.2971 -0.2793 -0.0699
  494MOL0     C66593   3.569   4.087   3.558  0.0924 -0.1211  0.1727
  494MOL0     C66594   3.694   4.150   3.492 -0.7798  0.2529  0.7199
  494MOL0     C66595   3.808   4.052   3.489  0.3777  0.1795  0.8291
  494MOL0     C66596   3.938   4.115   3.438  0.2683 -0.3130 -0.4774
  494MOL0     C66597   4.054   4.026   3.447 -0.3637  0.3902  0.0506
  494MOL0     C66598   4.183   4.099   3.447 -1.5835  0.1838  0.2381
  494MOL0    Cl66599   4.197   4.211   3.587 -0.1522 -0.5338  0.2016
  494MOL0     C66600   3.161   3.938   3.790  0.6836 -0.3304  0.4053
  494MOL0     C66601   3.025   3.899   3.793  0.8860  0.9012  0.0886
  494MOL0     O66602   2.789   3.723   3.932 -0.2024 -0.4606 -0.2076
  494MOL0     C66603   2.581   3.746   3.647 -0.5368  0.2708  1.0563
  494MOL0     C66604   2.447   3.762   3.609 -0.0837  0.4633 -0.7432
  494MOL0     N66605   1.767   3.573   3.412 -0.1458 -0.2760 -0.9417
  494MOL0     N66606   1.680   3.564   3.323 -0.2009 -0.7935  0.3785
  494MOL0     C66607   0.539   3.197   3.732 -0.3161  0.5214 -0.1969
  494MOL0     C66608   0.406   3.171   3.770  0.5871  0.5579  0.1604
  494MOL0     C66609   0.003   3.010   3.842 -0.0808 -1.0195 -0.5015
  494MOL0     C66610  -0.087   3.122   3.872 -0.3585  0.3727  0.5043
  494MOL0     C66611  -0.206   3.114   3.934  0.3346  0.0766  0.1324
  494MOL0     C66612  -0.254   2.989   3.963  0.5174 -0.1259 -0.0575
  494MOL0     O66613  -0.375   2.977   4.032 -0.7751  0.2237 -0.2257
  494MOL0     C66614  -0.492   3.017   3.952 -0.8089  0.4757  0.3836
  494MOL0     C66615  -0.603   3.080   4.039  0.1469  0.1542  0.0090
  494MOL0     C66616  -0.573   3.219   4.091  0.6806  0.1425  0.6890
  494MOL0     C66617  -0.585   3.330   3.987 -0.6531 -0.3017  0.5761
  494MOL0     C66618  -0.542   3.463   4.035 -0.2517  0.8700  1.1113
  494MOL0     C66619  -0.492   3.566   4.082 -0.5790 -0.2825  0.2622
  494MOL0     C66620  -0.182   2.872   3.942 -0.4619  0.1336  0.7920
  494MOL0     C66621  -0.043   2.881   3.890  0.3021 -0.3708  0.4570
  494MOL0     C66622   0.025   2.750   3.857  0.5424  0.7456  0.4983
  494MOL0     H66623   0.258   3.233   3.479 -0.1345  1.4964  1.1593
  494MOL0     H66624   0.477   3.284   3.414 -1.0880  0.2635  0.6249
  494MOL0     H66625   0.705   3.169   3.395  2.9153  0.8751 -1.3726
  494MOL0     H66626   0.689   3.348   3.397  1.0215  0.1160 -2.5166
  494MOL0     H66627   0.916   3.228   3.326 -0.0762  2.2654 -0.3066
  494MOL0     H66628   0.943   3.208   3.497 -0.7266  0.7635  0.7701
  494MOL0     H66629   0.906   3.458   3.525 -1.3276 -1.4562 -0.1242
  494MOL0     H66630   0.879   3.472   3.345  0.9813 -0.4406 -2.2964
  494MOL0     H66631   1.137   3.374   3.487  1.6312 -0.6663 -1.8603
  494MOL0     H66632   1.104   3.365   3.316 -1.9056 -1.4850  1.1130
  494MOL0     H66633   1.085   3.605   3.291 -2.6525  0.1342  1.6338
  494MOL0     H66634   1.123   3.615   3.468  0.4014  0.3258  1.1927
  494MOL0     H66635   1.338   3.537   3.444 -0.7053 -2.2265 -0.7356
  494MOL0     H66636   1.312   3.493   3.271  1.7552 -0.0771 -0.1784
  494MOL0     H66637   1.309   3.767   3.379 -0.1726  0.7816 -0.8403
  494MOL0     H66638   1.268   3.733   3.217 -0.5039 -0.2436  0.5887
  494MOL0     H66639   1.497   3.632   3.172 -0.8362  0.6193 -1.1971
  494MOL0     H66640   1.494   3.807   3.228 -1.4572  0.0504  0.9490
  494MOL0     H66641   1.547   3.793   3.522 -0.1867 -1.0259  2.2700
  494MOL0     H66642   1.737   3.742   3.716  2.1428  0.2607  1.9373
  494MOL0     H66643   1.810   3.587   3.691  1.5205  0.0412 -0.0135
  494MOL0     H66644   1.919   3.845   3.574 -1.2825 -0.7614 -2.3440
  494MOL0     H66645   1.966   3.776   3.734  1.8015 -0.7060 -0.7903
  494MOL0     H66646   2.007   3.628   3.474  1.1923 -0.4972 -0.4189
  494MOL0     H66647   2.039   3.562   3.633  1.7035 -0.5920 -0.8896
  494MOL0     H66648   2.156   3.825   3.505  0.6735 -0.7528 -1.2457
  494MOL0     H66649   2.241   3.667   3.523  0.5114  0.0178 -0.1948
  494MOL0     H66650   2.329   3.768   3.929 -1.0107  0.4559 -0.6815
  494MOL0     H66651   2.555   3.717   3.989  1.6514 -1.2490 -0.4187
  494MOL0     H66652   3.077   3.588   3.658 -3.6897 -0.2210  1.1895
  494MOL0     H66653   3.306   3.662   3.678 -0.0104 -1.3747  1.2222
  494MOL0     H66654   3.373   4.098   3.740 -1.9854 -1.5800  0.0334
  494MOL0     H66655   3.453   4.014   3.879 -0.0216 -0.3969 -0.0385
  494MOL0     H66656   3.649   4.118   3.755  0.1681  0.1910 -1.3115
  494MOL0     H66657   3.639   3.950   3.708  2.7926  1.2173 -2.4208
  494MOL0     H66658   3.530   3.997   3.510 -5.6313  0.3850  2.9666
  494MOL0     H66659   3.483   4.155   3.550  0.9172  0.6922 -4.6803
  494MOL0     H66660   3.722   4.231   3.560 -0.2684 -0.1018  0.9378
  494MOL0     H66661   3.684   4.188   3.390  1.1995  0.9089  0.7203
  494MOL0     H66662   3.785   3.971   3.419  0.6976  1.4815 -0.8347
  494MOL0     H66663   3.823   4.004   3.586  0.3861  1.0341  1.2545
  494MOL0     H66664   3.910   4.145   3.337 -3.2327  2.8154  1.1908
  494MOL0     H66665   3.950   4.215   3.482  1.4379 -1.5313  2.1916
  494MOL0     H66666   4.051   3.946   3.373 -3.4672  0.6258 -0.2165
  494MOL0     H66667   4.050   3.951   3.526  1.8765 -2.4645 -2.3472
  494MOL0     H66668   4.261   4.024   3.460  1.4804  3.1055 -0.0131
  494MOL0     H66669   4.209   4.139   3.348  2.7116 -2.7973 -0.0784
  494MOL0     H66670   3.191   4.036   3.826  0.1106 -0.0583  0.1568
  494MOL0     H66671   2.957   3.978   3.822  0.7936  1.5803 -1.8667
  494MOL0     H66672   2.654   3.737   3.568  0.4085  3.9432  1.3171
  494MOL0     H66673   2.425   3.757   3.503 -1.9025  1.5918 -0.4591
  494MOL0     H66674   0.622   3.179   3.800 -0.7889  2.3552  0.9208
  494MOL0     H66675   0.386   3.149   3.875  1.0221 -1.5384 -0.1611
  494MOL0     H66676  -0.051   3.217   3.836 -1.9410  0.9138  0.2491
  494MOL0     H66677  -0.262   3.205   3.953  0.3256 -0.1843  1.4159
  494MOL0     H66678  -0.521   2.923   3.905 -0.7240  0.9693 -0.6683
  494MOL0     H66679  -0.469   3.091   3.875 -2.4445 -0.5991 -1.2255
  494MOL0     H66680  -0.624   3.016   4.126 -0.3662  0.9665  0.4901
  494MOL0     H66681  -0.690   3.088   3.973  1.4195  0.7130 -1.6851
  494MOL0     H66682  -0.468   3.211   4.120  1.4745 -0.7092 -2.1227
  494MOL0     H66683  -0.636   3.236   4.179  1.2966 -0.1369  1.1957
  494MOL0     H66684  -0.523   3.304   3.901  0.0594  0.1198  0.9525
  494MOL0     H66685  -0.689   3.345   3.956 -0.4981  1.2753  0.7356
  494MOL0     H66686  -0.432   3.647   4.120  2.3024 -1.1649 -1.9806
  494MOL0     H66687  -0.230   2.779   3.972  1.5442 -1.6844 -1.1971
  494MOL0     H66688   0.081   2.724   3.947 -0.0287 -0.9590  0.4012
  494MOL0     H66689  -0.046   2.667   3.847 -0.2526  1.1298  2.5031
  494MOL0     H66690   0.098   2.761   3.776 -0.5876  0.6782 -0.5683
  495MOL0     O66691  10.809   3.146   2.101 -0.1933 -0.2509 -0.2822
  495MOL0     C66692  10.806   3.073   2.004 -0.0180 -0.2496 -0.2503
  495MOL0     O66693  10.906   3.038   1.916 -1.0387  0.5383 -0.3229
  495MOL0     C66694  11.025   3.101   1.941 -0.6481  0.3267  1.2079
  495MOL0     C66695  11.092   3.158   1.832  0.3829  0.4875  0.5542
  495MOL0     C66696  11.216   3.221   1.848  0.7053 -0.0558  0.2272
  495MOL0     C66697  11.267   3.252   1.974  0.0109 -0.1943  0.4982
  495MOL0     O66698  11.384   3.323   1.970  0.8781  0.0064 -0.0603
  495MOL0     C66699  11.417   3.383   2.097  0.5624 -0.4861 -0.7932
  495MOL0     C66700  11.544   3.466   2.086 -0.4890 -0.1804 -0.7957
  495MOL0     C66701  11.677   3.405   2.025  0.1501 -0.4343 -0.0630
  495MOL0     C66702  11.717   3.279   2.089  0.0658 -0.1627 -0.4437
  495MOL0     C66703  11.869   3.236   2.065 -0.0039  0.2704  0.7183
  495MOL0     C66704  11.907   3.249   1.915 -0.3938 -0.1371  0.2105
  495MOL0     C66705  11.831   3.164   1.813 -0.0455  0.1505  0.0057
  495MOL0     C66706  11.867   3.213   1.670  0.2452  0.4929  0.4548
  495MOL0     N66707  12.014   3.210   1.645 -0.7699  0.2487  0.5077
  495MOL0     C66708  12.091   3.117   1.583  0.2085 -0.0803  0.4770
  495MOL0     C66709  12.212   3.164   1.571  0.7053  0.1281 -0.8325
  495MOL0     C66710  12.318   3.084   1.495 -0.0536 -0.2088  0.0150
  495MOL0     C66711  12.459   3.142   1.518 -0.4634 -0.5429  0.6318
  495MOL0     C66712  12.589   3.068   1.463 -0.0409  0.0652  0.4549
  495MOL0     C66713  12.559   3.013   1.327 -0.7451 -0.2862 -0.3254
  495MOL0     O66714  12.656   2.916   1.298  0.2665  0.0422  0.2135
  495MOL0     C66715  12.780   2.963   1.255  0.2593 -0.0753  0.8174
  495MOL0     C66716  12.875   2.863   1.264 -0.4334 -0.2202 -1.0115
  495MOL0     C66717  13.006   2.894   1.224  0.0384  0.0310  0.6766
  495MOL0     C66718  13.050   3.012   1.172 -0.1451 -0.2018  1.2090
  495MOL0     C66719  13.190   3.048   1.128  0.5321 -0.3314 -0.1254
  495MOL0     O66720  13.298   2.988   1.192 -1.3543 -0.9042  0.4996
  495MOL0     C66721  13.431   3.027   1.170  0.4208  0.4161  0.5504
  495MOL0     C66722  13.520   3.018   1.280 -0.0040 -0.5555  0.1805
  495MOL0     C66723  13.662   3.019   1.260  0.6659 -0.3436  0.1769
  495MOL0     C66724  13.719   3.049   1.134  0.1850 -0.0217  0.0988
  495MOL0     O66725  13.853   3.049   1.138 -0.3978 -0.6454  0.1151
  495MOL0     C66726  13.916   3.003   1.020 -0.4075 -0.0640 -0.5161
  495MOL0     C66727  14.065   3.033   1.023  0.7505  0.2319  0.4512
  495MOL0     C66728  14.094   3.187   1.014 -0.3795  0.5008 -0.2544
  495MOL0     C66729  14.249   3.201   1.044  0.1672  0.3776  0.9888
  495MOL0     C66730  14.300   3.348   1.065 -0.9507  0.9766 -0.3863
  495MOL0     C66731  14.341   3.421   0.931 -0.1570  0.2782 -1.1576
  495MOL0     C66732  14.227   3.474   0.856 -0.2684 -0.1080  0.1808
  495MOL0     C66733  14.275   3.551   0.735 -0.3396  1.1036  0.2180
  495MOL0    Cl66734  14.281   3.445   0.587 -0.1028  0.1941 -0.2591
  495MOL0     C66735  13.629   3.072   1.021 -0.5803 -0.1121 -0.7478
  495MOL0     C66736  13.493   3.061   1.045  0.6546  0.1141 -0.3788
  495MOL0     O66737  13.198   3.151   1.061  0.2981 -1.1124 -0.6683
  495MOL0     C66738  12.955   3.113   1.163  0.0896  0.2858  0.5128
  495MOL0     C66739  12.816   3.093   1.202 -0.6236 -0.7212  1.0559
  495MOL0     N66740  12.213   3.293   1.620  1.8021  0.3943 -0.2711
  495MOL0     N66741  12.095   3.317   1.665  1.0926 -0.3697 -0.8490
  495MOL0     C66742  11.209   3.186   2.087  0.5789  0.1377 -0.0102
  495MOL0     C66743  11.087   3.114   2.069 -0.0196  0.4494  0.5468
  495MOL0     C66744  10.677   3.014   1.962 -0.4202 -1.0239  0.6142
  495MOL0     C66745  10.647   3.004   1.828  0.1723  0.3842 -0.5665
  495MOL0     C66746  10.525   2.946   1.787  0.1054  0.7577 -0.3139
  495MOL0     C66747  10.434   2.889   1.877 -0.6084  0.3672 -0.5367
  495MOL0     O66748  10.328   2.816   1.828 -0.6658  0.0982  0.6330
  495MOL0     C66749  10.213   2.792   1.907 -0.0677  0.3828 -0.2121
  495MOL0     C66750  10.106   2.807   1.798 -0.5585 -0.0461 -0.5147
  495MOL0     C66751   9.965   2.794   1.857 -0.2073 -0.4335  0.7331
  495MOL0     C66752   9.943   2.677   1.952  0.1569 -0.4375  0.3999
  495MOL0     C66753   9.803   2.641   1.977  0.7995  0.4754 -0.3457
  495MOL0     C66754   9.683   2.604   1.991 -0.6118 -0.4050 -0.1593
  495MOL0     C66755  10.463   2.902   2.017  0.0440  0.2030  1.1144
  495MOL0     C66756  10.588   2.958   2.056 -0.5551  0.0697 -0.0324
  495MOL0     C66757  10.622   2.947   2.208 -0.3157 -0.6066 -0.2351
  495MOL0     H66758  11.053   3.161   1.731  1.9762  1.0310 -0.0908
  495MOL0     H66759  11.274   3.261   1.765  0.0084  0.0879 -0.1967
  495MOL0     H66760  11.333   3.441   2.136 -0.3893 -1.9039 -0.6781
  495MOL0     H66761  11.442   3.305   2.169  0.0227 -0.7692 -0.9067
  495MOL0     H66762  11.567   3.504   2.186 -1.6472  0.1858 -0.6523
  495MOL0     H66763  11.515   3.555   2.029 -0.4390  2.0823  2.4302
  495MOL0     H66764  11.751   3.484   2.040  0.0703 -0.5819  1.2655
  495MOL0     H66765  11.653   3.407   1.919 -2.8637 -1.1727  0.4956
  495MOL0     H66766  11.702   3.305   2.194  0.3805  2.8608 -1.0633
  495MOL0     H66767  11.655   3.196   2.054 -1.6904  1.7759 -2.2177
  495MOL0     H66768  11.937   3.301   2.121  0.6294 -1.1461  1.6386
  495MOL0     H66769  11.879   3.134   2.101  0.9657  0.8686  2.2479
  495MOL0     H66770  11.895   3.353   1.883 -2.0550 -0.9446 -2.0857
  495MOL0     H66771  12.013   3.227   1.899 -0.5787 -0.4438 -0.6796
  495MOL0     H66772  11.722   3.168   1.817 -0.2753 -2.0010 -2.0746
  495MOL0     H66773  11.869   3.062   1.820 -0.0832 -0.0078 -1.6940
  495MOL0     H66774  11.817   3.150   1.596 -0.7184  1.5387  0.1961
  495MOL0     H66775  11.828   3.315   1.661  1.7766  1.0778  0.0763
  495MOL0     H66776  12.068   3.016   1.553  0.8209 -0.0857 -0.0000
  495MOL0     H66777  12.312   2.978   1.520  0.6918 -0.0341  0.9553
  495MOL0     H66778  12.308   3.114   1.390  1.3198  1.4954  0.3241
  495MOL0     H66779  12.464   3.243   1.476  1.8861 -0.4926  0.9002
  495MOL0     H66780  12.467   3.153   1.626 -1.7344 -1.0216  0.7873
  495MOL0     H66781  12.615   2.989   1.534 -1.5544 -0.6461  0.2550
  495MOL0     H66782  12.667   3.145   1.458 -1.4317  1.5082 -3.7516
  495MOL0     H66783  12.537   3.091   1.254 -1.7522  2.3871  2.5923
  495MOL0     H66784  12.472   2.949   1.343  0.4523 -1.4492  2.1728
  495MOL0     H66785  12.862   2.765   1.306 -0.2586  0.6387  1.1561
  495MOL0     H66786  13.072   2.811   1.245  0.1988  0.4694  1.9770
  495MOL0     H66787  13.478   2.994   1.378  0.0463  0.7934  0.5567
  495MOL0     H66788  13.732   2.991   1.337  0.1749  0.2415  0.8482
  495MOL0     H66789  13.889   2.897   1.012 -2.4464  0.3382  0.2175
  495MOL0     H66790  13.885   3.066   0.936 -0.8782  1.9494  1.0746
  495MOL0     H66791  14.112   2.991   1.112 -1.3177 -0.8790  1.0599
  495MOL0     H66792  14.126   2.983   0.946 -2.0125  0.7920 -2.2924
  495MOL0     H66793  14.077   3.223   0.911 -2.2520 -1.1882 -0.5990
  495MOL0     H66794  14.031   3.244   1.083 -2.3094 -2.9776  1.1225
  495MOL0     H66795  14.307   3.162   0.960  0.0550  2.2342  0.0032
  495MOL0     H66796  14.274   3.131   1.124  0.2670 -2.2372 -1.1712
  495MOL0     H66797  14.382   3.358   1.138 -0.7345  3.1461 -0.8420
  495MOL0     H66798  14.219   3.398   1.118  0.5729 -0.9317  4.2588
  495MOL0     H66799  14.403   3.505   0.964  0.5792 -0.8089  0.3352
  495MOL0     H66800  14.404   3.357   0.869 -1.0122 -0.8528 -0.8781
  495MOL0     H66801  14.186   3.553   0.920  2.7619  2.2090 -0.4740
  495MOL0     H66802  14.166   3.389   0.824 -1.0120  0.0229  1.1974
  495MOL0     H66803  14.223   3.644   0.709  0.0567  1.6745  1.3894
  495MOL0     H66804  14.372   3.599   0.749 -0.7354  2.0965 -0.3552
  495MOL0     H66805  13.666   3.109   0.926  1.5896 -1.4063 -0.4641
  495MOL0     H66806  13.421   3.072   0.965 -1.0459  2.5335  1.3620
  495MOL0     H66807  12.980   3.213   1.129  3.2812 -1.4485 -2.9895
  495MOL0     H66808  12.738   3.167   1.188  0.4254 -0.2206 -3.9473
  495MOL0     H66809  11.244   3.203   2.189  0.5368  2.4847 -0.3126
  495MOL0     H66810  11.052   3.064   2.158  3.7425  1.6749  2.9349
  495MOL0     H66811  10.721   3.048   1.762  0.5649  0.8719  0.1753
  495MOL0     H66812  10.500   2.938   1.682  1.0131 -0.5343 -0.4564
  495MOL0     H66813  10.206   2.864   1.988  2.6318  1.0353 -0.4825
  495MOL0     H66814  10.218   2.693   1.955 -2.8053  0.8159  1.1268
  495MOL0     H66815  10.132   2.742   1.714  0.0543  0.0248 -0.3847
  495MOL0     H66816  10.113   2.907   1.755  1.1409  0.6728  1.2786
  495MOL0     H66817   9.902   2.783   1.768  1.7253 -2.1324 -0.5239
  495MOL0     H66818   9.933   2.887   1.904 -0.7924  1.4400 -3.0063
  495MOL0     H66819   9.998   2.598   1.900  0.4282  0.5841 -0.9203
  495MOL0     H66820   9.986   2.709   2.047  0.5639  1.3705 -0.3560
  495MOL0     H66821   9.578   2.592   1.977 -0.9988  2.6550 -0.6242
  495MOL0     H66822  10.398   2.873   2.098 -2.5771 -0.5743 -1.1153
  495MOL0     H66823  10.570   2.860   2.252 -0.0908 -2.0060 -2.5808
  495MOL0     H66824  10.727   2.937   2.236 -0.0737  0.1861 -0.8566
  495MOL0     H66825  10.578   3.035   2.257  0.7763 -0.2792  0.1784
  496MOL0     O66826   9.662   8.779   9.912  0.7421  0.2777 -0.6526
  496MOL0     C66827   9.574   8.865   9.898 -0.5475 -0.0350  0.3778
  496MOL0     O66828   9.601   8.994   9.862 -0.2169  0.6765  0.1429
  496MOL0     C66829   9.725   9.051   9.864  0.0384 -0.5579  0.2611
  496MOL0     C66830   9.750   9.156   9.772 -0.5289 -0.0186 -0.8316
  496MOL0     C66831   9.870   9.225   9.766 -1.3826  0.5995  0.2871
  496MOL0     C66832   9.971   9.187   9.858 -0.0003  0.1889 -0.2292
  496MOL0     O66833  10.105   9.231   9.864 -0.2328  0.3080  0.5264
  496MOL0     C66834  10.154   9.300   9.749  0.1253  0.0979  1.0882
  496MOL0     C66835  10.299   9.344   9.766 -0.1723  1.1454 -0.1307
  496MOL0     C66836  10.303   9.451   9.880  0.3339  0.3797 -0.0682
  496MOL0     C66837  10.433   9.515   9.892 -0.3758 -0.2310 -0.0278
  496MOL0     C66838  10.453   9.624   9.786  0.4448  0.1455 -0.9331
  496MOL0     C66839  10.593   9.694   9.809  0.0687  0.1777  0.1383
  496MOL0     C66840  10.635   9.764   9.678  1.1494  0.1401  0.2335
  496MOL0     C66841  10.745   9.865   9.682 -0.2806 -0.5646 -0.4580
  496MOL0     N66842  10.875   9.804   9.707 -1.3797  1.2379 -0.2465
  496MOL0     C66843  10.969   9.774   9.611 -0.4079 -0.3834 -0.2482
  496MOL0     C66844  11.086   9.748   9.675  0.1493 -0.4186  0.2019
  496MOL0     C66845  11.219   9.748   9.608  0.0536  0.3745 -0.3173
  496MOL0     C66846  11.330   9.782   9.706  0.1843  0.1066  1.1396
  496MOL0     C66847  11.463   9.804   9.637  0.5502 -0.0753 -0.2838
  496MOL0     C66848  11.464   9.936   9.553  0.4157 -0.3951  0.9694
  496MOL0     O66849  11.588  10.015   9.562  0.4511 -0.0265  0.1808
  496MOL0     C66850  11.668  10.005   9.453 -0.0825 -0.4171  0.1284
  496MOL0     C66851  11.679   9.896   9.366  0.4634  0.1469 -0.1022
  496MOL0     C66852  11.776   9.897   9.266 -0.1467  0.7769  0.6965
  496MOL0     C66853  11.867  10.003   9.246  0.5675  1.4280 -0.3543
  496MOL0     C66854  11.985   9.989   9.149 -0.3034 -1.2377 -0.9925
  496MOL0     O66855  12.077  10.092   9.157 -0.0654 -0.0497  0.4988
  496MOL0     C66856  12.200  10.078   9.102  0.0635 -0.1028  0.2030
  496MOL0     C66857  12.230  10.141   8.980 -0.3434 -0.1877 -0.0480
  496MOL0     C66858  12.345  10.109   8.905 -0.7388 -0.2073 -0.3058
  496MOL0     C66859  12.433  10.019   8.955 -0.7079 -0.2979 -0.3260
  496MOL0     O66860  12.554   9.981   8.893 -0.2424 -0.5323 -0.0867
  496MOL0     C66861  12.540   9.838   8.857  0.2128  1.0528 -0.1624
  496MOL0     C66862  12.630   9.810   8.730 -0.0596 -0.2264 -0.4674
  496MOL0     C66863  12.623   9.656   8.710 -0.1444 -0.1866  0.2884
  496MOL0     C66864  12.725   9.596   8.619  0.2304 -0.1422  0.1637
  496MOL0     C66865  12.709   9.635   8.476  0.1091 -0.2843  0.2245
  496MOL0     C66866  12.786   9.539   8.387  0.1654 -0.3384 -0.2945
  496MOL0     C66867  12.843   9.609   8.263  0.5444  0.3016  0.2101
  496MOL0     C66868  12.928   9.514   8.174 -0.8447  0.6574 -0.1855
  496MOL0    Cl66869  13.065   9.482   8.283 -0.1344  0.7951  0.1604
  496MOL0     C66870  12.405   9.953   9.082  0.4469 -0.3194  0.8039
  496MOL0     C66871  12.291   9.990   9.149  0.0838 -0.1905 -0.2495
  496MOL0     O66872  11.998   9.891   9.085 -0.5565 -0.1505 -0.0022
  496MOL0     C66873  11.853  10.116   9.337 -0.0208  0.3135 -0.2297
  496MOL0     C66874  11.754  10.111   9.436 -0.6143 -0.3638  0.3139
  496MOL0     N66875  11.061   9.756   9.809 -0.9440  0.0249 -0.1540
  496MOL0     N66876  10.941   9.789   9.825 -0.0514 -0.2652  0.2106
  496MOL0     C66877   9.951   9.091   9.964  1.0385  0.1270  0.6276
  496MOL0     C66878   9.827   9.024   9.958  1.1245 -0.5308 -0.9246
  496MOL0     C66879   9.434   8.831   9.940  0.6760 -0.3106  1.0132
  496MOL0     C66880   9.395   8.701   9.943 -0.5106  0.5043 -0.3983
  496MOL0     C66881   9.270   8.656   9.971 -0.1596 -0.1641  0.4410
  496MOL0     C66882   9.168   8.752   9.992  0.3954 -0.1181  0.0362
  496MOL0     O66883   9.040   8.710  10.027 -0.0833 -0.4021  0.1164
  496MOL0     C66884   9.017   8.687  10.165  0.0616 -0.7273  0.8650
  496MOL0     C66885   8.905   8.590  10.189  0.4162 -0.0010 -0.2519
  496MOL0     C66886   8.764   8.650  10.151  0.0323  0.3344  0.7201
  496MOL0     C66887   8.642   8.601  10.226  1.0798  0.3218 -0.5557
  496MOL0     C66888   8.641   8.670  10.355  0.0581 -0.3217  0.1031
  496MOL0     C66889   8.644   8.722  10.470 -0.8246  1.1891  0.0314
  496MOL0     C66890   9.204   8.887   9.987  0.7399 -0.0140  0.6177
  496MOL0     C66891   9.333   8.933   9.965 -0.4325 -0.0607  0.1424
  496MOL0     C66892   9.358   9.085   9.976  0.0201 -0.3157  1.0129
  496MOL0     H66893   9.661   9.174   9.712  1.6569  2.8197 -3.5038
  496MOL0     H66894   9.877   9.299   9.687  1.6583 -1.4904 -1.6340
  496MOL0     H66895  10.162   9.234   9.662  0.3966  0.8579  0.5217
  496MOL0     H66896  10.091   9.380   9.709  2.0095  0.1929 -2.0667
  496MOL0     H66897  10.328   9.391   9.671 -2.2698  0.4788 -1.1683
  496MOL0     H66898  10.349   9.250   9.790 -1.4362  0.7163  0.9259
  496MOL0     H66899  10.271   9.402   9.973  1.5387 -2.0194 -0.8500
  496MOL0     H66900  10.236   9.534   9.856  1.5326  1.2996 -0.2933
  496MOL0     H66901  10.443   9.556   9.993 -2.8552 -2.1559  1.0874
  496MOL0     H66902  10.508   9.440   9.867 -0.8297 -1.7274  2.7196
  496MOL0     H66903  10.448   9.579   9.686 -2.5635 -1.2324 -0.2852
  496MOL0     H66904  10.378   9.703   9.792  1.2398  0.8003  0.7569
  496MOL0     H66905  10.588   9.773   9.885 -0.7838 -0.8400  1.1906
  496MOL0     H66906  10.680   9.630   9.825  0.0258  0.2310  0.6106
  496MOL0     H66907  10.546   9.814   9.637  0.3918  0.2039  1.8431
  496MOL0     H66908  10.668   9.683   9.613  1.0795 -0.5526  1.0329
  496MOL0     H66909  10.754   9.916   9.585  2.8394 -0.6729 -0.3087
  496MOL0     H66910  10.717   9.932   9.764 -1.1778 -1.9502  0.4022
  496MOL0     H66911  10.956   9.786   9.504  1.5228  3.0562 -0.2241
  496MOL0     H66912  11.243   9.650   9.565 -1.1653 -0.6346  1.2262
  496MOL0     H66913  11.222   9.823   9.528  1.3424  1.7007  0.9053
  496MOL0     H66914  11.291   9.857   9.776  0.0976  0.5239  0.6458
  496MOL0     H66915  11.335   9.695   9.772  1.0650 -1.6274 -1.0904
  496MOL0     H66916  11.494   9.724   9.569 -1.6659 -1.8264  0.6492
  496MOL0     H66917  11.540   9.817   9.715 -0.2726  2.3283  0.2172
  496MOL0     H66918  11.397  10.007   9.602  1.5447  2.4015 -1.2747
  496MOL0     H66919  11.425   9.929   9.451  1.9986 -0.3346  0.3292
  496MOL0     H66920  11.629   9.802   9.387  3.9056 -1.5804  1.1559
  496MOL0     H66921  11.767   9.819   9.192  0.0842  2.8700 -1.6554
  496MOL0     H66922  12.149  10.202   8.942 -0.0415  0.4614  0.3320
  496MOL0     H66923  12.372  10.159   8.812 -0.7806  0.8753  0.2428
  496MOL0     H66924  12.575   9.773   8.937 -0.9228  0.0564 -0.4526
  496MOL0     H66925  12.438   9.814   8.826 -0.0089 -1.0296  1.8904
  496MOL0     H66926  12.598   9.862   8.640 -1.3314 -2.8277 -1.6181
  496MOL0     H66927  12.731   9.836   8.763 -0.8286  0.5483  1.4728
  496MOL0     H66928  12.651   9.595   8.797  3.2389 -2.9282 -2.4095
  496MOL0     H66929  12.525   9.628   8.671  1.2203 -1.1820 -2.7245
  496MOL0     H66930  12.695   9.491   8.622  1.9363 -0.7649 -2.2394
  496MOL0     H66931  12.825   9.611   8.660  0.5226 -2.4282  0.3923
  496MOL0     H66932  12.737   9.739   8.459 -1.7201  0.2936  0.5276
  496MOL0     H66933  12.604   9.633   8.446  0.1955 -1.6642 -0.0832
  496MOL0     H66934  12.861   9.494   8.452 -0.3422  0.5557  0.9559
  496MOL0     H66935  12.716   9.459   8.360 -1.8131  0.3620  2.2703
  496MOL0     H66936  12.917   9.683   8.294  0.6238  1.4689 -2.4267
  496MOL0     H66937  12.760   9.658   8.210 -1.1187 -1.7736  0.7734
  496MOL0     H66938  12.880   9.423   8.136 -1.3525  1.3670 -1.2807
  496MOL0     H66939  12.958   9.574   8.088 -0.5444  1.2224  0.3143
  496MOL0     H66940  12.468   9.872   9.118 -1.5918 -2.3375  0.0428
  496MOL0     H66941  12.265   9.939   9.242  1.2450 -0.0131  0.1849
  496MOL0     H66942  11.922  10.200   9.329 -0.8610  0.8882 -2.2591
  496MOL0     H66943  11.752  10.192   9.509 -1.3366 -1.3308  1.4072
  496MOL0     H66944  10.030   9.069  10.036  0.1759  0.5946  1.7575
  496MOL0     H66945   9.802   8.950  10.033  0.2120  3.1260  2.7377
  496MOL0     H66946   9.469   8.623   9.925 -0.5344  0.6271 -1.0729
  496MOL0     H66947   9.243   8.551   9.978 -2.4557  0.4362  1.3824
  496MOL0     H66948   8.982   8.783  10.205 -0.7477  1.6230 -4.6652
  496MOL0     H66949   9.106   8.652  10.217 -1.5963 -1.7465  3.2001
  496MOL0     H66950   8.909   8.568  10.296  0.4543 -2.1877 -0.6545
  496MOL0     H66951   8.921   8.495  10.136 -2.4834 -0.3055 -0.7498
  496MOL0     H66952   8.750   8.623  10.046 -2.7591  0.4313  0.9821
  496MOL0     H66953   8.774   8.758  10.139  0.5294 -0.0031 -3.2533
  496MOL0     H66954   8.547   8.637  10.187 -0.0330  2.1468  3.3559
  496MOL0     H66955   8.626   8.493  10.230 -3.6456  0.8175 -0.8533
  496MOL0     H66956   8.668   8.759  10.567  3.4745  2.9129 -1.4490
  496MOL0     H66957   9.123   8.956  10.008 -0.1342 -0.6861 -0.4337
  496MOL0     H66958   9.281   9.125  10.044  0.6931  1.1907  0.9310
  496MOL0     H66959   9.457   9.113  10.013  0.1196 -0.1278  0.6152
  496MOL0     H66960   9.345   9.120   9.873  2.9734  0.0239  0.6843
  497MOL0     O66961  10.902   9.793  11.314 -0.3930  0.4881  0.2422
  497MOL0     C66962  10.839   9.876  11.259 -0.8278  0.0504  0.2677
  497MOL0     O66963  10.887   9.970  11.175  0.7840 -0.4675  0.2164
  497MOL0     C66964  11.018   9.954  11.137  0.0657 -1.3212 -0.1062
  497MOL0     C66965  11.109  10.040  11.181  0.5085 -0.2253 -0.1442
  497MOL0     C66966  11.246  10.037  11.150 -0.0278  0.4127 -0.9574
  497MOL0     C66967  11.293   9.942  11.059 -0.9628  0.2492 -0.6277
  497MOL0     O66968  11.424   9.951  11.012  0.4441 -0.2903  0.5519
  497MOL0     C66969  11.509   9.832  10.982 -0.1982  0.0410 -0.0937
  497MOL0     C66970  11.581   9.863  10.850 -0.2857  0.0341  0.2385
  497MOL0     C66971  11.640  10.011  10.837  0.3254 -0.0385  0.2910
  497MOL0     C66972  11.706  10.045  10.700  0.5503  0.3542 -0.1062
  497MOL0     C66973  11.756  10.185  10.700 -0.1980 -0.1076  0.1796
  497MOL0     C66974  11.833  10.225  10.571 -0.6267 -0.9196  1.0312
  497MOL0     C66975  11.979  10.161  10.567  0.0510 -0.0306 -0.6698
  497MOL0     C66976  12.088  10.263  10.571 -0.2223  0.5032 -0.3369
  497MOL0     N66977  12.218  10.196  10.534  0.5874  0.5722  0.1665
  497MOL0     C66978  12.290  10.229  10.420 -0.6567  0.9355 -0.4669
  497MOL0     C66979  12.386  10.129  10.406  0.1658 -0.3011 -0.4375
  497MOL0     C66980  12.509  10.137  10.310  0.0447 -0.2142  0.3907
  497MOL0     C66981  12.621  10.212  10.374  1.1353  0.1556  0.8151
  497MOL0     C66982  12.723  10.268  10.270  0.5205 -0.5344  0.1076
  497MOL0     C66983  12.872  10.281  10.326 -0.3735  0.1771  0.0747
  497MOL0     O66984  12.887  10.357  10.447  0.4515 -0.0786 -0.2672
  497MOL0     C66985  13.019  10.372  10.492  0.9196 -0.5999 -1.1097
  497MOL0     C66986  13.056  10.292  10.610  0.0963 -0.3412  0.8516
  497MOL0     C66987  13.188  10.305  10.658  0.0173 -0.8662 -0.1533
  497MOL0     C66988  13.279  10.397  10.592  0.9632  0.0804 -0.9514
  497MOL0     C66989  13.419  10.411  10.641 -0.1745  1.0955 -0.0998
  497MOL0     O66990  13.475  10.538  10.633 -0.2225  0.6885  0.9777
  497MOL0     C66991  13.611  10.556  10.639  0.2680 -0.3215  0.5783
  497MOL0     C66992  13.696  10.497  10.732  0.6389 -0.2777 -0.3622
  497MOL0     C66993  13.829  10.535  10.731 -0.2862  0.9896 -0.2807
  497MOL0     C66994  13.882  10.615  10.627 -0.4100  0.0434  1.0390
  497MOL0     O66995  14.021  10.644  10.620 -0.6293 -0.1000 -0.1433
  497MOL0     C66996  14.089  10.675  10.750  0.6017  0.9103  0.0310
  497MOL0     C66997  14.173  10.546  10.771 -0.3906 -0.0414  0.3240
  497MOL0     C66998  14.274  10.516  10.654  0.3438  0.8591 -0.5551
  497MOL0     C66999  14.404  10.591  10.652  0.8065 -0.5889 -0.8093
  497MOL0     C67000  14.485  10.532  10.527  0.2298 -0.1764 -0.1870
  497MOL0     C67001  14.574  10.644  10.466 -0.1717  0.3623 -0.6562
  497MOL0     C67002  14.678  10.581  10.369 -0.6986  0.4541 -0.0750
  497MOL0     C67003  14.808  10.645  10.388 -0.1502 -0.7508  0.6954
  497MOL0    Cl67004  14.903  10.580  10.252 -0.1334  0.1034  0.3601
  497MOL0     C67005  13.806  10.673  10.533  0.0260  0.4828  0.2560
  497MOL0     C67006  13.667  10.645  10.538  0.4813 -0.5041 -0.2335
  497MOL0     O67007  13.473  10.315  10.692  0.4490 -1.1258  0.5773
  497MOL0     C67008  13.236  10.465  10.477 -0.1716 -0.1467 -0.0028
  497MOL0     C67009  13.100  10.459  10.433 -0.4714 -0.5918  1.1610
  497MOL0     N67010  12.371  10.038  10.516 -0.0134  1.1256  0.9161
  497MOL0     N67011  12.267  10.071  10.582 -0.1013 -0.1120  0.1003
  497MOL0     C67012  11.200   9.847  11.018 -0.4941 -0.6642  0.7740
  497MOL0     C67013  11.058   9.858  11.054  0.2357  1.1887 -0.0002
  497MOL0     C67014  10.692   9.883  11.298  0.1223  0.4627  0.1060
  497MOL0     C67015  10.649   9.831  11.428  0.5122  0.2591  0.0555
  497MOL0     C67016  10.519   9.842  11.471  0.2554  0.4468  0.6228
  497MOL0     C67017  10.415   9.890  11.378 -0.3187 -0.7204  0.4345
  497MOL0     O67018  10.280   9.904  11.413 -0.0760  0.1520 -0.4827
  497MOL0     C67019  10.232   9.824  11.514 -0.4622 -0.4649  0.7669
  497MOL0     C67020  10.087   9.865  11.552 -0.0710 -0.4165  0.6331
  497MOL0     C67021  10.036   9.785  11.667  0.0318 -0.6084  0.3172
  497MOL0     C67022  10.028   9.632  11.637  0.0950 -0.4616  0.7442
  497MOL0     C67023   9.935   9.570  11.732  0.0908 -0.8716 -0.6047
  497MOL0     C67024   9.878   9.536  11.833  0.0382  0.2469 -0.3288
  497MOL0     C67025  10.460   9.933  11.253  0.3921 -0.3138  0.7173
  497MOL0     C67026  10.592   9.937  11.209  0.0943  0.7328 -0.4590
  497MOL0     C67027  10.619   9.986  11.069 -0.3134 -0.0728 -0.4628
  497MOL0     H67028  11.082  10.104  11.264  1.0825  0.1773 -0.2640
  497MOL0     H67029  11.317  10.115  11.175  2.5678 -2.2817  0.8025
  497MOL0     H67030  11.585   9.827  11.061 -1.0171  1.6165  0.8179
  497MOL0     H67031  11.463   9.733  10.980  1.5454 -0.9246  2.2954
  497MOL0     H67032  11.514   9.845  10.764  1.0382 -0.3172 -0.7526
  497MOL0     H67033  11.665   9.793  10.847 -0.0367  0.3253  0.4092
  497MOL0     H67034  11.711  10.030  10.917  0.8147  1.7332 -0.5185
  497MOL0     H67035  11.552  10.075  10.843 -1.1710 -1.9340 -0.3104
  497MOL0     H67036  11.789   9.975  10.689  1.3658  1.1225  0.9213
  497MOL0     H67037  11.639  10.028  10.615  1.9388  2.2739 -1.6590
  497MOL0     H67038  11.672  10.255  10.707  0.1070  0.1581  1.4481
  497MOL0     H67039  11.822  10.206  10.784  2.2375  3.3390 -2.3160
  497MOL0     H67040  11.774  10.195  10.484  0.2395 -1.4458  0.6144
  497MOL0     H67041  11.848  10.333  10.572  3.1367 -1.2858  1.0840
  497MOL0     H67042  11.992  10.102  10.475 -3.6595 -0.3454 -1.1466
  497MOL0     H67043  11.984  10.095  10.654 -1.6833  0.8331  0.1379
  497MOL0     H67044  12.073  10.343  10.498 -2.4265 -0.3302 -0.8746
  497MOL0     H67045  12.099  10.314  10.667  0.0540  0.5707 -0.4059
  497MOL0     H67046  12.285  10.325  10.369 -1.6050  1.1881  0.0819
  497MOL0     H67047  12.560  10.043  10.285  3.6481  1.6643  0.0290
  497MOL0     H67048  12.472  10.183  10.218  1.2816 -0.5890 -0.3188
  497MOL0     H67049  12.568  10.295  10.423 -0.8956  1.5653 -3.2673
  497MOL0     H67050  12.670  10.148  10.448  0.7003 -0.5961  0.4654
  497MOL0     H67051  12.673  10.363  10.250 -0.0575 -0.8024  0.2758
  497MOL0     H67052  12.722  10.207  10.179  2.3578 -0.8468  0.2554
  497MOL0     H67053  12.924  10.339  10.249 -2.3653  0.2111 -1.3104
  497MOL0     H67054  12.914  10.182  10.349  0.0625  0.4281  0.3854
  497MOL0     H67055  12.986  10.232  10.665 -1.3761 -0.0587 -0.6373
  497MOL0     H67056  13.225  10.250  10.744  0.8645 -1.0437 -0.6199
  497MOL0     H67057  13.637  10.440  10.802 -2.7834  1.5445 -1.4809
  497MOL0     H67058  13.900  10.493  10.802 -0.8981 -2.0815 -1.3478
  497MOL0     H67059  14.164  10.755  10.750 -0.0984  1.5933  1.3348
  497MOL0     H67060  14.018  10.690  10.832 -0.3306 -0.6262 -0.4468
  497MOL0     H67061  14.226  10.555  10.866 -2.3732  0.4546  1.4324
  497MOL0     H67062  14.112  10.456  10.763  1.1764 -0.9977 -2.1039
  497MOL0     H67063  14.310  10.414  10.671  0.4794  0.7816 -1.2959
  497MOL0     H67064  14.212  10.520  10.565 -1.9970  2.1937  1.0464
  497MOL0     H67065  14.453  10.586  10.749  1.2397  0.3728 -0.9660
  497MOL0     H67066  14.373  10.693  10.630 -0.4666 -0.2676  2.0980
  497MOL0     H67067  14.431  10.474  10.451 -1.7261 -0.1643  1.1227
  497MOL0     H67068  14.556  10.465  10.576  0.4273  0.3722  0.2800
  497MOL0     H67069  14.512  10.720  10.417 -2.4129  0.5434  2.1750
  497MOL0     H67070  14.629  10.684  10.552 -1.3600 -0.8998  0.7454
  497MOL0     H67071  14.641  10.580  10.266 -0.5266 -1.6078 -0.1613
  497MOL0     H67072  14.690  10.476  10.397 -1.7737  0.4881  0.5828
  497MOL0     H67073  14.793  10.752  10.372  0.0848 -0.2036  3.5856
  497MOL0     H67074  14.860  10.632  10.483  0.0985  1.8809  1.0084
  497MOL0     H67075  13.850  10.736  10.456  0.9109 -0.5558 -0.1153
  497MOL0     H67076  13.604  10.699  10.469 -0.7712  0.6949  1.7626
  497MOL0     H67077  13.307  10.528  10.423 -1.9941  0.0342 -2.3150
  497MOL0     H67078  13.062  10.528  10.358  0.9360 -0.3545  0.6388
  497MOL0     H67079  11.242   9.777  10.946  0.8562  2.2005 -1.4456
  497MOL0     H67080  10.989   9.782  11.020 -0.0084  2.2378 -2.0089
  497MOL0     H67081  10.721   9.777  11.490  0.5560 -1.0890 -1.1152
  497MOL0     H67082  10.496   9.797  11.567  0.7831 -1.9363 -0.2791
  497MOL0     H67083  10.288   9.834  11.608  0.7208  0.5276 -0.0030
  497MOL0     H67084  10.225   9.724  11.471 -2.7891 -0.4889  1.1007
  497MOL0     H67085  10.021   9.859  11.465  0.8873  2.2463 -0.3649
  497MOL0     H67086  10.098   9.971  11.577 -0.3543 -0.2432  0.0395
  497MOL0     H67087   9.943   9.820  11.713  1.2024 -0.0234  2.3613
  497MOL0     H67088  10.117   9.802  11.738  2.0645  0.2253 -2.0754
  497MOL0     H67089   9.998   9.611  11.534 -1.0057  0.3280  0.8919
  497MOL0     H67090  10.129   9.596  11.658  1.5046  3.2504  0.9944
  497MOL0     H67091   9.836   9.521  11.931  3.9077 -3.3714  1.0974
  497MOL0     H67092  10.379   9.959  11.185  2.7546  2.0253 -1.4544
  497MOL0     H67093  10.666  10.085  11.069 -0.0413  0.0865  4.5952
  497MOL0     H67094  10.680   9.909  11.022 -1.2281 -1.5710  0.6969
  497MOL0     H67095  10.526   9.989  11.011 -2.4859 -1.7624  2.6029
  498MOL0     O67096   8.926   3.219   7.949  0.2264 -0.3195  0.2183
  498MOL0     C67097   8.962   3.115   7.991  0.7204  1.0673 -0.1998
  498MOL0     O67098   9.096   3.066   7.979 -0.1241 -0.0414 -0.4235
  498MOL0     C67099   9.193   3.157   7.954 -0.2254 -0.1884  0.0974
  498MOL0     C67100   9.203   3.280   8.014 -0.2922  0.0893  0.0228
  498MOL0     C67101   9.313   3.364   7.976 -0.2689 -0.0306  0.6688
  498MOL0     C67102   9.405   3.324   7.876  0.0313 -0.1356 -0.6829
  498MOL0     O67103   9.510   3.407   7.841  0.5001  0.1207  0.5221
  498MOL0     C67104   9.499   3.546   7.857  0.3104  0.4636  0.0675
  498MOL0     C67105   9.633   3.608   7.835 -0.6028  0.2309 -0.5387
  498MOL0     C67106   9.708   3.578   7.704  0.6547 -0.1279  0.1550
  498MOL0     C67107   9.835   3.658   7.685  0.4745  0.6156  0.0290
  498MOL0     C67108   9.930   3.595   7.584  0.3996 -1.0091 -0.5556
  498MOL0     C67109  10.028   3.707   7.538  0.5596 -0.3642  0.3511
  498MOL0     C67110  10.108   3.786   7.641 -0.2247  0.6827  0.4065
  498MOL0     C67111  10.227   3.699   7.698  0.0160 -0.3054 -0.1026
  498MOL0     N67112  10.332   3.680   7.592  0.2961  0.1770 -0.3377
  498MOL0     C67113  10.432   3.760   7.556 -0.5128  0.1033  0.5982
  498MOL0     C67114  10.479   3.700   7.444 -0.1799  0.4774  0.3338
  498MOL0     C67115  10.573   3.755   7.342  0.4254  0.1376  0.9189
  498MOL0     C67116  10.712   3.756   7.388 -0.7303  0.6199  0.6677
  498MOL0     C67117  10.748   3.869   7.484 -0.5460  0.0398 -0.3395
  498MOL0     C67118  10.899   3.891   7.512 -0.4399  0.3808  0.7036
  498MOL0     O67119  10.962   3.758   7.525  0.4730  0.1943 -0.4848
  498MOL0     C67120  11.093   3.757   7.490  0.2697  0.1968 -0.2744
  498MOL0     C67121  11.145   3.631   7.451 -0.6066  0.0200  0.2229
  498MOL0     C67122  11.281   3.625   7.426 -0.1910 -0.5080 -0.1481
  498MOL0     C67123  11.366   3.732   7.450 -0.4408 -0.0808 -0.9156
  498MOL0     C67124  11.515   3.725   7.430 -0.3807  0.1591  0.1364
  498MOL0     O67125  11.560   3.616   7.344  0.3447  0.6157 -0.1640
  498MOL0     C67126  11.691   3.587   7.308 -1.0526 -0.1436 -0.0560
  498MOL0     C67127  11.713   3.529   7.185  0.2569  0.4511  0.2602
  498MOL0     C67128  11.834   3.508   7.127  0.4097  0.3691 -0.4183
  498MOL0     C67129  11.944   3.526   7.210 -0.1329  0.8388  0.3946
  498MOL0     O67130  12.059   3.492   7.154 -0.4115 -0.4758  0.5176
  498MOL0     C67131  12.149   3.421   7.240  0.0749 -0.4280  0.7039
  498MOL0     C67132  12.283   3.495   7.269  1.1793 -0.1314 -0.1693
  498MOL0     C67133  12.397   3.402   7.282  0.6462 -0.9284  0.1000
  498MOL0     C67134  12.517   3.477   7.346 -0.3327  1.2287 -0.2271
  498MOL0     C67135  12.646   3.384   7.372 -0.0691 -0.0181  1.3759
  498MOL0     C67136  12.763   3.467   7.429  1.0847 -0.0841 -0.1784
  498MOL0     C67137  12.860   3.382   7.508 -0.0812  0.9955  0.2800
  498MOL0     C67138  12.987   3.461   7.535  0.4027 -0.3759  0.3110
  498MOL0    Cl67139  13.103   3.442   7.397  0.2957  0.0036  0.0281
  498MOL0     C67140  11.928   3.585   7.341 -0.4948  0.6566  0.8530
  498MOL0     C67141  11.803   3.612   7.390 -1.1891  0.4966  0.1097
  498MOL0     O67142  11.592   3.806   7.483  0.3900 -0.5266 -0.0505
  498MOL0     C67143  11.319   3.856   7.494  0.0054 -0.0004 -0.5282
  498MOL0     C67144  11.179   3.870   7.514 -0.4070 -0.2914  0.0756
  498MOL0     N67145  10.402   3.587   7.418 -0.0285 -0.5232 -0.2878
  498MOL0     N67146  10.318   3.571   7.512 -1.0323  0.5454  0.0736
  498MOL0     C67147   9.391   3.200   7.823  0.0843  0.0752  0.2373
  498MOL0     C67148   9.290   3.118   7.864 -0.5283  0.2970 -0.4911
  498MOL0     C67149   8.861   3.021   8.049 -0.2942  0.0136 -0.2573
  498MOL0     C67150   8.911   2.888   8.049  0.0594  0.2314 -0.3567
  498MOL0     C67151   8.833   2.789   8.110 -0.2434 -0.1112 -0.0152
  498MOL0     C67152   8.707   2.815   8.170 -0.0981 -0.1670 -0.1820
  498MOL0     O67153   8.636   2.713   8.235 -0.0307  0.7935  0.3358
  498MOL0     C67154   8.582   2.738   8.362 -0.4309  0.4163  0.7922
  498MOL0     C67155   8.431   2.761   8.371 -0.3215 -0.3126 -0.5360
  498MOL0     C67156   8.352   2.639   8.314  0.0033 -0.6101 -1.0616
  498MOL0     C67157   8.201   2.651   8.353  0.1698 -0.1773 -0.2806
  498MOL0     C67158   8.124   2.575   8.255  0.2750  0.7028  0.0711
  498MOL0     C67159   8.060   2.512   8.172 -0.7858 -0.2117 -0.1774
  498MOL0     C67160   8.656   2.949   8.160 -0.2011  0.7381  0.7990
  498MOL0     C67161   8.735   3.049   8.107  0.1380 -1.0061  0.8889
  498MOL0     C67162   8.667   3.184   8.089  0.6244 -0.4802 -0.7336
  498MOL0     H67163   9.131   3.297   8.092  0.5971  0.9615  0.6742
  498MOL0     H67164   9.312   3.466   8.014 -3.0399 -0.5969  2.4218
  498MOL0     H67165   9.425   3.584   7.786 -1.7210 -2.7552  0.2741
  498MOL0     H67166   9.466   3.571   7.959 -0.0754 -1.2756  0.3998
  498MOL0     H67167   9.706   3.566   7.906 -0.7892  1.0754  0.1745
  498MOL0     H67168   9.634   3.715   7.858  0.2287 -0.1165  1.2194
  498MOL0     H67169   9.637   3.584   7.622  3.6750 -4.3778 -3.2286
  498MOL0     H67170   9.733   3.472   7.691  2.2739  0.4870 -2.3580
  498MOL0     H67171   9.796   3.752   7.646  0.4196  0.1975 -0.9594
  498MOL0     H67172   9.885   3.663   7.782  1.1753 -0.9741 -0.2196
  498MOL0     H67173   9.976   3.505   7.626  1.7074 -1.1481 -2.1889
  498MOL0     H67174   9.871   3.558   7.500  0.3819 -1.0650 -0.5173
  498MOL0     H67175  10.092   3.669   7.459 -0.1257 -1.5078  0.3284
  498MOL0     H67176   9.965   3.777   7.482 -0.4652 -2.0686 -0.7280
  498MOL0     H67177  10.049   3.826   7.724  0.8414  0.6306  1.2030
  498MOL0     H67178  10.142   3.879   7.594  2.0036 -1.1250 -1.8498
  498MOL0     H67179  10.269   3.763   7.776  0.0523 -0.9284  0.3977
  498MOL0     H67180  10.195   3.602   7.738 -0.4110  0.2508  0.9704
  498MOL0     H67181  10.471   3.852   7.599  0.5087 -1.1384  2.4784
  498MOL0     H67182  10.563   3.691   7.254  1.3914 -2.6934  2.7188
  498MOL0     H67183  10.538   3.854   7.313 -2.7674 -1.6649 -2.1917
  498MOL0     H67184  10.735   3.657   7.429  1.5663  0.9426  0.3007
  498MOL0     H67185  10.783   3.766   7.305  0.2285 -1.1285  1.2368
  498MOL0     H67186  10.690   3.857   7.576 -0.2394 -3.8524 -0.5116
  498MOL0     H67187  10.702   3.960   7.444 -1.1762  0.0790  0.4268
  498MOL0     H67188  10.912   3.950   7.603  2.1306  2.2068 -0.7393
  498MOL0     H67189  10.941   3.937   7.423  1.5235 -2.0694  0.2591
  498MOL0     H67190  11.077   3.549   7.432  0.5388 -0.3048 -2.9906
  498MOL0     H67191  11.320   3.531   7.388 -2.0469 -0.3582 -2.6937
  498MOL0     H67192  11.625   3.503   7.128  0.7685 -0.1151 -0.2975
  498MOL0     H67193  11.852   3.462   7.031 -0.1376  0.0722 -0.3803
  498MOL0     H67194  12.103   3.396   7.336  1.9698  1.4995  2.2178
  498MOL0     H67195  12.174   3.329   7.187 -2.5320 -0.5807 -0.4017
  498MOL0     H67196  12.297   3.553   7.178 -0.6499 -0.5081 -0.7328
  498MOL0     H67197  12.271   3.570   7.347  1.2650  1.9782 -2.0867
  498MOL0     H67198  12.364   3.312   7.336  1.4408 -1.3586 -0.1117
  498MOL0     H67199  12.432   3.373   7.183 -1.1158  1.2562 -1.2521
  498MOL0     H67200  12.490   3.518   7.443 -2.2773  3.0235 -1.4413
  498MOL0     H67201  12.559   3.561   7.290  2.3978  1.8954  2.5550
  498MOL0     H67202  12.672   3.337   7.277  1.3168  2.4487  0.4316
  498MOL0     H67203  12.628   3.294   7.432  3.5512 -1.8464 -0.0233
  498MOL0     H67204  12.807   3.517   7.342  2.2338  0.1715  0.5417
  498MOL0     H67205  12.728   3.551   7.489  0.8505 -2.0616  2.6441
  498MOL0     H67206  12.887   3.283   7.469  0.5759  2.2025 -2.5718
  498MOL0     H67207  12.808   3.373   7.604 -0.6163 -0.4669 -0.1153
  498MOL0     H67208  12.967   3.566   7.558 -0.4123 -0.3728 -0.3823
  498MOL0     H67209  13.032   3.413   7.623  0.0267  0.8255  1.1833
  498MOL0     H67210  12.019   3.605   7.395  0.2452  1.9263 -0.7973
  498MOL0     H67211  11.821   3.662   7.485  0.5222 -0.2462  0.2165
  498MOL0     H67212  11.379   3.942   7.523  0.8584 -1.3187  1.8212
  498MOL0     H67213  11.140   3.965   7.549 -1.4419 -1.0153  0.9309
  498MOL0     H67214   9.475   3.162   7.765  0.3666  0.4715  0.3805
  498MOL0     H67215   9.276   3.018   7.826 -3.0307  0.2602  0.3617
  498MOL0     H67216   9.006   2.853   8.009  1.7995  0.6108  3.0013
  498MOL0     H67217   8.872   2.688   8.099 -0.6936 -0.3402  0.4353
  498MOL0     H67218   8.637   2.828   8.393  1.9886  0.2895 -2.5668
  498MOL0     H67219   8.597   2.647   8.420  1.7359 -0.0406 -0.3814
  498MOL0     H67220   8.403   2.857   8.325  1.5803  1.1792  1.2383
  498MOL0     H67221   8.391   2.772   8.472 -1.1595 -1.2995 -0.7456
  498MOL0     H67222   8.403   2.545   8.338  2.5570  0.1711 -2.9544
  498MOL0     H67223   8.362   2.640   8.205  4.4084 -1.3281 -0.8726
  498MOL0     H67224   8.182   2.611   8.453  1.3906  0.8092  0.3790
  498MOL0     H67225   8.165   2.754   8.340  0.9211 -0.1927 -3.3019
  498MOL0     H67226   8.002   2.464   8.095  1.5611 -3.2174 -0.2600
  498MOL0     H67227   8.562   2.963   8.212 -0.5557 -2.7783  1.3407
  498MOL0     H67228   8.565   3.188   8.126  0.4616  2.9880 -1.2318
  498MOL0     H67229   8.723   3.264   8.139 -0.4959 -0.3234  0.3142
  498MOL0     H67230   8.665   3.216   7.985  1.1042 -0.4248 -0.7305
  499MOL0     O67231   3.812   6.977   8.050 -0.8717 -0.4297 -0.9146
  499MOL0     C67232   3.725   7.048   8.081 -0.1251 -0.6371 -0.2575
  499MOL0     O67233   3.743   7.193   8.112 -0.0906 -0.0576  0.1415
  499MOL0     C67234   3.871   7.241   8.089 -0.8991 -0.8316  0.2672
  499MOL0     C67235   3.935   7.242   7.965  0.1033 -0.8324 -0.8574
  499MOL0     C67236   4.059   7.301   7.951 -0.5845  0.6727 -0.8710
  499MOL0     C67237   4.131   7.358   8.059 -0.8771  0.7946 -0.4203
  499MOL0     O67238   4.265   7.402   8.039  0.5691 -0.2344  0.6577
  499MOL0     C67239   4.359   7.397   8.146 -1.0268 -0.3658 -0.1287
  499MOL0     C67240   4.493   7.406   8.075 -0.4946  0.2699  0.2686
  499MOL0     C67241   4.609   7.427   8.168 -0.3920  0.3930  0.2483
  499MOL0     C67242   4.741   7.435   8.111 -0.7574 -1.2084  0.0145
  499MOL0     C67243   4.850   7.467   8.220  0.1287  0.5708 -0.0472
  499MOL0     C67244   4.972   7.530   8.156  0.2581  0.5886 -0.3276
  499MOL0     C67245   5.067   7.439   8.069 -0.6985  0.1918  0.1809
  499MOL0     C67246   5.137   7.331   8.158  0.3629  0.1821  0.1969
  499MOL0     N67247   5.221   7.381   8.265  0.1227  0.4225  0.5919
  499MOL0     C67248   5.347   7.421   8.248 -0.0616  1.0201 -0.1750
  499MOL0     C67249   5.413   7.416   8.362 -0.9881 -0.7945 -0.1186
  499MOL0     C67250   5.554   7.459   8.387  0.4671 -1.0412  0.2341
  499MOL0     C67251   5.555   7.597   8.455  0.4902 -1.1629 -0.2161
  499MOL0     C67252   5.698   7.660   8.447 -0.3502 -0.0663  0.2262
  499MOL0     C67253   5.801   7.596   8.537 -0.3108 -0.1656 -0.7689
  499MOL0     O67254   5.928   7.663   8.537  0.0886  0.4202 -0.2796
  499MOL0     C67255   6.036   7.608   8.598 -0.1238 -0.4328  0.6894
  499MOL0     C67256   6.156   7.664   8.564 -0.3020  0.0182  0.2657
  499MOL0     C67257   6.279   7.616   8.618  0.1973  0.1603  0.8061
  499MOL0     C67258   6.276   7.503   8.705 -0.2675  0.5150  0.2790
  499MOL0     C67259   6.397   7.465   8.772 -0.4644  0.7766  0.4805
  499MOL0     O67260   6.379   7.405   8.886  0.3431  0.3634 -0.4959
  499MOL0     C67261   6.481   7.365   8.970  0.2880 -1.3688  0.0247
  499MOL0     C67262   6.458   7.256   9.052 -1.0847 -0.6847 -1.4243
  499MOL0     C67263   6.541   7.224   9.156  0.0422  0.2555  0.0747
  499MOL0     C67264   6.661   7.296   9.180  0.8453  0.2973  0.2644
  499MOL0     O67265   6.746   7.254   9.273  0.7299  0.1112  0.2426
  499MOL0     C67266   6.882   7.317   9.282  0.6402 -0.1583  1.0339
  499MOL0     C67267   6.972   7.246   9.381 -0.2949  0.5897 -0.0245
  499MOL0     C67268   7.108   7.319   9.407 -0.4079  0.5583 -1.2606
  499MOL0     C67269   7.202   7.221   9.487  0.6350  0.0125 -0.2440
  499MOL0     C67270   7.336   7.300   9.514  0.0412 -0.6399  0.5821
  499MOL0     C67271   7.460   7.217   9.531  0.2238  0.6554  0.3474
  499MOL0     C67272   7.489   7.184   9.680  0.4716 -0.1413 -0.4065
  499MOL0     C67273   7.611   7.100   9.707 -0.2200  0.2764  0.2275
  499MOL0    Cl67274   7.713   7.138   9.840  0.1025  0.0576  0.0408
  499MOL0     C67275   6.684   7.410   9.102  0.7076 -0.1678  0.4617
  499MOL0     C67276   6.601   7.444   9.000 -0.4999 -0.1947  0.3687
  499MOL0     O67277   6.507   7.489   8.725 -0.3142 -0.5552 -0.2323
  499MOL0     C67278   6.150   7.445   8.736 -1.5036  0.5619 -0.5846
  499MOL0     C67279   6.034   7.494   8.680 -0.0698 -1.2939  0.2218
  499MOL0     N67280   5.319   7.362   8.450 -0.6720  0.4045 -0.9006
  499MOL0     N67281   5.204   7.346   8.399 -0.4555  0.4020  0.3215
  499MOL0     C67282   4.071   7.351   8.186  0.8279 -1.0536 -0.1605
  499MOL0     C67283   3.939   7.296   8.199 -0.3092  0.6034  0.3366
  499MOL0     C67284   3.583   6.993   8.099  0.4932 -0.4236 -0.2161
  499MOL0     C67285   3.482   7.092   8.128  0.4812 -0.4272 -0.0684
  499MOL0     C67286   3.349   7.055   8.143  0.7084  0.2429  0.1912
  499MOL0     C67287   3.302   6.925   8.148  0.1808 -0.5928 -1.0974
  499MOL0     O67288   3.173   6.887   8.168 -0.3021  0.0149  0.3051
  499MOL0     C67289   3.068   6.953   8.094 -0.5484 -0.2649 -0.4029
  499MOL0     C67290   2.929   6.909   8.147  0.0328 -0.3846 -0.1160
  499MOL0     C67291   2.911   6.937   8.298 -0.4593  0.0887 -0.1833
  499MOL0     C67292   2.822   7.067   8.318  0.1559 -0.7423 -0.5634
  499MOL0     C67293   2.879   7.191   8.287  0.0326  0.6299  0.3830
  499MOL0     C67294   2.927   7.300   8.269  0.0361  0.1440  0.0580
  499MOL0     C67295   3.400   6.826   8.131  0.5887 -0.7248  0.7092
  499MOL0     C67296   3.532   6.855   8.102 -0.2971  0.6587  0.3478
  499MOL0     C67297   3.626   6.742   8.092 -0.1014  0.0616  0.3698
  499MOL0     H67298   3.877   7.205   7.881 -0.4834  3.6746 -2.7360
  499MOL0     H67299   4.111   7.298   7.856 -1.7414  2.0057 -1.5742
  499MOL0     H67300   4.346   7.478   8.218  0.4474  0.9174 -1.2307
  499MOL0     H67301   4.344   7.306   8.205  2.6032  0.2341  1.9978
  499MOL0     H67302   4.490   7.493   8.009 -2.5748  0.8865  1.0835
  499MOL0     H67303   4.514   7.313   8.021  0.9437  0.0548  1.1408
  499MOL0     H67304   4.608   7.363   8.257  0.1175  0.5549  0.3721
  499MOL0     H67305   4.596   7.530   8.203 -3.0314  0.6564 -1.1905
  499MOL0     H67306   4.763   7.341   8.060  1.3656 -0.3350 -0.7849
  499MOL0     H67307   4.740   7.508   8.030 -1.8148 -1.5373 -0.2864
  499MOL0     H67308   4.806   7.539   8.289  2.1874  2.5806 -0.7249
  499MOL0     H67309   4.869   7.372   8.271  0.5713  2.0394  2.6622
  499MOL0     H67310   4.936   7.606   8.086 -1.2265 -2.2116 -2.8513
  499MOL0     H67311   5.032   7.575   8.235 -0.9505  3.2579 -0.8105
  499MOL0     H67312   5.146   7.497   8.020  1.0283 -1.5288  0.7714
  499MOL0     H67313   5.004   7.400   7.989 -0.7475  2.1009 -0.7521
  499MOL0     H67314   5.057   7.273   8.205  1.2253 -0.0005  1.5098
  499MOL0     H67315   5.185   7.256   8.094 -0.7109 -1.2581  1.0016
  499MOL0     H67316   5.395   7.447   8.154  1.9712  1.1052  0.8206
  499MOL0     H67317   5.612   7.385   8.443  0.5253 -1.8478 -0.8526
  499MOL0     H67318   5.609   7.472   8.293 -1.4629 -1.6528 -1.0377
  499MOL0     H67319   5.479   7.653   8.399 -1.9377 -1.7268  2.3043
  499MOL0     H67320   5.522   7.589   8.559  1.8866 -2.0984  0.1670
  499MOL0     H67321   5.690   7.763   8.483 -0.3970  0.8284 -2.1348
  499MOL0     H67322   5.729   7.668   8.342 -0.3261 -0.5986  0.1898
  499MOL0     H67323   5.799   7.491   8.508  0.8147 -1.4796  3.2690
  499MOL0     H67324   5.774   7.610   8.643 -0.8375 -0.3545 -0.8734
  499MOL0     H67325   6.161   7.750   8.498 -0.9155 -0.6536 -0.6715
  499MOL0     H67326   6.369   7.672   8.597 -0.7061  1.0677 -0.7900
  499MOL0     H67327   6.375   7.189   9.035 -0.6203 -1.5773 -0.3112
  499MOL0     H67328   6.527   7.135   9.216 -2.9266 -1.6847 -3.1777
  499MOL0     H67329   6.932   7.317   9.184  1.2205  1.8052  1.2777
  499MOL0     H67330   6.877   7.423   9.308 -0.0557  0.3433 -0.9510
  499MOL0     H67331   6.926   7.225   9.479 -1.6396 -0.5290 -0.8591
  499MOL0     H67332   6.989   7.146   9.341 -0.7170 -0.1491  1.5481
  499MOL0     H67333   7.157   7.332   9.311  0.4060  1.7353 -0.7127
  499MOL0     H67334   7.102   7.420   9.449  0.9162  0.1395  0.0487
  499MOL0     H67335   7.225   7.137   9.421  0.4883 -0.7286  0.6222
  499MOL0     H67336   7.169   7.176   9.581  2.6034  0.0196  0.5102
  499MOL0     H67337   7.319   7.367   9.599  1.2114 -0.7429  0.9215
  499MOL0     H67338   7.352   7.361   9.425 -1.5397 -0.8626  0.1189
  499MOL0     H67339   7.447   7.128   9.468 -3.4687  2.1517 -1.3279
  499MOL0     H67340   7.547   7.266   9.487  0.7007  0.7323  1.3570
  499MOL0     H67341   7.402   7.133   9.722  1.4430 -0.8587  0.8086
  499MOL0     H67342   7.503   7.284   9.722  2.0691 -1.4045  2.3607
  499MOL0     H67343   7.578   6.995   9.710  0.5757  0.0432  1.8006
  499MOL0     H67344   7.672   7.110   9.617  1.6257  2.3314  1.6013
  499MOL0     H67345   6.772   7.472   9.113  1.9238 -1.1572 -2.5462
  499MOL0     H67346   6.639   7.533   8.950 -0.9386 -0.3790 -0.3171
  499MOL0     H67347   6.147   7.354   8.796  0.3422  0.8504  0.0180
  499MOL0     H67348   5.944   7.439   8.707 -0.1280 -0.9310  0.7850
  499MOL0     H67349   4.114   7.397   8.275 -0.1175  1.8678 -1.0710
  499MOL0     H67350   3.884   7.292   8.292 -0.7625 -2.1925  0.0589
  499MOL0     H67351   3.502   7.198   8.141  0.5917 -0.7159  2.6121
  499MOL0     H67352   3.270   7.129   8.149  0.9401  0.5638 -0.5822
  499MOL0     H67353   3.073   6.935   7.986  1.5244  2.4540 -0.8780
  499MOL0     H67354   3.077   7.061   8.107  1.7406 -0.4633  0.1300
  499MOL0     H67355   2.914   6.803   8.125  0.1999 -0.5651  0.6159
  499MOL0     H67356   2.851   6.958   8.088  0.6027 -1.4123 -1.7948
  499MOL0     H67357   3.008   6.951   8.345 -0.4087  0.0035 -0.2614
  499MOL0     H67358   2.869   6.850   8.351 -0.9680  0.7430  0.5009
  499MOL0     H67359   2.728   7.059   8.262  1.1048  0.0840 -2.3571
  499MOL0     H67360   2.805   7.061   8.426  2.3673 -0.5334 -0.1716
  499MOL0     H67361   2.952   7.402   8.248 -3.2223  0.9840 -0.2195
  499MOL0     H67362   3.367   6.723   8.122  2.2758 -1.2083 -0.5239
  499MOL0     H67363   3.723   6.779   8.126  0.5483 -0.2379 -1.0905
  499MOL0     H67364   3.610   6.654   8.155  0.7250 -1.0026 -0.8463
  499MOL0     H67365   3.637   6.714   7.987 -0.7354  1.1253  0.0020
  500MOL0     O67366   6.216   4.354   3.405 -0.0314 -0.5335 -1.1416
  500MOL0     C67367   6.235   4.318   3.288 -0.2179  0.4431 -0.9247
  500MOL0     O67368   6.322   4.228   3.255  0.5022  0.3259 -0.4784
  500MOL0     C67369   6.440   4.216   3.331  0.7547 -0.7143 -0.6678
  500MOL0     C67370   6.548   4.284   3.270  0.3331  0.1574  0.2352
  500MOL0     C67371   6.672   4.269   3.325  0.8258 -0.0615  0.6785
  500MOL0     C67372   6.685   4.202   3.453 -0.2969  0.1187 -0.1588
  500MOL0     O67373   6.808   4.175   3.512  0.9895  0.1924 -0.3434
  500MOL0     C67374   6.864   4.057   3.456  0.5108  0.1264 -0.9391
  500MOL0     C67375   7.014   4.061   3.447 -0.6989 -0.7915  0.4756
  500MOL0     C67376   7.059   4.169   3.353  0.0135 -0.6245 -0.1961
  500MOL0     C67377   7.107   4.101   3.223  0.5369  0.3530 -0.6603
  500MOL0     C67378   7.129   4.207   3.114 -0.3620 -0.0135 -0.0730
  500MOL0     C67379   7.015   4.311   3.079  0.4787 -0.3369  0.5849
  500MOL0     C67380   7.042   4.409   2.961 -1.0752  0.0788 -0.5362
  500MOL0     C67381   6.930   4.512   2.940 -1.0434 -0.8428 -0.1332
  500MOL0     N67382   6.799   4.457   2.912 -1.0206 -0.1130 -0.0529
  500MOL0     C67383   6.775   4.398   2.790  0.3244 -0.5789 -0.3573
  500MOL0     C67384   6.656   4.333   2.816  0.2104 -0.8704 -0.0957
  500MOL0     C67385   6.584   4.240   2.728  0.3557  0.7923  0.1552
  500MOL0     C67386   6.464   4.303   2.665  0.1038 -0.2995 -0.0377
  500MOL0     C67387   6.489   4.402   2.548  0.2817 -0.1304 -0.5969
  500MOL0     C67388   6.564   4.340   2.428 -0.2811 -0.0146  0.1343
  500MOL0     O67389   6.707   4.358   2.462 -0.9285  0.0814 -0.5564
  500MOL0     C67390   6.804   4.294   2.387  0.2447  0.1170 -0.0686
  500MOL0     C67391   6.927   4.284   2.435 -0.4889 -0.0194 -0.0418
  500MOL0     C67392   7.031   4.243   2.359 -0.9339  0.3948  0.6202
  500MOL0     C67393   7.017   4.192   2.229  1.0782 -0.9870 -0.4508
  500MOL0     C67394   7.128   4.160   2.145  0.0457  0.0545 -0.1347
  500MOL0     O67395   7.095   4.079   2.038 -0.3352 -0.1269  0.2168
  500MOL0     C67396   7.188   4.067   1.945 -0.4876  0.3079  0.3289
  500MOL0     C67397   7.175   4.123   1.826  0.2823  0.5028  0.1561
  500MOL0     C67398   7.270   4.117   1.723  0.0420  0.6786 -0.6492
  500MOL0     C67399   7.397   4.051   1.744  0.6328  0.4601 -0.0129
  500MOL0     O67400   7.497   4.033   1.651 -0.1160 -0.3415  0.3495
  500MOL0     C67401   7.470   4.054   1.510  0.2571 -0.4804 -0.1348
  500MOL0     C67402   7.574   4.140   1.433  0.9470  0.7663  0.1471
  500MOL0     C67403   7.719   4.087   1.423 -0.3307  1.3432  0.3286
  500MOL0     C67404   7.820   4.197   1.389  0.0350  0.1015 -0.2707
  500MOL0     C67405   7.958   4.152   1.351  1.1130 -0.0835 -0.1289
  500MOL0     C67406   8.049   4.261   1.292  0.7375  0.0050  0.1991
  500MOL0     C67407   8.191   4.221   1.273 -0.0917  0.6921 -0.3299
  500MOL0     C67408   8.270   4.332   1.211  0.0924 -0.6150  0.2062
  500MOL0    Cl67409   8.210   4.362   1.050  0.0295 -0.7362 -0.5006
  500MOL0     C67410   7.412   3.994   1.871  0.3572  0.0503 -0.3300
  500MOL0     C67411   7.313   3.992   1.966 -0.1368 -0.3829 -0.9497
  500MOL0     O67412   7.242   4.184   2.180  0.1378 -0.3866 -0.2666
  500MOL0     C67413   6.887   4.184   2.183  0.8361 -0.6757  0.6327
  500MOL0     C67414   6.779   4.233   2.260  0.0245 -0.0598 -0.8909
  500MOL0     N67415   6.603   4.367   2.943  0.0065 -0.0658 -0.7480
  500MOL0     N67416   6.696   4.441   2.994 -0.1731 -0.0678 -0.0891
  500MOL0     C67417   6.574   4.146   3.512  0.6463  0.8709  0.6720
  500MOL0     C67418   6.450   4.148   3.451  0.0257 -0.7383  0.0349
  500MOL0     C67419   6.141   4.356   3.180 -1.1555 -0.3719 -0.2936
  500MOL0     C67420   6.203   4.368   3.051 -0.3217 -0.7313  0.9485
  500MOL0     C67421   6.134   4.428   2.940 -0.1589 -1.1092 -0.3370
  500MOL0     C67422   5.991   4.451   2.952 -0.0506 -0.2029  0.0547
  500MOL0     O67423   5.920   4.497   2.837 -0.1908  0.3313 -0.4366
  500MOL0     C67424   5.784   4.461   2.815  0.0758 -0.2289  0.8665
  500MOL0     C67425   5.791   4.319   2.755 -0.0399 -1.4621  0.6510
  500MOL0     C67426   5.653   4.256   2.742 -0.0632  0.6138  0.1027
  500MOL0     C67427   5.672   4.117   2.679  1.1944  0.2993  0.2477
  500MOL0     C67428   5.535   4.072   2.636  0.3106  0.2901 -0.2973
  500MOL0     C67429   5.423   4.048   2.590  0.3416  0.4341 -0.1548
  500MOL0     C67430   5.934   4.437   3.081  0.0253 -0.9811  0.1635
  500MOL0     C67431   6.009   4.390   3.189 -0.1108  0.4118 -0.0189
  500MOL0     C67432   5.937   4.373   3.322 -0.1104 -0.6851  0.5416
  500MOL0     H67433   6.537   4.343   3.180 -1.3157 -2.4527 -1.4114
  500MOL0     H67434   6.754   4.309   3.265 -0.9696 -0.1811 -2.0450
  500MOL0     H67435   6.838   3.976   3.525 -2.3613  1.0753 -0.7731
  500MOL0     H67436   6.825   4.041   3.355  0.3840  1.5715 -1.1401
  500MOL0     H67437   7.055   3.961   3.434 -2.1768 -1.6836  2.1979
  500MOL0     H67438   7.059   4.101   3.539  1.5549  3.4200 -2.1080
  500MOL0     H67439   7.149   4.213   3.399 -1.0174 -0.4350  1.7462
  500MOL0     H67440   6.985   4.249   3.343 -1.1583 -1.4771  1.2430
  500MOL0     H67441   7.203   4.055   3.248  0.2609  0.1083 -0.0327
  500MOL0     H67442   7.032   4.026   3.196  0.0128 -0.5420  2.7619
  500MOL0     H67443   7.221   4.260   3.141 -0.3643 -1.2100  2.5993
  500MOL0     H67444   7.146   4.156   3.018 -1.5451  0.7099 -0.6942
  500MOL0     H67445   6.925   4.256   3.053  1.0904 -0.9334 -0.3657
  500MOL0     H67446   6.989   4.370   3.167  1.0674  0.0265  0.5242
  500MOL0     H67447   7.067   4.364   2.864 -2.1280  1.0641 -1.2916
  500MOL0     H67448   7.133   4.463   2.990 -0.4029 -1.9275  1.3669
  500MOL0     H67449   6.919   4.560   3.038  0.3973 -3.0949  1.2355
  500MOL0     H67450   6.960   4.583   2.862  0.6407 -0.4061  0.8673
  500MOL0     H67451   6.830   4.392   2.696  0.3811 -1.3101 -0.2836
  500MOL0     H67452   6.646   4.181   2.659  0.0911 -4.0513  3.6068
  500MOL0     H67453   6.532   4.163   2.785 -0.5902 -0.0861 -1.7743
  500MOL0     H67454   6.413   4.215   2.625  1.2493 -0.1614 -1.9553
  500MOL0     H67455   6.405   4.351   2.743 -1.4680  1.1991 -2.0233
  500MOL0     H67456   6.532   4.496   2.585 -0.3854 -0.7079  1.8722
  500MOL0     H67457   6.388   4.433   2.519 -0.5382 -0.0421  2.1124
  500MOL0     H67458   6.553   4.392   2.332  3.8735 -2.4578 -1.9213
  500MOL0     H67459   6.538   4.234   2.419  0.4215 -0.3349  1.6167
  500MOL0     H67460   6.959   4.323   2.531  1.6165 -1.8051  0.0808
  500MOL0     H67461   7.133   4.247   2.396 -0.2677  1.6985 -1.2194
  500MOL0     H67462   7.080   4.168   1.798  0.5926  0.4660 -1.0421
  500MOL0     H67463   7.247   4.180   1.638  0.3548 -1.1310 -2.1317
  500MOL0     H67464   7.462   3.957   1.460  1.3897  0.1271 -1.5953
  500MOL0     H67465   7.377   4.112   1.502 -0.7819 -1.9600  0.7232
  500MOL0     H67466   7.534   4.148   1.332  0.8582 -0.0003  0.1195
  500MOL0     H67467   7.568   4.233   1.491  0.0487  1.8471 -1.6036
  500MOL0     H67468   7.753   4.032   1.512 -1.2391  0.4418  0.1495
  500MOL0     H67469   7.740   4.010   1.348 -1.2651  0.0558  1.3271
  500MOL0     H67470   7.835   4.263   1.474  1.9075 -1.9181  1.0977
  500MOL0     H67471   7.775   4.252   1.305  0.5170  0.5427 -0.2420
  500MOL0     H67472   7.937   4.071   1.280 -2.7523  0.3995  0.2767
  500MOL0     H67473   8.002   4.100   1.437 -0.0007 -0.2319  0.3716
  500MOL0     H67474   8.017   4.276   1.189  0.5887  1.9870  0.4953
  500MOL0     H67475   8.038   4.350   1.354 -1.6309 -0.5984  0.7687
  500MOL0     H67476   8.186   4.137   1.203  2.1371 -0.8439  1.2326
  500MOL0     H67477   8.234   4.188   1.368 -0.0542 -1.4774 -1.0305
  500MOL0     H67478   8.248   4.422   1.269 -1.0109 -0.3974 -0.5066
  500MOL0     H67479   8.379   4.330   1.217  0.1753 -2.5897 -1.1314
  500MOL0     H67480   7.506   3.946   1.892 -0.4987 -2.2390 -1.3754
  500MOL0     H67481   7.331   3.937   2.057  0.3221 -1.4804 -1.6881
  500MOL0     H67482   6.864   4.152   2.082 -0.4066  2.6711 -0.2843
  500MOL0     H67483   6.674   4.216   2.241 -0.6396  0.1919  2.0486
  500MOL0     H67484   6.603   4.091   3.601  2.7447  1.8675  0.6490
  500MOL0     H67485   6.363   4.097   3.490 -1.5910  2.1688  0.4288
  500MOL0     H67486   6.309   4.353   3.031  0.2763  2.3350  1.2757
  500MOL0     H67487   6.172   4.461   2.844  1.1522 -0.2191  0.4570
  500MOL0     H67488   5.743   4.522   2.734  0.3744 -0.3813  0.5988
  500MOL0     H67489   5.722   4.467   2.905  1.9736  0.1897  2.2184
  500MOL0     H67490   5.851   4.253   2.819 -0.3881 -2.0805  0.3460
  500MOL0     H67491   5.845   4.334   2.661 -0.9591  0.5487  0.3802
  500MOL0     H67492   5.580   4.314   2.683 -0.0928 -1.8637 -2.5026
  500MOL0     H67493   5.613   4.248   2.843  1.3168  5.7749  1.3426
  500MOL0     H67494   5.746   4.107   2.600  0.7707 -2.7812  0.1396
  500MOL0     H67495   5.708   4.040   2.748  2.4092 -0.9888 -1.7342
  500MOL0     H67496   5.324   4.024   2.555  0.9615 -3.0627  0.1396
  500MOL0     H67497   5.829   4.466   3.090 -0.0437 -0.9916 -0.5574
  500MOL0     H67498   5.966   4.274   3.358  2.0919 -0.3594 -0.1782
  500MOL0     H67499   5.957   4.450   3.397  5.3732 -1.5132  0.3057
  500MOL0     H67500   5.829   4.368   3.305  0.1512 -1.6794 -1.0103
  501MOL0     O67501   7.140   8.616   7.627 -0.4286  0.6851  0.3767
  501MOL0     C67502   7.058   8.684   7.679 -0.0209 -0.5747  0.1559
  501MOL0     O67503   7.067   8.824   7.712 -0.1069  0.7247  0.0438
  501MOL0     C67504   7.185   8.885   7.690  0.7178  0.0876  0.5055
  501MOL0     C67505   7.277   8.903   7.791 -0.9365 -0.4898  0.1611
  501MOL0     C67506   7.411   8.956   7.773 -0.2037 -0.6760 -0.0853
  501MOL0     C67507   7.455   8.994   7.647 -0.5367 -0.2345 -0.2430
  501MOL0     O67508   7.570   9.063   7.614  0.1009  0.2465 -0.1711
  501MOL0     C67509   7.668   9.065   7.717 -0.0441 -0.0651 -0.0142
  501MOL0     C67510   7.801   9.110   7.649 -0.1573 -0.0371  0.4332
  501MOL0     C67511   7.794   9.263   7.619  0.3234  0.5341  0.3866
  501MOL0     C67512   7.913   9.310   7.531 -0.1169 -0.6479 -0.4997
  501MOL0     C67513   7.916   9.466   7.551 -0.2282  0.0256  0.4542
  501MOL0     C67514   8.037   9.549   7.510  0.7991 -0.5299  0.3043
  501MOL0     C67515   8.159   9.519   7.595 -0.2827  0.3372  0.0511
  501MOL0     C67516   8.277   9.604   7.552 -0.3956 -0.8894  0.8305
  501MOL0     N67517   8.388   9.597   7.649 -1.1359 -0.6532  0.9051
  501MOL0     C67518   8.447   9.709   7.704  0.9689  0.5109 -0.1995
  501MOL0     C67519   8.569   9.676   7.727  0.7381 -0.2583 -0.6721
  501MOL0     C67520   8.671   9.788   7.754  1.8357 -0.1902 -0.1863
  501MOL0     C67521   8.778   9.747   7.857 -0.0732  0.1377 -0.3134
  501MOL0     C67522   8.892   9.847   7.877  0.7834 -1.0899  0.7736
  501MOL0     C67523   8.965   9.799   8.004 -0.1397 -0.6343  0.4164
  501MOL0     O67524   9.066   9.891   8.020  0.4190 -0.5617  0.3941
  501MOL0     C67525   9.186   9.895   7.939 -0.2640  0.4464  0.4184
  501MOL0     C67526   9.269  10.003   7.960 -0.1771  0.5622  0.2908
  501MOL0     C67527   9.389  10.018   7.881 -0.2302 -0.3750  0.1215
  501MOL0     C67528   9.419   9.925   7.784  0.0226 -0.3949  0.2378
  501MOL0     C67529   9.548   9.929   7.717 -0.1282 -0.8572 -0.3966
  501MOL0     O67530   9.633  10.016   7.768  0.1145  0.1675  0.1661
  501MOL0     C67531   9.771  10.007   7.749  0.2032 -0.5313 -0.0583
  501MOL0     C67532   9.843   9.889   7.765 -0.1441 -0.9950 -0.1353
  501MOL0     C67533   9.981   9.892   7.767 -0.2685  0.9361  0.5695
  501MOL0     C67534  10.049  10.014   7.751  0.6484  0.0889  0.2059
  501MOL0     O67535  10.177  10.020   7.779  0.5060  0.1235  0.8026
  501MOL0     C67536  10.263   9.952   7.690 -0.5022 -0.6963 -0.9360
  501MOL0     C67537  10.348  10.060   7.616  1.6435  0.4420  0.4957
  501MOL0     C67538  10.452  10.117   7.713  0.7213  1.1911 -0.2715
  501MOL0     C67539  10.590  10.050   7.715 -0.0223  0.5959  0.0381
  501MOL0     C67540  10.693  10.143   7.786 -1.2914  0.2452  0.8777
  501MOL0     C67541  10.828  10.076   7.790 -0.1195 -0.1469 -0.5005
  501MOL0     C67542  10.928  10.162   7.880  0.3970 -0.8063  0.2349
  501MOL0     C67543  11.080  10.119   7.873  0.2500 -0.4243  0.4918
  501MOL0    Cl67544  11.110   9.943   7.874 -0.0289  0.1490 -0.2044
  501MOL0     C67545   9.969  10.134   7.728 -0.0704  0.2710 -1.0058
  501MOL0     C67546   9.832  10.131   7.727  0.7479 -0.1956 -0.5941
  501MOL0     O67547   9.564   9.838   7.639 -0.4475 -0.0200  0.2071
  501MOL0     C67548   9.326   9.816   7.763 -0.6689 -0.3258 -0.9435
  501MOL0     C67549   9.217   9.798   7.848 -0.3736  0.5791  0.7927
  501MOL0     N67550   8.593   9.547   7.687 -0.4060 -0.3479  0.1483
  501MOL0     N67551   8.485   9.506   7.636  0.0264 -0.5066 -0.6353
  501MOL0     C67552   7.349   8.998   7.547  0.1375 -0.4329  0.3209
  501MOL0     C67553   7.228   8.935   7.565 -0.1291 -0.0675  0.9075
  501MOL0     C67554   6.929   8.623   7.704 -0.4373 -0.2809 -0.3516
  501MOL0     C67555   6.843   8.703   7.786  0.1480  0.4739 -0.2969
  501MOL0     C67556   6.711   8.660   7.817  0.7335  0.2992 -0.3062
  501MOL0     C67557   6.650   8.540   7.768 -1.1036 -0.4842  0.4022
  501MOL0     O67558   6.523   8.486   7.792 -0.5177  0.5126  1.0791
  501MOL0     C67559   6.440   8.554   7.881 -0.1200 -0.0753 -0.5507
  501MOL0     C67560   6.316   8.468   7.909 -0.6473 -0.1122  0.7194
  501MOL0     C67561   6.239   8.425   7.787  0.7909  0.6730  0.7858
  501MOL0     C67562   6.113   8.345   7.822 -0.1839 -0.4667 -0.0889
  501MOL0     C67563   6.152   8.216   7.875 -0.1059  0.0219 -0.6401
  501MOL0     C67564   6.177   8.111   7.931 -0.0124  0.3113  0.6279
  501MOL0     C67565   6.743   8.461   7.703 -0.5221 -0.0432 -0.2497
  501MOL0     C67566   6.876   8.499   7.670 -0.5872 -0.0294  0.4273
  501MOL0     C67567   6.956   8.398   7.588  0.0210 -0.5059 -0.8213
  501MOL0     H67568   7.251   8.867   7.890 -0.9012 -0.6003  0.1308
  501MOL0     H67569   7.467   8.951   7.866 -1.8902  1.5128  1.1593
  501MOL0     H67570   7.645   9.142   7.791  1.3036 -0.0759  0.4465
  501MOL0     H67571   7.683   8.969   7.768  1.5528 -0.1276 -0.5437
  501MOL0     H67572   7.819   9.064   7.551  1.6491  2.0838 -0.3056
  501MOL0     H67573   7.885   9.087   7.715  2.4885  0.9399 -2.3615
  501MOL0     H67574   7.783   9.309   7.717 -1.8188  0.9961 -0.0150
  501MOL0     H67575   7.700   9.299   7.574 -1.1560 -0.6667  2.3720
  501MOL0     H67576   8.005   9.267   7.570 -0.5210 -2.9380 -1.9075
  501MOL0     H67577   7.904   9.283   7.425  0.4101 -0.0780 -0.6954
  501MOL0     H67578   7.827   9.501   7.497 -2.6447 -1.3254  3.2388
  501MOL0     H67579   7.898   9.498   7.654  1.6913  1.8278  0.2902
  501MOL0     H67580   8.046   9.536   7.401 -1.0408  1.6307 -0.1924
  501MOL0     H67581   8.020   9.656   7.525  2.3738 -0.1971 -0.0741
  501MOL0     H67582   8.187   9.415   7.575 -1.3096  0.3435 -1.5900
  501MOL0     H67583   8.139   9.543   7.700 -1.6268 -2.2326  0.4632
  501MOL0     H67584   8.300   9.575   7.450 -3.8953 -0.8687 -0.0794
  501MOL0     H67585   8.253   9.710   7.540  0.7280 -0.7880 -0.7683
  501MOL0     H67586   8.395   9.803   7.719  0.3451 -0.2060  2.9423
  501MOL0     H67587   8.720   9.822   7.662  2.9174 -2.7508 -0.6469
  501MOL0     H67588   8.623   9.879   7.790 -0.4597 -1.1467 -0.6253
  501MOL0     H67589   8.728   9.741   7.954  1.1141 -1.2388  0.2481
  501MOL0     H67590   8.811   9.648   7.822  0.6858 -0.7733  2.7178
  501MOL0     H67591   8.849   9.946   7.892 -1.1254 -1.5399 -1.1730
  501MOL0     H67592   8.960   9.846   7.792 -0.4127 -2.7737 -0.2278
  501MOL0     H67593   9.007   9.698   8.004  1.0491 -0.2135  2.8836
  501MOL0     H67594   8.890   9.813   8.082 -0.0005  1.5229  0.2233
  501MOL0     H67595   9.246  10.080   8.033  1.1118  1.4724 -0.2285
  501MOL0     H67596   9.456  10.097   7.912 -1.7541  0.3039  1.9461
  501MOL0     H67597   9.773   9.807   7.777 -4.4268  1.8800 -2.7247
  501MOL0     H67598  10.048   9.807   7.776  3.5975  3.8223  1.9501
  501MOL0     H67599  10.337   9.886   7.735 -0.8921 -0.0743  0.6727
  501MOL0     H67600  10.193   9.900   7.624 -3.8092  2.8189 -0.5595
  501MOL0     H67601  10.397  10.001   7.538  0.6443 -0.3709  0.4579
  501MOL0     H67602  10.278  10.136   7.581 -0.0390 -1.0211  0.5259
  501MOL0     H67603  10.465  10.224   7.694  2.9922  0.6839 -1.9879
  501MOL0     H67604  10.409  10.113   7.814 -1.3196 -0.7872 -1.1285
  501MOL0     H67605  10.620  10.052   7.610 -0.2541  1.3511 -0.0128
  501MOL0     H67606  10.591   9.953   7.767 -2.5599  1.4294  1.8350
  501MOL0     H67607  10.655  10.162   7.886 -0.0543  2.8304  0.9379
  501MOL0     H67608  10.686  10.240   7.736  1.9949  1.4997  2.5236
  501MOL0     H67609  10.822   9.979   7.841 -1.7864  0.2317  0.0893
  501MOL0     H67610  10.883  10.068   7.696  1.8588 -1.1303  0.6803
  501MOL0     H67611  10.892  10.167   7.983  0.2863 -1.6461  0.2463
  501MOL0     H67612  10.921  10.266   7.847  1.5951 -0.8790 -0.2779
  501MOL0     H67613  11.125  10.165   7.784  3.5000  0.9219  2.6393
  501MOL0     H67614  11.146  10.161   7.949  0.6112  1.4798 -0.7953
  501MOL0     H67615  10.035  10.219   7.728  3.0018 -1.9378 -0.6816
  501MOL0     H67616   9.774  10.223   7.728 -0.8663 -1.1771  0.5684
  501MOL0     H67617   9.345   9.739   7.689 -1.2651 -0.6785 -0.7303
  501MOL0     H67618   9.154   9.713   7.827  0.9761  0.0065 -1.3096
  501MOL0     H67619   7.384   9.042   7.454  1.6618  0.2427  1.1712
  501MOL0     H67620   7.153   8.920   7.488  0.9681 -0.3586 -0.1365
  501MOL0     H67621   6.867   8.801   7.825 -0.6497  0.0173  1.4045
  501MOL0     H67622   6.655   8.737   7.869  2.3828  0.3573  1.5069
  501MOL0     H67623   6.413   8.648   7.833 -0.1132 -0.6367 -1.6742
  501MOL0     H67624   6.477   8.574   7.982  1.4144 -0.3016 -1.0488
  501MOL0     H67625   6.242   8.527   7.963 -3.8536 -1.7606 -1.5631
  501MOL0     H67626   6.345   8.378   7.963 -1.1766 -0.2883  0.7124
  501MOL0     H67627   6.301   8.372   7.715 -0.8004  1.4013 -1.2052
  501MOL0     H67628   6.213   8.514   7.729 -1.0609 -0.5083 -0.3112
  501MOL0     H67629   6.054   8.400   7.896  2.5725 -0.0250  1.9858
  501MOL0     H67630   6.059   8.327   7.729  2.5031  0.3302 -1.9300
  501MOL0     H67631   6.216   8.023   7.977  0.8743 -0.0678 -0.8165
  501MOL0     H67632   6.700   8.369   7.666  0.8290 -0.6939 -0.2623
  501MOL0     H67633   6.980   8.435   7.488 -0.9353  1.6499 -0.2980
  501MOL0     H67634   7.052   8.392   7.640 -0.1203  2.9951  0.1093
  501MOL0     H67635   6.916   8.296   7.594  0.0300 -0.4460  0.7115
  502MOL0     O67636   3.672   4.491   7.546 -0.0524  0.3306  0.1598
  502MOL0     C67637   3.565   4.435   7.560  0.6035 -0.3737  0.2945
  502MOL0     O67638   3.542   4.306   7.524 -0.0521  0.5423 -0.1046
  502MOL0     C67639   3.638   4.214   7.564  0.5744 -0.3573 -0.1912
  502MOL0     C67640   3.609   4.136   7.674  0.7691  0.5729  0.2360
  502MOL0     C67641   3.708   4.045   7.725  0.4181  0.2923 -0.0482
  502MOL0     C67642   3.843   4.047   7.674 -0.8639  0.4923 -0.5284
  502MOL0     O67643   3.934   3.967   7.736 -0.0827 -0.1169 -0.3697
  502MOL0     C67644   3.950   3.832   7.690  0.6914 -0.1008  0.6216
  502MOL0     C67645   4.093   3.808   7.661 -0.3293 -0.0443 -0.0136
  502MOL0     C67646   4.192   3.849   7.766 -0.0207  0.5361  0.0294
  502MOL0     C67647   4.336   3.820   7.724  0.4325  0.0304  0.2344
  502MOL0     C67648   4.427   3.857   7.843  0.2802 -0.1769  0.6723
  502MOL0     C67649   4.567   3.867   7.791 -0.5468  0.2012 -0.4320
  502MOL0     C67650   4.677   3.880   7.900  0.2193  0.0365 -0.7087
  502MOL0     C67651   4.821   3.837   7.867 -1.1210  0.0623 -0.3056
  502MOL0     N67652   4.917   3.862   7.974 -0.2830  0.0235 -0.1028
  502MOL0     C67653   4.996   3.975   7.978  0.7136  0.5509  0.3922
  502MOL0     C67654   5.058   3.955   8.103 -0.2032 -0.4039  0.4814
  502MOL0     C67655   5.147   4.064   8.163  0.0323 -0.1441 -0.2739
  502MOL0     C67656   5.278   4.101   8.091  0.1915 -0.0852  0.2020
  502MOL0     C67657   5.372   3.980   8.076  0.2776  0.5249  0.8927
  502MOL0     C67658   5.488   4.025   7.996  0.2254 -0.2456  0.4952
  502MOL0     O67659   5.456   4.038   7.863  0.2604  0.2021 -0.4731
  502MOL0     C67660   5.553   4.076   7.774 -0.3381  0.8881 -0.6814
  502MOL0     C67661   5.517   4.078   7.637  0.2627  0.2891 -0.4368
  502MOL0     C67662   5.613   4.083   7.535 -0.2668  0.1109 -0.5915
  502MOL0     C67663   5.746   4.095   7.567 -0.2653  0.3573 -0.5633
  502MOL0     C67664   5.845   4.107   7.456  0.4030  0.1027 -0.4581
  502MOL0     O67665   5.975   4.088   7.489  0.8333 -0.0850 -0.1903
  502MOL0     C67666   6.074   4.116   7.405 -0.0873 -0.3678  0.6428
  502MOL0     C67667   6.173   4.212   7.440 -0.3604  0.1944  0.7019
  502MOL0     C67668   6.268   4.248   7.344  0.1297  0.1051  0.4264
  502MOL0     C67669   6.279   4.184   7.218 -0.6817  1.0618  0.0120
  502MOL0     O67670   6.379   4.215   7.127  0.6554  0.3634 -0.1022
  502MOL0     C67671   6.505   4.150   7.161  0.0757  0.0611  0.5395
  502MOL0     C67672   6.589   4.253   7.220  0.0547  0.2920  0.3606
  502MOL0     C67673   6.715   4.179   7.288  0.0948  0.4225  0.1893
  502MOL0     C67674   6.795   4.260   7.390 -0.4572 -0.3403 -1.0280
  502MOL0     C67675   6.946   4.274   7.355 -0.5463 -0.5393 -0.4003
  502MOL0     C67676   7.030   4.351   7.461  0.2148 -1.0393 -0.0431
  502MOL0     C67677   7.175   4.298   7.465 -0.4258 -0.4862 -0.3467
  502MOL0     C67678   7.236   4.311   7.606 -0.2904  1.1895 -1.1310
  502MOL0    Cl67679   7.389   4.212   7.594 -0.5161  0.0961 -0.3277
  502MOL0     C67680   6.183   4.079   7.187 -0.1968 -0.8574 -0.6809
  502MOL0     C67681   6.084   4.055   7.279  0.1750  0.3322 -0.7814
  502MOL0     O67682   5.801   4.121   7.341 -0.0526 -0.0061 -0.4012
  502MOL0     C67683   5.782   4.099   7.704  0.0348 -1.2702 -0.7677
  502MOL0     C67684   5.681   4.093   7.800  0.2704  0.0489 -0.7931
  502MOL0     N67685   5.023   3.831   8.160 -0.2949 -0.2789  0.2996
  502MOL0     N67686   4.931   3.783   8.086 -1.2175 -0.6617 -0.8157
  502MOL0     C67687   3.877   4.140   7.567  1.0641  0.0707 -0.3883
  502MOL0     C67688   3.771   4.222   7.516  0.7313 -0.6587  0.5065
  502MOL0     C67689   3.451   4.522   7.614  0.4287  0.6196  0.5895
  502MOL0     C67690   3.320   4.482   7.579 -0.5292 -1.1884  0.7246
  502MOL0     C67691   3.212   4.555   7.627 -0.5986 -0.7705  0.7346
  502MOL0     C67692   3.230   4.660   7.710  0.6393 -1.0036 -0.3890
  502MOL0     O67693   3.129   4.720   7.781  0.2438 -0.7797  0.4122
  502MOL0     C67694   3.025   4.793   7.718  0.3081 -0.3862 -0.0860
  502MOL0     C67695   3.071   4.925   7.645 -0.2454 -0.6460 -0.2035
  502MOL0     C67696   2.969   4.958   7.533 -0.6174  0.1377 -0.3901
  502MOL0     C67697   2.997   5.106   7.484  0.1293 -0.0478  0.3710
  502MOL0     C67698   2.942   5.193   7.585 -0.7652  0.3468 -0.1588
  502MOL0     C67699   2.885   5.248   7.674 -0.2041 -0.2591 -0.1819
  502MOL0     C67700   3.353   4.697   7.749  0.1274 -0.6521 -0.2209
  502MOL0     C67701   3.465   4.635   7.699 -0.8985 -0.0814 -0.0894
  502MOL0     C67702   3.595   4.696   7.731  0.1671 -0.3195  0.6074
  502MOL0     H67703   3.511   4.133   7.722  1.2994 -1.2019  1.2994
  502MOL0     H67704   3.679   3.975   7.802 -2.4278  2.5130  1.0909
  502MOL0     H67705   3.913   3.762   7.765 -0.6421 -0.8254 -0.6608
  502MOL0     H67706   3.889   3.811   7.601  1.0398 -3.5269  1.0791
  502MOL0     H67707   4.119   3.858   7.568 -0.2611 -0.7720 -0.3981
  502MOL0     H67708   4.117   3.702   7.647  3.1222  0.4558  1.2165
  502MOL0     H67709   4.186   3.781   7.852  1.4016 -1.5272 -1.3775
  502MOL0     H67710   4.184   3.954   7.796  0.2746  0.4595  0.3897
  502MOL0     H67711   4.350   3.716   7.693 -0.5511 -0.0614  0.0427
  502MOL0     H67712   4.353   3.879   7.633 -4.6075 -0.2737 -1.2128
  502MOL0     H67713   4.400   3.948   7.898  2.7072  3.3844 -3.4292
  502MOL0     H67714   4.423   3.774   7.914  1.1543  0.0374  0.9885
  502MOL0     H67715   4.594   3.776   7.738  1.4616  0.4829  0.0182
  502MOL0     H67716   4.569   3.954   7.724  1.1793  1.3419  1.0063
  502MOL0     H67717   4.644   3.824   7.988 -0.4809  0.7543 -0.5007
  502MOL0     H67718   4.688   3.986   7.925  1.0942 -0.6603  2.3597
  502MOL0     H67719   4.822   3.729   7.845  3.2974 -0.7723  2.6588
  502MOL0     H67720   4.845   3.904   7.784 -2.0162  0.1377 -0.5145
  502MOL0     H67721   5.014   4.062   7.916  1.7497  1.4401  1.8658
  502MOL0     H67722   5.095   4.161   8.164  2.0827  1.0139  0.2444
  502MOL0     H67723   5.166   4.026   8.263 -1.2923 -1.9996 -0.6797
  502MOL0     H67724   5.252   4.144   7.993 -2.0058  0.7670  1.1061
  502MOL0     H67725   5.322   4.180   8.152 -0.5152 -0.3881  1.1206
  502MOL0     H67726   5.318   3.901   8.025 -0.7747  1.8608 -0.1513
  502MOL0     H67727   5.399   3.939   8.174  0.9066  1.3724  1.0873
  502MOL0     H67728   5.561   3.943   8.000  0.1185 -0.4329 -0.8605
  502MOL0     H67729   5.522   4.121   8.036 -0.7324  0.3018  0.0234
  502MOL0     H67730   5.416   4.049   7.611 -0.0498 -2.3130  2.9835
  502MOL0     H67731   5.581   4.078   7.431  2.2752  0.0897 -1.4336
  502MOL0     H67732   6.166   4.262   7.536  0.8012 -0.8353  1.3452
  502MOL0     H67733   6.328   4.331   7.380 -0.5153  1.2655 -1.0817
  502MOL0     H67734   6.490   4.073   7.238 -1.5747  0.6831  0.8840
  502MOL0     H67735   6.545   4.097   7.074 -0.7038 -2.8672  1.8332
  502MOL0     H67736   6.607   4.329   7.143 -0.5955  0.2112  0.1200
  502MOL0     H67737   6.535   4.309   7.297 -4.3184  2.4282 -3.6672
  502MOL0     H67738   6.678   4.092   7.343  1.9220 -0.3639  0.2375
  502MOL0     H67739   6.778   4.146   7.205 -0.9517 -0.5487 -0.2428
  502MOL0     H67740   6.783   4.227   7.494 -1.5639  2.6091 -0.1088
  502MOL0     H67741   6.759   4.363   7.396  2.9037  1.0771 -2.6147
  502MOL0     H67742   6.966   4.321   7.258  0.5792  1.4358  0.7192
  502MOL0     H67743   6.981   4.172   7.335  0.6478  0.1791 -2.2173
  502MOL0     H67744   7.030   4.456   7.433  2.3403 -0.6893  1.0657
  502MOL0     H67745   6.984   4.340   7.560 -3.7338  0.3071 -1.5311
  502MOL0     H67746   7.240   4.347   7.392  0.1498  0.9311  1.0507
  502MOL0     H67747   7.180   4.191   7.443  0.0060 -0.3759 -0.7867
  502MOL0     H67748   7.255   4.416   7.628 -1.7595  1.1897  0.3255
  502MOL0     H67749   7.171   4.279   7.688  0.4298  2.2615 -0.1180
  502MOL0     H67750   6.196   4.025   7.094  1.9674  0.1413 -1.0133
  502MOL0     H67751   6.007   3.981   7.261  0.5004 -0.1411 -0.2384
  502MOL0     H67752   5.881   4.124   7.740  0.6991 -3.5168 -0.8936
  502MOL0     H67753   5.714   4.093   7.903 -2.0738  0.6759  0.0138
  502MOL0     H67754   3.973   4.135   7.517  0.1915  2.3478 -2.4833
  502MOL0     H67755   3.803   4.296   7.443  2.1002 -0.3795  1.3458
  502MOL0     H67756   3.304   4.401   7.509 -0.4475  0.0517 -0.7874
  502MOL0     H67757   3.116   4.533   7.582 -0.4346  1.2575 -0.7372
  502MOL0     H67758   2.952   4.828   7.791  0.9193 -0.9182  0.7948
  502MOL0     H67759   2.975   4.733   7.641 -1.9924  3.5208 -1.9903
  502MOL0     H67760   3.174   4.915   7.609  0.3687  0.9530  0.9792
  502MOL0     H67761   3.068   5.008   7.716  1.4785  0.0924 -0.9566
  502MOL0     H67762   2.863   4.958   7.561 -0.9121  3.8986 -1.0193
  502MOL0     H67763   2.974   4.879   7.458 -0.0875  0.2988 -0.5247
  502MOL0     H67764   3.102   5.132   7.468  0.6725 -0.1390  3.2910
  502MOL0     H67765   2.958   5.124   7.384  1.9686  1.2158 -0.1543
  502MOL0     H67766   2.843   5.308   7.752  1.8998 -0.1711  0.9572
  502MOL0     H67767   3.366   4.773   7.825  0.0275 -1.4629  0.6249
  502MOL0     H67768   3.652   4.623   7.788 -1.1712 -0.3866  1.9227
  502MOL0     H67769   3.655   4.725   7.644 -0.7988 -1.4608 -0.4714
  502MOL0     H67770   3.583   4.795   7.778  2.5127 -0.0165  0.6773
  503MOL0     O67771   8.061   1.967   2.483  0.0632  0.3607 -0.6929
  503MOL0     C67772   7.994   1.927   2.582  0.6327  0.2673  0.7595
  503MOL0     O67773   8.045   1.925   2.714  0.3937  0.4200 -0.5506
  503MOL0     C67774   8.150   1.997   2.759 -0.2272  0.4470  0.3360
  503MOL0     C67775   8.200   2.106   2.702 -0.3118 -0.0210  0.7458
  503MOL0     C67776   8.299   2.184   2.778  0.3213  0.0534 -0.0419
  503MOL0     C67777   8.360   2.131   2.891  0.1370  0.7637  0.1146
  503MOL0     O67778   8.463   2.180   2.965 -0.0049 -0.0194  0.1582
  503MOL0     C67779   8.559   2.262   2.892 -1.0149 -0.7497 -0.3606
  503MOL0     C67780   8.680   2.267   2.991  0.7072 -0.0552 -0.4929
  503MOL0     C67781   8.763   2.392   2.943 -0.1623 -0.1987 -0.4090
  503MOL0     C67782   8.882   2.430   3.031  0.1787  0.0789  0.3496
  503MOL0     C67783   8.941   2.565   2.989 -0.2849  0.3407 -0.8534
  503MOL0     C67784   9.084   2.585   3.017  0.2779  0.4057  0.0652
  503MOL0     C67785   9.162   2.510   2.901 -0.3485  0.8091  0.0633
  503MOL0     C67786   9.319   2.520   2.929  0.4854 -0.0625  0.6778
  503MOL0     N67787   9.386   2.650   2.903  0.0911 -0.0516 -0.2070
  503MOL0     C67788   9.406   2.682   2.775 -0.5088  0.3344 -0.9776
  503MOL0     C67789   9.498   2.790   2.789 -0.3540 -0.1868 -0.0439
  503MOL0     C67790   9.563   2.870   2.682 -0.3070 -1.0373  0.3528
  503MOL0     C67791   9.494   3.006   2.688 -0.2898 -0.3182 -0.3898
  503MOL0     C67792   9.530   3.114   2.581  0.1355  0.5602  0.2806
  503MOL0     C67793   9.478   3.253   2.614  0.4879  0.0617  0.3326
  503MOL0     O67794   9.522   3.351   2.515 -0.4439  0.2068  0.8949
  503MOL0     C67795   9.651   3.398   2.509  0.3296 -0.8407 -0.1241
  503MOL0     C67796   9.741   3.385   2.617  0.3682 -1.0885 -0.2497
  503MOL0     C67797   9.876   3.414   2.608  0.1065 -0.8655  0.2074
  503MOL0     C67798   9.928   3.482   2.494  0.5148 -0.1347  0.9410
  503MOL0     C67799  10.060   3.531   2.482 -0.8246 -0.2518 -0.0037
  503MOL0     O67800  10.145   3.539   2.585  0.1507 -0.1478 -0.8179
  503MOL0     C67801  10.277   3.571   2.552  0.5157 -0.7710 -0.6426
  503MOL0     C67802  10.370   3.475   2.510 -0.1663 -0.0812  0.7109
  503MOL0     C67803  10.493   3.515   2.472 -0.5917 -1.0586 -0.0237
  503MOL0     C67804  10.537   3.653   2.487  0.3958  0.7965  1.2983
  503MOL0     O67805  10.666   3.696   2.458 -0.1684 -0.1045 -0.0173
  503MOL0     C67806  10.699   3.744   2.327 -0.1243  0.2352  0.6117
  503MOL0     C67807  10.816   3.844   2.344 -0.1141 -0.4823  0.1229
  503MOL0     C67808  10.767   3.981   2.404  0.8687  0.4795 -0.8744
  503MOL0     C67809  10.877   4.075   2.450  0.7530 -0.7107  0.2013
  503MOL0     C67810  10.816   4.216   2.492  0.0480 -0.1644 -0.0854
  503MOL0     C67811  10.916   4.326   2.499 -0.1777 -0.0969 -0.4294
  503MOL0     C67812  11.037   4.302   2.595  0.0416 -0.8749  0.1996
  503MOL0     C67813  11.130   4.414   2.580  0.9866  0.4390  0.8629
  503MOL0    Cl67814  11.254   4.403   2.705  0.3840  0.2270  0.0541
  503MOL0     C67815  10.447   3.744   2.539  0.3195  0.0829  0.7564
  503MOL0     C67816  10.315   3.705   2.572 -0.0866  0.1071  0.3171
  503MOL0     O67817  10.102   3.571   2.369  0.1394 -0.3617  0.2537
  503MOL0     C67818   9.832   3.499   2.386  0.2700 -0.7738 -0.6448
  503MOL0     C67819   9.700   3.453   2.390  0.9642 -0.8476  0.2741
  503MOL0     N67820   9.527   2.810   2.924  0.1532  0.5279 -0.0337
  503MOL0     N67821   9.466   2.725   2.992 -0.2401 -0.1376  1.2090
  503MOL0     C67822   8.313   2.013   2.940  0.8726 -1.3284  0.3875
  503MOL0     C67823   8.207   1.950   2.877 -0.2075  0.9872  0.3058
  503MOL0     C67824   7.859   1.882   2.565  0.3917  0.3377 -0.0724
  503MOL0     C67825   7.803   1.810   2.669  0.3281  0.6486 -0.9852
  503MOL0     C67826   7.677   1.752   2.673  0.0245  0.6687 -0.0091
  503MOL0     C67827   7.599   1.766   2.561 -0.1421 -0.3790  0.3901
  503MOL0     O67828   7.469   1.715   2.562 -0.4682  0.1482  0.4105
  503MOL0     C67829   7.381   1.727   2.441  0.3029 -0.2468 -0.1137
  503MOL0     C67830   7.238   1.685   2.470 -0.5204 -0.2185  0.7230
  503MOL0     C67831   7.146   1.694   2.343  0.9015 -0.8310  0.8402
  503MOL0     C67832   7.033   1.595   2.351  0.0983  0.0666 -0.5872
  503MOL0     C67833   6.973   1.567   2.221 -0.6938  0.5345  0.0373
  503MOL0     C67834   6.936   1.527   2.111 -0.5126 -0.4722  0.6495
  503MOL0     C67835   7.643   1.853   2.456  0.1947  0.2473 -0.1652
  503MOL0     C67836   7.779   1.889   2.454 -0.5403  0.3878 -0.2530
  503MOL0     C67837   7.819   1.973   2.339 -0.1941 -1.1055  0.3939
  503MOL0     H67838   8.147   2.146   2.616  0.9360 -0.6593 -0.3440
  503MOL0     H67839   8.327   2.286   2.754 -0.6681  0.4327  0.3832
  503MOL0     H67840   8.597   2.205   2.807  1.8882 -0.0393  0.3667
  503MOL0     H67841   8.504   2.354   2.869 -2.0810 -0.8271  1.6845
  503MOL0     H67842   8.743   2.179   2.982 -0.6113 -1.2741  1.4412
  503MOL0     H67843   8.632   2.279   3.089 -1.1482 -1.2851 -1.2051
  503MOL0     H67844   8.700   2.479   2.924 -0.5761 -0.6668 -1.2599
  503MOL0     H67845   8.788   2.375   2.837  0.1594  1.3029 -0.5946
  503MOL0     H67846   8.843   2.430   3.133  1.3301 -3.9683  0.9614
  503MOL0     H67847   8.948   2.344   3.020 -2.6535 -1.8843 -4.6582
  503MOL0     H67848   8.932   2.578   2.880 -1.9935  2.4629 -0.5173
  503MOL0     H67849   8.891   2.651   3.033  1.1384  1.2429 -0.9513
  503MOL0     H67850   9.117   2.690   3.018  0.7858  0.2721  2.3971
  503MOL0     H67851   9.104   2.554   3.120  1.5444  2.6554  0.5738
  503MOL0     H67852   9.136   2.549   2.803 -1.1176  2.5109  0.9053
  503MOL0     H67853   9.131   2.405   2.906 -1.6595  1.2470  2.9460
  503MOL0     H67854   9.332   2.484   3.032 -0.8231 -2.7994 -0.0295
  503MOL0     H67855   9.369   2.448   2.864  1.8234 -0.0465  1.6423
  503MOL0     H67856   9.369   2.640   2.682 -0.7137  0.2312 -0.8493
  503MOL0     H67857   9.671   2.875   2.702 -0.4428  0.9603  0.7886
  503MOL0     H67858   9.539   2.834   2.582 -0.6059  2.7190 -1.0873
  503MOL0     H67859   9.392   2.976   2.664 -0.5660 -0.7313  1.1974
  503MOL0     H67860   9.493   3.059   2.783 -1.1115  0.8560 -1.0226
  503MOL0     H67861   9.490   3.066   2.491  3.6299  0.8478 -1.6233
  503MOL0     H67862   9.635   3.129   2.553  0.4093 -1.3019  0.2032
  503MOL0     H67863   9.499   3.273   2.719 -0.9321 -2.1794  1.1149
  503MOL0     H67864   9.371   3.265   2.597  0.7204 -1.2167 -2.8473
  503MOL0     H67865   9.697   3.349   2.710 -1.0988 -0.8440 -0.8244
  503MOL0     H67866   9.946   3.411   2.691  0.2861  1.6136  0.2268
  503MOL0     H67867  10.342   3.371   2.502  2.6184 -0.8010 -1.3076
  503MOL0     H67868  10.569   3.441   2.447  0.6635 -0.0874  0.8476
  503MOL0     H67869  10.731   3.664   2.259  0.7950  1.2524 -0.1934
  503MOL0     H67870  10.609   3.795   2.293  0.0813  0.9929  1.1730
  503MOL0     H67871  10.893   3.796   2.405  0.5321  0.0300 -0.2816
  503MOL0     H67872  10.856   3.860   2.244  2.0641 -2.1238  0.6507
  503MOL0     H67873  10.712   4.028   2.323  0.0838 -1.4293 -1.5101
  503MOL0     H67874  10.697   3.969   2.487  0.1062 -1.7605 -1.7525
  503MOL0     H67875  10.951   4.093   2.372  0.7937 -1.8514 -0.0428
  503MOL0     H67876  10.922   4.031   2.539 -0.8409  0.1637  1.5153
  503MOL0     H67877  10.772   4.211   2.592  0.3523  1.9359  0.2096
  503MOL0     H67878  10.738   4.245   2.422  0.2393 -0.7055 -0.5305
  503MOL0     H67879  10.955   4.351   2.400 -1.6829  1.7072 -0.6296
  503MOL0     H67880  10.859   4.408   2.544 -4.1614 -2.2215 -1.1470
  503MOL0     H67881  11.082   4.203   2.590  1.6124 -0.2805  1.4362
  503MOL0     H67882  10.993   4.313   2.694  1.8531  1.7032  0.8378
  503MOL0     H67883  11.171   4.418   2.478 -2.2535 -1.5053 -0.6590
  503MOL0     H67884  11.084   4.513   2.586  1.3108  0.5828  0.9813
  503MOL0     H67885  10.478   3.846   2.561 -1.2030  1.0511 -1.2177
  503MOL0     H67886  10.250   3.775   2.624 -0.9493  1.8689 -2.8749
  503MOL0     H67887   9.850   3.558   2.297 -1.3226 -0.5365 -0.8296
  503MOL0     H67888   9.646   3.478   2.298  0.0284 -1.7828  0.5505
  503MOL0     H67889   8.364   1.975   3.028 -0.2824 -4.6547 -0.2362
  503MOL0     H67890   8.173   1.866   2.936  3.7338 -0.6672  0.5046
  503MOL0     H67891   7.855   1.787   2.762 -1.4968  1.3577  0.2584
  503MOL0     H67892   7.642   1.691   2.755 -1.0555  0.1806 -0.8067
  503MOL0     H67893   7.418   1.667   2.358 -0.4943 -0.9278  0.0129
  503MOL0     H67894   7.378   1.828   2.398  1.1343  0.6971  1.8576
  503MOL0     H67895   7.203   1.751   2.550  0.5484  1.1257  0.1179
  503MOL0     H67896   7.237   1.580   2.501  0.8581 -0.1543  1.0331
  503MOL0     H67897   7.201   1.673   2.251 -1.0143  0.8817 -0.8100
  503MOL0     H67898   7.111   1.797   2.330  4.4517  0.5257  0.8311
  503MOL0     H67899   7.060   1.499   2.395 -1.9276  0.6754  2.3413
  503MOL0     H67900   6.954   1.632   2.418  1.2154 -0.0661  0.8484
  503MOL0     H67901   6.899   1.486   2.020 -1.7456  0.3014  0.7771
  503MOL0     H67902   7.575   1.877   2.375  1.2463 -1.9132 -1.8022
  503MOL0     H67903   7.726   1.995   2.286  0.3505 -2.3226 -1.1427
  503MOL0     H67904   7.851   2.066   2.388  3.9396 -1.3602 -1.3874
  503MOL0     H67905   7.905   1.936   2.282  3.3740  1.9623  3.2192
  504MOL0     O67906   2.737   3.336   9.436  0.0293 -0.5309 -0.2987
  504MOL0     C67907   2.746   3.340   9.557  0.1748 -0.2847  0.8959
  504MOL0     O67908   2.859   3.355   9.628 -0.5703 -1.3500  0.0176
  504MOL0     C67909   2.976   3.367   9.565 -0.5699 -0.3262 -0.5492
  504MOL0     C67910   3.070   3.464   9.600  0.1304 -1.0937  0.6663
  504MOL0     C67911   3.201   3.476   9.549 -0.1160 -0.0624 -0.7603
  504MOL0     C67912   3.240   3.390   9.454  0.3693  0.5420  1.2873
  504MOL0     O67913   3.369   3.396   9.406 -0.3511  0.1142 -0.9596
  504MOL0     C67914   3.427   3.283   9.343  0.3932  0.1276  0.2155
  504MOL0     C67915   3.569   3.324   9.295 -0.2148 -0.2133 -0.0305
  504MOL0     C67916   3.646   3.217   9.224  0.2302 -0.8285  0.4818
  504MOL0     C67917   3.783   3.259   9.169  0.3734  0.1946 -0.9152
  504MOL0     C67918   3.859   3.131   9.135 -0.2987  0.0849  0.6691
  504MOL0     C67919   4.010   3.163   9.115 -0.5248 -0.1321 -0.4319
  504MOL0     C67920   4.102   3.036   9.121  0.4428 -0.7026 -0.3705
  504MOL0     C67921   4.086   2.945   8.998 -0.5228 -0.5681  0.5456
  504MOL0     N67922   4.210   2.969   8.920 -0.1405 -0.0521  0.1748
  504MOL0     C67923   4.319   2.897   8.928 -0.1358  0.0249 -0.9860
  504MOL0     C67924   4.388   2.929   8.819 -0.9518  1.1421  0.3568
  504MOL0     C67925   4.521   2.866   8.786 -0.0152  0.0188  0.2453
  504MOL0     C67926   4.518   2.811   8.640  0.8833  0.7335 -0.2398
  504MOL0     C67927   4.621   2.700   8.610 -0.6083  0.0232 -0.0100
  504MOL0     C67928   4.754   2.754   8.632 -0.2614 -0.4637  0.7116
  504MOL0     O67929   4.856   2.650   8.651 -0.5414 -0.4700  0.7853
  504MOL0     C67930   4.989   2.691   8.644  0.0558  0.2939  0.7251
  504MOL0     C67931   5.033   2.823   8.654  0.8685  0.3241  0.1624
  504MOL0     C67932   5.166   2.843   8.616 -0.5226 -0.2025  0.9029
  504MOL0     C67933   5.255   2.734   8.571 -0.0836 -0.5007 -0.3391
  504MOL0     C67934   5.387   2.757   8.527 -0.1871  0.5562  0.6191
  504MOL0     O67935   5.434   2.882   8.533 -0.3447  0.5114  0.0636
  504MOL0     C67936   5.563   2.907   8.499 -0.1849 -0.0425  0.3645
  504MOL0     C67937   5.654   2.957   8.595  0.4356  0.8189 -0.4533
  504MOL0     C67938   5.779   2.990   8.559 -0.5605 -0.3207  0.2291
  504MOL0     C67939   5.833   2.959   8.428  0.0481 -1.0294  0.2999
  504MOL0     O67940   5.961   2.964   8.395 -0.4522 -0.7622 -0.0719
  504MOL0     C67941   6.052   2.990   8.503 -0.9078  0.2736 -0.9276
  504MOL0     C67942   6.192   2.981   8.466  0.5139 -0.8499 -1.1077
  504MOL0     C67943   6.229   3.028   8.323 -0.0713 -0.0926  0.2465
  504MOL0     C67944   6.382   3.036   8.301  0.5748  0.1081  0.3336
  504MOL0     C67945   6.417   3.063   8.151  0.2410 -0.6833  0.2849
  504MOL0     C67946   6.570   3.081   8.125  0.5373 -0.6946  0.3104
  504MOL0     C67947   6.623   3.053   7.988 -0.6711 -0.2801  0.2011
  504MOL0     C67948   6.778   3.083   7.959 -0.0060 -0.3722 -0.6560
  504MOL0    Cl67949   6.821   3.070   7.793  0.5923 -0.1073  0.4002
  504MOL0     C67950   5.738   2.932   8.336 -0.2920  0.4572 -0.1434
  504MOL0     C67951   5.607   2.901   8.365  0.2182 -0.2468 -0.4635
  504MOL0     O67952   5.453   2.660   8.491 -0.2598 -0.7358 -0.4820
  504MOL0     C67953   5.203   2.607   8.570 -0.3995  0.0459 -0.2039
  504MOL0     C67954   5.075   2.583   8.605  0.5707 -0.3636  0.9419
  504MOL0     N67955   4.323   3.027   8.752  0.0741  0.7804 -0.1989
  504MOL0     N67956   4.211   3.045   8.811  0.1878  0.3271  0.6001
  504MOL0     C67957   3.140   3.295   9.406  0.3754  0.6037  0.2773
  504MOL0     C67958   3.018   3.285   9.463 -0.3839  0.6630 -0.2682
  504MOL0     C67959   2.624   3.332   9.641 -0.2863  0.5899  0.4438
  504MOL0     C67960   2.535   3.235   9.613 -0.4884  0.3802  1.0780
  504MOL0     C67961   2.418   3.215   9.681  1.0087 -0.2292 -0.2837
  504MOL0     C67962   2.385   3.302   9.796  0.3112 -0.1216  0.3673
  504MOL0     O67963   2.268   3.297   9.861 -0.1451 -0.1804 -0.9353
  504MOL0     C67964   2.194   3.177   9.867  0.2313 -0.0845 -0.2991
  504MOL0     C67965   2.116   3.171   9.996 -0.1957 -0.0795 -0.0664
  504MOL0     C67966   2.083   3.031  10.056 -1.5545  0.5056  0.0608
  504MOL0     C67967   2.048   3.042  10.198 -0.4645 -0.0653 -0.2084
  504MOL0     C67968   2.001   2.907  10.246 -0.3632  0.2186 -0.5385
  504MOL0     C67969   1.976   2.796  10.277  0.2588  0.4048  1.2298
  504MOL0     C67970   2.478   3.404   9.827  0.4939  0.3205  0.2092
  504MOL0     C67971   2.590   3.423   9.743  0.1228  0.3127 -0.5863
  504MOL0     C67972   2.667   3.552   9.760  0.0760 -0.2235 -0.2277
  504MOL0     H67973   3.048   3.526   9.686  0.2673 -1.0624  0.6790
  504MOL0     H67974   3.272   3.548   9.589  3.2848 -2.4498 -2.0709
  504MOL0     H67975   3.436   3.212   9.425 -2.9301  2.0074  2.4182
  504MOL0     H67976   3.364   3.254   9.259 -2.6532  1.4878  1.8757
  504MOL0     H67977   3.630   3.361   9.378  3.6858  1.1929 -3.1952
  504MOL0     H67978   3.571   3.414   9.232 -1.0947  2.1954  3.1275
  504MOL0     H67979   3.585   3.177   9.142 -0.8037  1.3265  0.1198
  504MOL0     H67980   3.656   3.146   9.306 -0.6969  0.1369  1.4713
  504MOL0     H67981   3.776   3.340   9.096  0.8197  1.7347  0.6661
  504MOL0     H67982   3.830   3.316   9.250 -0.6971 -0.8160  0.4631
  504MOL0     H67983   3.831   3.041   9.191 -0.0613 -1.8263 -2.0235
  504MOL0     H67984   3.836   3.112   9.029 -0.2645  1.2966  0.4301
  504MOL0     H67985   4.034   3.227   9.030 -0.4889  2.7048  1.5710
  504MOL0     H67986   4.044   3.234   9.191 -0.7352 -0.3160 -0.1631
  504MOL0     H67987   4.081   2.987   9.217  2.6252 -0.5087  0.2564
  504MOL0     H67988   4.208   3.062   9.129  0.2554 -0.5321  2.8118
  504MOL0     H67989   4.088   2.843   9.036 -2.4132 -1.3803 -1.3544
  504MOL0     H67990   4.002   2.957   8.929  0.1796 -1.0295 -0.4074
  504MOL0     H67991   4.344   2.820   9.000  0.0634  0.5406 -0.5044
  504MOL0     H67992   4.600   2.941   8.786 -0.1037  0.1358 -1.2085
  504MOL0     H67993   4.541   2.798   8.869  3.2568  2.7912  1.9641
  504MOL0     H67994   4.426   2.752   8.631  0.4146  0.9823  2.1206
  504MOL0     H67995   4.521   2.885   8.560 -3.0647  1.3530 -0.0553
  504MOL0     H67996   4.604   2.661   8.509 -3.3417  0.8972  0.0273
  504MOL0     H67997   4.602   2.620   8.682  0.3432  0.1980  0.4542
  504MOL0     H67998   4.752   2.819   8.720  0.1080  2.4258 -1.3050
  504MOL0     H67999   4.785   2.819   8.550 -3.3357 -2.9815 -2.8173
  504MOL0     H68000   4.967   2.903   8.684  1.4618  1.0938 -0.5325
  504MOL0     H68001   5.201   2.945   8.614 -2.2355  0.4115  0.6435
  504MOL0     H68002   5.613   2.952   8.696  1.7564  0.5122  0.0865
  504MOL0     H68003   5.843   3.026   8.639  2.0304 -0.4060 -1.6370
  504MOL0     H68004   6.024   3.094   8.525 -1.3284  0.1353 -0.8031
  504MOL0     H68005   6.031   2.935   8.595 -2.5366  1.7434 -0.3527
  504MOL0     H68006   6.238   3.054   8.533 -1.5560 -0.8295  0.4134
  504MOL0     H68007   6.236   2.883   8.486 -0.4572 -1.1063 -0.1048
  504MOL0     H68008   6.188   2.963   8.246 -3.0154  1.4538  0.3408
  504MOL0     H68009   6.185   3.127   8.309  1.4579  0.4260 -1.2818
  504MOL0     H68010   6.438   2.948   8.332 -0.7202  0.1363  3.1400
  504MOL0     H68011   6.412   3.117   8.368 -2.3832  2.7572 -1.2377
  504MOL0     H68012   6.360   3.153   8.125 -0.6144 -1.1823  0.3626
  504MOL0     H68013   6.374   2.981   8.093  0.0297 -1.3844  1.3843
  504MOL0     H68014   6.603   3.180   8.159 -1.1837  0.8857 -2.2998
  504MOL0     H68015   6.621   3.004   8.185 -1.3590 -2.6677 -0.5039
  504MOL0     H68016   6.567   3.114   7.916 -0.9499  3.6733  3.4164
  504MOL0     H68017   6.619   2.945   7.973  2.0061 -0.3983 -0.1653
  504MOL0     H68018   6.784   3.189   7.988  0.0090  0.2680 -2.8263
  504MOL0     H68019   6.837   3.028   8.033  1.2563  2.6975  0.8272
  504MOL0     H68020   5.775   2.914   8.236 -0.2594  0.2717 -0.0993
  504MOL0     H68021   5.535   2.872   8.290  2.2266  1.2720 -3.1264
  504MOL0     H68022   5.265   2.524   8.538 -2.1000 -2.0815  1.6697
  504MOL0     H68023   5.045   2.479   8.598  2.0429 -1.0505  3.4565
  504MOL0     H68024   3.170   3.231   9.323 -1.2546  2.4553 -1.8536
  504MOL0     H68025   2.946   3.212   9.425 -0.9025  0.4866  1.0059
  504MOL0     H68026   2.558   3.169   9.531  0.9875  2.2243 -0.0721
  504MOL0     H68027   2.347   3.139   9.650 -0.6289  1.8927 -2.0289
  504MOL0     H68028   2.260   3.090   9.861  0.2476 -0.1203  0.3627
  504MOL0     H68029   2.136   3.154   9.776  1.5498 -1.7569 -0.7658
  504MOL0     H68030   2.024   3.230   9.986 -0.4072 -0.5433 -1.0642
  504MOL0     H68031   2.171   3.228  10.070 -2.6830  2.4081  0.0444
  504MOL0     H68032   2.179   2.979  10.058 -0.1562  2.9502  0.6953
  504MOL0     H68033   2.007   2.981   9.994 -1.7076 -0.2627  0.8348
  504MOL0     H68034   2.132   3.076  10.259  1.9781 -3.4269 -1.3943
  504MOL0     H68035   1.970   3.119  10.203 -2.2588 -1.8527  1.0141
  504MOL0     H68036   1.942   2.698  10.306  2.1190 -0.8541 -0.5310
  504MOL0     H68037   2.451   3.459   9.917  0.3434  0.7084 -0.0730
  504MOL0     H68038   2.704   3.589   9.664  2.5802  2.0278  1.4708
  504MOL0     H68039   2.593   3.627   9.791  1.3833  0.7550  0.6400
  504MOL0     H68040   2.752   3.550   9.829 -0.0395 -0.5337 -0.0949
  505MOL0     O68041   6.484  11.243   1.564 -0.1358  0.5901  0.4316
  505MOL0     C68042   6.471  11.329   1.474 -0.8220  0.0090  0.5149
  505MOL0     O68043   6.566  11.415   1.442 -0.0943 -0.1965 -0.5769
  505MOL0     C68044   6.671  11.428   1.530  0.5013 -0.6036 -0.0704
  505MOL0     C68045   6.691  11.545   1.609  0.2651  0.3090 -0.5333
  505MOL0     C68046   6.802  11.554   1.687  0.4377  0.3360 -0.4304
  505MOL0     C68047   6.900  11.456   1.685  0.2758 -0.3203 -0.2966
  505MOL0     O68048   7.023  11.476   1.738 -0.0428  1.0674 -0.7084
  505MOL0     C68049   7.089  11.585   1.682  0.5364  0.3592 -0.3361
  505MOL0     C68050   7.201  11.627   1.761 -1.0418 -0.3302 -0.5871
  505MOL0     C68051   7.208  11.779   1.809  0.4722 -0.6885  0.7132
  505MOL0     C68052   7.305  11.787   1.928  0.2547 -0.5414 -0.0914
  505MOL0     C68053   7.450  11.790   1.879 -0.2888  0.2763 -0.3488
  505MOL0     C68054   7.544  11.802   1.996  0.3014 -0.0206 -0.2725
  505MOL0     C68055   7.686  11.828   1.958 -0.0440  0.3150 -0.2976
  505MOL0     C68056   7.779  11.869   2.068 -0.0842 -0.0743 -0.9652
  505MOL0     N68057   7.918  11.841   2.030 -0.7919 -0.2158  0.2644
  505MOL0     C68058   8.010  11.785   2.107 -0.0616 -0.3401  0.5777
  505MOL0     C68059   8.122  11.768   2.018  0.9296 -0.3012 -0.2779
  505MOL0     C68060   8.244  11.708   2.066 -1.2035 -0.3547 -0.5134
  505MOL0     C68061   8.360  11.716   1.961  0.6961  0.0571  0.0059
  505MOL0     C68062   8.495  11.662   1.998 -0.1230  0.1272  0.7832
  505MOL0     C68063   8.600  11.657   1.889 -0.1346  1.2154  0.2482
  505MOL0     O68064   8.709  11.584   1.953 -0.0619 -0.5215 -0.1869
  505MOL0     C68065   8.811  11.530   1.875 -0.1814 -0.4071  0.1844
  505MOL0     C68066   8.925  11.506   1.950 -0.3952  0.2397 -0.3925
  505MOL0     C68067   9.044  11.472   1.890 -1.4412  0.6297  0.9794
  505MOL0     C68068   9.057  11.459   1.754  0.0639 -0.8920 -0.5959
  505MOL0     C68069   9.180  11.399   1.708 -0.4014  0.2985 -0.4756
  505MOL0     O68070   9.255  11.328   1.793  0.1123  0.1900  0.2374
  505MOL0     C68071   9.377  11.270   1.749  0.7709  0.6953  0.5355
  505MOL0     C68072   9.481  11.334   1.672 -0.0642 -0.6941  0.1113
  505MOL0     C68073   9.594  11.258   1.635 -0.7091 -1.2314 -0.5971
  505MOL0     C68074   9.609  11.123   1.678 -0.3939 -0.5709  0.2931
  505MOL0     O68075   9.715  11.056   1.629 -0.1367  0.3222 -0.1588
  505MOL0     C68076   9.754  10.921   1.678  0.0437  0.3893 -0.1835
  505MOL0     C68077   9.880  10.861   1.608  0.7094 -0.9945 -0.1890
  505MOL0     C68078  10.000  10.915   1.679 -0.2283 -0.7823 -0.3342
  505MOL0     C68079  10.144  10.874   1.613  0.7582  0.6653 -0.6399
  505MOL0     C68080  10.268  10.945   1.676  1.2110 -0.3348  0.0133
  505MOL0     C68081  10.405  10.901   1.622  0.8762 -0.2882 -0.4372
  505MOL0     C68082  10.514  11.004   1.639 -0.1365 -0.1038  0.5004
  505MOL0     C68083  10.644  10.934   1.660 -0.5912 -0.7049 -0.2939
  505MOL0    Cl68084  10.720  10.889   1.504  0.5537  0.0292  0.2903
  505MOL0     C68085   9.509  11.062   1.749 -0.1496 -0.0521  0.3712
  505MOL0     C68086   9.386  11.127   1.780  0.3016  0.6223  0.3653
  505MOL0     O68087   9.193  11.413   1.588 -0.0197 -0.8836 -0.1764
  505MOL0     C68088   8.939  11.486   1.675 -0.4785  0.1143 -0.1709
  505MOL0     C68089   8.821  11.529   1.738  0.0295  0.3119  0.1168
  505MOL0     N68090   8.093  11.822   1.900  0.4503  0.2693  0.1520
  505MOL0     N68091   7.974  11.856   1.903 -0.5662 -0.2650 -0.3150
  505MOL0     C68092   6.883  11.343   1.614  0.0035  0.1225 -0.5953
  505MOL0     C68093   6.771  11.325   1.532 -0.3294 -0.2402  0.1893
  505MOL0     C68094   6.351  11.345   1.392 -0.2205 -0.7846  0.0519
  505MOL0     C68095   6.377  11.409   1.268 -0.1535  0.0069  0.3358
  505MOL0     C68096   6.272  11.424   1.178  0.2907  0.3547 -0.5381
  505MOL0     C68097   6.144  11.389   1.210  0.5530  0.0492 -0.4883
  505MOL0     O68098   6.047  11.431   1.121 -0.0533 -0.3927 -0.9457
  505MOL0     C68099   5.913  11.441   1.163 -0.6782  0.8396 -0.7729
  505MOL0     C68100   5.827  11.485   1.052  0.2586 -0.2024 -0.7357
  505MOL0     C68101   5.835  11.643   1.046 -0.1702  0.1759 -0.1391
  505MOL0     C68102   5.715  11.716   0.985 -0.4315  1.2498 -0.0024
  505MOL0     C68103   5.707  11.673   0.845  0.7213  0.5535 -0.4659
  505MOL0     C68104   5.703  11.622   0.735 -0.5550  0.3346 -0.1473
  505MOL0     C68105   6.121  11.323   1.331  0.8024 -0.3449  0.7548
  505MOL0     C68106   6.222  11.297   1.423  0.0765  0.1078 -0.6849
  505MOL0     C68107   6.180  11.232   1.564 -0.0986 -0.3302 -0.1452
  505MOL0     H68108   6.614  11.621   1.597 -1.3916 -1.0958  0.6693
  505MOL0     H68109   6.808  11.644   1.748  1.9048  0.7762 -1.1725
  505MOL0     H68110   7.117  11.559   1.580 -2.2102  0.2034 -1.1456
  505MOL0     H68111   7.027  11.675   1.675  3.0072  2.1338 -0.3677
  505MOL0     H68112   7.284  11.624   1.690 -1.2029  1.4624 -0.9060
  505MOL0     H68113   7.209  11.556   1.843  0.3377 -0.8644 -1.1476
  505MOL0     H68114   7.103  11.806   1.825  0.1013  0.0238 -2.2172
  505MOL0     H68115   7.246  11.844   1.729 -3.1788  0.0159 -0.6634
  505MOL0     H68116   7.292  11.877   1.989 -0.1172 -0.8629  0.3081
  505MOL0     H68117   7.295  11.703   1.997  1.6232 -1.1809 -0.6313
  505MOL0     H68118   7.460  11.697   1.822 -2.9501  0.6731 -1.6485
  505MOL0     H68119   7.477  11.872   1.812  0.0859  1.7815  1.5742
  505MOL0     H68120   7.512  11.888   2.056 -1.3322 -0.2626 -0.7310
  505MOL0     H68121   7.537  11.714   2.061 -1.0594  0.6933  0.5935
  505MOL0     H68122   7.669  11.907   1.884 -4.4997 -1.6440 -1.7489
  505MOL0     H68123   7.715  11.729   1.921  0.3606  1.1561 -2.4063
  505MOL0     H68124   7.756  11.973   2.091  0.4788  0.3470 -2.2230
  505MOL0     H68125   7.767  11.817   2.163  0.3834  1.8406  0.1824
  505MOL0     H68126   7.995  11.763   2.212 -1.0360  2.1022  1.0172
  505MOL0     H68127   8.274  11.768   2.153  0.2135 -3.6319  1.4544
  505MOL0     H68128   8.237  11.600   2.079 -1.7490 -0.3537 -0.7877
  505MOL0     H68129   8.321  11.665   1.873 -4.9645  0.7957  1.7331
  505MOL0     H68130   8.391  11.820   1.944  4.0262 -0.5259  1.5302
  505MOL0     H68131   8.474  11.558   2.027  0.4849 -0.2806 -0.1914
  505MOL0     H68132   8.538  11.714   2.085 -0.8950  0.5138  0.9381
  505MOL0     H68133   8.626  11.759   1.860 -1.6002  1.9412  1.3834
  505MOL0     H68134   8.549  11.602   1.809  1.3970 -0.1368  0.1418
  505MOL0     H68135   8.933  11.517   2.057 -0.5510 -0.6322 -0.2801
  505MOL0     H68136   9.132  11.458   1.952  0.4227 -0.2943 -1.7222
  505MOL0     H68137   9.470  11.437   1.642 -3.0413 -1.5146 -2.1526
  505MOL0     H68138   9.677  11.311   1.590  0.3546 -2.3570 -0.0167
  505MOL0     H68139   9.762  10.925   1.787  0.2233  2.6406 -0.2333
  505MOL0     H68140   9.669  10.854   1.660 -2.0173  2.5177  1.1427
  505MOL0     H68141   9.879  10.753   1.623 -2.1767 -0.7999  1.8799
  505MOL0     H68142   9.889  10.883   1.501  2.2171 -1.0950 -0.1060
  505MOL0     H68143   9.990  11.024   1.683 -1.9029 -0.7096 -3.4164
  505MOL0     H68144  10.002  10.877   1.782  1.0880  3.1845  1.2960
  505MOL0     H68145  10.144  10.902   1.507 -1.7614  0.0532 -0.8667
  505MOL0     H68146  10.158  10.768   1.637 -2.3475  0.3136 -0.0168
  505MOL0     H68147  10.275  10.933   1.784  0.7583  2.7427  0.4636
  505MOL0     H68148  10.252  11.052   1.658 -1.4094 -0.8612 -1.2321
  505MOL0     H68149  10.410  10.810   1.682 -1.7716 -0.8736 -0.9947
  505MOL0     H68150  10.402  10.871   1.517 -0.0849 -0.9889 -0.2189
  505MOL0     H68151  10.489  11.065   1.727 -1.8392 -0.6332  0.4208
  505MOL0     H68152  10.518  11.070   1.552  2.3015 -1.3148 -0.3816
  505MOL0     H68153  10.721  10.989   1.715  0.2869 -2.1033 -0.0879
  505MOL0     H68154  10.639  10.835   1.704  0.4511 -1.3291 -1.4972
  505MOL0     H68155   9.510  10.954   1.761 -1.0879 -0.1774 -0.5054
  505MOL0     H68156   9.311  11.064   1.827  0.3557  2.1617  2.7144
  505MOL0     H68157   8.948  11.490   1.566  2.5376 -0.0381 -0.0158
  505MOL0     H68158   8.743  11.562   1.671 -0.5663  1.7075  1.4271
  505MOL0     H68159   6.955  11.264   1.632  0.9979  1.0521 -0.3140
  505MOL0     H68160   6.748  11.231   1.482 -0.9776 -0.4988  0.9469
  505MOL0     H68161   6.476  11.429   1.228 -0.1131 -1.5860 -0.4410
  505MOL0     H68162   6.289  11.467   1.080  1.4581 -1.8390 -1.3714
  505MOL0     H68163   5.910  11.512   1.246 -0.6938  2.4630 -2.1124
  505MOL0     H68164   5.876  11.345   1.201  0.6677  1.8867  3.8731
  505MOL0     H68165   5.722  11.466   1.074 -0.2444  1.0870 -1.8628
  505MOL0     H68166   5.855  11.449   0.953  1.5398  1.2594 -0.9565
  505MOL0     H68167   5.929  11.655   0.990 -0.1933 -0.1361 -0.2476
  505MOL0     H68168   5.848  11.684   1.146 -1.9235 -1.1963  0.7002
  505MOL0     H68169   5.621  11.687   1.031  0.4393 -0.8295  0.6052
  505MOL0     H68170   5.729  11.824   0.989  2.1952  1.0465 -1.4955
  505MOL0     H68171   5.708  11.577   0.638 -0.0129 -1.1936  0.5604
  505MOL0     H68172   6.020  11.294   1.356  0.4294 -0.0259 -0.3279
  505MOL0     H68173   6.248  11.166   1.618  1.2038  1.4121  0.4547
  505MOL0     H68174   6.143  11.309   1.633 -0.6697 -0.7547  0.0316
  505MOL0     H68175   6.094  11.169   1.538  2.3124 -2.5373 -3.6374
  506MOL0     O68176   2.281   5.639   9.839 -0.3341 -0.1293 -0.1599
  506MOL0     C68177   2.230   5.729   9.903 -0.9145 -0.7025 -0.4964
  506MOL0     O68178   2.297   5.840   9.952 -0.6846 -0.4439  0.8666
  506MOL0     C68179   2.429   5.869   9.917  0.1860 -0.7803 -0.5167
  506MOL0     C68180   2.541   5.819   9.985 -0.0995  0.5529  0.0597
  506MOL0     C68181   2.673   5.849   9.932  0.0739  1.0465 -0.0149
  506MOL0     C68182   2.697   5.921   9.817  0.4063  0.0899  0.5973
  506MOL0     O68183   2.825   5.932   9.759 -0.7296  0.4418 -0.4491
  506MOL0     C68184   2.844   6.024   9.648  0.3435 -0.2543 -0.8075
  506MOL0     C68185   2.993   6.059   9.621  0.1730  0.7471 -1.0591
  506MOL0     C68186   3.009   6.155   9.496 -0.1870 -0.7753  0.2006
  506MOL0     C68187   3.150   6.150   9.421 -0.3211  0.1899 -0.3697
  506MOL0     C68188   3.187   6.278   9.353  0.0458 -0.0954 -0.6164
  506MOL0     C68189   3.302   6.246   9.255  0.2671  0.6392 -0.4565
  506MOL0     C68190   3.337   6.354   9.163  0.3583  0.2295 -0.0380
  506MOL0     C68191   3.406   6.468   9.247 -0.5362  0.4569  0.3050
  506MOL0     N68192   3.410   6.584   9.160  0.2116  0.1794  0.3631
  506MOL0     C68193   3.501   6.613   9.064 -0.7500  0.4027 -0.0623
  506MOL0     C68194   3.468   6.741   9.017  0.1283  0.0402 -0.6378
  506MOL0     C68195   3.530   6.818   8.904 -0.0747 -0.9825 -0.5253
  506MOL0     C68196   3.502   6.966   8.928 -0.3104  0.5611 -0.3166
  506MOL0     C68197   3.582   7.046   8.822 -0.8466 -0.0214 -0.2781
  506MOL0     C68198   3.588   7.200   8.850  1.0752  0.5194 -0.0291
  506MOL0     O68199   3.634   7.246   8.731 -0.4875  0.2808  0.0296
  506MOL0     C68200   3.764   7.264   8.688 -0.3069  0.3813 -1.0014
  506MOL0     C68201   3.874   7.221   8.756  0.8497 -0.4727 -1.4388
  506MOL0     C68202   4.006   7.264   8.723  1.0403 -0.5756 -0.7388
  506MOL0     C68203   4.020   7.367   8.623  0.3589  0.5762  0.1236
  506MOL0     C68204   4.150   7.420   8.585 -0.7381  0.4095 -0.3120
  506MOL0     O68205   4.258   7.359   8.641 -0.0608 -0.7849  0.3483
  506MOL0     C68206   4.394   7.395   8.623 -0.9634  0.0872 -0.7328
  506MOL0     C68207   4.485   7.314   8.690  0.4146 -0.6142  0.4335
  506MOL0     C68208   4.623   7.336   8.679  0.2453  0.1366 -0.0215
  506MOL0     C68209   4.672   7.449   8.599  0.4741  0.2141  0.6567
  506MOL0     O68210   4.800   7.493   8.603 -0.3506 -0.4222  0.6224
  506MOL0     C68211   4.905   7.408   8.656  0.2591 -0.5975 -0.0528
  506MOL0     C68212   4.973   7.460   8.786 -0.3733 -0.2826  0.3303
  506MOL0     C68213   5.087   7.371   8.826 -0.4873  0.8248  0.1466
  506MOL0     C68214   5.217   7.441   8.800  0.1035 -0.2749  0.4713
  506MOL0     C68215   5.337   7.349   8.823 -0.0019  0.3297  0.0253
  506MOL0     C68216   5.468   7.440   8.832  0.2628  0.2054 -0.3554
  506MOL0     C68217   5.583   7.374   8.767  0.7044  0.3240  0.4549
  506MOL0     C68218   5.620   7.247   8.848  0.5060  0.0214  0.5356
  506MOL0    Cl68219   5.792   7.198   8.809  0.2182 -0.0800  0.4396
  506MOL0     C68220   4.579   7.530   8.527 -0.8249  0.4752 -0.8114
  506MOL0     C68221   4.443   7.502   8.546 -0.4670  0.3756  0.6006
  506MOL0     O68222   4.160   7.519   8.515 -0.3647  0.1693 -0.2168
  506MOL0     C68223   3.911   7.406   8.551  0.0638  0.0528 -0.4839
  506MOL0     C68224   3.784   7.361   8.589  0.5705  0.1681  0.2111
  506MOL0     N68225   3.360   6.784   9.093  1.0076  0.4299 -0.0347
  506MOL0     N68226   3.321   6.688   9.166 -0.1484  0.4205  0.0747
  506MOL0     C68227   2.579   5.969   9.754 -0.2729  0.4775 -0.0650
  506MOL0     C68228   2.449   5.957   9.811 -0.4590  0.1449  0.2728
  506MOL0     C68229   2.086   5.725   9.940  0.0757  0.5178 -0.0508
  506MOL0     C68230   2.029   5.850   9.984  0.3088  0.3778 -0.8917
  506MOL0     C68231   1.891   5.857  10.015  0.3947 -0.5372  0.1500
  506MOL0     C68232   1.810   5.751  10.017 -0.1591 -0.0873 -0.5825
  506MOL0     O68233   1.679   5.766  10.055 -0.6969 -0.3450  0.5726
  506MOL0     C68234   1.600   5.835   9.957 -0.4637  0.6456 -0.7020
  506MOL0     C68235   1.460   5.851  10.018  0.0815  0.4590  0.3398
  506MOL0     C68236   1.370   5.938   9.922 -0.1185 -0.1490 -1.3866
  506MOL0     C68237   1.220   5.933   9.990 -0.5731 -0.4806  0.9982
  506MOL0     C68238   1.123   6.012   9.909  0.5900  0.2476 -0.6685
  506MOL0     C68239   1.041   6.087   9.858 -0.1196 -0.1582 -0.0257
  506MOL0     C68240   1.863   5.621   9.993  1.4616 -0.0782  0.4364
  506MOL0     C68241   1.996   5.611   9.943  0.7206 -0.0359 -0.3302
  506MOL0     C68242   2.056   5.468   9.929 -0.2747 -0.2041  0.1561
  506MOL0     H68243   2.540   5.748  10.067  2.1659 -0.7575 -0.9566
  506MOL0     H68244   2.757   5.803   9.982 -1.3354 -0.0844  1.4315
  506MOL0     H68245   2.801   5.977   9.559 -1.7718 -1.1636  0.6225
  506MOL0     H68246   2.790   6.116   9.672  0.8060  0.0592 -0.9503
  506MOL0     H68247   3.028   5.959   9.595  1.9130  0.3642  2.1768
  506MOL0     H68248   3.051   6.088   9.710 -0.6636  1.7780 -0.8296
  506MOL0     H68249   3.003   6.257   9.535 -0.5252 -1.4906  2.0888
  506MOL0     H68250   2.922   6.156   9.429 -0.4251  0.5482  0.5076
  506MOL0     H68251   3.220   6.121   9.500 -1.1934 -0.1734  0.2881
  506MOL0     H68252   3.141   6.071   9.346 -2.3866  3.3643 -3.7986
  506MOL0     H68253   3.092   6.300   9.303 -0.6291 -1.6371 -0.0527
  506MOL0     H68254   3.218   6.360   9.419  4.0550 -1.0830 -0.9785
  506MOL0     H68255   3.387   6.223   9.320 -0.4943  1.0571  0.7183
  506MOL0     H68256   3.280   6.155   9.198 -2.7082  0.8790  0.1455
  506MOL0     H68257   3.250   6.403   9.118  1.3609  1.1174 -1.0981
  506MOL0     H68258   3.406   6.325   9.082 -0.9373 -0.8344 -0.8074
  506MOL0     H68259   3.341   6.486   9.333 -0.6894  0.3719  0.2055
  506MOL0     H68260   3.503   6.439   9.289 -1.9773 -2.0315  2.1531
  506MOL0     H68261   3.597   6.571   9.036 -0.6516  0.4492  0.2011
  506MOL0     H68262   3.638   6.801   8.901 -0.2020 -1.9166 -0.2214
  506MOL0     H68263   3.479   6.785   8.813 -2.6069 -0.1833  0.5245
  506MOL0     H68264   3.394   6.973   8.913 -0.5478 -1.6297  0.1418
  506MOL0     H68265   3.532   6.998   9.028 -0.3257  0.0987 -0.1614
  506MOL0     H68266   3.541   7.037   8.721  0.8202  1.0471 -1.1041
  506MOL0     H68267   3.683   7.007   8.817 -0.3527  0.7991  2.1443
  506MOL0     H68268   3.656   7.226   8.932  1.9625  3.5359 -1.5812
  506MOL0     H68269   3.490   7.242   8.874  0.2020 -2.8335  3.0795
  506MOL0     H68270   3.855   7.154   8.839 -0.8779  2.1559  0.4467
  506MOL0     H68271   4.098   7.232   8.771  0.3714 -0.6091  0.5731
  506MOL0     H68272   4.445   7.230   8.746 -0.5670 -1.8650 -1.9706
  506MOL0     H68273   4.691   7.269   8.732 -4.2338 -2.6885  2.8162
  506MOL0     H68274   4.873   7.305   8.672 -0.8499 -0.2365  0.0996
  506MOL0     H68275   4.979   7.400   8.575 -1.1039  1.2845 -1.5741
  506MOL0     H68276   5.005   7.561   8.759  1.6601 -0.5114  1.5910
  506MOL0     H68277   4.902   7.462   8.870  0.4643  3.5017  1.1413
  506MOL0     H68278   5.091   7.337   8.930 -0.2610  2.3490  0.6693
  506MOL0     H68279   5.076   7.283   8.762  0.1609  0.5505  0.4107
  506MOL0     H68280   5.237   7.528   8.863  0.8854 -2.4281  3.4029
  506MOL0     H68281   5.230   7.472   8.696  1.2114 -2.5750 -0.1309
  506MOL0     H68282   5.341   7.278   8.740  2.7615 -1.2016  1.3109
  506MOL0     H68283   5.332   7.296   8.919  2.3673 -0.7871 -0.4031
  506MOL0     H68284   5.444   7.531   8.776 -0.2232  1.2445  1.4804
  506MOL0     H68285   5.499   7.463   8.934 -0.6106  3.0943 -0.6529
  506MOL0     H68286   5.667   7.443   8.757 -0.0134  0.9880 -1.2553
  506MOL0     H68287   5.557   7.344   8.666 -0.1111  1.8592  0.1905
  506MOL0     H68288   5.620   7.274   8.954  1.9071 -1.2879  0.9082
  506MOL0     H68289   5.567   7.157   8.819 -2.2520  0.9750  2.2229
  506MOL0     H68290   4.616   7.609   8.462  0.7725  0.2577 -0.2228
  506MOL0     H68291   4.372   7.567   8.494 -0.2820  1.7111  1.9445
  506MOL0     H68292   3.913   7.482   8.473 -0.5188 -0.5331 -1.0816
  506MOL0     H68293   3.711   7.411   8.527  2.2220  0.8999 -1.2657
  506MOL0     H68294   2.582   5.998   9.649  0.6993 -2.0119 -0.7898
  506MOL0     H68295   2.368   5.997   9.751  0.3207  1.5953  0.1579
  506MOL0     H68296   2.089   5.940   9.991 -0.0479  0.6051 -0.7500
  506MOL0     H68297   1.854   5.955  10.040  0.3607 -0.4543 -0.2246
  506MOL0     H68298   1.586   5.769   9.871 -1.8692 -1.0166  0.7508
  506MOL0     H68299   1.651   5.929   9.931  3.0146 -0.5282  1.2689
  506MOL0     H68300   1.458   5.912  10.109 -1.3586  0.2948  0.4403
  506MOL0     H68301   1.414   5.752  10.024  2.0716 -0.4769  0.7562
  506MOL0     H68302   1.375   5.896   9.821  0.7009  0.8086 -1.7596
  506MOL0     H68303   1.416   6.036   9.932 -0.9298  0.0412  1.0928
  506MOL0     H68304   1.173   5.834   9.991  1.1370 -1.3342  0.7654
  506MOL0     H68305   1.219   5.975  10.090 -1.8544  0.8396  0.4694
  506MOL0     H68306   0.959   6.137   9.810 -0.8172 -1.1495  0.0901
  506MOL0     H68307   1.804   5.531  10.007  1.7133 -0.0107  2.1393
  506MOL0     H68308   2.132   5.453  10.006 -0.9550 -0.1748  0.8518
  506MOL0     H68309   1.978   5.391   9.932 -0.2009 -0.2556  0.7482
  506MOL0     H68310   2.113   5.463   9.836  0.6133  2.8063  0.4251
  507MOL0     O68311   2.472   5.543   6.128 -0.0010  0.2564  0.4826
  507MOL0     C68312   2.402   5.570   6.225  0.5217 -0.4768  0.3452
  507MOL0     O68313   2.443   5.605   6.352 -0.7078  0.7796  0.1530
  507MOL0     C68314   2.562   5.570   6.401 -0.0970 -0.2377 -0.4375
  507MOL0     C68315   2.683   5.617   6.339 -0.0021  0.1834  0.5958
  507MOL0     C68316   2.801   5.605   6.416  0.6698  0.1573 -0.9228
  507MOL0     C68317   2.807   5.532   6.536  0.1283 -0.2985  0.0956
  507MOL0     O68318   2.931   5.534   6.593 -0.4666  0.2060 -0.0875
  507MOL0     C68319   2.955   5.457   6.711 -0.6080  0.7654 -0.0596
  507MOL0     C68320   3.106   5.455   6.724  0.1325 -0.2860 -0.4599
  507MOL0     C68321   3.166   5.366   6.630 -0.1087 -0.0065  0.7101
  507MOL0     C68322   3.308   5.341   6.638  0.8332 -0.1804 -0.7424
  507MOL0     C68323   3.354   5.232   6.550  0.3984 -0.5412  0.3907
  507MOL0     C68324   3.497   5.235   6.496  0.2902  0.2486 -0.6156
  507MOL0     C68325   3.519   5.109   6.403  0.4558  0.9713 -0.2841
  507MOL0     C68326   3.561   5.151   6.262  0.2696  0.2276 -0.0134
  507MOL0     N68327   3.708   5.184   6.254  0.2900  0.6915  0.6458
  507MOL0     C68328   3.805   5.088   6.222 -0.0691 -0.2249 -0.4865
  507MOL0     C68329   3.916   5.155   6.249 -0.2649  0.1526  0.0281
  507MOL0     C68330   4.049   5.076   6.236  0.3799 -0.5393 -0.2691
  507MOL0     C68331   4.181   5.163   6.224  0.4753  0.1341 -0.2192
  507MOL0     C68332   4.299   5.090   6.159 -0.9122 -0.3497  0.6009
  507MOL0     C68333   4.437   5.156   6.155  0.0407  0.5777  0.2619
  507MOL0     O68334   4.458   5.212   6.286 -0.1414  0.2562  0.5316
  507MOL0     C68335   4.541   5.314   6.286 -0.5426 -0.9566 -0.5662
  507MOL0     C68336   4.644   5.339   6.199 -0.2825  0.4485  0.6509
  507MOL0     C68337   4.730   5.447   6.213 -0.7230  1.0114 -0.2406
  507MOL0     C68338   4.735   5.522   6.341  0.2212 -0.9153  0.7419
  507MOL0     C68339   4.845   5.621   6.368  0.0438  0.5925 -0.2392
  507MOL0     O68340   4.831   5.676   6.498 -0.0538 -0.8107  0.0988
  507MOL0     C68341   4.928   5.763   6.538  0.3422 -1.1393  0.1786
  507MOL0     C68342   5.064   5.735   6.517  1.1760  0.4448 -0.4431
  507MOL0     C68343   5.160   5.814   6.577 -0.1705  0.2416 -0.6382
  507MOL0     C68344   5.130   5.926   6.651  0.2617  0.0036  0.0138
  507MOL0     O68345   5.223   5.998   6.720  0.0016 -0.4211 -0.1709
  507MOL0     C68346   5.358   5.950   6.718 -0.4186  1.0535  0.1780
  507MOL0     C68347   5.426   6.020   6.843  0.0813  0.6095  0.3515
  507MOL0     C68348   5.573   5.999   6.823  0.2925 -0.0519 -0.0627
  507MOL0     C68349   5.656   6.056   6.937  0.2617 -0.5649  0.1151
  507MOL0     C68350   5.814   6.036   6.924  0.5410  0.6853 -0.2439
  507MOL0     C68351   5.892   6.065   7.056 -0.1976 -0.2513 -0.1349
  507MOL0     C68352   6.046   6.075   7.038 -0.1372  0.1540  0.1378
  507MOL0     C68353   6.117   5.945   7.014 -0.1915  0.5841  0.3172
  507MOL0    Cl68354   6.279   5.951   7.083 -0.2438 -0.0407 -0.5980
  507MOL0     C68355   4.993   5.964   6.655  0.1719  0.0377 -0.2210
  507MOL0     C68356   4.891   5.879   6.606  0.0977 -0.0210 -0.0026
  507MOL0     O68357   4.922   5.649   6.277  0.0266 -0.4378  0.0128
  507MOL0     C68358   4.622   5.498   6.425  0.2286 -0.8119 -0.1910
  507MOL0     C68359   4.530   5.394   6.405  0.2268 -0.9984 -0.2564
  507MOL0     N68360   3.888   5.289   6.280 -0.6843  0.5407 -0.1617
  507MOL0     N68361   3.769   5.298   6.280 -0.6340  0.3810 -0.0825
  507MOL0     C68362   2.702   5.465   6.581  1.1409 -0.1358 -0.0734
  507MOL0     C68363   2.572   5.489   6.521 -0.3281 -1.2578  0.9306
  507MOL0     C68364   2.251   5.561   6.202 -0.1860  0.4383  0.3920
  507MOL0     C68365   2.162   5.536   6.311  0.0869  1.1087 -0.0442
  507MOL0     C68366   2.020   5.524   6.284 -0.1785 -0.1610 -0.0386
  507MOL0     C68367   1.970   5.548   6.157 -1.0635  0.1093 -0.1553
  507MOL0     O68368   1.840   5.552   6.119  0.2774  0.0649  0.3142
  507MOL0     C68369   1.744   5.518   6.220 -0.1384 -0.1838 -0.1151
  507MOL0     C68370   1.604   5.528   6.151  0.6189  0.6218 -0.3878
  507MOL0     C68371   1.492   5.489   6.255  0.1508  0.0415 -0.4454
  507MOL0     C68372   1.360   5.440   6.194  0.4371 -0.0392  0.1941
  507MOL0     C68373   1.291   5.552   6.124  0.4616  0.3221  0.0923
  507MOL0     C68374   1.252   5.631   6.042 -0.2018 -0.5130  0.2932
  507MOL0     C68375   2.056   5.570   6.052  0.2651  0.3464 -0.3794
  507MOL0     C68376   2.190   5.580   6.072  0.4117 -0.1751 -0.2666
  507MOL0     C68377   2.262   5.645   5.958  0.3902  0.7827 -0.1903
  507MOL0     H68378   2.671   5.664   6.241  0.6219 -2.2393 -0.7352
  507MOL0     H68379   2.897   5.636   6.377  1.9948 -3.1552 -0.6391
  507MOL0     H68380   2.906   5.505   6.796 -2.5618 -1.0524 -0.0658
  507MOL0     H68381   2.916   5.355   6.708  1.1604  0.0868 -1.3610
  507MOL0     H68382   3.134   5.441   6.829  0.7594  3.2996 -0.0219
  507MOL0     H68383   3.144   5.555   6.702 -0.3466  0.0138  0.0641
  507MOL0     H68384   3.159   5.414   6.532  1.6728  0.3298  0.7272
  507MOL0     H68385   3.115   5.269   6.632 -3.3003  1.4896 -0.9781
  507MOL0     H68386   3.363   5.431   6.610  1.8205 -0.9848 -1.4594
  507MOL0     H68387   3.337   5.313   6.740  1.3213 -1.8432 -1.3129
  507MOL0     H68388   3.328   5.132   6.586  1.7545 -0.2353  2.4378
  507MOL0     H68389   3.303   5.247   6.455  1.3223 -2.8486 -0.5525
  507MOL0     H68390   3.500   5.327   6.438 -0.7534  2.1309  2.0823
  507MOL0     H68391   3.567   5.231   6.580 -1.3063  0.3995  0.7855
  507MOL0     H68392   3.429   5.049   6.389 -1.3294  2.8860  2.0868
  507MOL0     H68393   3.597   5.051   6.453  0.5238  1.3210  0.0188
  507MOL0     H68394   3.545   5.065   6.196  3.0673  0.7795 -1.5904
  507MOL0     H68395   3.500   5.235   6.229  1.7694  1.7912  1.0147
  507MOL0     H68396   3.777   4.987   6.192 -0.0512 -0.3035 -0.2444
  507MOL0     H68397   4.057   5.000   6.314 -2.2365 -0.5809  0.0221
  507MOL0     H68398   4.049   5.027   6.138  0.6744 -0.5806 -0.2502
  507MOL0     H68399   4.151   5.257   6.176 -0.3069  0.4830  0.9046
  507MOL0     H68400   4.206   5.187   6.328 -1.0021 -2.9285  0.9259
  507MOL0     H68401   4.271   5.053   6.059  1.8376 -3.4063  0.7902
  507MOL0     H68402   4.306   4.995   6.213  2.6241 -0.0160  0.9759
  507MOL0     H68403   4.450   5.228   6.073 -1.8681  0.8090  0.1117
  507MOL0     H68404   4.511   5.078   6.138  0.9241  1.0918  1.5770
  507MOL0     H68405   4.650   5.287   6.104 -2.9806  1.9466 -0.4474
  507MOL0     H68406   4.800   5.477   6.135 -1.0435  0.2292 -0.8455
  507MOL0     H68407   5.099   5.651   6.458 -0.3838  0.0467 -0.8359
  507MOL0     H68408   5.257   5.769   6.563 -1.7828 -3.9583  0.3195
  507MOL0     H68409   5.370   5.842   6.734  0.5241  0.9329 -1.2169
  507MOL0     H68410   5.413   5.988   6.631 -0.1072 -0.7255 -0.4420
  507MOL0     H68411   5.406   6.128   6.845  0.6775  0.7296  0.0849
  507MOL0     H68412   5.401   5.964   6.933  2.4037 -2.9730 -0.9970
  507MOL0     H68413   5.604   5.895   6.816 -0.0182 -0.1106 -0.6128
  507MOL0     H68414   5.610   6.065   6.744  0.6252  0.0673  0.1918
  507MOL0     H68415   5.617   6.030   7.036  0.2681  0.2637  0.3442
  507MOL0     H68416   5.637   6.164   6.934  1.2957 -0.3627  0.2872
  507MOL0     H68417   5.852   6.106   6.850  1.1547  0.3051 -0.2936
  507MOL0     H68418   5.827   5.931   6.894  1.1240  1.7440 -4.2388
  507MOL0     H68419   5.860   6.163   7.092  2.6350 -0.2325  2.8369
  507MOL0     H68420   5.866   5.987   7.128 -0.2080 -0.4888 -0.3921
  507MOL0     H68421   6.077   6.118   7.133 -4.8787  0.1191  1.9392
  507MOL0     H68422   6.070   6.139   6.952 -0.3182 -0.8608 -0.6975
  507MOL0     H68423   6.061   5.863   7.060 -2.3684  1.3376 -0.8418
  507MOL0     H68424   6.121   5.929   6.906  1.1555  2.9484 -0.0486
  507MOL0     H68425   4.951   6.054   6.699  1.1790  0.5457 -0.2857
  507MOL0     H68426   4.787   5.902   6.624  0.2429  0.1166  0.7231
  507MOL0     H68427   4.620   5.561   6.514  1.4625  1.0360 -1.3826
  507MOL0     H68428   4.454   5.375   6.480  1.6902  0.7264  1.7930
  507MOL0     H68429   2.714   5.393   6.661  1.7193 -0.3861 -0.3804
  507MOL0     H68430   2.477   5.457   6.563 -1.5890 -0.1317 -0.9236
  507MOL0     H68431   2.183   5.490   6.407 -0.7114  2.0692  0.6114
  507MOL0     H68432   1.954   5.490   6.363  0.7388 -1.3012  0.2512
  507MOL0     H68433   1.742   5.581   6.309  0.2150 -0.9110  0.4230
  507MOL0     H68434   1.760   5.416   6.258  0.4837 -1.3905 -3.3553
  507MOL0     H68435   1.599   5.467   6.060  0.1910  2.2903 -1.5255
  507MOL0     H68436   1.594   5.635   6.129 -1.3549  0.7870  1.0128
  507MOL0     H68437   1.478   5.571   6.326  0.5374  1.1103 -1.5561
  507MOL0     H68438   1.534   5.409   6.316 -0.5128  0.9417  1.2318
  507MOL0     H68439   1.379   5.355   6.129  1.0829 -1.1198  1.7511
  507MOL0     H68440   1.285   5.411   6.268 -1.7301  0.7130 -1.6074
  507MOL0     H68441   1.242   5.690   5.953 -0.5001  0.1860  0.7800
  507MOL0     H68442   2.016   5.585   5.952 -1.1118 -3.7558 -0.6441
  507MOL0     H68443   2.204   5.711   5.893 -1.0371 -2.4427 -2.4762
  507MOL0     H68444   2.353   5.701   5.982  2.3625 -1.9083 -0.9367
  507MOL0     H68445   2.293   5.563   5.893  4.5118  1.7327  0.3095
  508MOL0     O68446   3.761   4.830   4.711  0.5623 -0.1812 -0.5884
  508MOL0     C68447   3.722   4.941   4.741 -0.5063  0.6762 -0.3726
  508MOL0     O68448   3.794   5.050   4.776 -0.2012 -0.1692 -0.9100
  508MOL0     C68449   3.923   5.036   4.827  0.3092  0.3096  0.7131
  508MOL0     C68450   3.939   4.953   4.938 -0.3722  0.3520 -1.2844
  508MOL0     C68451   4.061   4.946   5.001  0.7612 -0.3786 -0.4789
  508MOL0     C68452   4.169   5.019   4.955  0.3796 -0.7089  0.2226
  508MOL0     O68453   4.268   5.018   5.041 -0.4812  0.1000  0.0436
  508MOL0     C68454   4.365   5.121   5.033  0.3246  0.7169  0.4529
  508MOL0     C68455   4.472   5.099   5.131  0.8466 -0.1116  1.2285
  508MOL0     C68456   4.528   5.226   5.202  0.9176  0.9559 -0.0691
  508MOL0     C68457   4.677   5.238   5.228  0.6114  0.4183  0.0331
  508MOL0     C68458   4.768   5.208   5.111  0.7606  0.3351  0.0435
  508MOL0     C68459   4.723   5.300   4.998  0.9755 -0.8476 -0.0044
  508MOL0     C68460   4.828   5.334   4.888 -0.0978 -0.6554 -0.0910
  508MOL0     C68461   4.949   5.420   4.939  0.2462 -0.0270  0.0555
  508MOL0     N68462   5.057   5.415   4.843  0.0820 -0.1458  0.8417
  508MOL0     C68463   5.182   5.365   4.867  0.2481  0.6351  0.6333
  508MOL0     C68464   5.247   5.405   4.755  0.5483 -0.2285 -0.6075
  508MOL0     C68465   5.399   5.388   4.735 -0.2623  0.1513  0.2617
  508MOL0     C68466   5.476   5.464   4.843 -0.7904 -0.3418 -0.2529
  508MOL0     C68467   5.468   5.614   4.833  0.0532 -0.4032 -0.0580
  508MOL0     C68468   5.507   5.693   4.957 -0.4311  0.0757  0.6376
  508MOL0     O68469   5.642   5.656   4.963  0.1452  0.0305  0.8147
  508MOL0     C68470   5.738   5.716   5.038 -0.1234  0.1706  0.2343
  508MOL0     C68471   5.702   5.802   5.150 -0.7149 -0.1598  1.2601
  508MOL0     C68472   5.795   5.864   5.233 -0.6702  1.0057  0.0613
  508MOL0     C68473   5.937   5.837   5.212  0.4453 -0.5985 -0.3323
  508MOL0     C68474   6.031   5.898   5.307 -0.1512 -0.0034  0.2855
  508MOL0     O68475   6.163   5.868   5.284  0.2766 -0.4507  0.1555
  508MOL0     C68476   6.266   5.910   5.373  0.7562  0.0716 -0.8283
  508MOL0     C68477   6.389   5.960   5.324  0.0372 -0.1429  0.0192
  508MOL0     C68478   6.488   5.997   5.420 -0.0956 -0.3573 -0.0043
  508MOL0     C68479   6.468   5.980   5.563 -0.9937  0.2224 -0.6217
  508MOL0     O68480   6.582   6.010   5.635 -0.4542  0.1056  0.3274
  508MOL0     C68481   6.581   6.003   5.779 -0.2773  0.1524  0.1289
  508MOL0     C68482   6.715   6.048   5.828  0.6986 -0.0834  0.1596
  508MOL0     C68483   6.715   6.056   5.982  1.0046  0.0914 -0.4752
  508MOL0     C68484   6.835   6.139   6.030 -0.7522 -0.2422 -0.8096
  508MOL0     C68485   6.842   6.138   6.183 -0.0420 -0.2267  0.0836
  508MOL0     C68486   6.979   6.201   6.217  0.7229 -0.1571  0.8891
  508MOL0     C68487   7.004   6.187   6.371  0.5817  0.6533  0.2359
  508MOL0     C68488   7.158   6.187   6.405  0.1094  0.5497  0.1972
  508MOL0    Cl68489   7.189   6.209   6.582  0.2436 -0.4184 -0.2068
  508MOL0     C68490   6.340   5.941   5.607  0.0108  0.2391 -0.0682
  508MOL0     C68491   6.247   5.899   5.516 -0.1053  0.1872 -1.0672
  508MOL0     O68492   5.988   5.973   5.391  0.7265 -0.6902 -0.0247
  508MOL0     C68493   5.974   5.761   5.106 -0.4311 -0.9455 -0.5644
  508MOL0     C68494   5.879   5.696   5.020 -0.1802 -0.3296 -0.1071
  508MOL0     N68495   5.162   5.459   4.658 -0.1669  0.0883  0.3773
  508MOL0     N68496   5.046   5.457   4.710  0.0915  0.0323 -0.7692
  508MOL0     C68497   4.148   5.108   4.842 -0.6242 -0.5394 -0.4109
  508MOL0     C68498   4.025   5.124   4.790 -0.4136  0.7643  1.0384
  508MOL0     C68499   3.576   4.963   4.728  0.4066 -0.1618  0.6903
  508MOL0     C68500   3.514   4.962   4.604 -0.6363 -0.3091 -0.9738
  508MOL0     C68501   3.390   5.014   4.573 -0.9100 -0.7715  0.6228
  508MOL0     C68502   3.316   5.069   4.674  0.2428  0.2745 -0.3191
  508MOL0     O68503   3.189   5.117   4.663 -0.3589  0.1670  0.3985
  508MOL0     C68504   3.109   5.074   4.549  0.1033 -0.3734  0.0966
  508MOL0     C68505   2.964   5.090   4.594 -0.0371 -0.1077 -0.1878
  508MOL0     C68506   2.919   4.997   4.711 -0.6860  0.0853 -0.2343
  508MOL0     C68507   2.847   5.081   4.825  0.0648  0.5295 -0.6978
  508MOL0     C68508   2.712   5.095   4.771  0.2186 -0.4790 -0.4135
  508MOL0     C68509   2.600   5.112   4.730  0.3176  1.1098  0.6596
  508MOL0     C68510   3.373   5.079   4.800 -0.5176  0.3496  0.3720
  508MOL0     C68511   3.500   5.026   4.831  0.3537  0.0704 -0.5459
  508MOL0     C68512   3.541   5.038   4.971  0.2153 -0.3583 -0.6960
  508MOL0     H68513   3.853   4.904   4.981  0.5283 -0.7602 -0.7133
  508MOL0     H68514   4.059   4.911   5.104  1.3264  2.4392  0.5855
  508MOL0     H68515   4.403   5.138   4.932  0.7733  0.0894  0.5122
  508MOL0     H68516   4.318   5.216   5.061 -1.5657  0.4419 -1.5588
  508MOL0     H68517   4.553   5.048   5.079  1.0279  1.3538 -0.0084
  508MOL0     H68518   4.426   5.034   5.206  0.5111 -0.5614  0.6346
  508MOL0     H68519   4.471   5.245   5.293 -0.8672 -1.3439 -0.6157
  508MOL0     H68520   4.511   5.312   5.137 -2.4714 -0.1636 -0.8698
  508MOL0     H68521   4.693   5.337   5.273 -0.0814  1.3114 -1.5687
  508MOL0     H68522   4.704   5.166   5.305 -0.1063 -1.2915 -1.2585
  508MOL0     H68523   4.873   5.236   5.121  1.2195 -1.0882 -0.4453
  508MOL0     H68524   4.744   5.104   5.085 -2.3492  1.2577 -1.3162
  508MOL0     H68525   4.635   5.258   4.948  2.4769 -0.7924 -2.9120
  508MOL0     H68526   4.679   5.389   5.043 -3.4716 -1.6874 -2.1285
  508MOL0     H68527   4.772   5.400   4.820  0.1891  0.8533  1.0669
  508MOL0     H68528   4.867   5.248   4.834  1.9909  0.7207 -0.8869
  508MOL0     H68529   4.915   5.523   4.952 -3.9223 -0.4753 -4.5770
  508MOL0     H68530   4.993   5.388   5.034 -0.1511  1.0188  0.6022
  508MOL0     H68531   5.235   5.318   4.950  1.1870  3.5938  1.8388
  508MOL0     H68532   5.422   5.282   4.741 -4.3834 -0.9368 -0.0451
  508MOL0     H68533   5.419   5.419   4.632  1.8128 -2.1089 -0.1084
  508MOL0     H68534   5.439   5.431   4.940  2.5618  1.3091  1.7665
  508MOL0     H68535   5.582   5.437   4.837 -1.0289 -2.6018  3.1908
  508MOL0     H68536   5.364   5.643   4.814  0.5839  1.1747 -0.6939
  508MOL0     H68537   5.523   5.632   4.740 -3.2564 -0.6236 -2.2433
  508MOL0     H68538   5.456   5.655   5.047 -3.5941  0.1740 -0.9639
  508MOL0     H68539   5.504   5.801   4.938  0.3688 -0.2480 -1.5215
  508MOL0     H68540   5.601   5.821   5.184 -0.9242 -0.1512  0.6461
  508MOL0     H68541   5.748   5.905   5.321  1.7882  2.2290  0.8943
  508MOL0     H68542   6.394   5.970   5.216  2.4875 -1.2698 -0.0329
  508MOL0     H68543   6.582   6.026   5.374 -1.6024  4.6497 -0.5104
  508MOL0     H68544   6.507   6.078   5.808 -0.1562 -0.0011  0.8562
  508MOL0     H68545   6.551   5.904   5.816 -0.5668  0.2513  0.1581
  508MOL0     H68546   6.795   5.989   5.782 -0.4849 -0.6980 -1.1631
  508MOL0     H68547   6.735   6.150   5.792 -1.1665 -0.3973 -2.0203
  508MOL0     H68548   6.627   6.101   6.028  1.8043  0.3552  0.8691
  508MOL0     H68549   6.727   5.957   6.027 -2.8193  0.1736  1.0821
  508MOL0     H68550   6.822   6.242   5.994 -0.8746  0.4686  1.1309
  508MOL0     H68551   6.926   6.094   5.990 -0.0607 -1.9561  2.3679
  508MOL0     H68552   6.848   6.035   6.220  2.6406 -0.2012 -0.1152
  508MOL0     H68553   6.760   6.190   6.235 -0.3263  1.7891 -2.1972
  508MOL0     H68554   7.058   6.155   6.157  1.2782  1.1645  0.5718
  508MOL0     H68555   6.984   6.305   6.183  1.7047 -0.0055  1.4673
  508MOL0     H68556   6.971   6.091   6.413  2.9239  0.4111  1.6884
  508MOL0     H68557   6.947   6.266   6.421 -1.3340  0.8024 -2.0021
  508MOL0     H68558   7.202   6.090   6.378 -2.5505 -0.8132  0.3157
  508MOL0     H68559   7.202   6.268   6.346  2.7363 -0.9691 -0.0969
  508MOL0     H68560   6.328   5.934   5.715  2.2765  0.7979  0.2712
  508MOL0     H68561   6.160   5.854   5.564 -0.8997  3.6971  1.1529
  508MOL0     H68562   6.079   5.735   5.092 -0.4736 -0.4447 -1.9511
  508MOL0     H68563   5.903   5.625   4.941  0.1466  1.0240 -1.2693
  508MOL0     H68564   4.226   5.172   4.801  0.0071 -1.5837 -0.8639
  508MOL0     H68565   4.006   5.201   4.716  0.8738 -0.3510 -0.5410
  508MOL0     H68566   3.568   4.924   4.518  0.6283  0.8386 -0.7143
  508MOL0     H68567   3.350   5.015   4.472  1.2041  0.6020 -0.2727
  508MOL0     H68568   3.127   4.972   4.517 -2.0961 -1.4342  1.9274
  508MOL0     H68569   3.139   5.144   4.470  1.2922  1.6520  2.2015
  508MOL0     H68570   2.897   5.075   4.508  1.1599  2.8896 -1.7724
  508MOL0     H68571   2.948   5.195   4.617 -2.0303 -0.0216 -1.6826
  508MOL0     H68572   2.999   4.936   4.751  1.3280 -0.1016 -4.0498
  508MOL0     H68573   2.858   4.914   4.674  0.4465 -2.9757  4.0811
  508MOL0     H68574   2.845   5.027   4.920 -3.3609 -1.4959 -1.7325
  508MOL0     H68575   2.897   5.178   4.835  0.1133  0.5494 -1.0867
  508MOL0     H68576   2.499   5.120   4.696 -0.1343 -1.0592  1.3185
  508MOL0     H68577   3.303   5.101   4.880 -3.4116 -3.5108 -0.7741
  508MOL0     H68578   3.450   5.057   5.029 -0.8311 -2.1067 -1.6911
  508MOL0     H68579   3.593   4.947   5.001  1.5261  0.6254  0.1479
  508MOL0     H68580   3.622   5.109   4.991 -0.5764  0.6091 -0.8321
  509MOL0     O68581   8.338   0.866   3.964 -0.0163  0.7140  0.6027
  509MOL0     C68582   8.418   0.772   3.982 -1.0359 -0.9797 -0.7643
  509MOL0     O68583   8.384   0.648   4.020 -0.3871  1.0177  0.1390
  509MOL0     C68584   8.250   0.625   4.000 -0.2600  0.6821 -0.1108
  509MOL0     C68585   8.151   0.676   4.081  0.3554  0.2844  0.5913
  509MOL0     C68586   8.017   0.654   4.053 -0.1832 -0.2011  0.4221
  509MOL0     C68587   7.986   0.593   3.929  0.4416 -0.1784 -0.2680
  509MOL0     O68588   7.859   0.580   3.880  0.2756 -0.9572  0.1884
  509MOL0     C68589   7.747   0.613   3.970  0.0690  1.3213  0.0706
  509MOL0     C68590   7.613   0.566   3.906 -0.9348  0.2760  0.1680
  509MOL0     C68591   7.507   0.555   4.007  0.1488  0.6350  0.1323
  509MOL0     C68592   7.370   0.576   3.948  0.6194  0.2803  0.7197
  509MOL0     C68593   7.263   0.570   4.055  1.4308 -0.2520  0.3191
  509MOL0     C68594   7.127   0.588   3.981  0.0319  0.0920 -0.7052
  509MOL0     C68595   7.000   0.552   4.064 -0.3904  0.4212 -0.0555
  509MOL0     C68596   6.866   0.578   3.994 -0.4374  0.5900  0.8394
  509MOL0     N68597   6.828   0.473   3.903 -0.1543 -0.5519 -0.5018
  509MOL0     C68598   6.830   0.339   3.932 -0.0238 -1.4536 -0.4791
  509MOL0     C68599   6.813   0.275   3.813  0.1620 -0.7073 -0.1105
  509MOL0     C68600   6.832   0.129   3.790 -0.4882 -0.1455  0.3081
  509MOL0     C68601   6.968   0.088   3.845  0.2262  0.2238  0.6222
  509MOL0     C68602   7.101   0.135   3.772 -1.7267 -0.2941  0.0346
  509MOL0     C68603   7.224   0.051   3.802  0.3230  0.4786 -0.3294
  509MOL0     O68604   7.231  -0.056   3.707 -0.2648  0.0591  0.5281
  509MOL0     C68605   7.334  -0.148   3.727 -0.2830 -0.3251 -0.2186
  509MOL0     C68606   7.344  -0.252   3.639  0.2079 -0.1377  0.8162
  509MOL0     C68607   7.435  -0.350   3.645 -0.2252  0.0659  0.1001
  509MOL0     C68608   7.536  -0.350   3.749 -0.2905  0.4755  1.2454
  509MOL0     C68609   7.656  -0.439   3.745 -0.1862  1.7187 -0.7011
  509MOL0     O68610   7.678  -0.500   3.621 -0.1040 -0.3447 -0.0578
  509MOL0     C68611   7.785  -0.577   3.590  0.1436  0.7874  0.5983
  509MOL0     C68612   7.915  -0.544   3.626  0.2829 -0.1066  0.0821
  509MOL0     C68613   8.022  -0.628   3.593 -0.6491 -0.5599  0.3136
  509MOL0     C68614   7.992  -0.733   3.501  0.3220 -0.6062  0.2659
  509MOL0     O68615   8.088  -0.808   3.444  0.3549  0.3978  1.0151
  509MOL0     C68616   8.221  -0.745   3.437 -0.1558  1.0608  0.1259
  509MOL0     C68617   8.298  -0.808   3.328  0.3388 -0.4414 -0.4978
  509MOL0     C68618   8.428  -0.732   3.318  0.2630 -0.1265  0.1800
  509MOL0     C68619   8.519  -0.780   3.205 -0.1947 -1.1841  0.7377
  509MOL0     C68620   8.646  -0.685   3.201  0.3518 -0.2846  0.0188
  509MOL0     C68621   8.759  -0.728   3.103  0.3008  0.1847  1.1566
  509MOL0     C68622   8.717  -0.691   2.959  0.4197 -0.3859 -0.5812
  509MOL0     C68623   8.824  -0.731   2.858  0.7127  0.0151 -0.1148
  509MOL0    Cl68624   8.756  -0.710   2.684 -0.1687 -0.3343  0.5068
  509MOL0     C68625   7.861  -0.742   3.445  0.0327  0.7165 -0.3788
  509MOL0     C68626   7.757  -0.669   3.497  0.1824 -0.0720 -0.9374
  509MOL0     O68627   7.741  -0.432   3.828 -0.4000 -0.5444 -0.1384
  509MOL0     C68628   7.524  -0.245   3.838  0.3549  0.0433  0.1355
  509MOL0     C68629   7.430  -0.139   3.826  0.2377  0.2460  0.0011
  509MOL0     N68630   6.794   0.368   3.709  0.2011 -0.7113 -0.1790
  509MOL0     N68631   6.806   0.489   3.768 -0.3579  0.3121  0.0559
  509MOL0     C68632   8.087   0.551   3.846 -0.4615 -0.3316 -0.6197
  509MOL0     C68633   8.221   0.564   3.879  0.2210 -0.3222  0.3233
  509MOL0     C68634   8.563   0.807   3.990 -0.0469 -0.3145 -0.0561
  509MOL0     C68635   8.652   0.702   4.003  0.4350 -0.0986  0.2263
  509MOL0     C68636   8.786   0.721   3.999  0.0166 -0.6765  0.6791
  509MOL0     C68637   8.845   0.845   3.994  0.1095  0.0354  0.7006
  509MOL0     O68638   8.980   0.871   4.005 -0.6624  0.1564  0.1173
  509MOL0     C68639   9.081   0.796   3.926  0.9306  0.5732 -0.3802
  509MOL0     C68640   9.152   0.892   3.834  0.0977  0.0788 -0.4010
  509MOL0     C68641   9.275   0.829   3.768 -0.4395 -0.2007  0.0541
  509MOL0     C68642   9.364   0.931   3.705  0.3120  0.3077 -0.3994
  509MOL0     C68643   9.416   1.029   3.800 -1.0572 -0.0612  0.2044
  509MOL0     C68644   9.468   1.119   3.871  0.0810 -0.5390 -0.3783
  509MOL0     C68645   8.754   0.952   3.978  0.6324 -0.9785 -0.2114
  509MOL0     C68646   8.612   0.940   3.978 -0.0145 -0.5153  0.1653
  509MOL0     C68647   8.533   1.063   3.981  0.5161  0.1003  0.2987
  509MOL0     H68648   8.180   0.741   4.163 -0.4479 -0.6819  1.6721
  509MOL0     H68649   7.939   0.699   4.114  2.4765  0.5286  3.5538
  509MOL0     H68650   7.764   0.552   4.060  0.0922 -0.1051 -0.8667
  509MOL0     H68651   7.732   0.719   3.992 -1.8731  1.0353  0.3373
  509MOL0     H68652   7.632   0.461   3.882  0.6357  0.1920  1.5720
  509MOL0     H68653   7.603   0.630   3.819  3.5736  0.0733 -0.7772
  509MOL0     H68654   7.510   0.633   4.083  0.5318  0.0946  0.6770
  509MOL0     H68655   7.517   0.460   4.059  3.5765  0.0773 -1.2760
  509MOL0     H68656   7.362   0.675   3.901  0.0471  0.2583  0.7605
  509MOL0     H68657   7.353   0.501   3.870  0.4875  0.2504  0.7772
  509MOL0     H68658   7.255   0.484   4.123  2.2487  1.0994  2.2223
  509MOL0     H68659   7.271   0.652   4.128 -0.1842  2.0076 -1.8971
  509MOL0     H68660   7.116   0.693   3.955  1.1852  1.2553  2.9196
  509MOL0     H68661   7.121   0.524   3.892  1.8728  1.1715 -1.6630
  509MOL0     H68662   7.006   0.617   4.152  1.8289  1.2838 -0.7783
  509MOL0     H68663   6.993   0.447   4.095 -2.1493  0.3999 -0.4213
  509MOL0     H68664   6.791   0.606   4.069 -0.6333  1.7182  0.2437
  509MOL0     H68665   6.874   0.671   3.937 -3.0322  0.1106 -0.4751
  509MOL0     H68666   6.849   0.290   4.027  0.7735 -3.4719 -1.6272
  509MOL0     H68667   6.753   0.078   3.844  0.3037 -0.2296  1.4156
  509MOL0     H68668   6.828   0.108   3.683 -3.4249  0.9048  0.1290
  509MOL0     H68669   6.973   0.105   3.953  0.7654 -4.2879  1.5173
  509MOL0     H68670   6.960  -0.019   3.823 -1.4942  0.4018  0.2701
  509MOL0     H68671   7.116   0.232   3.819 -2.9038  1.9259 -3.7942
  509MOL0     H68672   7.089   0.150   3.665 -0.6001 -1.8345 -0.3512
  509MOL0     H68673   7.202   0.005   3.899 -2.9563 -0.9156 -1.5796
  509MOL0     H68674   7.316   0.110   3.799  0.9036 -0.2450  1.4977
  509MOL0     H68675   7.278  -0.265   3.554  0.4703 -0.8522  0.7128
  509MOL0     H68676   7.432  -0.431   3.573  0.2888  0.7472 -0.6950
  509MOL0     H68677   7.940  -0.456   3.685 -1.2223  0.5708 -0.2457
  509MOL0     H68678   8.120  -0.604   3.633  0.4385  0.5687 -2.7272
  509MOL0     H68679   8.230  -0.638   3.415  1.5015  0.7556 -0.8705
  509MOL0     H68680   8.274  -0.768   3.529  2.0994  1.2123 -1.0661
  509MOL0     H68681   8.319  -0.913   3.348 -1.8878 -0.7963  0.3098
  509MOL0     H68682   8.253  -0.796   3.229  0.7336  1.2798 -0.4988
  509MOL0     H68683   8.405  -0.626   3.309  0.4788  0.0294  1.3292
  509MOL0     H68684   8.493  -0.748   3.404 -1.7945  1.4734  2.1698
  509MOL0     H68685   8.472  -0.789   3.107  3.6997  0.4789 -1.4993
  509MOL0     H68686   8.553  -0.880   3.233  0.3290 -1.2793 -0.2084
  509MOL0     H68687   8.699  -0.687   3.297  2.8580 -1.8548 -1.2862
  509MOL0     H68688   8.614  -0.583   3.177 -1.1714 -0.9268 -0.8279
  509MOL0     H68689   8.855  -0.681   3.128 -0.1139  0.1791  2.9186
  509MOL0     H68690   8.774  -0.835   3.114 -1.0992 -0.0613  0.8494
  509MOL0     H68691   8.704  -0.583   2.968  0.2747 -0.5305  1.5617
  509MOL0     H68692   8.618  -0.731   2.933  0.4302  0.8937 -2.7839
  509MOL0     H68693   8.904  -0.656   2.865 -1.1586  2.1241 -0.0890
  509MOL0     H68694   8.856  -0.836   2.862  1.8188  0.1967 -2.3549
  509MOL0     H68695   7.855  -0.802   3.355  0.1756  1.8335 -1.1561
  509MOL0     H68696   7.661  -0.681   3.447 -1.6714  1.7934  1.9066
  509MOL0     H68697   7.601  -0.237   3.915 -1.5217  0.0059  2.1173
  509MOL0     H68698   7.433  -0.063   3.903 -0.4926 -1.6860  2.0438
  509MOL0     H68699   8.052   0.510   3.752 -0.6492 -0.6423 -0.4149
  509MOL0     H68700   8.296   0.543   3.803 -1.8333  0.0990 -1.9530
  509MOL0     H68701   8.624   0.597   4.010  1.5980 -0.3830  0.7462
  509MOL0     H68702   8.840   0.627   3.999 -0.9076 -1.2491 -0.6894
  509MOL0     H68703   9.031   0.721   3.864 -0.1857  1.9340 -1.1776
  509MOL0     H68704   9.148   0.749   3.998 -0.8659 -0.8271  0.4435
  509MOL0     H68705   9.175   0.972   3.905 -0.4082  0.7119 -0.9300
  509MOL0     H68706   9.088   0.935   3.756  0.4903 -0.3738 -0.9851
  509MOL0     H68707   9.248   0.755   3.692  1.1812 -2.5219  1.5918
  509MOL0     H68708   9.337   0.776   3.841  0.7150 -0.2861 -0.9403
  509MOL0     H68709   9.457   0.887   3.666  0.8197  1.0861 -0.0664
  509MOL0     H68710   9.314   0.968   3.615 -1.6767  0.3197  0.6494
  509MOL0     H68711   9.498   1.201   3.933  0.6996 -1.6021  0.7686
  509MOL0     H68712   8.776   1.058   3.969  2.0070 -1.2550 -0.3096
  509MOL0     H68713   8.452   1.058   4.054  1.2484 -2.4165  1.0291
  509MOL0     H68714   8.583   1.157   4.007 -1.0262  1.0531 -0.0618
  509MOL0     H68715   8.479   1.073   3.887 -3.8403 -2.2874  2.2618
  510MOL0     O68716   7.859  11.268   7.283 -0.0865  0.5222  0.5722
  510MOL0     C68717   7.778  11.214   7.363 -0.1304  0.1298  0.1531
  510MOL0     O68718   7.800  11.101   7.440  0.2175  0.3100  0.3266
  510MOL0     C68719   7.926  11.042   7.427 -0.4296 -0.2113  0.0663
  510MOL0     C68720   7.941  10.937   7.350  0.4840  0.2554 -0.0370
  510MOL0     C68721   8.066  10.876   7.344  0.7880  0.0549  0.7198
  510MOL0     C68722   8.180  10.928   7.417  0.1571  0.3528  0.4107
  510MOL0     O68723   8.300  10.870   7.421  0.1463 -0.3521 -0.4933
  510MOL0     C68724   8.313  10.733   7.366  0.4127  0.2425  0.0466
  510MOL0     C68725   8.444  10.658   7.379  0.9211 -0.3243  0.5960
  510MOL0     C68726   8.556  10.748   7.343  0.2698  0.3139  0.4931
  510MOL0     C68727   8.679  10.709   7.423 -0.1433 -0.2841  0.5277
  510MOL0     C68728   8.812  10.781   7.387 -1.0135 -0.2127  0.2971
  510MOL0     C68729   8.921  10.739   7.478 -0.5652  0.5503 -0.0787
  510MOL0     C68730   9.059  10.773   7.417  0.6541 -0.5161  0.4885
  510MOL0     C68731   9.178  10.722   7.486 -0.4765 -0.3949 -0.4520
  510MOL0     N68732   9.309  10.766   7.426  0.3826  0.7013  0.9390
  510MOL0     C68733   9.353  10.893   7.403 -0.8310  0.8938  0.7724
  510MOL0     C68734   9.479  10.870   7.350 -0.5923  0.9301 -0.0105
  510MOL0     C68735   9.578  10.970   7.302  0.3362  0.5148 -0.0505
  510MOL0     C68736   9.543  11.044   7.172 -0.1622 -0.0588  0.0780
  510MOL0     C68737   9.664  11.134   7.124  0.2505 -0.2279 -0.1132
  510MOL0     C68738   9.707  11.243   7.217  0.4630  0.0917 -0.1564
  510MOL0     O68739   9.797  11.339   7.148 -0.1472  0.3277  0.5314
  510MOL0     C68740   9.930  11.314   7.163  0.8403  0.3972  0.5011
  510MOL0     C68741   9.994  11.301   7.040  0.4346  0.2501 -0.4837
  510MOL0     C68742  10.133  11.296   7.040 -1.0078 -0.2879  0.2221
  510MOL0     C68743  10.207  11.298   7.157 -0.9956 -0.0949 -0.2570
  510MOL0     C68744  10.353  11.296   7.153  0.1884  0.1029 -0.1051
  510MOL0     O68745  10.399  11.273   7.027 -0.0837  0.2408  0.1280
  510MOL0     C68746  10.542  11.275   7.010 -0.1444 -0.2220  0.3326
  510MOL0     C68747  10.616  11.392   7.052  0.1552  0.6316  0.5008
  510MOL0     C68748  10.754  11.397   7.024 -0.0959 -0.4897 -0.1661
  510MOL0     C68749  10.819  11.294   6.956 -0.2782  0.9389 -0.7152
  510MOL0     O68750  10.956  11.294   6.919  0.0382 -0.0592 -0.1016
  510MOL0     C68751  11.006  11.417   6.859  0.2938  0.1463  0.2479
  510MOL0     C68752  11.131  11.409   6.774 -0.5174 -0.3975  0.2870
  510MOL0     C68753  11.241  11.339   6.838 -0.2005 -0.0540  0.0562
  510MOL0     C68754  11.372  11.330   6.746 -0.1851 -0.3362 -0.6496
  510MOL0     C68755  11.404  11.185   6.711 -0.8354 -0.2019  0.4381
  510MOL0     C68756  11.541  11.158   6.639 -0.3122  0.4007  0.2849
  510MOL0     C68757  11.545  11.013   6.597  0.8870 -0.6098 -0.2536
  510MOL0     C68758  11.686  10.971   6.543 -0.3007 -0.1252 -0.5133
  510MOL0    Cl68759  11.808  10.985   6.671 -0.1201 -0.0028 -0.3401
  510MOL0     C68760  10.751  11.181   6.923  0.0595  0.0752  0.4640
  510MOL0     C68761  10.612  11.174   6.942 -0.2930 -0.3480 -0.0633
  510MOL0     O68762  10.419  11.308   7.253  0.1565 -0.9463  0.5202
  510MOL0     C68763  10.138  11.318   7.270  0.2368  0.7306 -0.9184
  510MOL0     C68764  10.000  11.324   7.284 -0.0620 -0.3129  0.5240
  510MOL0     N68765   9.502  10.742   7.349  0.1699 -0.5679 -0.6419
  510MOL0     N68766   9.403  10.674   7.400  0.1381  0.2722  0.6707
  510MOL0     C68767   8.164  11.037   7.494  0.5059 -0.5201 -0.3573
  510MOL0     C68768   8.032  11.088   7.498 -0.0301  0.2644  0.2814
  510MOL0     C68769   7.661  11.293   7.399 -0.5745 -0.6711 -0.7552
  510MOL0     C68770   7.595  11.264   7.521 -0.2856  0.0230 -0.9476
  510MOL0     C68771   7.479  11.329   7.558 -0.2122  0.8349 -0.4721
  510MOL0     C68772   7.433  11.437   7.486 -0.2589  0.4577  0.3181
  510MOL0     O68773   7.329  11.506   7.539  0.0815 -0.2940  0.1243
  510MOL0     C68774   7.299  11.636   7.484 -0.5358 -0.7729  0.5369
  510MOL0     C68775   7.165  11.693   7.535 -0.3902  0.1542 -0.5505
  510MOL0     C68776   7.060  11.641   7.430  0.3305  0.1335  0.7553
  510MOL0     C68777   6.917  11.674   7.473  0.0188  0.2844 -1.2039
  510MOL0     C68778   6.885  11.655   7.614  0.3833 -0.7933 -0.4006
  510MOL0     C68779   6.870  11.629   7.733 -1.1136  0.4438  0.3111
  510MOL0     C68780   7.503  11.476   7.374 -1.0250  0.5424 -0.8412
  510MOL0     C68781   7.612  11.408   7.329 -0.5630  0.5489  0.4616
  510MOL0     C68782   7.667  11.448   7.198  0.5963 -0.9322  1.3137
  510MOL0     H68783   7.854  10.915   7.289 -0.2642  0.7864  0.8248
  510MOL0     H68784   8.071  10.790   7.277  0.5343  0.5600  0.0427
  510MOL0     H68785   8.241  10.672   7.421  1.1698  0.2817  1.1106
  510MOL0     H68786   8.270  10.722   7.266 -0.5034  0.1038  0.4439
  510MOL0     H68787   8.449  10.579   7.303  0.8737 -0.2329  0.4972
  510MOL0     H68788   8.469  10.626   7.480  2.0113  1.9274  1.1030
  510MOL0     H68789   8.537  10.855   7.351 -1.2430  0.2467 -1.4522
  510MOL0     H68790   8.577  10.730   7.237 -3.4236  0.8990 -0.4618
  510MOL0     H68791   8.650  10.743   7.523 -1.6386 -2.6658  0.9875
  510MOL0     H68792   8.679  10.600   7.426 -2.3495 -0.3343  0.0828
  510MOL0     H68793   8.839  10.760   7.283 -2.9216 -0.7598 -0.1397
  510MOL0     H68794   8.795  10.888   7.402 -0.9810 -0.0750 -0.5887
  510MOL0     H68795   8.920  10.791   7.574  0.9209  1.1544 -0.3574
  510MOL0     H68796   8.923  10.630   7.474 -1.4088  0.5607 -3.9069
  510MOL0     H68797   9.073  10.881   7.411 -1.2092 -0.1797  1.4902
  510MOL0     H68798   9.064  10.740   7.312  0.2423  0.2571  0.2173
  510MOL0     H68799   9.180  10.753   7.591  1.9093 -1.1829 -0.1842
  510MOL0     H68800   9.187  10.613   7.483 -0.6455 -0.5617  2.4535
  510MOL0     H68801   9.302  10.987   7.423 -1.1112  0.5808  1.5814
  510MOL0     H68802   9.577  11.042   7.384 -4.1317  1.0049 -0.3055
  510MOL0     H68803   9.675  10.921   7.287 -1.0082 -2.5137  0.2981
  510MOL0     H68804   9.517  10.974   7.093 -1.2778 -1.8710  1.9547
  510MOL0     H68805   9.461  11.114   7.192 -0.2452 -0.0008 -0.4630
  510MOL0     H68806   9.618  11.184   7.038  0.9902 -0.9114 -0.9150
  510MOL0     H68807   9.760  11.092   7.092  3.1299  2.8854  3.4799
  510MOL0     H68808   9.755  11.199   7.304 -1.5996  1.0845  1.5809
  510MOL0     H68809   9.623  11.300   7.259  2.7170  2.2334  1.7532
  510MOL0     H68810   9.948  11.282   6.944  2.8236  0.1355 -1.7006
  510MOL0     H68811  10.184  11.281   6.945 -0.0377  2.8199  0.1513
  510MOL0     H68812  10.568  11.477   7.098  1.6019  1.1408  1.1351
  510MOL0     H68813  10.814  11.486   7.040 -2.7019  1.5735 -1.1123
  510MOL0     H68814  10.930  11.460   6.793  1.1202 -1.0750 -1.5857
  510MOL0     H68815  11.044  11.481   6.940  3.2750  1.8204 -2.2591
  510MOL0     H68816  11.107  11.360   6.679 -2.5127  0.0680  0.5013
  510MOL0     H68817  11.166  11.509   6.747 -2.5500 -0.2922 -2.5365
  510MOL0     H68818  11.278  11.379   6.932 -0.9416  0.0821  0.2923
  510MOL0     H68819  11.201  11.241   6.864 -1.6324  0.4698 -0.1260
  510MOL0     H68820  11.455  11.363   6.811 -1.5515  3.1349 -0.4754
  510MOL0     H68821  11.370  11.373   6.646 -0.0742  2.0931  0.3305
  510MOL0     H68822  11.323  11.162   6.641 -0.1532  2.2157 -1.2623
  510MOL0     H68823  11.400  11.122   6.800  2.5875  0.0628  0.9169
  510MOL0     H68824  11.570  11.223   6.555  2.0628 -2.0685 -0.9653
  510MOL0     H68825  11.626  11.181   6.705 -0.8534 -0.0257  1.1413
  510MOL0     H68826  11.465  10.997   6.524 -0.6138 -0.2484  1.2201
  510MOL0     H68827  11.524  10.958   6.690  1.4999 -0.3199  0.0640
  510MOL0     H68828  11.681  10.866   6.510  0.2522  0.4283 -2.5124
  510MOL0     H68829  11.717  11.029   6.455  0.6219 -1.7634 -1.3263
  510MOL0     H68830  10.804  11.095   6.886 -0.6440 -1.3029  2.4603
  510MOL0     H68831  10.567  11.081   6.908 -0.3049  0.4578 -2.4858
  510MOL0     H68832  10.192  11.316   7.364 -1.1134 -1.9622 -0.0679
  510MOL0     H68833   9.949  11.311   7.378 -1.4377 -1.5290 -0.3459
  510MOL0     H68834   8.223  11.090   7.568 -0.5267 -1.9321  1.5447
  510MOL0     H68835   8.011  11.174   7.561 -2.6021 -1.7275  2.3684
  510MOL0     H68836   7.627  11.181   7.583 -2.1826 -0.6580 -0.7996
  510MOL0     H68837   7.436  11.282   7.646  1.6476 -1.5086 -0.6854
  510MOL0     H68838   7.298  11.626   7.375  1.2847 -0.2920  0.4593
  510MOL0     H68839   7.377  11.705   7.514 -1.5228  0.5444  0.1512
  510MOL0     H68840   7.162  11.801   7.521 -0.4992 -0.1385 -3.2156
  510MOL0     H68841   7.157  11.667   7.641  3.0080  0.6426 -0.0662
  510MOL0     H68842   7.071  11.533   7.415  1.0193  0.1472  1.1098
  510MOL0     H68843   7.079  11.682   7.331  2.3349 -1.1248  0.5442
  510MOL0     H68844   6.890  11.780   7.459  0.2811  0.4197 -0.7072
  510MOL0     H68845   6.844  11.622   7.411 -2.9685  2.7531 -0.0354
  510MOL0     H68846   6.854  11.615   7.838  2.9591 -0.3006  0.9878
  510MOL0     H68847   7.480  11.569   7.324  1.1712  1.0038 -1.1124
  510MOL0     H68848   7.705  11.363   7.140 -0.4018  0.4204 -1.5064
  510MOL0     H68849   7.586  11.488   7.136  1.7597  0.5144  0.6569
  510MOL0     H68850   7.749  11.519   7.213  1.1039 -1.2916  0.3242
  511MOL0     O68851   5.376   9.835   7.081  0.2371  0.3045  0.2335
  511MOL0     C68852   5.268   9.772   7.066  0.0650 -0.1700 -0.1413
  511MOL0     O68853   5.246   9.669   6.978  0.0305 -0.0440  0.3324
  511MOL0     C68854   5.360   9.593   6.955  0.0988  0.4523 -0.9207
  511MOL0     C68855   5.429   9.594   6.829  0.3719  0.2432 -1.0101
  511MOL0     C68856   5.536   9.504   6.816  0.7831 -0.1994  0.7466
  511MOL0     C68857   5.575   9.422   6.920 -0.3016  0.0361 -0.2765
  511MOL0     O68858   5.680   9.338   6.899  0.1507  0.1656 -0.4863
  511MOL0     C68859   5.796   9.369   6.974 -0.6365  0.3627 -0.3221
  511MOL0     C68860   5.812   9.249   7.073 -0.7031  0.1228  0.0740
  511MOL0     C68861   5.949   9.262   7.151  0.3520 -0.1441  0.0285
  511MOL0     C68862   5.988   9.133   7.209 -0.3517  0.5660 -0.3631
  511MOL0     C68863   6.119   9.138   7.300 -0.0795 -0.6431  0.0368
  511MOL0     C68864   6.172   8.998   7.343 -0.4755  0.0515 -0.3698
  511MOL0     C68865   6.226   8.918   7.229  0.2233 -0.3035 -0.2698
  511MOL0     C68866   6.339   8.986   7.155  0.3579  0.0685  0.5023
  511MOL0     N68867   6.454   9.038   7.220  0.2706 -0.4263 -0.5969
  511MOL0     C68868   6.579   8.981   7.233  0.8438 -0.1337 -0.2582
  511MOL0     C68869   6.654   9.075   7.292 -0.0841  0.5676  0.3058
  511MOL0     C68870   6.802   9.066   7.327  0.0529  0.1290  0.3026
  511MOL0     C68871   6.831   9.058   7.474  0.3090 -1.3172  0.2382
  511MOL0     C68872   6.806   9.192   7.545 -0.4137 -0.5883  0.1957
  511MOL0     C68873   6.872   9.318   7.480  0.7904 -0.1884 -0.3427
  511MOL0     O68874   7.009   9.287   7.450 -0.2178 -0.3330 -0.2851
  511MOL0     C68875   7.092   9.393   7.449 -0.2821  0.1690  0.2294
  511MOL0     C68876   7.056   9.522   7.418  0.0609  0.3201  0.1691
  511MOL0     C68877   7.149   9.625   7.409 -1.1043 -0.3965  0.4138
  511MOL0     C68878   7.285   9.600   7.413 -0.1376  0.9044  0.0467
  511MOL0     C68879   7.387   9.713   7.401 -0.1904  0.2073  0.1533
  511MOL0     O68880   7.524   9.684   7.398 -0.4251  0.5812 -0.3600
  511MOL0     C68881   7.600   9.798   7.383 -0.1157  0.3268 -0.4453
  511MOL0     C68882   7.620   9.873   7.270 -0.6602  1.1415  0.3185
  511MOL0     C68883   7.696   9.992   7.269 -0.0301 -0.6771 -0.3502
  511MOL0     C68884   7.755  10.036   7.387 -1.0873 -1.2433  0.5831
  511MOL0     O68885   7.827  10.158   7.397 -0.1879 -0.0988  0.2620
  511MOL0     C68886   7.848  10.227   7.519  1.4278 -0.3935  0.7708
  511MOL0     C68887   7.700  10.267   7.567  0.2701 -0.3714 -0.3067
  511MOL0     C68888   7.647  10.389   7.487 -0.6423  0.6229  0.0161
  511MOL0     C68889   7.584  10.334   7.359  0.2395  0.2949  0.6013
  511MOL0     C68890   7.465  10.420   7.319 -0.1919 -0.8251 -0.1487
  511MOL0     C68891   7.500  10.566   7.293  0.3943  1.0628 -0.3066
  511MOL0     C68892   7.379  10.643   7.275 -0.3363  0.3849  1.1038
  511MOL0     C68893   7.419  10.779   7.214 -0.2126 -0.2839  0.2873
  511MOL0    Cl68894   7.568  10.860   7.274 -0.2735 -0.4868  0.7529
  511MOL0     C68895   7.736   9.951   7.497 -0.6380  0.3366 -0.0308
  511MOL0     C68896   7.657   9.838   7.501  1.4596  0.5744 -0.2357
  511MOL0     O68897   7.342   9.824   7.396 -0.4020 -0.4216 -0.3385
  511MOL0     C68898   7.328   9.469   7.443 -0.4044  0.0241  0.2479
  511MOL0     C68899   7.230   9.378   7.468 -0.2896  0.1128 -0.0398
  511MOL0     N68900   6.583   9.191   7.304  0.0131 -0.2869 -0.0608
  511MOL0     N68901   6.474   9.170   7.245  0.2413 -0.2956 -0.1413
  511MOL0     C68902   5.513   9.427   7.040 -1.2963  0.2556 -1.0679
  511MOL0     C68903   5.403   9.513   7.060  0.6117  0.0395  0.2773
  511MOL0     C68904   5.150   9.808   7.146  0.4302  0.6454  0.3396
  511MOL0     C68905   5.042   9.711   7.164 -0.6653 -0.1393  0.4795
  511MOL0     C68906   4.917   9.742   7.223 -0.2987 -0.4571  0.0224
  511MOL0     C68907   4.894   9.867   7.278  0.2282 -0.4403  0.4582
  511MOL0     O68908   4.768   9.883   7.322  0.2259  0.2786  0.4924
  511MOL0     C68909   4.726  10.016   7.369 -1.1700  0.1538  0.8837
  511MOL0     C68910   4.602  10.009   7.461  0.9642 -0.3316  0.2831
  511MOL0     C68911   4.499   9.899   7.408  0.0929 -0.3304 -0.2736
  511MOL0     C68912   4.358   9.923   7.470 -0.2456  1.4450 -0.2601
  511MOL0     C68913   4.345   9.896   7.617  0.1880  0.0640  0.1615
  511MOL0     C68914   4.350   9.876   7.740 -0.2098 -1.3134  0.4123
  511MOL0     C68915   5.002   9.959   7.270  0.0467 -0.1100  0.3563
  511MOL0     C68916   5.124   9.933   7.203  0.7396 -0.7593  1.2543
  511MOL0     C68917   5.226  10.044   7.194  0.7681 -0.7851 -0.9247
  511MOL0     H68918   5.390   9.649   6.744  1.2596  0.6362 -1.1841
  511MOL0     H68919   5.590   9.484   6.724  2.2198  0.1489  1.4925
  511MOL0     H68920   5.885   9.379   6.911 -0.4194 -0.4998 -0.1633
  511MOL0     H68921   5.790   9.463   7.030  1.6218 -0.1233  0.8431
  511MOL0     H68922   5.826   9.160   7.011  1.5506  0.9585 -0.7421
  511MOL0     H68923   5.734   9.240   7.148 -0.9906  0.1907 -0.2136
  511MOL0     H68924   5.938   9.339   7.228 -1.0850 -0.4199  0.1200
  511MOL0     H68925   6.033   9.287   7.086  0.0395 -0.9783 -0.7191
  511MOL0     H68926   5.905   9.110   7.276  0.2803 -2.3287 -0.4408
  511MOL0     H68927   5.997   9.052   7.136  0.1061  1.2702 -1.1131
  511MOL0     H68928   6.202   9.192   7.254 -1.6112  0.8732 -1.0861
  511MOL0     H68929   6.090   9.199   7.386 -0.0959  1.1701 -1.2011
  511MOL0     H68930   6.256   9.015   7.410  0.0042  3.6729 -1.6686
  511MOL0     H68931   6.089   8.945   7.391  0.1294 -1.2301 -0.7144
  511MOL0     H68932   6.143   8.896   7.161 -0.5108  0.0205  0.5027
  511MOL0     H68933   6.255   8.816   7.254  1.4101 -1.0824 -4.0554
  511MOL0     H68934   6.369   8.921   7.072  1.7805 -0.0549  1.1040
  511MOL0     H68935   6.287   9.070   7.108  1.7039  1.2449  1.0680
  511MOL0     H68936   6.606   8.879   7.207 -1.1664 -1.2788  1.8391
  511MOL0     H68937   6.833   8.967   7.292  4.7136  1.6338 -0.5761
  511MOL0     H68938   6.854   9.149   7.277 -0.1879  0.6989  0.9775
  511MOL0     H68939   6.764   8.984   7.519  1.4513 -3.1395 -0.9282
  511MOL0     H68940   6.935   9.028   7.490 -0.4742 -3.6737  1.3950
  511MOL0     H68941   6.834   9.186   7.651 -0.9406 -1.6393  0.2976
  511MOL0     H68942   6.698   9.212   7.542 -0.4528 -0.1244  2.7640
  511MOL0     H68943   6.864   9.396   7.555 -1.4399 -0.4446 -0.2255
  511MOL0     H68944   6.824   9.352   7.387  0.6204  1.7033  0.3975
  511MOL0     H68945   6.952   9.547   7.399 -0.2084  0.4167  1.6426
  511MOL0     H68946   7.114   9.724   7.383 -2.7557 -1.0065  0.1817
  511MOL0     H68947   7.570   9.847   7.177 -0.6155  0.1712  0.5559
  511MOL0     H68948   7.712  10.049   7.178  1.8073 -0.4303  0.0871
  511MOL0     H68949   7.888  10.164   7.599 -1.9627 -2.8549  0.6986
  511MOL0     H68950   7.915  10.313   7.508  0.5859  0.4592  2.0315
  511MOL0     H68951   7.622  10.190   7.567  1.2777 -1.4490 -1.7551
  511MOL0     H68952   7.712  10.295   7.672  0.2839 -0.3969 -0.3011
  511MOL0     H68953   7.568  10.441   7.544 -0.2345  1.3918 -0.1088
  511MOL0     H68954   7.728  10.460   7.470  0.9804 -1.2443 -0.2768
  511MOL0     H68955   7.540  10.234   7.368 -1.4187  0.9463  0.1929
  511MOL0     H68956   7.660  10.328   7.281  0.4710 -1.5979  0.9233
  511MOL0     H68957   7.393  10.409   7.401 -0.1768 -0.6562 -0.1111
  511MOL0     H68958   7.424  10.380   7.226 -2.4601 -0.2845  0.5584
  511MOL0     H68959   7.557  10.604   7.379 -0.0449  0.7118  0.1429
  511MOL0     H68960   7.564  10.565   7.204 -1.4650 -0.8086 -1.7220
  511MOL0     H68961   7.333  10.665   7.372 -1.3559  1.2051  0.4542
  511MOL0     H68962   7.306  10.589   7.214 -0.5286  1.3270  0.4652
  511MOL0     H68963   7.433  10.770   7.106 -2.2867  3.3679 -0.4544
  511MOL0     H68964   7.334  10.848   7.218 -0.2843 -0.2333 -1.5387
  511MOL0     H68965   7.787   9.973   7.590 -0.4202 -1.6642  0.3692
  511MOL0     H68966   7.631   9.784   7.592 -2.1179  0.2629 -1.2890
  511MOL0     H68967   7.432   9.440   7.444 -0.4877 -0.4351 -1.5368
  511MOL0     H68968   7.270   9.283   7.502  1.1751  0.7751  0.1788
  511MOL0     H68969   5.557   9.366   7.118  0.7825  1.5392 -1.1687
  511MOL0     H68970   5.349   9.513   7.155  0.0387  0.9184 -0.0404
  511MOL0     H68971   5.078   9.617   7.125  0.3387  1.2858 -2.3216
  511MOL0     H68972   4.848   9.658   7.221  0.9065 -1.4779 -1.1262
  511MOL0     H68973   4.688  10.070   7.282  1.2692 -0.8394 -0.9272
  511MOL0     H68974   4.808  10.082   7.401 -0.8859  0.6482 -0.7549
  511MOL0     H68975   4.556  10.107   7.473  1.4267 -0.0380 -0.3000
  511MOL0     H68976   4.639   9.983   7.561  1.8572 -0.3599 -0.0522
  511MOL0     H68977   4.533   9.796   7.419 -1.6430 -1.2781 -2.7781
  511MOL0     H68978   4.492   9.920   7.300  0.4009  1.8553  0.0884
  511MOL0     H68979   4.323  10.023   7.441  1.5752  0.9732 -4.7667
  511MOL0     H68980   4.293   9.853   7.416  2.1996  0.1965 -1.7301
  511MOL0     H68981   4.375   9.858   7.843 -1.0890 -2.1832  0.5012
  511MOL0     H68982   5.002  10.055   7.321 -0.4869 -0.3345  0.7877
  511MOL0     H68983   5.294  10.030   7.278  1.8130 -0.3762 -1.6725
  511MOL0     H68984   5.282  10.060   7.101  0.5137 -0.5681 -1.0412
  511MOL0     H68985   5.166  10.134   7.211  0.2572 -1.5306  1.5780
  512MOL0     O68986   4.867   3.784   9.789  0.3504  0.2390 -0.4822
  512MOL0     C68987   4.791   3.707   9.724  0.4630  0.3482  0.0247
  512MOL0     O68988   4.835   3.604   9.641  0.4154 -0.0454 -0.2565
  512MOL0     C68989   4.967   3.607   9.597 -0.4171 -0.2613 -0.1417
  512MOL0     C68990   5.084   3.577   9.676  0.1297  0.3432  0.4796
  512MOL0     C68991   5.207   3.595   9.615 -0.6586 -0.4659 -0.5633
  512MOL0     C68992   5.222   3.637   9.480 -0.4685 -1.0657 -0.5163
  512MOL0     O68993   5.347   3.644   9.412  0.0055 -0.1313  0.4989
  512MOL0     C68994   5.435   3.540   9.455  0.9706 -0.1348 -0.4852
  512MOL0     C68995   5.558   3.607   9.504 -0.0017 -0.4007 -0.7472
  512MOL0     C68996   5.653   3.512   9.582 -0.5360 -0.7205 -0.5854
  512MOL0     C68997   5.783   3.583   9.597 -0.1220 -0.2491  0.0914
  512MOL0     C68998   5.875   3.509   9.701  0.4094  0.0517 -0.0787
  512MOL0     C68999   5.962   3.616   9.760  0.9511 -0.4836  0.0360
  512MOL0     C69000   6.088   3.562   9.825 -0.4082  0.5589  1.5788
  512MOL0     C69001   6.056   3.469   9.930  0.0498  0.3820 -0.0653
  512MOL0     N69002   6.166   3.391   9.981  0.5348  0.2626 -0.5410
  512MOL0     C69003   6.284   3.433  10.038 -0.2293 -0.1175  0.6637
  512MOL0     C69004   6.350   3.321  10.063  0.2302  0.1128 -0.1920
  512MOL0     C69005   6.485   3.320  10.141  0.0462 -0.5910 -0.2069
  512MOL0     C69006   6.462   3.303  10.287 -0.4964  0.8913  0.7359
  512MOL0     C69007   6.557   3.195  10.348  0.1571 -0.1118  0.2549
  512MOL0     C69008   6.718   3.219  10.347  0.0356  0.3460 -0.0200
  512MOL0     O69009   6.784   3.102  10.398  0.4975  0.1707 -0.4770
  512MOL0     C69010   6.838   3.023  10.301 -0.2802 -0.0164 -0.1251
  512MOL0     C69011   6.821   3.038  10.160  0.1361  1.1414 -0.7191
  512MOL0     C69012   6.906   2.976  10.071  0.5763 -0.8694 -0.2544
  512MOL0     C69013   7.021   2.904  10.116 -0.3725  0.2424 -0.8192
  512MOL0     C69014   7.115   2.849  10.019 -0.4085  0.3051  0.0235
  512MOL0     O69015   7.205   2.757  10.069 -0.1249  0.1611  0.5473
  512MOL0     C69016   7.324   2.745  10.007 -0.3082  0.1042 -0.3372
  512MOL0     C69017   7.430   2.797  10.074  0.7586  0.4157 -0.8152
  512MOL0     C69018   7.562   2.792  10.035  0.2458  0.3144  0.5061
  512MOL0     C69019   7.583   2.733   9.910 -0.3243 -0.0481  0.2508
  512MOL0     O69020   7.708   2.713   9.859  0.2369 -0.0307  0.0075
  512MOL0     C69021   7.806   2.619   9.923 -0.0785 -0.7351  0.5856
  512MOL0     C69022   7.786   2.472   9.884  0.1025 -0.7356  0.3106
  512MOL0     C69023   7.662   2.407   9.952  0.2565 -0.5003  0.0043
  512MOL0     C69024   7.663   2.398  10.105 -0.0339 -0.4028  0.0010
  512MOL0     C69025   7.530   2.355  10.158  0.1020 -0.2203 -0.2771
  512MOL0     C69026   7.493   2.432  10.287 -0.0936 -0.2395  0.1927
  512MOL0     C69027   7.353   2.408  10.338 -0.0205  0.3085  0.3634
  512MOL0     C69028   7.339   2.475  10.476  0.2953  0.3850 -0.1632
  512MOL0    Cl69029   7.190   2.417  10.544  0.2069  0.2397 -0.4401
  512MOL0     C69030   7.477   2.683   9.837  1.0959 -0.2971  0.5346
  512MOL0     C69031   7.345   2.687   9.880  0.2375 -0.3812 -0.2402
  512MOL0     O69032   7.130   2.913   9.913  0.1284 -0.1124 -0.1741
  512MOL0     C69033   7.035   2.882  10.259  0.2779 -0.7211  0.1958
  512MOL0     C69034   6.942   2.939  10.344 -0.0147 -0.4045  0.2191
  512MOL0     N69035   6.281   3.218  10.017  0.3539  0.2135 -0.4375
  512MOL0     N69036   6.169   3.252   9.973 -0.4042 -0.3748  0.3873
  512MOL0     C69037   5.109   3.670   9.407 -0.7447 -0.3669  0.0094
  512MOL0     C69038   4.982   3.653   9.465 -0.5519 -0.5271 -0.5978
  512MOL0     C69039   4.645   3.728   9.721 -1.0247 -0.7444  0.2211
  512MOL0     C69040   4.575   3.674   9.615 -0.1441 -0.7013 -0.2313
  512MOL0     C69041   4.445   3.696   9.590  0.3850 -0.0418 -0.3311
  512MOL0     C69042   4.363   3.772   9.677  0.3182 -0.6625 -0.0141
  512MOL0     O69043   4.231   3.800   9.659  0.5065  0.6935 -0.7048
  512MOL0     C69044   4.170   3.791   9.527  0.1925  0.3951  0.3042
  512MOL0     C69045   4.046   3.876   9.503  0.3850  0.1363 -0.7907
  512MOL0     C69046   4.048   3.961   9.369  0.0926  0.6103  0.2713
  512MOL0     C69047   3.910   4.000   9.313 -0.0524  0.4734  0.3572
  512MOL0     C69048   3.873   4.127   9.383  0.2455 -0.1152 -0.2675
  512MOL0     C69049   3.819   4.228   9.430 -0.5629 -0.1127  0.3954
  512MOL0     C69050   4.428   3.832   9.790 -0.2814  0.2235 -0.4660
  512MOL0     C69051   4.570   3.814   9.811  0.0811 -1.1194 -0.1024
  512MOL0     C69052   4.634   3.881   9.930  0.7152 -0.3046  0.3870
  512MOL0     H69053   5.091   3.543   9.779  0.6735  2.0822  1.0727
  512MOL0     H69054   5.291   3.564   9.676 -0.7115 -1.6545 -1.0603
  512MOL0     H69055   5.399   3.466   9.527  1.3543 -0.4054 -0.5624
  512MOL0     H69056   5.467   3.485   9.366  2.6359 -2.7503  1.5610
  512MOL0     H69057   5.531   3.693   9.567  0.6908  1.1730 -2.4949
  512MOL0     H69058   5.610   3.650   9.418 -0.0395 -1.3842 -1.2731
  512MOL0     H69059   5.665   3.410   9.546 -1.3563 -1.2582  0.5921
  512MOL0     H69060   5.616   3.487   9.683 -0.1425 -0.3558 -0.3471
  512MOL0     H69061   5.822   3.581   9.495 -2.6383  1.0032 -0.9946
  512MOL0     H69062   5.764   3.686   9.629  0.2846 -0.0233 -0.3761
  512MOL0     H69063   5.819   3.459   9.780  1.5584 -0.7436  0.2696
  512MOL0     H69064   5.937   3.429   9.659  1.5155 -0.2666  2.0054
  512MOL0     H69065   5.985   3.687   9.680 -3.3394  0.3233 -0.7264
  512MOL0     H69066   5.901   3.681   9.824 -0.4240 -0.5754 -1.1255
  512MOL0     H69067   6.147   3.649   9.856  0.9714  0.7686 -1.2575
  512MOL0     H69068   6.152   3.512   9.752 -0.0311  1.6515  1.1333
  512MOL0     H69069   6.031   3.533  10.015  2.2564  1.6331 -0.2869
  512MOL0     H69070   5.977   3.398   9.902 -0.4105  0.9069 -0.1005
  512MOL0     H69071   6.313   3.537  10.053 -1.2830  0.5514 -1.4779
  512MOL0     H69072   6.550   3.242  10.098 -2.1709 -2.7470  0.0868
  512MOL0     H69073   6.529   3.418  10.126 -0.8168 -0.2301 -0.4907
  512MOL0     H69074   6.483   3.401  10.330 -1.4267  2.0202 -1.1942
  512MOL0     H69075   6.355   3.282  10.302 -0.6470  0.9560 -0.1575
  512MOL0     H69076   6.527   3.102  10.300 -2.6960  0.3868  0.9035
  512MOL0     H69077   6.530   3.179  10.453  0.5985  4.6093  1.3129
  512MOL0     H69078   6.746   3.309  10.402  0.6165  2.0470 -2.8668
  512MOL0     H69079   6.743   3.235  10.242 -1.8990  0.6513 -0.4688
  512MOL0     H69080   6.746   3.096  10.108  0.7528  0.9741 -1.8278
  512MOL0     H69081   6.892   2.995   9.965  0.0056  0.0926 -0.0155
  512MOL0     H69082   7.414   2.840  10.173 -2.1714 -1.3914 -0.3947
  512MOL0     H69083   7.644   2.833  10.094  1.0163  1.2467 -1.1350
  512MOL0     H69084   7.907   2.650   9.894 -0.2985 -0.1119  0.4696
  512MOL0     H69085   7.806   2.636  10.031  0.4527 -1.0619  0.6386
  512MOL0     H69086   7.770   2.457   9.777 -0.1509  0.1793  0.2088
  512MOL0     H69087   7.881   2.424   9.908 -1.1797 -2.6076  1.9551
  512MOL0     H69088   7.577   2.466   9.915  0.6696 -1.4415 -2.6861
  512MOL0     H69089   7.645   2.308   9.909  0.4963 -0.7937  0.5767
  512MOL0     H69090   7.693   2.496  10.145  1.9675 -1.0216  0.1393
  512MOL0     H69091   7.739   2.325  10.134  1.9153  1.2481 -0.6645
  512MOL0     H69092   7.534   2.248  10.178  1.9326 -0.0378  0.5339
  512MOL0     H69093   7.448   2.375  10.088 -0.4726  3.2361  1.1475
  512MOL0     H69094   7.560   2.383  10.359 -0.7380  3.2533  3.4559
  512MOL0     H69095   7.511   2.539  10.275  2.5616 -0.8663 -3.1931
  512MOL0     H69096   7.320   2.305  10.329 -4.5156  1.7011 -3.3722
  512MOL0     H69097   7.280   2.456  10.272  0.8693  1.5960  0.2649
  512MOL0     H69098   7.429   2.461  10.536  0.1975 -0.0687 -0.1149
  512MOL0     H69099   7.329   2.582  10.456  1.0780  0.3825 -0.5895
  512MOL0     H69100   7.508   2.635   9.744  0.9522 -2.4166  1.5079
  512MOL0     H69101   7.258   2.637   9.837  0.4353 -2.1750  1.3291
  512MOL0     H69102   7.125   2.840  10.302 -0.1873  0.3994  2.4012
  512MOL0     H69103   6.952   2.931  10.451  2.5820 -1.2974 -0.0159
  512MOL0     H69104   5.119   3.693   9.302  0.3171 -2.8431 -0.5118
  512MOL0     H69105   4.898   3.703   9.417 -1.8964 -0.4339  1.7129
  512MOL0     H69106   4.626   3.628   9.531  2.4709 -0.2645  1.0118
  512MOL0     H69107   4.411   3.664   9.492  1.2553 -0.3068 -0.5503
  512MOL0     H69108   4.146   3.689   9.496 -0.7960  0.8921 -0.6229
  512MOL0     H69109   4.243   3.835   9.458 -1.0605  1.3205 -0.4766
  512MOL0     H69110   4.038   3.942   9.590 -2.1353 -1.6635  0.4635
  512MOL0     H69111   3.966   3.801   9.505  0.5573 -0.0591 -1.1116
  512MOL0     H69112   4.100   3.896   9.297  0.5765  1.1887  0.0994
  512MOL0     H69113   4.117   4.045   9.376  1.8289 -0.6140 -1.1079
  512MOL0     H69114   3.927   4.005   9.206  0.3146 -2.0826  0.2359
  512MOL0     H69115   3.840   3.916   9.323  1.3866 -0.7373  0.6250
  512MOL0     H69116   3.778   4.315   9.478  0.0781 -0.3898  1.4947
  512MOL0     H69117   4.372   3.892   9.861  1.1378  1.1835 -0.1110
  512MOL0     H69118   4.552   3.899  10.000 -2.7655  0.5205 -3.5348
  512MOL0     H69119   4.705   3.813   9.978  0.8878 -3.1435 -3.4243
  512MOL0     H69120   4.686   3.973   9.900 -0.2143  0.2627  0.5015
  513MOL0     O69121   8.106   3.985   9.991 -0.5176 -0.2005  0.4933
  513MOL0     C69122   8.094   4.107  10.021 -0.4902  0.6582  1.7093
  513MOL0     O69123   8.185   4.211   9.980  0.2156 -0.2504  0.0965
  513MOL0     C69124   8.297   4.190   9.898  0.1453 -0.1449 -0.6737
  513MOL0     C69125   8.312   4.290   9.803  0.2435 -0.6326 -0.0792
  513MOL0     C69126   8.421   4.277   9.712  0.2403 -0.8752  0.4120
  513MOL0     C69127   8.501   4.157   9.712  0.6128  0.1203 -0.8732
  513MOL0     O69128   8.609   4.169   9.638 -0.2841  0.0398  0.4097
  513MOL0     C69129   8.715   4.079   9.663  0.4117 -0.0163  0.4466
  513MOL0     C69130   8.836   4.143   9.604  0.3346  1.0013 -0.0200
  513MOL0     C69131   8.969   4.076   9.637 -0.3345 -0.0883  0.4689
  513MOL0     C69132   8.980   3.943   9.555 -0.3244 -0.8591 -0.4075
  513MOL0     C69133   9.120   3.898   9.520  0.7188 -0.4406  0.1083
  513MOL0     C69134   9.116   3.783   9.416 -0.2942  0.1368  0.1816
  513MOL0     C69135   9.018   3.678   9.433 -0.1944  0.3246  0.2154
  513MOL0     C69136   9.037   3.562   9.333  0.2690 -1.1196 -0.3302
  513MOL0     N69137   9.164   3.497   9.302  0.1510  0.0303 -0.4018
  513MOL0     C69138   9.264   3.538   9.214  0.5899 -0.3075 -0.1747
  513MOL0     C69139   9.346   3.430   9.201 -0.1231  0.3413  0.6478
  513MOL0     C69140   9.465   3.408   9.117  0.8587  0.2780 -0.1530
  513MOL0     C69141   9.587   3.458   9.193  0.6032 -0.0881  0.4600
  513MOL0     C69142   9.564   3.615   9.235  0.3316  0.4731  0.0642
  513MOL0     C69143   9.698   3.667   9.278 -1.2894 -0.6788 -0.6762
  513MOL0     O69144   9.784   3.671   9.166  0.0323 -0.3286 -0.3373
  513MOL0     C69145   9.917   3.674   9.189 -0.5055  0.3398 -0.1617
  513MOL0     C69146   9.982   3.665   9.315 -0.5171  0.3249  0.5104
  513MOL0     C69147  10.123   3.661   9.326  0.6257 -0.0654  0.6047
  513MOL0     C69148  10.203   3.674   9.210 -0.6245  0.8254  0.5805
  513MOL0     C69149  10.354   3.664   9.216 -0.4588  0.2627 -0.4444
  513MOL0     O69150  10.420   3.634   9.101 -0.7005  0.1267 -0.0549
  513MOL0     C69151  10.560   3.637   9.094 -0.3402  0.6221  0.6283
  513MOL0     C69152  10.641   3.711   9.178 -0.0353 -0.2492 -0.9415
  513MOL0     C69153  10.776   3.720   9.166  0.4601  0.0761 -0.3672
  513MOL0     C69154  10.836   3.653   9.061 -1.0247 -0.3517 -0.6640
  513MOL0     O69155  10.965   3.653   9.026 -0.6802 -0.1879 -0.7983
  513MOL0     C69156  11.057   3.752   9.084 -0.1399 -0.8813 -0.4108
  513MOL0     C69157  11.175   3.764   8.983  0.3810 -0.1015  0.0142
  513MOL0     C69158  11.270   3.637   8.990 -0.3523 -0.5270 -0.1363
  513MOL0     C69159  11.361   3.606   8.873  0.8215  0.1083 -0.0042
  513MOL0     C69160  11.272   3.531   8.769 -0.9037 -0.2543 -0.8168
  513MOL0     C69161  11.359   3.503   8.638  0.7219  0.1029 -0.3120
  513MOL0     C69162  11.483   3.421   8.675 -0.0445 -0.8382 -0.2694
  513MOL0     C69163  11.546   3.381   8.547 -0.8563  0.0061  0.0563
  513MOL0    Cl69164  11.461   3.249   8.479 -0.0705  0.4030 -0.6489
  513MOL0     C69165  10.757   3.602   8.962  0.0349  0.3422 -0.4220
  513MOL0     C69166  10.618   3.585   8.978 -0.4987 -0.0712 -0.1642
  513MOL0     O69167  10.405   3.668   9.325 -0.1174  0.4120  0.8109
  513MOL0     C69168  10.138   3.692   9.083 -0.1919 -0.3723 -0.5106
  513MOL0     C69169   9.996   3.688   9.075 -0.4481 -0.1101 -0.6173
  513MOL0     N69170   9.295   3.327   9.271 -0.6631  0.0945 -0.2556
  513MOL0     N69171   9.188   3.364   9.331  0.0656 -0.2558  0.0405
  513MOL0     C69172   8.474   4.061   9.801  0.2198  0.4602  0.9483
  513MOL0     C69173   8.370   4.073   9.893  0.4739  0.8066  0.1360
  513MOL0     C69174   7.967   4.153  10.083 -0.2352 -0.4616  0.6387
  513MOL0     C69175   7.960   4.296  10.100 -0.1026  0.8606 -0.2578
  513MOL0     C69176   7.852   4.354  10.158  0.2071 -0.0159  0.7617
  513MOL0     C69177   7.742   4.272  10.200  0.0376 -0.6392 -0.6371
  513MOL0     O69178   7.627   4.320  10.264 -0.0817 -0.9019 -0.3589
  513MOL0     C69179   7.618   4.457  10.299 -0.6742  0.4770  0.0446
  513MOL0     C69180   7.487   4.473  10.372 -0.4632 -0.3936 -1.2967
  513MOL0     C69181   7.474   4.391  10.495 -0.1077  0.6593 -0.6084
  513MOL0     C69182   7.350   4.416  10.579 -0.0199  0.2008  1.0232
  513MOL0     C69183   7.225   4.405  10.503 -0.2104 -0.5210 -1.0937
  513MOL0     C69184   7.130   4.385  10.428  0.9133 -0.0220 -0.5690
  513MOL0     C69185   7.750   4.133  10.173  0.0321  0.5248 -0.0818
  513MOL0     C69186   7.864   4.068  10.123 -0.1033  0.7368  0.2763
  513MOL0     C69187   7.863   3.919  10.125  0.2297 -0.5300 -0.2957
  513MOL0     H69188   8.253   4.381   9.806 -0.6312 -1.1825 -0.2245
  513MOL0     H69189   8.446   4.359   9.645 -1.6407 -0.2353  0.4561
  513MOL0     H69190   8.730   4.059   9.769  1.2610  0.2285  0.3784
  513MOL0     H69191   8.686   3.983   9.619 -0.6574  0.8706 -0.9093
  513MOL0     H69192   8.853   4.245   9.639 -0.2088  0.9681  0.3483
  513MOL0     H69193   8.822   4.140   9.495  1.4845  0.3412 -0.1632
  513MOL0     H69194   8.982   4.057   9.744 -0.1459 -1.0387  0.2854
  513MOL0     H69195   9.049   4.141   9.601  0.4851 -2.1325 -1.6612
  513MOL0     H69196   8.938   3.865   9.619  0.9314 -1.1181  0.1323
  513MOL0     H69197   8.915   3.950   9.467 -3.3548 -0.5374  1.7173
  513MOL0     H69198   9.177   3.980   9.475 -1.4239  1.9662  1.5160
  513MOL0     H69199   9.160   3.865   9.617  0.5588  0.5470  0.5219
  513MOL0     H69200   9.104   3.829   9.317 -0.7758  0.3756  0.3435
  513MOL0     H69201   9.207   3.723   9.407 -2.8984 -3.9422 -2.8444
  513MOL0     H69202   8.918   3.718   9.416 -0.2978 -0.7534 -1.9804
  513MOL0     H69203   9.033   3.634   9.532 -1.0183 -0.6287 -0.0676
  513MOL0     H69204   8.969   3.488   9.375 -1.5662  0.7447  0.1390
  513MOL0     H69205   8.995   3.590   9.236  1.0079 -1.8549 -0.8815
  513MOL0     H69206   9.276   3.633   9.163  2.4011 -0.4928 -0.1663
  513MOL0     H69207   9.483   3.302   9.095 -1.3399  0.3350 -2.8005
  513MOL0     H69208   9.464   3.470   9.027  0.1414 -0.9406 -1.0110
  513MOL0     H69209   9.603   3.396   9.282 -0.3135  0.2274  0.8569
  513MOL0     H69210   9.675   3.456   9.129  1.9850  1.3248  2.2409
  513MOL0     H69211   9.490   3.630   9.314 -2.3546 -0.5064 -2.1092
  513MOL0     H69212   9.542   3.677   9.148  1.4351  1.4128  0.4325
  513MOL0     H69213   9.738   3.610   9.362  0.9693 -0.2666 -1.4031
  513MOL0     H69214   9.685   3.769   9.315 -1.9231 -1.1235  0.3719
  513MOL0     H69215   9.923   3.663   9.407  0.4471  0.6733  1.1481
  513MOL0     H69216  10.160   3.630   9.423  2.5586 -1.8716 -0.6127
  513MOL0     H69217  10.597   3.777   9.252  1.6172  3.3237 -2.9052
  513MOL0     H69218  10.840   3.770   9.238  0.9459  0.1470 -0.8508
  513MOL0     H69219  11.009   3.848   9.105 -2.6248 -2.1296  0.0025
  513MOL0     H69220  11.086   3.719   9.184 -0.3862  3.4512  1.2986
  513MOL0     H69221  11.129   3.777   8.884 -0.4572 -2.3800  0.0454
  513MOL0     H69222  11.230   3.853   9.016 -0.3587  0.2952  0.1939
  513MOL0     H69223  11.338   3.658   9.073 -3.7956 -2.9654  3.6184
  513MOL0     H69224  11.221   3.542   9.010  1.2615 -2.1414 -3.0664
  513MOL0     H69225  11.443   3.545   8.912  0.4054  0.4879  1.5320
  513MOL0     H69226  11.398   3.698   8.828 -0.7941  0.6001 -0.3754
  513MOL0     H69227  11.183   3.588   8.742 -0.8924  1.2751  1.9350
  513MOL0     H69228  11.241   3.433   8.807 -0.9880 -1.2238 -3.2307
  513MOL0     H69229  11.301   3.454   8.559  1.5507 -3.7732  1.2692
  513MOL0     H69230  11.387   3.599   8.593 -0.2732  1.1405  1.1947
  513MOL0     H69231  11.461   3.339   8.744 -0.1461 -0.6494 -0.0785
  513MOL0     H69232  11.548   3.492   8.728 -4.1600  0.6094  3.4449
  513MOL0     H69233  11.553   3.465   8.477  0.5893 -0.6493 -0.6204
  513MOL0     H69234  11.640   3.342   8.587 -1.1625 -1.9544 -1.0217
  513MOL0     H69235  10.793   3.555   8.872 -0.5420 -1.2662  0.1448
  513MOL0     H69236  10.557   3.543   8.899  0.8804 -1.7396 -0.4165
  513MOL0     H69237  10.193   3.697   8.990 -1.1021  2.0067 -0.9890
  513MOL0     H69238   9.954   3.690   8.976  1.6647  1.3201 -1.5745
  513MOL0     H69239   8.539   3.974   9.802 -1.0339 -0.6646 -2.3064
  513MOL0     H69240   8.356   3.989   9.961  0.3066  2.0166  1.6369
  513MOL0     H69241   8.049   4.357  10.089 -0.6474  2.1477  1.8402
  513MOL0     H69242   7.865   4.459  10.185 -2.3736  0.2775  1.0994
  513MOL0     H69243   7.611   4.511  10.204  2.6059 -1.8383 -1.6851
  513MOL0     H69244   7.702   4.496  10.356 -0.6261  0.4699 -0.0213
  513MOL0     H69245   7.416   4.452  10.291 -1.7077 -1.1962 -0.0369
  513MOL0     H69246   7.489   4.579  10.399 -3.3629 -0.5874  0.0460
  513MOL0     H69247   7.559   4.410  10.562  0.9106 -0.9920 -1.3765
  513MOL0     H69248   7.480   4.289  10.457  2.8558 -0.0266  1.3145
  513MOL0     H69249   7.345   4.347  10.664  2.1627 -0.9431  0.2943
  513MOL0     H69250   7.347   4.517  10.619 -2.3102  0.1348  1.1834
  513MOL0     H69251   7.058   4.353  10.354  0.8433 -0.7263 -0.1974
  513MOL0     H69252   7.676   4.061  10.205  2.0824 -1.8763 -0.3959
  513MOL0     H69253   7.945   3.881  10.187 -1.1291 -0.4088  1.6480
  513MOL0     H69254   7.768   3.882  10.164  0.6650 -1.6204 -0.2115
  513MOL0     H69255   7.880   3.876  10.026  1.1562 -0.7395 -0.0632
  514MOL0     O69256   9.302   3.534   1.187  0.3739  0.3989 -0.9563
  514MOL0     C69257   9.225   3.483   1.265  0.8430  0.7451  0.3835
  514MOL0     O69258   9.255   3.388   1.362  0.1949 -0.3903 -0.3246
  514MOL0     C69259   9.377   3.412   1.413 -0.2543 -0.3730  0.3604
  514MOL0     C69260   9.483   3.324   1.395 -0.2724 -0.3849  0.1732
  514MOL0     C69261   9.607   3.359   1.449  0.0709  0.3236 -0.3388
  514MOL0     C69262   9.629   3.471   1.530 -0.7826 -0.3096  0.5263
  514MOL0     O69263   9.759   3.488   1.564  0.8485  0.1363 -0.4792
  514MOL0     C69264   9.779   3.593   1.656  0.3483 -0.4448  0.3410
  514MOL0     C69265   9.925   3.603   1.689 -0.5201 -0.5060 -0.3893
  514MOL0     C69266   9.949   3.666   1.829  1.1296  0.2218  0.0640
  514MOL0     C69267  10.103   3.684   1.842  0.0827  0.4512  0.3078
  514MOL0     C69268  10.156   3.716   1.981 -0.3156  0.2068  0.2630
  514MOL0     C69269  10.304   3.766   1.967  0.5943 -0.9270 -0.4342
  514MOL0     C69270  10.372   3.768   2.097  0.0601 -0.9111 -1.0511
  514MOL0     C69271  10.304   3.866   2.190  0.7376  0.4423 -0.3325
  514MOL0     N69272  10.328   4.003   2.158 -0.2359 -0.5102 -0.0644
  514MOL0     C69273  10.252   4.078   2.069  0.0217  0.3545  0.9040
  514MOL0     C69274  10.337   4.186   2.037 -0.0653  0.4650 -0.5468
  514MOL0     C69275  10.313   4.310   1.963  0.2431  0.4211 -0.1246
  514MOL0     C69276  10.442   4.391   1.924  0.1635  0.0299  0.0283
  514MOL0     C69277  10.414   4.519   1.838 -0.3994  0.0112  0.6991
  514MOL0     C69278  10.547   4.600   1.817 -0.6523  0.8414 -0.7222
  514MOL0     O69279  10.512   4.719   1.749 -0.4633  0.5365  0.5795
  514MOL0     C69280  10.605   4.819   1.742 -0.6690  0.7824  0.3736
  514MOL0     C69281  10.588   4.921   1.656  0.4984  0.4122 -0.5169
  514MOL0     C69282  10.689   5.016   1.623 -0.6590  0.0330 -0.1177
  514MOL0     C69283  10.814   5.013   1.688 -1.2157  0.5473  0.2750
  514MOL0     C69284  10.929   5.099   1.670  0.3941 -0.8167  0.8078
  514MOL0     O69285  11.051   5.080   1.722  0.0954  0.0100  0.2877
  514MOL0     C69286  11.148   5.183   1.725  0.8597 -0.4824  0.5087
  514MOL0     C69287  11.267   5.150   1.659 -0.5103  0.4890 -0.3667
  514MOL0     C69288  11.368   5.241   1.654  1.1484  0.4542 -0.2945
  514MOL0     C69289  11.353   5.366   1.713 -0.6419  0.0493 -0.9460
  514MOL0     O69290  11.465   5.450   1.705  0.0345 -0.4210 -0.2714
  514MOL0     C69291  11.449   5.595   1.722  0.2661  0.7818 -0.9673
  514MOL0     C69292  11.551   5.686   1.646 -0.2141 -0.0659 -0.2663
  514MOL0     C69293  11.690   5.675   1.701  0.0777 -0.1735 -1.0828
  514MOL0     C69294  11.784   5.767   1.631  0.0043  0.2064 -0.0900
  514MOL0     C69295  11.923   5.703   1.627 -0.3906  0.2841  0.0826
  514MOL0     C69296  12.027   5.794   1.554  0.4424  0.2181 -1.2129
  514MOL0     C69297  12.166   5.734   1.568 -0.2971  0.1645  0.0448
  514MOL0     C69298  12.262   5.762   1.452  0.6585 -0.6574  0.3897
  514MOL0    Cl69299  12.300   5.925   1.472 -0.0233  0.0563  0.2480
  514MOL0     C69300  11.237   5.397   1.782  0.3537 -0.3934 -0.3587
  514MOL0     C69301  11.126   5.303   1.780 -0.1870 -0.5793 -0.8941
  514MOL0     O69302  10.905   5.198   1.596 -0.1489 -0.3542 -0.3689
  514MOL0     C69303  10.827   4.915   1.786  0.4870  0.4404 -0.6435
  514MOL0     C69304  10.726   4.824   1.822  0.0755 -0.0390  0.3830
  514MOL0     N69305  10.451   4.169   2.116 -0.4632 -0.8407  0.1103
  514MOL0     N69306  10.446   4.063   2.187 -0.3730 -0.0058 -0.4676
  514MOL0     C69307   9.515   3.549   1.563 -1.4792 -0.0790 -0.1456
  514MOL0     C69308   9.399   3.522   1.499  0.5830 -0.1762  0.3972
  514MOL0     C69309   9.077   3.515   1.250 -0.2146  0.6968 -0.1037
  514MOL0     C69310   8.993   3.462   1.350  0.1060 -0.1409  0.1981
  514MOL0     C69311   8.853   3.464   1.338  0.5079 -0.4930  0.1935
  514MOL0     C69312   8.781   3.525   1.235  0.0494  1.2519  0.0208
  514MOL0     O69313   8.645   3.533   1.220 -0.1492 -1.0947  0.1125
  514MOL0     C69314   8.556   3.474   1.320  0.2494 -0.6749 -0.0711
  514MOL0     C69315   8.397   3.510   1.279  0.7244 -0.1760  1.2296
  514MOL0     C69316   8.294   3.470   1.376  0.5716 -0.2151  0.1967
  514MOL0     C69317   8.159   3.485   1.303 -0.3906 -1.1825 -0.4730
  514MOL0     C69318   8.057   3.443   1.397  0.3734  0.6807 -0.5446
  514MOL0     C69319   7.961   3.417   1.469  0.5137  0.1584 -0.3164
  514MOL0     C69320   8.866   3.569   1.131 -0.0565 -0.0603 -0.4817
  514MOL0     C69321   9.011   3.569   1.139 -0.1751  0.0025  0.7691
  514MOL0     C69322   9.090   3.634   1.021  0.1390 -0.3735 -0.4058
  514MOL0     H69323   9.474   3.233   1.336 -0.1871  0.6022 -1.4401
  514MOL0     H69324   9.690   3.289   1.439 -0.1667 -0.1877  1.0358
  514MOL0     H69325   9.739   3.686   1.614  1.6110  0.4913  1.1441
  514MOL0     H69326   9.718   3.567   1.743 -0.9883 -1.9063 -0.9756
  514MOL0     H69327   9.951   3.671   1.606 -1.8229  0.9951  0.3610
  514MOL0     H69328   9.976   3.507   1.696 -0.2583 -0.3723 -0.4437
  514MOL0     H69329   9.923   3.595   1.908  0.8284 -1.3673 -1.4119
  514MOL0     H69330   9.891   3.759   1.825 -0.6430 -0.8460 -0.2019
  514MOL0     H69331  10.153   3.593   1.810 -1.1151 -0.4654  0.9614
  514MOL0     H69332  10.134   3.765   1.774 -0.9605  0.6898  0.0815
  514MOL0     H69333  10.081   3.775   2.035 -2.4732 -3.5591  1.7688
  514MOL0     H69334  10.163   3.625   2.041  2.8538 -0.9294 -1.5869
  514MOL0     H69335  10.355   3.694   1.903  0.8295  0.0461 -1.3488
  514MOL0     H69336  10.310   3.863   1.918  1.8096 -0.1373  1.1873
  514MOL0     H69337  10.474   3.806   2.081  0.4971 -1.5274  0.1316
  514MOL0     H69338  10.386   3.677   2.155 -0.3803  1.3830  3.0489
  514MOL0     H69339  10.196   3.854   2.195  0.4558  2.2480 -1.3094
  514MOL0     H69340  10.348   3.857   2.290  1.3573 -2.6229 -0.7915
  514MOL0     H69341  10.156   4.041   2.035  0.9524  0.9035 -2.7296
  514MOL0     H69342  10.257   4.282   1.873  0.3580  1.7343 -0.6207
  514MOL0     H69343  10.248   4.373   2.024  1.2091  0.8787  0.4345
  514MOL0     H69344  10.495   4.417   2.016 -2.5674  0.6541  1.5119
  514MOL0     H69345  10.506   4.335   1.854 -0.1470  1.2484 -1.2667
  514MOL0     H69346  10.332   4.581   1.875  0.7907  1.3343  1.2254
  514MOL0     H69347  10.393   4.492   1.734 -1.0369  1.8235  0.3189
  514MOL0     H69348  10.615   4.532   1.764 -0.7786  2.0626 -2.5308
  514MOL0     H69349  10.582   4.624   1.918 -2.3347 -0.6618  0.2822
  514MOL0     H69350  10.496   4.911   1.599 -0.8188 -0.4638  1.6632
  514MOL0     H69351  10.672   5.087   1.543  0.9083 -0.4367 -0.9047
  514MOL0     H69352  11.270   5.054   1.609 -1.3371 -0.5764  1.5380
  514MOL0     H69353  11.462   5.232   1.600 -0.9509  1.5067 -4.5951
  514MOL0     H69354  11.356   5.615   1.668  0.2797 -1.0371 -1.7256
  514MOL0     H69355  11.442   5.616   1.830  0.9243 -0.7898 -0.5945
  514MOL0     H69356  11.550   5.666   1.538  0.8562 -1.3881 -0.0546
  514MOL0     H69357  11.512   5.785   1.674 -3.2796 -0.6958 -1.8252
  514MOL0     H69358  11.686   5.697   1.808 -1.5193 -2.5180 -0.5874
  514MOL0     H69359  11.716   5.571   1.682 -1.4542 -0.6190 -0.8858
  514MOL0     H69360  11.785   5.866   1.678  1.2988  0.7703 -1.2437
  514MOL0     H69361  11.743   5.793   1.532 -0.2418  2.1007  0.4639
  514MOL0     H69362  11.923   5.614   1.563  0.3669  1.8666 -2.2654
  514MOL0     H69363  11.961   5.686   1.728 -0.7211  1.1419  0.3626
  514MOL0     H69364  11.989   5.813   1.453  1.2474  1.3999 -1.3150
  514MOL0     H69365  12.015   5.892   1.601 -0.0728 -0.2203 -0.4026
  514MOL0     H69366  12.152   5.627   1.579  0.3017  0.0762 -0.0102
  514MOL0     H69367  12.214   5.763   1.662  0.1069  2.0160 -0.6791
  514MOL0     H69368  12.346   5.693   1.454 -0.6930 -2.3925  0.3819
  514MOL0     H69369  12.213   5.745   1.355  0.6795  2.9689 -0.3836
  514MOL0     H69370  11.220   5.488   1.840 -2.5089 -1.7917  1.1657
  514MOL0     H69371  11.033   5.330   1.829 -0.3269 -0.5443 -1.1748
  514MOL0     H69372  10.913   4.908   1.852 -1.6958 -1.2598  2.2550
  514MOL0     H69373  10.751   4.743   1.891 -1.0362 -0.4469  0.3335
  514MOL0     H69374   9.536   3.621   1.642 -2.0131  1.8168 -1.6555
  514MOL0     H69375   9.319   3.593   1.519  1.1161  0.5209  0.0890
  514MOL0     H69376   9.041   3.416   1.436 -0.0266  1.0795  0.9358
  514MOL0     H69377   8.799   3.431   1.426 -0.8533 -0.3537 -0.5561
  514MOL0     H69378   8.575   3.520   1.418  2.2621  2.2668 -1.6771
  514MOL0     H69379   8.573   3.366   1.320 -1.5473 -0.9923  0.7152
  514MOL0     H69380   8.380   3.458   1.184 -1.4877  5.0570 -1.6463
  514MOL0     H69381   8.404   3.619   1.269 -1.9058 -0.0052  0.6708
  514MOL0     H69382   8.298   3.538   1.462  1.9318 -2.6360  2.1828
  514MOL0     H69383   8.325   3.371   1.412  3.7345  1.1718  1.7495
  514MOL0     H69384   8.138   3.587   1.269  1.4405 -1.0439 -1.3176
  514MOL0     H69385   8.153   3.440   1.203 -0.5165  0.7635 -1.3792
  514MOL0     H69386   7.868   3.394   1.516  1.3233 -1.0434  0.7590
  514MOL0     H69387   8.816   3.604   1.042 -2.0081 -1.7882 -0.1420
  514MOL0     H69388   9.023   3.681   0.949  1.6073  3.2544  0.3484
  514MOL0     H69389   9.148   3.712   1.072  0.5762 -1.2459  0.4810
  514MOL0     H69390   9.164   3.568   0.974 -0.9704 -1.5967 -0.4813
  515MOL0     O69391   7.042  10.842   6.222 -0.3733 -0.5094  0.7129
  515MOL0     C69392   6.992  10.873   6.332  0.2326  0.1892  0.6711
  515MOL0     O69393   7.041  10.969   6.420  0.1128 -0.3686 -0.3484
  515MOL0     C69394   7.178  10.995   6.427  0.0067  0.1488 -0.0596
  515MOL0     C69395   7.277  10.896   6.404  0.1598 -0.4213 -0.4585
  515MOL0     C69396   7.412  10.926   6.432  0.4047 -0.2579  0.0251
  515MOL0     C69397   7.449  11.061   6.462 -0.3067  0.2015 -0.5107
  515MOL0     O69398   7.576  11.101   6.490  0.1869 -0.0835  1.1339
  515MOL0     C69399   7.666  11.006   6.531 -0.3407 -0.2168 -1.1220
  515MOL0     C69400   7.787  11.069   6.601 -0.4193  0.0104 -0.4461
  515MOL0     C69401   7.889  11.108   6.497  0.0348 -0.9891 -0.2157
  515MOL0     C69402   8.001  11.188   6.558  0.1784  0.0429 -0.8078
  515MOL0     C69403   8.135  11.164   6.482  0.2050 -0.2518 -0.2570
  515MOL0     C69404   8.249  11.247   6.541  0.3431 -0.4921 -0.0302
  515MOL0     C69405   8.370  11.268   6.444 -1.4161 -0.4196  0.2428
  515MOL0     C69406   8.420  11.144   6.373  0.6218 -0.2761 -1.0846
  515MOL0     N69407   8.505  11.053   6.457  0.1697 -0.5519 -0.0054
  515MOL0     C69408   8.627  11.083   6.508 -0.3646 -0.2666  0.4487
  515MOL0     C69409   8.654  10.970   6.580 -0.1108 -0.1198  0.2279
  515MOL0     C69410   8.766  10.951   6.671 -0.2883 -0.0980 -0.5358
  515MOL0     C69411   8.908  10.964   6.616 -0.6744  0.7031  0.2513
  515MOL0     C69412   8.925  10.883   6.485  0.6212  0.2244  0.5279
  515MOL0     C69413   9.060  10.835   6.458 -0.3431 -0.1258 -0.3481
  515MOL0     O69414   9.152  10.945   6.445  0.4261 -0.2731 -0.3605
  515MOL0     C69415   9.286  10.924   6.403 -0.4540  0.4367 -0.0836
  515MOL0     C69416   9.340  10.797   6.379 -0.5531 -1.5393 -0.4124
  515MOL0     C69417   9.476  10.783   6.342  0.2279  0.4255 -0.1363
  515MOL0     C69418   9.561  10.892   6.328  0.4755  0.4760 -0.6289
  515MOL0     C69419   9.707  10.872   6.305  0.5497 -0.1989  0.3563
  515MOL0     O69420   9.777  10.994   6.285 -0.2629  0.9653 -0.4056
  515MOL0     C69421   9.915  11.006   6.263 -0.1235 -0.5008 -0.1654
  515MOL0     C69422  10.008  10.905   6.278 -0.0316 -0.9192 -0.2605
  515MOL0     C69423  10.141  10.944   6.256  0.3424 -0.7836 -1.4042
  515MOL0     C69424  10.180  11.074   6.217  0.5269  0.3612  0.7017
  515MOL0     O69425  10.313  11.104   6.189  0.4633  0.0799  0.3196
  515MOL0     C69426  10.333  11.182   6.074 -0.1529  0.1439  0.1797
  515MOL0     C69427  10.450  11.118   5.996  0.0599  0.2877  0.7634
  515MOL0     C69428  10.586  11.121   6.064  0.0035 -0.1592 -0.4735
  515MOL0     C69429  10.700  11.091   5.967 -0.8741 -0.2694 -0.3666
  515MOL0     C69430  10.704  10.948   5.924 -0.7386 -0.1688 -0.4618
  515MOL0     C69431  10.803  10.920   5.809 -0.2145 -0.1562  0.0263
  515MOL0     C69432  10.956  10.939   5.857 -0.0182 -0.6573 -0.6282
  515MOL0     C69433  11.052  10.900   5.744  0.7393  0.4605 -0.2146
  515MOL0    Cl69434  11.054  11.034   5.619 -0.0902 -0.3088 -0.1301
  515MOL0     C69435  10.085  11.172   6.215 -1.0659  0.0125 -0.0934
  515MOL0     C69436   9.954  11.136   6.224 -0.6689 -0.5436  0.0391
  515MOL0     O69437   9.752  10.754   6.305  0.2947 -0.2263 -0.0926
  515MOL0     C69438   9.507  11.023   6.349 -0.4071  0.3302 -0.3792
  515MOL0     C69439   9.370  11.035   6.383 -0.6443 -0.8510  0.4756
  515MOL0     N69440   8.550  10.881   6.577  0.1380  0.6127  0.1782
  515MOL0     N69441   8.458  10.942   6.510  0.2057 -0.3314 -0.1115
  515MOL0     C69442   7.345  11.160   6.471 -0.5048  0.4775  0.0950
  515MOL0     C69443   7.215  11.127   6.465 -0.0926 -0.0147 -0.2497
  515MOL0     C69444   6.863  10.800   6.364 -0.4597  0.3785 -0.3044
  515MOL0     C69445   6.845  10.674   6.306  0.8246 -1.2677  0.4476
  515MOL0     C69446   6.727  10.607   6.321  0.8882 -0.6424 -0.2317
  515MOL0     C69447   6.631  10.650   6.415 -0.3122 -0.3832 -0.6686
  515MOL0     O69448   6.515  10.586   6.441  0.0934  0.0459 -0.4225
  515MOL0     C69449   6.465  10.487   6.347  0.0473  0.4152 -0.2240
  515MOL0     C69450   6.302  10.472   6.339 -0.4689 -0.2134  0.2122
  515MOL0     C69451   6.245  10.582   6.250  1.2707  0.0836 -0.1918
  515MOL0     C69452   6.091  10.584   6.234 -0.5912  0.5989 -0.0293
  515MOL0     C69453   6.039  10.532   6.103  0.1892  0.5411  1.0222
  515MOL0     C69454   5.990  10.474   6.017  0.3081  0.1578  0.1429
  515MOL0     C69455   6.651  10.770   6.487 -0.7616 -0.4205  0.7372
  515MOL0     C69456   6.771  10.846   6.467  0.9445  0.8177  0.3958
  515MOL0     C69457   6.765  10.986   6.522 -0.6080 -0.0271  0.0829
  515MOL0     H69458   7.250  10.792   6.383  0.6355 -0.3973 -1.2709
  515MOL0     H69459   7.479  10.841   6.428 -2.1586 -2.6215  2.1809
  515MOL0     H69460   7.619  10.931   6.596 -1.9566  0.7285 -1.1338
  515MOL0     H69461   7.713  10.936   6.461  1.0168 -0.8726  0.3953
  515MOL0     H69462   7.829  10.997   6.671 -0.7305  2.4019  2.4018
  515MOL0     H69463   7.751  11.156   6.656  2.4134  0.5282  0.7509
  515MOL0     H69464   7.850  11.169   6.415  1.3041 -1.3140 -1.1117
  515MOL0     H69465   7.924  11.016   6.448 -2.4556 -1.7350 -0.7184
  515MOL0     H69466   7.983  11.296   6.548  0.4679  0.1523 -0.1719
  515MOL0     H69467   8.010  11.156   6.662 -0.2213  0.9800 -0.4735
  515MOL0     H69468   8.158  11.057   6.476  2.2339  0.2165 -1.7578
  515MOL0     H69469   8.125  11.195   6.378 -0.4155  2.8888  0.6513
  515MOL0     H69470   8.207  11.345   6.567 -1.2564 -1.3903  0.9511
  515MOL0     H69471   8.277  11.199   6.635  0.2948  2.1203  1.3940
  515MOL0     H69472   8.457  11.294   6.505 -0.6005  0.5554 -1.2699
  515MOL0     H69473   8.346  11.352   6.378 -0.5312 -1.1732 -1.0802
  515MOL0     H69474   8.338  11.080   6.340  1.3353 -1.5233 -0.4801
  515MOL0     H69475   8.474  11.172   6.281  0.7616 -2.5634 -1.7612
  515MOL0     H69476   8.688  11.170   6.484 -2.3320  0.5144 -2.1891
  515MOL0     H69477   8.758  11.018   6.757  0.1906 -1.6933  0.8047
  515MOL0     H69478   8.757  10.850   6.712  0.8156 -0.8028 -1.9289
  515MOL0     H69479   8.941  11.067   6.604  1.7413 -0.0422 -0.1041
  515MOL0     H69480   8.972  10.919   6.693 -0.3667  1.5518  0.4964
  515MOL0     H69481   8.887  10.947   6.405 -0.7858  0.8026  1.6055
  515MOL0     H69482   8.873  10.787   6.487 -0.4472  0.7440 -0.6834
  515MOL0     H69483   9.058  10.769   6.371 -3.1957  1.7774 -1.8677
  515MOL0     H69484   9.098  10.777   6.543 -2.5815  0.7313  1.3089
  515MOL0     H69485   9.274  10.712   6.396 -5.1488  1.8568  0.7451
  515MOL0     H69486   9.516  10.682   6.346  0.5101  0.5424  0.0825
  515MOL0     H69487   9.983  10.804   6.311  3.0443 -1.2026  1.6257
  515MOL0     H69488  10.226  10.877   6.258  0.9540 -0.0078 -0.4349
  515MOL0     H69489  10.242  11.181   6.013 -0.8890 -1.9213  1.2226
  515MOL0     H69490  10.356  11.287   6.095  0.8376  0.1667 -0.9702
  515MOL0     H69491  10.419  11.016   5.974 -1.0864  0.9324 -0.7823
  515MOL0     H69492  10.453  11.157   5.894  2.7350 -2.0083 -0.1901
  515MOL0     H69493  10.604  11.220   6.107  2.0891 -0.0652 -1.4308
  515MOL0     H69494  10.598  11.049   6.146 -0.9018  1.3666  1.0742
  515MOL0     H69495  10.797  11.105   6.015 -1.8745  0.3078  1.6197
  515MOL0     H69496  10.707  11.154   5.878  0.4563 -0.0367 -0.1077
  515MOL0     H69497  10.605  10.920   5.889 -1.1539  2.9920 -2.2699
  515MOL0     H69498  10.727  10.892   6.015 -3.8401 -1.6433 -0.4751
  515MOL0     H69499  10.805  10.815   5.777  2.0686 -0.2658  0.3060
  515MOL0     H69500  10.776  10.988   5.729 -0.6951  0.1660  0.4608
  515MOL0     H69501  10.988  10.876   5.941  1.0230 -2.6881 -2.4178
  515MOL0     H69502  10.969  11.046   5.876 -4.5129  0.0786 -0.6371
  515MOL0     H69503  11.152  10.899   5.788  0.8908  0.3703 -0.5550
  515MOL0     H69504  11.031  10.801   5.704  3.6656 -0.1756 -0.3966
  515MOL0     H69505  10.109  11.277   6.202  0.3498  0.1449  2.7137
  515MOL0     H69506   9.873  11.204   6.200  0.7093  0.0955 -3.4716
  515MOL0     H69507   9.572  11.109   6.336  0.2764 -0.1048  0.0857
  515MOL0     H69508   9.339  11.137   6.398 -2.2390 -0.3752 -4.3436
  515MOL0     H69509   7.373  11.259   6.506  1.9233 -0.1443  0.0571
  515MOL0     H69510   7.135  11.198   6.485  0.1345  0.2046 -0.1268
  515MOL0     H69511   6.914  10.641   6.228  0.4598 -1.2429  0.1085
  515MOL0     H69512   6.719  10.511   6.270 -1.1981  0.0216 -1.2828
  515MOL0     H69513   6.513  10.396   6.385 -4.1200 -1.9759 -0.0177
  515MOL0     H69514   6.495  10.498   6.242 -0.1377  2.8887 -0.0692
  515MOL0     H69515   6.262  10.488   6.439 -1.1976 -0.9991  0.0602
  515MOL0     H69516   6.279  10.374   6.297  1.7478 -0.8619  0.3786
  515MOL0     H69517   6.298  10.585   6.154 -0.1322  1.7759 -0.9638
  515MOL0     H69518   6.269  10.681   6.291  0.0906  0.4129 -0.2725
  515MOL0     H69519   6.027  10.534   6.307  1.3000  0.5314  1.6384
  515MOL0     H69520   6.068  10.691   6.233  0.5723  0.8732 -1.2757
  515MOL0     H69521   5.948  10.412   5.940  2.3004 -0.4089 -0.5220
  515MOL0     H69522   6.576  10.794   6.561 -1.6525  0.9469 -0.5637
  515MOL0     H69523   6.659  11.012   6.526 -1.4587 -2.7502 -1.6162
  515MOL0     H69524   6.806  10.988   6.623 -1.5406 -3.0573  0.6322
  515MOL0     H69525   6.820  11.057   6.460  2.4470 -2.6663 -0.5375
  516MOL0     O69526   9.147   8.800   4.174 -0.2603 -0.2292 -0.0364
  516MOL0     C69527   9.089   8.701   4.145  0.6421  0.2233 -0.6247
  516MOL0     O69528   9.117   8.625   4.035  0.4295  0.2407  0.5341
  516MOL0     C69529   9.211   8.676   3.945  1.0755 -0.1694 -0.1585
  516MOL0     C69530   9.345   8.637   3.961  0.1354 -0.0168 -0.2435
  516MOL0     C69531   9.450   8.686   3.890  1.0689  0.7773 -0.5310
  516MOL0     C69532   9.420   8.791   3.801  0.8185  0.3853  1.1624
  516MOL0     O69533   9.514   8.857   3.737  0.6367  0.3456 -0.3680
  516MOL0     C69534   9.654   8.825   3.751  0.4511 -0.5265  0.3591
  516MOL0     C69535   9.713   8.912   3.637  0.0525 -0.2583  0.0788
  516MOL0     C69536   9.865   8.914   3.624 -0.2929  0.5344  0.2199
  516MOL0     C69537   9.929   8.775   3.627  0.1786  1.0399 -0.1216
  516MOL0     C69538  10.079   8.784   3.620 -0.0295 -0.4928  0.2226
  516MOL0     C69539  10.142   8.870   3.737  0.1528  0.3195  0.4391
  516MOL0     C69540  10.287   8.842   3.728 -0.7897  0.6751 -0.3091
  516MOL0     C69541  10.354   8.911   3.848  0.6052 -0.1033  0.4096
  516MOL0     N69542  10.500   8.908   3.837  0.9386  0.2999 -0.7434
  516MOL0     C69543  10.569   8.894   3.951  0.1801  0.0714 -0.4737
  516MOL0     C69544  10.689   8.866   3.907  0.7083  0.7118 -0.0093
  516MOL0     C69545  10.800   8.843   3.997 -1.1617  0.7722 -0.4116
  516MOL0     C69546  10.942   8.858   3.927  0.3248  0.0758  0.6166
  516MOL0     C69547  11.048   8.769   3.998 -0.4530 -0.0934 -0.5047
  516MOL0     C69548  11.195   8.789   3.943 -0.1030 -0.6261  0.0540
  516MOL0     O69549  11.240   8.924   3.944  0.0917 -0.1947  0.7529
  516MOL0     C69550  11.374   8.924   3.960  0.3464 -0.0012  0.9751
  516MOL0     C69551  11.422   8.920   4.086 -0.5183  1.5414  0.7994
  516MOL0     C69552  11.560   8.917   4.100  0.0465 -0.7466  0.1750
  516MOL0     C69553  11.649   8.932   3.991 -0.6681  0.9235  0.5726
  516MOL0     C69554  11.793   8.917   4.013 -0.9199  0.1120  0.2434
  516MOL0     O69555  11.881   8.945   3.906 -0.4102  0.5225  0.6113
  516MOL0     C69556  12.017   8.914   3.916 -0.5092 -0.7666 -0.7201
  516MOL0     C69557  12.087   8.813   3.844 -0.2264  1.2297 -0.6296
  516MOL0     C69558  12.226   8.795   3.859  0.2744  0.1487  0.7998
  516MOL0     C69559  12.298   8.884   3.934 -0.2250  0.8039 -0.5987
  516MOL0     O69560  12.434   8.854   3.931 -0.1611  0.3616 -0.1345
  516MOL0     C69561  12.519   8.964   3.946 -0.4359  0.2123 -0.2620
  516MOL0     C69562  12.652   8.898   3.976 -0.6180 -0.1356  0.1240
  516MOL0     C69563  12.713   8.826   3.854 -0.0733  0.2769  0.3625
  516MOL0     C69564  12.843   8.769   3.905  1.0133 -0.4683  0.5099
  516MOL0     C69565  12.923   8.684   3.806 -0.0292  0.2458 -0.4329
  516MOL0     C69566  13.006   8.750   3.701 -0.3851 -0.5895 -0.8226
  516MOL0     C69567  13.053   8.668   3.580  0.3450  0.4076  0.0988
  516MOL0     C69568  13.163   8.740   3.510 -0.4074 -0.2808 -0.4242
  516MOL0    Cl69569  13.246   8.660   3.363 -0.1993  0.5203  0.0748
  516MOL0     C69570  12.236   8.979   4.015  0.7378  0.2476  0.1843
  516MOL0     C69571  12.095   9.000   4.006  0.2599 -0.4529  0.2211
  516MOL0     O69572  11.827   8.901   4.131 -0.6402 -0.3746 -0.0896
  516MOL0     C69573  11.581   8.947   3.862  0.1556 -0.1998 -0.3316
  516MOL0     C69574  11.447   8.945   3.845 -0.4314 -1.0490 -0.3426
  516MOL0     N69575  10.695   8.876   3.767  0.0882  0.5069  0.3111
  516MOL0     N69576  10.576   8.908   3.723 -0.1019  0.2324  0.2157
  516MOL0     C69577   9.287   8.832   3.779  1.4106 -0.5605 -0.5833
  516MOL0     C69578   9.182   8.771   3.852 -0.1213 -0.3864  0.4957
  516MOL0     C69579   8.970   8.657   4.236 -0.5804  0.0254  0.7400
  516MOL0     C69580   8.854   8.609   4.174 -0.1074  0.9116  0.2703
  516MOL0     C69581   8.737   8.589   4.252  0.2300 -0.3270  0.1058
  516MOL0     C69582   8.734   8.619   4.389 -0.0379  0.7949 -0.3269
  516MOL0     O69583   8.619   8.603   4.458  0.4000 -0.2875  0.8571
  516MOL0     C69584   8.622   8.582   4.599 -0.1027  1.0913  0.4144
  516MOL0     C69585   8.581   8.711   4.661  0.1160 -0.5027 -0.5354
  516MOL0     C69586   8.689   8.791   4.743 -0.1965 -0.5151  0.0228
  516MOL0     C69587   8.633   8.895   4.842 -0.3322 -0.5421 -0.7734
  516MOL0     C69588   8.562   8.819   4.947  0.2975  0.1226  0.3449
  516MOL0     C69589   8.492   8.769   5.031 -0.0349 -0.2529  0.3036
  516MOL0     C69590   8.860   8.659   4.444 -0.2751 -0.8314 -0.7642
  516MOL0     C69591   8.978   8.675   4.371 -0.2853 -0.6503 -0.4566
  516MOL0     C69592   9.104   8.681   4.452 -0.3365 -1.0126  0.3328
  516MOL0     H69593   9.369   8.550   4.022  0.9215 -0.1513 -0.7304
  516MOL0     H69594   9.549   8.648   3.913  0.3639 -0.3652  0.7476
  516MOL0     H69595   9.691   8.856   3.848 -3.3479  2.4232  1.1489
  516MOL0     H69596   9.675   8.719   3.738  0.7424 -0.3436 -0.7743
  516MOL0     H69597   9.679   9.016   3.640  1.6846  0.4296 -2.1153
  516MOL0     H69598   9.669   8.870   3.546 -0.9201 -0.2533  0.5356
  516MOL0     H69599   9.904   8.967   3.712 -0.4089  0.2113  0.4718
  516MOL0     H69600   9.887   8.971   3.534 -0.5645  1.3992  0.6939
  516MOL0     H69601   9.903   8.722   3.719 -0.8658  0.7200 -0.5883
  516MOL0     H69602   9.908   8.707   3.544  3.5253 -0.7641  0.3324
  516MOL0     H69603  10.119   8.682   3.613  1.0130  0.0301 -4.0890
  516MOL0     H69604  10.107   8.845   3.534  2.0321  0.8890  1.7687
  516MOL0     H69605  10.123   8.977   3.721 -1.4460 -0.1732 -1.3650
  516MOL0     H69606  10.110   8.814   3.826  0.8458 -0.5067  0.1820
  516MOL0     H69607  10.327   8.881   3.633  3.2385 -0.2909  0.8044
  516MOL0     H69608  10.316   8.736   3.730  0.6875  1.0654 -0.0477
  516MOL0     H69609  10.334   9.019   3.840  4.6334  0.9883  2.6850
  516MOL0     H69610  10.310   8.871   3.940  2.0554 -1.6126  0.4880
  516MOL0     H69611  10.550   8.890   4.057 -0.5463 -1.9807 -0.6285
  516MOL0     H69612  10.802   8.914   4.080  0.9930 -0.3714  0.6079
  516MOL0     H69613  10.793   8.738   4.029 -0.7582  1.1849  1.1444
  516MOL0     H69614  10.932   8.814   3.827  2.2819 -1.5090  1.0450
  516MOL0     H69615  10.980   8.960   3.930  0.6605  0.1314 -2.6385
  516MOL0     H69616  11.023   8.663   3.990 -0.4031 -0.3218  1.8269
  516MOL0     H69617  11.049   8.797   4.103  0.7579  2.9324 -1.1948
  516MOL0     H69618  11.202   8.761   3.837 -1.6841  1.9025 -0.8185
  516MOL0     H69619  11.259   8.713   3.988 -0.4919 -2.0125 -1.6175
  516MOL0     H69620  11.363   8.917   4.178 -0.4292 -1.6448  0.8665
  516MOL0     H69621  11.584   8.915   4.206 -0.8841 -0.4527  0.3997
  516MOL0     H69622  12.038   8.743   3.776 -2.4619  2.0442  0.0589
  516MOL0     H69623  12.256   8.707   3.804 -1.8435  0.2050 -0.5876
  516MOL0     H69624  12.522   9.027   3.856 -3.0027 -0.5433 -0.9521
  516MOL0     H69625  12.489   9.019   4.035 -1.9155 -1.0856  0.0792
  516MOL0     H69626  12.727   8.967   4.014 -0.3367 -1.0574  1.3182
  516MOL0     H69627  12.633   8.824   4.055 -1.2564  0.4164  0.4935
  516MOL0     H69628  12.641   8.750   3.821  0.2186 -0.7328  1.9165
  516MOL0     H69629  12.729   8.888   3.765 -0.9109 -1.2234 -0.8790
  516MOL0     H69630  12.817   8.704   3.989 -2.1513 -2.6103 -1.9057
  516MOL0     H69631  12.903   8.856   3.934 -1.3446  1.5666 -0.2807
  516MOL0     H69632  12.856   8.612   3.759  0.1505 -0.3976  0.2826
  516MOL0     H69633  13.001   8.636   3.865 -1.9466 -0.5236  1.6196
  516MOL0     H69634  12.949   8.839   3.674 -0.3057  0.4222  2.0657
  516MOL0     H69635  13.093   8.778   3.761 -1.3240 -2.0103  1.3113
  516MOL0     H69636  12.965   8.638   3.522 -0.1703 -2.5638  2.1631
  516MOL0     H69637  13.090   8.573   3.620 -0.9686 -0.8869 -1.5982
  516MOL0     H69638  13.127   8.835   3.469  0.8840  1.0652  1.4075
  516MOL0     H69639  13.243   8.770   3.578  0.7788  0.1286 -1.9414
  516MOL0     H69640  12.283   9.045   4.087 -1.6395  0.4275  1.6662
  516MOL0     H69641  12.032   9.068   4.063  1.8290  1.8100 -0.6040
  516MOL0     H69642  11.629   8.976   3.770 -2.2987  0.2222 -1.5592
  516MOL0     H69643  11.397   8.971   3.752  0.2280 -1.3074 -0.7721
  516MOL0     H69644   9.254   8.912   3.714 -1.5983 -0.5163  0.8368
  516MOL0     H69645   9.076   8.796   3.843 -0.1539 -0.7229 -0.0779
  516MOL0     H69646   8.853   8.583   4.069  0.7184  0.2644  0.4211
  516MOL0     H69647   8.646   8.554   4.204 -0.0362  2.4347 -1.6617
  516MOL0     H69648   8.720   8.546   4.633 -0.1924 -0.2424 -0.6848
  516MOL0     H69649   8.555   8.501   4.629  1.7244 -1.2047 -1.4185
  516MOL0     H69650   8.514   8.672   4.738 -0.1743 -1.2696 -1.1598
  516MOL0     H69651   8.528   8.770   4.586 -0.3323  0.7216  0.7041
  516MOL0     H69652   8.752   8.850   4.676 -0.3994 -2.7100 -2.2530
  516MOL0     H69653   8.755   8.727   4.804  1.0582 -0.7745 -1.5517
  516MOL0     H69654   8.718   8.949   4.885 -1.2311  0.2109  0.1205
  516MOL0     H69655   8.563   8.959   4.788 -0.1162 -0.4531 -0.9467
  516MOL0     H69656   8.431   8.712   5.098  0.2840 -1.4470 -0.3896
  516MOL0     H69657   8.868   8.691   4.547  0.6891 -1.2287 -0.7049
  516MOL0     H69658   9.189   8.693   4.384 -2.9115 -5.4950 -4.4709
  516MOL0     H69659   9.089   8.767   4.517 -0.7152  0.4014 -1.5281
  516MOL0     H69660   9.122   8.581   4.494  1.3498 -0.5818  0.6899
  517MOL0     O69661   2.580   6.065  10.609 -1.0866 -0.5522 -0.7078
  517MOL0     C69662   2.538   5.964  10.671 -0.8953 -1.0194 -0.3401
  517MOL0     O69663   2.599   5.846  10.665 -0.0239 -0.4069  0.4775
  517MOL0     C69664   2.717   5.843  10.600 -0.3447 -0.1033  0.6387
  517MOL0     C69665   2.714   5.803  10.465  1.1499  0.0668 -0.4137
  517MOL0     C69666   2.834   5.784  10.399 -0.4596  0.5910 -0.6567
  517MOL0     C69667   2.962   5.808  10.466  0.3157 -0.2069  0.0896
  517MOL0     O69668   3.085   5.789  10.397 -0.1815  0.5954  0.4923
  517MOL0     C69669   3.165   5.903  10.376 -0.2584  0.4654 -0.5659
  517MOL0     C69670   3.305   5.897  10.454  0.6578  0.1194  0.5518
  517MOL0     C69671   3.383   5.765  10.424 -0.8373 -0.5274 -0.0114
  517MOL0     C69672   3.405   5.751  10.270 -0.2385  0.1495 -0.2527
  517MOL0     C69673   3.492   5.873  10.218 -0.3788  0.8536  0.2830
  517MOL0     C69674   3.529   5.852  10.074  0.9024  0.0116  0.5996
  517MOL0     C69675   3.421   5.899   9.973 -0.2769 -0.6693 -0.0248
  517MOL0     C69676   3.476   5.891   9.826  0.2530 -0.3671  0.8745
  517MOL0     N69677   3.574   5.994   9.800 -0.4388 -0.3918  0.1539
  517MOL0     C69678   3.553   6.126   9.791  0.5966  0.3016 -0.0638
  517MOL0     C69679   3.671   6.177   9.752 -0.6064  0.4219  0.3132
  517MOL0     C69680   3.682   6.321   9.727  0.1938 -0.7559  0.2198
  517MOL0     C69681   3.699   6.405   9.850 -0.8643 -0.7643 -0.0798
  517MOL0     C69682   3.767   6.548   9.816  0.6487  0.6926  0.6549
  517MOL0     C69683   3.753   6.660   9.919  0.1436  0.5865  0.4564
  517MOL0     O69684   3.834   6.658  10.037 -0.3393  0.2498 -0.0689
  517MOL0     C69685   3.965   6.648  10.015  0.4946 -0.0815  0.5172
  517MOL0     C69686   4.031   6.710   9.906  0.2471  0.4276  0.5392
  517MOL0     C69687   4.168   6.691   9.887 -0.3124 -0.0328  0.2505
  517MOL0     C69688   4.249   6.619   9.971 -0.2241  0.3056  1.0363
  517MOL0     C69689   4.387   6.583   9.933 -0.4518 -0.3873 -0.4048
  517MOL0     O69690   4.447   6.482  10.011  0.2279 -0.6731 -0.1979
  517MOL0     C69691   4.570   6.443   9.973 -0.2816  0.4499  0.1631
  517MOL0     C69692   4.590   6.391   9.847 -0.4817  0.4096  0.0240
  517MOL0     C69693   4.721   6.353   9.817 -0.7499  0.7098  0.0986
  517MOL0     C69694   4.822   6.348   9.919 -0.2623 -0.4489 -0.5675
  517MOL0     O69695   4.950   6.297   9.901  0.0560 -0.2624  0.0322
  517MOL0     C69696   5.006   6.327   9.771 -0.1939  0.3320  0.1698
  517MOL0     C69697   5.156   6.334   9.791  0.3876 -0.0380 -0.3095
  517MOL0     C69698   5.239   6.333   9.659 -0.4183 -0.5770  0.4692
  517MOL0     C69699   5.386   6.325   9.695  0.4850 -0.0058 -0.1259
  517MOL0     C69700   5.480   6.340   9.581  0.3436 -0.0235 -0.2278
  517MOL0     C69701   5.617   6.344   9.640 -0.1419 -0.8094  0.3209
  517MOL0     C69702   5.719   6.354   9.524 -0.4877 -0.2339 -0.2663
  517MOL0     C69703   5.851   6.330   9.596  0.3899  0.0467 -0.5648
  517MOL0    Cl69704   5.975   6.292   9.481  0.3043  0.2805 -0.2150
  517MOL0     C69705   4.793   6.389  10.041 -0.9861  0.5580  0.8376
  517MOL0     C69706   4.666   6.442  10.069 -0.5082 -1.0029  0.6133
  517MOL0     O69707   4.439   6.629   9.830 -0.7662 -0.6831 -0.0746
  517MOL0     C69708   4.184   6.559  10.080  0.4073  0.7172 -0.9077
  517MOL0     C69709   4.047   6.571  10.100 -0.0509  0.1150  0.9073
  517MOL0     N69710   3.765   6.075   9.735  0.3029  0.0591  0.3708
  517MOL0     N69711   3.705   5.971   9.772  0.0273 -0.3810 -0.0635
  517MOL0     C69712   2.960   5.859  10.599 -0.5773  0.0425  0.0131
  517MOL0     C69713   2.840   5.880  10.660 -0.0491  0.4715  0.3127
  517MOL0     C69714   2.417   5.990  10.752 -0.4947  0.4011 -0.3656
  517MOL0     C69715   2.328   6.095  10.717  0.7422 -0.0052 -0.8027
  517MOL0     C69716   2.212   6.121  10.786  0.1304 -0.2201 -0.7147
  517MOL0     C69717   2.180   6.046  10.894 -0.7168 -1.1507  0.1890
  517MOL0     O69718   2.069   6.068  10.970  0.3072 -0.1063 -0.0623
  517MOL0     C69719   1.970   6.171  10.950 -0.5174  0.8774  0.5274
  517MOL0     C69720   1.834   6.122  10.998  0.6702 -0.2309  0.0331
  517MOL0     C69721   1.825   6.112  11.153  0.8980 -0.2504  0.0370
  517MOL0     C69722   1.694   6.052  11.203  0.0580  0.6405 -0.3124
  517MOL0     C69723   1.655   6.104  11.335 -0.1573 -0.4800  0.2319
  517MOL0     C69724   1.594   6.144  11.436  0.2632 -0.4007 -0.0750
  517MOL0     C69725   2.261   5.935  10.921 -0.1497  1.1072  0.0922
  517MOL0     C69726   2.383   5.908  10.863 -0.0375  0.4953 -0.3421
  517MOL0     C69727   2.448   5.778  10.914  0.1876  0.5962  0.2459
  517MOL0     H69728   2.621   5.782  10.414 -0.0964  1.9748  0.9974
  517MOL0     H69729   2.831   5.758  10.294  3.3318  3.6826 -1.7849
  517MOL0     H69730   3.181   5.906  10.268  0.1181 -0.4517 -0.5432
  517MOL0     H69731   3.110   5.994  10.402 -0.3491  0.1462  0.3948
  517MOL0     H69732   3.273   5.897  10.558 -0.0503  0.2656  0.3397
  517MOL0     H69733   3.363   5.988  10.437 -0.9647  0.9674 -0.6738
  517MOL0     H69734   3.326   5.676  10.454 -0.3284 -0.8528  0.0079
  517MOL0     H69735   3.473   5.751  10.485 -0.4287  0.3268 -0.4105
  517MOL0     H69736   3.467   5.661  10.259 -1.2365 -0.6840  0.7146
  517MOL0     H69737   3.313   5.742  10.212 -0.3172  1.4959 -0.3698
  517MOL0     H69738   3.439   5.964  10.246 -0.8204  0.2141  1.6351
  517MOL0     H69739   3.592   5.878  10.263  0.4371 -2.2815 -0.9501
  517MOL0     H69740   3.627   5.901  10.067  1.7446 -1.3718  1.9202
  517MOL0     H69741   3.564   5.749  10.069  2.3261  0.3221  2.7273
  517MOL0     H69742   3.404   6.004  10.001 -0.5857 -0.8636  0.5409
  517MOL0     H69743   3.323   5.851   9.977 -1.2729  1.2898  0.9323
  517MOL0     H69744   3.512   5.789   9.813 -0.4077 -0.5005 -0.0221
  517MOL0     H69745   3.397   5.900   9.751  1.4414  0.7569 -0.3189
  517MOL0     H69746   3.455   6.173   9.800  0.1843  0.0363 -2.4612
  517MOL0     H69747   3.780   6.331   9.680  0.7477  0.0459  1.4912
  517MOL0     H69748   3.602   6.363   9.665  1.2019 -0.7422 -1.1057
  517MOL0     H69749   3.606   6.431   9.902  1.7397  3.3614  3.1738
  517MOL0     H69750   3.769   6.358   9.919 -0.5121  1.6323  1.3148
  517MOL0     H69751   3.721   6.595   9.729 -0.9125  0.8068  1.5196
  517MOL0     H69752   3.875   6.537   9.797  0.8318  1.6465  1.1053
  517MOL0     H69753   3.649   6.666   9.951 -1.3217  2.2154 -3.8888
  517MOL0     H69754   3.778   6.752   9.865  2.0594 -0.1185  0.0477
  517MOL0     H69755   3.979   6.773   9.834 -0.5571  0.0218  0.7535
  517MOL0     H69756   4.217   6.725   9.796  1.1359 -4.6710 -1.0047
  517MOL0     H69757   4.511   6.383   9.773  1.7169  0.2082 -2.4488
  517MOL0     H69758   4.741   6.310   9.720  0.2801 -1.9171  1.3774
  517MOL0     H69759   4.976   6.243   9.707 -4.2140 -0.2329  2.4375
  517MOL0     H69760   4.969   6.420   9.726  0.1941 -1.0017 -3.2637
  517MOL0     H69761   5.162   6.432   9.839 -0.8680  0.2812 -0.7737
  517MOL0     H69762   5.186   6.251   9.856  0.5541 -0.3739 -0.8075
  517MOL0     H69763   5.218   6.246   9.596  1.0310 -1.2024  0.7981
  517MOL0     H69764   5.217   6.426   9.605  0.3474  3.2461  5.8577
  517MOL0     H69765   5.412   6.225   9.732  3.5458 -0.3321 -2.7535
  517MOL0     H69766   5.409   6.405   9.766 -0.0463  1.0162 -1.0818
  517MOL0     H69767   5.468   6.437   9.533 -0.5893  0.7859  1.5220
  517MOL0     H69768   5.469   6.260   9.507  0.5139 -0.8451  0.6059
  517MOL0     H69769   5.620   6.435   9.701 -0.9247  1.6113 -2.9964
  517MOL0     H69770   5.627   6.255   9.703  0.8403 -1.5335 -0.8110
  517MOL0     H69771   5.714   6.451   9.473 -0.4101 -0.8006 -1.3808
  517MOL0     H69772   5.695   6.271   9.457 -2.1853 -1.4831  1.7614
  517MOL0     H69773   5.883   6.414   9.657  0.1896 -0.4879  0.3020
  517MOL0     H69774   5.836   6.239   9.655 -3.9954 -0.9695 -2.7738
  517MOL0     H69775   4.863   6.365  10.120 -2.9756  2.8226  3.4829
  517MOL0     H69776   4.641   6.473  10.170 -0.7033  0.9170  0.0247
  517MOL0     H69777   4.238   6.499  10.151 -0.5417 -0.6123 -1.2720
  517MOL0     H69778   3.998   6.518  10.181  1.2327 -1.0141  0.9760
  517MOL0     H69779   3.054   5.881  10.649 -0.2679 -0.5414 -0.3022
  517MOL0     H69780   2.826   5.913  10.763 -5.2316  1.6478 -0.4878
  517MOL0     H69781   2.341   6.146  10.622 -2.2391  0.8213 -0.8620
  517MOL0     H69782   2.144   6.201  10.759 -3.6042 -3.2015 -0.9502
  517MOL0     H69783   1.953   6.176  10.842 -0.4250  2.1745  0.5518
  517MOL0     H69784   1.995   6.269  10.994  0.9178  1.4843 -1.4897
  517MOL0     H69785   1.822   6.023  10.954  1.3829 -0.8680  1.2354
  517MOL0     H69786   1.742   6.179  10.982 -0.8147 -2.3395  0.5766
  517MOL0     H69787   1.822   6.210  11.201 -0.2337 -0.2744  0.0484
  517MOL0     H69788   1.911   6.060  11.196  1.5325  0.8986  0.1929
  517MOL0     H69789   1.613   6.079  11.134 -0.7635  0.0801  0.4141
  517MOL0     H69790   1.693   5.944  11.216 -5.0253  0.6669  1.6563
  517MOL0     H69791   1.542   6.188  11.519  2.9140  0.5687  1.2067
  517MOL0     H69792   2.220   5.864  10.993 -2.9981 -1.2051 -3.4188
  517MOL0     H69793   2.387   5.725  10.987  0.3242 -0.0082 -0.0767
  517MOL0     H69794   2.463   5.720  10.823 -1.4904 -1.0706  0.9693
  517MOL0     H69795   2.546   5.797  10.959  1.1396 -1.7907 -0.6640
  518MOL0     O69796   4.933   5.641  10.281  0.7227  0.1665 -0.4016
  518MOL0     C69797   4.855   5.680  10.364  1.0541 -1.2274 -0.0462
  518MOL0     O69798   4.879   5.710  10.499  0.4204  0.2543  0.3934
  518MOL0     C69799   4.999   5.665  10.566  0.1418 -0.9725  0.3241
  518MOL0     C69800   5.028   5.737  10.677 -0.9532 -0.6269 -0.0832
  518MOL0     C69801   5.134   5.699  10.765  0.4800  0.4597 -0.1955
  518MOL0     C69802   5.214   5.589  10.722  0.2185 -0.0854  0.3632
  518MOL0     O69803   5.335   5.544  10.783  0.2353  0.6021 -0.5879
  518MOL0     C69804   5.425   5.630  10.859  0.4514  0.1232  0.3044
  518MOL0     C69805   5.472   5.550  10.982  0.1020  0.3642  0.6628
  518MOL0     C69806   5.605   5.622  11.022  0.4014  0.2759 -0.2105
  518MOL0     C69807   5.649   5.575  11.153 -0.1312  0.4175  0.2233
  518MOL0     C69808   5.787   5.639  11.182 -0.0029 -1.0525  0.2067
  518MOL0     C69809   5.870   5.569  11.284 -0.3556  0.0416  0.2277
  518MOL0     C69810   6.017   5.620  11.276 -0.3864  0.4986  0.7100
  518MOL0     C69811   6.101   5.555  11.398 -0.8266 -0.4817 -0.7356
  518MOL0     N69812   6.247   5.597  11.403  0.1184 -0.8832  0.1350
  518MOL0     C69813   6.341   5.561  11.495  0.2339 -0.3024  0.0495
  518MOL0     C69814   6.456   5.609  11.449  0.0088  0.7575 -0.8116
  518MOL0     C69815   6.575   5.575  11.538 -0.6740 -0.1250 -1.0776
  518MOL0     C69816   6.707   5.559  11.460  0.0227 -0.6262  0.4983
  518MOL0     C69817   6.792   5.443  11.511  0.3229 -0.0092 -0.4989
  518MOL0     C69818   6.868   5.485  11.639 -0.4646 -0.5852  0.1011
  518MOL0     O69819   6.966   5.384  11.673  0.7539 -0.0421  0.1346
  518MOL0     C69820   7.067   5.367  11.579  0.0778  0.4830 -0.2445
  518MOL0     C69821   7.156   5.466  11.531  0.3669  0.4386 -0.8140
  518MOL0     C69822   7.255   5.446  11.443 -0.6032  0.0640 -0.2108
  518MOL0     C69823   7.279   5.315  11.398  0.4074  0.1069  0.1594
  518MOL0     C69824   7.392   5.300  11.297  0.1984  0.1307  0.3468
  518MOL0     O69825   7.447   5.415  11.238  0.5936 -0.6174  0.0280
  518MOL0     C69826   7.572   5.411  11.188  0.1135 -0.2100 -0.5289
  518MOL0     C69827   7.658   5.515  11.234  0.0084  0.8427  0.7354
  518MOL0     C69828   7.790   5.508  11.193  0.3593 -0.2330  1.0530
  518MOL0     C69829   7.839   5.413  11.104  0.2405 -0.2738  0.0704
  518MOL0     O69830   7.966   5.399  11.056  0.4768  0.5712 -0.2063
  518MOL0     C69831   8.076   5.461  11.132 -0.5858  0.3675 -0.1997
  518MOL0     C69832   8.201   5.382  11.086 -0.2504 -0.4070  0.4398
  518MOL0     C69833   8.230   5.410  10.936  1.1886 -0.5900 -0.3111
  518MOL0     C69834   8.323   5.306  10.873  0.0139  0.2226  0.1491
  518MOL0     C69835   8.310   5.311  10.715  0.1601 -0.0326 -0.7120
  518MOL0     C69836   8.407   5.214  10.641 -0.5197 -0.9971 -0.1970
  518MOL0     C69837   8.404   5.227  10.485 -0.6827  0.2297  0.2579
  518MOL0     C69838   8.436   5.084  10.428  0.2691  0.0089  0.4568
  518MOL0    Cl69839   8.599   5.024  10.477  0.8665  0.1160  0.1509
  518MOL0     C69840   7.750   5.320  11.056 -0.4643 -0.5518 -0.2998
  518MOL0     C69841   7.619   5.316  11.094 -0.3022 -1.1658  0.0781
  518MOL0     O69842   7.412   5.185  11.259 -0.3151 -0.0583 -0.2286
  518MOL0     C69843   7.201   5.210  11.449 -0.3177  1.1601 -0.3826
  518MOL0     C69844   7.093   5.235  11.533 -0.2005  1.0685  0.5696
  518MOL0     N69845   6.434   5.675  11.330  0.4556  0.1118  0.8614
  518MOL0     N69846   6.302   5.671  11.303  0.9692  0.2256 -0.6230
  518MOL0     C69847   5.181   5.520  10.598 -0.0927 -0.5093 -0.0146
  518MOL0     C69848   5.069   5.558  10.521 -0.1267  0.2636 -0.4181
  518MOL0     C69849   4.714   5.683  10.321 -0.3191  0.3511  0.9251
  518MOL0     C69850   4.659   5.599  10.231  0.5435 -0.5164 -0.5314
  518MOL0     C69851   4.522   5.596  10.198  0.2891  0.4521  0.2101
  518MOL0     C69852   4.434   5.676  10.262 -1.2159  1.0195 -0.1334
  518MOL0     O69853   4.294   5.672  10.252 -0.1812 -0.3947  0.1569
  518MOL0     C69854   4.223   5.576  10.168  0.4710  0.4597 -0.1904
  518MOL0     C69855   4.072   5.576  10.181 -0.0063  0.6140  0.5927
  518MOL0     C69856   4.010   5.717  10.189 -0.4658 -0.4147 -0.0690
  518MOL0     C69857   3.864   5.705  10.168  0.2065 -0.1659 -0.3604
  518MOL0     C69858   3.800   5.644  10.290 -0.4078  0.4317  0.2262
  518MOL0     C69859   3.764   5.583  10.393  0.7024 -0.7909  0.1576
  518MOL0     C69860   4.485   5.768  10.350 -0.2585 -0.3673 -0.3780
  518MOL0     C69861   4.625   5.770  10.389 -0.5904  0.5884 -0.3339
  518MOL0     C69862   4.657   5.871  10.505  0.3953 -0.2166  0.6789
  518MOL0     H69863   4.970   5.826  10.699  1.6719  1.2379 -0.2515
  518MOL0     H69864   5.164   5.748  10.858  0.4427  0.5994 -0.2566
  518MOL0     H69865   5.511   5.654  10.796  1.0828 -1.6857  0.4339
  518MOL0     H69866   5.379   5.726  10.886 -4.7222 -2.1167  0.6535
  518MOL0     H69867   5.500   5.448  10.955  0.0171 -0.2914  2.8679
  518MOL0     H69868   5.391   5.557  11.055 -0.1413 -4.9174  1.2373
  518MOL0     H69869   5.584   5.728  11.040  0.8460  0.0575  1.7558
  518MOL0     H69870   5.683   5.610  10.946  0.5127  2.3496 -0.4944
  518MOL0     H69871   5.581   5.604  11.234 -1.9475 -3.0847  0.1422
  518MOL0     H69872   5.662   5.466  11.149 -1.1074  0.2389  1.3142
  518MOL0     H69873   5.843   5.640  11.088 -1.6437 -0.0970 -0.8157
  518MOL0     H69874   5.773   5.740  11.222  3.8565 -1.4306  3.0029
  518MOL0     H69875   5.837   5.592  11.385  1.7439 -0.0960  0.9958
  518MOL0     H69876   5.886   5.461  11.274  2.5615  0.4072  0.1057
  518MOL0     H69877   6.026   5.729  11.282 -0.4131  1.0806 -4.7171
  518MOL0     H69878   6.066   5.587  11.184 -1.1141  0.8006  0.2056
  518MOL0     H69879   6.061   5.589  11.494  0.1951  0.0367 -0.4816
  518MOL0     H69880   6.090   5.446  11.395  1.0051 -0.6774 -2.3346
  518MOL0     H69881   6.318   5.501  11.583 -2.1375 -1.5908 -1.3579
  518MOL0     H69882   6.587   5.647  11.619 -2.3008 -1.0726  0.0417
  518MOL0     H69883   6.552   5.482  11.591  0.2086 -0.9917 -2.1364
  518MOL0     H69884   6.680   5.536  11.356 -2.0079  2.4198  0.2242
  518MOL0     H69885   6.768   5.650  11.456  1.1824 -1.4045 -0.7160
  518MOL0     H69886   6.864   5.427  11.430 -0.9971  0.8564 -1.8886
  518MOL0     H69887   6.729   5.356  11.531  1.2333 -0.4650  0.5184
  518MOL0     H69888   6.786   5.502  11.709 -0.2890 -1.0945  0.4362
  518MOL0     H69889   6.919   5.581  11.626 -0.6920 -0.5444 -0.5214
  518MOL0     H69890   7.164   5.565  11.575  4.2888 -0.3220  0.5482
  518MOL0     H69891   7.298   5.537  11.404 -0.3122 -0.3553 -0.8807
  518MOL0     H69892   7.618   5.599  11.289  2.1145  2.2243  0.2983
  518MOL0     H69893   7.859   5.581  11.234 -1.7370  1.2013  2.2292
  518MOL0     H69894   8.066   5.563  11.093 -1.8349  0.8577  1.2883
  518MOL0     H69895   8.059   5.451  11.240  0.4820  0.0614 -0.0532
  518MOL0     H69896   8.285   5.420  11.144 -1.1436  0.3251  1.2817
  518MOL0     H69897   8.186   5.275  11.100  0.1375 -1.1994 -3.8051
  518MOL0     H69898   8.139   5.406  10.876  1.4244  0.5212 -0.7645
  518MOL0     H69899   8.286   5.504  10.932  2.9747 -1.5669  0.2814
  518MOL0     H69900   8.296   5.205  10.907 -0.7658  0.3058 -0.2132
  518MOL0     H69901   8.427   5.329  10.899 -1.0447  3.5023  2.0229
  518MOL0     H69902   8.324   5.412  10.675  0.2165  0.0699 -0.4392
  518MOL0     H69903   8.207   5.282  10.692  0.0555 -0.1625 -0.1056
  518MOL0     H69904   8.510   5.244  10.664 -1.2154  0.8560  0.7018
  518MOL0     H69905   8.392   5.110  10.673  1.1251 -0.3598  3.1854
  518MOL0     H69906   8.482   5.294  10.448 -0.7443 -0.1684 -0.6212
  518MOL0     H69907   8.308   5.266  10.451 -0.5268 -1.8023 -2.9750
  518MOL0     H69908   8.356   5.018  10.463  0.9156  0.0048  2.0386
  518MOL0     H69909   8.435   5.083  10.319  1.8937 -2.8346  0.3762
  518MOL0     H69910   7.793   5.243  10.993  1.5573 -1.1571  1.6735
  518MOL0     H69911   7.549   5.257  11.037 -1.1564  0.1161 -0.2463
  518MOL0     H69912   7.216   5.107  11.418  0.3671  1.1101  0.1029
  518MOL0     H69913   7.028   5.155  11.565 -0.4006  0.2884 -1.6177
  518MOL0     H69914   5.243   5.442  10.554  1.7859 -0.3121  2.0965
  518MOL0     H69915   5.036   5.489  10.444 -1.7461 -0.6354  0.9939
  518MOL0     H69916   4.728   5.525  10.193  1.1131 -0.9124  1.1635
  518MOL0     H69917   4.490   5.517  10.131  2.0178 -0.2820  0.1965
  518MOL0     H69918   4.249   5.473  10.195 -3.2522 -0.5207  0.2120
  518MOL0     H69919   4.259   5.599  10.067  3.4831 -2.0882  0.1693
  518MOL0     H69920   4.041   5.520  10.270  2.7188 -2.6989 -0.3016
  518MOL0     H69921   4.041   5.517  10.094  2.3765  3.7984 -2.7152
  518MOL0     H69922   4.039   5.785  10.109  2.5410 -0.3602  0.9514
  518MOL0     H69923   4.035   5.780  10.275 -0.7958  1.8023 -1.5269
  518MOL0     H69924   3.817   5.803  10.163 -2.9372 -1.5771 -0.6565
  518MOL0     H69925   3.835   5.653  10.076 -2.6545 -1.8844  1.3587
  518MOL0     H69926   3.726   5.520  10.471  0.7462 -0.2328  0.6326
  518MOL0     H69927   4.416   5.829  10.407  1.6733  0.6261  1.0128
  518MOL0     H69928   4.600   5.964  10.518 -2.1743 -1.4792 -0.7654
  518MOL0     H69929   4.636   5.814  10.596  3.2758 -0.6310  1.1881
  518MOL0     H69930   4.758   5.913  10.512  0.0279  0.5569  1.6420
  519MOL0     O69931   8.340   3.581   9.064  0.0085 -0.1889 -0.2301
  519MOL0     C69932   8.327   3.454   9.055  0.1876 -0.4569  0.8228
  519MOL0     O69933   8.427   3.367   9.035 -0.2055  0.3129  0.8402
  519MOL0     C69934   8.540   3.407   8.972 -0.3929 -0.7399 -0.6200
  519MOL0     C69935   8.555   3.488   8.861  0.5890  0.7603 -0.1647
  519MOL0     C69936   8.681   3.517   8.811  0.0489 -0.1333 -0.7675
  519MOL0     C69937   8.797   3.457   8.859 -0.1899  0.6927  0.2428
  519MOL0     O69938   8.917   3.475   8.795 -0.4612 -0.4668  0.7440
  519MOL0     C69939   9.033   3.422   8.859  0.0181 -0.3337  0.3924
  519MOL0     C69940   9.143   3.436   8.752  0.5988  1.2862  0.1983
  519MOL0     C69941   9.283   3.455   8.805  0.7649  0.3390  0.4324
  519MOL0     C69942   9.381   3.468   8.700 -0.1374  0.2279  0.7537
  519MOL0     C69943   9.521   3.490   8.757 -0.3093 -0.0556 -0.1021
  519MOL0     C69944   9.624   3.526   8.649  0.2833 -0.3509 -0.2759
  519MOL0     C69945   9.764   3.542   8.704 -0.3356 -0.2879 -0.0317
  519MOL0     C69946   9.842   3.606   8.595 -0.4982 -0.7265  0.1202
  519MOL0     N69947   9.986   3.599   8.626 -0.1225 -0.7818 -0.2508
  519MOL0     C69948  10.073   3.499   8.626 -0.0808  0.4933 -0.4213
  519MOL0     C69949  10.186   3.544   8.680 -0.0333  0.1704  0.9437
  519MOL0     C69950  10.303   3.460   8.709  0.2613  0.0138 -0.2089
  519MOL0     C69951  10.435   3.526   8.655  0.5555  0.9817 -0.1546
  519MOL0     C69952  10.451   3.534   8.499  0.3811 -0.3341 -0.0826
  519MOL0     C69953  10.591   3.580   8.456 -0.2452 -0.3833 -0.3507
  519MOL0     O69954  10.654   3.675   8.537  0.0964  0.5095 -0.4389
  519MOL0     C69955  10.787   3.697   8.508  1.0853 -0.0638 -0.1442
  519MOL0     C69956  10.837   3.779   8.609 -0.5954 -1.0750  0.9809
  519MOL0     C69957  10.973   3.813   8.606 -1.3813  0.0520  0.5889
  519MOL0     C69958  11.057   3.762   8.496 -0.2759  0.9027  0.7258
  519MOL0     C69959  11.206   3.807   8.482  0.0002  0.1550  0.9652
  519MOL0     O69960  11.273   3.806   8.362 -0.1771  0.1750 -0.3531
  519MOL0     C69961  11.408   3.845   8.350 -0.2430  0.8743 -0.4191
  519MOL0     C69962  11.439   3.920   8.229 -0.3308  0.0113 -0.1258
  519MOL0     C69963  11.574   3.934   8.195 -0.7130 -0.2015  0.3162
  519MOL0     C69964  11.681   3.900   8.280  0.1606 -0.6114  0.0687
  519MOL0     O69965  11.813   3.924   8.253  0.3820 -0.3054 -0.2534
  519MOL0     C69966  11.847   3.978   8.126 -0.0134  0.0216 -0.0686
  519MOL0     C69967  12.002   3.969   8.107  0.2970 -0.1933  0.2181
  519MOL0     C69968  12.069   4.040   8.227  0.3584 -0.1317  0.2772
  519MOL0     C69969  12.214   4.056   8.208  0.2964  0.6975 -0.0868
  519MOL0     C69970  12.280   4.119   8.331 -0.4329  0.3688  0.1064
  519MOL0     C69971  12.429   4.128   8.311 -1.1445 -0.1301 -0.7260
  519MOL0     C69972  12.509   4.006   8.350 -0.0869  0.0872  0.2422
  519MOL0     C69973  12.658   4.023   8.347  0.4433  0.1510 -0.4374
  519MOL0    Cl69974  12.713   4.072   8.189  0.1774 -0.1982 -0.1365
  519MOL0     C69975  11.644   3.837   8.400 -0.1251  0.0518 -0.1271
  519MOL0     C69976  11.511   3.812   8.441 -0.6572  0.1847 -1.0066
  519MOL0     O69977  11.249   3.860   8.581  0.1765  0.2407  0.4218
  519MOL0     C69978  10.992   3.690   8.391 -0.5599 -0.9431 -0.3416
  519MOL0     C69979  10.856   3.659   8.398 -0.0403  0.0343  0.7703
  519MOL0     N69980  10.170   3.683   8.696 -0.4884 -0.0566  0.8948
  519MOL0     N69981  10.051   3.711   8.658  0.0725 -0.3520  0.2958
  519MOL0     C69982   8.782   3.377   8.974 -0.0278  0.0242  0.3821
  519MOL0     C69983   8.655   3.361   9.037 -0.3974  0.4803  0.2507
  519MOL0     C69984   8.190   3.412   9.067  0.1227 -0.1932  0.5531
  519MOL0     C69985   8.167   3.287   9.027  0.2092 -0.7665  0.7685
  519MOL0     C69986   8.031   3.241   9.031  0.0123  0.1291 -0.3613
  519MOL0     C69987   7.920   3.316   9.080 -0.5654  0.4009 -0.8239
  519MOL0     O69988   7.792   3.266   9.057 -0.3090  0.1757 -1.0499
  519MOL0     C69989   7.673   3.339   9.098 -0.0296 -0.2045 -0.8233
  519MOL0     C69990   7.626   3.423   8.982 -1.0485  0.0574 -0.1835
  519MOL0     C69991   7.502   3.518   9.013 -0.0622  0.8212  0.1978
  519MOL0     C69992   7.516   3.646   8.922 -0.6005 -0.8799  0.3835
  519MOL0     C69993   7.400   3.730   8.958 -0.6517 -1.3202  0.0876
  519MOL0     C69994   7.294   3.774   8.988  0.6224 -0.5695 -0.0534
  519MOL0     C69995   7.953   3.434   9.126  0.9941 -0.2194 -0.2203
  519MOL0     C69996   8.082   3.492   9.126 -0.8248  0.1196  0.5481
  519MOL0     C69997   8.090   3.642   9.154  1.0310 -0.1879  0.2904
  519MOL0     H69998   8.463   3.524   8.816  1.9133  1.5830 -2.3494
  519MOL0     H69999   8.695   3.601   8.743  0.4069 -0.0603 -0.6036
  519MOL0     H70000   9.055   3.478   8.951 -0.9212  4.1824 -1.8625
  519MOL0     H70001   9.008   3.316   8.870  0.0268 -0.5407 -1.4262
  519MOL0     H70002   9.121   3.518   8.683  0.8595  2.0878  1.0534
  519MOL0     H70003   9.147   3.345   8.690  0.2897 -0.6421  2.8528
  519MOL0     H70004   9.304   3.367   8.866  0.4569 -0.0317  0.0069
  519MOL0     H70005   9.278   3.544   8.868 -0.8483  0.7240 -0.1918
  519MOL0     H70006   9.375   3.380   8.635 -0.1687  1.7458 -1.4156
  519MOL0     H70007   9.365   3.557   8.638  0.0638  0.9149  1.6636
  519MOL0     H70008   9.524   3.579   8.820  0.8206  0.4226 -0.8062
  519MOL0     H70009   9.558   3.407   8.816 -0.5254  0.8913  1.4214
  519MOL0     H70010   9.624   3.440   8.582  0.2975 -0.8479  0.3526
  519MOL0     H70011   9.596   3.612   8.587 -3.1175  0.2578  1.8848
  519MOL0     H70012   9.807   3.444   8.728 -0.0818 -0.7522 -2.1561
  519MOL0     H70013   9.758   3.610   8.789  0.0929  2.3922 -2.0305
  519MOL0     H70014   9.815   3.563   8.498 -0.3447  0.6593 -0.5714
  519MOL0     H70015   9.804   3.708   8.604 -0.1758 -0.5811 -0.1471
  519MOL0     H70016  10.058   3.393   8.604  1.2052  0.6777 -2.4429
  519MOL0     H70017  10.314   3.446   8.817 -0.6904 -2.0649 -0.3362
  519MOL0     H70018  10.305   3.361   8.662  2.5660  0.2597 -0.7304
  519MOL0     H70019  10.443   3.629   8.690  0.7224  1.3659 -1.2697
  519MOL0     H70020  10.515   3.460   8.690 -0.0077 -0.0913 -0.8203
  519MOL0     H70021  10.374   3.597   8.454  1.0609 -0.5300 -1.5587
  519MOL0     H70022  10.443   3.432   8.460  2.8404  0.0503 -1.8422
  519MOL0     H70023  10.590   3.608   8.351  1.9775 -1.6033 -0.7561
  519MOL0     H70024  10.656   3.492   8.454 -1.9359 -1.6736 -1.9332
  519MOL0     H70025  10.768   3.809   8.687 -0.4320 -3.5930  2.1894
  519MOL0     H70026  11.014   3.873   8.686 -1.8166  2.8614 -1.1845
  519MOL0     H70027  11.361   3.960   8.165  0.8787  1.6285 -0.6638
  519MOL0     H70028  11.600   3.993   8.107 -0.0741  0.5082  0.9733
  519MOL0     H70029  11.808   3.917   8.044  1.2341 -0.3709 -0.3982
  519MOL0     H70030  11.814   4.082   8.121  3.7964  1.7803  3.8265
  519MOL0     H70031  12.025   3.862   8.099  0.9847 -0.0537  0.2250
  519MOL0     H70032  12.046   4.005   8.013  1.8343  1.6263  1.5577
  519MOL0     H70033  12.026   4.139   8.244 -0.7840 -0.4879 -0.3805
  519MOL0     H70034  12.047   3.980   8.316 -0.7611 -0.9414 -0.5096
  519MOL0     H70035  12.229   4.114   8.116 -0.0611 -0.0122 -0.6021
  519MOL0     H70036  12.256   3.955   8.200 -1.1510  0.0363  0.4097
  519MOL0     H70037  12.248   4.079   8.427 -1.1563  3.3539  1.2342
  519MOL0     H70038  12.247   4.224   8.336 -1.6519 -0.0473  1.4844
  519MOL0     H70039  12.441   4.149   8.205 -1.5068  0.9345 -0.5739
  519MOL0     H70040  12.465   4.218   8.362  0.3397 -1.4449  0.6436
  519MOL0     H70041  12.476   3.925   8.285 -1.3703  1.6146 -1.0831
  519MOL0     H70042  12.488   3.978   8.454 -0.2955  0.1466  0.2160
  519MOL0     H70043  12.701   4.095   8.418  2.3467  0.5159 -1.9119
  519MOL0     H70044  12.687   3.925   8.386 -0.7156  0.3247  0.9769
  519MOL0     H70045  11.721   3.816   8.474 -1.5861 -0.9141  1.2004
  519MOL0     H70046  11.500   3.768   8.539  0.8772  3.0752  0.5936
  519MOL0     H70047  11.058   3.655   8.312 -1.5753  1.1509 -2.2294
  519MOL0     H70048  10.816   3.602   8.315 -1.1278 -0.9907  1.9464
  519MOL0     H70049   8.868   3.331   9.021 -0.7716 -1.5665  0.2752
  519MOL0     H70050   8.651   3.306   9.131  1.7973  2.1766  1.4522
  519MOL0     H70051   8.254   3.234   8.988  1.2346  1.7421 -0.5694
  519MOL0     H70052   8.004   3.139   9.004 -3.8850  0.8687  0.2136
  519MOL0     H70053   7.687   3.394   9.192  1.6264 -0.9890 -0.5681
  519MOL0     H70054   7.598   3.264   9.124 -0.3824 -0.0900 -1.5153
  519MOL0     H70055   7.612   3.361   8.893 -0.0025 -0.3204 -0.1058
  519MOL0     H70056   7.712   3.484   8.953 -0.5921 -0.1042  0.8019
  519MOL0     H70057   7.507   3.550   9.118  2.2617  3.1255 -0.4836
  519MOL0     H70058   7.409   3.465   8.992  0.2508  0.9984 -1.8716
  519MOL0     H70059   7.613   3.696   8.935 -0.7757 -0.2075 -0.7519
  519MOL0     H70060   7.517   3.615   8.817  1.4078 -1.7942  0.6201
  519MOL0     H70061   7.196   3.797   9.025  1.2054  0.4385  0.8986
  519MOL0     H70062   7.876   3.497   9.169 -0.7218 -1.0317 -1.9771
  519MOL0     H70063   7.996   3.676   9.198 -0.1469 -0.3748 -1.9034
  519MOL0     H70064   8.165   3.664   9.229  2.0398 -0.2902 -0.6616
  519MOL0     H70065   8.108   3.691   9.058  1.1143  0.1975  0.5017
  520MOL0     O70066   4.154   4.591   8.192 -0.0959  0.1117  0.0873
  520MOL0     C70067   4.079   4.689   8.227 -0.9940 -0.7736  0.4204
  520MOL0     O70068   4.114   4.796   8.297 -0.0205  0.0506  0.6479
  520MOL0     C70069   4.244   4.798   8.336 -0.3754  0.9171  0.1927
  520MOL0     C70070   4.275   4.790   8.472 -0.7566 -0.4101 -0.6375
  520MOL0     C70071   4.405   4.803   8.515 -0.8458 -0.2394 -0.4588
  520MOL0     C70072   4.509   4.842   8.427 -0.2862  0.5208 -0.7390
  520MOL0     O70073   4.635   4.886   8.460 -0.6878 -0.1318  0.2156
  520MOL0     C70074   4.667   4.873   8.598 -0.3657  0.8688  1.2567
  520MOL0     C70075   4.817   4.876   8.639  0.3488 -0.9442 -0.7196
  520MOL0     C70076   4.920   4.799   8.561  0.4553  0.3152 -0.6278
  520MOL0     C70077   5.059   4.836   8.616 -0.3034  0.3506  0.3852
  520MOL0     C70078   5.157   4.748   8.534 -0.3972  0.1291 -0.2156
  520MOL0     C70079   5.297   4.783   8.561  0.0833 -0.6167 -0.0076
  520MOL0     C70080   5.400   4.693   8.486 -0.7952  1.4627  0.0340
  520MOL0     C70081   5.537   4.734   8.526 -0.7897 -0.7481  0.3771
  520MOL0     N70082   5.579   4.854   8.448  0.6213 -0.2084  0.0487
  520MOL0     C70083   5.586   4.860   8.309 -0.3911  0.5792  0.8533
  520MOL0     C70084   5.632   4.982   8.284 -0.7243 -0.6141  0.4793
  520MOL0     C70085   5.661   5.024   8.139  0.1036 -0.4639 -0.5905
  520MOL0     C70086   5.783   5.108   8.122 -0.6412 -1.0865  0.0858
  520MOL0     C70087   5.810   5.162   7.978 -0.3723  0.0251 -0.1914
  520MOL0     C70088   5.959   5.180   7.966 -0.0475 -0.1720 -0.3209
  520MOL0     O70089   6.014   5.052   7.936 -0.2321  0.1334 -0.3311
  520MOL0     C70090   6.154   5.048   7.915  0.6320  0.1257  0.1171
  520MOL0     C70091   6.243   5.143   7.967 -0.1663  0.0918 -0.5323
  520MOL0     C70092   6.378   5.146   7.917 -0.1144 -0.0190 -0.1852
  520MOL0     C70093   6.424   5.045   7.835  0.6246 -0.6100  0.4201
  520MOL0     C70094   6.561   5.038   7.779  0.4137  0.7661 -0.0022
  520MOL0     O70095   6.615   5.158   7.764  0.0454  0.6013  0.2346
  520MOL0     C70096   6.739   5.157   7.701  0.2375  0.5023 -0.0546
  520MOL0     C70097   6.744   5.180   7.558  0.1516 -0.2082  0.1778
  520MOL0     C70098   6.864   5.193   7.489  0.3800  0.1801 -0.4893
  520MOL0     C70099   6.986   5.181   7.566  0.4945  0.5633  0.0809
  520MOL0     O70100   7.117   5.178   7.507 -0.0607 -0.1599 -0.3232
  520MOL0     C70101   7.127   5.254   7.385  0.0657 -0.4817 -0.4470
  520MOL0     C70102   7.262   5.263   7.319 -0.2821 -0.4625  0.0216
  520MOL0     C70103   7.261   5.365   7.202  0.2694 -0.8740  0.3834
  520MOL0     C70104   7.404   5.409   7.156  0.2661 -0.9296 -0.8203
  520MOL0     C70105   7.396   5.546   7.084 -0.7867 -0.1418  0.1477
  520MOL0     C70106   7.299   5.546   6.963  0.1717 -0.1833 -0.8316
  520MOL0     C70107   7.345   5.443   6.856 -0.5234 -0.2705  0.2158
  520MOL0     C70108   7.277   5.466   6.721  0.3832  1.1879 -0.0103
  520MOL0    Cl70109   7.356   5.342   6.619 -0.3641 -0.3640  0.4137
  520MOL0     C70110   6.984   5.167   7.700  0.2496  0.5215 -0.1399
  520MOL0     C70111   6.859   5.152   7.772 -0.1952 -0.2844  0.8686
  520MOL0     O70112   6.602   4.928   7.740 -0.1981  0.2218  0.1840
  520MOL0     C70113   6.330   4.952   7.789  0.3995 -0.4551 -0.7688
  520MOL0     C70114   6.197   4.948   7.825 -0.1790  0.2308  0.1031
  520MOL0     N70115   5.648   5.049   8.402 -0.2334 -0.1171 -0.5304
  520MOL0     N70116   5.616   4.974   8.501  0.7847  0.2056  0.2890
  520MOL0     C70117   4.473   4.859   8.296  0.3434 -0.4457 -0.0970
  520MOL0     C70118   4.348   4.833   8.243 -0.6673  0.0242  0.3307
  520MOL0     C70119   3.932   4.695   8.186  0.1619 -0.2012  0.2264
  520MOL0     C70120   3.845   4.624   8.267 -0.0148 -0.2468 -0.4401
  520MOL0     C70121   3.712   4.614   8.234  0.3134 -0.1276 -0.6390
  520MOL0     C70122   3.658   4.704   8.136  0.7862  0.3476  0.0737
  520MOL0     O70123   3.523   4.700   8.097 -0.6859 -0.0381 -0.3788
  520MOL0     C70124   3.434   4.612   8.164  0.3373  0.2738  0.1243
  520MOL0     C70125   3.297   4.649   8.151 -0.1942  0.4776  0.1640
  520MOL0     C70126   3.201   4.556   8.236 -0.3222 -0.4122 -0.1753
  520MOL0     C70127   3.059   4.596   8.208 -0.7716 -0.4394 -0.5667
  520MOL0     C70128   3.014   4.523   8.091  0.4297 -0.5751 -0.3032
  520MOL0     C70129   2.984   4.458   7.992  0.8185 -0.5137  0.6451
  520MOL0     C70130   3.743   4.796   8.062 -0.0470 -0.7302 -0.0038
  520MOL0     C70131   3.880   4.784   8.087 -0.6350 -0.6250 -0.1591
  520MOL0     C70132   3.977   4.857   7.990  0.1012 -0.2845 -0.9123
  520MOL0     H70133   4.202   4.762   8.547  0.1125  0.9986  0.7847
  520MOL0     H70134   4.421   4.777   8.619 -0.6437  1.6593  0.0156
  520MOL0     H70135   4.591   4.930   8.653  0.5056  1.4284  1.9013
  520MOL0     H70136   4.643   4.770   8.627  1.4005 -0.4628 -1.5985
  520MOL0     H70137   4.818   4.846   8.744 -1.1414  2.5124  0.3942
  520MOL0     H70138   4.844   4.981   8.635  0.8650 -0.9008  2.1852
  520MOL0     H70139   4.908   4.837   8.459 -2.5859  1.1492 -0.0433
  520MOL0     H70140   4.902   4.692   8.579  1.8588  0.5700  3.5585
  520MOL0     H70141   5.077   4.942   8.597 -1.3349  0.2220 -1.6851
  520MOL0     H70142   5.065   4.806   8.721 -0.9317 -2.0193 -0.1790
  520MOL0     H70143   5.124   4.644   8.545  2.5623 -1.0271 -1.2264
  520MOL0     H70144   5.155   4.757   8.425  1.0087 -2.6175 -0.5689
  520MOL0     H70145   5.324   4.886   8.541 -0.9495  0.0293  1.6846
  520MOL0     H70146   5.307   4.787   8.670 -1.9201  1.3991  0.1722
  520MOL0     H70147   5.393   4.706   8.378  3.0258  0.8387 -0.4222
  520MOL0     H70148   5.385   4.587   8.509 -0.3477  1.3416 -0.2308
  520MOL0     H70149   5.539   4.741   8.635  3.8304 -1.3091  0.5289
  520MOL0     H70150   5.612   4.657   8.504 -1.3807 -1.3411  0.3700
  520MOL0     H70151   5.562   4.784   8.235 -1.5529  0.9283  0.8539
  520MOL0     H70152   5.666   4.935   8.076 -2.3911 -0.4848 -0.8697
  520MOL0     H70153   5.582   5.089   8.101  1.1512  1.4735  0.3618
  520MOL0     H70154   5.758   5.191   8.189 -4.2541 -2.7232  1.0396
  520MOL0     H70155   5.874   5.062   8.162 -0.0552 -1.0177 -1.1235
  520MOL0     H70156   5.773   5.262   7.958 -0.6001  0.1951  1.0001
  520MOL0     H70157   5.771   5.088   7.907 -0.5217 -0.1207  0.0393
  520MOL0     H70158   5.996   5.215   8.063 -0.2553  3.0401 -1.2959
  520MOL0     H70159   5.993   5.250   7.889  1.7980 -0.5670  0.0817
  520MOL0     H70160   6.201   5.210   8.041 -1.1402 -1.1214  0.0431
  520MOL0     H70161   6.435   5.232   7.954  0.7505 -0.7800  0.2950
  520MOL0     H70162   6.649   5.192   7.508  0.0183 -1.7521  0.0105
  520MOL0     H70163   6.866   5.209   7.382 -2.1431  3.2619 -0.2240
  520MOL0     H70164   7.055   5.213   7.313 -2.0705 -0.4173  1.5273
  520MOL0     H70165   7.094   5.355   7.408 -0.4859 -0.6179 -0.6082
  520MOL0     H70166   7.342   5.304   7.380 -0.3153  2.3243 -1.6571
  520MOL0     H70167   7.294   5.169   7.272 -0.0086  0.0703 -0.8610
  520MOL0     H70168   7.206   5.326   7.116  0.0366  0.0334  0.1091
  520MOL0     H70169   7.200   5.450   7.236 -2.8567 -1.8396 -2.3047
  520MOL0     H70170   7.443   5.334   7.087  0.0992  0.2498 -2.2570
  520MOL0     H70171   7.475   5.404   7.239 -1.9769 -2.9924  1.1189
  520MOL0     H70172   7.499   5.553   7.051 -0.9159  0.8964 -0.0611
  520MOL0     H70173   7.373   5.631   7.150 -0.6935  0.2296 -0.2978
  520MOL0     H70174   7.193   5.537   6.988 -0.3453  3.6037 -1.1195
  520MOL0     H70175   7.315   5.640   6.911 -1.8527  0.7924  0.1957
  520MOL0     H70176   7.319   5.344   6.894 -5.7367  1.1209  1.1018
  520MOL0     H70177   7.453   5.454   6.848 -0.7147  0.4252 -1.9719
  520MOL0     H70178   7.169   5.451   6.732  0.0992  2.8756 -0.3027
  520MOL0     H70179   7.295   5.566   6.680 -2.6827  1.4321 -0.9991
  520MOL0     H70180   7.080   5.170   7.749  0.8458  1.5123 -1.3089
  520MOL0     H70181   6.871   5.139   7.879 -1.1819  0.1873  1.0472
  520MOL0     H70182   6.368   4.880   7.717  2.8779 -0.8793  0.8326
  520MOL0     H70183   6.125   4.875   7.792 -1.2736  0.8914  0.9540
  520MOL0     H70184   4.551   4.892   8.228  1.3056 -1.4008  0.5110
  520MOL0     H70185   4.330   4.855   8.139 -1.8733 -1.0046  0.2856
  520MOL0     H70186   3.894   4.558   8.339 -0.0267 -0.2408 -0.4264
  520MOL0     H70187   3.652   4.549   8.296  1.4505 -1.3129 -0.7238
  520MOL0     H70188   3.449   4.603   8.272  0.4634 -1.9128 -0.0131
  520MOL0     H70189   3.455   4.517   8.114  0.7954 -0.7821  2.1764
  520MOL0     H70190   3.276   4.655   8.044 -0.6717  1.4123  0.2964
  520MOL0     H70191   3.299   4.755   8.179  1.4842  0.3947  0.4501
  520MOL0     H70192   3.229   4.566   8.342 -0.7495  1.6283 -0.2207
  520MOL0     H70193   3.210   4.449   8.217 -3.4083 -0.5568 -1.3978
  520MOL0     H70194   2.997   4.562   8.291 -2.3597 -1.0517 -1.9346
  520MOL0     H70195   3.047   4.703   8.189  0.2181 -0.1869  0.1472
  520MOL0     H70196   2.961   4.392   7.910 -0.2799  0.7887 -0.1344
  520MOL0     H70197   3.694   4.866   7.995 -1.8733  0.0000  2.0077
  520MOL0     H70198   4.083   4.828   7.993  0.3264  0.4514 -1.6686
  520MOL0     H70199   3.944   4.845   7.887  1.3552 -1.1721 -1.2394
  520MOL0     H70200   3.972   4.962   8.017  2.5395  0.1650 -1.9606
  521MOL0     O70201   9.267   6.939   4.716 -0.9171 -0.1731 -0.3403
  521MOL0     C70202   9.299   7.060   4.731 -0.5248  0.6657  1.3320
  521MOL0     O70203   9.251   7.163   4.656  0.5551 -0.0732 -0.1397
  521MOL0     C70204   9.145   7.151   4.566  0.1642  0.0154  0.7404
  521MOL0     C70205   9.130   7.262   4.490  0.2073 -0.5781 -0.5695
  521MOL0     C70206   9.040   7.274   4.389 -0.5018  0.5983  0.0949
  521MOL0     C70207   8.948   7.168   4.366 -0.6002 -1.1458 -0.3241
  521MOL0     O70208   8.866   7.182   4.261  0.3675  0.0689 -0.0273
  521MOL0     C70209   8.739   7.118   4.272 -0.7371 -0.7405 -0.4947
  521MOL0     C70210   8.637   7.169   4.172  0.3667  0.2752  0.1590
  521MOL0     C70211   8.526   7.057   4.140 -1.0777  0.1290  0.5220
  521MOL0     C70212   8.445   7.096   4.014  0.0778 -0.2086 -0.3795
  521MOL0     C70213   8.358   7.224   4.029  0.2186 -0.0002 -0.2670
  521MOL0     C70214   8.215   7.193   4.086 -0.6360  0.7113  0.1478
  521MOL0     C70215   8.128   7.316   4.090  0.1015  0.0774 -0.6362
  521MOL0     C70216   8.165   7.414   4.203 -0.5241 -0.0359 -0.7524
  521MOL0     N70217   8.149   7.369   4.346 -0.3866 -0.5146  0.0360
  521MOL0     C70218   8.027   7.370   4.416  0.5956 -0.3111 -0.2479
  521MOL0     C70219   8.059   7.340   4.540 -0.2112 -0.2410 -0.0622
  521MOL0     C70220   7.973   7.349   4.667 -0.0821  0.9533 -0.9041
  521MOL0     C70221   7.837   7.274   4.644 -0.2072  0.6306 -0.0383
  521MOL0     C70222   7.753   7.259   4.770  0.4631  0.2127  0.6907
  521MOL0     C70223   7.664   7.382   4.792  0.8130  0.8547  0.0738
  521MOL0     O70224   7.722   7.507   4.841 -0.4700 -0.7591  0.3149
  521MOL0     C70225   7.806   7.496   4.952 -0.4966 -0.0608  0.2212
  521MOL0     C70226   7.779   7.410   5.058 -0.3943 -0.2548 -0.0537
  521MOL0     C70227   7.869   7.398   5.166  1.2920 -0.6092  0.0463
  521MOL0     C70228   7.983   7.474   5.165 -0.5545 -0.3220  0.1932
  521MOL0     C70229   8.081   7.448   5.270 -0.0198 -0.4642  0.2502
  521MOL0     O70230   8.098   7.319   5.301  0.0732 -0.4838  0.0401
  521MOL0     C70231   8.176   7.277   5.405  0.4855 -0.4569  0.4494
  521MOL0     C70232   8.309   7.317   5.417 -0.8666  1.1576  0.0831
  521MOL0     C70233   8.381   7.289   5.537  0.7197 -0.5535  0.3225
  521MOL0     C70234   8.311   7.232   5.645  0.2402 -0.6729  0.7267
  521MOL0     O70235   8.388   7.208   5.760  0.1976  0.6234  0.6522
  521MOL0     C70236   8.321   7.151   5.873 -0.2359 -1.1607  0.4756
  521MOL0     C70237   8.433   7.116   5.969 -0.5459 -0.8648  0.5356
  521MOL0     C70238   8.394   7.074   6.107  0.5673 -0.1493 -0.1802
  521MOL0     C70239   8.502   7.070   6.212  0.0086  0.6777 -0.0105
  521MOL0     C70240   8.555   7.207   6.247 -0.0697  0.5080 -0.0070
  521MOL0     C70241   8.649   7.198   6.368  0.4170 -0.0674  0.0504
  521MOL0     C70242   8.696   7.336   6.419  0.6880  0.0074  0.4006
  521MOL0     C70243   8.800   7.400   6.318  1.3825 -0.2220 -0.3719
  521MOL0    Cl70244   8.903   7.537   6.375 -0.3560 -0.5224  0.2480
  521MOL0     C70245   8.172   7.199   5.631  0.4107  0.6070 -0.4076
  521MOL0     C70246   8.109   7.220   5.513  0.8018 -0.1198 -0.3329
  521MOL0     O70247   8.125   7.546   5.338  0.1978 -0.6629 -0.6920
  521MOL0     C70248   8.009   7.577   5.074  0.0429  0.6351  0.4116
  521MOL0     C70249   7.917   7.591   4.973 -1.3034 -0.8751  0.4568
  521MOL0     N70250   8.192   7.314   4.558 -0.2988 -0.4111 -0.5709
  521MOL0     N70251   8.244   7.342   4.446  0.5475 -0.5259  0.3123
  521MOL0     C70252   8.959   7.058   4.448  0.4086  0.1251  0.0577
  521MOL0     C70253   9.066   7.040   4.542 -1.6844 -0.4842  0.2248
  521MOL0     C70254   9.390   7.086   4.846 -0.1930 -0.4656  0.5494
  521MOL0     C70255   9.411   6.975   4.930  0.6231 -0.5566 -0.1733
  521MOL0     C70256   9.493   6.991   5.040 -0.7772 -0.6040  0.3675
  521MOL0     C70257   9.553   7.111   5.069 -0.0955  0.0104  0.4024
  521MOL0     O70258   9.608   7.138   5.188 -0.2363 -0.6377 -0.0556
  521MOL0     C70259   9.621   7.033   5.283  0.4964 -0.1750 -0.5069
  521MOL0     C70260   9.693   7.084   5.409 -0.4382 -0.3548 -0.1118
  521MOL0     C70261   9.589   7.080   5.523 -0.2604 -0.3346  0.6182
  521MOL0     C70262   9.634   7.183   5.621  0.8374 -0.7279 -1.0239
  521MOL0     C70263   9.553   7.155   5.736  0.1451 -0.0400  0.3008
  521MOL0     C70264   9.475   7.105   5.822 -0.3654  0.9479 -0.2517
  521MOL0     C70265   9.531   7.219   4.986  0.2712 -0.5066  0.5925
  521MOL0     C70266   9.454   7.209   4.868 -0.1180 -0.1918  0.0840
  521MOL0     C70267   9.435   7.327   4.780 -0.4952 -0.2894 -0.2332
  521MOL0     H70268   9.192   7.343   4.525 -0.0696 -0.2509 -0.8372
  521MOL0     H70269   9.031   7.359   4.322  1.3533  2.7369  2.3069
  521MOL0     H70270   8.762   7.014   4.246 -2.2699 -1.7222  1.7515
  521MOL0     H70271   8.694   7.118   4.372 -0.0224 -1.7603 -0.1645
  521MOL0     H70272   8.690   7.194   4.079  0.2830 -3.5899 -1.1422
  521MOL0     H70273   8.590   7.262   4.203  0.8821  1.4130 -2.2156
  521MOL0     H70274   8.464   7.054   4.231 -0.3868 -1.6881  0.9833
  521MOL0     H70275   8.575   6.960   4.124 -3.7010 -1.1523 -0.3258
  521MOL0     H70276   8.514   7.114   3.931  0.9239 -0.1618  0.3210
  521MOL0     H70277   8.391   7.007   3.980  1.4182 -0.5095 -1.8485
  521MOL0     H70278   8.402   7.289   4.105  2.4245 -1.9599  0.2575
  521MOL0     H70279   8.344   7.276   3.933 -0.3432 -0.5873 -0.5069
  521MOL0     H70280   8.171   7.126   4.012 -3.0804 -0.5817  2.5686
  521MOL0     H70281   8.232   7.125   4.171  1.2511 -1.5814 -1.9341
  521MOL0     H70282   8.027   7.281   4.113  1.0987 -1.2812  2.1276
  521MOL0     H70283   8.130   7.370   3.995 -0.0465 -2.5287 -2.2170
  521MOL0     H70284   8.270   7.443   4.202 -0.3602 -0.6452 -1.8200
  521MOL0     H70285   8.103   7.503   4.187 -0.3271  0.4883  1.1611
  521MOL0     H70286   7.929   7.399   4.380  0.0628 -0.2066  1.2552
  521MOL0     H70287   8.011   7.323   4.766  0.8759  0.6479 -1.3422
  521MOL0     H70288   7.938   7.451   4.684 -0.8457  0.4534  0.8047
  521MOL0     H70289   7.780   7.320   4.562 -3.0453 -4.5729 -1.4149
  521MOL0     H70290   7.853   7.171   4.611 -3.8899 -0.3834  0.9635
  521MOL0     H70291   7.816   7.248   4.859  0.2501  0.7566  0.9126
  521MOL0     H70292   7.690   7.172   4.751  3.5510 -1.6904 -1.9092
  521MOL0     H70293   7.588   7.355   4.866 -0.0477  0.2091 -1.0100
  521MOL0     H70294   7.616   7.413   4.699 -1.1536 -2.5106 -0.1576
  521MOL0     H70295   7.687   7.353   5.056 -1.1653  0.8032  2.0402
  521MOL0     H70296   7.853   7.344   5.258 -1.3417 -1.8761 -1.0480
  521MOL0     H70297   8.365   7.373   5.343  1.1236 -1.7815 -0.8644
  521MOL0     H70298   8.480   7.321   5.569 -0.0476  2.1964  0.2289
  521MOL0     H70299   8.252   7.230   5.903  1.0143  0.3597 -0.5183
  521MOL0     H70300   8.270   7.058   5.847 -0.0450 -0.6104 -2.0410
  521MOL0     H70301   8.481   7.032   5.917 -0.4570  1.2321 -3.1695
  521MOL0     H70302   8.513   7.191   5.967  0.5897 -2.0162  1.2334
  521MOL0     H70303   8.320   7.145   6.145  2.7657  0.6699  2.9125
  521MOL0     H70304   8.354   6.972   6.101 -3.0619  1.1684 -1.5080
  521MOL0     H70305   8.586   7.006   6.182  1.7296  1.6377  2.3744
  521MOL0     H70306   8.459   7.022   6.300 -1.6875 -1.2617 -1.7901
  521MOL0     H70307   8.473   7.280   6.259 -0.4067  0.1169  0.1004
  521MOL0     H70308   8.627   7.247   6.176  3.0152 -1.7448  1.6362
  521MOL0     H70309   8.596   7.150   6.450 -2.4062 -1.4914 -2.4563
  521MOL0     H70310   8.736   7.134   6.350 -1.2322 -2.5887  0.6840
  521MOL0     H70311   8.745   7.321   6.515  2.3678  0.6401 -0.3190
  521MOL0     H70312   8.614   7.403   6.448  1.5191 -0.0259  3.0700
  521MOL0     H70313   8.868   7.323   6.280 -0.6287 -1.9474 -0.6258
  521MOL0     H70314   8.744   7.441   6.233 -0.2904  0.4823  1.0135
  521MOL0     H70315   8.122   7.137   5.705  2.3234 -1.2974 -0.6164
  521MOL0     H70316   8.006   7.187   5.502  1.6372 -2.3466 -2.5282
  521MOL0     H70317   8.100   7.635   5.081 -0.0799  1.1923 -1.7148
  521MOL0     H70318   7.950   7.654   4.890  0.4356 -2.2556  0.0357
  521MOL0     H70319   8.892   6.975   4.434  1.0077 -0.6508  1.6357
  521MOL0     H70320   9.055   6.948   4.597 -1.3840  0.2903  1.6280
  521MOL0     H70321   9.351   6.886   4.910  1.9418 -1.6948  0.7792
  521MOL0     H70322   9.476   6.901   5.098  0.6806 -1.1146  0.0423
  521MOL0     H70323   9.682   6.960   5.230 -1.1201 -1.1723 -1.0685
  521MOL0     H70324   9.523   6.991   5.305 -0.4143  1.9500 -0.2325
  521MOL0     H70325   9.725   7.186   5.386  3.2056 -0.9498  1.5278
  521MOL0     H70326   9.773   7.016   5.441  0.3175  0.3027 -0.5558
  521MOL0     H70327   9.577   6.982   5.570 -0.4290 -0.1576  0.9436
  521MOL0     H70328   9.487   7.108   5.495  0.3847  0.2397 -1.2819
  521MOL0     H70329   9.738   7.193   5.652  0.3500 -0.5801  0.6908
  521MOL0     H70330   9.614   7.283   5.584 -2.5800 -0.7098  0.4885
  521MOL0     H70331   9.404   7.060   5.889 -2.0208  3.4146 -0.2091
  521MOL0     H70332   9.574   7.315   5.012  1.0197 -0.1321 -1.7852
  521MOL0     H70333   9.493   7.412   4.818  1.5405 -1.0016 -1.5625
  521MOL0     H70334   9.470   7.303   4.679  1.3690 -1.5433  0.6469
  521MOL0     H70335   9.329   7.352   4.773 -0.5916 -0.8542 -0.9701
  522MOL0     O70336   7.478   0.951  10.410  0.0748  0.1199  0.0524
  522MOL0     C70337   7.452   1.070  10.399 -0.6305 -0.0582  0.0464
  522MOL0     O70338   7.546   1.174  10.394  0.6364  0.3295  0.4117
  522MOL0     C70339   7.675   1.141  10.381 -0.1982  0.0366  0.4261
  522MOL0     C70340   7.771   1.176  10.486  0.3612  0.0318 -0.0589
  522MOL0     C70341   7.904   1.138  10.467 -0.1108 -0.2363  0.1156
  522MOL0     C70342   7.942   1.067  10.353  0.8813  0.2815  0.0867
  522MOL0     O70343   8.070   1.038  10.322 -0.4755  0.6218 -0.3893
  522MOL0     C70344   8.166   1.073  10.421 -0.3726 -0.1944  0.9080
  522MOL0     C70345   8.305   1.033  10.387 -0.7150 -0.0646 -0.1136
  522MOL0     C70346   8.353   1.096  10.252 -0.3129  0.4359  0.1718
  522MOL0     C70347   8.508   1.093  10.250 -0.0071 -0.0672 -0.1289
  522MOL0     C70348   8.565   1.169  10.125 -0.3326 -0.1657  0.2359
  522MOL0     C70349   8.716   1.158  10.134  0.9295  0.7962 -0.6367
  522MOL0     C70350   8.787   1.239  10.030 -0.9176  0.2675 -0.2128
  522MOL0     C70351   8.725   1.375  10.008 -0.2829 -0.1491 -0.5804
  522MOL0     N70352   8.824   1.451   9.925  0.2231  0.6309 -0.1160
  522MOL0     C70353   8.952   1.480   9.952 -1.0025  0.4397  0.3194
  522MOL0     C70354   9.011   1.535   9.841 -0.4031  0.4203  0.3260
  522MOL0     C70355   9.152   1.576   9.828 -0.6523  0.2030 -0.0110
  522MOL0     C70356   9.184   1.696   9.731 -1.4328  0.4163  0.2013
  522MOL0     C70357   9.321   1.765   9.774  0.4188  0.2124  1.2524
  522MOL0     C70358   9.393   1.827   9.659  0.0437 -0.0952 -0.3946
  522MOL0     O70359   9.533   1.875   9.697 -0.0573  0.2951 -0.5638
  522MOL0     C70360   9.610   1.934   9.597 -0.0939 -0.6327  0.4360
  522MOL0     C70361   9.578   1.957   9.463  0.6769  0.4195  0.0895
  522MOL0     C70362   9.667   2.027   9.382 -0.1256 -0.2345  0.0809
  522MOL0     C70363   9.786   2.079   9.432  0.6899 -0.3809  0.0419
  522MOL0     C70364   9.879   2.151   9.352 -0.7182  1.0107 -0.3890
  522MOL0     O70365   9.981   2.205   9.418 -0.4801 -0.3281  0.0796
  522MOL0     C70366  10.092   2.243   9.344  0.3211  0.0628  0.3417
  522MOL0     C70367  10.138   2.379   9.355 -0.1935  0.0998 -0.6747
  522MOL0     C70368  10.260   2.422   9.293 -0.2981  0.5011 -0.3637
  522MOL0     C70369  10.325   2.339   9.205 -0.1061  0.3537  0.5128
  522MOL0     O70370  10.432   2.381   9.134  0.3213  0.2786 -0.0786
  522MOL0     C70371  10.419   2.401   8.989 -0.6808  0.8155  0.1674
  522MOL0     C70372  10.455   2.547   8.957  0.5580  0.9451 -0.5851
  522MOL0     C70373  10.342   2.632   8.902 -0.0766  0.5732 -0.3727
  522MOL0     C70374  10.373   2.784   8.917 -0.5432  0.2070  0.2575
  522MOL0     C70375  10.365   2.840   9.061 -0.0537  0.1265  0.6834
  522MOL0     C70376  10.394   2.989   9.077 -0.0123  0.4328 -0.0291
  522MOL0     C70377  10.411   3.042   9.220 -0.5665  0.3097  0.6387
  522MOL0     C70378  10.503   3.164   9.212 -0.0130 -0.8118  0.3312
  522MOL0    Cl70379  10.428   3.297   9.118 -0.2343  0.0508 -0.2805
  522MOL0     C70380  10.282   2.208   9.182 -0.3102  0.8247 -0.9464
  522MOL0     C70381  10.166   2.158   9.248  0.3936  0.6912  0.7094
  522MOL0     O70382   9.853   2.152   9.227  0.0445  0.1538 -0.0855
  522MOL0     C70383   9.821   2.053   9.565 -0.2076  0.2798 -0.5766
  522MOL0     C70384   9.727   1.983   9.642 -0.0836 -0.9290 -0.5674
  522MOL0     N70385   8.910   1.546   9.747 -0.5899 -0.8049 -0.4222
  522MOL0     N70386   8.800   1.494   9.798  0.3828 -0.4263  0.6197
  522MOL0     C70387   7.853   1.024  10.260 -0.4670 -0.3637  0.3077
  522MOL0     C70388   7.721   1.069  10.277  0.4979  0.3307 -0.1617
  522MOL0     C70389   7.309   1.110  10.380  0.5738 -0.8681 -0.2535
  522MOL0     C70390   7.279   1.250  10.403 -0.8660  0.0474  0.0630
  522MOL0     C70391   7.151   1.301  10.385  0.5575  1.0295 -0.5995
  522MOL0     C70392   7.056   1.225  10.329  0.4425  0.2178  0.2057
  522MOL0     O70393   6.935   1.289  10.295  0.2850  0.5047  0.7456
  522MOL0     C70394   6.870   1.241  10.173 -0.2690  0.1093  0.4552
  522MOL0     C70395   6.751   1.325  10.151  0.4776 -1.5002  0.6120
  522MOL0     C70396   6.785   1.471  10.130  0.0655  0.3638  1.0910
  522MOL0     C70397   6.682   1.565  10.061  0.1035  0.2424 -0.5220
  522MOL0     C70398   6.544   1.552  10.116  0.4762 -1.0296  0.1475
  522MOL0     C70399   6.435   1.539  10.157 -0.0627 -0.2199 -0.6407
  522MOL0     C70400   7.073   1.089  10.314 -0.3160 -0.4491  1.1383
  522MOL0     C70401   7.198   1.027  10.345 -0.0678  0.2974  0.6653
  522MOL0     C70402   7.212   0.878  10.324  0.6480  0.1379 -0.5250
  522MOL0     H70403   7.730   1.228  10.571  0.5999 -2.8518  1.9554
  522MOL0     H70404   7.971   1.205  10.519  1.8730 -0.9498 -1.4017
  522MOL0     H70405   8.169   1.181  10.436  4.6663  0.2878 -1.5253
  522MOL0     H70406   8.120   1.028  10.509 -1.8942  1.6956  1.1411
  522MOL0     H70407   8.308   0.924  10.383  2.0617 -0.0061 -1.7110
  522MOL0     H70408   8.367   1.069  10.469 -2.2632 -0.5372  1.3229
  522MOL0     H70409   8.329   1.203  10.254  2.0796  1.0607 -0.6103
  522MOL0     H70410   8.313   1.046  10.164  0.8567 -3.0476  1.4430
  522MOL0     H70411   8.536   1.140  10.344  1.7567 -1.6959  0.2349
  522MOL0     H70412   8.549   0.991  10.257  0.2758  0.0911  0.5760
  522MOL0     H70413   8.528   1.132  10.029  1.1249  0.1231 -0.4571
  522MOL0     H70414   8.539   1.274  10.133  1.2220  0.2114  0.7027
  522MOL0     H70415   8.738   1.207  10.229 -2.5290  5.9566 -2.0440
  522MOL0     H70416   8.747   1.053  10.136 -0.1038  0.4570 -1.4360
  522MOL0     H70417   8.778   1.190   9.933 -3.5914  3.3130 -1.6794
  522MOL0     H70418   8.893   1.237  10.059 -0.6664  0.4408 -1.1056
  522MOL0     H70419   8.626   1.364   9.964 -0.0002 -1.9978 -0.8186
  522MOL0     H70420   8.714   1.431  10.102  0.3115  1.4283 -1.4045
  522MOL0     H70421   9.017   1.451  10.034  0.0737  2.2437  0.1504
  522MOL0     H70422   9.191   1.607   9.925 -2.5257  0.8288  0.5803
  522MOL0     H70423   9.215   1.491   9.801  2.2111  1.4224  2.3312
  522MOL0     H70424   9.184   1.667   9.625 -3.2334  1.3912 -0.1028
  522MOL0     H70425   9.095   1.758   9.738 -1.5457  0.2756  0.0283
  522MOL0     H70426   9.381   1.685   9.817 -0.1756  0.9827  3.6705
  522MOL0     H70427   9.299   1.847   9.844 -0.8131  2.9313 -2.0194
  522MOL0     H70428   9.330   1.915   9.642 -0.6668 -0.2643  1.1890
  522MOL0     H70429   9.406   1.760   9.574  2.9282 -1.2432  0.8494
  522MOL0     H70430   9.484   1.921   9.422  1.0863 -1.7769  0.9565
  522MOL0     H70431   9.633   2.052   9.282 -0.6867 -3.9721 -0.8182
  522MOL0     H70432  10.072   2.451   9.401  1.6229  1.5226 -0.1771
  522MOL0     H70433  10.294   2.524   9.308 -0.2579  0.8342 -2.3974
  522MOL0     H70434  10.494   2.338   8.941 -0.9102  0.1067  0.7216
  522MOL0     H70435  10.321   2.370   8.950  0.8599 -0.8625 -2.7101
  522MOL0     H70436  10.500   2.591   9.047 -0.5692  0.9686 -0.0133
  522MOL0     H70437  10.528   2.556   8.876  1.8291  0.4145  0.4624
  522MOL0     H70438  10.324   2.605   8.798 -1.4166 -2.2771  0.5001
  522MOL0     H70439  10.250   2.619   8.960 -0.2323 -2.0238 -1.1003
  522MOL0     H70440  10.301   2.840   8.855  1.3328 -1.5209 -3.8578
  522MOL0     H70441  10.472   2.807   8.877 -0.3476 -0.7503  0.1812
  522MOL0     H70442  10.432   2.783   9.127 -0.3572 -1.5363 -0.3752
  522MOL0     H70443  10.263   2.825   9.098 -0.7283  1.0134 -0.7465
  522MOL0     H70444  10.485   2.997   9.016  0.9137  0.9738  1.3728
  522MOL0     H70445  10.317   3.037   9.016 -0.6528 -2.2172 -1.4898
  522MOL0     H70446  10.460   2.967   9.283 -1.7689  0.8138  2.2445
  522MOL0     H70447  10.311   3.064   9.258 -1.1238 -1.9392  0.6049
  522MOL0     H70448  10.537   3.187   9.313  0.2108 -3.2644  0.8786
  522MOL0     H70449  10.596   3.137   9.162  0.3514  2.8220 -1.2844
  522MOL0     H70450  10.335   2.150   9.107 -0.4853  0.2274 -0.6080
  522MOL0     H70451  10.143   2.058   9.213 -0.1185  0.1819  2.3870
  522MOL0     H70452   9.915   2.088   9.605 -1.4908  2.4617  0.7653
  522MOL0     H70453   9.749   1.961   9.746  0.9796  1.9147 -0.0919
  522MOL0     H70454   7.863   0.962  10.172 -3.5640 -1.6206  0.7190
  522MOL0     H70455   7.655   1.033  10.199 -0.0465 -2.5688  1.4904
  522MOL0     H70456   7.353   1.322  10.439  0.4775 -1.8562  1.2825
  522MOL0     H70457   7.136   1.405  10.411 -1.2237  1.4038 -2.8561
  522MOL0     H70458   6.850   1.134  10.178  2.8062 -0.5071  1.4435
  522MOL0     H70459   6.942   1.250  10.092  0.6259  1.4348  1.3558
  522MOL0     H70460   6.683   1.311  10.234  0.6793 -0.0606  1.0500
  522MOL0     H70461   6.708   1.293  10.056  1.9374  0.9790 -1.0041
  522MOL0     H70462   6.879   1.471  10.074 -0.2251 -4.0953  0.2118
  522MOL0     H70463   6.801   1.516  10.228  1.5897  2.2843  0.0273
  522MOL0     H70464   6.693   1.674  10.064 -0.2415  0.2792 -0.6094
  522MOL0     H70465   6.674   1.553   9.953  1.6910  0.0435 -0.6421
  522MOL0     H70466   6.332   1.523  10.181  0.5463  0.0634  2.5700
  522MOL0     H70467   6.993   1.023  10.282 -0.4427 -0.1651  0.8642
  522MOL0     H70468   7.276   0.826  10.395 -0.1857 -1.1383 -0.6653
  522MOL0     H70469   7.120   0.820  10.316 -0.2398  1.7121 -2.7866
  522MOL0     H70470   7.260   0.852  10.229  0.1836  0.7311 -0.9340
  523MOL0     O70471   4.837   4.575   1.464  0.3277 -0.4250  0.0283
  523MOL0     C70472   4.820   4.609   1.582  0.8188  0.1838 -0.3472
  523MOL0     O70473   4.904   4.690   1.646  0.0458  0.2372 -0.2268
  523MOL0     C70474   5.027   4.735   1.599  1.0939  0.1642  0.9824
  523MOL0     C70475   5.077   4.851   1.664  0.6626  0.7303  0.3892
  523MOL0     C70476   5.200   4.901   1.638 -0.5451  0.1674  0.2840
  523MOL0     C70477   5.273   4.871   1.533  0.3974  1.5644 -0.8345
  523MOL0     O70478   5.386   4.946   1.504  0.2039  0.8068 -0.0727
  523MOL0     C70479   5.436   4.934   1.370  0.0103 -0.5993  0.1090
  523MOL0     C70480   5.560   5.022   1.351  0.4219 -0.0549 -1.0930
  523MOL0     C70481   5.524   5.170   1.381 -0.3236 -0.4076  0.3562
  523MOL0     C70482   5.549   5.202   1.530 -0.4152  0.6425  0.3504
  523MOL0     C70483   5.516   5.350   1.559 -0.0580  0.2825 -0.2670
  523MOL0     C70484   5.560   5.396   1.697  0.8782  0.6801 -0.9530
  523MOL0     C70485   5.548   5.554   1.711 -0.1411 -0.0805 -0.3780
  523MOL0     C70486   5.402   5.599   1.713 -0.1146 -0.8872  0.9107
  523MOL0     N70487   5.343   5.566   1.839  0.7040 -0.0624 -0.2780
  523MOL0     C70488   5.249   5.467   1.855 -0.7859 -0.3373 -0.4247
  523MOL0     C70489   5.255   5.435   1.988 -0.3615 -0.2155 -0.6219
  523MOL0     C70490   5.197   5.310   2.054  0.5201  0.2602  0.1215
  523MOL0     C70491   5.047   5.312   2.065 -0.3139 -0.7649 -0.1030
  523MOL0     C70492   4.990   5.168   2.097  0.2948  0.2455 -0.1892
  523MOL0     C70493   4.834   5.157   2.059 -0.0193 -0.9606 -0.2385
  523MOL0     O70494   4.787   5.025   2.098 -0.2500  0.3214  0.2759
  523MOL0     C70495   4.651   5.011   2.096  0.2044  0.0663 -0.0964
  523MOL0     C70496   4.556   5.103   2.061 -0.2093  0.5658  0.6845
  523MOL0     C70497   4.422   5.072   2.049  0.2381 -0.2487  0.5162
  523MOL0     C70498   4.380   4.944   2.079  0.8853 -0.5878 -0.3200
  523MOL0     C70499   4.234   4.912   2.074 -0.6557  0.0959 -0.2567
  523MOL0     O70500   4.176   4.850   2.179  0.8168  1.4324  0.4903
  523MOL0     C70501   4.041   4.838   2.183  0.0347 -0.2816 -0.1039
  523MOL0     C70502   3.963   4.954   2.182 -0.9071 -0.1497 -0.0377
  523MOL0     C70503   3.819   4.941   2.196 -0.4124 -0.4193  0.0727
  523MOL0     C70504   3.760   4.817   2.210  0.1875 -0.9641  0.4611
  523MOL0     O70505   3.626   4.797   2.208 -0.2277 -0.6320 -0.0292
  523MOL0     C70506   3.565   4.810   2.077  0.0679  0.0518  0.0268
  523MOL0     C70507   3.428   4.884   2.088  0.9149  0.0395  1.0775
  523MOL0     C70508   3.329   4.840   1.979  0.4756 -0.0891  0.3058
  523MOL0     C70509   3.187   4.909   2.002 -0.6526 -0.2994 -0.4647
  523MOL0     C70510   3.080   4.859   1.902  0.1116 -0.5472  0.6253
  523MOL0     C70511   2.939   4.892   1.963  0.4800 -0.7246  0.0310
  523MOL0     C70512   2.825   4.842   1.868  0.0674 -0.1682 -0.4934
  523MOL0     C70513   2.696   4.852   1.944  0.1420  0.0234 -0.9437
  523MOL0    Cl70514   2.628   5.012   1.939  0.1211 -0.9754 -0.1969
  523MOL0     C70515   3.831   4.706   2.224 -0.4571 -0.0480 -0.2020
  523MOL0     C70516   3.972   4.716   2.213  0.2676 -0.8964  0.6896
  523MOL0     O70517   4.174   4.967   1.978  0.3428 -0.8491 -0.5653
  523MOL0     C70518   4.474   4.845   2.105  0.6097  0.5862  0.2614
  523MOL0     C70519   4.606   4.878   2.123 -0.9416 -0.0939 -0.0165
  523MOL0     N70520   5.358   5.504   2.050 -0.0767 -0.0825  0.0559
  523MOL0     N70521   5.400   5.588   1.962 -0.3006  0.2364  0.2510
  523MOL0     C70522   5.227   4.756   1.460  0.8110 -0.1405  0.4891
  523MOL0     C70523   5.105   4.689   1.498 -0.7649 -0.3485 -1.1794
  523MOL0     C70524   4.710   4.549   1.668 -0.2507  0.3147 -0.4678
  523MOL0     C70525   4.729   4.542   1.808 -1.0792 -0.3083  0.1422
  523MOL0     C70526   4.627   4.499   1.891 -0.0839 -0.9355 -0.1864
  523MOL0     C70527   4.502   4.459   1.839  0.3200 -0.0646  0.6555
  523MOL0     O70528   4.404   4.413   1.928  0.4082  0.9176  0.9529
  523MOL0     C70529   4.273   4.386   1.872 -0.5983  1.0101  0.0648
  523MOL0     C70530   4.171   4.364   1.983 -0.1275 -0.3909 -0.3682
  523MOL0     C70531   4.039   4.311   1.929  0.1615 -0.2373  0.5625
  523MOL0     C70532   3.907   4.365   1.990  0.5738  0.5236 -0.0425
  523MOL0     C70533   3.879   4.310   2.130 -0.1750 -1.3262  0.2147
  523MOL0     C70534   3.877   4.295   2.249  0.0996  0.3873 -0.3052
  523MOL0     C70535   4.484   4.475   1.696 -0.7473  0.0786 -0.4239
  523MOL0     C70536   4.586   4.527   1.616  0.0205 -0.3566 -0.0216
  523MOL0     C70537   4.553   4.551   1.470 -0.3913 -0.1785 -0.0416
  523MOL0     H70538   5.021   4.889   1.750  0.1013  0.0053  0.3471
  523MOL0     H70539   5.238   4.991   1.685 -0.2051  0.4618 -0.5354
  523MOL0     H70540   5.461   4.831   1.343  1.6278 -0.0042 -0.8011
  523MOL0     H70541   5.356   4.974   1.307 -0.5793  0.0988  1.2578
  523MOL0     H70542   5.599   5.002   1.250 -1.0522 -1.6021 -1.4014
  523MOL0     H70543   5.636   4.987   1.423  1.0495  0.7075 -1.3713
  523MOL0     H70544   5.427   5.192   1.336 -0.3730 -0.9340  0.2015
  523MOL0     H70545   5.594   5.241   1.337 -2.3417  3.4050  2.6626
  523MOL0     H70546   5.488   5.141   1.597  1.4790  0.6576  2.2266
  523MOL0     H70547   5.657   5.188   1.545  0.3764 -0.0871 -4.5599
  523MOL0     H70548   5.563   5.418   1.487 -0.0601  0.5335 -0.0352
  523MOL0     H70549   5.408   5.360   1.548 -0.2453  3.4485  2.6673
  523MOL0     H70550   5.486   5.348   1.762 -1.7293  1.9587 -2.8608
  523MOL0     H70551   5.665   5.371   1.719  0.9250 -0.0042 -1.8910
  523MOL0     H70552   5.595   5.582   1.617  0.5523  0.8010  0.2130
  523MOL0     H70553   5.590   5.609   1.796 -0.4855  1.6870 -1.2857
  523MOL0     H70554   5.390   5.707   1.715 -0.1317 -0.8650  0.1193
  523MOL0     H70555   5.344   5.549   1.635 -0.5142  1.1809 -0.1889
  523MOL0     H70556   5.196   5.402   1.787 -0.6099 -0.2530 -0.6452
  523MOL0     H70557   5.225   5.223   1.995 -0.1755 -1.2587  1.9308
  523MOL0     H70558   5.241   5.305   2.154  1.1468  1.9622 -0.0268
  523MOL0     H70559   5.015   5.383   2.141 -0.8863 -1.6003  0.4533
  523MOL0     H70560   5.013   5.357   1.971  1.6237  2.7644  0.7406
  523MOL0     H70561   5.010   5.164   2.205  1.5308 -3.9600 -0.4184
  523MOL0     H70562   5.045   5.090   2.044 -0.8164  2.2365 -4.8015
  523MOL0     H70563   4.818   5.172   1.952  0.2275  1.3771  0.0026
  523MOL0     H70564   4.777   5.234   2.112  0.3193 -2.2653  2.1804
  523MOL0     H70565   4.585   5.205   2.040  1.2818  0.3146  1.4475
  523MOL0     H70566   4.359   5.153   2.013  2.3275  0.5600 -1.6059
  523MOL0     H70567   4.005   5.055   2.181  0.4911 -0.6852  1.0531
  523MOL0     H70568   3.769   5.038   2.193  1.8344  0.7587 -1.6061
  523MOL0     H70569   3.628   4.878   2.019  1.8798 -0.1465  1.6345
  523MOL0     H70570   3.553   4.715   2.024  1.3507  0.1019 -0.3895
  523MOL0     H70571   3.379   4.866   2.184  1.9590  1.7477  1.9892
  523MOL0     H70572   3.445   4.991   2.073  0.8581 -0.2550 -1.5579
  523MOL0     H70573   3.360   4.886   1.885  0.3133 -0.2152  0.1887
  523MOL0     H70574   3.315   4.732   1.972  1.0245 -0.2128  1.0312
  523MOL0     H70575   3.190   5.018   1.994 -1.0856 -0.1978  0.5866
  523MOL0     H70576   3.162   4.885   2.106 -0.1550 -0.8279 -0.4610
  523MOL0     H70577   3.095   4.754   1.876 -0.4682 -0.8393  1.4410
  523MOL0     H70578   3.088   4.909   1.805 -2.2880 -1.5767 -0.1805
  523MOL0     H70579   2.923   4.837   2.056  2.3971 -0.6303  0.4640
  523MOL0     H70580   2.926   4.997   1.991  0.6576 -0.8105  0.4421
  523MOL0     H70581   2.842   4.738   1.839  1.3579  0.1112 -0.8017
  523MOL0     H70582   2.824   4.905   1.778  1.5194  0.4120 -0.1351
  523MOL0     H70583   2.624   4.798   1.882 -1.5398  0.2913  0.6796
  523MOL0     H70584   2.703   4.806   2.043  4.0524 -0.2718 -1.2185
  523MOL0     H70585   3.803   4.602   2.237  0.5524 -0.6330 -2.3302
  523MOL0     H70586   4.031   4.625   2.220  1.0025 -0.8768 -3.1008
  523MOL0     H70587   4.450   4.743   2.132 -1.3819  1.0491  0.3565
  523MOL0     H70588   4.678   4.802   2.151  1.7350  1.6271 -1.6968
  523MOL0     H70589   5.286   4.703   1.386 -1.9033 -2.0876 -0.4970
  523MOL0     H70590   5.092   4.595   1.446  3.3523 -1.0240 -1.3133
  523MOL0     H70591   4.824   4.572   1.851 -0.9013  1.9725 -1.6362
  523MOL0     H70592   4.647   4.503   1.998 -0.6354  1.7718 -0.1332
  523MOL0     H70593   4.290   4.298   1.810  2.4778  1.2537  0.4174
  523MOL0     H70594   4.237   4.466   1.807  1.3777  1.7125 -0.2374
  523MOL0     H70595   4.163   4.458   2.037  0.1274  0.3552 -1.5860
  523MOL0     H70596   4.207   4.294   2.059 -2.6213 -1.2463  0.0965
  523MOL0     H70597   4.040   4.202   1.920 -1.6494 -0.3394  1.1056
  523MOL0     H70598   4.033   4.336   1.823  1.7035 -2.3611 -0.0920
  523MOL0     H70599   3.921   4.474   1.997 -1.0670  0.7569 -0.2136
  523MOL0     H70600   3.816   4.340   1.935  1.0967 -2.8618  0.4127
  523MOL0     H70601   3.894   4.262   2.350  0.1969  4.4257  1.2107
  523MOL0     H70602   4.389   4.453   1.647 -2.5439  1.0198  2.4104
  523MOL0     H70603   4.587   4.478   1.397 -1.9240 -0.2258 -0.7515
  523MOL0     H70604   4.445   4.570   1.469 -0.1221  1.5435 -0.2004
  523MOL0     H70605   4.597   4.649   1.449  0.5447 -0.6747 -0.4355
  524MOL0     O70606  10.684   2.493   5.153  0.2282 -0.3522 -0.6177
  524MOL0     C70607  10.621   2.392   5.187  0.2880  0.1918  0.5143
  524MOL0     O70608  10.632   2.265   5.132 -0.8691  0.3214  0.3193
  524MOL0     C70609  10.725   2.251   5.032 -0.4827 -0.2289 -0.3456
  524MOL0     C70610  10.861   2.227   5.058  0.2072 -0.8131  0.3286
  524MOL0     C70611  10.939   2.192   4.947  0.7726 -0.6517 -0.3792
  524MOL0     C70612  10.893   2.189   4.814 -0.0536 -0.0862  0.0113
  524MOL0     O70613  10.966   2.162   4.699  0.8471  0.0300 -0.4397
  524MOL0     C70614  11.107   2.170   4.708 -0.1977 -0.0959 -0.2612
  524MOL0     C70615  11.176   2.145   4.576  0.2227  0.4952  0.1083
  524MOL0     C70616  11.322   2.185   4.583  0.2531  0.3460 -0.5251
  524MOL0     C70617  11.404   2.172   4.451  0.2819 -0.3788 -0.0085
  524MOL0     C70618  11.557   2.208   4.462  0.0805 -0.4551  0.3012
  524MOL0     C70619  11.636   2.179   4.332  0.3650  0.0477  0.7149
  524MOL0     C70620  11.776   2.242   4.317 -0.7003  0.6564 -0.5969
  524MOL0     C70621  11.833   2.193   4.185 -0.4311 -0.1589 -0.3354
  524MOL0     N70622  11.973   2.233   4.163 -0.3907 -0.5941  0.0031
  524MOL0     C70623  12.014   2.366   4.135  0.1654  0.0758 -0.1838
  524MOL0     C70624  12.148   2.371   4.118  0.0754 -0.6045  0.7926
  524MOL0     C70625  12.232   2.485   4.082 -0.2255  0.4312 -0.4926
  524MOL0     C70626  12.268   2.575   4.203  0.4271  0.2283  0.0305
  524MOL0     C70627  12.346   2.502   4.319  0.2986 -1.0567 -0.2494
  524MOL0     C70628  12.270   2.515   4.453  0.1501 -0.3647 -0.3662
  524MOL0     O70629  12.259   2.653   4.497 -0.0102  0.7144 -0.1934
  524MOL0     C70630  12.144   2.704   4.554  0.1551 -0.0500  0.5565
  524MOL0     C70631  12.130   2.842   4.570  0.3335 -0.5027  0.1348
  524MOL0     C70632  12.016   2.886   4.632  0.3572 -0.3055  0.2235
  524MOL0     C70633  11.916   2.809   4.682  0.3610  0.1593 -0.9370
  524MOL0     C70634  11.795   2.868   4.751 -0.2411 -0.3077  0.0412
  524MOL0     O70635  11.770   2.997   4.732 -0.5209 -0.5448 -0.2082
  524MOL0     C70636  11.640   3.032   4.745  0.5419  0.0141 -0.4221
  524MOL0     C70637  11.554   3.014   4.644  0.1343  0.8593  0.3645
  524MOL0     C70638  11.425   3.073   4.650  0.6062  1.1750 -0.6964
  524MOL0     C70639  11.382   3.139   4.772  1.2285  0.6653  0.1932
  524MOL0     O70640  11.265   3.203   4.801  0.0958  0.0279  0.4843
  524MOL0     C70641  11.161   3.193   4.698 -0.4462  0.1811  0.1718
  524MOL0     C70642  11.036   3.244   4.753  0.7128  0.4603 -0.7056
  524MOL0     C70643  11.004   3.393   4.718 -0.2289 -0.1164  0.0750
  524MOL0     C70644  10.893   3.458   4.805 -0.2540  0.8483 -1.2152
  524MOL0     C70645  10.863   3.597   4.755 -0.2206 -1.0828  0.3730
  524MOL0     C70646  10.760   3.670   4.844 -0.2406 -0.4501  0.1205
  524MOL0     C70647  10.742   3.819   4.802  0.3591 -0.2609  0.4151
  524MOL0     C70648  10.633   3.889   4.884 -0.2784 -0.6033 -0.0489
  524MOL0    Cl70649  10.681   3.901   5.068  0.0883  0.0244  0.2455
  524MOL0     C70650  11.474   3.146   4.873  1.2976  0.3309 -0.4129
  524MOL0     C70651  11.602   3.095   4.863 -0.6255  0.1052  0.4543
  524MOL0     O70652  11.713   2.788   4.810  0.0958 -0.4603 -0.5328
  524MOL0     C70653  11.927   2.670   4.673  0.5258  0.2274  0.2895
  524MOL0     C70654  12.040   2.623   4.600  0.3777 -0.3734  0.7065
  524MOL0     N70655  12.183   2.249   4.162 -0.3295  1.1291  0.1820
  524MOL0     N70656  12.085   2.164   4.187  0.2454 -0.0130  0.0830
  524MOL0     C70657  10.761   2.215   4.798 -0.2820 -0.1696  0.0543
  524MOL0     C70658  10.679   2.244   4.900 -0.3343  0.0785 -0.3611
  524MOL0     C70659  10.511   2.424   5.277  0.4957 -0.3387 -0.3440
  524MOL0     C70660  10.540   2.508   5.384 -0.2445  0.2158  0.3465
  524MOL0     C70661  10.448   2.525   5.488 -0.1214 -0.7559  0.3585
  524MOL0     C70662  10.314   2.474   5.475 -1.0844 -0.3233 -0.5253
  524MOL0     O70663  10.223   2.471   5.575 -0.0993  0.2983 -0.8347
  524MOL0     C70664  10.256   2.416   5.703  0.0872  0.0747  0.4158
  524MOL0     C70665  10.143   2.382   5.802  0.6005 -0.8067  0.3105
  524MOL0     C70666  10.053   2.267   5.726  0.6669  0.3273 -0.2509
  524MOL0     C70667   9.933   2.226   5.810  0.5916 -0.6286 -0.1203
  524MOL0     C70668   9.868   2.107   5.737  0.7464 -0.0884  1.5038
  524MOL0     C70669   9.826   2.013   5.668 -1.2402 -1.1036  0.0532
  524MOL0     C70670  10.285   2.398   5.361 -1.3436  0.4037 -0.4827
  524MOL0     C70671  10.383   2.366   5.268 -0.8608  0.8215  0.4082
  524MOL0     C70672  10.338   2.276   5.171  0.4390  0.7832  0.2638
  524MOL0     H70673  10.910   2.234   5.155 -1.0544  1.2575  0.8853
  524MOL0     H70674  11.046   2.173   4.957  1.0409  0.7476 -0.3700
  524MOL0     H70675  11.129   2.271   4.744  2.5635 -0.5614 -0.4187
  524MOL0     H70676  11.139   2.094   4.780  2.1774  1.2238  0.1829
  524MOL0     H70677  11.125   2.211   4.505  0.1354  0.5168  0.1920
  524MOL0     H70678  11.164   2.043   4.539  0.6093 -0.7853  3.2038
  524MOL0     H70679  11.364   2.114   4.653 -0.8928 -2.1073 -2.1744
  524MOL0     H70680  11.325   2.290   4.612 -0.9252  0.4121 -0.5626
  524MOL0     H70681  11.397   2.065   4.426  0.8530 -1.0228  2.3641
  524MOL0     H70682  11.348   2.231   4.378  0.8822  1.3641  0.8834
  524MOL0     H70683  11.556   2.315   4.484 -1.6535 -0.1029 -1.2651
  524MOL0     H70684  11.620   2.159   4.537  1.7639  1.6941  0.4211
  524MOL0     H70685  11.656   2.073   4.319  0.2694  0.0582  0.4817
  524MOL0     H70686  11.579   2.223   4.249  1.8263 -0.6021 -0.6760
  524MOL0     H70687  11.833   2.192   4.397 -2.8056 -0.7939  0.1005
  524MOL0     H70688  11.770   2.350   4.326  0.4621  0.5754  2.1284
  524MOL0     H70689  11.833   2.084   4.185  3.8183 -0.3570 -2.8233
  524MOL0     H70690  11.777   2.234   4.100  2.1958 -1.2515 -2.7690
  524MOL0     H70691  11.939   2.439   4.106 -0.1839 -1.8387 -4.9416
  524MOL0     H70692  12.326   2.446   4.042 -0.2612  0.5915 -0.7365
  524MOL0     H70693  12.183   2.546   4.006 -2.2185  1.2592  1.3461
  524MOL0     H70694  12.341   2.648   4.168 -1.7435  3.4485  1.7181
  524MOL0     H70695  12.189   2.643   4.234 -0.1335 -0.3939 -0.0014
  524MOL0     H70696  12.447   2.545   4.322  0.0444 -0.4949  0.4938
  524MOL0     H70697  12.372   2.400   4.290  0.4905 -1.0618 -0.0557
  524MOL0     H70698  12.327   2.468   4.533 -1.1415  0.8399  1.3429
  524MOL0     H70699  12.173   2.464   4.447 -0.4348  0.7059 -0.2872
  524MOL0     H70700  12.210   2.907   4.538  1.4319 -2.1796 -0.6948
  524MOL0     H70701  12.018   2.993   4.650 -1.2799  0.1861 -2.0026
  524MOL0     H70702  11.578   2.958   4.554 -0.3137  1.0280  0.1385
  524MOL0     H70703  11.361   3.053   4.564 -0.7983  1.5075  0.2343
  524MOL0     H70704  11.187   3.244   4.605  2.6006 -1.6544 -0.1116
  524MOL0     H70705  11.156   3.087   4.671 -1.1487  0.1341  0.4644
  524MOL0     H70706  10.948   3.196   4.710 -0.5323  1.3650  0.7501
  524MOL0     H70707  11.037   3.228   4.861 -0.6486 -0.5341 -0.8214
  524MOL0     H70708  11.094   3.454   4.729  1.3640 -2.5425  1.6319
  524MOL0     H70709  10.971   3.398   4.614  3.6107 -3.1460 -1.5461
  524MOL0     H70710  10.920   3.440   4.909 -1.9373 -5.2217 -1.4552
  524MOL0     H70711  10.803   3.397   4.791  1.6577 -2.4688 -0.1820
  524MOL0     H70712  10.828   3.595   4.651  1.6138 -1.1722 -0.2751
  524MOL0     H70713  10.957   3.652   4.754 -0.9398  0.1859 -0.8774
  524MOL0     H70714  10.663   3.619   4.840 -0.7404  0.2128  2.3893
  524MOL0     H70715  10.772   3.660   4.952 -3.4547  1.2342  0.7604
  524MOL0     H70716  10.710   3.823   4.698  2.0720 -1.3552 -0.2033
  524MOL0     H70717  10.834   3.878   4.812  0.1806 -0.0481  0.8612
  524MOL0     H70718  10.622   3.990   4.843  1.0161  0.3989  1.8930
  524MOL0     H70719  10.531   3.850   4.879 -0.8261  0.9203 -2.1413
  524MOL0     H70720  11.457   3.192   4.970  2.0641  3.1204 -1.4928
  524MOL0     H70721  11.672   3.104   4.945 -1.7830  0.5042  1.4199
  524MOL0     H70722  11.842   2.610   4.701 -0.5339  1.1846 -0.7962
  524MOL0     H70723  12.058   2.517   4.614 -0.5099 -0.7049 -0.5564
  524MOL0     H70724  10.722   2.224   4.697  0.1912  0.6446 -0.0665
  524MOL0     H70725  10.580   2.284   4.881 -0.0910  0.4341 -0.8771
  524MOL0     H70726  10.642   2.546   5.387 -0.5774  1.2175 -0.4491
  524MOL0     H70727  10.461   2.586   5.577 -3.5518  1.0469 -0.1941
  524MOL0     H70728  10.325   2.491   5.744 -0.6069  1.1333 -0.2968
  524MOL0     H70729  10.318   2.327   5.689 -0.5451 -0.1584 -1.1006
  524MOL0     H70730  10.079   2.470   5.812  1.0087 -0.7137  2.5394
  524MOL0     H70731  10.181   2.354   5.900  2.1012  0.6508  0.1919
  524MOL0     H70732  10.127   2.189   5.704  1.6543  1.2036 -0.0750
  524MOL0     H70733  10.010   2.309   5.635 -0.6840  2.4565  1.2723
  524MOL0     H70734   9.966   2.204   5.912  1.2643  0.5286 -0.0599
  524MOL0     H70735   9.858   2.303   5.830  2.3383  1.3671 -0.8708
  524MOL0     H70736   9.809   1.917   5.622  0.2730 -0.5322 -1.8396
  524MOL0     H70737  10.186   2.356   5.350 -1.2758  0.6176 -2.1186
  524MOL0     H70738  10.233   2.297   5.147  0.8764  2.1223 -0.6048
  524MOL0     H70739  10.388   2.281   5.074  0.7641 -0.5139  0.3526
  524MOL0     H70740  10.347   2.173   5.207 -0.6893  0.1640 -1.1182
  525MOL0     O70741   0.715   8.097   0.994 -0.3896  0.1761  0.1810
  525MOL0     C70742   0.726   8.216   1.018  0.3958 -0.0337  0.2210
  525MOL0     O70743   0.807   8.302   0.959  0.8037 -0.2049 -0.4029
  525MOL0     C70744   0.909   8.249   0.875  0.5631 -0.4662 -0.2891
  525MOL0     C70745   0.948   8.333   0.770  0.0711  0.2773  0.3211
  525MOL0     C70746   1.064   8.303   0.697  0.5251 -0.8772  0.8522
  525MOL0     C70747   1.134   8.189   0.724 -0.1477 -0.0337 -0.5613
  525MOL0     O70748   1.229   8.140   0.638 -0.7611 -0.7653  0.2533
  525MOL0     C70749   1.201   8.111   0.506 -0.7166  0.4316  0.8131
  525MOL0     C70750   1.316   8.024   0.458 -0.5476  0.5255 -0.4955
  525MOL0     C70751   1.329   7.894   0.543 -0.5803 -0.7268  0.4065
  525MOL0     C70752   1.457   7.815   0.522  0.1733 -0.5577  0.4160
  525MOL0     C70753   1.452   7.676   0.595 -0.1597 -0.9971 -0.5858
  525MOL0     C70754   1.563   7.677   0.708 -0.7856  0.8209 -0.3023
  525MOL0     C70755   1.578   7.529   0.751  0.1568 -0.0767  0.4686
  525MOL0     C70756   1.706   7.522   0.838  0.2241  0.2748 -0.5382
  525MOL0     N70757   1.750   7.382   0.848 -0.1792 -0.1227  0.3327
  525MOL0     C70758   1.799   7.314   0.743 -0.0017  0.2000  0.9588
  525MOL0     C70759   1.828   7.192   0.799  0.5049  0.4621 -0.4004
  525MOL0     C70760   1.893   7.078   0.730  0.1487  0.4294  0.4173
  525MOL0     C70761   2.045   7.093   0.730  0.5261 -0.2928 -0.5390
  525MOL0     C70762   2.091   7.198   0.630 -0.3545  0.4645  0.3130
  525MOL0     C70763   2.242   7.224   0.638 -0.5493  0.3024  0.3238
  525MOL0     O70764   2.312   7.118   0.570  0.4239  0.0810  0.2375
  525MOL0     C70765   2.356   7.137   0.439 -0.1532 -1.0698  0.5120
  525MOL0     C70766   2.286   7.227   0.343  0.6605 -0.5310 -0.2213
  525MOL0     C70767   2.329   7.250   0.212 -0.1099 -0.2076 -0.5685
  525MOL0     C70768   2.437   7.172   0.163  0.6734 -0.0411 -0.2791
  525MOL0     C70769   2.482   7.190   0.023  0.4485 -0.0388 -0.4926
  525MOL0     O70770   2.568   7.104  -0.015 -0.8131  0.6695 -0.2305
  525MOL0     C70771   2.643   7.126  -0.132  0.7235  0.3779 -0.2055
  525MOL0     C70772   2.678   7.010  -0.205 -0.2033 -0.0133 -0.0825
  525MOL0     C70773   2.767   7.021  -0.312  0.1445 -0.2880 -0.2475
  525MOL0     C70774   2.814   7.142  -0.358  0.3469 -0.1061 -0.4045
  525MOL0     O70775   2.891   7.155  -0.471 -0.4270 -0.0214  0.5648
  525MOL0     C70776   2.973   7.042  -0.508  0.0483  0.5248  0.3038
  525MOL0     C70777   3.084   7.090  -0.605 -0.3567 -0.1852 -0.8974
  525MOL0     C70778   3.160   7.196  -0.531  0.8859 -0.4819 -0.0600
  525MOL0     C70779   3.298   7.205  -0.598 -0.2591  0.5910  1.1619
  525MOL0     C70780   3.384   7.328  -0.556  0.8649 -0.1126 -0.2870
  525MOL0     C70781   3.501   7.348  -0.660 -0.9997  0.0022  0.0541
  525MOL0     C70782   3.601   7.455  -0.615  0.2075 -0.6659  0.4999
  525MOL0     C70783   3.714   7.403  -0.524  0.5975 -1.1119  0.3870
  525MOL0    Cl70784   3.809   7.292  -0.624  0.2109 -0.0567  0.3728
  525MOL0     C70785   2.786   7.255  -0.283 -0.0145  0.4799 -0.2506
  525MOL0     C70786   2.697   7.253  -0.169  0.7047 -0.0197  0.2421
  525MOL0     O70787   2.433   7.291  -0.033  0.5514  0.0728 -0.4166
  525MOL0     C70788   2.501   7.073   0.254 -0.3073 -0.3082  0.6665
  525MOL0     C70789   2.471   7.064   0.394  0.7430  0.3613 -0.1209
  525MOL0     N70790   1.781   7.190   0.931  0.8356  0.2374  0.6044
  525MOL0     N70791   1.729   7.307   0.958 -0.0811  0.6805  0.2321
  525MOL0     C70792   1.095   8.104   0.825  0.1003  0.4054  0.1464
  525MOL0     C70793   0.987   8.138   0.904  0.1592 -1.0436  0.3910
  525MOL0     C70794   0.621   8.284   1.123  0.4857  0.2165  1.1112
  525MOL0     C70795   0.575   8.207   1.227 -1.1795 -0.1986  0.1951
  525MOL0     C70796   0.481   8.254   1.319  0.4097 -0.4737 -0.2761
  525MOL0     C70797   0.426   8.379   1.299  0.0146  0.6525 -0.7509
  525MOL0     O70798   0.322   8.409   1.379  1.2522 -0.4131 -0.2670
  525MOL0     C70799   0.221   8.500   1.339  0.8408  0.2057 -0.2215
  525MOL0     C70800   0.132   8.519   1.466 -0.1028  0.0815 -0.1281
  525MOL0     C70801   0.216   8.585   1.579 -0.1727 -0.2106  0.4959
  525MOL0     C70802   0.125   8.601   1.703  0.2052 -0.1332  0.2019
  525MOL0     C70803   0.115   8.477   1.774 -0.7378  0.3526 -0.1866
  525MOL0     C70804   0.107   8.370   1.836  0.6587 -0.5394  0.1029
  525MOL0     C70805   0.477   8.460   1.200 -0.2299 -0.0186 -0.5906
  525MOL0     C70806   0.571   8.417   1.110 -0.0278 -0.7276 -0.0201
  525MOL0     C70807   0.631   8.520   1.017 -0.0203  0.5393  0.0861
  525MOL0     H70808   0.900   8.429   0.753  0.0192  0.2218  0.1475
  525MOL0     H70809   1.093   8.362   0.611 -2.0161 -2.3662 -1.1431
  525MOL0     H70810   1.113   8.046   0.498  1.5029 -2.5816 -1.6207
  525MOL0     H70811   1.192   8.194   0.436  0.4275  0.2221  0.3955
  525MOL0     H70812   1.403   8.089   0.457  1.3638 -1.7702  2.1777
  525MOL0     H70813   1.294   7.988   0.356  1.2199 -1.0530 -0.3708
  525MOL0     H70814   1.246   7.825   0.528  0.1539 -1.7475  0.8969
  525MOL0     H70815   1.322   7.933   0.645  1.3915  1.1926 -0.1257
  525MOL0     H70816   1.466   7.793   0.415 -1.3633  1.3757 -0.1590
  525MOL0     H70817   1.547   7.871   0.547 -0.6907  1.4556 -0.7862
  525MOL0     H70818   1.352   7.657   0.633 -0.3913 -2.0951 -1.6807
  525MOL0     H70819   1.477   7.600   0.521  3.2672  0.2394 -0.9001
  525MOL0     H70820   1.658   7.714   0.666  0.1213 -2.0723 -1.0720
  525MOL0     H70821   1.531   7.754   0.778 -1.5977  0.1472  0.0794
  525MOL0     H70822   1.596   7.469   0.661 -0.5637  1.8317 -1.0461
  525MOL0     H70823   1.492   7.487   0.804  0.2150  1.3349  1.7429
  525MOL0     H70824   1.794   7.567   0.792  2.3704 -3.5981 -0.6374
  525MOL0     H70825   1.684   7.567   0.936 -0.0424 -1.1465  0.0738
  525MOL0     H70826   1.802   7.342   0.638 -1.3168  0.3895  0.9507
  525MOL0     H70827   1.862   6.985   0.778 -2.3110  1.1708  0.4027
  525MOL0     H70828   1.867   7.067   0.625 -0.2446 -0.4502  0.6010
  525MOL0     H70829   2.088   7.112   0.830 -0.1523  0.4837 -0.3853
  525MOL0     H70830   2.076   7.002   0.679 -0.2754  0.9212 -3.3555
  525MOL0     H70831   2.045   7.296   0.645 -1.3883  0.2109 -1.0178
  525MOL0     H70832   2.074   7.157   0.530  0.9580  0.6679 -0.0171
  525MOL0     H70833   2.275   7.211   0.741 -0.1562 -1.1718  0.0438
  525MOL0     H70834   2.264   7.328   0.615 -3.3166  0.7631 -0.6966
  525MOL0     H70835   2.199   7.284   0.373  2.2774  1.5033  0.8944
  525MOL0     H70836   2.261   7.311   0.154 -0.7977 -0.6531 -0.2540
  525MOL0     H70837   2.652   6.912  -0.167  4.7802 -1.5989  0.0031
  525MOL0     H70838   2.774   6.924  -0.359 -1.5554 -0.1512 -0.8479
  525MOL0     H70839   3.013   7.008  -0.412 -1.0401  1.4323  1.1116
  525MOL0     H70840   2.922   6.959  -0.559 -0.1999  0.6637  0.3204
  525MOL0     H70841   3.149   7.004  -0.627  0.6041  0.9368 -2.6954
  525MOL0     H70842   3.045   7.135  -0.696  2.0536  1.3042 -1.2788
  525MOL0     H70843   3.101   7.288  -0.530  1.9042  0.2078 -1.5686
  525MOL0     H70844   3.177   7.172  -0.425 -0.5453 -2.0013 -0.1401
  525MOL0     H70845   3.281   7.204  -0.707  2.0208  3.1667  0.6821
  525MOL0     H70846   3.356   7.118  -0.568 -1.4029  0.1209  2.0772
  525MOL0     H70847   3.413   7.325  -0.451 -3.8380 -0.6713  1.2675
  525MOL0     H70848   3.314   7.412  -0.566  0.6362 -0.0341  1.5780
  525MOL0     H70849   3.561   7.257  -0.674  0.4211  1.3268 -3.8731
  525MOL0     H70850   3.457   7.376  -0.756  0.4428  0.1718 -0.5768
  525MOL0     H70851   3.553   7.543  -0.570  0.0435  0.0744 -1.0792
  525MOL0     H70852   3.639   7.502  -0.706 -0.4722  2.3912  1.6644
  525MOL0     H70853   3.781   7.487  -0.503 -0.9148 -0.0297  1.0794
  525MOL0     H70854   3.683   7.362  -0.428  0.2882 -0.5159  0.5492
  525MOL0     H70855   2.842   7.343  -0.312  1.0097  0.2981  1.1046
  525MOL0     H70856   2.671   7.341  -0.111  0.7604  1.3238 -1.6638
  525MOL0     H70857   2.586   7.010   0.227  0.9323  1.0241  1.3701
  525MOL0     H70858   2.526   6.997   0.459  1.2901  1.0509  0.1390
  525MOL0     H70859   1.149   8.012   0.846  2.1277  1.8677  1.8228
  525MOL0     H70860   0.953   8.073   0.984 -0.2790 -1.7186 -0.3316
  525MOL0     H70861   0.613   8.106   1.239 -2.1907 -0.6706 -0.4445
  525MOL0     H70862   0.437   8.188   1.394 -2.1240  0.8448 -0.4696
  525MOL0     H70863   0.151   8.462   1.265 -0.9518  1.8892  0.5262
  525MOL0     H70864   0.271   8.593   1.311  2.4323 -0.5576 -0.0397
  525MOL0     H70865   0.105   8.424   1.512  1.4822 -0.1534  0.3842
  525MOL0     H70866   0.039   8.570   1.440 -0.1768  0.8579  1.5054
  525MOL0     H70867   0.244   8.687   1.550  1.5711 -0.5249  1.0025
  525MOL0     H70868   0.308   8.532   1.603  0.3669  0.1582 -0.6569
  525MOL0     H70869   0.154   8.678   1.776  1.1847 -1.7972  1.6633
  525MOL0     H70870   0.024   8.624   1.669  0.3675 -0.7506 -0.7500
  525MOL0     H70871   0.112   8.275   1.886 -2.9901 -0.6798  0.4891
  525MOL0     H70872   0.449   8.565   1.194  1.8143  0.6646  0.6044
  525MOL0     H70873   0.612   8.486   0.915 -2.0296  1.4138  0.1276
  525MOL0     H70874   0.575   8.614   1.019  0.3684  0.7625  1.1704
  525MOL0     H70875   0.737   8.535   1.041  0.1570 -2.8439  2.0502
  526MOL0     O70876   2.838   9.405   9.406  0.3330 -0.0396 -0.5269
  526MOL0     C70877   2.808   9.288   9.424 -0.0846  0.2949 -0.4463
  526MOL0     O70878   2.888   9.180   9.416 -0.7771  0.3131 -0.5102
  526MOL0     C70879   3.008   9.188   9.358  0.1421 -0.1672 -0.0503
  526MOL0     C70880   3.129   9.155   9.422  0.2101 -0.6729 -1.2397
  526MOL0     C70881   3.248   9.146   9.348 -0.2767 -0.1962 -0.5804
  526MOL0     C70882   3.251   9.177   9.214 -1.2081  0.5604 -0.3540
  526MOL0     O70883   3.369   9.159   9.146  0.0839  0.7157  0.4897
  526MOL0     C70884   3.407   9.217   9.023 -0.3937  0.3156 -0.5875
  526MOL0     C70885   3.411   9.115   8.915  1.3483 -0.3838  1.0675
  526MOL0     C70886   3.496   9.164   8.794  0.0956  0.2341 -0.8116
  526MOL0     C70887   3.503   9.065   8.686  0.0150  0.1597  0.2311
  526MOL0     C70888   3.625   9.080   8.601 -0.0051 -0.8587  0.0734
  526MOL0     C70889   3.649   9.211   8.533  0.3392 -0.6620 -0.0931
  526MOL0     C70890   3.754   9.188   8.417  0.8107 -0.8131 -0.0132
  526MOL0     C70891   3.895   9.168   8.463 -0.2599  0.5300 -0.0695
  526MOL0     N70892   3.976   9.161   8.351  0.0589  0.6955  0.0150
  526MOL0     C70893   4.031   9.272   8.280  0.2885 -0.1682 -0.6313
  526MOL0     C70894   4.113   9.213   8.188 -0.5535  0.7435  0.6017
  526MOL0     C70895   4.190   9.298   8.087  0.0387 -0.6165  0.3137
  526MOL0     C70896   4.266   9.411   8.153 -0.5471  0.0674  0.3676
  526MOL0     C70897   4.342   9.498   8.050 -0.4850  0.5493  0.4442
  526MOL0     C70898   4.420   9.598   8.128  0.4236 -0.1684 -0.2526
  526MOL0     O70899   4.503   9.675   8.038  0.2145  0.3418 -0.5496
  526MOL0     C70900   4.622   9.712   8.102 -0.2531  0.1550  0.0429
  526MOL0     C70901   4.738   9.731   8.028  0.3458 -0.5512 -0.0993
  526MOL0     C70902   4.850   9.798   8.079  0.0171 -0.4820  0.1073
  526MOL0     C70903   4.859   9.830   8.211  0.9478 -0.2450 -0.8297
  526MOL0     C70904   4.979   9.906   8.265 -0.7586 -0.3039  0.1528
  526MOL0     O70905   5.005   9.895   8.400  0.0881  0.6375  0.9204
  526MOL0     C70906   5.117   9.926   8.474  0.1632 -0.1059 -0.3011
  526MOL0     C70907   5.117   9.922   8.611  0.5683 -0.2837 -0.7411
  526MOL0     C70908   5.228   9.940   8.691 -0.4481 -0.1054  0.5055
  526MOL0     C70909   5.360   9.953   8.634 -0.6665 -0.1782 -0.4041
  526MOL0     O70910   5.480   9.978   8.713  0.4889 -0.6786 -0.5850
  526MOL0     C70911   5.547  10.102   8.684 -0.1688  0.3385  0.3251
  526MOL0     C70912   5.689  10.068   8.673 -0.4365  0.2221  0.2013
  526MOL0     C70913   5.758  10.058   8.808  0.3844 -0.5920 -0.6594
  526MOL0     C70914   5.905  10.004   8.798  0.6735  0.5026 -0.0800
  526MOL0     C70915   5.942   9.896   8.903  0.0975 -0.1997 -0.5235
  526MOL0     C70916   6.095   9.908   8.934  0.5433 -0.2866  0.0238
  526MOL0     C70917   6.195   9.899   8.812  0.5467 -1.0500  0.3052
  526MOL0     C70918   6.343   9.895   8.852 -0.3072  0.2263 -0.0060
  526MOL0    Cl70919   6.377   9.786   8.990  0.2838 -0.3856 -0.3510
  526MOL0     C70920   5.359   9.944   8.490  0.1677 -0.2633 -0.3974
  526MOL0     C70921   5.240   9.937   8.410 -0.1958  0.0861 -0.3497
  526MOL0     O70922   5.053   9.972   8.189 -0.2705  0.2679  0.1267
  526MOL0     C70923   4.741   9.801   8.287 -0.4177 -0.3187  1.2373
  526MOL0     C70924   4.624   9.749   8.235 -0.3464  0.2611  0.5557
  526MOL0     N70925   4.104   9.070   8.204  0.0656 -0.6101  0.4959
  526MOL0     N70926   4.029   9.041   8.303 -0.1615 -0.0992 -0.7986
  526MOL0     C70927   3.135   9.225   9.154 -0.1293 -0.3193 -0.2784
  526MOL0     C70928   3.016   9.229   9.223  0.9949  0.4521  0.6640
  526MOL0     C70929   2.678   9.282   9.502  1.0610  0.2868  0.0276
  526MOL0     C70930   2.652   9.180   9.593  0.4857 -1.1887  0.5498
  526MOL0     C70931   2.532   9.165   9.662 -1.0115  0.0817 -0.8772
  526MOL0     C70932   2.425   9.255   9.639 -0.5499 -0.4001  0.7019
  526MOL0     O70933   2.307   9.268   9.703 -0.4989 -0.3770  0.5253
  526MOL0     C70934   2.278   9.183   9.813  0.6707 -0.4049  0.1173
  526MOL0     C70935   2.199   9.065   9.764 -0.7920  0.0314  0.1465
  526MOL0     C70936   2.061   9.108   9.729  0.2382  0.6339 -0.4328
  526MOL0     C70937   1.963   8.997   9.710 -0.2163 -0.0145  0.1361
  526MOL0     C70938   1.831   9.050   9.693  0.0039 -0.0269 -0.0104
  526MOL0     C70939   1.713   9.087   9.683 -0.6377  0.1255 -0.2864
  526MOL0     C70940   2.443   9.350   9.538 -0.5610  0.4143 -0.1582
  526MOL0     C70941   2.563   9.353   9.466  0.8138  0.3301  0.1089
  526MOL0     C70942   2.556   9.437   9.341  0.1033 -0.4521 -0.4800
  526MOL0     H70943   3.112   9.124   9.525 -1.7962  0.0086 -1.3322
  526MOL0     H70944   3.341   9.097   9.374 -0.0145 -0.5569 -2.1083
  526MOL0     H70945   3.353   9.310   9.004  2.2031  1.7414 -1.5253
  526MOL0     H70946   3.509   9.256   9.033 -0.3035  0.9386 -3.2533
  526MOL0     H70947   3.305   9.100   8.891  1.5074  0.3740 -0.1477
  526MOL0     H70948   3.444   9.018   8.955  0.3892 -0.3664  1.9392
  526MOL0     H70949   3.596   9.193   8.826 -0.6779  2.4220 -0.1634
  526MOL0     H70950   3.458   9.257   8.749 -0.3045  0.7899  0.6328
  526MOL0     H70951   3.492   8.965   8.730 -3.4400 -0.2529 -1.2800
  526MOL0     H70952   3.412   9.080   8.628  0.2723  0.8595 -0.0076
  526MOL0     H70953   3.707   9.045   8.665  0.6213 -1.5416 -1.0530
  526MOL0     H70954   3.617   9.006   8.521  2.2594 -0.1012 -0.9572
  526MOL0     H70955   3.563   9.257   8.484 -0.1372 -0.6456  0.7403
  526MOL0     H70956   3.683   9.281   8.610 -0.2114 -1.3737  0.8187
  526MOL0     H70957   3.757   9.281   8.359  1.9704  0.2512  1.6787
  526MOL0     H70958   3.713   9.118   8.342 -1.7882  1.6017 -1.0534
  526MOL0     H70959   3.932   9.244   8.532  0.3650 -0.7837  1.0957
  526MOL0     H70960   3.897   9.071   8.515 -2.3896  1.2806  1.5768
  526MOL0     H70961   4.000   9.376   8.290  2.1509  1.0659 -4.9614
  526MOL0     H70962   4.255   9.231   8.031  0.8580  1.8003 -1.8406
  526MOL0     H70963   4.114   9.336   8.017 -1.7092 -1.1232  1.8381
  526MOL0     H70964   4.203   9.476   8.214 -2.6325 -1.9542  0.5117
  526MOL0     H70965   4.340   9.365   8.220  3.0453  1.1785 -2.5393
  526MOL0     H70966   4.280   9.555   7.980 -1.3400  0.1696  0.8784
  526MOL0     H70967   4.411   9.431   7.998  0.1391  0.5312  1.2867
  526MOL0     H70968   4.455   9.543   8.215 -4.4546 -2.8026  0.4460
  526MOL0     H70969   4.352   9.667   8.179 -1.4475 -0.8972 -1.6046
  526MOL0     H70970   4.741   9.695   7.926  1.7030 -2.6579  0.6161
  526MOL0     H70971   4.926   9.818   8.004  2.3346  0.8053  2.6520
  526MOL0     H70972   5.022   9.910   8.662  2.4551 -0.6794  3.0997
  526MOL0     H70973   5.215   9.935   8.799  1.8833  1.2893  0.9224
  526MOL0     H70974   5.511  10.151   8.593 -0.8864 -3.3081 -1.5423
  526MOL0     H70975   5.522  10.171   8.765 -1.8284 -1.0066  1.0133
  526MOL0     H70976   5.702   9.980   8.609  1.1818  0.6822 -0.1449
  526MOL0     H70977   5.732  10.157   8.627 -1.6165  0.2919 -0.8239
  526MOL0     H70978   5.758  10.158   8.852  0.5453 -0.4512 -0.9741
  526MOL0     H70979   5.702   9.997   8.879 -0.0090  0.3675 -0.1300
  526MOL0     H70980   5.965  10.096   8.805  2.2057 -0.4829  0.3792
  526MOL0     H70981   5.924   9.950   8.705  3.2783 -3.9798  2.7047
  526MOL0     H70982   5.935   9.794   8.864  0.8444  0.4789 -2.5951
  526MOL0     H70983   5.879   9.903   8.992 -2.5159 -0.5441 -2.2557
  526MOL0     H70984   6.091  10.001   8.992  0.1562  2.0901 -3.4835
  526MOL0     H70985   6.125   9.822   8.994  0.2895 -0.4843 -0.1272
  526MOL0     H70986   6.179   9.984   8.745 -1.8418 -1.1092  0.6975
  526MOL0     H70987   6.164   9.809   8.757 -3.3716 -0.4671  1.2768
  526MOL0     H70988   6.393   9.867   8.759 -2.6558 -2.6273 -0.5375
  526MOL0     H70989   6.377   9.996   8.878 -2.6333  0.5331  2.3516
  526MOL0     H70990   5.452   9.966   8.438  0.9804  0.8642  1.4089
  526MOL0     H70991   5.250   9.933   8.302  3.5598  0.9778 -0.2026
  526MOL0     H70992   4.736   9.832   8.391 -1.5066  0.6403  0.9206
  526MOL0     H70993   4.532   9.756   8.293 -0.1649  2.1960  0.6776
  526MOL0     H70994   3.125   9.235   9.046  1.8801 -0.2887 -0.5067
  526MOL0     H70995   2.921   9.260   9.182  0.9694  0.1088  0.4601
  526MOL0     H70996   2.734   9.109   9.597  0.5123 -1.1057  3.0738
  526MOL0     H70997   2.518   9.085   9.734  1.5156 -1.1997 -1.6614
  526MOL0     H70998   2.213   9.245   9.877  0.5525  0.6962 -1.0244
  526MOL0     H70999   2.368   9.154   9.868  0.5116 -0.0944  0.5493
  526MOL0     H71000   2.190   8.994   9.846  3.3698  0.4002  1.1849
  526MOL0     H71001   2.251   9.009   9.685 -1.3497 -0.9698  0.4719
  526MOL0     H71002   2.079   9.161   9.635  1.9853  0.1732 -0.4038
  526MOL0     H71003   2.032   9.169   9.815  0.4529 -3.1809  2.6617
  526MOL0     H71004   1.990   8.934   9.625 -2.3554  1.1475 -1.5300
  526MOL0     H71005   1.960   8.922   9.789 -3.1078 -2.2788 -1.8919
  526MOL0     H71006   1.608   9.106   9.684 -1.2479 -2.7874  0.5249
  526MOL0     H71007   2.371   9.430   9.527  0.7566  1.9525  1.6046
  526MOL0     H71008   2.462   9.432   9.285  0.2828  0.9642 -0.9423
  526MOL0     H71009   2.587   9.536   9.376  1.2454 -0.4945 -1.3204
  526MOL0     H71010   2.627   9.402   9.265 -0.2139  1.3265 -1.6596
  527MOL0     O71011   5.445  10.849   5.092  0.4481  0.6918 -0.0433
  527MOL0     C71012   5.365  10.911   5.166  0.5204  0.5414 -0.1013
  527MOL0     O71013   5.388  10.965   5.294 -0.0643  0.0535  0.6066
  527MOL0     C71014   5.502  10.925   5.356  0.8303 -0.4533 -1.1709
  527MOL0     C71015   5.558  10.797   5.348  0.6547  0.2010 -0.7651
  527MOL0     C71016   5.666  10.757   5.434 -0.3762  0.0506 -0.0883
  527MOL0     C71017   5.715  10.852   5.527 -0.1602  0.0600  0.5051
  527MOL0     O71018   5.807  10.810   5.614 -0.3528  0.0630 -0.3209
  527MOL0     C71019   5.892  10.911   5.679 -0.5249  0.4754  0.9277
  527MOL0     C71020   6.009  10.836   5.748 -0.5334  0.2860  0.5023
  527MOL0     C71021   6.098  10.948   5.805 -0.0889  0.4441  0.1175
  527MOL0     C71022   6.211  10.884   5.893 -0.1577 -0.2257  0.6417
  527MOL0     C71023   6.342  10.964   5.883 -0.4174 -0.2649 -0.3854
  527MOL0     C71024   6.446  10.925   5.986  0.0837 -0.4553 -0.6590
  527MOL0     C71025   6.589  10.956   5.942  0.3503 -0.1786  0.3591
  527MOL0     C71026   6.615  11.110   5.940  0.4159  0.5345  0.9985
  527MOL0     N71027   6.760  11.138   5.973 -0.3492  0.6152 -0.2439
  527MOL0     C71028   6.873  11.082   5.914 -0.4400 -0.5314  0.1792
  527MOL0     C71029   6.977  11.114   5.990 -0.2544 -0.0055 -0.5351
  527MOL0     C71030   7.122  11.082   5.986  0.6954 -0.3711 -0.2390
  527MOL0     C71031   7.176  11.161   5.861  0.1987  0.1601 -0.4365
  527MOL0     C71032   7.324  11.132   5.855 -0.0555  0.6161  0.1256
  527MOL0     C71033   7.397  11.233   5.767  0.2517  0.1943 -0.4000
  527MOL0     O71034   7.533  11.220   5.790 -0.6576  0.1809 -0.0797
  527MOL0     C71035   7.614  11.321   5.756  0.3337  0.3831 -0.6745
  527MOL0     C71036   7.734  11.325   5.818  0.2706  0.6409  0.3476
  527MOL0     C71037   7.834  11.418   5.791 -0.1433 -0.1273 -0.2571
  527MOL0     C71038   7.815  11.519   5.695  0.0432  0.4731  0.1071
  527MOL0     C71039   7.928  11.609   5.655  0.4470  0.4628 -0.6989
  527MOL0     O71040   8.043  11.613   5.734 -0.4804  1.3008  0.4635
  527MOL0     C71041   8.154  11.654   5.672 -0.7626  1.6340  0.6314
  527MOL0     C71042   8.203  11.788   5.682 -0.2600 -0.4405  0.3438
  527MOL0     C71043   8.334  11.824   5.630  0.0698  0.9249  0.3673
  527MOL0     C71044   8.411  11.730   5.555 -0.2939 -0.1420 -0.4703
  527MOL0     O71045   8.539  11.754   5.498  0.2796  0.1182  1.1865
  527MOL0     C71046   8.589  11.885   5.515  0.3710 -0.0245 -0.2204
  527MOL0     C71047   8.735  11.878   5.454 -0.4228 -1.0810  0.6042
  527MOL0     C71048   8.836  11.811   5.548  0.2586 -0.1822 -0.3838
  527MOL0     C71049   8.974  11.795   5.483 -0.3567 -0.8239  0.1963
  527MOL0     C71050   9.072  11.724   5.570 -0.2617  0.2696  0.6869
  527MOL0     C71051   9.190  11.692   5.486  0.1847  0.0690  0.3184
  527MOL0     C71052   9.316  11.656   5.560  0.3261 -0.0802 -0.2221
  527MOL0     C71053   9.423  11.632   5.445  0.7602 -0.5939 -1.1241
  527MOL0    Cl71054   9.575  11.625   5.520  0.2664 -0.3354  0.5564
  527MOL0     C71055   8.360  11.602   5.544 -0.5703  0.7792  0.1800
  527MOL0     C71056   8.234  11.565   5.596  0.0384 -0.1442 -0.5215
  527MOL0     O71057   7.914  11.660   5.547 -0.3422  0.2321 -0.6446
  527MOL0     C71058   7.687  11.510   5.632 -0.3305  0.6056  1.0342
  527MOL0     C71059   7.587  11.420   5.661  0.2168  0.3285  0.0178
  527MOL0     N71060   6.934  11.198   6.089 -0.4239  0.4174  0.2459
  527MOL0     N71061   6.806  11.207   6.088  0.9668  0.6758 -0.4327
  527MOL0     C71062   5.652  10.983   5.538 -0.0674 -0.3708  0.2935
  527MOL0     C71063   5.552  11.017   5.447 -0.3763  0.0417 -0.1507
  527MOL0     C71064   5.242  10.955   5.109  0.0499  0.8572 -0.3555
  527MOL0     C71065   5.195  11.088   5.145 -0.4120  0.0889  0.4566
  527MOL0     C71066   5.071  11.128   5.107  0.5971 -0.5021 -0.3615
  527MOL0     C71067   5.000  11.045   5.025  0.8005  0.1731  0.4297
  527MOL0     O71068   4.883  11.097   4.987  0.0939  0.0432 -0.0509
  527MOL0     C71069   4.771  11.013   4.957  0.0457  0.8898  0.5898
  527MOL0     C71070   4.714  10.942   5.083 -0.0890  0.7481  0.4504
  527MOL0     C71071   4.697  11.047   5.193  0.4819  0.2963  1.2405
  527MOL0     C71072   4.597  11.003   5.306  0.5342  0.7821  0.2268
  527MOL0     C71073   4.607  11.087   5.420 -0.3370 -0.0588  0.5566
  527MOL0     C71074   4.626  11.157   5.515 -0.3447 -0.2655  0.5417
  527MOL0     C71075   5.049  10.924   4.979  0.0188 -0.9498 -0.0886
  527MOL0     C71076   5.165  10.874   5.024  0.6507 -0.6137 -0.2002
  527MOL0     C71077   5.221  10.730   4.984 -0.2380 -0.4645  0.0127
  527MOL0     H71078   5.511  10.721   5.287  2.0674 -3.3984  2.2031
  527MOL0     H71079   5.715  10.661   5.423 -0.2870 -0.3505  2.9125
  527MOL0     H71080   5.935  10.975   5.601 -0.1160 -0.7122  0.1484
  527MOL0     H71081   5.848  10.986   5.746 -1.0640  2.1517 -1.1893
  527MOL0     H71082   6.068  10.776   5.679 -0.7256  1.0663 -0.3587
  527MOL0     H71083   5.966  10.765   5.820 -1.0254  0.8254  0.7544
  527MOL0     H71084   6.046  11.026   5.859 -2.0626 -2.2095  2.3336
  527MOL0     H71085   6.135  10.995   5.713  0.7281 -1.6102 -0.6793
  527MOL0     H71086   6.175  10.869   5.995 -0.1624  0.0344  0.6813
  527MOL0     H71087   6.235  10.787   5.850 -2.5931 -0.1165 -1.2076
  527MOL0     H71088   6.379  10.956   5.780  0.0183 -0.8809 -0.1880
  527MOL0     H71089   6.320  11.071   5.885  1.2589  0.0991  0.2975
  527MOL0     H71090   6.422  10.969   6.083 -0.9012  1.2809 -1.6392
  527MOL0     H71091   6.434  10.817   6.001 -0.0217 -0.2715  0.7193
  527MOL0     H71092   6.611  10.926   5.839  1.1181  1.3067  0.0541
  527MOL0     H71093   6.651  10.898   6.011  0.1870 -2.4005 -1.2267
  527MOL0     H71094   6.593  11.141   5.838 -0.3689 -3.6063 -0.2716
  527MOL0     H71095   6.549  11.165   6.008 -0.5351  0.7746 -0.0915
  527MOL0     H71096   6.876  11.023   5.823 -1.7658 -0.9086  0.3617
  527MOL0     H71097   7.176  11.120   6.073 -1.3535  1.9802  0.1342
  527MOL0     H71098   7.133  10.975   5.969 -2.8097 -0.7319 -0.9936
  527MOL0     H71099   7.128  11.116   5.773  0.9817 -1.8638  0.1044
  527MOL0     H71100   7.157  11.268   5.868 -1.3703 -0.1361  0.2934
  527MOL0     H71101   7.342  11.028   5.828 -2.1793  0.4543 -0.8424
  527MOL0     H71102   7.367  11.137   5.956  1.4563  0.2112 -0.4671
  527MOL0     H71103   7.368  11.338   5.779 -0.8475  0.1320 -2.0989
  527MOL0     H71104   7.397  11.194   5.664  2.2469 -1.2701  0.0855
  527MOL0     H71105   7.754  11.243   5.886 -3.9730  0.1314  1.2410
  527MOL0     H71106   7.929  11.404   5.843  1.2296  1.5700 -2.1495
  527MOL0     H71107   8.141  11.853   5.743 -0.1694  1.1468 -1.1716
  527MOL0     H71108   8.362  11.927   5.645  1.8620  0.8747 -2.0471
  527MOL0     H71109   8.534  11.952   5.449  0.2876 -1.3122 -1.4952
  527MOL0     H71110   8.595  11.910   5.622 -0.9253 -2.4616  0.5022
  527MOL0     H71111   8.735  11.822   5.360 -2.1784  0.7059 -0.5537
  527MOL0     H71112   8.781  11.973   5.425 -2.4986  0.0675  0.8737
  527MOL0     H71113   8.846  11.869   5.640 -1.1287 -0.2921 -0.1451
  527MOL0     H71114   8.796  11.715   5.584 -1.7868  0.8808  0.3124
  527MOL0     H71115   9.015  11.890   5.449  1.1382 -1.6477 -0.3718
  527MOL0     H71116   8.960  11.736   5.392 -1.7915  1.8370 -1.4138
  527MOL0     H71117   9.036  11.637   5.625 -1.7885  1.3825  1.5609
  527MOL0     H71118   9.098  11.792   5.652 -0.5882  1.9698 -0.5608
  527MOL0     H71119   9.164  11.608   5.421  1.4978 -0.2284  0.1528
  527MOL0     H71120   9.220  11.778   5.424  1.4989 -1.6347 -1.5557
  527MOL0     H71121   9.308  11.574   5.633 -1.7173  0.2015 -0.0716
  527MOL0     H71122   9.343  11.744   5.618 -2.3315  0.2239  0.7257
  527MOL0     H71123   9.401  11.537   5.396  3.3900 -2.2449  0.6061
  527MOL0     H71124   9.427  11.707   5.366 -0.3448 -2.6478 -3.2402
  527MOL0     H71125   8.406  11.528   5.478 -0.3291  2.3234 -1.4856
  527MOL0     H71126   8.193  11.465   5.582 -1.7148  0.7606 -2.2522
  527MOL0     H71127   7.671  11.560   5.537 -3.5621 -2.5014 -0.2652
  527MOL0     H71128   7.508  11.412   5.586 -0.4858  2.1290  0.5083
  527MOL0     H71129   5.683  11.051   5.616 -1.0408 -0.8509  1.1302
  527MOL0     H71130   5.515  11.118   5.432  0.9923  0.6009  0.0636
  527MOL0     H71131   5.259  11.156   5.201  1.3732 -0.7159 -0.4918
  527MOL0     H71132   5.031  11.222   5.144  0.1483 -0.3270 -1.2492
  527MOL0     H71133   4.785  10.937   4.880 -3.4362 -2.0963  2.5461
  527MOL0     H71134   4.692  11.076   4.914 -1.0299 -1.4856 -1.1629
  527MOL0     H71135   4.782  10.860   5.109 -1.6815 -1.4453 -1.7874
  527MOL0     H71136   4.623  10.890   5.051  1.7741 -1.4646 -1.7270
  527MOL0     H71137   4.652  11.138   5.152 -1.1426 -2.1335 -2.9392
  527MOL0     H71138   4.796  11.058   5.238  1.6817  0.5172 -1.3090
  527MOL0     H71139   4.498  11.007   5.259 -0.4029 -3.7526  1.4386
  527MOL0     H71140   4.622  10.902   5.336 -1.0897  0.6245  1.1359
  527MOL0     H71141   4.653  11.235   5.582 -0.5275  1.4561 -1.3011
  527MOL0     H71142   4.992  10.867   4.907 -0.6797  0.4156 -0.6584
  527MOL0     H71143   5.299  10.756   4.911 -2.1227  0.2678 -1.8393
  527MOL0     H71144   5.272  10.675   5.063 -0.6345 -0.2755  0.4089
  527MOL0     H71145   5.146  10.664   4.939 -2.7217  0.3816  2.6029
  528MOL0     O71146   0.467   4.983   0.471 -0.5001  0.6007  0.3635
  528MOL0     C71147   0.417   5.086   0.429  0.1938 -0.1211  0.5868
  528MOL0     O71148   0.483   5.177   0.350 -0.0286  0.7969 -0.3358
  528MOL0     C71149   0.614   5.165   0.316 -0.6964 -0.4464  0.2170
  528MOL0     C71150   0.658   5.143   0.176  0.3406 -1.0643 -0.0588
  528MOL0     C71151   0.795   5.130   0.141 -1.1431 -0.6185 -0.6715
  528MOL0     C71152   0.892   5.141   0.244 -0.2462  0.5181  0.3251
  528MOL0     O71153   1.021   5.136   0.204 -0.3659  0.0814 -0.2715
  528MOL0     C71154   1.127   5.180   0.294 -0.5185 -0.6583  0.1215
  528MOL0     C71155   1.260   5.192   0.218 -0.4731 -1.2114 -0.1383
  528MOL0     C71156   1.378   5.246   0.304  0.1272  0.2038 -0.0767
  528MOL0     C71157   1.524   5.243   0.232  0.0948  0.1803  0.3216
  528MOL0     C71158   1.633   5.301   0.320  0.3396  0.0723  0.8356
  528MOL0     C71159   1.763   5.315   0.236  0.5928 -0.4162 -0.0325
  528MOL0     C71160   1.882   5.341   0.335  1.0054  0.5059 -0.9285
  528MOL0     C71161   2.002   5.368   0.246 -0.3083 -0.2597  1.0183
  528MOL0     N71162   2.127   5.425   0.304 -0.3079  0.3517  0.2934
  528MOL0     C71163   2.143   5.558   0.345 -0.6624 -0.4063 -0.0525
  528MOL0     C71164   2.260   5.558   0.418 -0.3218 -0.1461  0.2449
  528MOL0     C71165   2.339   5.675   0.455  0.2418 -0.7445 -0.1538
  528MOL0     C71166   2.251   5.785   0.526 -0.1677  0.0459 -0.0325
  528MOL0     C71167   2.305   5.819   0.666 -0.2471 -0.3595 -1.0286
  528MOL0     C71168   2.436   5.891   0.672 -0.1899 -0.1372 -0.2917
  528MOL0     O71169   2.543   5.820   0.609 -0.5549 -0.2021 -0.0198
  528MOL0     C71170   2.673   5.855   0.626 -0.0333  0.4510 -0.0052
  528MOL0     C71171   2.728   5.951   0.716 -0.2194  0.2509  0.2576
  528MOL0     C71172   2.865   5.962   0.734 -0.3720  0.6660 -0.5597
  528MOL0     C71173   2.948   5.871   0.670 -0.1118  0.0946 -0.5520
  528MOL0     C71174   3.095   5.881   0.695  0.0661 -0.4982  0.6522
  528MOL0     O71175   3.167   5.781   0.637  0.3378  0.3947 -0.5695
  528MOL0     C71176   3.305   5.781   0.646  0.5509  0.3112  0.2283
  528MOL0     C71177   3.374   5.731   0.759  0.6306  0.7080  0.2858
  528MOL0     C71178   3.515   5.738   0.772  0.3032  0.6383 -0.6591
  528MOL0     C71179   3.586   5.806   0.671 -0.3770  1.4659 -0.1252
  528MOL0     O71180   3.715   5.834   0.685 -0.1414 -0.5132  0.5926
  528MOL0     C71181   3.806   5.725   0.723 -0.3604  0.9390 -0.4271
  528MOL0     C71182   3.944   5.745   0.651 -0.3975  0.6360 -0.3622
  528MOL0     C71183   3.925   5.811   0.520 -1.0346 -0.6899  0.4453
  528MOL0     C71184   4.064   5.827   0.441  0.0388 -0.2499 -0.3963
  528MOL0     C71185   4.046   5.908   0.319 -0.0263 -0.7394 -0.5350
  528MOL0     C71186   4.183   5.934   0.255  0.8445 -0.0077  0.3627
  528MOL0     C71187   4.177   5.995   0.111 -0.0722 -0.1449  0.1548
  528MOL0     C71188   4.301   5.977   0.030  0.0418 -0.2815  0.1567
  528MOL0    Cl71189   4.314   5.807  -0.037  0.0500  0.1380 -0.5932
  528MOL0     C71190   3.517   5.862   0.574 -0.2602 -0.0836  0.0590
  528MOL0     C71191   3.379   5.852   0.558 -0.2386 -0.0456  0.4595
  528MOL0     O71192   3.140   5.981   0.755  0.0051  0.2974  0.1459
  528MOL0     C71193   2.896   5.765   0.597  0.7266  0.8926  0.7973
  528MOL0     C71194   2.756   5.762   0.567  0.0536  0.3684 -0.8600
  528MOL0     N71195   2.310   5.431   0.429 -0.1199  0.0710 -0.0326
  528MOL0     N71196   2.241   5.357   0.349 -0.0140 -0.1427  0.0767
  528MOL0     C71197   0.850   5.163   0.381 -0.1856 -0.5615  0.9723
  528MOL0     C71198   0.716   5.176   0.410 -0.2289  0.0086 -0.4809
  528MOL0     C71199   0.272   5.116   0.456  0.1455  0.2814 -0.0336
  528MOL0     C71200   0.211   5.220   0.372  0.5013  0.2497 -0.9771
  528MOL0     C71201   0.069   5.239   0.376 -0.0697 -0.1464  0.1978
  528MOL0     C71202  -0.007   5.165   0.472  1.3067  0.1532  0.3400
  528MOL0     O71203  -0.151   5.181   0.493 -1.0486  0.5486 -0.1847
  528MOL0     C71204  -0.218   5.270   0.401  0.6028  0.7233  0.7795
  528MOL0     C71205  -0.240   5.200   0.265 -0.1485  0.0831  0.3199
  528MOL0     C71206  -0.335   5.076   0.271 -0.0970 -0.4503 -0.3597
  528MOL0     C71207  -0.341   5.022   0.121  0.4291  0.2401  0.5167
  528MOL0     C71208  -0.433   5.117   0.048  0.4159 -0.2040  0.3512
  528MOL0     C71209  -0.507   5.200  -0.009 -0.6501  0.0018  0.1117
  528MOL0     C71210   0.058   5.075   0.553  0.5992  0.1158  0.2012
  528MOL0     C71211   0.195   5.049   0.547  0.2080  0.5215 -0.8892
  528MOL0     C71212   0.255   4.952   0.646  0.0332 -0.7692  0.2695
  528MOL0     H71213   0.583   5.147   0.097 -1.5451  0.6132  1.7119
  528MOL0     H71214   0.829   5.130   0.038  2.8031  1.2263  0.4385
  528MOL0     H71215   1.092   5.274   0.338 -2.0428 -1.4922  0.7484
  528MOL0     H71216   1.136   5.108   0.377 -1.1578  0.3058  1.0529
  528MOL0     H71217   1.238   5.263   0.138 -3.6787 -1.2990  0.5125
  528MOL0     H71218   1.299   5.102   0.171  1.1102 -0.8180  0.3626
  528MOL0     H71219   1.395   5.177   0.388 -2.2270  0.4311  0.6585
  528MOL0     H71220   1.346   5.344   0.338 -0.0642 -0.0522  0.4942
  528MOL0     H71221   1.550   5.142   0.201  0.0772  0.7261 -1.6081
  528MOL0     H71222   1.518   5.300   0.138 -0.7642 -0.0556  0.2203
  528MOL0     H71223   1.609   5.402   0.355  1.8785  1.8458 -2.6599
  528MOL0     H71224   1.665   5.235   0.401 -1.3158 -0.9076  0.7515
  528MOL0     H71225   1.788   5.224   0.182  2.7145  0.4537 -0.6180
  528MOL0     H71226   1.749   5.398   0.166 -2.9092  0.7348  1.8038
  528MOL0     H71227   1.904   5.248   0.388  3.5855 -1.8423 -5.4811
  528MOL0     H71228   1.860   5.422   0.405  3.3976  1.3205 -1.0328
  528MOL0     H71229   2.009   5.268   0.201 -0.6554  0.5178 -0.8516
  528MOL0     H71230   1.972   5.439   0.169  0.3793 -0.3424  0.6601
  528MOL0     H71231   2.092   5.648   0.313 -0.0599 -0.8164 -2.3742
  528MOL0     H71232   2.419   5.645   0.523 -0.8390 -0.7740  1.1714
  528MOL0     H71233   2.386   5.702   0.361 -0.9984 -2.0013 -1.1770
  528MOL0     H71234   2.228   5.873   0.465  2.3513  0.8804  0.1047
  528MOL0     H71235   2.146   5.756   0.540  0.0021 -0.0755  1.0822
  528MOL0     H71236   2.322   5.722   0.714 -1.2291  0.3040  0.7203
  528MOL0     H71237   2.223   5.873   0.713 -0.2459  0.1741 -1.6215
  528MOL0     H71238   2.454   5.904   0.779  1.6340 -1.0768 -0.4571
  528MOL0     H71239   2.432   5.987   0.620  1.7766 -1.0293 -2.2561
  528MOL0     H71240   2.664   6.020   0.771  0.4640  2.0984 -1.1300
  528MOL0     H71241   2.916   6.017   0.813 -2.6193  0.4003  1.1740
  528MOL0     H71242   3.307   5.684   0.831 -2.7455 -0.6468 -3.3553
  528MOL0     H71243   3.562   5.704   0.864 -1.3788  2.9511  1.2040
  528MOL0     H71244   3.824   5.713   0.830  0.5760 -1.0888 -0.7608
  528MOL0     H71245   3.756   5.633   0.690  0.9895  1.0267 -2.9726
  528MOL0     H71246   4.011   5.796   0.721  1.6863 -0.6263 -1.3570
  528MOL0     H71247   3.982   5.644   0.634 -1.4477 -0.1884  1.7986
  528MOL0     H71248   3.852   5.753   0.463 -1.6031 -0.6457  1.1182
  528MOL0     H71249   3.880   5.909   0.537  1.4410  0.6796 -0.3370
  528MOL0     H71250   4.100   5.727   0.415 -2.2911 -0.7261 -2.1012
  528MOL0     H71251   4.136   5.867   0.512 -0.9952 -1.0466  1.1709
  528MOL0     H71252   4.001   6.002   0.352  0.7100 -0.6922  0.3750
  528MOL0     H71253   3.980   5.845   0.259 -0.9357  1.0077 -1.4105
  528MOL0     H71254   4.244   5.998   0.320 -0.3377 -0.4360  1.9554
  528MOL0     H71255   4.223   5.833   0.248 -1.9510 -1.0954 -1.6732
  528MOL0     H71256   4.157   6.102   0.127  0.6481  0.3692 -2.0927
  528MOL0     H71257   4.089   5.955   0.059 -0.8048 -0.1823  1.3757
  528MOL0     H71258   4.281   6.033  -0.062 -1.7967 -3.4522 -1.5552
  528MOL0     H71259   4.396   6.016   0.068 -1.5253  2.2368  1.8123
  528MOL0     H71260   3.573   5.916   0.498  0.2168  0.7320  0.9786
  528MOL0     H71261   3.336   5.905   0.474 -1.3590 -0.2659  0.8790
  528MOL0     H71262   2.954   5.687   0.550  1.0667  3.4442 -3.6071
  528MOL0     H71263   2.701   5.677   0.528 -0.6611  0.6969 -0.5921
  528MOL0     H71264   0.930   5.178   0.454 -0.9184  0.3841  1.6013
  528MOL0     H71265   0.700   5.209   0.513  2.1809 -0.0242 -0.0320
  528MOL0     H71266   0.262   5.275   0.293 -0.6473  3.5586  0.4230
  528MOL0     H71267   0.015   5.307   0.311  1.0008  0.8030  0.2745
  528MOL0     H71268  -0.165   5.365   0.390 -0.0449  0.8636 -1.6178
  528MOL0     H71269  -0.313   5.279   0.455  0.4938  1.9029  0.4017
  528MOL0     H71270  -0.139   5.164   0.239 -0.4411  0.2865 -1.2062
  528MOL0     H71271  -0.273   5.265   0.184 -1.1908 -0.4968  0.2714
  528MOL0     H71272  -0.435   5.110   0.299  0.6070  0.2989  1.3580
  528MOL0     H71273  -0.304   4.996   0.339  0.9290  1.7113  1.8694
  528MOL0     H71274  -0.245   5.022   0.070 -0.8609  2.4229 -2.2235
  528MOL0     H71275  -0.377   4.919   0.114 -3.0930  1.4375 -1.3414
  528MOL0     H71276  -0.568   5.279  -0.050 -0.4807 -0.5086 -1.1561
  528MOL0     H71277  -0.003   5.018   0.622  3.2843 -0.7111  2.0534
  528MOL0     H71278   0.180   4.913   0.716  2.1200 -5.1948  0.3633
  528MOL0     H71279   0.268   4.869   0.576 -1.0922 -0.7090 -0.0366
  528MOL0     H71280   0.341   4.981   0.707 -1.8792 -2.0010  3.8300
  529MOL0     O71281   3.489   4.643   4.190  0.1890  0.2190 -1.0615
  529MOL0     C71282   3.407   4.611   4.274 -0.0486  0.0067  0.4041
  529MOL0     O71283   3.434   4.542   4.383  0.0076  0.0651  0.7346
  529MOL0     C71284   3.559   4.508   4.412  0.2794  0.7952  0.5295
  529MOL0     C71285   3.645   4.598   4.472  0.2523 -0.0848 -0.5274
  529MOL0     C71286   3.780   4.558   4.497  0.6075  0.1987 -0.3626
  529MOL0     C71287   3.822   4.424   4.464  0.4088  0.0201 -0.7730
  529MOL0     O71288   3.952   4.389   4.514  0.2447 -0.5605  0.1324
  529MOL0     C71289   3.998   4.256   4.496 -0.8325 -0.0770  0.8104
  529MOL0     C71290   4.121   4.230   4.583  0.2579 -0.3187 -0.6521
  529MOL0     C71291   4.244   4.318   4.530  0.2324  0.9658 -0.0566
  529MOL0     C71292   4.389   4.275   4.569 -0.7886  0.6131  0.1224
  529MOL0     C71293   4.476   4.389   4.533 -0.7812  0.2160 -0.1273
  529MOL0     C71294   4.627   4.361   4.563  0.0231 -0.3366 -0.1819
  529MOL0     C71295   4.675   4.412   4.701  0.3352  0.8541 -0.4830
  529MOL0     C71296   4.828   4.433   4.708 -0.9422 -0.0473 -0.1809
  529MOL0     N71297   4.881   4.542   4.628  0.0467  0.1852 -0.0316
  529MOL0     C71298   4.876   4.678   4.660  0.6537  0.2583  1.5994
  529MOL0     C71299   4.943   4.739   4.567 -0.3289  0.3311  0.3492
  529MOL0     C71300   4.995   4.875   4.573  0.3499  0.3297  0.5128
  529MOL0     C71301   5.145   4.876   4.590  0.2852 -0.9385 -1.0136
  529MOL0     C71302   5.218   4.999   4.557  0.1746 -0.0923 -0.3127
  529MOL0     C71303   5.373   4.991   4.579  0.4092 -0.3813 -0.1247
  529MOL0     O71304   5.435   5.074   4.487 -0.6870  0.3888  0.1559
  529MOL0     C71305   5.569   5.098   4.505  0.0448 -0.0914 -0.0759
  529MOL0     C71306   5.651   5.038   4.603  0.8419 -0.5748 -0.5006
  529MOL0     C71307   5.786   5.052   4.603 -0.1607  0.0222  0.2858
  529MOL0     C71308   5.850   5.114   4.490 -0.5737 -0.5859  0.4030
  529MOL0     C71309   6.002   5.124   4.480 -0.5695 -0.3995 -0.6419
  529MOL0     O71310   6.055   5.228   4.399 -0.7922 -0.1670 -0.0400
  529MOL0     C71311   6.189   5.228   4.371 -0.3445  1.3396 -0.6816
  529MOL0     C71312   6.248   5.107   4.316  0.8621 -0.5069  0.7094
  529MOL0     C71313   6.388   5.105   4.285 -0.1511  0.3230 -0.3105
  529MOL0     C71314   6.465   5.222   4.303  0.3768 -0.3741 -0.3102
  529MOL0     O71315   6.599   5.228   4.284 -0.4374 -0.6864 -0.4985
  529MOL0     C71316   6.649   5.164   4.170 -0.3842 -0.7573  0.5558
  529MOL0     C71317   6.801   5.164   4.184  0.0761  0.1888  0.5033
  529MOL0     C71318   6.859   5.042   4.261 -0.1468  0.4048 -0.1310
  529MOL0     C71319   7.019   5.044   4.265  0.4984 -0.0650 -0.5102
  529MOL0     C71320   7.067   4.950   4.372  0.1867 -0.5213  0.8856
  529MOL0     C71321   7.211   4.974   4.406 -0.2065 -0.5337  0.1430
  529MOL0     C71322   7.273   4.875   4.508 -0.4158  0.7745 -0.4713
  529MOL0     C71323   7.319   4.746   4.445 -0.5076 -1.5777  0.4644
  529MOL0    Cl71324   7.397   4.646   4.565  0.0291  0.1141  0.1011
  529MOL0     C71325   6.395   5.342   4.341  0.1543 -0.5026 -0.4199
  529MOL0     C71326   6.263   5.349   4.377 -0.5293  0.4886  0.2566
  529MOL0     O71327   6.068   5.041   4.540 -0.4284  0.0098  0.3321
  529MOL0     C71328   5.767   5.166   4.390 -0.0416 -1.2939 -0.4248
  529MOL0     C71329   5.625   5.155   4.402 -0.2792  0.0849 -0.0719
  529MOL0     N71330   4.967   4.642   4.464 -0.3315  0.0183  0.3613
  529MOL0     N71331   4.935   4.522   4.498  0.5584  0.4711 -0.5015
  529MOL0     C71332   3.737   4.346   4.395 -0.3044 -0.2914  0.8914
  529MOL0     C71333   3.609   4.382   4.366  0.1525  0.3897  0.7206
  529MOL0     C71334   3.266   4.624   4.241  0.1244  0.8746 -0.8980
  529MOL0     C71335   3.226   4.735   4.161 -0.0154 -0.1688 -0.7271
  529MOL0     C71336   3.091   4.759   4.136 -0.3481 -1.0875  0.2947
  529MOL0     C71337   2.992   4.671   4.185  0.3731  0.0094  0.7912
  529MOL0     O71338   2.861   4.691   4.157  0.5039  0.1225 -0.5342
  529MOL0     C71339   2.785   4.775   4.244 -0.4374  0.2495 -0.3082
  529MOL0     C71340   2.691   4.686   4.324 -0.2280  0.0528 -0.6409
  529MOL0     C71341   2.612   4.784   4.418  0.6296 -0.1885  0.7132
  529MOL0     C71342   2.494   4.713   4.487 -0.0257  0.2570  1.1066
  529MOL0     C71343   2.402   4.803   4.567  0.0478 -0.5661 -0.5186
  529MOL0     C71344   2.328   4.881   4.625  0.1098 -0.1699 -0.2535
  529MOL0     C71345   3.031   4.557   4.258  0.3730  0.6997  0.0182
  529MOL0     C71346   3.166   4.532   4.284  1.0198 -0.7636 -0.3538
  529MOL0     C71347   3.184   4.400   4.352  0.0109  0.1256 -0.2471
  529MOL0     H71348   3.618   4.692   4.519  0.5027 -1.1566  1.9304
  529MOL0     H71349   3.845   4.622   4.556  1.5522 -2.3425  1.5199
  529MOL0     H71350   3.922   4.180   4.516  0.7099 -2.5936 -2.0880
  529MOL0     H71351   4.029   4.248   4.391  0.7705  2.1066  1.0505
  529MOL0     H71352   4.140   4.123   4.572 -3.3352 -1.0809 -0.6562
  529MOL0     H71353   4.107   4.255   4.688 -0.6780  0.4188 -0.9328
  529MOL0     H71354   4.224   4.412   4.583  0.8807  1.0026  0.1337
  529MOL0     H71355   4.230   4.329   4.422  2.4891  4.3519 -0.1738
  529MOL0     H71356   4.396   4.245   4.674  0.0391 -0.4786 -0.2226
  529MOL0     H71357   4.404   4.183   4.513  0.2582  0.1202  1.1636
  529MOL0     H71358   4.475   4.406   4.425  0.9786  2.5641  0.1443
  529MOL0     H71359   4.442   4.477   4.588  2.0220  0.5631  1.2318
  529MOL0     H71360   4.655   4.256   4.554  2.8636  0.3983 -1.0029
  529MOL0     H71361   4.668   4.432   4.490 -1.0630  3.1668  2.3104
  529MOL0     H71362   4.647   4.340   4.779 -1.2542 -0.1473 -1.9142
  529MOL0     H71363   4.629   4.508   4.727 -1.6866 -0.1543 -0.1667
  529MOL0     H71364   4.866   4.450   4.809  2.6266  0.2419 -1.4329
  529MOL0     H71365   4.876   4.343   4.668  0.4346  0.7535 -0.4158
  529MOL0     H71366   4.846   4.735   4.747  1.0907  2.3756  0.4131
  529MOL0     H71367   4.986   4.931   4.480  2.7736  1.1205  0.6946
  529MOL0     H71368   4.942   4.932   4.650 -1.9813 -0.5998 -0.3110
  529MOL0     H71369   5.167   4.845   4.693  3.5972 -3.6935 -2.3559
  529MOL0     H71370   5.190   4.794   4.534 -0.0477 -2.3148  0.6399
  529MOL0     H71371   5.167   5.080   4.610 -1.5974 -1.3889  0.0140
  529MOL0     H71372   5.197   5.010   4.450  0.9106 -1.0590 -0.5757
  529MOL0     H71373   5.418   4.893   4.565  3.0704  1.1365 -3.7642
  529MOL0     H71374   5.396   5.025   4.681 -4.0378 -0.7864  1.2444
  529MOL0     H71375   5.610   4.983   4.687  0.6343  0.4956  0.1206
  529MOL0     H71376   5.836   4.996   4.681 -1.7780 -2.2349 -0.2044
  529MOL0     H71377   6.183   5.023   4.296  1.5942 -0.4609 -2.2791
  529MOL0     H71378   6.431   5.013   4.248 -0.8881 -0.4388  0.6765
  529MOL0     H71379   6.618   5.060   4.157 -1.0137 -0.5964  0.7728
  529MOL0     H71380   6.622   5.222   4.081 -0.3557  0.6609  1.4438
  529MOL0     H71381   6.845   5.167   4.084 -2.1065 -1.8717 -0.6195
  529MOL0     H71382   6.838   5.254   4.235  0.2431  0.6269 -0.3800
  529MOL0     H71383   6.820   5.038   4.363  3.1595 -1.0944  1.2203
  529MOL0     H71384   6.835   4.943   4.222 -1.2827 -1.7015  5.1789
  529MOL0     H71385   7.054   5.143   4.297 -1.2033  0.5285 -0.3899
  529MOL0     H71386   7.057   5.013   4.167 -2.0029 -0.9354 -1.2734
  529MOL0     H71387   7.057   4.852   4.324 -1.0437  0.1132 -0.2128
  529MOL0     H71388   7.008   4.942   4.465 -1.6520  0.8281 -0.0991
  529MOL0     H71389   7.278   4.970   4.320  2.5921 -0.7512  2.1906
  529MOL0     H71390   7.223   5.076   4.445  0.9747 -1.9428  3.8571
  529MOL0     H71391   7.198   4.849   4.584  0.6037  3.3452  1.5492
  529MOL0     H71392   7.363   4.919   4.551  0.0324  0.1401 -0.7302
  529MOL0     H71393   7.242   4.707   4.377 -0.6675 -2.6126  1.2125
  529MOL0     H71394   7.406   4.774   4.385 -0.5836 -3.0654 -0.3725
  529MOL0     H71395   6.451   5.435   4.334 -1.4598  0.4706 -0.9706
  529MOL0     H71396   6.214   5.438   4.414  0.0976  1.8366 -1.9499
  529MOL0     H71397   5.805   5.214   4.301 -3.4208 -0.8722 -1.7937
  529MOL0     H71398   5.561   5.203   4.328 -0.3149  1.9065  1.0679
  529MOL0     H71399   3.769   4.246   4.367  2.5141  0.3964  1.3113
  529MOL0     H71400   3.546   4.313   4.310 -0.3780  0.2026  1.5262
  529MOL0     H71401   3.293   4.809   4.120 -0.9124  0.5655 -0.9146
  529MOL0     H71402   3.063   4.853   4.091 -2.2343 -1.3486  0.8444
  529MOL0     H71403   2.733   4.849   4.183  0.8928 -0.5255 -2.4763
  529MOL0     H71404   2.856   4.834   4.303  0.1224 -0.5956 -0.1243
  529MOL0     H71405   2.747   4.608   4.378  1.2534  0.1500 -1.9683
  529MOL0     H71406   2.623   4.629   4.260  1.4155  0.3977 -2.8039
  529MOL0     H71407   2.577   4.874   4.366  0.5425 -0.1909  0.7672
  529MOL0     H71408   2.675   4.816   4.501  0.4357 -0.7891  1.1015
  529MOL0     H71409   2.433   4.669   4.407  1.9876 -1.4145  0.3861
  529MOL0     H71410   2.536   4.626   4.538  0.6348  0.0283  0.2051
  529MOL0     H71411   2.258   4.941   4.679 -0.1631 -0.0908 -0.6890
  529MOL0     H71412   2.959   4.489   4.301  0.1923  0.7594 -0.1901
  529MOL0     H71413   3.091   4.342   4.345 -0.9582  1.6639 -0.5553
  529MOL0     H71414   3.259   4.338   4.302  3.3038  3.9749 -0.5414
  529MOL0     H71415   3.221   4.408   4.454  0.2721  1.7194 -0.4442
  530MOL0     O71416   0.875   6.263   0.739  0.0541 -0.0114 -0.6859
  530MOL0     C71417   0.930   6.166   0.795  0.0410  0.1051  0.2261
  530MOL0     O71418   1.061   6.158   0.830  0.0998 -0.3068  0.0256
  530MOL0     C71419   1.141   6.261   0.794  0.1380  0.0326 -0.1344
  530MOL0     C71420   1.202   6.328   0.898  0.8529  0.0440 -0.0304
  530MOL0     C71421   1.293   6.432   0.871  0.9329 -0.2446  0.5188
  530MOL0     C71422   1.332   6.458   0.742 -0.0260  0.6312  0.5956
  530MOL0     O71423   1.427   6.549   0.703  0.5793 -0.3427  0.0109
  530MOL0     C71424   1.483   6.628   0.808  0.0009 -0.4247 -0.3767
  530MOL0     C71425   1.569   6.746   0.755 -0.5781  0.2505 -0.2492
  530MOL0     C71426   1.636   6.822   0.866  0.1874  0.4097 -1.0499
  530MOL0     C71427   1.768   6.749   0.906 -1.1376 -0.4910  0.9009
  530MOL0     C71428   1.830   6.834   1.019  0.0977 -0.2159 -0.4363
  530MOL0     C71429   1.957   6.780   1.095  0.1285  1.3478  0.5663
  530MOL0     C71430   2.008   6.865   1.204 -0.3227  0.1426 -0.7944
  530MOL0     C71431   2.118   6.789   1.264  0.8750  0.4032 -0.6736
  530MOL0     N71432   2.172   6.857   1.373  0.1510  0.6318 -0.6574
  530MOL0     C71433   2.244   6.977   1.374 -0.1501  0.1475 -0.0572
  530MOL0     C71434   2.268   7.006   1.506  0.1619 -0.0532  0.6248
  530MOL0     C71435   2.359   7.099   1.577 -0.2681 -0.3070  0.0571
  530MOL0     C71436   2.493   7.095   1.507  0.3132 -0.3209 -0.6300
  530MOL0     C71437   2.578   7.202   1.578  0.1016 -0.6720  1.1939
  530MOL0     C71438   2.532   7.349   1.569 -0.4136 -0.7036  0.3772
  530MOL0     O71439   2.639   7.433   1.530 -0.4053  0.3165  0.1791
  530MOL0     C71440   2.749   7.458   1.608  0.0944 -0.4911 -0.2475
  530MOL0     C71441   2.880   7.425   1.574 -0.0171 -0.4010  0.1790
  530MOL0     C71442   2.980   7.462   1.660 -0.6721  0.5874  0.2059
  530MOL0     C71443   2.956   7.527   1.786  0.2353  0.1009 -0.3122
  530MOL0     C71444   3.066   7.571   1.868 -0.4805 -0.0201  0.2990
  530MOL0     O71445   3.197   7.579   1.803  0.6246  0.4014  0.6943
  530MOL0     C71446   3.311   7.583   1.871  0.0472 -0.3254  0.0295
  530MOL0     C71447   3.338   7.596   2.008 -0.7628  0.3477 -0.2002
  530MOL0     C71448   3.471   7.613   2.058 -0.0723 -0.1734  0.0573
  530MOL0     C71449   3.579   7.622   1.963  0.4035  1.0715 -0.7561
  530MOL0     O71450   3.705   7.630   1.994 -0.2136 -0.3606 -0.1735
  530MOL0     C71451   3.742   7.661   2.132 -0.2376  0.0987 -0.3289
  530MOL0     C71452   3.892   7.683   2.149  0.1057 -0.5200  0.5787
  530MOL0     C71453   3.975   7.558   2.111 -0.2897 -0.9615  0.7914
  530MOL0     C71454   4.006   7.468   2.237 -0.5358 -0.0281 -0.3586
  530MOL0     C71455   4.104   7.359   2.199 -0.0470  0.1061 -0.6518
  530MOL0     C71456   4.086   7.241   2.307 -0.0244 -0.0253 -0.5217
  530MOL0     C71457   4.210   7.146   2.311  0.2662  0.3460 -0.0105
  530MOL0     C71458   4.218   7.042   2.195  0.1676 -0.2445  0.5810
  530MOL0    Cl71459   4.348   6.917   2.233 -0.0517  0.1951  0.3947
  530MOL0     C71460   3.552   7.614   1.826  0.3666 -0.4113 -0.1678
  530MOL0     C71461   3.419   7.601   1.782  0.5374 -0.1012 -0.9427
  530MOL0     O71462   3.041   7.612   1.975  0.5071 -0.0045 -0.5754
  530MOL0     C71463   2.824   7.550   1.825 -0.6088 -0.2917 -0.8213
  530MOL0     C71464   2.718   7.523   1.727 -0.1347  0.1671 -0.6948
  530MOL0     N71465   2.213   6.906   1.581 -0.2167 -0.3485 -0.2183
  530MOL0     N71466   2.153   6.821   1.506 -0.2024  0.3785 -0.0600
  530MOL0     C71467   1.266   6.389   0.638 -0.5232 -0.8739 -0.0556
  530MOL0     C71468   1.167   6.293   0.660 -0.8631 -0.9432  0.8022
  530MOL0     C71469   0.833   6.070   0.858  0.0503  0.6685 -0.1637
  530MOL0     C71470   0.872   6.005   0.971 -0.3611  1.1510  1.0496
  530MOL0     C71471   0.783   5.910   1.030  0.5125 -0.6238  0.0742
  530MOL0     C71472   0.649   5.900   0.978  0.2525  0.6438  0.5344
  530MOL0     O71473   0.546   5.825   1.030 -0.0266  0.0283 -0.0430
  530MOL0     C71474   0.527   5.839   1.173  0.1121  0.0930 -0.4455
  530MOL0     C71475   0.466   5.977   1.214 -0.1139 -0.0948 -0.4976
  530MOL0     C71476   0.312   5.980   1.192 -0.9945 -0.2453  0.2329
  530MOL0     C71477   0.220   5.944   1.313 -0.7568  0.5291  0.9357
  530MOL0     C71478   0.249   6.037   1.417 -0.4177  0.2770 -0.1352
  530MOL0     C71479   0.285   6.121   1.501  0.7457  0.1340  0.5727
  530MOL0     C71480   0.608   5.958   0.859  0.8637  0.4867  0.4018
  530MOL0     C71481   0.700   6.043   0.797  0.0985  0.7340 -0.0553
  530MOL0     C71482   0.649   6.111   0.677 -0.5629 -0.5410 -0.3603
  530MOL0     H71483   1.180   6.313   1.003  0.5766  3.0783  0.4368
  530MOL0     H71484   1.348   6.482   0.950 -0.9131  2.3848  0.3210
  530MOL0     H71485   1.413   6.676   0.877 -0.3396  0.5216 -1.3574
  530MOL0     H71486   1.540   6.557   0.869  1.7099  3.5573  3.0880
  530MOL0     H71487   1.506   6.816   0.698  0.8522  0.4689 -1.6468
  530MOL0     H71488   1.652   6.705   0.697  0.1893  1.0463  0.2636
  530MOL0     H71489   1.569   6.820   0.953  1.6877 -3.3859  0.2277
  530MOL0     H71490   1.645   6.927   0.839 -1.0540  0.4648 -1.3484
  530MOL0     H71491   1.755   6.647   0.942 -2.8411 -1.5139 -2.2454
  530MOL0     H71492   1.840   6.754   0.823 -2.0473  0.7352  0.1533
  530MOL0     H71493   1.849   6.939   0.994  3.1364 -0.1345  1.6347
  530MOL0     H71494   1.749   6.842   1.091  0.1896  0.8371 -0.4288
  530MOL0     H71495   1.933   6.675   1.113  1.5817  0.5866 -1.5604
  530MOL0     H71496   2.039   6.775   1.023 -0.3724 -0.4723  0.0622
  530MOL0     H71497   1.932   6.887   1.281 -0.1075  0.5536 -0.6937
  530MOL0     H71498   2.038   6.965   1.171  0.0509  0.6035  0.8473
  530MOL0     H71499   2.076   6.696   1.305  1.4472  0.0278 -0.9332
  530MOL0     H71500   2.194   6.757   1.193  2.9434  3.9819 -0.2931
  530MOL0     H71501   2.294   7.027   1.292  0.1103 -1.7231 -1.0863
  530MOL0     H71502   2.305   7.192   1.558 -4.0796 -2.4129 -0.3285
  530MOL0     H71503   2.359   7.068   1.682 -0.2137 -0.9491 -0.1314
  530MOL0     H71504   2.534   6.994   1.513 -2.9470 -1.8591 -1.8106
  530MOL0     H71505   2.497   7.107   1.398 -0.6279 -6.1537 -1.6293
  530MOL0     H71506   2.683   7.200   1.548 -0.1606  0.8477  0.0258
  530MOL0     H71507   2.592   7.169   1.682  1.7975 -0.7928  0.9474
  530MOL0     H71508   2.509   7.374   1.673 -1.9852  1.6505 -0.4439
  530MOL0     H71509   2.441   7.351   1.509  0.3626 -2.5986 -0.9774
  530MOL0     H71510   2.901   7.362   1.488 -1.3564 -0.5006 -0.0988
  530MOL0     H71511   3.083   7.441   1.633 -0.0254  3.3049  0.2492
  530MOL0     H71512   3.255   7.586   2.077 -1.5369 -0.1600 -1.1810
  530MOL0     H71513   3.496   7.624   2.163  2.9207 -1.6649 -0.3879
  530MOL0     H71514   3.690   7.754   2.156  2.8110  1.5591  1.2208
  530MOL0     H71515   3.705   7.583   2.200 -2.1830  2.6249  1.7404
  530MOL0     H71516   3.914   7.771   2.088 -0.1262  0.8280  2.3736
  530MOL0     H71517   3.918   7.710   2.252  1.4307 -0.2549  0.1850
  530MOL0     H71518   3.930   7.491   2.036 -1.2163  0.2636  0.2264
  530MOL0     H71519   4.068   7.595   2.068  0.0275 -1.2754  1.2119
  530MOL0     H71520   3.912   7.420   2.265 -0.0994 -1.4537 -1.2115
  530MOL0     H71521   4.052   7.528   2.316  1.9790  0.0940 -1.7941
  530MOL0     H71522   4.203   7.405   2.209 -2.0517  4.7366  0.7751
  530MOL0     H71523   4.098   7.315   2.099 -1.3515 -0.4411 -0.3460
  530MOL0     H71524   4.081   7.286   2.407 -1.7735 -0.1517 -0.5320
  530MOL0     H71525   3.996   7.179   2.301  0.4769 -0.7410 -0.7513
  530MOL0     H71526   4.200   7.093   2.407  0.0603 -0.8758 -0.6810
  530MOL0     H71527   4.307   7.196   2.312  0.8856 -0.7489 -1.7556
  530MOL0     H71528   4.117   7.009   2.171  0.1269  0.9403 -1.0106
  530MOL0     H71529   4.244   7.104   2.108 -5.1152 -0.9563 -1.8912
  530MOL0     H71530   3.625   7.624   1.747 -2.1378  3.0230 -2.3239
  530MOL0     H71531   3.390   7.598   1.677 -0.2740 -0.2881 -0.7153
  530MOL0     H71532   2.793   7.600   1.916  0.3842 -0.1271 -0.5541
  530MOL0     H71533   2.614   7.549   1.739 -0.7833 -2.4318  0.0861
  530MOL0     H71534   1.308   6.421   0.543 -0.1704 -1.7593 -0.2077
  530MOL0     H71535   1.116   6.245   0.577  0.0092 -0.9770  0.2809
  530MOL0     H71536   0.970   6.029   1.011 -0.2007  2.0240  0.1747
  530MOL0     H71537   0.803   5.848   1.117 -1.5873  1.0537  1.8397
  530MOL0     H71538   0.625   5.841   1.222 -0.8660  0.0555  1.6482
  530MOL0     H71539   0.463   5.760   1.213  1.7736 -0.9009  0.3982
  530MOL0     H71540   0.510   6.063   1.161 -2.1482  0.6645 -1.0495
  530MOL0     H71541   0.483   5.994   1.321  1.3904 -1.5592 -0.4675
  530MOL0     H71542   0.295   5.914   1.106 -2.1533 -0.5672  0.6885
  530MOL0     H71543   0.276   6.080   1.164 -1.2363 -0.2965  0.3586
  530MOL0     H71544   0.116   5.961   1.285 -0.3248  3.5472  0.8302
  530MOL0     H71545   0.223   5.839   1.343  0.4154  0.4866  0.7062
  530MOL0     H71546   0.320   6.195   1.570 -1.4170  1.7383  0.0350
  530MOL0     H71547   0.505   5.948   0.828  1.2923  1.0927 -1.3898
  530MOL0     H71548   0.606   6.205   0.711  1.5755 -0.3230  2.0591
  530MOL0     H71549   0.724   6.135   0.601 -0.5097 -3.6147 -1.4020
  530MOL0     H71550   0.568   6.054   0.632 -0.3332  0.0773 -1.6053
  531MOL0     O71551   6.872   5.364   8.797 -0.1085  0.5007 -0.4500
  531MOL0     C71552   6.805   5.352   8.905  0.3110  0.0147 -0.3666
  531MOL0     O71553   6.834   5.410   9.022 -0.1171 -0.8126  0.3242
  531MOL0     C71554   6.927   5.509   9.029 -0.2858 -0.3834 -0.2382
  531MOL0     C71555   6.891   5.636   9.082 -0.0819 -0.6728 -0.1679
  531MOL0     C71556   6.985   5.744   9.106  0.5642 -0.4076  0.6455
  531MOL0     C71557   7.117   5.729   9.046 -0.3561  0.5685 -0.9497
  531MOL0     O71558   7.203   5.840   9.065 -0.1725  0.2418 -0.1450
  531MOL0     C71559   7.335   5.799   9.089 -0.0338 -0.2367 -0.1204
  531MOL0     C71560   7.385   5.918   9.175  1.1429 -0.1456  0.7260
  531MOL0     C71561   7.524   5.892   9.229  0.2682  0.5032  0.5193
  531MOL0     C71562   7.619   5.826   9.131  0.3581 -0.3914 -0.4046
  531MOL0     C71563   7.763   5.856   9.169 -0.3541  0.3916 -0.7567
  531MOL0     C71564   7.869   5.766   9.109 -0.7490  1.0381  0.2964
  531MOL0     C71565   8.011   5.823   9.125  0.4175  0.1768  0.4375
  531MOL0     C71566   8.062   5.832   9.273 -0.3835 -0.0344  0.6418
  531MOL0     N71567   8.206   5.815   9.271  0.2200 -0.0541 -0.5477
  531MOL0     C71568   8.293   5.926   9.246  0.2711 -0.0193 -0.7233
  531MOL0     C71569   8.411   5.864   9.261 -0.2134 -0.7653  0.1815
  531MOL0     C71570   8.532   5.946   9.229 -0.2775  0.1916  0.0781
  531MOL0     C71571   8.567   6.044   9.349 -0.1183  0.1046 -0.8684
  531MOL0     C71572   8.660   5.976   9.444 -0.1312 -1.2102  0.0736
  531MOL0     C71573   8.732   6.081   9.530  0.9130  0.3116  0.6784
  531MOL0     O71574   8.858   6.017   9.558 -0.5917 -0.0045 -0.2736
  531MOL0     C71575   8.966   6.092   9.595 -0.4131 -0.1013 -0.1278
  531MOL0     C71576   8.962   6.219   9.646  0.3779 -0.6702 -0.0144
  531MOL0     C71577   9.080   6.302   9.664  0.7971  0.8508  0.2451
  531MOL0     C71578   9.207   6.247   9.651 -0.1654 -0.8626  0.3076
  531MOL0     C71579   9.327   6.320   9.678  0.0468 -0.6722 -0.2250
  531MOL0     O71580   9.442   6.252   9.695  0.1881 -0.0630 -0.3704
  531MOL0     C71581   9.558   6.326   9.730  0.5558  0.4830  0.8795
  531MOL0     C71582   9.638   6.305   9.837 -0.1271  0.0278 -0.2276
  531MOL0     C71583   9.755   6.372   9.868 -0.6158 -0.3053 -0.2326
  531MOL0     C71584   9.811   6.460   9.780  0.0524  0.0288  0.1843
  531MOL0     O71585   9.936   6.510   9.780  0.0759 -0.6722  0.1279
  531MOL0     C71586  10.036   6.451   9.865 -0.0050  0.9123 -0.4621
  531MOL0     C71587  10.172   6.518   9.856 -0.5530 -0.5672 -0.2364
  531MOL0     C71588  10.288   6.418   9.879  0.8703  0.0302 -0.1717
  531MOL0     C71589  10.417   6.484   9.915  1.3559 -0.1384  1.6504
  531MOL0     C71590  10.530   6.393   9.863  0.4637 -0.1746  0.4733
  531MOL0     C71591  10.660   6.466   9.888  0.2275 -0.5981 -0.1276
  531MOL0     C71592  10.794   6.384   9.857  0.1994  0.3537  1.3823
  531MOL0     C71593  10.896   6.478   9.778 -0.9703  0.0095 -0.4019
  531MOL0    Cl71594  10.855   6.496   9.604  0.4444 -0.4318 -0.0122
  531MOL0     C71595   9.733   6.478   9.661  0.1950 -0.6660 -0.5713
  531MOL0     C71596   9.613   6.418   9.637  0.7257  0.4999  0.5751
  531MOL0     O71597   9.323   6.440   9.670  0.1362 -0.3068  0.1924
  531MOL0     C71598   9.207   6.118   9.607 -0.5352 -0.3728  0.2252
  531MOL0     C71599   9.095   6.047   9.578 -0.2374  0.4117 -0.1311
  531MOL0     N71600   8.395   5.732   9.303  0.0182 -0.4698  0.6220
  531MOL0     N71601   8.272   5.711   9.309 -0.5998 -0.8959  0.6337
  531MOL0     C71602   7.150   5.609   8.978  0.0502  0.5361  0.0352
  531MOL0     C71603   7.063   5.497   8.988  0.1498  0.5247 -0.2698
  531MOL0     C71604   6.683   5.258   8.895  0.7676  0.1899  0.0535
  531MOL0     C71605   6.639   5.219   8.762 -0.0601 -1.2905  0.8104
  531MOL0     C71606   6.524   5.148   8.739  0.0653  0.0048 -0.2643
  531MOL0     C71607   6.454   5.098   8.842  0.5849 -1.3700  0.1631
  531MOL0     O71608   6.354   5.007   8.803  0.6052  0.5740 -0.8625
  531MOL0     C71609   6.248   4.982   8.895 -0.1952  0.1305 -0.3375
  531MOL0     C71610   6.150   4.881   8.846 -0.5840 -0.9706 -1.1915
  531MOL0     C71611   6.043   4.941   8.748  0.1021 -0.3359  0.8139
  531MOL0     C71612   5.965   4.836   8.660 -0.2292  0.7075 -0.6176
  531MOL0     C71613   5.878   4.746   8.738  0.1200  0.1641 -1.2501
  531MOL0     C71614   5.803   4.660   8.789 -0.0810 -0.7955 -0.5225
  531MOL0     C71615   6.482   5.138   8.973  0.0458 -0.1445 -0.0223
  531MOL0     C71616   6.597   5.217   9.001 -0.3950  0.0703 -0.2317
  531MOL0     C71617   6.626   5.257   9.143  0.4953  1.1076 -1.1094
  531MOL0     H71618   6.787   5.649   9.113  0.2596  0.7055  0.4690
  531MOL0     H71619   6.968   5.836   9.161 -3.4505 -2.0516  2.6214
  531MOL0     H71620   7.354   5.705   9.141  2.9062  2.0694  3.5710
  531MOL0     H71621   7.396   5.791   8.998  4.0277 -1.1952  2.4037
  531MOL0     H71622   7.311   5.923   9.256 -0.5863  1.1187 -0.8388
  531MOL0     H71623   7.384   6.017   9.127  0.6248 -0.0640  0.8989
  531MOL0     H71624   7.519   5.840   9.325 -0.5860  0.6222  0.5462
  531MOL0     H71625   7.566   5.990   9.257 -2.9304  2.5963 -1.3251
  531MOL0     H71626   7.594   5.719   9.131  0.8455 -0.5256  1.0583
  531MOL0     H71627   7.601   5.868   9.031  2.2298  0.5533 -0.3654
  531MOL0     H71628   7.793   5.958   9.144  0.6627  0.3938  0.3828
  531MOL0     H71629   7.771   5.833   9.276  0.7572 -1.3049 -1.1564
  531MOL0     H71630   7.874   5.665   9.151  2.9180  0.7219 -0.5585
  531MOL0     H71631   7.852   5.751   9.002  2.1814 -1.6561  0.0603
  531MOL0     H71632   8.018   5.919   9.071  1.2856  0.6944  1.4392
  531MOL0     H71633   8.088   5.767   9.071  1.2580  3.1333 -1.6825
  531MOL0     H71634   8.038   5.930   9.316  0.2832 -1.1172  3.7333
  531MOL0     H71635   8.018   5.751   9.332  0.5005 -1.4828 -0.6054
  531MOL0     H71636   8.275   6.026   9.208 -1.7079  0.3150  0.9219
  531MOL0     H71637   8.611   5.885   9.183  0.1846  1.3022 -0.6458
  531MOL0     H71638   8.509   6.019   9.151 -0.1571 -0.8850 -0.9945
  531MOL0     H71639   8.618   6.129   9.302  3.3840 -3.0629 -3.4096
  531MOL0     H71640   8.474   6.075   9.398 -0.3284  0.7557 -1.6440
  531MOL0     H71641   8.732   5.923   9.381 -0.5786 -2.2233  0.3996
  531MOL0     H71642   8.609   5.909   9.514  1.3923 -2.2177  0.2502
  531MOL0     H71643   8.673   6.098   9.620  2.4422 -0.5169  1.8684
  531MOL0     H71644   8.750   6.175   9.477 -0.5215  0.5348  0.5279
  531MOL0     H71645   8.869   6.269   9.671 -0.6441 -2.7514  0.4694
  531MOL0     H71646   9.075   6.408   9.684  1.0414  0.5592  2.0498
  531MOL0     H71647   9.607   6.227   9.905  2.0604 -1.5542 -0.9248
  531MOL0     H71648   9.810   6.332   9.953 -0.7853 -2.4656 -1.0770
  531MOL0     H71649  10.000   6.468   9.967 -2.0228  0.3883 -1.0469
  531MOL0     H71650  10.049   6.347   9.832 -1.2272  0.5718  0.0653
  531MOL0     H71651  10.182   6.555   9.754 -4.0594 -4.6610 -2.3530
  531MOL0     H71652  10.182   6.610   9.915 -1.3762 -0.8076  0.3081
  531MOL0     H71653  10.271   6.352   9.964  0.8473 -0.7292 -0.7591
  531MOL0     H71654  10.307   6.372   9.782  1.8024  0.1799 -0.0773
  531MOL0     H71655  10.438   6.495  10.022  1.7978  1.9870  1.3971
  531MOL0     H71656  10.426   6.583   9.869  2.7369 -0.9278  0.1429
  531MOL0     H71657  10.512   6.379   9.756 -2.5986 -0.9801  1.0266
  531MOL0     H71658  10.523   6.294   9.909  0.1039 -0.7564 -0.7947
  531MOL0     H71659  10.659   6.551   9.819 -1.1949  0.4720  1.1627
  531MOL0     H71660  10.668   6.500   9.992  3.1463  1.4022 -0.8589
  531MOL0     H71661  10.767   6.293   9.802 -3.0474  1.4791  0.8815
  531MOL0     H71662  10.827   6.345   9.954 -1.2739 -1.8294  1.0823
  531MOL0     H71663  10.899   6.578   9.823  2.6523  0.6227 -1.6593
  531MOL0     H71664  10.998   6.440   9.792 -1.1299 -0.4487 -0.4739
  531MOL0     H71665   9.768   6.546   9.584 -1.5163 -0.1948 -0.9696
  531MOL0     H71666   9.564   6.444   9.544  3.4829  0.9677 -0.8583
  531MOL0     H71667   9.302   6.072   9.582 -0.7143 -0.9695  0.5982
  531MOL0     H71668   9.111   5.955   9.523  5.3188  1.4300 -0.8491
  531MOL0     H71669   7.253   5.599   8.948  0.6483 -1.8469  2.4335
  531MOL0     H71670   7.101   5.399   8.960  1.6446  1.7137 -2.7681
  531MOL0     H71671   6.698   5.240   8.673  1.7435 -0.0504  2.2225
  531MOL0     H71672   6.505   5.109   8.640  1.6248 -2.7103  0.4000
  531MOL0     H71673   6.196   5.078   8.902  0.8005  0.7392 -0.9838
  531MOL0     H71674   6.304   4.958   8.985 -0.5619 -0.6389 -0.3121
  531MOL0     H71675   6.100   4.825   8.926 -0.4931 -1.4399 -1.4588
  531MOL0     H71676   6.199   4.800   8.792 -2.8087 -3.0635 -0.2753
  531MOL0     H71677   6.088   5.002   8.669 -3.4854  1.7170  0.1412
  531MOL0     H71678   5.979   5.011   8.803  1.9015  0.6489  1.8030
  531MOL0     H71679   5.902   4.893   8.591 -0.6070  1.5881  0.4201
  531MOL0     H71680   6.027   4.768   8.601  0.7415  0.2110  0.9172
  531MOL0     H71681   5.753   4.581   8.840  1.8183 -0.4925  2.0299
  531MOL0     H71682   6.414   5.120   9.056  0.5375  1.1043  0.6866
  531MOL0     H71683   6.730   5.231   9.167 -0.0528 -1.1213 -0.9166
  531MOL0     H71684   6.618   5.365   9.157 -2.3653  1.3455 -3.4960
  531MOL0     H71685   6.560   5.209   9.215  2.1253 -0.1117 -0.3465
  532MOL0     O71686  10.930   9.429   0.857  0.2712 -0.4044 -0.3395
  532MOL0     C71687  10.811   9.463   0.863  0.0810  0.2238 -0.8180
  532MOL0     O71688  10.748   9.555   0.780  0.2971 -0.3208 -0.0246
  532MOL0     C71689  10.812   9.649   0.700 -0.1113  0.0281 -0.2406
  532MOL0     C71690  10.756   9.770   0.674  0.0865  0.0340  0.0568
  532MOL0     C71691  10.817   9.856   0.581  0.3226 -0.3898  0.4433
  532MOL0     C71692  10.928   9.815   0.509  0.0335  0.5248  0.7362
  532MOL0     O71693  10.992   9.898   0.412 -0.6496 -0.5957  0.0394
  532MOL0     C71694  10.914  10.006   0.344  0.4510  0.0146  0.7469
  532MOL0     C71695  10.999  10.071   0.230 -0.9186 -0.2741 -0.9968
  532MOL0     C71696  11.138  10.118   0.276  0.4560 -0.7438  0.2843
  532MOL0     C71697  11.208  10.199   0.164  0.5213  0.1960  0.8706
  532MOL0     C71698  11.337  10.248   0.221 -0.4093  0.4750  0.3878
  532MOL0     C71699  11.426  10.289   0.109  0.8229  0.3131 -0.4053
  532MOL0     C71700  11.552  10.344   0.169  1.1254 -0.2559  0.6957
  532MOL0     C71701  11.523  10.462   0.264 -0.0286 -0.2205  0.4218
  532MOL0     N71702  11.609  10.573   0.256  0.0141 -0.8525  0.0615
  532MOL0     C71703  11.579  10.707   0.288 -0.4896  0.3031  1.0596
  532MOL0     C71704  11.697  10.771   0.285 -0.7374  0.1849 -0.4604
  532MOL0     C71705  11.723  10.923   0.277  0.0932  0.7564  0.5017
  532MOL0     C71706  11.757  10.951   0.123  0.2574 -0.0807  1.0472
  532MOL0     C71707  11.797  11.100   0.093 -0.1638  0.1246  0.7926
  532MOL0     C71708  11.932  11.141   0.171  0.2024 -0.0771 -0.3345
  532MOL0     O71709  11.960  11.273   0.130 -0.7116  0.3917  0.1621
  532MOL0     C71710  12.095  11.316   0.124  0.8565  0.8222 -0.0997
  532MOL0     C71711  12.181  11.292   0.235 -0.1681  0.0458  0.6158
  532MOL0     C71712  12.310  11.331   0.213 -0.7758  0.3128  0.3883
  532MOL0     C71713  12.357  11.407   0.103 -0.9622 -0.2102  0.5317
  532MOL0     C71714  12.501  11.450   0.096  0.3898 -0.1745 -0.3623
  532MOL0     O71715  12.579  11.400   0.193 -0.5589 -0.7691  0.2924
  532MOL0     C71716  12.712  11.410   0.188 -0.6980  0.9449 -0.2495
  532MOL0     C71717  12.777  11.536   0.202  0.6546  0.6633  0.2819
  532MOL0     C71718  12.909  11.546   0.184 -0.0752 -0.7822 -0.7555
  532MOL0     C71719  12.992  11.439   0.150  0.1247  0.6485 -0.6342
  532MOL0     O71720  13.130  11.460   0.132  0.1828  0.1218  0.2012
  532MOL0     C71721  13.208  11.372   0.051  0.0309 -0.4497  0.0858
  532MOL0     C71722  13.340  11.436   0.028 -0.6157 -0.0554  0.6924
  532MOL0     C71723  13.421  11.462   0.159  0.2852 -0.1403  0.1189
  532MOL0     C71724  13.557  11.529   0.125 -0.3987 -0.2664 -0.9753
  532MOL0     C71725  13.628  11.589   0.249 -0.0738 -0.1290  0.6948
  532MOL0     C71726  13.750  11.680   0.196 -0.2111 -0.5530  0.5751
  532MOL0     C71727  13.878  11.593   0.177 -0.5253 -0.0975 -0.0502
  532MOL0     C71728  14.005  11.662   0.140 -0.1332  0.5164  0.3767
  532MOL0    Cl71729  14.006  11.685  -0.044  0.2259 -0.2587  0.3876
  532MOL0     C71730  12.927  11.308   0.132  0.5788  0.5666 -0.4488
  532MOL0     C71731  12.785  11.295   0.144 -0.3896  0.4326  0.1170
  532MOL0     O71732  12.546  11.522   0.010 -0.1317 -0.1737  0.4428
  532MOL0     C71733  12.262  11.429   0.005  0.3935 -0.0143  0.1863
  532MOL0     C71734  12.134  11.382   0.007 -0.5514 -0.2294 -0.2201
  532MOL0     N71735  11.799  10.676   0.269 -0.3069 -0.5925 -1.3219
  532MOL0     N71736  11.748  10.558   0.248 -0.3220  1.0397 -0.8989
  532MOL0     C71737  10.981   9.686   0.531  0.1038 -0.5337  0.8052
  532MOL0     C71738  10.920   9.601   0.622 -0.1813  0.7225 -0.3976
  532MOL0     C71739  10.726   9.406   0.966 -0.3031  0.3267  0.0547
  532MOL0     C71740  10.585   9.409   0.944  0.4949 -0.6767  0.5943
  532MOL0     C71741  10.503   9.342   1.033 -0.2638  0.1679 -0.9273
  532MOL0     C71742  10.555   9.272   1.148 -0.4459 -1.0905 -0.1440
  532MOL0     O71743  10.463   9.213   1.234  0.4360  0.1667  0.4840
  532MOL0     C71744  10.489   9.193   1.371  0.2430 -0.2286  0.7979
  532MOL0     C71745  10.486   9.316   1.460  0.5661 -0.0136 -0.5000
  532MOL0     C71746  10.345   9.342   1.501  0.0564 -0.1862 -0.4136
  532MOL0     C71747  10.325   9.471   1.583  0.2352  0.0478 -0.1749
  532MOL0     C71748  10.425   9.502   1.687  0.3503 -0.0847 -0.2337
  532MOL0     C71749  10.521   9.514   1.759  0.4981  0.2965 -0.5291
  532MOL0     C71750  10.686   9.280   1.179  0.5717  0.3825 -0.6977
  532MOL0     C71751  10.772   9.348   1.090 -0.7100 -0.0125  1.1918
  532MOL0     C71752  10.918   9.367   1.137  0.4092  1.4534 -0.8958
  532MOL0     H71753  10.666   9.798   0.728  0.9675  0.7562  1.1663
  532MOL0     H71754  10.762   9.948   0.564  0.8952 -0.4283 -2.1492
  532MOL0     H71755  10.816   9.965   0.321  1.3914 -2.2943  0.5115
  532MOL0     H71756  10.890  10.090   0.411 -1.6817 -0.3227  0.4599
  532MOL0     H71757  10.943  10.156   0.190  2.1286  1.9686 -0.8551
  532MOL0     H71758  11.018   9.993   0.155  3.1650 -1.1691  0.6842
  532MOL0     H71759  11.198  10.033   0.310  0.7400 -0.7171 -0.1440
  532MOL0     H71760  11.111  10.180   0.362 -1.6934  0.2213 -0.9973
  532MOL0     H71761  11.210  10.133   0.077 -3.4268  0.6762  0.2083
  532MOL0     H71762  11.146  10.285   0.134 -2.4891 -1.6426  1.3815
  532MOL0     H71763  11.323  10.334   0.287 -0.0902  1.6007 -0.9483
  532MOL0     H71764  11.394  10.166   0.265 -1.4263 -2.6338 -3.4325
  532MOL0     H71765  11.439  10.200   0.046 -0.1095  1.6381 -2.5497
  532MOL0     H71766  11.387  10.368   0.044  0.5878  1.7712  1.4228
  532MOL0     H71767  11.626  10.380   0.097  1.4517  2.9038  2.4351
  532MOL0     H71768  11.609  10.270   0.225 -1.3838 -1.3783  1.9003
  532MOL0     H71769  11.419  10.494   0.253 -0.5376 -1.7475  0.5436
  532MOL0     H71770  11.522  10.424   0.367 -1.0754  3.1037  1.7611
  532MOL0     H71771  11.480  10.750   0.300 -0.2910  0.3083  2.8437
  532MOL0     H71772  11.632  10.978   0.299 -0.7114  0.2412 -1.3287
  532MOL0     H71773  11.814  10.954   0.329  1.6035 -0.7745 -1.0925
  532MOL0     H71774  11.833  10.885   0.080 -0.4245  0.3079 -0.8793
  532MOL0     H71775  11.668  10.933   0.061  0.9238 -3.2494  0.8583
  532MOL0     H71776  11.707  11.150   0.131 -1.5159 -0.9006 -0.9228
  532MOL0     H71777  11.813  11.129  -0.011 -1.5415  1.5485  0.9495
  532MOL0     H71778  11.998  11.067   0.126  1.1399  0.8319 -0.5012
  532MOL0     H71779  11.935  11.135   0.281  1.4538  0.6051 -0.3107
  532MOL0     H71780  12.152  11.241   0.326  1.9958  0.2741  1.4794
  532MOL0     H71781  12.385  11.300   0.285 -0.8506  0.4969  0.5448
  532MOL0     H71782  12.714  11.621   0.224  0.3842  0.4502  0.3446
  532MOL0     H71783  12.959  11.643   0.182  0.8542 -1.2288 -0.0831
  532MOL0     H71784  13.228  11.272   0.092  3.0801 -1.0070 -2.4141
  532MOL0     H71785  13.158  11.356  -0.045 -1.8702 -1.9320  1.2356
  532MOL0     H71786  13.405  11.374  -0.035 -1.6445 -0.1456 -0.3209
  532MOL0     H71787  13.330  11.530  -0.026  3.9671 -0.1653 -0.8072
  532MOL0     H71788  13.371  11.532   0.226  0.1502  0.9281 -1.0529
  532MOL0     H71789  13.436  11.371   0.218  3.3828  0.5434  0.5645
  532MOL0     H71790  13.546  11.612   0.054  1.2241  0.6221 -0.2309
  532MOL0     H71791  13.616  11.452   0.073 -1.6890 -1.7605 -0.3210
  532MOL0     H71792  13.671  11.504   0.304 -0.2318  0.8900  2.4476
  532MOL0     H71793  13.556  11.646   0.308  0.5304  1.0698  0.3085
  532MOL0     H71794  13.728  11.733   0.103 -0.0614  2.7896  2.3012
  532MOL0     H71795  13.767  11.755   0.273 -1.1863 -0.4215  0.6740
  532MOL0     H71796  13.858  11.522   0.095 -0.9851  1.0689 -0.9751
  532MOL0     H71797  13.892  11.532   0.266 -1.9769 -0.7845 -0.2712
  532MOL0     H71798  14.011  11.756   0.196  2.4580  0.1384  0.8231
  532MOL0     H71799  14.091  11.600   0.167  1.6786  2.0193 -1.5669
  532MOL0     H71800  12.985  11.222   0.100 -1.4399 -1.5125  1.1832
  532MOL0     H71801  12.720  11.209   0.141 -0.8119  0.6977  1.1611
  532MOL0     H71802  12.290  11.492  -0.079  0.2191  0.6668  0.6341
  532MOL0     H71803  12.070  11.397  -0.079 -0.9334  0.7407  0.2247
  532MOL0     H71804  11.066   9.661   0.469 -1.0980 -1.7734 -0.3962
  532MOL0     H71805  10.965   9.504   0.638  0.5042  0.6771 -2.3034
  532MOL0     H71806  10.547   9.460   0.857  3.4508  0.0108 -0.4222
  532MOL0     H71807  10.399   9.319   1.011 -0.6068 -1.2989  1.8404
  532MOL0     H71808  10.591   9.156   1.384 -0.5408 -2.5846  0.7344
  532MOL0     H71809  10.421   9.112   1.400 -1.4187  0.4505 -1.0185
  532MOL0     H71810  10.525   9.399   1.402  1.8016 -1.6497 -2.1381
  532MOL0     H71811  10.542   9.306   1.553 -0.7790  1.8487  0.5757
  532MOL0     H71812  10.301   9.265   1.566 -1.4550  1.9654  1.2588
  532MOL0     H71813  10.293   9.347   1.405  1.0968 -0.2787 -1.0016
  532MOL0     H71814  10.326   9.559   1.518 -0.3956 -0.4618 -0.8959
  532MOL0     H71815  10.226   9.468   1.628  0.0913 -0.6944 -0.5338
  532MOL0     H71816  10.606   9.521   1.824  0.5946 -1.5345 -0.4074
  532MOL0     H71817  10.736   9.246   1.269  2.0271  2.8422 -0.4913
  532MOL0     H71818  10.984   9.288   1.099 -1.6513  0.2586 -2.1601
  532MOL0     H71819  10.967   9.463   1.116  1.6031  0.9942 -0.3018
  532MOL0     H71820  10.914   9.356   1.246 -1.0435 -0.6208 -1.1055
  533MOL0     O71821   8.228  10.891   8.502 -0.5176 -0.2628  0.3172
  533MOL0     C71822   8.258  10.856   8.383 -0.0660 -1.0975 -0.5321
  533MOL0     O71823   8.356  10.917   8.306  0.6864 -0.0530 -0.1679
  533MOL0     C71824   8.436  11.009   8.377 -0.0958 -0.2117 -0.0392
  533MOL0     C71825   8.380  11.125   8.438 -0.4624  0.7636  0.7556
  533MOL0     C71826   8.460  11.220   8.511  0.1527  0.9793 -0.2891
  533MOL0     C71827   8.601  11.199   8.526  0.6942  0.7120  1.3708
  533MOL0     O71828   8.676  11.283   8.604 -0.4022  0.0585 -0.2357
  533MOL0     C71829   8.821  11.272   8.615 -0.5597 -0.0061 -0.8268
  533MOL0     C71830   8.882  11.401   8.676 -0.7544 -0.2135  0.2060
  533MOL0     C71831   9.033  11.409   8.662 -0.6564 -0.8512  0.3598
  533MOL0     C71832   9.084  11.552   8.705  0.2127 -0.3867  0.6537
  533MOL0     C71833   9.227  11.579   8.672 -0.8918  0.6768  0.4737
  533MOL0     C71834   9.326  11.487   8.757  0.5735 -0.6414  1.0920
  533MOL0     C71835   9.470  11.495   8.707 -0.2346  0.2045  0.0972
  533MOL0     C71836   9.564  11.399   8.791  0.8118  0.4693  0.1563
  533MOL0     N71837   9.702  11.390   8.752  0.2525  0.0805  0.3062
  533MOL0     C71838   9.802  11.307   8.807  0.2985 -0.0375 -0.2413
  533MOL0     C71839   9.915  11.362   8.750 -0.1631 -0.1023  0.6578
  533MOL0     C71840  10.055  11.299   8.767 -0.1238 -0.3092 -0.1716
  533MOL0     C71841  10.155  11.396   8.827  0.3496 -0.5959  0.3644
  533MOL0     C71842  10.197  11.501   8.722 -0.2087 -0.5242 -0.6893
  533MOL0     C71843  10.298  11.589   8.796 -0.3683 -0.1496 -0.0379
  533MOL0     O71844  10.348  11.691   8.700  0.0255  0.1986 -0.4780
  533MOL0     C71845  10.467  11.670   8.645 -1.2049  0.5122  0.8157
  533MOL0     C71846  10.540  11.551   8.639 -0.4100  0.0797 -0.0613
  533MOL0     C71847  10.664  11.535   8.581 -0.3699 -0.8165 -0.4415
  533MOL0     C71848  10.724  11.653   8.530 -0.7890  0.6111  0.9142
  533MOL0     C71849  10.861  11.633   8.477 -0.4544 -0.1454  0.2620
  533MOL0     O71850  10.943  11.526   8.522  0.3800  0.1839  0.0060
  533MOL0     C71851  11.073  11.492   8.482 -1.1193 -1.2102  0.2143
  533MOL0     C71852  11.178  11.581   8.429  0.1981  0.1836 -0.1560
  533MOL0     C71853  11.308  11.528   8.418 -0.7308 -0.1414 -0.2750
  533MOL0     C71854  11.340  11.399   8.471  0.2438 -0.0135 -0.4014
  533MOL0     O71855  11.466  11.358   8.432  0.0580 -0.2127  0.8062
  533MOL0     C71856  11.546  11.317   8.544 -0.2078  0.3922 -0.0819
  533MOL0     C71857  11.635  11.427   8.604 -0.2057 -0.2355 -0.9513
  533MOL0     C71858  11.746  11.477   8.516  0.0009 -0.2714 -0.0552
  533MOL0     C71859  11.853  11.378   8.491  0.3133  0.4194  0.7111
  533MOL0     C71860  11.996  11.432   8.492  0.3422 -0.2643 -0.2824
  533MOL0     C71861  12.096  11.321   8.475  0.0450 -0.5241 -0.3180
  533MOL0     C71862  12.241  11.367   8.480 -0.4255  0.2947 -0.0208
  533MOL0     C71863  12.340  11.252   8.486 -0.1306 -0.2606 -0.4854
  533MOL0    Cl71864  12.501  11.320   8.530 -0.8403  0.1489  0.0754
  533MOL0     C71865  11.240  11.314   8.513  0.4821  0.1637 -0.4047
  533MOL0     C71866  11.106  11.361   8.521  0.2526  0.1073 -0.1326
  533MOL0     O71867  10.901  11.719   8.383 -0.2021  0.2096 -0.6399
  533MOL0     C71868  10.648  11.772   8.523 -0.0237  0.4802 -0.1623
  533MOL0     C71869  10.516  11.776   8.572  0.3575  0.9604 -0.3363
  533MOL0     N71870   9.889  11.461   8.661  0.2845  0.7457 -0.4086
  533MOL0     N71871   9.762  11.467   8.660  0.9883  0.1784  0.2233
  533MOL0     C71872   8.656  11.098   8.445  0.4025 -0.2975 -0.0954
  533MOL0     C71873   8.572  11.005   8.371 -0.6623 -0.1549  0.1642
  533MOL0     C71874   8.166  10.769   8.320  0.8838 -0.0898  0.5950
  533MOL0     C71875   8.094  10.810   8.204 -0.2927 -0.3072  0.0420
  533MOL0     C71876   7.986  10.741   8.152  0.6310  0.5958  0.3731
  533MOL0     C71877   7.949  10.620   8.207 -0.1016  0.5767 -0.2188
  533MOL0     O71878   7.845  10.556   8.137 -0.0752 -0.9393  0.0438
  533MOL0     C71879   7.800  10.424   8.186  0.3702  0.6746 -0.1794
  533MOL0     C71880   7.715  10.341   8.082  0.5301 -0.5149  0.4218
  533MOL0     C71881   7.789  10.307   7.956  0.2099 -0.1479  0.1491
  533MOL0     C71882   7.847  10.162   7.950  0.1023  0.1856  0.1827
  533MOL0     C71883   7.733  10.076   7.917 -0.4700  0.8266 -0.1384
  533MOL0     C71884   7.648  10.000   7.860  1.2032 -0.1753 -1.1732
  533MOL0     C71885   8.019  10.577   8.325  0.3138  0.6939  0.1989
  533MOL0     C71886   8.125  10.649   8.379  0.9239 -0.5255  0.9990
  533MOL0     C71887   8.170  10.591   8.510  0.2846 -0.3448  0.3442
  533MOL0     H71888   8.272  11.136   8.438 -0.8783 -2.2027 -1.2837
  533MOL0     H71889   8.423  11.311   8.557  1.5428  1.1009  0.6551
  533MOL0     H71890   8.852  11.180   8.666 -0.8919  0.0361 -0.5457
  533MOL0     H71891   8.858  11.262   8.512  1.2721 -1.1669 -0.1006
  533MOL0     H71892   8.859  11.396   8.783  2.8363 -3.3523  1.0714
  533MOL0     H71893   8.837  11.488   8.628  1.9920  0.2001 -1.8326
  533MOL0     H71894   9.059  11.390   8.557  1.8592 -1.6920  1.0570
  533MOL0     H71895   9.082  11.331   8.722  0.4853 -0.5710 -0.1826
  533MOL0     H71896   9.025  11.626   8.650  0.2256 -1.8720 -1.4994
  533MOL0     H71897   9.075  11.566   8.813 -0.3075  0.8030  0.4668
  533MOL0     H71898   9.241  11.542   8.570 -4.4547  3.1150 -1.0841
  533MOL0     H71899   9.260  11.682   8.688  4.6922 -0.6913 -0.3956
  533MOL0     H71900   9.321  11.513   8.863  0.9567  0.5744  0.8347
  533MOL0     H71901   9.298  11.382   8.747  2.2017 -0.8881 -3.7347
  533MOL0     H71902   9.518  11.591   8.726 -1.0376  0.2199  2.2768
  533MOL0     H71903   9.478  11.466   8.602 -1.2309 -3.3310  0.8699
  533MOL0     H71904   9.568  11.422   8.898 -0.8408  0.3722  0.2703
  533MOL0     H71905   9.530  11.296   8.773 -1.4505  1.3312 -0.8615
  533MOL0     H71906   9.802  11.220   8.872 -0.3492 -3.0170 -3.9051
  533MOL0     H71907  10.050  11.211   8.832 -1.0611 -0.4564 -0.4359
  533MOL0     H71908  10.091  11.269   8.668  1.0161 -1.1094  0.4561
  533MOL0     H71909  10.116  11.446   8.916 -0.7117  0.1249 -0.4681
  533MOL0     H71910  10.245  11.341   8.856  0.2903 -0.4466  0.8273
  533MOL0     H71911  10.115  11.568   8.696  1.8371  2.6590  0.4164
  533MOL0     H71912  10.246  11.456   8.635  1.0155 -3.0407  1.1638
  533MOL0     H71913  10.383  11.534   8.837 -0.3152  0.4514  0.6674
  533MOL0     H71914  10.255  11.634   8.886  1.0959 -0.4138  0.8307
  533MOL0     H71915  10.488  11.461   8.673 -4.4849  2.9850  2.3173
  533MOL0     H71916  10.718  11.441   8.577  1.5426 -0.0981  3.5444
  533MOL0     H71917  11.155  11.683   8.398 -2.0557 -0.1247  0.3366
  533MOL0     H71918  11.387  11.594   8.383 -1.9100  0.3412 -2.2336
  533MOL0     H71919  11.473  11.268   8.609  0.3497 -0.1235  0.1610
  533MOL0     H71920  11.617  11.235   8.529 -0.2448 -0.1669  2.4134
  533MOL0     H71921  11.570  11.510   8.633 -3.2630 -2.7248 -0.1903
  533MOL0     H71922  11.678  11.387   8.696 -3.1372 -1.0502  0.1809
  533MOL0     H71923  11.705  11.522   8.426  1.9943  0.2544 -0.7487
  533MOL0     H71924  11.799  11.547   8.581  0.4203 -1.9449  1.4950
  533MOL0     H71925  11.824  11.324   8.400  0.7784  1.0181  0.2030
  533MOL0     H71926  11.848  11.304   8.572  0.8961  0.2840  0.6281
  533MOL0     H71927  12.023  11.477   8.588 -2.8078 -1.0012  1.0513
  533MOL0     H71928  11.992  11.511   8.417  1.0818  0.5664  0.5212
  533MOL0     H71929  12.064  11.249   8.550  1.1934  1.4683  2.2713
  533MOL0     H71930  12.084  11.269   8.380 -0.1888  1.5830 -1.5091
  533MOL0     H71931  12.254  11.422   8.574  2.4123  1.7577 -1.1587
  533MOL0     H71932  12.268  11.433   8.397  0.3201  0.7097  0.5347
  533MOL0     H71933  12.306  11.186   8.567  0.7007 -0.8291 -0.5789
  533MOL0     H71934  12.342  11.183   8.402 -1.7759  0.2256 -0.9593
  533MOL0     H71935  11.254  11.210   8.542 -3.2087 -0.6321 -0.8672
  533MOL0     H71936  11.028  11.303   8.569 -0.9098 -0.7753 -2.8787
  533MOL0     H71937  10.699  11.859   8.484  0.6730  0.0429 -0.2492
  533MOL0     H71938  10.460  11.869   8.580  0.7282  1.0257  2.0501
  533MOL0     H71939   8.761  11.080   8.466  0.5083 -2.5885 -2.1858
  533MOL0     H71940   8.633  10.939   8.310  2.7442  1.5392  1.4297
  533MOL0     H71941   8.112  10.907   8.160 -2.6037  0.9626  1.6771
  533MOL0     H71942   7.930  10.767   8.062  1.0342 -0.8753 -0.3339
  533MOL0     H71943   7.735  10.433   8.274 -0.1511  0.8218 -0.5696
  533MOL0     H71944   7.888  10.365   8.211  1.1625  0.8297 -2.3476
  533MOL0     H71945   7.632  10.410   8.063  1.2068  0.5097  1.0937
  533MOL0     H71946   7.677  10.247   8.123 -0.2336 -1.2236 -1.7621
  533MOL0     H71947   7.876  10.370   7.936 -1.1746  1.5582 -0.7607
  533MOL0     H71948   7.726  10.342   7.874 -1.3892 -1.6925  0.6449
  533MOL0     H71949   7.918  10.158   7.867  0.1848 -1.0475  0.2920
  533MOL0     H71950   7.903  10.142   8.042 -1.1822  1.6251  1.3335
  533MOL0     H71951   7.578   9.940   7.807 -1.3005  0.4515  1.1915
  533MOL0     H71952   7.983  10.484   8.369  2.1191 -0.3358 -0.4011
  533MOL0     H71953   8.266  10.541   8.492 -1.3375 -3.4001 -0.4705
  533MOL0     H71954   8.184  10.668   8.586  2.0284 -1.6751  1.4461
  533MOL0     H71955   8.106  10.521   8.565  0.9672 -1.6289 -0.4540
  534MOL0     O71956   2.302   3.330   1.857  0.3942  0.8483  0.4836
  534MOL0     C71957   2.262   3.430   1.799  0.2771 -0.0703  0.7941
  534MOL0     O71958   2.339   3.500   1.704 -0.0792  0.0155  0.6109
  534MOL0     C71959   2.461   3.442   1.664  0.0669  0.5781  0.1944
  534MOL0     C71960   2.464   3.398   1.537  0.0457  0.1852  0.0471
  534MOL0     C71961   2.585   3.342   1.484 -0.1853 -0.9374  0.2644
  534MOL0     C71962   2.698   3.341   1.563 -1.0335  0.1927  1.1125
  534MOL0     O71963   2.802   3.293   1.493 -0.7629 -0.7849 -0.0887
  534MOL0     C71964   2.933   3.357   1.488  0.4546 -0.3923 -0.4580
  534MOL0     C71965   3.042   3.254   1.469 -0.2639 -1.3216 -0.0087
  534MOL0     C71966   3.059   3.141   1.571  0.0078 -0.4048 -0.2914
  534MOL0     C71967   3.002   3.190   1.712 -0.5408  0.8000  0.4610
  534MOL0     C71968   3.033   3.092   1.824  0.1592 -0.5804  0.6747
  534MOL0     C71969   3.184   3.049   1.838  1.1067 -0.2871 -0.3544
  534MOL0     C71970   3.204   2.959   1.966  0.5620 -0.4101  1.0156
  534MOL0     C71971   3.152   3.031   2.091  0.1748 -0.3183 -0.1873
  534MOL0     N71972   3.245   3.145   2.122  0.6444  0.0509 -0.2749
  534MOL0     C71973   3.201   3.272   2.088 -0.3343  0.5487  0.4453
  534MOL0     C71974   3.307   3.354   2.130 -0.0747 -0.2972 -0.1104
  534MOL0     C71975   3.318   3.505   2.124 -0.5006 -1.0046 -0.3911
  534MOL0     C71976   3.446   3.543   2.048  0.1227  0.1134 -0.3168
  534MOL0     C71977   3.448   3.686   2.011  0.7529 -0.4056  0.1169
  534MOL0     C71978   3.590   3.725   1.957 -0.6952 -0.3943 -0.1098
  534MOL0     O71979   3.693   3.720   2.057 -0.5415 -0.2741 -0.1868
  534MOL0     C71980   3.823   3.716   2.022  0.2411 -0.8459  0.8152
  534MOL0     C71981   3.882   3.689   1.896 -0.0927  1.0255  0.0013
  534MOL0     C71982   4.016   3.701   1.879 -0.0488  0.3330  0.5997
  534MOL0     C71983   4.106   3.749   1.978  0.1726  0.6691  0.6014
  534MOL0     C71984   4.257   3.732   1.954  0.3714 -0.1289 -0.0904
  534MOL0     O71985   4.349   3.783   2.039  0.0294  0.2647 -0.0014
  534MOL0     C71986   4.479   3.760   2.020 -1.3556 -0.1114 -0.0362
  534MOL0     C71987   4.556   3.701   2.133  0.0641 -0.2285 -0.0684
  534MOL0     C71988   4.697   3.709   2.116  0.2448  0.0872 -0.2703
  534MOL0     C71989   4.757   3.757   1.993 -0.1446 -0.5319 -0.6174
  534MOL0     O71990   4.893   3.746   1.990 -0.0490  0.5652  0.4224
  534MOL0     C71991   4.961   3.804   1.877  0.4219 -0.3019  0.2835
  534MOL0     C71992   5.112   3.791   1.874 -0.4476 -0.2689  0.7157
  534MOL0     C71993   5.170   3.887   1.976  0.3264  0.0797  0.0374
  534MOL0     C71994   5.318   3.889   1.981  0.3702  0.3335  0.3208
  534MOL0     C71995   5.373   4.000   2.066  0.3524 -1.1251 -0.1858
  534MOL0     C71996   5.507   3.976   2.133 -0.4087  0.9492 -0.0541
  534MOL0     C71997   5.629   3.988   2.032  0.6512  0.2247  0.1619
  534MOL0     C71998   5.745   3.929   2.107  1.2251  0.3138 -0.3764
  534MOL0    Cl71999   5.892   3.940   2.014  0.0444 -0.4701 -0.2132
  534MOL0     C72000   4.675   3.809   1.889  0.7453 -0.2152 -1.1423
  534MOL0     C72001   4.542   3.809   1.910  0.3691 -0.3749  0.9074
  534MOL0     O72002   4.280   3.663   1.858 -0.1389  0.2412  0.5969
  534MOL0     C72003   4.049   3.787   2.097 -0.5495 -0.1228  0.6258
  534MOL0     C72004   3.914   3.770   2.116 -0.3516  0.3758  0.0527
  534MOL0     N72005   3.401   3.272   2.179 -0.6128  0.8790  0.3077
  534MOL0     N72006   3.370   3.151   2.180 -0.0455  0.6322 -0.4881
  534MOL0     C72007   2.695   3.390   1.696 -0.4678  1.5153  0.1847
  534MOL0     C72008   2.574   3.440   1.747  0.3609  0.4495  0.5825
  534MOL0     C72009   2.124   3.485   1.825 -1.5529 -0.0660 -0.6610
  534MOL0     C72010   2.020   3.463   1.731 -0.5102 -0.3911 -0.4728
  534MOL0     C72011   1.894   3.504   1.758 -1.3532 -0.1556  0.1222
  534MOL0     C72012   1.858   3.563   1.880 -0.4073 -1.3103 -0.7585
  534MOL0     O72013   1.723   3.592   1.900 -0.0118  0.1423 -0.2101
  534MOL0     C72014   1.669   3.624   2.030  0.1380  1.1416  0.4440
  534MOL0     C72015   1.522   3.591   2.009 -0.3951 -0.0391  0.5144
  534MOL0     C72016   1.437   3.626   2.131 -0.9037  0.0073  0.6997
  534MOL0     C72017   1.404   3.502   2.213 -0.5740 -0.1741 -0.1303
  534MOL0     C72018   1.305   3.538   2.315  0.0452 -0.2693  0.3455
  534MOL0     C72019   1.232   3.582   2.410  0.6821 -0.1875  0.4063
  534MOL0     C72020   1.965   3.596   1.970  0.2992  0.3266  0.4136
  534MOL0     C72021   2.096   3.549   1.947  0.7297  0.5535 -0.5215
  534MOL0     C72022   2.203   3.576   2.053  0.5731  0.4853 -0.5273
  534MOL0     H72023   2.383   3.420   1.467 -0.8203  0.3299  1.0609
  534MOL0     H72024   2.600   3.307   1.383  2.9505  0.9777 -0.0356
  534MOL0     H72025   2.931   3.429   1.406 -3.1088  0.1954 -0.0047
  534MOL0     H72026   2.959   3.413   1.577  1.2417  1.0903 -1.5819
  534MOL0     H72027   3.138   3.305   1.460 -1.3392  0.8713  0.3816
  534MOL0     H72028   3.034   3.199   1.374  2.9176  1.2333 -1.9766
  534MOL0     H72029   3.166   3.118   1.579 -0.5266 -2.5696  1.8101
  534MOL0     H72030   3.018   3.048   1.532  0.9658 -0.4337 -1.2628
  534MOL0     H72031   3.043   3.289   1.735  1.4985  0.1265 -0.0428
  534MOL0     H72032   2.893   3.185   1.701 -0.2942  0.5087 -3.1661
  534MOL0     H72033   2.998   3.154   1.907  1.5936 -1.6399  2.1263
  534MOL0     H72034   2.969   3.004   1.815  0.4286 -0.8157  1.0498
  534MOL0     H72035   3.209   3.001   1.743 -2.8190  0.5043 -1.9676
  534MOL0     H72036   3.252   3.135   1.839  2.1054 -0.8441 -3.9480
  534MOL0     H72037   3.311   2.941   1.983  2.3426  2.5030 -4.5292
  534MOL0     H72038   3.147   2.868   1.949 -0.4450  0.3910 -0.0680
  534MOL0     H72039   3.049   3.067   2.089  0.0468 -0.3254  2.3968
  534MOL0     H72040   3.172   2.961   2.173  0.4032 -2.0230 -1.6534
  534MOL0     H72041   3.106   3.312   2.055 -0.8587 -1.0269 -0.0624
  534MOL0     H72042   3.231   3.548   2.073 -0.9580 -1.9764 -0.4596
  534MOL0     H72043   3.322   3.542   2.227  1.2400  0.2826 -0.8733
  534MOL0     H72044   3.529   3.528   2.117  0.3865  0.7242 -0.4976
  534MOL0     H72045   3.456   3.469   1.968 -2.0128  1.2177 -1.7053
  534MOL0     H72046   3.436   3.743   2.103  0.0047 -0.2297 -0.0853
  534MOL0     H72047   3.363   3.717   1.949 -0.7708 -1.2414  1.7174
  534MOL0     H72048   3.576   3.827   1.921 -2.3264 -0.0736  1.2710
  534MOL0     H72049   3.623   3.658   1.878  0.9605 -0.2660  0.4296
  534MOL0     H72050   3.826   3.647   1.813  1.9676  2.3409 -2.1647
  534MOL0     H72051   4.059   3.685   1.780 -0.0877  0.1465  0.6129
  534MOL0     H72052   4.511   3.662   2.224  3.3862  0.7069  2.1555
  534MOL0     H72053   4.760   3.650   2.182 -0.3036 -3.6629 -2.7660
  534MOL0     H72054   4.929   3.756   1.784 -3.6533 -2.2636  2.4545
  534MOL0     H72055   4.932   3.909   1.883  1.7972  0.0533  1.0592
  534MOL0     H72056   5.131   3.684   1.893  0.6637 -0.2808 -0.3643
  534MOL0     H72057   5.157   3.798   1.774  2.3324 -2.3545  1.6712
  534MOL0     H72058   5.132   3.987   1.956 -0.4285 -0.4418 -1.1793
  534MOL0     H72059   5.134   3.873   2.079 -1.8403 -1.2666 -0.8423
  534MOL0     H72060   5.353   3.908   1.880 -0.1324  2.5148  0.5089
  534MOL0     H72061   5.364   3.796   2.017 -2.9237 -1.3693  0.5261
  534MOL0     H72062   5.304   4.017   2.148 -0.9932 -3.0703 -0.8306
  534MOL0     H72063   5.374   4.091   2.006 -2.0748 -0.4131  0.7448
  534MOL0     H72064   5.527   4.048   2.212 -0.2030 -0.1457  0.9118
  534MOL0     H72065   5.502   3.874   2.174  1.2813  0.1375 -1.6843
  534MOL0     H72066   5.654   4.092   2.008  1.7433 -0.2651 -0.8973
  534MOL0     H72067   5.614   3.939   1.936  0.0027  0.5875  0.0734
  534MOL0     H72068   5.751   3.977   2.205  3.7457 -2.5265  1.0446
  534MOL0     H72069   5.729   3.824   2.130 -0.6159  0.8599  1.0610
  534MOL0     H72070   4.714   3.866   1.806 -2.6530  4.2825 -0.0417
  534MOL0     H72071   4.484   3.849   1.827 -1.4353 -3.1187  0.7250
  534MOL0     H72072   4.119   3.821   2.173 -0.4384 -0.9013  0.8770
  534MOL0     H72073   3.863   3.779   2.212 -1.3299  0.8996 -0.5020
  534MOL0     H72074   2.780   3.382   1.763 -0.8532  0.2060  0.5507
  534MOL0     H72075   2.569   3.489   1.843  3.4458  0.2913  0.9027
  534MOL0     H72076   2.048   3.428   1.632  0.9629 -1.3531  0.2530
  534MOL0     H72077   1.814   3.481   1.688 -1.8782  0.7768  0.3988
  534MOL0     H72078   1.702   3.725   2.057 -2.1447  1.9303  0.5194
  534MOL0     H72079   1.703   3.557   2.109  0.9372  0.5133 -0.4174
  534MOL0     H72080   1.511   3.487   1.978 -0.6482 -0.5147  2.1030
  534MOL0     H72081   1.493   3.659   1.929  2.8394  1.3283  0.3770
  534MOL0     H72082   1.339   3.658   2.093 -0.4681  0.1344 -0.3582
  534MOL0     H72083   1.494   3.697   2.190  0.0775  0.2231 -0.4671
  534MOL0     H72084   1.374   3.426   2.140  0.8687 -3.2248  2.2355
  534MOL0     H72085   1.499   3.470   2.256  0.9767  1.0881 -2.3814
  534MOL0     H72086   1.163   3.606   2.489  0.6277 -2.1753  1.0276
  534MOL0     H72087   1.933   3.651   2.057  2.3960  1.1930  0.6907
  534MOL0     H72088   2.184   3.677   2.089  0.0890 -0.2069  1.2779
  534MOL0     H72089   2.204   3.501   2.132  1.6882 -1.1410 -1.9956
  534MOL0     H72090   2.299   3.567   2.002 -1.4962 -2.4963 -4.5666
  535MOL0     O72091   5.085   8.094   1.035  0.1361  0.3470  0.4097
  535MOL0     C72092   5.036   8.184   1.101 -0.0515  0.3927 -0.3774
  535MOL0     O72093   5.110   8.279   1.158  0.0710 -0.2920  0.1816
  535MOL0     C72094   5.248   8.307   1.153  0.0437 -0.1482  0.8021
  535MOL0     C72095   5.282   8.433   1.198 -0.1899  0.1865 -0.0001
  535MOL0     C72096   5.410   8.489   1.201 -0.8030 -0.6929  0.3341
  535MOL0     C72097   5.520   8.412   1.145  0.2171  0.3069 -0.1733
  535MOL0     O72098   5.656   8.455   1.152  0.5428  0.2872 -0.1865
  535MOL0     C72099   5.766   8.361   1.152 -0.3496 -1.2659  0.1687
  535MOL0     C72100   5.899   8.429   1.130  0.6696 -0.4033 -0.4682
  535MOL0     C72101   6.012   8.329   1.129  0.0344  0.3191  0.4417
  535MOL0     C72102   6.144   8.395   1.115 -0.2943  0.1122 -0.2402
  535MOL0     C72103   6.253   8.309   1.040 -0.7164 -0.2342  0.1896
  535MOL0     C72104   6.391   8.372   1.053 -0.3422  0.4534 -0.3237
  535MOL0     C72105   6.501   8.324   0.955  0.1213 -0.1105  0.0040
  535MOL0     C72106   6.574   8.200   1.004  0.1546 -0.1964  0.2420
  535MOL0     N72107   6.685   8.164   0.921  0.2302 -0.6001 -0.3543
  535MOL0     C72108   6.816   8.195   0.929  0.6621 -0.4662  0.2348
  535MOL0     C72109   6.877   8.137   0.823  0.2126 -0.6624 -0.3604
  535MOL0     C72110   7.025   8.141   0.785  0.4302  0.0525 -0.3288
  535MOL0     C72111   7.113   8.027   0.842 -0.3452 -0.3941  0.4170
  535MOL0     C72112   7.110   8.029   0.989 -0.1918 -0.3269  0.5734
  535MOL0     C72113   7.207   7.921   1.040 -0.1365  0.0601  0.8907
  535MOL0     O72114   7.341   7.959   0.996 -0.2705 -0.4394 -0.2116
  535MOL0     C72115   7.452   7.891   1.039 -0.5651 -0.6387 -0.4425
  535MOL0     C72116   7.443   7.787   1.130 -0.6167 -0.4970 -0.1071
  535MOL0     C72117   7.563   7.734   1.175 -0.0845  0.8090 -0.1766
  535MOL0     C72118   7.688   7.788   1.152 -0.4815 -0.1109  0.1356
  535MOL0     C72119   7.813   7.734   1.198  0.0506  0.6890  0.8141
  535MOL0     O72120   7.928   7.817   1.182 -0.4653 -0.3495 -0.2477
  535MOL0     C72121   8.052   7.771   1.216 -0.7121 -0.3234 -0.0221
  535MOL0     C72122   8.149   7.835   1.147  0.2435 -0.3459 -0.2013
  535MOL0     C72123   8.278   7.845   1.199 -0.9280  0.1947  0.3464
  535MOL0     C72124   8.322   7.767   1.309 -0.1028  0.4269 -0.5070
  535MOL0     O72125   8.448   7.760   1.367  0.1572 -0.5368 -0.0381
  535MOL0     C72126   8.553   7.833   1.305 -0.4645  0.2846 -0.1902
  535MOL0     C72127   8.671   7.780   1.371  0.8868 -0.6554  0.0057
  535MOL0     C72128   8.705   7.632   1.309 -0.1862  0.2282 -0.1689
  535MOL0     C72129   8.802   7.545   1.395  0.0533 -0.4876  0.2055
  535MOL0     C72130   8.824   7.401   1.339 -0.0085  0.2196  0.8104
  535MOL0     C72131   8.927   7.315   1.429  0.6901  0.0717 -0.9129
  535MOL0     C72132   8.945   7.170   1.368  0.4122  0.0461 -0.2907
  535MOL0     C72133   8.834   7.068   1.411 -0.2356 -1.0355  0.1531
  535MOL0    Cl72134   8.698   7.089   1.291 -0.0034  0.1275 -0.6544
  535MOL0     C72135   8.217   7.699   1.369  0.1692  0.1670  0.6237
  535MOL0     C72136   8.081   7.707   1.337 -1.1046  0.8532  0.6935
  535MOL0     O72137   7.813   7.620   1.231 -0.2680  0.3008 -0.1521
  535MOL0     C72138   7.692   7.908   1.071 -0.2329  0.1266 -0.1210
  535MOL0     C72139   7.575   7.957   1.009  0.6966  0.6664 -0.3388
  535MOL0     N72140   6.779   8.079   0.743  0.1071  0.9191  1.1719
  535MOL0     N72141   6.670   8.097   0.808 -0.0536  0.4043 -0.0599
  535MOL0     C72142   5.485   8.281   1.104  0.3062  0.2810  0.1959
  535MOL0     C72143   5.358   8.234   1.110  1.6496  0.1862  0.9029
  535MOL0     C72144   4.885   8.185   1.122 -0.5484  0.7483  0.1944
  535MOL0     C72145   4.824   8.310   1.143  0.2233 -0.4896  0.2945
  535MOL0     C72146   4.690   8.325   1.157 -0.0309 -0.2822 -0.2071
  535MOL0     C72147   4.615   8.219   1.127  0.4797 -0.1427 -0.1914
  535MOL0     O72148   4.478   8.247   1.119 -0.4501  0.6968  0.1624
  535MOL0     C72149   4.393   8.134   1.109 -0.5843 -0.6657 -0.0450
  535MOL0     C72150   4.387   8.049   1.231 -0.1160 -0.3936 -0.1459
  535MOL0     C72151   4.334   7.909   1.204  0.2253 -0.0495 -0.3852
  535MOL0     C72152   4.417   7.802   1.122 -0.6436  0.4167  0.4918
  535MOL0     C72153   4.538   7.781   1.202 -0.3711  0.0037 -0.0958
  535MOL0     C72154   4.620   7.767   1.287  0.6107 -0.4919 -0.5523
  535MOL0     C72155   4.672   8.097   1.094  0.2496  0.3857 -0.3215
  535MOL0     C72156   4.808   8.068   1.093 -0.4320 -0.5498  0.4569
  535MOL0     C72157   4.857   7.932   1.056  0.0505  0.9228  0.2445
  535MOL0     H72158   5.206   8.504   1.228  0.5664  1.0243 -0.0152
  535MOL0     H72159   5.438   8.589   1.231  1.3091 -0.4134 -2.2213
  535MOL0     H72160   5.768   8.309   1.248  2.0257 -1.7358 -0.0726
  535MOL0     H72161   5.754   8.287   1.073 -0.4238 -0.5240 -0.5377
  535MOL0     H72162   5.931   8.488   1.217  1.2332  2.5715 -2.5430
  535MOL0     H72163   5.899   8.494   1.042 -3.1337  0.7731  0.2064
  535MOL0     H72164   5.999   8.254   1.051 -0.1487  1.3336 -0.5159
  535MOL0     H72165   6.009   8.279   1.227 -3.9113 -0.6655 -0.0137
  535MOL0     H72166   6.140   8.489   1.058  1.1766  0.6558  0.4765
  535MOL0     H72167   6.186   8.425   1.212  0.4063  1.3739 -0.8953
  535MOL0     H72168   6.261   8.207   1.080  0.6039 -0.1536  0.1551
  535MOL0     H72169   6.243   8.286   0.934  2.2193 -1.9512  0.1743
  535MOL0     H72170   6.377   8.479   1.036 -1.2466  0.3998  0.0081
  535MOL0     H72171   6.430   8.359   1.154  2.4498  1.4348 -1.2008
  535MOL0     H72172   6.570   8.408   0.943 -1.0865  0.5372 -4.0866
  535MOL0     H72173   6.460   8.304   0.855  2.8018 -1.5622 -0.9171
  535MOL0     H72174   6.609   8.204   1.107 -0.7196  1.5328  0.5056
  535MOL0     H72175   6.493   8.127   1.005  1.8107 -2.2269 -2.0374
  535MOL0     H72176   6.865   8.252   1.007  1.1432  2.4691 -2.0442
  535MOL0     H72177   7.024   8.138   0.675 -3.6474  0.9470 -0.4730
  535MOL0     H72178   7.058   8.241   0.812  1.4953 -0.8841  2.1661
  535MOL0     H72179   7.062   7.934   0.817 -1.3431 -0.3517  2.1273
  535MOL0     H72180   7.207   8.030   0.787 -1.3557 -0.5940 -1.3846
  535MOL0     H72181   7.011   8.000   1.023  0.3201 -2.3412  0.4768
  535MOL0     H72182   7.131   8.130   1.024 -0.1903 -0.5271  1.1689
  535MOL0     H72183   7.177   7.822   1.005 -1.9411  1.0424 -0.4842
  535MOL0     H72184   7.200   7.899   1.147  0.3963 -0.1728  0.8849
  535MOL0     H72185   7.345   7.752   1.162 -1.1764  1.2727  0.2343
  535MOL0     H72186   7.562   7.648   1.241 -1.8312 -1.0526 -2.4458
  535MOL0     H72187   8.128   7.894   1.058 -0.2407  0.4696  0.4314
  535MOL0     H72188   8.348   7.911   1.149  0.6124 -2.4255 -1.1425
  535MOL0     H72189   8.561   7.818   1.197 -0.2586  2.1029 -0.4604
  535MOL0     H72190   8.544   7.941   1.322  2.7370  0.4929  0.9662
  535MOL0     H72191   8.756   7.845   1.353 -0.3790  1.2265  0.5798
  535MOL0     H72192   8.652   7.780   1.479 -2.1698 -0.4723 -0.4217
  535MOL0     H72193   8.619   7.569   1.286  0.0993 -0.5275  0.7482
  535MOL0     H72194   8.762   7.640   1.217 -0.7630 -1.0667 -0.6581
  535MOL0     H72195   8.756   7.540   1.494  1.6023 -0.7961  0.9401
  535MOL0     H72196   8.896   7.598   1.410  0.6630 -2.4693  4.8913
  535MOL0     H72197   8.863   7.422   1.239  3.1729  1.5061  2.1725
  535MOL0     H72198   8.730   7.346   1.327  0.0556  0.4803 -1.1421
  535MOL0     H72199   9.021   7.370   1.433  1.6709 -1.6181  1.1040
  535MOL0     H72200   8.879   7.309   1.527 -0.7129 -1.5348 -1.6364
  535MOL0     H72201   9.041   7.128   1.397 -0.2777 -1.2534  0.1670
  535MOL0     H72202   8.956   7.183   1.260  1.0818 -0.3942 -0.2770
  535MOL0     H72203   8.880   6.971   1.390  2.4074 -0.0703  1.0198
  535MOL0     H72204   8.801   7.061   1.515 -0.1190  0.5148  0.3242
  535MOL0     H72205   8.241   7.640   1.457  0.6234  0.2204  0.5381
  535MOL0     H72206   8.008   7.657   1.399 -0.2321  0.5365  1.4977
  535MOL0     H72207   7.786   7.956   1.047  0.3447  1.2594  3.6852
  535MOL0     H72208   7.553   8.046   0.951 -0.6987 -0.3789 -1.4907
  535MOL0     H72209   5.562   8.215   1.067  1.1169  1.7627 -0.8607
  535MOL0     H72210   5.351   8.128   1.087  2.4638  0.1370  0.8662
  535MOL0     H72211   4.881   8.401   1.158 -2.1814  0.9345  1.2515
  535MOL0     H72212   4.647   8.422   1.177  1.4301  0.4900 -0.6356
  535MOL0     H72213   4.418   8.087   1.014  3.3895  0.5336  0.2219
  535MOL0     H72214   4.292   8.174   1.096 -0.7097 -0.8150  0.4270
  535MOL0     H72215   4.327   8.101   1.306  2.9161  0.2975  1.9531
  535MOL0     H72216   4.483   8.034   1.280  0.3379 -0.0042 -0.9001
  535MOL0     H72217   4.236   7.913   1.155 -0.4863 -4.2252  0.2815
  535MOL0     H72218   4.315   7.864   1.302  0.9262  1.5702  0.5382
  535MOL0     H72219   4.360   7.709   1.115  0.1636 -0.0890  0.5518
  535MOL0     H72220   4.436   7.845   1.024 -1.7053 -0.3183 -0.0551
  535MOL0     H72221   4.683   7.763   1.374  1.7115 -0.3470 -1.3202
  535MOL0     H72222   4.604   8.018   1.064 -1.4668  1.8957 -0.5935
  535MOL0     H72223   4.922   7.932   0.967 -0.3567 -0.6528 -0.0878
  535MOL0     H72224   4.911   7.890   1.141 -2.0370 -1.5947  0.4408
  535MOL0     H72225   4.770   7.870   1.032  0.6234  0.6433 -1.2859
  536MOL0     O72226   4.016   5.954   3.722  0.0362  0.2973  0.1212
  536MOL0     C72227   3.941   6.035   3.769  0.2381 -0.3114  0.2010
  536MOL0     O72228   3.966   6.134   3.860  0.0425  0.5128 -0.0032
  536MOL0     C72229   4.086   6.150   3.933  0.8028 -0.3167  0.7247
  536MOL0     C72230   4.206   6.098   3.894  0.4665  0.5438 -1.4913
  536MOL0     C72231   4.318   6.110   3.976 -0.0259 -0.1849 -0.5964
  536MOL0     C72232   4.306   6.190   4.100  0.6618  0.0650  0.8945
  536MOL0     O72233   4.406   6.200   4.194 -0.0310  0.2238 -0.8872
  536MOL0     C72234   4.519   6.107   4.183  0.1157  0.4608 -0.7082
  536MOL0     C72235   4.612   6.125   4.298 -0.1929 -0.4654 -0.8377
  536MOL0     C72236   4.712   6.227   4.263  0.3959  0.7564  0.6626
  536MOL0     C72237   4.664   6.365   4.211  1.2416 -0.3095 -0.3443
  536MOL0     C72238   4.780   6.468   4.203  0.2576 -0.1361  0.1800
  536MOL0     C72239   4.753   6.605   4.129  0.0913 -0.1244 -0.2351
  536MOL0     C72240   4.631   6.683   4.188 -0.1584 -0.1183  0.4448
  536MOL0     C72241   4.658   6.756   4.321  0.1008 -0.1453  0.0152
  536MOL0     N72242   4.722   6.882   4.302  0.2488 -1.1571  1.4458
  536MOL0     C72243   4.858   6.906   4.333 -0.1985 -0.6636 -0.8103
  536MOL0     C72244   4.874   7.037   4.312 -0.1740  0.2889 -0.3218
  536MOL0     C72245   5.003   7.107   4.331  0.1415  0.2937 -0.6448
  536MOL0     C72246   4.984   7.213   4.447 -0.0572  0.5577  0.9515
  536MOL0     C72247   4.985   7.360   4.392 -0.5375 -0.0741 -0.3382
  536MOL0     C72248   5.112   7.424   4.338  0.0847  0.0606  0.3892
  536MOL0     O72249   5.201   7.421   4.452 -0.7189 -0.4631  0.3792
  536MOL0     C72250   5.340   7.431   4.431  0.8145  0.1126  0.3381
  536MOL0     C72251   5.423   7.415   4.545 -0.1706 -0.1475  0.1563
  536MOL0     C72252   5.562   7.442   4.541  1.6872 -0.1365 -0.7832
  536MOL0     C72253   5.615   7.484   4.414 -0.6761  0.3357 -0.2848
  536MOL0     C72254   5.766   7.502   4.406 -0.2554 -0.9048  0.8783
  536MOL0     O72255   5.815   7.498   4.279 -0.4521 -0.3669 -0.0641
  536MOL0     C72256   5.924   7.568   4.247 -0.6464 -0.9744 -0.1225
  536MOL0     C72257   5.982   7.526   4.125  0.8392 -0.1516  0.4475
  536MOL0     C72258   6.100   7.587   4.080  0.5078 -0.4395  0.3823
  536MOL0     C72259   6.150   7.698   4.146  0.5005  0.7646 -0.8439
  536MOL0     O72260   6.255   7.767   4.095  0.2008 -0.0703 -0.0944
  536MOL0     C72261   6.369   7.678   4.073  0.0881  0.6686 -0.4455
  536MOL0     C72262   6.493   7.759   4.048 -0.2499 -0.7370 -0.7629
  536MOL0     C72263   6.543   7.829   4.182  0.8507  0.6067 -0.2916
  536MOL0     C72264   6.697   7.837   4.184  0.4631 -0.5201 -0.5506
  536MOL0     C72265   6.753   7.940   4.285 -0.2126  0.3628 -0.2579
  536MOL0     C72266   6.723   8.093   4.264  0.2630  0.4977 -0.6370
  536MOL0     C72267   6.762   8.158   4.395 -0.6438 -0.2312  0.7989
  536MOL0     C72268   6.770   8.309   4.405  0.0075  0.9648 -0.7531
  536MOL0    Cl72269   6.873   8.375   4.279  0.1486 -0.1546  0.1153
  536MOL0     C72270   6.081   7.753   4.256  0.6580 -0.3589 -0.1919
  536MOL0     C72271   5.970   7.688   4.316  0.0254  1.1475 -0.5506
  536MOL0     O72272   5.838   7.508   4.506  0.6719  0.0719  0.3063
  536MOL0     C72273   5.529   7.498   4.303 -0.4965 -0.1429 -0.0860
  536MOL0     C72274   5.396   7.465   4.309  0.4702  0.5087  0.1620
  536MOL0     N72275   4.750   7.091   4.270  0.0313  0.1559  0.4447
  536MOL0     N72276   4.660   7.002   4.262 -0.2887  0.5472 -0.7144
  536MOL0     C72277   4.183   6.261   4.121  0.0304  1.0412  0.2210
  536MOL0     C72278   4.073   6.235   4.039 -0.4251 -0.4794  0.1293
  536MOL0     C72279   3.800   6.030   3.713 -0.5730 -0.2208 -0.3552
  536MOL0     C72280   3.723   6.151   3.709  0.2503 -0.2893  0.0017
  536MOL0     C72281   3.589   6.150   3.663 -0.6405  0.3588 -0.1940
  536MOL0     C72282   3.543   6.040   3.593 -0.5368  0.0083 -0.1753
  536MOL0     O72283   3.420   6.063   3.530  0.4669 -0.4981  0.3126
  536MOL0     C72284   3.347   5.968   3.458  0.4918 -0.1637 -0.3560
  536MOL0     C72285   3.244   5.892   3.539 -0.5131 -0.1713  0.6226
  536MOL0     C72286   3.118   5.975   3.562 -0.8926 -0.1598 -0.2350
  536MOL0     C72287   3.028   5.903   3.667 -0.6376 -0.6367  0.0814
  536MOL0     C72288   2.954   5.790   3.605  1.1831 -0.0702  0.1934
  536MOL0     C72289   2.891   5.690   3.562 -0.1832  0.1126 -1.3177
  536MOL0     C72290   3.612   5.928   3.594  0.2376  0.1615 -0.1978
  536MOL0     C72291   3.736   5.913   3.650 -0.6145 -0.6406  0.2011
  536MOL0     C72292   3.785   5.767   3.639  0.1589 -0.9367 -1.0869
  536MOL0     H72293   4.214   6.036   3.806 -1.4247  1.3569 -2.2876
  536MOL0     H72294   4.412   6.067   3.941 -0.0019  0.4875 -1.3963
  536MOL0     H72295   4.470   6.010   4.197 -2.6291  1.8667  0.2159
  536MOL0     H72296   4.563   6.110   4.084 -1.4866 -0.0251 -1.4749
  536MOL0     H72297   4.666   6.036   4.330 -0.8728 -0.2668  0.9994
  536MOL0     H72298   4.561   6.150   4.392  2.1739  2.9300 -0.2741
  536MOL0     H72299   4.775   6.204   4.176  0.9334  3.0101  0.3981
  536MOL0     H72300   4.790   6.243   4.337  2.8666  0.0659 -1.6611
  536MOL0     H72301   4.612   6.365   4.114 -1.7138 -1.5559  1.0894
  536MOL0     H72302   4.589   6.396   4.285  2.4326 -1.3731  1.3686
  536MOL0     H72303   4.801   6.492   4.307 -1.1226  1.8707  0.0551
  536MOL0     H72304   4.866   6.425   4.152 -0.0958  1.4525 -1.9105
  536MOL0     H72305   4.848   6.659   4.135  0.8199 -1.0708 -2.2599
  536MOL0     H72306   4.737   6.582   4.023  0.9243 -3.1162  0.1868
  536MOL0     H72307   4.546   6.616   4.205 -0.1500 -0.5277 -0.9790
  536MOL0     H72308   4.597   6.755   4.113  0.3789 -0.1104  0.2073
  536MOL0     H72309   4.559   6.765   4.368 -1.0554 -0.3146 -2.2500
  536MOL0     H72310   4.720   6.691   4.382 -0.8630 -1.6501 -0.5607
  536MOL0     H72311   4.938   6.838   4.361 -0.8965 -1.0297  0.3726
  536MOL0     H72312   5.077   7.032   4.359 -1.0197 -0.3810  0.8111
  536MOL0     H72313   5.045   7.147   4.238  2.1788  0.1898  0.1732
  536MOL0     H72314   4.885   7.189   4.488 -0.0217 -3.2130 -0.6942
  536MOL0     H72315   5.062   7.210   4.523 -0.1048 -0.1165  0.9867
  536MOL0     H72316   4.953   7.419   4.478 -1.0182 -0.3398 -0.3310
  536MOL0     H72317   4.905   7.370   4.317 -1.7883 -3.8742  0.2555
  536MOL0     H72318   5.093   7.530   4.321 -2.2199 -0.2473  0.7401
  536MOL0     H72319   5.147   7.374   4.247  0.4341  1.1035 -0.0669
  536MOL0     H72320   5.374   7.401   4.641  0.6008  1.6904  0.8461
  536MOL0     H72321   5.623   7.442   4.631 -0.3048  0.6959  0.6282
  536MOL0     H72322   5.940   7.449   4.061  0.2116  0.6952 -0.1855
  536MOL0     H72323   6.151   7.567   3.986  2.2967  2.1743  0.6664
  536MOL0     H72324   6.380   7.611   4.159  0.2942  1.6624  0.3137
  536MOL0     H72325   6.365   7.621   3.980  3.0233  0.0389 -0.2964
  536MOL0     H72326   6.567   7.683   4.021 -1.7375 -1.8842 -1.7805
  536MOL0     H72327   6.485   7.836   3.971 -2.4028 -0.4895 -0.3565
  536MOL0     H72328   6.496   7.927   4.193  0.0016  0.1474  0.3473
  536MOL0     H72329   6.502   7.776   4.269  1.4137 -1.5504 -1.2565
  536MOL0     H72330   6.728   7.872   4.085 -2.0346  0.2065 -1.1406
  536MOL0     H72331   6.737   7.739   4.213 -2.1273 -0.7587  2.8201
  536MOL0     H72332   6.859   7.925   4.307 -0.4553 -0.1950  0.6182
  536MOL0     H72333   6.703   7.911   4.378  1.3738 -1.0727  0.2101
  536MOL0     H72334   6.796   8.124   4.187  3.4499  0.0092  1.9541
  536MOL0     H72335   6.619   8.111   4.237 -0.7815 -2.2406  1.2289
  536MOL0     H72336   6.859   8.121   4.428 -0.3457  0.1862  0.4207
  536MOL0     H72337   6.691   8.119   4.468 -0.2157  0.5015  1.6236
  536MOL0     H72338   6.675   8.362   4.391 -2.4768 -2.8819 -0.2362
  536MOL0     H72339   6.809   8.331   4.505  1.4191  1.3360 -1.3680
  536MOL0     H72340   6.119   7.850   4.287 -1.3822  1.5706 -3.2490
  536MOL0     H72341   5.923   7.732   4.403  1.0540  2.0233 -0.4030
  536MOL0     H72342   5.565   7.537   4.208 -1.1741  4.3576  1.2635
  536MOL0     H72343   5.335   7.465   4.219 -1.8366  1.6090  1.6485
  536MOL0     H72344   4.172   6.327   4.206  0.7647  1.5547 -0.0779
  536MOL0     H72345   3.977   6.273   4.071 -1.2518 -2.5976  0.3240
  536MOL0     H72346   3.768   6.244   3.740 -0.1711 -0.3087  0.6905
  536MOL0     H72347   3.534   6.241   3.639 -0.1888  0.9495  0.9197
  536MOL0     H72348   3.407   5.884   3.423 -1.7052 -2.0414  0.1671
  536MOL0     H72349   3.306   6.011   3.366 -1.4550  0.1478  0.6181
  536MOL0     H72350   3.287   5.846   3.629  4.1408 -0.0754 -1.2952
  536MOL0     H72351   3.209   5.800   3.491 -0.2902  1.2088 -2.4080
  536MOL0     H72352   3.069   5.999   3.467  0.5951  0.8209 -0.7879
  536MOL0     H72353   3.136   6.072   3.610  0.2403 -1.1432  1.4669
  536MOL0     H72354   3.091   5.880   3.753  0.2570 -0.5288 -0.5397
  536MOL0     H72355   2.941   5.968   3.680 -0.7794 -0.4596 -1.5971
  536MOL0     H72356   2.849   5.596   3.529  1.9260 -0.6832 -1.9059
  536MOL0     H72357   3.570   5.832   3.563 -0.3162 -0.3668  1.9829
  536MOL0     H72358   3.895   5.767   3.641  0.1478 -0.5284  0.8262
  536MOL0     H72359   3.754   5.729   3.736  0.1102  0.3059 -0.5871
  536MOL0     H72360   3.756   5.713   3.549  1.8173  3.3361 -4.5731
  537MOL0     O72361   9.213   7.207   6.329 -0.0598  0.4281 -0.2632
  537MOL0     C72362   9.193   7.090   6.367  0.5105  0.1946  0.4397
  537MOL0     O72363   9.263   6.978   6.331  0.3954 -0.2867 -0.6431
  537MOL0     C72364   9.380   6.979   6.259  0.3573  0.5560  0.0044
  537MOL0     C72365   9.397   6.879   6.161  0.1204 -0.3066 -0.4124
  537MOL0     C72366   9.502   6.875   6.074 -0.2787 -0.4336 -0.4813
  537MOL0     C72367   9.609   6.971   6.099  0.3839 -0.7715 -0.2718
  537MOL0     O72368   9.731   6.971   6.032 -0.3239 -0.0906 -0.5199
  537MOL0     C72369   9.750   6.866   5.944  0.0977  0.8717 -0.1087
  537MOL0     C72370   9.871   6.899   5.858 -0.3346 -0.0168 -0.9346
  537MOL0     C72371  10.005   6.878   5.917 -1.3359 -0.0820  1.1177
  537MOL0     C72372  10.051   6.737   5.913 -0.7662  0.5903  0.1923
  537MOL0     C72373  10.201   6.730   5.933 -0.0791  1.2733  0.4489
  537MOL0     C72374  10.248   6.578   5.936  0.4116  0.5373  1.2161
  537MOL0     C72375  10.377   6.550   5.863 -0.7275  0.8604  0.3247
  537MOL0     C72376  10.503   6.577   5.950  1.0987  0.2098  0.1189
  537MOL0     N72377  10.615   6.532   5.874  0.0999  0.1994 -0.3099
  537MOL0     C72378  10.630   6.419   5.791  0.3032 -0.2408  0.6981
  537MOL0     C72379  10.751   6.422   5.738 -0.0977 -0.8548 -0.0146
  537MOL0     C72380  10.811   6.323   5.645 -0.3585 -0.1016  0.0833
  537MOL0     C72381  10.963   6.356   5.614 -0.3523  0.2340  0.2386
  537MOL0     C72382  11.052   6.251   5.549  0.6120  0.3519 -0.3947
  537MOL0     C72383  11.200   6.304   5.532  0.7524  0.6719 -0.1453
  537MOL0     O72384  11.269   6.212   5.457  0.1839 -0.2367  0.4830
  537MOL0     C72385  11.405   6.217   5.465 -0.5639 -0.1642 -1.0997
  537MOL0     C72386  11.480   6.332   5.481  0.6640  0.2523 -1.1873
  537MOL0     C72387  11.619   6.327   5.493  0.0973  0.6791 -0.0706
  537MOL0     C72388  11.689   6.202   5.478 -0.4208  0.2469 -0.6594
  537MOL0     C72389  11.833   6.190   5.496 -0.9003  0.2255 -0.4355
  537MOL0     O72390  11.902   6.307   5.519  0.3952 -0.3534 -0.1500
  537MOL0     C72391  12.036   6.287   5.552 -0.6822  0.4926  0.0771
  537MOL0     C72392  12.091   6.275   5.679 -0.2952  0.0289 -0.0720
  537MOL0     C72393  12.222   6.257   5.698 -0.1269  0.0405 -0.8327
  537MOL0     C72394  12.316   6.243   5.598  0.7675 -0.5791 -0.5814
  537MOL0     O72395  12.452   6.224   5.622 -0.4106  0.3429  0.5094
  537MOL0     C72396  12.543   6.197   5.517 -0.5988  0.7445 -0.3125
  537MOL0     C72397  12.689   6.173   5.564  0.6651 -0.0650  0.3544
  537MOL0     C72398  12.707   6.043   5.654  0.3258  0.8506  0.2848
  537MOL0     C72399  12.660   5.915   5.586 -0.3935  0.1453 -0.4724
  537MOL0     C72400  12.693   5.804   5.689 -0.2122  0.1118  0.4221
  537MOL0     C72401  12.846   5.778   5.702 -0.2076 -0.6917  0.3764
  537MOL0     C72402  12.890   5.660   5.797 -0.5713  0.6396  0.5337
  537MOL0     C72403  13.014   5.595   5.754 -0.6153  0.0154  0.1583
  537MOL0    Cl72404  13.146   5.719   5.741 -0.0343  0.4214 -0.3990
  537MOL0     C72405  12.261   6.260   5.469  0.5141 -0.4489 -0.9371
  537MOL0     C72406  12.125   6.283   5.445  0.5399  0.1733 -0.2186
  537MOL0     O72407  11.882   6.073   5.498 -0.4037  0.4454  0.6459
  537MOL0     C72408  11.609   6.093   5.439 -0.2541  0.1868 -0.7146
  537MOL0     C72409  11.469   6.099   5.439  0.1090  0.5348  0.1645
  537MOL0     N72410  10.806   6.545   5.778  0.4295 -0.6805 -0.3215
  537MOL0     N72411  10.725   6.612   5.857 -0.2062  0.2835 -0.3420
  537MOL0     C72412   9.592   7.067   6.195  0.6433  0.6035 -0.5159
  537MOL0     C72413   9.482   7.069   6.279  0.5019 -0.5176 -0.2753
  537MOL0     C72414   9.077   7.069   6.462  0.2799  0.4912 -0.3189
  537MOL0     C72415   9.050   7.175   6.541 -0.5549 -0.3920 -0.2977
  537MOL0     C72416   8.944   7.164   6.631 -0.8068  0.0931  0.2247
  537MOL0     C72417   8.864   7.047   6.651 -0.1023  1.1232 -0.4922
  537MOL0     O72418   8.768   7.052   6.744 -0.2825 -0.6031 -0.0478
  537MOL0     C72419   8.695   6.929   6.776 -0.7384 -0.0643 -0.6307
  537MOL0     C72420   8.579   6.908   6.687  0.1487  0.2120 -0.5909
  537MOL0     C72421   8.470   7.017   6.688 -0.4589 -0.4800 -0.5240
  537MOL0     C72422   8.362   7.007   6.806  0.2343  0.2757  0.5441
  537MOL0     C72423   8.417   7.075   6.924 -0.4138 -0.1066  0.0805
  537MOL0     C72424   8.448   7.135   7.024  1.1702 -1.5659 -0.1299
  537MOL0     C72425   8.894   6.937   6.571 -0.8498 -0.0216 -0.0133
  537MOL0     C72426   8.998   6.952   6.468 -0.0151  0.0244 -0.6949
  537MOL0     C72427   9.021   6.841   6.361  0.3490 -0.4965  0.3200
  537MOL0     H72428   9.325   6.798   6.154 -0.0605 -0.1521 -0.3401
  537MOL0     H72429   9.509   6.790   6.007  2.2260 -1.2245  0.6372
  537MOL0     H72430   9.752   6.766   5.988 -0.0172  0.8368 -0.1819
  537MOL0     H72431   9.663   6.864   5.877  0.5039  0.1055 -0.6265
  537MOL0     H72432   9.857   7.005   5.832 -0.5784  1.3322  3.8323
  537MOL0     H72433   9.864   6.841   5.765 -0.7046 -0.8748 -0.3744
  537MOL0     H72434  10.014   6.918   6.018 -2.9581 -1.8438  2.0255
  537MOL0     H72435  10.074   6.925   5.846 -0.3025 -0.4826  1.8357
  537MOL0     H72436  10.000   6.686   5.995  3.6543 -0.4819  2.6090
  537MOL0     H72437  10.023   6.682   5.823 -2.0349  0.6358  0.5389
  537MOL0     H72438  10.246   6.790   5.853  1.0363 -0.0400  0.0616
  537MOL0     H72439  10.229   6.776   6.029 -0.9808 -0.5944  1.6632
  537MOL0     H72440  10.248   6.529   6.033  0.0908 -0.8525  0.5396
  537MOL0     H72441  10.162   6.520   5.901  1.4893 -2.2716  2.8937
  537MOL0     H72442  10.384   6.610   5.773  1.1669  1.3713  0.7686
  537MOL0     H72443  10.383   6.448   5.825  1.7819  0.4590  1.5975
  537MOL0     H72444  10.505   6.685   5.969  0.6887  0.1915  0.2772
  537MOL0     H72445  10.503   6.530   6.049 -1.4749 -1.4763 -0.5722
  537MOL0     H72446  10.552   6.353   5.753  1.2919 -1.2199  0.3151
  537MOL0     H72447  10.805   6.224   5.690 -1.0506 -0.0497  0.1251
  537MOL0     H72448  10.753   6.335   5.552  1.5468  0.7041 -1.0521
  537MOL0     H72449  10.978   6.451   5.564 -1.6937  2.7438  4.1556
  537MOL0     H72450  11.014   6.384   5.706  0.5993  2.5756 -0.9426
  537MOL0     H72451  11.014   6.225   5.450 -1.5008 -0.7363  0.6249
  537MOL0     H72452  11.067   6.161   5.610  1.8194  0.9896  0.2775
  537MOL0     H72453  11.238   6.330   5.631  1.9262 -1.0494 -0.0921
  537MOL0     H72454  11.197   6.389   5.464  0.2925  0.3628 -0.5226
  537MOL0     H72455  11.430   6.428   5.494 -0.6833 -0.5458 -0.2498
  537MOL0     H72456  11.675   6.415   5.523  2.4855 -1.7512  3.3204
  537MOL0     H72457  12.020   6.285   5.760  0.0404 -0.4673  0.2837
  537MOL0     H72458  12.254   6.254   5.801 -0.3696  3.1974 -0.5595
  537MOL0     H72459  12.501   6.110   5.466 -0.9770  0.0524  1.1222
  537MOL0     H72460  12.546   6.278   5.444  1.5903  1.4926  0.5177
  537MOL0     H72461  12.755   6.167   5.477 -0.3536 -0.9033 -0.3809
  537MOL0     H72462  12.715   6.256   5.630 -2.5322 -0.4195  2.2383
  537MOL0     H72463  12.814   6.034   5.673  0.1324 -0.9770  0.6259
  537MOL0     H72464  12.653   6.067   5.746  0.0914 -2.2055  1.0546
  537MOL0     H72465  12.712   5.898   5.491 -0.1649  1.3349 -0.5854
  537MOL0     H72466  12.553   5.923   5.566 -0.6332 -0.4749  0.4962
  537MOL0     H72467  12.649   5.712   5.648 -0.5761  1.0967 -1.5411
  537MOL0     H72468  12.653   5.820   5.789 -1.0676  0.6202  0.0069
  537MOL0     H72469  12.866   5.748   5.599 -1.9672  0.6342 -0.4109
  537MOL0     H72470  12.903   5.868   5.729 -0.8428 -0.5445  1.2628
  537MOL0     H72471  12.816   5.579   5.792 -1.1153  1.1612 -0.1507
  537MOL0     H72472  12.909   5.710   5.893 -2.2005  0.3714  1.0311
  537MOL0     H72473  13.039   5.509   5.816  0.0280 -1.0074 -1.4642
  537MOL0     H72474  12.995   5.553   5.655 -0.5525  1.6042 -0.5558
  537MOL0     H72475  12.324   6.249   5.381 -1.3117 -1.8969 -2.1468
  537MOL0     H72476  12.091   6.280   5.342  0.3350 -3.6936 -0.1728
  537MOL0     H72477  11.654   5.998   5.413  0.6079  1.4408 -4.5528
  537MOL0     H72478  11.405   6.017   5.408  1.0659 -0.7287  1.4438
  537MOL0     H72479   9.685   7.120   6.213  2.0867 -2.1089  0.5061
  537MOL0     H72480   9.476   7.127   6.371  2.0025 -4.3804  2.5823
  537MOL0     H72481   9.108   7.266   6.538  1.0849 -1.3768  0.3090
  537MOL0     H72482   8.924   7.252   6.691  3.0157 -0.7223  3.1113
  537MOL0     H72483   8.668   6.942   6.882  3.1215 -1.2926  0.6869
  537MOL0     H72484   8.756   6.838   6.786 -0.9690 -0.3410 -1.6416
  537MOL0     H72485   8.536   6.812   6.718 -2.6672  1.4867 -0.1645
  537MOL0     H72486   8.608   6.885   6.584  1.4416 -2.6920  0.3094
  537MOL0     H72487   8.409   7.006   6.597 -1.4697  3.0767 -0.4240
  537MOL0     H72488   8.516   7.116   6.688 -2.1245  0.3450  0.4398
  537MOL0     H72489   8.274   7.053   6.760  0.3545  0.9614  0.9825
  537MOL0     H72490   8.341   6.903   6.832  1.1148  0.4867  2.2072
  537MOL0     H72491   8.455   7.196   7.112  0.1718 -3.1357  1.0906
  537MOL0     H72492   8.839   6.843   6.568 -1.1063  0.1276 -0.0660
  537MOL0     H72493   9.011   6.890   6.264 -2.6358  2.3977  1.8688
  537MOL0     H72494   9.119   6.794   6.370  0.0944 -0.8695  1.2688
  537MOL0     H72495   8.942   6.766   6.359  1.4757 -1.7159  0.1266
  538MOL0     O72496   0.798   2.685   7.998  0.1060 -0.7925  0.5524
  538MOL0     C72497   0.844   2.581   7.971  0.7362  0.1522  0.6390
  538MOL0     O72498   0.776   2.479   7.920  0.5709 -0.7085  0.8150
  538MOL0     C72499   0.643   2.489   7.892 -1.2979 -1.1016  0.7732
  538MOL0     C72500   0.549   2.494   7.999 -0.7453 -0.0673 -0.0957
  538MOL0     C72501   0.414   2.498   7.967 -0.5487  0.7784  0.8261
  538MOL0     C72502   0.366   2.488   7.835 -0.6017  0.2473 -0.9486
  538MOL0     O72503   0.239   2.471   7.811  0.4686  0.0125  0.5856
  538MOL0     C72504   0.144   2.448   7.916 -0.1599 -0.0119 -0.2573
  538MOL0     C72505   0.156   2.295   7.940 -0.5354 -0.1162 -0.6803
  538MOL0     C72506   0.069   2.243   8.060  0.5715  0.3356  0.0840
  538MOL0     C72507   0.143   2.235   8.191 -0.7512 -0.3036 -0.2522
  538MOL0     C72508   0.036   2.256   8.308  0.2944  0.9328  0.0910
  538MOL0     C72509   0.106   2.246   8.444 -0.1451  0.1984  0.5889
  538MOL0     C72510   0.009   2.260   8.559 -0.0104  0.0302 -0.5555
  538MOL0     C72511   0.067   2.216   8.694 -0.5211  0.1273 -0.4501
  538MOL0     N72512   0.183   2.293   8.730 -0.4488 -0.1121 -0.0993
  538MOL0     C72513   0.187   2.420   8.773 -1.1263 -0.3025 -0.2501
  538MOL0     C72514   0.311   2.463   8.758 -0.9327 -0.9918 -0.2021
  538MOL0     C72515   0.358   2.608   8.756 -0.4220  0.1365 -0.2190
  538MOL0     C72516   0.441   2.637   8.886 -0.7614  0.5360 -0.1399
  538MOL0     C72517   0.495   2.775   8.887 -0.0736  0.0373 -0.6253
  538MOL0     C72518   0.566   2.799   9.024 -0.1635 -0.0487 -0.6195
  538MOL0     O72519   0.622   2.935   9.033  0.4819 -0.1573  0.4801
  538MOL0     C72520   0.700   2.954   9.140  0.3931 -0.7543  0.1449
  538MOL0     C72521   0.741   2.860   9.238 -0.7629  0.2538  0.4172
  538MOL0     C72522   0.826   2.890   9.343 -0.4117  0.4137 -0.0120
  538MOL0     C72523   0.884   3.017   9.338  1.0188  0.1732  0.6616
  538MOL0     C72524   0.983   3.060   9.435  0.3823  0.7191 -0.2407
  538MOL0     O72525   1.088   3.148   9.397  0.0064 -0.2077  0.6095
  538MOL0     C72526   1.207   3.149   9.469  0.8482  0.7459 -0.1762
  538MOL0     C72527   1.266   3.272   9.488  0.3665 -0.3179  0.1902
  538MOL0     C72528   1.384   3.293   9.557  0.0478  0.2851  0.6492
  538MOL0     C72529   1.450   3.190   9.606  1.1216  1.3532  0.2933
  538MOL0     O72530   1.572   3.206   9.660 -0.0988 -0.5151  0.9167
  538MOL0     C72531   1.670   3.116   9.618 -0.2066  0.8630 -0.5136
  538MOL0     C72532   1.806   3.177   9.648  0.5778  1.0134  0.2265
  538MOL0     C72533   1.828   3.309   9.575 -0.1239 -0.0596  0.1577
  538MOL0     C72534   1.970   3.362   9.616 -0.4004  0.6885  0.3906
  538MOL0     C72535   2.031   3.467   9.531 -0.4578 -0.1445 -0.2315
  538MOL0     C72536   2.187   3.462   9.532  0.3680 -1.0792  0.6926
  538MOL0     C72537   2.241   3.558   9.424  0.3217  0.2614  0.7999
  538MOL0     C72538   2.379   3.595   9.478 -0.0310  0.6617 -1.1893
  538MOL0    Cl72539   2.454   3.703   9.359 -0.1366 -0.2267 -0.0260
  538MOL0     C72540   1.389   3.057   9.597 -0.5638 -0.2292 -0.0558
  538MOL0     C72541   1.271   3.039   9.521 -0.3286 -0.3001  0.3699
  538MOL0     O72542   0.980   3.005   9.545  0.0085  0.0697  0.5458
  538MOL0     C72543   0.850   3.112   9.245  0.5394 -0.2849 -0.5897
  538MOL0     C72544   0.757   3.081   9.151  0.6627 -0.0957 -0.2983
  538MOL0     N72545   0.382   2.363   8.703 -0.0593  0.0717  0.2551
  538MOL0     N72546   0.313   2.254   8.692  0.2164  0.6963 -0.4813
  538MOL0     C72547   0.457   2.489   7.733  0.4875 -0.1226  0.1975
  538MOL0     C72548   0.594   2.475   7.764 -0.5193 -0.6563 -0.8215
  538MOL0     C72549   0.981   2.556   8.012  0.4756  0.2468 -0.3540
  538MOL0     C72550   1.002   2.438   8.088 -0.0924  0.5244 -0.3572
  538MOL0     C72551   1.131   2.404   8.137  0.4783 -0.3151 -0.9817
  538MOL0     C72552   1.233   2.496   8.126  0.6721 -0.4436 -0.4043
  538MOL0     O72553   1.354   2.463   8.179  0.1635 -0.2949  0.2853
  538MOL0     C72554   1.471   2.545   8.170  0.2840  0.5995  0.0536
  538MOL0     C72555   1.593   2.455   8.171 -0.4337  0.5440 -0.3213
  538MOL0     C72556   1.721   2.537   8.159  0.3176 -0.1175  0.4270
  538MOL0     C72557   1.849   2.452   8.186  0.6154  0.1681 -0.4492
  538MOL0     C72558   1.859   2.358   8.071  0.3820  0.3769  0.5331
  538MOL0     C72559   1.888   2.275   7.989  0.6589 -0.3624  0.5505
  538MOL0     C72560   1.209   2.619   8.049 -0.1003 -0.0595 -0.0042
  538MOL0     C72561   1.086   2.656   7.992 -0.0698 -0.5391 -0.1838
  538MOL0     C72562   1.079   2.791   7.919 -1.1504  0.3975 -0.2001
  538MOL0     H72563   0.595   2.489   8.097 -0.1217 -0.9821 -0.4247
  538MOL0     H72564   0.353   2.514   8.055 -0.7712 -1.2096  1.0647
  538MOL0     H72565   0.162   2.503   8.009 -2.4069  2.1489 -0.9883
  538MOL0     H72566   0.048   2.490   7.885  0.0118  1.2086  0.8129
  538MOL0     H72567   0.261   2.264   7.937 -0.2923  0.7267 -1.0810
  538MOL0     H72568   0.116   2.244   7.852 -2.9225 -2.7997  1.7418
  538MOL0     H72569   0.023   2.145   8.041 -0.3244  0.3765  1.7894
  538MOL0     H72570  -0.022   2.303   8.069 -1.3386 -2.5743  2.0942
  538MOL0     H72571   0.191   2.137   8.201 -0.3912 -0.1134 -0.1279
  538MOL0     H72572   0.218   2.314   8.200 -0.6585 -0.5137  0.9222
  538MOL0     H72573  -0.006   2.356   8.298 -1.5313  0.0530 -1.8823
  538MOL0     H72574  -0.051   2.191   8.300  0.2907  1.0652 -1.2331
  538MOL0     H72575   0.154   2.148   8.445  1.6616  0.7722 -4.4097
  538MOL0     H72576   0.197   2.307   8.445  1.0797 -1.3247 -2.6923
  538MOL0     H72577  -0.087   2.207   8.554 -0.4075  0.6564  0.1053
  538MOL0     H72578  -0.016   2.366   8.570  2.0017  0.7909 -2.5067
  538MOL0     H72579  -0.011   2.215   8.771  0.9257 -0.3707  1.0453
  538MOL0     H72580   0.096   2.113   8.674 -0.4767  0.5658 -3.0662
  538MOL0     H72581   0.113   2.497   8.790  1.2160  1.7219  1.7143
  538MOL0     H72582   0.413   2.610   8.661 -2.2681 -0.3845 -1.3604
  538MOL0     H72583   0.268   2.670   8.752  0.9855  2.3096  0.5585
  538MOL0     H72584   0.372   2.641   8.971  0.1090  1.9602  0.5352
  538MOL0     H72585   0.522   2.565   8.903  0.1190  1.7148  0.7963
  538MOL0     H72586   0.413   2.843   8.863  1.6011  1.3384 -3.1960
  538MOL0     H72587   0.569   2.793   8.808 -0.5335 -0.4425 -1.1751
  538MOL0     H72588   0.652   2.731   9.030 -0.3318 -0.3762 -1.6934
  538MOL0     H72589   0.500   2.781   9.109  0.3061  2.9029  0.4835
  538MOL0     H72590   0.720   2.754   9.232  3.7089 -0.8098  0.3098
  538MOL0     H72591   0.853   2.805   9.405  1.2804 -0.0101 -1.2429
  538MOL0     H72592   1.224   3.358   9.437  0.6867 -0.1400  0.2236
  538MOL0     H72593   1.431   3.391   9.555 -0.1785  0.4242 -2.3383
  538MOL0     H72594   1.662   3.025   9.678 -0.6771  1.1736 -0.0967
  538MOL0     H72595   1.665   3.104   9.510  0.1548  2.1431 -0.6821
  538MOL0     H72596   1.808   3.195   9.756 -1.8779 -1.5995  0.8340
  538MOL0     H72597   1.877   3.101   9.617 -1.7653 -1.9988  1.6672
  538MOL0     H72598   1.814   3.286   9.469 -0.9037  0.6249  0.1038
  538MOL0     H72599   1.753   3.387   9.593  1.4623  1.5054  0.3288
  538MOL0     H72600   2.043   3.281   9.605  2.7437  3.1921  1.0602
  538MOL0     H72601   1.965   3.390   9.722 -2.4421  1.5698  0.1039
  538MOL0     H72602   1.996   3.564   9.568 -0.5245  0.2038 -1.1848
  538MOL0     H72603   2.002   3.456   9.426 -0.8026  2.3920 -0.4731
  538MOL0     H72604   2.222   3.487   9.633  0.1295  2.1936  0.0726
  538MOL0     H72605   2.215   3.361   9.501 -1.3662 -1.3150 -0.2362
  538MOL0     H72606   2.172   3.643   9.421  0.0202  0.0837  2.1145
  538MOL0     H72607   2.254   3.520   9.322 -0.7783 -1.5321  1.2826
  538MOL0     H72608   2.368   3.636   9.579 -2.9518 -3.7111  0.5480
  538MOL0     H72609   2.439   3.504   9.481  1.6426  1.6802 -1.9659
  538MOL0     H72610   1.441   2.977   9.647 -4.0124 -1.1092  2.5189
  538MOL0     H72611   1.236   2.937   9.508 -0.3122 -0.0841 -1.9112
  538MOL0     H72612   0.881   3.215   9.229  1.7991 -0.4353  0.7392
  538MOL0     H72613   0.735   3.149   9.069  2.0609 -0.8040 -1.2991
  538MOL0     H72614   0.416   2.491   7.632 -0.2643  3.7575  0.4320
  538MOL0     H72615   0.674   2.452   7.694  2.3721 -1.9613  2.6248
  538MOL0     H72616   0.918   2.372   8.103 -1.0310  1.5321 -1.0158
  538MOL0     H72617   1.147   2.304   8.176 -0.5931 -1.4053 -3.1528
  538MOL0     H72618   1.487   2.608   8.258  0.3829 -1.6326  1.6955
  538MOL0     H72619   1.492   2.597   8.075  2.6099 -0.9640 -0.3558
  538MOL0     H72620   1.568   2.382   8.093 -1.0382 -2.0743  2.1527
  538MOL0     H72621   1.600   2.411   8.270 -2.2875 -2.8197 -1.5163
  538MOL0     H72622   1.719   2.608   8.242  1.1220  1.2816 -0.7097
  538MOL0     H72623   1.732   2.591   8.064 -0.2684 -3.7157 -1.8663
  538MOL0     H72624   1.936   2.518   8.175 -0.6353  1.7866 -0.9874
  538MOL0     H72625   1.845   2.392   8.277 -0.6994 -1.0234 -1.2477
  538MOL0     H72626   1.912   2.199   7.917 -1.3423  0.5548 -1.2014
  538MOL0     H72627   1.295   2.680   8.023 -0.2119  0.4039  0.6704
  538MOL0     H72628   1.170   2.804   7.861 -1.4435  0.8367 -0.5639
  538MOL0     H72629   1.010   2.790   7.834 -1.5444  0.1703  0.1189
  538MOL0     H72630   1.053   2.873   7.986 -1.5106 -0.8482  1.2675
  539MOL0     O72631   5.772   2.034   0.036  0.8756 -0.3296 -0.6023
  539MOL0     C72632   5.711   2.038  -0.074 -0.3510  0.0251 -0.1341
  539MOL0     O72633   5.579   2.080  -0.094  0.3485 -0.3177 -0.7245
  539MOL0     C72634   5.526   2.169  -0.015  0.1068 -0.4967 -1.3596
  539MOL0     C72635   5.503   2.299  -0.066 -0.6765 -0.3205 -0.0538
  539MOL0     C72636   5.456   2.401   0.025 -0.3289  1.1496  0.4228
  539MOL0     C72637   5.431   2.368   0.156  1.5467 -0.2460 -0.0406
  539MOL0     O72638   5.369   2.470   0.231 -0.0220 -0.1028 -1.1931
  539MOL0     C72639   5.366   2.449   0.377  0.3164 -0.2549  0.2992
  539MOL0     C72640   5.306   2.578   0.440  0.3116  0.6322  0.6237
  539MOL0     C72641   5.157   2.563   0.446 -0.0143  0.0318 -0.5553
  539MOL0     C72642   5.087   2.690   0.485  0.0990  0.2762  0.3464
  539MOL0     C72643   4.933   2.684   0.543  0.0764 -0.0715  0.1933
  539MOL0     C72644   4.858   2.582   0.459 -0.2823  0.3669  0.1176
  539MOL0     C72645   4.844   2.629   0.319  0.3562  0.4345  0.4034
  539MOL0     C72646   4.733   2.553   0.242 -0.1380  0.1171  0.9325
  539MOL0     N72647   4.609   2.625   0.243 -0.3223  0.4962 -0.0919
  539MOL0     C72648   4.532   2.635   0.360  0.8065 -0.1343  1.1455
  539MOL0     C72649   4.430   2.716   0.321  0.5784  0.0625 -0.3307
  539MOL0     C72650   4.307   2.778   0.387  0.0948  0.7569 -0.4431
  539MOL0     C72651   4.210   2.672   0.435  0.6010  0.9318  0.1024
  539MOL0     C72652   4.106   2.711   0.547 -0.9816  0.0800  0.1386
  539MOL0     C72653   4.180   2.737   0.677  0.6100  0.1249 -0.2774
  539MOL0     O72654   4.251   2.628   0.712 -0.2233  0.2268  0.1331
  539MOL0     C72655   4.378   2.642   0.766 -0.8144  0.0001  0.0986
  539MOL0     C72656   4.430   2.765   0.811 -0.3017  0.3427 -0.2385
  539MOL0     C72657   4.557   2.770   0.859  0.0438 -0.6768  1.4080
  539MOL0     C72658   4.640   2.653   0.853 -0.4455  0.1531 -0.4864
  539MOL0     C72659   4.791   2.672   0.903 -0.2899  0.2384  0.3355
  539MOL0     O72660   4.821   2.792   0.952 -0.8811  0.4449  0.3864
  539MOL0     C72661   4.947   2.805   1.001  0.0250  0.7372  0.0764
  539MOL0     C72662   4.977   2.774   1.131 -0.4583  0.1352 -0.2745
  539MOL0     C72663   5.103   2.794   1.185  0.4155 -0.3325  0.3670
  539MOL0     C72664   5.208   2.835   1.108  0.1279 -0.1487  0.1607
  539MOL0     O72665   5.337   2.838   1.170 -0.7196 -0.1395  0.6728
  539MOL0     C72666   5.439   2.907   1.096  0.4163 -0.1482 -0.4378
  539MOL0     C72667   5.563   2.864   1.176  0.2829  1.3010 -0.3338
  539MOL0     C72668   5.690   2.897   1.099 -0.2087 -0.5896  0.0923
  539MOL0     C72669   5.817   2.855   1.173 -0.2882 -0.9415  0.4507
  539MOL0     C72670   5.945   2.869   1.090 -0.0891  0.1586  0.2000
  539MOL0     C72671   6.066   2.889   1.182 -0.8205 -0.0806  0.2271
  539MOL0     C72672   6.198   2.842   1.126 -0.2401  0.7805 -0.1737
  539MOL0     C72673   6.315   2.899   1.199  0.0518 -0.1363  0.3569
  539MOL0    Cl72674   6.303   2.878   1.377  0.6553  0.3785  0.2546
  539MOL0     C72675   5.179   2.858   0.967 -0.1117  0.0526  0.0336
  539MOL0     C72676   5.049   2.854   0.916  0.4118 -0.1200  0.7226
  539MOL0     O72677   4.864   2.570   0.899  0.4832 -0.4027  0.6773
  539MOL0     C72678   4.588   2.530   0.803 -0.9948 -0.0435 -1.3151
  539MOL0     C72679   4.456   2.525   0.763 -0.2943 -0.2033  0.1532
  539MOL0     N72680   4.440   2.748   0.186 -1.0728 -0.0385 -0.0549
  539MOL0     N72681   4.559   2.700   0.145 -0.7095 -1.0763  0.2203
  539MOL0     C72682   5.448   2.240   0.208 -0.0322  0.4845 -0.2293
  539MOL0     C72683   5.501   2.140   0.119 -1.5605 -0.0747  0.5636
  539MOL0     C72684   5.786   1.992  -0.197  0.4170 -0.4663  0.4975
  539MOL0     C72685   5.717   1.995  -0.327 -0.3032  0.0534 -0.4528
  539MOL0     C72686   5.790   1.966  -0.436  0.8880 -1.1440 -0.1813
  539MOL0     C72687   5.918   1.927  -0.438  1.2186  0.1153  0.2930
  539MOL0     O72688   5.982   1.906  -0.559  0.2054 -0.3221 -0.0710
  539MOL0     C72689   6.113   1.855  -0.560 -0.8308  0.1814 -0.5997
  539MOL0     C72690   6.220   1.967  -0.542  0.5159  0.8777  1.0514
  539MOL0     C72691   6.362   1.929  -0.575  0.4168  0.3504  0.2145
  539MOL0     C72692   6.407   1.790  -0.507  0.4493 -0.2281 -0.0662
  539MOL0     C72693   6.376   1.787  -0.366 -0.3732 -0.4748 -0.7715
  539MOL0     C72694   6.354   1.764  -0.248 -0.0551 -0.0680 -0.1286
  539MOL0     C72695   5.978   1.922  -0.309 -0.1842 -0.5165  0.0787
  539MOL0     C72696   5.916   1.949  -0.191 -0.5413 -0.0583  0.4021
  539MOL0     C72697   6.005   1.925  -0.067  0.6390 -0.0620 -0.3787
  539MOL0     H72698   5.521   2.319  -0.171  2.3298 -0.6832  0.3197
  539MOL0     H72699   5.443   2.502  -0.015 -1.8287 -0.2602 -3.0323
  539MOL0     H72700   5.301   2.367   0.411 -2.4234  2.5425  2.4267
  539MOL0     H72701   5.469   2.431   0.409  0.8640  0.8232 -0.7539
  539MOL0     H72702   5.336   2.663   0.379  0.4693 -1.0716 -1.8212
  539MOL0     H72703   5.329   2.589   0.547  1.4818  1.5514  0.2961
  539MOL0     H72704   5.133   2.485   0.520 -0.4849 -0.9926 -1.7525
  539MOL0     H72705   5.119   2.533   0.348  2.4864  1.7203 -2.1375
  539MOL0     H72706   5.139   2.730   0.573 -0.7354 -2.3504  2.1456
  539MOL0     H72707   5.102   2.758   0.400  2.3788 -1.6025 -0.8945
  539MOL0     H72708   4.945   2.665   0.650  0.0953 -1.5874 -0.0559
  539MOL0     H72709   4.884   2.782   0.543  1.3605  0.5878 -0.5007
  539MOL0     H72710   4.912   2.487   0.456  2.0649  1.6804 -1.7487
  539MOL0     H72711   4.757   2.564   0.498 -0.3269 -2.1019 -0.9105
  539MOL0     H72712   4.936   2.640   0.261 -0.5021  0.8869 -0.9149
  539MOL0     H72713   4.818   2.735   0.327 -1.5817 -0.0902  1.4487
  539MOL0     H72714   4.769   2.544   0.139  3.1616  1.2013  1.8496
  539MOL0     H72715   4.727   2.452   0.284  0.6551  0.0621  0.9271
  539MOL0     H72716   4.559   2.593   0.456 -0.7853 -0.5881  1.4259
  539MOL0     H72717   4.342   2.833   0.475 -2.4687  2.0136 -0.1029
  539MOL0     H72718   4.268   2.855   0.321 -1.9816 -1.0090 -1.3987
  539MOL0     H72719   4.171   2.632   0.341  0.2280  2.5841 -0.4682
  539MOL0     H72720   4.271   2.591   0.476 -0.9780 -0.6868 -0.6105
  539MOL0     H72721   4.038   2.626   0.562  0.7175 -1.6085 -1.2298
  539MOL0     H72722   4.054   2.804   0.525  0.9628  1.4432  1.0547
  539MOL0     H72723   4.103   2.757   0.752  2.6331 -1.7673  2.4868
  539MOL0     H72724   4.235   2.830   0.658 -0.2337  0.6424 -0.2667
  539MOL0     H72725   4.373   2.856   0.829  0.9646  0.5021  4.0785
  539MOL0     H72726   4.596   2.867   0.888 -0.7411 -0.0740  0.5322
  539MOL0     H72727   4.893   2.745   1.194  0.5315  0.6507  1.3475
  539MOL0     H72728   5.124   2.785   1.291  0.7208 -0.6292  0.2841
  539MOL0     H72729   5.446   2.859   0.998 -0.9203  0.7715 -1.0211
  539MOL0     H72730   5.415   3.014   1.088 -1.1015 -0.4616 -0.4266
  539MOL0     H72731   5.555   2.892   1.281  0.2905 -0.6993  0.2350
  539MOL0     H72732   5.568   2.755   1.178 -0.0044  1.2662  2.5142
  539MOL0     H72733   5.697   2.869   0.994  3.2322  3.4927 -1.0825
  539MOL0     H72734   5.700   3.005   1.083  2.5068 -0.6245  0.9825
  539MOL0     H72735   5.810   2.751   1.207 -2.6319 -0.1855  2.5681
  539MOL0     H72736   5.831   2.918   1.261  0.4702 -0.7779  0.2209
  539MOL0     H72737   5.934   2.946   1.013 -2.9289 -1.6467 -1.4029
  539MOL0     H72738   5.959   2.777   1.033  2.3895 -0.2487  1.3671
  539MOL0     H72739   6.074   2.996   1.204  4.6665  0.5751 -3.1751
  539MOL0     H72740   6.054   2.836   1.277  0.3292 -0.2554  0.2939
  539MOL0     H72741   6.211   2.873   1.022 -0.0565 -2.1546 -1.1210
  539MOL0     H72742   6.208   2.733   1.122  2.8725  0.9870 -1.0747
  539MOL0     H72743   6.405   2.854   1.154  0.6697  0.5377  0.8935
  539MOL0     H72744   6.313   3.007   1.183  2.3203 -0.0974 -0.0650
  539MOL0     H72745   5.254   2.881   0.893  1.0527  1.7613  1.6329
  539MOL0     H72746   5.023   2.883   0.815  2.2228 -2.5781 -0.5555
  539MOL0     H72747   4.659   2.450   0.787  0.5389  1.1540 -0.7544
  539MOL0     H72748   4.412   2.439   0.715 -2.3671  0.8950 -0.0440
  539MOL0     H72749   5.427   2.207   0.309 -1.6944 -2.4476 -1.3878
  539MOL0     H72750   5.533   2.050   0.171 -0.0705  0.3722  0.4551
  539MOL0     H72751   5.615   2.028  -0.339  0.5974  2.0259 -3.9237
  539MOL0     H72752   5.735   1.991  -0.527  0.5877  0.3779  0.3956
  539MOL0     H72753   6.143   1.802  -0.651 -1.7406  1.4050 -1.6620
  539MOL0     H72754   6.129   1.777  -0.485 -0.4778 -0.2357 -1.1052
  539MOL0     H72755   6.221   2.001  -0.438  1.6199 -1.7881  2.0009
  539MOL0     H72756   6.188   2.050  -0.605 -0.5634  0.0030  0.3877
  539MOL0     H72757   6.434   2.003  -0.539 -1.0587  1.5441  0.8484
  539MOL0     H72758   6.374   1.919  -0.683  0.5239 -0.7221  0.3206
  539MOL0     H72759   6.345   1.712  -0.552  1.1744 -0.5078 -0.6065
  539MOL0     H72760   6.511   1.772  -0.536 -0.1834 -0.4010 -2.4253
  539MOL0     H72761   6.337   1.742  -0.144 -2.2008 -1.9189 -0.7970
  539MOL0     H72762   6.078   1.880  -0.318 -0.4924 -1.2107 -0.1476
  539MOL0     H72763   5.941   1.875   0.007 -0.5790  1.2546 -0.4926
  539MOL0     H72764   6.083   1.854  -0.096 -1.5744 -2.8670  0.0410
  539MOL0     H72765   6.040   2.018  -0.022 -0.8214  1.5874 -2.3965
  540MOL0     O72766   4.741   1.233   0.357  0.2252  0.0346  0.3827
  540MOL0     C72767   4.764   1.139   0.274  0.0939  0.2250 -0.0632
  540MOL0     O72768   4.891   1.099   0.236 -0.3923 -0.4165  0.6605
  540MOL0     C72769   4.992   1.178   0.296 -0.1792 -0.6724  0.6250
  540MOL0     C72770   5.020   1.302   0.236 -0.3443 -0.2313  0.9841
  540MOL0     C72771   5.124   1.385   0.281 -0.2076  0.8205  0.2967
  540MOL0     C72772   5.205   1.356   0.386 -0.0173 -0.0540 -0.5459
  540MOL0     O72773   5.307   1.440   0.418  0.2774 -0.5200  0.2743
  540MOL0     C72774   5.444   1.404   0.386 -0.2507  0.1012 -0.1616
  540MOL0     C72775   5.516   1.425   0.529 -0.3719  0.6295  0.3824
  540MOL0     C72776   5.539   1.579   0.566 -0.1516  0.4747  0.4953
  540MOL0     C72777   5.603   1.593   0.699 -0.1677 -0.0876  0.4477
  540MOL0     C72778   5.644   1.747   0.710 -0.1229  0.0211 -0.3714
  540MOL0     C72779   5.712   1.791   0.841 -1.3149 -0.6982 -1.1684
  540MOL0     C72780   5.866   1.752   0.854  0.1907 -0.0767  0.7358
  540MOL0     C72781   5.931   1.796   0.982  1.0524  0.1920 -0.1152
  540MOL0     N72782   5.973   1.691   1.080 -0.1483 -0.2508 -0.5583
  540MOL0     C72783   6.046   1.576   1.060 -0.1264 -0.0019 -0.3268
  540MOL0     C72784   6.038   1.507   1.177 -0.0694 -0.2078  0.2186
  540MOL0     C72785   6.077   1.359   1.189 -0.0925  0.7785  0.0897
  540MOL0     C72786   6.214   1.331   1.264 -0.3058  0.4366  0.6237
  540MOL0     C72787   6.325   1.373   1.174  0.2663  0.7897  0.8742
  540MOL0     C72788   6.465   1.383   1.235 -0.2489  0.4554  0.4151
  540MOL0     O72789   6.561   1.435   1.137  0.2335 -0.3032 -0.1034
  540MOL0     C72790   6.695   1.444   1.180  0.9210  0.6366  0.2730
  540MOL0     C72791   6.789   1.509   1.091  0.4115  0.2513 -1.1149
  540MOL0     C72792   6.925   1.522   1.130  0.8197 -0.0150  0.6013
  540MOL0     C72793   6.970   1.489   1.251  0.1661  0.3816 -1.7607
  540MOL0     C72794   7.106   1.519   1.305 -0.4871 -0.5145 -0.4087
  540MOL0     O72795   7.202   1.567   1.216 -0.2922  0.1162  0.4302
  540MOL0     C72796   7.329   1.596   1.252 -0.5867  0.7001  0.4637
  540MOL0     C72797   7.364   1.672   1.363 -0.0501 -0.2569 -0.2551
  540MOL0     C72798   7.496   1.699   1.396 -0.5928 -0.0971  0.0641
  540MOL0     C72799   7.598   1.659   1.309 -0.1448 -0.6207 -0.0535
  540MOL0     O72800   7.728   1.665   1.349 -0.7458  0.5505  1.3790
  540MOL0     C72801   7.757   1.650   1.485  0.8039 -0.2141 -0.5554
  540MOL0     C72802   7.905   1.635   1.510  0.5520  0.4629  0.4042
  540MOL0     C72803   7.983   1.763   1.476  0.5484  0.1268  0.1501
  540MOL0     C72804   8.132   1.744   1.512  0.5546 -0.2803 -0.5579
  540MOL0     C72805   8.206   1.881   1.488 -0.1864  2.0986 -1.0174
  540MOL0     C72806   8.353   1.867   1.536  0.5347 -0.2505  0.2328
  540MOL0     C72807   8.364   1.819   1.684  0.4688 -0.8578  0.1302
  540MOL0     C72808   8.497   1.866   1.741 -0.5203  1.1961 -0.4401
  540MOL0    Cl72809   8.507   2.042   1.770 -0.3030  0.2460  0.2575
  540MOL0     C72810   7.569   1.597   1.187 -0.3466 -0.8483  0.4911
  540MOL0     C72811   7.431   1.567   1.163 -0.0764 -0.2253 -0.2093
  540MOL0     O72812   7.113   1.536   1.428 -1.0333  0.6023  0.3792
  540MOL0     C72813   6.881   1.418   1.339 -0.0275 -0.7195  0.4292
  540MOL0     C72814   6.748   1.394   1.301  0.0822 -0.7825  0.1521
  540MOL0     N72815   5.974   1.592   1.270  0.3657  0.5116  0.3668
  540MOL0     N72816   5.935   1.700   1.207 -0.6491  0.4745 -0.1169
  540MOL0     C72817   5.188   1.228   0.454  0.2599 -0.4310  0.0257
  540MOL0     C72818   5.079   1.142   0.404 -0.5586 -0.1704  0.6108
  540MOL0     C72819   4.653   1.078   0.187  0.3849  1.0827 -0.1264
  540MOL0     C72820   4.689   0.968   0.116  0.3591  0.2231  0.0538
  540MOL0     C72821   4.602   0.900   0.029 -0.0008  0.7080 -1.2566
  540MOL0     C72822   4.467   0.940   0.017 -0.3248  0.7689 -0.4033
  540MOL0     O72823   4.370   0.880  -0.060 -0.3310  0.1276  0.1906
  540MOL0     C72824   4.401   0.797  -0.169 -0.1876 -0.2471 -0.7117
  540MOL0     C72825   4.283   0.807  -0.273  0.6377 -0.3697 -0.0378
  540MOL0     C72826   4.164   0.742  -0.220  0.0201 -0.1158 -0.7081
  540MOL0     C72827   4.051   0.757  -0.315  0.1287  1.2012 -0.2030
  540MOL0     C72828   4.020   0.886  -0.373  0.0148 -0.1355 -0.1035
  540MOL0     C72829   3.994   0.990  -0.428  0.0960  0.7823  0.2002
  540MOL0     C72830   4.430   1.049   0.101  0.2413 -0.2366  0.0453
  540MOL0     C72831   4.515   1.113   0.185  0.0491  0.5014  0.2908
  540MOL0     C72832   4.464   1.234   0.268  0.4658 -0.2611  0.4405
  540MOL0     H72833   4.949   1.340   0.163  1.3593 -1.3693 -1.3856
  540MOL0     H72834   5.131   1.483   0.234 -1.4599  0.7728 -0.0416
  540MOL0     H72835   5.436   1.298   0.361 -0.7805 -0.5772  2.4931
  540MOL0     H72836   5.490   1.466   0.310  0.3537  0.7055  0.6787
  540MOL0     H72837   5.616   1.381   0.542 -0.2747  0.4822 -0.7899
  540MOL0     H72838   5.452   1.377   0.603 -1.7294  3.9356  1.5561
  540MOL0     H72839   5.442   1.631   0.556  0.2501  1.2469  0.5082
  540MOL0     H72840   5.602   1.623   0.489  2.9509 -3.4712  0.5175
  540MOL0     H72841   5.529   1.575   0.777  0.8845  1.7516  1.9631
  540MOL0     H72842   5.689   1.525   0.704 -0.0010  0.0514 -0.3814
  540MOL0     H72843   5.719   1.766   0.632  1.1214 -0.9337  0.5474
  540MOL0     H72844   5.554   1.802   0.681  0.0343  0.1295 -0.6531
  540MOL0     H72845   5.702   1.899   0.826 -0.3298 -0.2515  0.9078
  540MOL0     H72846   5.659   1.768   0.934 -0.1401  3.4526  0.7817
  540MOL0     H72847   5.919   1.784   0.764  2.4673 -0.7046  1.7961
  540MOL0     H72848   5.867   1.643   0.857 -1.7405 -0.1569  0.1423
  540MOL0     H72849   6.019   1.853   0.950 -0.0944  1.4069 -1.2220
  540MOL0     H72850   5.859   1.861   1.032  0.2672 -1.2420  0.6718
  540MOL0     H72851   6.101   1.531   0.978 -0.9610 -0.4013 -0.6886
  540MOL0     H72852   6.003   1.306   1.249  0.8644 -1.0899 -0.2987
  540MOL0     H72853   6.086   1.305   1.094  4.2272 -1.6136  1.5519
  540MOL0     H72854   6.227   1.387   1.357 -0.2714 -0.0562  0.9195
  540MOL0     H72855   6.222   1.223   1.279  1.8185  0.1640 -1.6736
  540MOL0     H72856   6.299   1.471   1.133  1.8402  2.2729  3.1805
  540MOL0     H72857   6.323   1.296   1.097 -2.2106  0.6482  0.9800
  540MOL0     H72858   6.496   1.283   1.265  0.2102  1.1611  2.4226
  540MOL0     H72859   6.465   1.449   1.322  0.3270 -0.5077  1.1589
  540MOL0     H72860   6.766   1.548   0.992  0.3732  4.0487  0.2257
  540MOL0     H72861   6.987   1.565   1.053 -1.2298 -3.4349 -3.3503
  540MOL0     H72862   7.286   1.703   1.432  0.0435 -0.2096 -0.1698
  540MOL0     H72863   7.508   1.756   1.488  0.3433 -0.4088  0.1379
  540MOL0     H72864   7.723   1.735   1.545  3.5364 -0.2905  1.2678
  540MOL0     H72865   7.709   1.563   1.530 -0.5879  1.2521  0.9372
  540MOL0     H72866   7.919   1.604   1.614  0.1033  1.9046  0.9185
  540MOL0     H72867   7.934   1.561   1.435 -3.1067 -1.3504  0.5533
  540MOL0     H72868   7.966   1.796   1.373 -0.8481  3.4149  1.3065
  540MOL0     H72869   7.945   1.847   1.535 -0.8141 -1.1672  1.2262
  540MOL0     H72870   8.173   1.677   1.436 -0.6028  0.7544 -2.1745
  540MOL0     H72871   8.142   1.704   1.613 -1.4628 -3.0478 -1.3246
  540MOL0     H72872   8.158   1.957   1.550 -0.3962  1.0610  0.1334
  540MOL0     H72873   8.205   1.903   1.381 -1.5582 -1.0683 -1.7404
  540MOL0     H72874   8.408   1.795   1.475  0.7139  0.7719 -0.8492
  540MOL0     H72875   8.408   1.960   1.519 -2.1204  0.8232 -4.2743
  540MOL0     H72876   8.330   1.715   1.693 -4.6094  0.4148 -1.1755
  540MOL0     H72877   8.285   1.861   1.746  0.1663 -0.6491 -0.3856
  540MOL0     H72878   8.519   1.805   1.829 -2.7430 -2.2037 -2.0197
  540MOL0     H72879   8.572   1.846   1.664 -2.2447  1.4884 -2.2816
  540MOL0     H72880   7.642   1.566   1.113 -2.1256 -0.3901 -1.5618
  540MOL0     H72881   7.394   1.509   1.079  2.4860  0.8789 -2.2505
  540MOL0     H72882   6.920   1.389   1.437  2.1100 -1.0206 -0.4621
  540MOL0     H72883   6.684   1.353   1.379 -0.3015  0.0711  0.2968
  540MOL0     H72884   5.262   1.206   0.530  1.8965 -0.4759 -1.5218
  540MOL0     H72885   5.100   1.037   0.417  0.0272 -0.4921 -2.1767
  540MOL0     H72886   4.793   0.937   0.116  0.4721  0.5593  1.3168
  540MOL0     H72887   4.643   0.818  -0.028  0.2745 -0.0420 -0.0097
  540MOL0     H72888   4.420   0.696  -0.130 -0.4517 -0.4096 -1.0020
  540MOL0     H72889   4.490   0.838  -0.216  0.7171  0.8043  1.7599
  540MOL0     H72890   4.309   0.759  -0.367 -0.0792 -0.6277 -0.1122
  540MOL0     H72891   4.275   0.915  -0.283 -2.1547 -0.4622  0.2714
  540MOL0     H72892   4.147   0.781  -0.119  2.1641 -0.8400 -0.0065
  540MOL0     H72893   4.187   0.635  -0.214 -3.0562 -1.0210 -2.7664
  540MOL0     H72894   4.080   0.693  -0.399  0.5015  0.6528  0.3407
  540MOL0     H72895   3.956   0.723  -0.274 -1.6311  1.8268 -3.4186
  540MOL0     H72896   3.976   1.075  -0.490 -2.0418  0.2681  0.0429
  540MOL0     H72897   4.327   1.082   0.099 -0.1476 -1.3855 -1.9367
  540MOL0     H72898   4.355   1.237   0.272  0.5203  1.2722  1.8048
  540MOL0     H72899   4.497   1.222   0.372  1.5696  0.1086  0.1504
  540MOL0     H72900   4.499   1.328   0.225 -0.4699 -0.4490 -0.7952
  541MOL0     O72901   4.626   8.755  10.513  0.3449  0.0659  0.3132
  541MOL0     C72902   4.521   8.780  10.575  0.3794  0.0102 -0.4281
  541MOL0     O72903   4.506   8.767  10.709 -0.0324  0.5488  0.2145
  541MOL0     C72904   4.624   8.744  10.779  0.3614 -0.2613 -0.1113
  541MOL0     C72905   4.680   8.842  10.846 -0.6264 -0.1700 -0.3688
  541MOL0     C72906   4.788   8.823  10.934 -0.3825 -0.5352 -0.0085
  541MOL0     C72907   4.851   8.697  10.934 -0.2865 -0.0055 -0.4019
  541MOL0     O72908   4.959   8.692  11.018  0.0551 -0.1708  0.2567
  541MOL0     C72909   5.042   8.580  11.039  0.4240 -0.1559 -0.4830
  541MOL0     C72910   5.141   8.604  11.155 -0.3388  1.0457  0.7180
  541MOL0     C72911   5.256   8.695  11.096 -0.2438  0.1666 -1.1714
  541MOL0     C72912   5.341   8.756  11.212 -0.1609 -0.4097  0.1268
  541MOL0     C72913   5.443   8.854  11.161 -0.5529 -0.1728 -0.4371
  541MOL0     C72914   5.496   8.952  11.263  0.2977 -0.4023  0.7784
  541MOL0     C72915   5.571   8.882  11.376  0.0039 -0.4535  0.2899
  541MOL0     C72916   5.601   8.993  11.484  0.1288  0.4015  0.4954
  541MOL0     N72917   5.669   9.101  11.425  0.0005 -0.8294 -0.6902
  541MOL0     C72918   5.614   9.219  11.385 -0.0023 -0.6532  0.3190
  541MOL0     C72919   5.717   9.306  11.361  0.8353  0.0565  0.1179
  541MOL0     C72920   5.692   9.449  11.325 -0.7304 -0.2417  0.8747
  541MOL0     C72921   5.846   9.495  11.284  0.3965 -0.6174 -0.1736
  541MOL0     C72922   5.832   9.638  11.236 -0.0085  0.4424 -0.1451
  541MOL0     C72923   5.963   9.679  11.179 -0.4610 -0.6440  0.3584
  541MOL0     O72924   6.062   9.705  11.278  0.4380 -0.1902 -0.7074
  541MOL0     C72925   6.188   9.726  11.233  0.4751  0.3148 -0.5158
  541MOL0     C72926   6.225   9.717  11.098  0.2810 -0.3590  0.7973
  541MOL0     C72927   6.350   9.753  11.052  0.3223 -0.3184 -0.3077
  541MOL0     C72928   6.444   9.802  11.143 -0.4030  0.1121  0.3487
  541MOL0     C72929   6.581   9.830  11.087 -0.3975 -0.9710 -0.3572
  541MOL0     O72930   6.647   9.934  11.139  0.7741  0.8203 -0.1672
  541MOL0     C72931   6.781   9.945  11.128  0.2807  0.5360  0.8390
  541MOL0     C72932   6.873   9.840  11.111 -0.2279  0.1002  0.1303
  541MOL0     C72933   7.015   9.862  11.113 -0.3491 -1.0681 -0.8162
  541MOL0     C72934   7.066   9.992  11.109 -0.5491  0.3929  0.5992
  541MOL0     O72935   7.197  10.006  11.106 -0.2352  0.2649 -0.1324
  541MOL0     C72936   7.272  10.123  11.143  0.0288 -1.0689 -0.8244
  541MOL0     C72937   7.367  10.100  11.263  0.0778  0.5132 -0.0516
  541MOL0     C72938   7.481  10.000  11.230  0.4787  0.2866 -0.8960
  541MOL0     C72939   7.597  10.000  11.330  0.0628  0.7215 -0.2597
  541MOL0     C72940   7.685   9.875  11.319  0.7029 -0.9679  0.6380
  541MOL0     C72941   7.786   9.859  11.434 -0.9431 -0.2037 -0.4764
  541MOL0     C72942   7.885   9.755  11.398  0.2444  0.6019 -0.2926
  541MOL0     C72943   7.995   9.722  11.504  0.2077 -0.7530  0.3076
  541MOL0    Cl72944   8.150   9.819  11.473  0.0433  0.4293 -0.0140
  541MOL0     C72945   6.969  10.097  11.109 -0.1615  0.3605  0.5511
  541MOL0     C72946   6.835  10.072  11.126  0.5595  0.4846 -0.0656
  541MOL0     O72947   6.619   9.757  10.991  0.4918 -0.7267 -0.4430
  541MOL0     C72948   6.411   9.816  11.280  0.9755 -0.3526  0.3318
  541MOL0     C72949   6.286   9.782  11.324  1.1078  0.2834  0.9733
  541MOL0     N72950   5.837   9.237  11.372  0.0708  0.6252  0.9903
  541MOL0     N72951   5.807   9.121  11.414  0.6395  0.2081 -0.2594
  541MOL0     C72952   4.800   8.587  10.856 -0.7902  0.1843  0.0995
  541MOL0     C72953   4.689   8.622  10.772  0.2034  0.8885 -0.1541
  541MOL0     C72954   4.396   8.828  10.512  0.4078  0.1302 -0.0833
  541MOL0     C72955   4.274   8.809  10.577  0.3472  0.2627 -0.5807
  541MOL0     C72956   4.152   8.831  10.515  0.2214  0.0404  0.2703
  541MOL0     C72957   4.145   8.891  10.388 -1.2749 -0.4086  0.7877
  541MOL0     O72958   4.032   8.931  10.312 -0.7426  0.9537  0.0615
  541MOL0     C72959   3.909   8.949  10.380 -0.8712 -0.2483  0.5725
  541MOL0     C72960   3.796   8.986  10.281  0.1550  0.4838 -0.4465
  541MOL0     C72961   3.665   9.020  10.365  0.4686 -0.5435  1.0778
  541MOL0     C72962   3.554   9.070  10.276  0.2564 -0.1068  0.1838
  541MOL0     C72963   3.427   9.099  10.345 -0.1125 -0.4127 -0.1774
  541MOL0     C72964   3.344   9.127  10.425 -0.1020 -0.2338  0.0338
  541MOL0     C72965   4.264   8.924  10.327  0.3146 -0.3797 -0.9466
  541MOL0     C72966   4.389   8.891  10.382 -0.8838  0.3866 -0.0755
  541MOL0     C72967   4.514   8.923  10.300  0.3043 -1.1668  0.7478
  541MOL0     H72968   4.635   8.941  10.841 -0.5235 -0.1781 -1.8418
  541MOL0     H72969   4.831   8.905  10.991  0.3783 -0.7636 -0.2426
  541MOL0     H72970   4.985   8.489  11.064 -2.1685  1.6044  0.4300
  541MOL0     H72971   5.092   8.562  10.943 -0.5267  0.9586 -1.2138
  541MOL0     H72972   5.173   8.503  11.181 -3.2752 -0.2537 -0.2991
  541MOL0     H72973   5.099   8.647  11.246 -0.7316 -0.6707  1.3777
  541MOL0     H72974   5.207   8.779  11.045  0.1816  2.0135  1.2242
  541MOL0     H72975   5.320   8.640  11.027  0.8828  1.3511 -1.1159
  541MOL0     H72976   5.276   8.801  11.287 -0.8650  0.7516 -1.1331
  541MOL0     H72977   5.401   8.672  11.249  0.9987 -1.3878 -3.5190
  541MOL0     H72978   5.532   8.806  11.119 -0.8598  1.6938 -3.5442
  541MOL0     H72979   5.392   8.915  11.085 -3.3196 -0.4560  1.0603
  541MOL0     H72980   5.570   9.002  11.200  2.0318 -1.3490  1.9830
  541MOL0     H72981   5.421   9.027  11.290 -1.5738 -1.8251 -0.2571
  541MOL0     H72982   5.658   8.830  11.334  1.5652  1.0921  1.4381
  541MOL0     H72983   5.500   8.815  11.425 -1.5799  0.4808 -0.6670
  541MOL0     H72984   5.509   9.040  11.519  0.3033 -0.1418  1.7318
  541MOL0     H72985   5.658   8.953  11.568  1.8350 -1.9498 -1.6366
  541MOL0     H72986   5.509   9.243  11.372  0.2495 -0.5133 -1.7686
  541MOL0     H72987   5.628   9.476  11.241  0.2813  2.1228  0.7885
  541MOL0     H72988   5.663   9.504  11.415  1.0365 -0.4796  1.6201
  541MOL0     H72989   5.913   9.494  11.370  1.7765  0.8971 -1.1781
  541MOL0     H72990   5.884   9.429  11.205 -1.9637  0.8417 -2.6909
  541MOL0     H72991   5.798   9.706  11.315 -1.5405 -0.5983  0.1463
  541MOL0     H72992   5.750   9.635  11.162 -0.0161  1.3416 -0.1780
  541MOL0     H72993   5.955   9.779  11.135  2.7134  0.9274  2.8969
  541MOL0     H72994   5.993   9.611  11.099  1.9220 -0.6616  1.1878
  541MOL0     H72995   6.166   9.674  11.017  2.3303 -1.7209 -0.0606
  541MOL0     H72996   6.395   9.745  10.953  2.0513 -0.8012  0.4865
  541MOL0     H72997   6.843   9.737  11.129 -2.7530  0.7240 -0.1958
  541MOL0     H72998   7.075   9.772  11.097 -0.3090 -0.6785 -3.0420
  541MOL0     H72999   7.332  10.160  11.059 -2.5654  1.1447 -1.8451
  541MOL0     H73000   7.208  10.207  11.170  1.2251  0.5304 -2.6696
  541MOL0     H73001   7.408  10.200  11.282 -2.5510  2.1346 -2.1117
  541MOL0     H73002   7.305  10.072  11.348  2.4146 -0.6746  1.3540
  541MOL0     H73003   7.445   9.897  11.242 -0.5232  0.8170  1.1037
  541MOL0     H73004   7.519  10.015  11.129  0.2825 -1.1653 -1.2146
  541MOL0     H73005   7.555  10.011  11.431  0.3413  2.7885 -0.3189
  541MOL0     H73006   7.650  10.095  11.320  2.2507 -0.4731 -0.4633
  541MOL0     H73007   7.736   9.888  11.223  1.6716 -0.6289  1.1822
  541MOL0     H73008   7.621   9.786  11.321 -1.6198  0.6300  1.4573
  541MOL0     H73009   7.829   9.953  11.469  0.0546 -1.1414  0.9019
  541MOL0     H73010   7.726   9.831  11.521  0.7478  0.9693  1.1356
  541MOL0     H73011   7.933   9.788  11.305  2.1434  2.1107  1.1307
  541MOL0     H73012   7.832   9.666  11.363  1.0122  0.2265 -0.5148
  541MOL0     H73013   7.966   9.739  11.608  2.1569 -2.4937  1.2135
  541MOL0     H73014   8.016   9.615  11.509  3.1691 -0.2648  0.0094
  541MOL0     H73015   7.004  10.199  11.092 -1.0971  0.8411  1.4242
  541MOL0     H73016   6.758  10.147  11.140 -0.6177 -0.6949 -0.0859
  541MOL0     H73017   6.483   9.857  11.351  1.6645 -2.4312  0.8909
  541MOL0     H73018   6.259   9.788  11.429 -2.0503  2.6325  0.1734
  541MOL0     H73019   4.845   8.489  10.850 -1.9152 -0.2527 -1.9638
  541MOL0     H73020   4.644   8.546  10.709 -0.7114  1.9445 -0.8130
  541MOL0     H73021   4.271   8.764  10.676  1.7069 -0.4641 -0.8373
  541MOL0     H73022   4.067   8.807  10.578 -0.0948  0.4599  0.0145
  541MOL0     H73023   3.913   9.026  10.457  0.2404 -0.3619  0.6508
  541MOL0     H73024   3.881   8.851  10.420  1.5411 -1.9732 -1.6334
  541MOL0     H73025   3.793   8.900  10.213  1.2007  1.5698 -1.9448
  541MOL0     H73026   3.821   9.072  10.218 -1.0094  2.7817  2.0471
  541MOL0     H73027   3.699   9.095  10.437  1.4078  0.7667 -0.6565
  541MOL0     H73028   3.632   8.929  10.417  0.2774  0.0127  1.9421
  541MOL0     H73029   3.592   9.157  10.221 -0.5869  0.3204  0.2566
  541MOL0     H73030   3.530   8.993  10.202  1.7038  3.1031 -4.0528
  541MOL0     H73031   3.279   9.151  10.507 -0.3102 -0.6976  0.0064
  541MOL0     H73032   4.266   8.965  10.227 -0.6884 -0.6624 -1.0944
  541MOL0     H73033   4.582   8.838  10.287  0.9137 -0.7863  1.4168
  541MOL0     H73034   4.488   8.963  10.201 -1.2400 -0.8389  1.2534
  541MOL0     H73035   4.568   8.996  10.361  2.0749 -1.1728 -0.7138
  542MOL0     O73036   4.682   1.319  11.241 -0.2373 -0.2865 -0.4110
  542MOL0     C73037   4.675   1.273  11.126 -0.4502  0.7803 -1.1751
  542MOL0     O73038   4.781   1.192  11.072  0.4836  0.7978  0.0849
  542MOL0     C73039   4.891   1.170  11.151  0.1681  0.1342  0.9004
  542MOL0     C73040   4.979   1.277  11.167 -1.4134 -0.1228  0.0599
  542MOL0     C73041   5.105   1.258  11.226 -0.7095 -0.0631  0.0262
  542MOL0     C73042   5.130   1.127  11.277 -0.2104 -0.8529  0.2455
  542MOL0     O73043   5.248   1.110  11.332 -0.2533  0.3008 -0.3828
  542MOL0     C73044   5.275   0.996  11.413  0.8971  0.2147 -0.5034
  542MOL0     C73045   5.380   1.029  11.521 -0.8444 -0.2088  0.3602
  542MOL0     C73046   5.407   0.926  11.628  0.1993  0.2128 -0.1749
  542MOL0     C73047   5.522   0.975  11.717  0.6629 -0.1722 -0.4468
  542MOL0     C73048   5.545   0.873  11.826 -0.2118  1.5858 -0.4143
  542MOL0     C73049   5.672   0.896  11.906 -0.1059 -0.3596  0.1567
  542MOL0     C73050   5.669   1.035  11.980  0.0129  0.1798 -0.2012
  542MOL0     C73051   5.784   1.019  12.089  0.6359 -0.3909 -0.5194
  542MOL0     N73052   5.863   1.150  12.085 -0.2069  0.2052 -0.8229
  542MOL0     C73053   5.929   1.201  11.979  0.1062 -0.5652  0.1426
  542MOL0     C73054   5.997   1.306  12.029  0.8283  0.2993  0.1691
  542MOL0     C73055   6.082   1.408  11.958 -0.5040  0.3424 -0.7882
  542MOL0     C73056   6.219   1.420  12.031  0.2374 -0.5107 -0.8523
  542MOL0     C73057   6.307   1.533  11.971  0.0508  0.3794 -0.3408
  542MOL0     C73058   6.285   1.664  12.047 -0.3862 -0.3806  1.2721
  542MOL0     O73059   6.352   1.779  11.988  0.0322  0.6969  0.0410
  542MOL0     C73060   6.490   1.800  12.017  0.1138  0.7452  0.0935
  542MOL0     C73061   6.559   1.761  12.140  0.1875  0.0781  0.3406
  542MOL0     C73062   6.690   1.807  12.153 -0.1367 -0.7872 -0.7003
  542MOL0     C73063   6.756   1.895  12.063  1.2321  0.2019  0.8800
  542MOL0     C73064   6.887   1.949  12.079  0.0966  0.0257 -0.2546
  542MOL0     O73065   6.968   1.891  12.165 -0.2034  0.3058  0.5584
  542MOL0     C73066   7.082   1.947  12.209  0.3555 -0.0790 -1.2900
  542MOL0     C73067   7.155   1.859  12.289 -0.1225 -0.7768  1.0100
  542MOL0     C73068   7.281   1.890  12.338  0.1486 -0.3636  0.3287
  542MOL0     C73069   7.344   2.008  12.310  0.1835 -1.1939  0.0311
  542MOL0     O73070   7.472   2.043  12.344  0.2059  0.4340  0.2266
  542MOL0     C73071   7.573   1.930  12.368 -0.0263 -0.1106  0.0890
  542MOL0     C73072   7.706   2.010  12.382 -0.2680  1.1992  0.4235
  542MOL0     C73073   7.828   1.916  12.408  0.6852 -0.1345  0.6087
  542MOL0     C73074   7.960   1.988  12.386  0.0369  0.6579  0.0078
  542MOL0     C73075   8.085   1.916  12.397  0.6238  0.8069 -0.3571
  542MOL0     C73076   8.220   1.979  12.364  0.2431 -0.2392 -0.5271
  542MOL0     C73077   8.225   2.063  12.233  0.5508  0.5114  1.5679
  542MOL0     C73078   8.354   2.148  12.218  0.0623  0.0754 -0.9781
  542MOL0    Cl73079   8.496   2.031  12.207 -0.2168  0.5117  0.2784
  542MOL0     C73080   7.274   2.097  12.221 -0.7166 -0.7703 -1.1134
  542MOL0     C73081   7.150   2.070  12.171 -0.0806 -0.1985 -0.5807
  542MOL0     O73082   6.913   2.048  12.006  0.1927  0.0490 -0.1230
  542MOL0     C73083   6.671   1.941  11.957 -0.1991 -0.2407  0.4728
  542MOL0     C73084   6.553   1.885  11.927  0.5190 -0.0039 -1.0269
  542MOL0     N73085   5.960   1.333  12.156  0.5431  0.3745  0.2413
  542MOL0     N73086   5.884   1.230  12.195  0.5093  0.2619  0.6215
  542MOL0     C73087   5.038   1.026  11.268 -0.1618  0.5563 -0.7359
  542MOL0     C73088   4.923   1.051  11.194  1.3092  0.2156 -0.3378
  542MOL0     C73089   4.559   1.312  11.048  0.8357  0.2222 -0.5862
  542MOL0     C73090   4.526   1.456  11.043 -0.8480 -0.1652 -0.1939
  542MOL0     C73091   4.437   1.503  10.950  0.4259 -0.8734  0.7651
  542MOL0     C73092   4.357   1.416  10.876 -0.0354 -0.3123  1.0461
  542MOL0     O73093   4.271   1.465  10.783 -0.1781 -0.5031 -0.1728
  542MOL0     C73094   4.153   1.532  10.842 -0.6453  0.7989 -0.5897
  542MOL0     C73095   4.018   1.491  10.770  0.6728  0.2958 -0.6096
  542MOL0     C73096   3.998   1.337  10.749 -0.1377  0.7529  0.2521
  542MOL0     C73097   3.877   1.311  10.662 -0.8823  0.3408 -0.4813
  542MOL0     C73098   3.784   1.206  10.710  0.2913  0.3349  1.1638
  542MOL0     C73099   3.714   1.111  10.740  0.1401 -0.1270 -0.2191
  542MOL0     C73100   4.372   1.277  10.887 -0.3738 -0.3553 -0.8531
  542MOL0     C73101   4.479   1.222  10.970  0.5532  0.8135  0.3647
  542MOL0     C73102   4.494   1.073  10.978 -0.3773 -1.3749  0.2835
  542MOL0     H73103   4.962   1.376  11.127  3.3554  2.1614  2.8249
  542MOL0     H73104   5.177   1.337  11.237  1.7815 -2.1299 -0.5103
  542MOL0     H73105   5.187   0.964  11.470  0.7390 -0.6105 -1.1767
  542MOL0     H73106   5.311   0.919  11.343  2.6646  1.7184 -1.3406
  542MOL0     H73107   5.347   1.119  11.573 -1.2964  1.6161 -2.8173
  542MOL0     H73108   5.465   1.039  11.452 -1.8220 -2.4203 -1.3098
  542MOL0     H73109   5.421   0.826  11.587 -0.6446 -0.5933  1.3985
  542MOL0     H73110   5.324   0.920  11.699  2.9513  1.0070  3.4363
  542MOL0     H73111   5.610   0.991  11.654  4.1571 -1.3188  3.6942
  542MOL0     H73112   5.496   1.069  11.767  2.5490 -0.4683  1.1660
  542MOL0     H73113   5.464   0.877  11.899  1.0964  0.4189  1.1762
  542MOL0     H73114   5.547   0.773  11.784  0.6650  0.8186  1.3506
  542MOL0     H73115   5.682   0.819  11.984  0.7031 -0.0564  0.3669
  542MOL0     H73116   5.763   0.898  11.845  1.0799  4.5704  1.6893
  542MOL0     H73117   5.574   1.064  12.027  0.3109 -1.0529  1.2508
  542MOL0     H73118   5.693   1.107  11.901  2.0704 -0.3441 -0.1064
  542MOL0     H73119   5.743   1.011  12.190  0.5474  5.6179  0.3059
  542MOL0     H73120   5.850   0.937  12.060  0.0366 -0.6124 -1.3032
  542MOL0     H73121   5.927   1.162  11.878 -0.3574  0.5359 -0.2827
  542MOL0     H73122   6.094   1.381  11.853  2.6054  0.4826 -0.5559
  542MOL0     H73123   6.041   1.509  11.955 -0.7168  0.3328 -5.2500
  542MOL0     H73124   6.205   1.441  12.138 -2.5539 -0.2978 -1.1908
  542MOL0     H73125   6.276   1.326  12.033 -0.0345 -0.7451  2.7156
  542MOL0     H73126   6.282   1.523  11.865  0.1813 -1.7379 -0.2133
  542MOL0     H73127   6.411   1.510  11.998 -0.1660  1.0666  1.1529
  542MOL0     H73128   6.313   1.650  12.152 -0.5354 -2.3226  1.1016
  542MOL0     H73129   6.177   1.679  12.042 -0.8047 -2.4495  2.5619
  542MOL0     H73130   6.510   1.696  12.212 -3.0491  1.3306 -0.5215
  542MOL0     H73131   6.738   1.785  12.248 -2.3521  1.1580  0.9877
  542MOL0     H73132   7.108   1.768  12.326  1.4589 -0.9305  2.7656
  542MOL0     H73133   7.323   1.818  12.408  0.2758  2.1855  3.0449
  542MOL0     H73134   7.555   1.866  12.455 -0.4356 -1.3481 -0.8626
  542MOL0     H73135   7.570   1.856  12.287 -3.0053  0.1106 -0.1125
  542MOL0     H73136   7.730   2.057  12.286 -2.4493  0.1557 -0.6973
  542MOL0     H73137   7.695   2.087  12.459  0.9607  1.1543  0.6609
  542MOL0     H73138   7.840   1.877  12.510  0.3160  0.3591  0.8406
  542MOL0     H73139   7.832   1.825  12.346  3.2116 -0.5916  1.3214
  542MOL0     H73140   7.980   2.072  12.454  0.5014 -0.1109  0.8369
  542MOL0     H73141   7.957   2.025  12.283 -0.3755 -1.2870 -0.7224
  542MOL0     H73142   8.070   1.836  12.323 -1.2253 -0.2188  1.0349
  542MOL0     H73143   8.085   1.862  12.492  1.0563  2.3645  0.5636
  542MOL0     H73144   8.245   2.046  12.446 -3.7753  0.4234  0.3687
  542MOL0     H73145   8.291   1.896  12.352  2.5825  1.7474 -1.1606
  542MOL0     H73146   8.143   2.135  12.242 -0.3000 -0.0199 -1.2101
  542MOL0     H73147   8.204   1.993  12.152 -2.4658  2.6120  0.3591
  542MOL0     H73148   8.340   2.194  12.120  0.5151 -2.9820 -2.6123
  542MOL0     H73149   8.363   2.220  12.299  0.0344  0.5231 -1.3654
  542MOL0     H73150   7.307   2.196  12.191 -2.5909  0.0525 -0.6172
  542MOL0     H73151   7.100   2.143  12.108 -3.1876 -0.8607  0.9284
  542MOL0     H73152   6.712   2.016  11.890 -2.3649  1.2764  0.7514
  542MOL0     H73153   6.497   1.919  11.840  1.6975  0.8677 -1.4643
  542MOL0     H73154   5.056   0.924  11.298  0.7540 -0.5103 -4.3492
  542MOL0     H73155   4.858   0.966  11.178 -1.2411  2.2172 -1.1755
  542MOL0     H73156   4.590   1.518  11.105 -0.6899 -1.2523  0.7477
  542MOL0     H73157   4.420   1.607  10.926 -0.1909 -1.4670 -1.6826
  542MOL0     H73158   4.166   1.640  10.834 -0.8286  0.7364 -2.1668
  542MOL0     H73159   4.150   1.505  10.948  0.4115  0.1933 -0.7065
  542MOL0     H73160   4.011   1.548  10.677  2.0840 -0.6999 -1.3653
  542MOL0     H73161   3.937   1.524  10.836  0.5352 -0.3452 -0.4448
  542MOL0     H73162   3.979   1.298  10.850  1.4333 -0.4193  0.1274
  542MOL0     H73163   4.079   1.278  10.707  0.2765 -0.4761  2.5907
  542MOL0     H73164   3.830   1.408  10.645 -0.4291  0.7166  0.3704
  542MOL0     H73165   3.921   1.283  10.566  2.8410  1.7770  0.6309
  542MOL0     H73166   3.649   1.038  10.784  1.3358  0.3573  2.5858
  542MOL0     H73167   4.306   1.225  10.819 -0.1377 -0.4071 -1.0395
  542MOL0     H73168   4.417   1.035  10.910 -1.7312  4.2208 -1.8670
  542MOL0     H73169   4.594   1.050  10.939  1.2883  0.4922  3.0749
  542MOL0     H73170   4.496   1.037  11.081  3.2298  1.6278  1.4985
  543MOL0     O73171   2.821   5.418   7.078  0.7370  0.0582 -0.2898
  543MOL0     C73172   2.801   5.297   7.093 -0.4569 -0.0015 -0.7089
  543MOL0     O73173   2.906   5.207   7.124  0.7909  0.5515 -0.2551
  543MOL0     C73174   3.041   5.249   7.127 -0.0281  1.0348  0.3667
  543MOL0     C73175   3.128   5.195   7.040 -0.1254 -0.0625  0.3056
  543MOL0     C73176   3.264   5.234   7.033  0.1569  1.0140 -0.3154
  543MOL0     C73177   3.305   5.334   7.125 -0.8131  0.7323  0.5447
  543MOL0     O73178   3.429   5.392   7.110  0.1088  0.1049  0.2096
  543MOL0     C73179   3.499   5.390   6.980  0.3717 -0.2766  0.1659
  543MOL0     C73180   3.626   5.485   6.971  0.7417  0.0216  0.6014
  543MOL0     C73181   3.722   5.459   7.088 -0.0495  0.2089 -0.5509
  543MOL0     C73182   3.806   5.337   7.069 -0.1362  0.6548 -0.2888
  543MOL0     C73183   3.898   5.315   7.189 -1.2258 -0.0449 -0.2577
  543MOL0     C73184   4.009   5.207   7.169  0.0862 -0.0918  0.1261
  543MOL0     C73185   4.076   5.175   7.303  0.0126  0.1082  0.7782
  543MOL0     C73186   4.199   5.096   7.273  0.1943 -0.6197  0.8775
  543MOL0     N73187   4.264   5.042   7.380  0.2907 -0.1389 -0.7211
  543MOL0     C73188   4.209   4.936   7.457  0.1080 -0.1241  0.5034
  543MOL0     C73189   4.281   4.938   7.573  0.5263 -0.0333  0.7838
  543MOL0     C73190   4.248   4.845   7.688  0.0311 -0.1749  0.2157
  543MOL0     C73191   4.341   4.724   7.722 -0.4257  0.4913  0.9812
  543MOL0     C73192   4.462   4.704   7.624  0.2503 -0.6317  0.0289
  543MOL0     C73193   4.549   4.576   7.663 -0.0401  0.2531  0.2320
  543MOL0     O73194   4.640   4.547   7.553  0.6294  0.2359  0.6155
  543MOL0     C73195   4.776   4.565   7.566  0.3288 -0.6026  0.5241
  543MOL0     C73196   4.843   4.513   7.456 -0.1213  0.4954 -0.8039
  543MOL0     C73197   4.980   4.530   7.454 -0.1065  0.3925  0.0564
  543MOL0     C73198   5.042   4.612   7.548 -0.4986 -0.4935  0.2366
  543MOL0     C73199   5.187   4.629   7.545 -0.8612  0.2584  0.9182
  543MOL0     O73200   5.253   4.541   7.462 -0.4746  0.3124  0.3139
  543MOL0     C73201   5.386   4.553   7.441  0.3098  0.0178  0.6436
  543MOL0     C73202   5.451   4.662   7.384 -0.7054 -0.1550 -0.3420
  543MOL0     C73203   5.582   4.660   7.337 -1.0086 -0.4475 -1.1675
  543MOL0     C73204   5.649   4.541   7.338  0.5712 -0.1386 -0.8608
  543MOL0     O73205   5.774   4.514   7.296 -0.2418 -0.3249 -0.0037
  543MOL0     C73206   5.831   4.629   7.226 -0.6267  0.5411 -0.5175
  543MOL0     C73207   5.974   4.601   7.174 -0.4597 -0.0917  0.4227
  543MOL0     C73208   6.036   4.725   7.102 -0.2203 -0.2473  0.9505
  543MOL0     C73209   6.158   4.677   7.031  0.7227 -0.0910  0.1371
  543MOL0     C73210   6.250   4.797   6.993  0.5092 -0.4825 -0.3207
  543MOL0     C73211   6.365   4.756   6.909  0.0009  0.4390  0.5264
  543MOL0     C73212   6.477   4.693   7.002  0.5657  0.0761 -0.3948
  543MOL0     C73213   6.593   4.648   6.911  0.3833  0.1434 -0.5527
  543MOL0    Cl73214   6.725   4.587   7.015  0.6357 -0.1676 -0.6386
  543MOL0     C73215   5.586   4.430   7.407  0.3943 -0.4629  0.1130
  543MOL0     C73216   5.453   4.438   7.454 -0.4013 -0.2401  0.6782
  543MOL0     O73217   5.245   4.719   7.601  0.4815 -1.1328  0.1062
  543MOL0     C73218   4.968   4.644   7.663 -0.7889  0.8495  0.2837
  543MOL0     C73219   4.842   4.628   7.667  0.1185  0.3360  1.1786
  543MOL0     N73220   4.379   5.030   7.562 -0.4188  0.0529 -0.5301
  543MOL0     N73221   4.372   5.095   7.445  0.0625  0.4710  0.0548
  543MOL0     C73222   3.223   5.380   7.223 -0.2348  0.3613 -0.1971
  543MOL0     C73223   3.096   5.338   7.223  0.1279 -0.6147 -0.5548
  543MOL0     C73224   2.663   5.242   7.085 -0.3844  0.8682 -0.1185
  543MOL0     C73225   2.647   5.110   7.140  0.3719 -0.5386  0.2235
  543MOL0     C73226   2.523   5.048   7.130  0.0503 -0.8030 -0.2461
  543MOL0     C73227   2.414   5.116   7.067 -0.1102 -0.0335 -0.7344
  543MOL0     O73228   2.286   5.068   7.058  0.4601  0.7962  0.2917
  543MOL0     C73229   2.273   4.922   7.079  0.4251 -0.0433  0.1974
  543MOL0     C73230   2.137   4.868   7.044  0.2902  0.4347 -0.1645
  543MOL0     C73231   2.126   4.873   6.893 -0.0724 -0.0616  0.0809
  543MOL0     C73232   1.976   4.902   6.836 -0.3691 -0.3087  0.3666
  543MOL0     C73233   1.909   5.023   6.894  0.3768 -0.2605  0.8833
  543MOL0     C73234   1.861   5.121   6.945  0.1811  0.0661  0.3160
  543MOL0     C73235   2.430   5.241   7.017  1.0837 -0.2873 -0.0819
  543MOL0     C73236   2.554   5.310   7.027  0.7212 -0.3455  0.2522
  543MOL0     C73237   2.556   5.449   6.970  0.4730  0.6103  0.0146
  543MOL0     H73238   3.100   5.116   6.971  0.6626  0.2698 -0.4143
  543MOL0     H73239   3.329   5.195   6.955  1.0811 -1.5255  1.5909
  543MOL0     H73240   3.540   5.291   6.961 -3.4402 -2.1598  0.7960
  543MOL0     H73241   3.423   5.413   6.905  0.0515 -1.9612 -0.0463
  543MOL0     H73242   3.595   5.590   6.975 -4.2974 -1.2075  1.0471
  543MOL0     H73243   3.664   5.461   6.872  1.2817  1.3761  0.4638
  543MOL0     H73244   3.661   5.443   7.177 -0.7002 -0.6619 -1.1277
  543MOL0     H73245   3.780   5.550   7.106  0.2492  0.3158 -1.9200
  543MOL0     H73246   3.747   5.245   7.064  0.3562  0.3358 -0.2607
  543MOL0     H73247   3.862   5.354   6.978  0.4939  0.2355  0.0151
  543MOL0     H73248   3.944   5.410   7.218 -0.8274 -0.3904  0.2663
  543MOL0     H73249   3.838   5.278   7.273  0.6430 -0.4197  0.9634
  543MOL0     H73250   3.965   5.122   7.116  1.3069 -0.6065 -0.0933
  543MOL0     H73251   4.090   5.247   7.107 -0.0599 -1.5214 -1.0528
  543MOL0     H73252   4.018   5.111   7.371  1.0669 -1.9812 -0.2178
  543MOL0     H73253   4.102   5.266   7.359  2.9447  0.9224 -1.6649
  543MOL0     H73254   4.168   5.014   7.207 -0.9106  1.2549 -1.0829
  543MOL0     H73255   4.276   5.162   7.233  1.2196 -2.2764  0.0062
  543MOL0     H73256   4.129   4.864   7.443  0.9110 -1.0455  0.5216
  543MOL0     H73257   4.239   4.914   7.773  0.7387  1.5567 -1.0397
  543MOL0     H73258   4.151   4.797   7.679  0.0365 -0.8919  3.0180
  543MOL0     H73259   4.382   4.741   7.822 -1.4152  0.6922  1.3657
  543MOL0     H73260   4.283   4.632   7.728  0.8150 -0.3464  0.5257
  543MOL0     H73261   4.527   4.791   7.638  1.3754 -1.5695  0.8420
  543MOL0     H73262   4.430   4.697   7.520  0.8757  0.9672 -0.3096
  543MOL0     H73263   4.479   4.493   7.676  2.0016 -1.5795 -0.0643
  543MOL0     H73264   4.598   4.587   7.760 -0.5735  1.1776  0.4146
  543MOL0     H73265   4.803   4.459   7.370 -2.8430 -0.1533  0.7603
  543MOL0     H73266   5.032   4.482   7.371 -2.1096 -2.1187  0.1349
  543MOL0     H73267   5.396   4.752   7.359 -0.5861  0.6633  2.0939
  543MOL0     H73268   5.620   4.744   7.280  0.2182 -1.3166 -1.6680
  543MOL0     H73269   5.768   4.643   7.137 -1.3990 -0.2162 -0.0947
  543MOL0     H73270   5.840   4.711   7.298 -0.2809 -0.3018  0.4260
  543MOL0     H73271   6.040   4.575   7.257 -2.1650 -0.7707  1.6091
  543MOL0     H73272   5.970   4.519   7.102  4.2858 -0.0165 -0.2791
  543MOL0     H73273   5.970   4.773   7.030 -1.2625 -2.1245  0.5980
  543MOL0     H73274   6.054   4.800   7.180  3.9945 -1.4777  1.4046
  543MOL0     H73275   6.134   4.629   6.936  1.4345 -1.6681  0.7168
  543MOL0     H73276   6.219   4.609   7.091 -0.9817 -0.7902  1.1359
  543MOL0     H73277   6.285   4.864   7.072  0.8780 -1.5289  0.4260
  543MOL0     H73278   6.184   4.856   6.928  0.1374  1.6003  1.8062
  543MOL0     H73279   6.346   4.686   6.827 -0.5577  0.6320  0.4895
  543MOL0     H73280   6.402   4.850   6.867  1.9368  0.2789  1.7557
  543MOL0     H73281   6.436   4.614   7.066 -2.6469  1.1908 -0.8977
  543MOL0     H73282   6.515   4.774   7.065 -0.2717  0.6373 -0.6056
  543MOL0     H73283   6.570   4.572   6.835  1.5892  1.0345 -1.8595
  543MOL0     H73284   6.622   4.736   6.853 -1.2437 -0.0857 -1.8018
  543MOL0     H73285   5.643   4.338   7.407  0.3371 -0.5047 -0.6095
  543MOL0     H73286   5.409   4.355   7.509  2.9390 -0.9101  2.6212
  543MOL0     H73287   5.024   4.671   7.752  1.8620 -0.0157 -0.9927
  543MOL0     H73288   4.795   4.677   7.751 -1.1932  1.7632 -0.3081
  543MOL0     H73289   3.258   5.462   7.285  0.4173 -0.5724  0.7021
  543MOL0     H73290   3.026   5.374   7.297 -1.4628 -1.1227 -1.7260
  543MOL0     H73291   2.719   5.050   7.195 -0.0588 -1.3433 -0.0684
  543MOL0     H73292   2.495   4.949   7.165 -4.9874 -0.0682 -1.5009
  543MOL0     H73293   2.285   4.908   7.187 -1.0705 -1.0320  0.2701
  543MOL0     H73294   2.354   4.862   7.038  1.8206 -0.2018  2.9551
  543MOL0     H73295   2.060   4.937   7.081  0.0579 -0.1852  0.5208
  543MOL0     H73296   2.126   4.762   7.069 -4.1294  0.4931 -1.0960
  543MOL0     H73297   2.161   4.777   6.854 -2.2255 -0.4280 -1.1147
  543MOL0     H73298   2.197   4.942   6.846  0.9305  0.0133  1.6316
  543MOL0     H73299   1.982   4.924   6.729 -1.9153  0.8779  0.4723
  543MOL0     H73300   1.922   4.808   6.852  4.1213 -3.4495 -0.9760
  543MOL0     H73301   1.804   5.206   6.977  0.3921  0.1853  0.3839
  543MOL0     H73302   2.346   5.295   6.975  0.9554 -2.2667 -2.6206
  543MOL0     H73303   2.458   5.465   6.923  1.1491 -1.0326 -2.1097
  543MOL0     H73304   2.571   5.516   7.055  0.9211  1.2882 -0.5795
  543MOL0     H73305   2.637   5.456   6.897 -1.1751 -3.2230 -2.5256
  544MOL0     O73306   9.067   5.477   3.269 -0.8807 -0.2345 -1.0751
  544MOL0     C73307   9.089   5.484   3.153  0.2907  0.4247  0.5451
  544MOL0     O73308   9.214   5.516   3.100 -0.3173  0.1432 -0.6219
  544MOL0     C73309   9.324   5.508   3.181  0.6780  0.5467  0.0839
  544MOL0     C73310   9.403   5.624   3.204  0.3520  0.1122  0.5632
  544MOL0     C73311   9.508   5.622   3.296  0.5466  0.3187 -0.1193
  544MOL0     C73312   9.544   5.514   3.369 -0.4656  0.3413  2.0930
  544MOL0     O73313   9.647   5.506   3.456 -0.1588 -0.6118 -0.0340
  544MOL0     C73314   9.714   5.629   3.481  0.3558 -0.2597 -1.0817
  544MOL0     C73315   9.814   5.598   3.599  0.4922 -0.0348  0.4294
  544MOL0     C73316   9.936   5.505   3.559  0.3491  0.1548  0.7562
  544MOL0     C73317  10.017   5.452   3.684  0.2301  0.6806 -0.2906
  544MOL0     C73318  10.099   5.335   3.657 -0.6508  0.4230 -0.0654
  544MOL0     C73319  10.195   5.305   3.767  1.1708 -0.1488  1.1711
  544MOL0     C73320  10.294   5.194   3.733 -0.3178 -0.3740  0.1475
  544MOL0     C73321  10.404   5.233   3.643  0.0309  0.2481  0.2424
  544MOL0     N73322  10.531   5.163   3.661 -0.0048  0.4982 -0.7101
  544MOL0     C73323  10.622   5.184   3.761 -0.1207  0.3594 -1.0464
  544MOL0     C73324  10.745   5.149   3.720  0.0318 -0.0049 -0.1312
  544MOL0     C73325  10.878   5.161   3.798  0.1828 -0.3031 -0.3098
  544MOL0     C73326  10.994   5.238   3.719  0.0528 -0.1757  0.1974
  544MOL0     C73327  11.048   5.145   3.613  1.0735  0.2726  0.0212
  544MOL0     C73328  11.184   5.173   3.557 -0.2359 -0.4285  0.2766
  544MOL0     O73329  11.277   5.167   3.665 -0.3880 -0.5321  0.0132
  544MOL0     C73330  11.360   5.053   3.672 -0.7396  0.4269  0.2382
  544MOL0     C73331  11.342   4.960   3.775 -0.4458  0.4477 -0.3955
  544MOL0     C73332  11.436   4.862   3.803 -0.0872  0.3095 -0.1033
  544MOL0     C73333  11.548   4.851   3.726  0.6304  0.3827 -0.3934
  544MOL0     C73334  11.654   4.763   3.761 -0.3804 -0.1883 -0.2865
  544MOL0     O73335  11.791   4.801   3.735 -0.1508  0.2529 -1.0224
  544MOL0     C73336  11.887   4.729   3.805 -0.2707 -0.0977  0.1736
  544MOL0     C73337  11.994   4.692   3.721 -0.6969 -0.0718 -1.4564
  544MOL0     C73338  12.099   4.617   3.777  0.3358 -0.0616  0.1604
  544MOL0     C73339  12.105   4.597   3.914  0.3468  0.3161 -0.1752
  544MOL0     O73340  12.218   4.539   3.966  0.7306 -0.3734 -0.1700
  544MOL0     C73341  12.256   4.549   4.107 -0.2866 -0.3539  1.1406
  544MOL0     C73342  12.409   4.548   4.137 -0.0685  0.4918 -0.2335
  544MOL0     C73343  12.474   4.415   4.099 -0.5678 -0.0070 -0.4696
  544MOL0     C73344  12.536   4.424   3.961  0.6764  0.7734  0.5395
  544MOL0     C73345  12.562   4.280   3.919  0.4613 -0.0648 -0.1845
  544MOL0     C73346  12.655   4.190   4.006  0.3215  0.7165  0.3365
  544MOL0     C73347  12.695   4.062   3.937  0.4511  0.8083 -0.6755
  544MOL0     C73348  12.787   3.977   4.026  0.0731 -0.3310  0.6119
  544MOL0    Cl73349  12.943   4.060   4.053  0.2276  0.2862  0.1694
  544MOL0     C73350  11.986   4.629   3.986  0.1895 -0.0138  0.1400
  544MOL0     C73351  11.877   4.700   3.939  0.7699 -0.0637 -0.0855
  544MOL0     O73352  11.615   4.658   3.809 -0.4493 -0.0448  1.2814
  544MOL0     C73353  11.566   4.940   3.617  0.6502 -0.4393  0.0013
  544MOL0     C73354  11.467   5.038   3.590  0.6020  0.1363  0.2465
  544MOL0     N73355  10.728   5.089   3.596 -0.2768 -0.0519  0.4959
  544MOL0     N73356  10.603   5.102   3.565 -0.6504 -0.3507  0.2189
  544MOL0     C73357   9.468   5.394   3.345  1.0061 -0.1533 -0.8739
  544MOL0     C73358   9.363   5.392   3.251 -0.0895  0.0411 -0.4550
  544MOL0     C73359   8.998   5.441   3.049 -0.5410 -0.8668  0.7423
  544MOL0     C73360   9.014   5.490   2.920 -1.1615  0.5736  0.7226
  544MOL0     C73361   8.937   5.459   2.805 -0.3552 -0.8688 -1.2713
  544MOL0     C73362   8.822   5.393   2.831  0.4675  0.9738 -0.1450
  544MOL0     O73363   8.742   5.382   2.724  1.0515 -0.7253  0.2381
  544MOL0     C73364   8.617   5.313   2.721  0.0199 -0.0624  0.7787
  544MOL0     C73365   8.504   5.410   2.709 -0.6326  0.2068 -1.2854
  544MOL0     C73366   8.363   5.343   2.685  0.3835  0.3145  0.1636
  544MOL0     C73367   8.341   5.330   2.537 -0.8546  1.1541  0.8931
  544MOL0     C73368   8.205   5.285   2.506 -1.3871 -0.5185 -0.2598
  544MOL0     C73369   8.091   5.245   2.502 -0.7914  0.2646  0.0459
  544MOL0     C73370   8.798   5.340   2.966  0.0427 -0.5579 -0.0187
  544MOL0     C73371   8.890   5.355   3.070 -0.6144  0.1104  0.6146
  544MOL0     C73372   8.872   5.280   3.197  0.4020  0.6243 -0.1303
  544MOL0     H73373   9.392   5.716   3.148  2.3115 -0.2106 -0.4452
  544MOL0     H73374   9.568   5.710   3.316  1.3140 -0.1849 -0.1947
  544MOL0     H73375   9.776   5.659   3.396 -0.5561  1.4149 -1.1957
  544MOL0     H73376   9.642   5.705   3.516  2.2502  1.6673 -1.1811
  544MOL0     H73377   9.753   5.548   3.676  0.1566 -0.6790 -0.2488
  544MOL0     H73378   9.855   5.690   3.642  0.9637 -0.5945  1.2178
  544MOL0     H73379  10.005   5.558   3.493  1.0742 -1.9151 -0.2252
  544MOL0     H73380   9.904   5.418   3.501 -0.7861  1.7054 -1.0734
  544MOL0     H73381  10.091   5.531   3.706  1.2790 -0.5124  0.5982
  544MOL0     H73382   9.950   5.435   3.769  0.4985  1.3261  0.0679
  544MOL0     H73383  10.030   5.254   3.632 -2.2310  2.0823 -1.3382
  544MOL0     H73384  10.154   5.362   3.567 -0.9277 -1.5012 -0.8671
  544MOL0     H73385  10.248   5.399   3.785  0.4911  0.2181  1.2802
  544MOL0     H73386  10.141   5.290   3.860 -3.1369  4.5528 -0.1659
  544MOL0     H73387  10.239   5.104   3.703 -0.5115 -0.1353 -0.2200
  544MOL0     H73388  10.332   5.165   3.832  1.2610 -0.0064 -0.3278
  544MOL0     H73389  10.375   5.227   3.538  1.8549 -1.0348 -0.2263
  544MOL0     H73390  10.416   5.337   3.673 -0.0770 -0.1175  1.6395
  544MOL0     H73391  10.608   5.244   3.851  3.0406 -0.3114  0.0234
  544MOL0     H73392  10.853   5.210   3.892  1.6803 -0.2645  0.0849
  544MOL0     H73393  10.914   5.059   3.816  1.0998 -0.0957 -0.9138
  544MOL0     H73394  10.952   5.324   3.666  2.0594  1.1689  0.7102
  544MOL0     H73395  11.069   5.257   3.797  2.1734 -2.2096 -1.2068
  544MOL0     H73396  10.978   5.129   3.530  2.1059  0.5718 -0.9261
  544MOL0     H73397  11.060   5.045   3.656 -0.2735  0.0961  0.0511
  544MOL0     H73398  11.180   5.272   3.512 -1.6210  0.9640  3.1598
  544MOL0     H73399  11.200   5.089   3.489 -0.5955  1.1542 -1.8526
  544MOL0     H73400  11.257   4.970   3.842 -0.6752  1.1469 -0.7749
  544MOL0     H73401  11.421   4.808   3.896 -2.0863  0.1424 -0.4678
  544MOL0     H73402  12.001   4.717   3.615  0.2969 -1.4178 -1.7296
  544MOL0     H73403  12.177   4.580   3.712 -1.5200  0.1555 -2.3358
  544MOL0     H73404  12.232   4.647   4.151 -5.4226 -0.4610 -0.7820
  544MOL0     H73405  12.205   4.476   4.171 -1.1324 -0.7457  0.0393
  544MOL0     H73406  12.454   4.631   4.081 -1.4529  1.8295  0.5534
  544MOL0     H73407  12.430   4.563   4.243 -2.6639  1.3417  0.2453
  544MOL0     H73408  12.556   4.404   4.171 -1.4789  3.0107  1.1802
  544MOL0     H73409  12.404   4.331   4.098 -0.0009 -0.5534  1.5285
  544MOL0     H73410  12.632   4.476   3.953  0.8439  0.2861 -1.0563
  544MOL0     H73411  12.469   4.471   3.888  1.9069  2.9282  0.6996
  544MOL0     H73412  12.610   4.287   3.821 -1.8550  2.3111 -1.2899
  544MOL0     H73413  12.468   4.230   3.892  1.4511 -0.2618 -3.7581
  544MOL0     H73414  12.750   4.242   4.022  0.6285 -0.4932  2.9490
  544MOL0     H73415  12.609   4.163   4.102  1.8458  0.0450  0.9154
  544MOL0     H73416  12.742   4.082   3.840  0.3391  0.6322 -0.7684
  544MOL0     H73417  12.605   4.004   3.912 -0.5102  1.9016  0.1512
  544MOL0     H73418  12.749   3.939   4.121  0.1098  0.1425  0.8174
  544MOL0     H73419  12.818   3.890   3.967  1.9467  0.4434  0.4085
  544MOL0     H73420  11.971   4.611   4.092 -3.7380 -0.3952 -0.3350
  544MOL0     H73421  11.803   4.747   4.004 -1.9087 -3.5724 -0.2982
  544MOL0     H73422  11.656   4.940   3.556 -0.7174  0.4580 -2.0965
  544MOL0     H73423  11.473   5.106   3.505 -4.3456 -0.7003 -1.1017
  544MOL0     H73424   9.490   5.307   3.405  0.0820  0.4638  0.4216
  544MOL0     H73425   9.309   5.299   3.242 -0.7138  0.4173 -0.7135
  544MOL0     H73426   9.085   5.570   2.902 -1.2504  0.1447 -1.9693
  544MOL0     H73427   8.977   5.501   2.713 -1.6987  2.7544 -0.3452
  544MOL0     H73428   8.603   5.252   2.812 -3.0944  0.5363  0.8120
  544MOL0     H73429   8.628   5.241   2.639  3.5369 -0.4720  1.4729
  544MOL0     H73430   8.524   5.483   2.630  1.3553 -0.2373 -1.2670
  544MOL0     H73431   8.516   5.462   2.804 -2.0643 -0.5467 -0.6698
  544MOL0     H73432   8.283   5.399   2.734  0.9253  0.5882  0.7498
  544MOL0     H73433   8.360   5.244   2.732  3.3938 -0.5490 -1.2452
  544MOL0     H73434   8.357   5.426   2.488  0.2502  2.4484  3.5805
  544MOL0     H73435   8.404   5.254   2.489 -1.0682  0.7540  1.2438
  544MOL0     H73436   7.995   5.203   2.483 -1.2159  2.1423 -2.5720
  544MOL0     H73437   8.709   5.281   2.985  0.2930 -0.8900  0.1222
  544MOL0     H73438   8.971   5.240   3.221  0.4442  1.0178  0.3543
  544MOL0     H73439   8.849   5.335   3.288  0.0904 -2.0927  1.5584
  544MOL0     H73440   8.797   5.200   3.192  0.1252  0.8779  0.0034
  545MOL0     O73441   5.015   3.281   0.479  0.3746  0.1056  0.1855
  545MOL0     C73442   4.939   3.355   0.547 -0.1309 -0.2323  0.3929
  545MOL0     O73443   4.973   3.459   0.623  0.3126 -0.8229  0.1861
  545MOL0     C73444   5.099   3.505   0.639 -0.1518 -0.3433 -0.2101
  545MOL0     C73445   5.114   3.612   0.721  0.3207  1.1178 -0.5027
  545MOL0     C73446   5.241   3.661   0.766 -0.2341 -0.2708  0.3272
  545MOL0     C73447   5.358   3.592   0.712 -0.6355 -0.2653 -0.2299
  545MOL0     O73448   5.487   3.624   0.742 -0.6210 -0.0397 -0.8374
  545MOL0     C73449   5.512   3.759   0.801  0.2675  0.6109  0.3772
  545MOL0     C73450   5.665   3.781   0.810  0.3323  1.0540  0.4836
  545MOL0     C73451   5.731   3.718   0.936  0.2824  0.5107 -0.8961
  545MOL0     C73452   5.884   3.714   0.928  1.2338  0.6455 -0.6934
  545MOL0     C73453   5.941   3.855   0.896  0.6318 -0.1658  0.4769
  545MOL0     C73454   6.097   3.854   0.905 -0.1865 -0.3891  0.3510
  545MOL0     C73455   6.163   3.764   0.792 -0.3953 -0.4479  0.0389
  545MOL0     C73456   6.318   3.740   0.812 -0.6054 -0.8879 -0.5695
  545MOL0     N73457   6.383   3.653   0.714  0.0206 -0.2270  0.5603
  545MOL0     C73458   6.404   3.679   0.578 -0.5250 -0.1848 -0.2640
  545MOL0     C73459   6.459   3.562   0.535  0.3157 -0.5079  0.6421
  545MOL0     C73460   6.533   3.542   0.403  0.9248  0.0923  0.1516
  545MOL0     C73461   6.437   3.536   0.290 -0.9372 -0.5711  0.3566
  545MOL0     C73462   6.344   3.410   0.262 -0.1523  0.3082 -0.6822
  545MOL0     C73463   6.215   3.403   0.340  0.0836  0.3399  0.5095
  545MOL0     O73464   6.134   3.513   0.303  0.1290  0.6918 -0.0841
  545MOL0     C73465   6.047   3.502   0.198 -0.5233  0.0778  0.5437
  545MOL0     C73466   5.960   3.604   0.172  0.3200  1.3789  0.0685
  545MOL0     C73467   5.855   3.593   0.073 -0.4148 -0.9738 -0.1190
  545MOL0     C73468   5.850   3.483  -0.020 -1.4880  0.0938 -0.2378
  545MOL0     C73469   5.749   3.480  -0.128  0.7108  0.5844 -0.8872
  545MOL0     O73470   5.645   3.567  -0.123 -0.1483 -1.3690  0.7018
  545MOL0     C73471   5.542   3.563  -0.218  0.2493  0.0811 -0.8441
  545MOL0     C73472   5.446   3.468  -0.214 -0.4852  0.5698 -0.2442
  545MOL0     C73473   5.329   3.482  -0.287 -0.4115 -0.0326  0.2498
  545MOL0     C73474   5.308   3.585  -0.385  0.5321 -0.0110 -0.6038
  545MOL0     O73475   5.203   3.582  -0.481 -0.7983 -0.4038  0.5262
  545MOL0     C73476   5.167   3.446  -0.521  0.5834  0.1534 -0.7521
  545MOL0     C73477   5.068   3.434  -0.636 -0.7061 -0.6349 -0.0018
  545MOL0     C73478   4.925   3.472  -0.600 -0.7667 -0.1662 -0.1722
  545MOL0     C73479   4.846   3.363  -0.533  0.6043 -0.2137  0.2088
  545MOL0     C73480   4.695   3.393  -0.534 -0.4070  0.2897 -0.4364
  545MOL0     C73481   4.615   3.345  -0.663  0.6804  0.4281  0.1583
  545MOL0     C73482   4.460   3.348  -0.646  0.6428  0.4500 -0.1112
  545MOL0     C73483   4.401   3.283  -0.776  0.0939  0.3994  1.0394
  545MOL0    Cl73484   4.236   3.242  -0.732  0.2802  0.2173  0.3288
  545MOL0     C73485   5.408   3.680  -0.387 -0.1831  0.7160  0.5998
  545MOL0     C73486   5.518   3.672  -0.302 -0.5574 -0.4849 -0.3877
  545MOL0     O73487   5.760   3.387  -0.200 -0.3432  0.0220  0.1771
  545MOL0     C73488   5.946   3.380   0.001 -0.1063 -0.7339  0.5399
  545MOL0     C73489   6.046   3.399   0.098 -0.3038 -0.2419 -1.0066
  545MOL0     N73490   6.453   3.464   0.634 -0.2369 -0.3488  1.1993
  545MOL0     N73491   6.409   3.523   0.742  0.8383 -0.1406  0.7914
  545MOL0     C73492   5.343   3.498   0.616  0.0768  0.1756 -0.3374
  545MOL0     C73493   5.217   3.457   0.580  0.4887  1.0729  0.0091
  545MOL0     C73494   4.795   3.321   0.540 -0.8054  1.2259 -0.0093
  545MOL0     C73495   4.709   3.414   0.593  0.7250 -0.1136 -0.0127
  545MOL0     C73496   4.562   3.398   0.587  0.2126 -0.3829  0.5073
  545MOL0     C73497   4.510   3.275   0.530  0.5618  0.1725  0.8577
  545MOL0     O73498   4.377   3.234   0.529 -0.3665  0.3568  0.3214
  545MOL0     C73499   4.279   3.325   0.578  0.0780 -0.2296 -0.9666
  545MOL0     C73500   4.143   3.255   0.586  0.0633 -0.2459  0.2040
  545MOL0     C73501   4.145   3.128   0.680 -0.1924 -0.4022 -1.2915
  545MOL0     C73502   4.182   3.155   0.830  0.2924 -0.6703  0.2960
  545MOL0     C73503   4.326   3.143   0.843  0.4030 -0.0530 -0.4075
  545MOL0     C73504   4.445   3.155   0.865 -0.7883  0.1457  0.2808
  545MOL0     C73505   4.605   3.181   0.491  0.7184  0.0723  0.1923
  545MOL0     C73506   4.744   3.199   0.497 -0.1703 -0.8202  0.6157
  545MOL0     C73507   4.813   3.070   0.467 -0.7564 -0.5854 -0.2832
  545MOL0     H73508   5.025   3.650   0.770  1.3790  2.0706  0.7888
  545MOL0     H73509   5.254   3.743   0.836  2.4565 -0.5723  0.2977
  545MOL0     H73510   5.475   3.826   0.723 -1.2300  0.0406  0.5537
  545MOL0     H73511   5.469   3.785   0.898  1.0990  2.3945  0.3090
  545MOL0     H73512   5.693   3.887   0.809  2.6949  0.6362 -3.8269
  545MOL0     H73513   5.706   3.740   0.717  0.3667 -3.6389  2.3109
  545MOL0     H73514   5.701   3.612   0.937 -4.1987  1.5806 -0.5736
  545MOL0     H73515   5.698   3.762   1.031 -1.1496 -3.0529  0.4472
  545MOL0     H73516   5.920   3.669   1.020 -2.8181 -3.3962 -0.7082
  545MOL0     H73517   5.910   3.644   0.847 -0.8176 -1.3343  0.2549
  545MOL0     H73518   5.907   3.885   0.797 -1.1198 -1.8872  0.4757
  545MOL0     H73519   5.903   3.929   0.967  1.7903  1.7996 -0.8757
  545MOL0     H73520   6.130   3.956   0.882  1.0104 -0.3580  2.0341
  545MOL0     H73521   6.136   3.828   1.004  1.3456  3.2284  0.8704
  545MOL0     H73522   6.160   3.805   0.690  0.2530 -2.4137 -0.8254
  545MOL0     H73523   6.113   3.667   0.797 -4.4314  1.4829  0.9510
  545MOL0     H73524   6.370   3.837   0.818  1.7618 -1.7777 -4.0270
  545MOL0     H73525   6.334   3.702   0.913 -0.9569  0.2816 -0.0514
  545MOL0     H73526   6.412   3.771   0.520  1.3337  0.8683  1.5513
  545MOL0     H73527   6.601   3.627   0.391  2.6225 -1.3323 -0.7602
  545MOL0     H73528   6.604   3.459   0.408  2.7908  1.5945 -0.1212
  545MOL0     H73529   6.371   3.623   0.298 -0.0659  0.1336  0.0266
  545MOL0     H73530   6.496   3.545   0.198  2.2732  1.5407  2.4257
  545MOL0     H73531   6.400   3.320   0.289 -0.3193 -0.1407 -1.7988
  545MOL0     H73532   6.317   3.408   0.156 -5.2416 -1.0394  0.3808
  545MOL0     H73533   6.252   3.420   0.441  1.8344  1.8798 -0.3321
  545MOL0     H73534   6.167   3.305   0.333 -1.4633  0.9434  2.0978
  545MOL0     H73535   5.980   3.694   0.230  1.0628  1.0514  0.3328
  545MOL0     H73536   5.793   3.680   0.056  2.4465  1.1423 -0.5597
  545MOL0     H73537   5.446   3.385  -0.145 -0.5020  2.3735  2.0670
  545MOL0     H73538   5.251   3.413  -0.256  2.3080 -2.5530  2.0105
  545MOL0     H73539   5.263   3.399  -0.543  1.1538  1.4290 -1.0887
  545MOL0     H73540   5.130   3.386  -0.438 -0.3128  0.1437 -1.1538
  545MOL0     H73541   5.101   3.486  -0.726  0.3032 -1.3514 -0.0674
  545MOL0     H73542   5.078   3.325  -0.649  1.2206 -0.4246 -0.5505
  545MOL0     H73543   4.918   3.570  -0.552 -1.1073 -0.3454  0.1487
  545MOL0     H73544   4.879   3.487  -0.698  0.4921  0.2855 -0.7243
  545MOL0     H73545   4.882   3.362  -0.430  2.0257  2.5054 -0.1582
  545MOL0     H73546   4.850   3.266  -0.582 -2.0599 -0.2518 -0.0728
  545MOL0     H73547   4.683   3.502  -0.537  1.4140  0.5012 -1.4330
  545MOL0     H73548   4.664   3.346  -0.440  2.8905  2.1638  1.7947
  545MOL0     H73549   4.650   3.404  -0.747  1.5797  1.5679  1.2864
  545MOL0     H73550   4.645   3.244  -0.693 -0.1821  0.7450 -1.9396
  545MOL0     H73551   4.413   3.445  -0.628 -2.3417 -1.0787  1.0737
  545MOL0     H73552   4.443   3.287  -0.557  1.1015  1.4860  0.7043
  545MOL0     H73553   4.405   3.339  -0.870  2.8949 -4.9262 -2.4916
  545MOL0     H73554   4.465   3.198  -0.801  1.4949  2.2071 -2.1490
  545MOL0     H73555   5.419   3.756  -0.463  0.7870 -0.7333 -0.7442
  545MOL0     H73556   5.600   3.743  -0.302  0.5120 -1.6437 -1.9422
  545MOL0     H73557   5.933   3.288  -0.055 -0.8799 -0.2161 -0.1497
  545MOL0     H73558   6.116   3.316   0.107 -2.3091 -2.1421 -2.0424
  545MOL0     H73559   5.432   3.466   0.563 -0.2147  0.9187 -1.3034
  545MOL0     H73560   5.216   3.385   0.498  2.3876  3.5798 -2.4028
  545MOL0     H73561   4.737   3.511   0.634 -0.8015 -0.6748  2.5357
  545MOL0     H73562   4.503   3.481   0.625 -1.3323  0.8083 -3.8895
  545MOL0     H73563   4.279   3.419   0.522  0.5888 -0.7074 -1.8059
  545MOL0     H73564   4.314   3.360   0.675  3.0569 -0.4486 -1.8653
  545MOL0     H73565   4.110   3.236   0.483 -2.2029  1.7861  0.4712
  545MOL0     H73566   4.067   3.325   0.621  0.3212  0.1968 -0.1193
  545MOL0     H73567   4.216   3.053   0.644  1.7494  1.2857 -1.1740
  545MOL0     H73568   4.048   3.081   0.697  1.0795 -2.7425  0.0456
  545MOL0     H73569   4.139   3.250   0.865  0.4670 -0.6480  0.4580
  545MOL0     H73570   4.141   3.088   0.906 -0.6339 -1.6054 -0.9869
  545MOL0     H73571   4.552   3.165   0.870 -0.2082 -4.2059  0.5890
  545MOL0     H73572   4.556   3.086   0.470 -0.5693  0.8165 -0.2908
  545MOL0     H73573   4.769   3.037   0.372  1.3214 -3.4845 -0.3511
  545MOL0     H73574   4.922   3.073   0.456 -0.7872  2.6651 -0.5856
  545MOL0     H73575   4.781   2.989   0.533 -2.0517  0.2969  0.2070
  546MOL0     O73576   8.200   8.987   1.675  0.4005 -0.1595  0.3149
  546MOL0     C73577   8.162   9.088   1.732 -0.5937 -0.2788  0.2156
  546MOL0     O73578   8.236   9.159   1.823  0.7343 -0.0876  0.1845
  546MOL0     C73579   8.368   9.123   1.860 -0.7899  1.0295 -0.4546
  546MOL0     C73580   8.471   9.095   1.764 -1.1863 -0.1464  0.5525
  546MOL0     C73581   8.603   9.074   1.805  0.6971 -0.5693 -0.3780
  546MOL0     C73582   8.634   9.068   1.941 -0.1641  0.9141  0.1224
  546MOL0     O73583   8.757   9.035   1.983 -0.1152  0.0666 -0.0085
  546MOL0     C73584   8.861   9.122   1.946 -0.1629  0.2278 -0.4639
  546MOL0     C73585   8.837   9.263   2.028  0.2434  0.0360 -0.2850
  546MOL0     C73586   8.969   9.342   2.045  0.5768  0.4382  0.5096
  546MOL0     C73587   9.047   9.280   2.162  0.9273 -0.1507  0.7359
  546MOL0     C73588   9.171   9.356   2.204  0.0206  0.2810 -0.0273
  546MOL0     C73589   9.279   9.354   2.100  0.1897 -0.3625 -0.0717
  546MOL0     C73590   9.418   9.384   2.146 -0.0083  0.4798 -0.2748
  546MOL0     C73591   9.438   9.529   2.177  0.9183  0.5925 -0.2635
  546MOL0     N73592   9.565   9.556   2.239 -0.2480  0.1383  0.4333
  546MOL0     C73593   9.596   9.557   2.373  0.1507 -0.5054 -0.6190
  546MOL0     C73594   9.722   9.604   2.376 -0.6765  0.0855  0.4794
  546MOL0     C73595   9.804   9.600   2.499 -0.3240  0.6229 -0.0548
  546MOL0     C73596   9.956   9.614   2.483  0.2666  0.2874  0.0561
  546MOL0     C73597  10.032   9.485   2.486 -0.9490  0.8930  0.0516
  546MOL0     C73598  10.168   9.494   2.415 -0.8555 -0.4061  0.5739
  546MOL0     O73599  10.265   9.381   2.420  1.1747 -0.4651 -0.0746
  546MOL0     C73600  10.383   9.400   2.361  0.5066 -0.0712  1.2983
  546MOL0     C73601  10.505   9.403   2.428  0.4008 -0.2123 -0.4483
  546MOL0     C73602  10.626   9.413   2.365 -0.0306 -0.3050 -0.4144
  546MOL0     C73603  10.638   9.414   2.227  0.9328  0.0465 -0.3187
  546MOL0     C73604  10.768   9.422   2.160 -0.0093 -0.0510  0.5231
  546MOL0     O73605  10.870   9.408   2.251  0.5251 -0.1763 -0.2871
  546MOL0     C73606  11.007   9.407   2.212  1.0222  0.2396  0.1994
  546MOL0     C73607  11.056   9.473   2.101 -0.2371 -0.1682  0.2348
  546MOL0     C73608  11.191   9.467   2.064 -0.5716 -0.1824 -0.2742
  546MOL0     C73609  11.275   9.386   2.142 -0.4079 -1.0799 -0.2543
  546MOL0     O73610  11.415   9.369   2.122  0.7846 -0.2790  0.2844
  546MOL0     C73611  11.459   9.404   1.992 -0.8403  0.2083  0.5705
  546MOL0     C73612  11.613   9.432   1.985 -0.2193  0.0607 -0.6619
  546MOL0     C73613  11.703   9.332   2.064  0.2793  0.0992  0.4867
  546MOL0     C73614  11.852   9.330   2.028  0.0489 -0.2709  0.9259
  546MOL0     C73615  11.910   9.467   2.002 -0.5908 -0.9140 -0.4015
  546MOL0     C73616  12.068   9.464   2.009 -0.3040 -0.9259  0.2720
  546MOL0     C73617  12.131   9.421   1.874  0.3072  0.3853  0.3479
  546MOL0     C73618  12.285   9.436   1.873  0.5094  0.0917 -0.3166
  546MOL0    Cl73619  12.342   9.607   1.857  0.0408  0.1637 -0.1540
  546MOL0     C73620  11.230   9.328   2.261 -0.1047  0.2150 -0.0610
  546MOL0     C73621  11.097   9.345   2.293 -0.1599 -0.4484 -0.5890
  546MOL0     O73622  10.785   9.434   2.045 -0.3028 -0.5625  0.6638
  546MOL0     C73623  10.513   9.426   2.152  0.1742 -0.5083  0.0157
  546MOL0     C73624  10.391   9.403   2.217 -0.6072 -0.5908  0.8380
  546MOL0     N73625   9.762   9.637   2.246 -0.7507  0.3804  0.7817
  546MOL0     N73626   9.660   9.620   2.162 -0.3377  0.3959 -0.2588
  546MOL0     C73627   8.533   9.094   2.032  0.0152  0.4314  0.2830
  546MOL0     C73628   8.405   9.114   1.993  0.4720 -0.2590  0.8847
  546MOL0     C73629   8.033   9.141   1.710  0.2120 -1.2714 -0.3362
  546MOL0     C73630   8.028   9.278   1.690  0.7202 -0.1067  0.3553
  546MOL0     C73631   7.891   9.334   1.673  0.0614 -0.6384  0.2105
  546MOL0     C73632   7.776   9.254   1.683 -0.4529  0.4619 -0.3412
  546MOL0     O73633   7.653   9.306   1.680 -0.1260  0.5917  0.2567
  546MOL0     C73634   7.612   9.437   1.734  0.8113  0.4269 -0.8966
  546MOL0     C73635   7.566   9.404   1.882  0.6456  0.2699  0.2857
  546MOL0     C73636   7.446   9.307   1.888  0.6302  0.2826  0.4643
  546MOL0     C73637   7.372   9.296   2.027  0.4418 -0.0669  0.0556
  546MOL0     C73638   7.269   9.190   2.037  0.1919 -0.5052 -0.1430
  546MOL0     C73639   7.179   9.117   2.057  0.1254 -0.8153 -1.3982
  546MOL0     C73640   7.793   9.114   1.699  0.0985 -0.0026  0.5419
  546MOL0     C73641   7.917   9.057   1.698  0.1649 -0.4189 -0.5512
  546MOL0     C73642   7.921   8.910   1.691  0.1631  1.1454  0.0362
  546MOL0     H73643   8.447   9.113   1.660  1.1548  0.4120  0.0660
  546MOL0     H73644   8.671   9.052   1.723 -0.5214 -1.5293 -1.1605
  546MOL0     H73645   8.949   9.071   1.985 -1.3639 -2.4730 -1.0394
  546MOL0     H73646   8.872   9.139   1.838  0.4290  2.9154 -0.0470
  546MOL0     H73647   8.779   9.240   2.118 -1.1549 -0.6959 -1.3203
  546MOL0     H73648   8.773   9.319   1.960 -1.5369 -0.6268  0.7664
  546MOL0     H73649   8.936   9.444   2.067 -0.3060  0.6683 -1.5908
  546MOL0     H73650   9.026   9.345   1.952 -2.2207 -1.2208 -1.4420
  546MOL0     H73651   8.976   9.264   2.243 -0.1566 -2.0904 -0.5197
  546MOL0     H73652   9.083   9.178   2.147  2.5498  0.6422 -1.2503
  546MOL0     H73653   9.146   9.462   2.219  0.5290  0.4711 -0.4922
  546MOL0     H73654   9.202   9.312   2.299  1.1175  1.5417  0.2329
  546MOL0     H73655   9.276   9.250   2.065 -0.7090 -0.6085  0.6956
  546MOL0     H73656   9.246   9.419   2.019 -1.3839 -1.4863 -0.3898
  546MOL0     H73657   9.475   9.358   2.057  3.3521  3.6593  0.7354
  546MOL0     H73658   9.440   9.308   2.222  0.8204  1.0218  0.0386
  546MOL0     H73659   9.411   9.597   2.095  2.6985  1.4541 -0.1898
  546MOL0     H73660   9.370   9.550   2.260  1.5394 -0.6008  0.5604
  546MOL0     H73661   9.541   9.510   2.453  1.7093 -2.7048 -0.7447
  546MOL0     H73662   9.770   9.689   2.553 -1.9258 -1.6603  3.0364
  546MOL0     H73663   9.783   9.511   2.559  0.0332 -0.5566 -1.6364
  546MOL0     H73664   9.981   9.667   2.391  1.0212 -0.5883 -0.2433
  546MOL0     H73665   9.993   9.681   2.562 -0.1307  1.3174 -0.5992
  546MOL0     H73666   9.969   9.409   2.438 -1.9196  0.2744  2.1768
  546MOL0     H73667  10.042   9.450   2.589 -0.8934  0.6414 -0.0384
  546MOL0     H73668  10.219   9.586   2.445  2.1915 -1.6481 -0.3680
  546MOL0     H73669  10.153   9.514   2.309  3.0410  0.0396 -0.0587
  546MOL0     H73670  10.491   9.389   2.534 -4.7959 -3.1628 -1.1782
  546MOL0     H73671  10.712   9.417   2.431 -1.1902  1.5778  1.0805
  546MOL0     H73672  10.993   9.538   2.042 -1.1792 -0.1827  1.1884
  546MOL0     H73673  11.219   9.524   1.976  0.7683 -1.5493 -0.7646
  546MOL0     H73674  11.430   9.325   1.923 -1.0987  1.8577 -1.3076
  546MOL0     H73675  11.417   9.495   1.948 -0.5493 -0.1966 -0.5512
  546MOL0     H73676  11.645   9.426   1.881  0.8822  0.1541 -0.3386
  546MOL0     H73677  11.630   9.531   2.027  1.4312 -1.5289  2.8220
  546MOL0     H73678  11.686   9.357   2.169 -1.2129 -4.0865  1.4595
  546MOL0     H73679  11.666   9.230   2.051 -1.0148  0.7613 -1.3447
  546MOL0     H73680  11.864   9.283   1.930 -3.8647  0.7892 -0.2338
  546MOL0     H73681  11.907   9.283   2.110 -2.6027  0.9365  3.5944
  546MOL0     H73682  11.867   9.540   2.072 -0.8490  0.5272 -2.0042
  546MOL0     H73683  11.877   9.506   1.905 -0.8244 -1.3354 -0.4929
  546MOL0     H73684  12.094   9.567   2.036 -3.1671  0.8004 -2.7152
  546MOL0     H73685  12.107   9.395   2.084  2.0929  1.0247  0.9462
  546MOL0     H73686  12.095   9.478   1.789  0.9900 -2.7151 -2.2174
  546MOL0     H73687  12.105   9.316   1.855 -1.0172  0.2935  2.3988
  546MOL0     H73688  12.327   9.395   1.965 -1.1773 -1.0056  0.0109
  546MOL0     H73689  12.329   9.389   1.784  0.5720  2.4513 -1.5996
  546MOL0     H73690  11.305   9.275   2.319 -0.5350  0.9626  1.2183
  546MOL0     H73691  11.062   9.319   2.393  0.6007  1.5647  0.2377
  546MOL0     H73692  10.503   9.450   2.047  2.9330 -2.5275 -0.8056
  546MOL0     H73693  10.301   9.396   2.157 -0.8899  0.6872  1.0818
  546MOL0     H73694   8.558   9.103   2.137  0.2500  0.7936  0.1960
  546MOL0     H73695   8.323   9.141   2.060 -0.4948  0.7192 -0.6390
  546MOL0     H73696   8.110   9.348   1.682  1.9052 -1.3691  1.1166
  546MOL0     H73697   7.889   9.439   1.647  2.7963 -0.7331 -0.7767
  546MOL0     H73698   7.523   9.470   1.679 -0.5870  1.0650  1.6234
  546MOL0     H73699   7.688   9.515   1.720  0.1695  1.2061 -0.0624
  546MOL0     H73700   7.534   9.505   1.911  0.1006  1.4421 -3.6943
  546MOL0     H73701   7.649   9.373   1.946  0.0085  1.2043  1.6076
  546MOL0     H73702   7.481   9.208   1.857  0.1272 -0.7842  3.0455
  546MOL0     H73703   7.369   9.342   1.819  1.8779  1.2532 -0.5001
  546MOL0     H73704   7.447   9.282   2.105 -1.0891  1.6247  1.9671
  546MOL0     H73705   7.320   9.391   2.042 -0.2259 -0.2741 -0.8068
  546MOL0     H73706   7.093   9.053   2.062 -0.5096  0.1040  1.0951
  546MOL0     H73707   7.703   9.054   1.685  1.4687 -2.4452  1.4620
  546MOL0     H73708   8.010   8.873   1.639 -0.0942 -1.3690  1.2237
  546MOL0     H73709   7.921   8.859   1.788 -0.3858  1.0864  0.0089
  546MOL0     H73710   7.833   8.870   1.640  0.1733 -3.0732  2.8712
  547MOL0     O73711   8.118  10.929   4.290  0.1595 -0.3186 -0.9408
  547MOL0     C73712   8.034  10.853   4.243  0.2981 -0.4159 -0.1143
  547MOL0     O73713   8.025  10.830   4.110  0.9826 -0.4843 -0.5001
  547MOL0     C73714   8.123  10.886   4.032 -0.2804  0.1270 -0.2759
  547MOL0     C73715   8.082  10.978   3.945  0.3256 -0.4085  0.3855
  547MOL0     C73716   8.169  11.042   3.854 -0.4318  0.1916  0.1881
  547MOL0     C73717   8.307  11.007   3.853 -0.5977  0.6491  0.1107
  547MOL0     O73718   8.402  11.052   3.763 -0.1027 -0.2458  0.1900
  547MOL0     C73719   8.353  11.136   3.657 -0.0588  0.7444  0.4728
  547MOL0     C73720   8.456  11.133   3.535 -0.5779 -0.3362  0.2828
  547MOL0     C73721   8.587  11.214   3.576 -0.1177  0.0786 -0.0217
  547MOL0     C73722   8.702  11.186   3.480 -0.7074  0.0315  0.4157
  547MOL0     C73723   8.834  11.258   3.524  0.2690 -0.3838 -0.0840
  547MOL0     C73724   8.965  11.196   3.471 -0.3063 -0.1310  0.1172
  547MOL0     C73725   9.099  11.279   3.499  0.9392  0.2484 -0.1895
  547MOL0     C73726   9.219  11.216   3.445  0.1730  0.0763 -0.4176
  547MOL0     N73727   9.245  11.249   3.303  0.0396  0.8861  0.7801
  547MOL0     C73728   9.236  11.370   3.245 -1.0907 -0.3958  0.6809
  547MOL0     C73729   9.254  11.354   3.109 -0.1836  0.5672  0.1552
  547MOL0     C73730   9.252  11.472   3.009 -0.1347 -0.8007 -1.0476
  547MOL0     C73731   9.101  11.512   2.997  0.3245  0.0305 -0.1589
  547MOL0     C73732   9.066  11.629   2.901 -0.9700 -0.8622 -0.6687
  547MOL0     C73733   9.157  11.744   2.917 -0.2073  0.1806 -0.2988
  547MOL0     O73734   9.282  11.717   2.869 -0.4243  0.3385  0.6347
  547MOL0     C73735   9.358  11.817   2.830  0.8683  0.0870 -0.1190
  547MOL0     C73736   9.318  11.947   2.808 -0.8818 -0.3185 -0.6032
  547MOL0     C73737   9.404  12.049   2.766  0.2372 -0.8331  0.2158
  547MOL0     C73738   9.531  12.024   2.715 -0.5226 -0.2620  0.3166
  547MOL0     C73739   9.616  12.125   2.657 -0.5478 -0.2102 -0.2602
  547MOL0     O73740   9.726  12.089   2.603  0.2430  0.7349 -0.5988
  547MOL0     C73741   9.801  12.174   2.518 -0.0332  0.0671  0.2802
  547MOL0     C73742   9.735  12.265   2.431  0.6457 -0.4460 -0.1529
  547MOL0     C73743   9.802  12.361   2.360  0.0836  0.7694  0.2429
  547MOL0     C73744   9.943  12.355   2.354  0.0896 -0.2449 -0.0112
  547MOL0     O73745  10.003  12.446   2.268 -0.0104  0.9138 -0.4580
  547MOL0     C73746  10.145  12.420   2.238 -0.6804 -0.0274 -0.2832
  547MOL0     C73747  10.166  12.489   2.108  0.2209  0.6076 -0.6092
  547MOL0     C73748  10.294  12.443   2.044  0.1338  0.0669  0.1647
  547MOL0     C73749  10.429  12.481   2.126  0.1706  0.4772 -0.2536
  547MOL0     C73750  10.566  12.433   2.061  0.4507  0.6305 -0.8025
  547MOL0     C73751  10.579  12.282   2.038 -0.6300 -0.1641  0.8932
  547MOL0     C73752  10.723  12.261   1.988  0.3354  0.1714 -0.1071
  547MOL0     C73753  10.746  12.108   1.951  0.1894  0.1477 -0.2599
  547MOL0    Cl73754  10.919  12.084   1.923 -0.6521 -0.0546 -0.0750
  547MOL0     C73755  10.005  12.271   2.447  0.1471  0.4359 -0.5318
  547MOL0     C73756   9.939  12.180   2.529  0.1098 -0.6471 -0.3875
  547MOL0     O73757   9.574  12.237   2.647  0.5286 -0.0380  0.3592
  547MOL0     C73758   9.565  11.889   2.731  0.0644 -1.1850  0.5417
  547MOL0     C73759   9.488  11.786   2.781 -0.1702  0.0326  0.2491
  547MOL0     N73760   9.268  11.220   3.082 -0.6513  0.5424  0.7467
  547MOL0     N73761   9.265  11.162   3.192 -0.8520 -0.5084 -1.0864
  547MOL0     C73762   8.345  10.899   3.936  0.9012  1.6050  0.2419
  547MOL0     C73763   8.256  10.847   4.037  0.1814 -0.3287 -0.8633
  547MOL0     C73764   7.949  10.775   4.349 -0.3138 -0.4192  1.1369
  547MOL0     C73765   7.917  10.642   4.313 -0.3832 -0.1696 -0.6271
  547MOL0     C73766   7.859  10.565   4.425  0.3016 -0.7013  0.4590
  547MOL0     C73767   7.811  10.618   4.546 -0.1999 -0.1364 -0.5281
  547MOL0     O73768   7.760  10.547   4.653  0.7204  0.7054 -0.4236
  547MOL0     C73769   7.651  10.460   4.612  0.0165 -0.0049  0.0746
  547MOL0     C73770   7.524  10.551   4.633 -0.0196  0.9174 -0.2393
  547MOL0     C73771   7.481  10.519   4.777 -0.9428  0.3253  0.6761
  547MOL0     C73772   7.396  10.623   4.844  0.0778 -0.1890 -0.0398
  547MOL0     C73773   7.288  10.666   4.756  0.4373  0.1207  1.1096
  547MOL0     C73774   7.193  10.692   4.680 -0.0196  0.4821 -0.2061
  547MOL0     C73775   7.829  10.748   4.562 -0.9654 -0.3721  0.2304
  547MOL0     C73776   7.907  10.832   4.474 -1.1032 -0.6360  0.0882
  547MOL0     C73777   7.947  10.971   4.496  0.4076  0.4059 -0.2949
  547MOL0     H73778   7.976  11.001   3.940  0.0119 -1.9139 -3.4652
  547MOL0     H73779   8.116  11.101   3.779 -1.9835 -0.5470  0.6513
  547MOL0     H73780   8.264  11.086   3.620 -0.0844  0.3852  1.0101
  547MOL0     H73781   8.333  11.241   3.683 -1.9596  1.2511 -2.5731
  547MOL0     H73782   8.404  11.186   3.454 -0.2609  1.1662  1.0279
  547MOL0     H73783   8.476  11.030   3.504 -1.0232 -0.6524  1.0008
  547MOL0     H73784   8.613  11.186   3.678  2.5926  0.9254 -0.3987
  547MOL0     H73785   8.564  11.320   3.567  0.5763  0.2699  0.4073
  547MOL0     H73786   8.726  11.080   3.483  0.6395  0.3273  0.6695
  547MOL0     H73787   8.676  11.218   3.379  0.0457 -1.6346 -0.3446
  547MOL0     H73788   8.821  11.361   3.490 -2.1181 -0.5872  0.0814
  547MOL0     H73789   8.838  11.259   3.633  2.6120  2.3108 -0.0829
  547MOL0     H73790   8.971  11.094   3.509 -1.1918 -1.1345 -2.2017
  547MOL0     H73791   8.946  11.190   3.363  1.4911 -1.1800 -0.1773
  547MOL0     H73792   9.100  11.278   3.609 -0.0722  1.8098 -0.1248
  547MOL0     H73793   9.098  11.385   3.471  1.0167  0.8700  1.9507
  547MOL0     H73794   9.303  11.243   3.509  0.2053 -2.7829  0.9068
  547MOL0     H73795   9.220  11.107   3.451  1.6455  0.0353  6.1371
  547MOL0     H73796   9.217  11.460   3.303  1.4108 -0.2668  1.4129
  547MOL0     H73797   9.320  11.549   3.046 -3.1039  0.8796  1.3429
  547MOL0     H73798   9.285  11.433   2.912  1.7437  0.4313 -0.9549
  547MOL0     H73799   9.038  11.432   2.958 -0.1340  0.1439  0.3454
  547MOL0     H73800   9.054  11.530   3.094 -3.1226 -1.5167 -1.3928
  547MOL0     H73801   8.965  11.659   2.929 -0.4064 -0.5624  1.1851
  547MOL0     H73802   9.064  11.597   2.797  4.3944 -3.3325 -0.3587
  547MOL0     H73803   9.160  11.780   3.020  0.7553  0.6526 -0.4778
  547MOL0     H73804   9.099  11.819   2.861 -4.5547 -2.3875  0.2820
  547MOL0     H73805   9.217  11.979   2.830 -0.7512 -0.8638  0.9782
  547MOL0     H73806   9.364  12.149   2.761 -0.7444 -1.2535 -0.9963
  547MOL0     H73807   9.626  12.265   2.426  0.4373  3.6639  0.3460
  547MOL0     H73808   9.746  12.415   2.285  0.3254  0.6074 -0.0536
  547MOL0     H73809  10.224  12.443   2.310 -2.1249  2.2287  0.6982
  547MOL0     H73810  10.162  12.312   2.236  2.1248  0.1323  4.0319
  547MOL0     H73811  10.081  12.460   2.045 -0.6085 -1.2608  1.2353
  547MOL0     H73812  10.159  12.597   2.119 -4.1517  0.4545 -0.1559
  547MOL0     H73813  10.298  12.338   2.014 -0.0916  0.3565 -0.9189
  547MOL0     H73814  10.299  12.496   1.949 -1.1133 -1.3369 -0.7100
  547MOL0     H73815  10.425  12.442   2.228  1.3258 -1.1039 -0.7716
  547MOL0     H73816  10.442  12.589   2.136 -2.7224  1.3958 -4.3163
  547MOL0     H73817  10.644  12.462   2.132 -0.1985 -0.3451  0.3415
  547MOL0     H73818  10.581  12.479   1.963  1.4462 -1.5011 -1.7079
  547MOL0     H73819  10.553  12.231   2.131 -1.5447  0.1819  0.8412
  547MOL0     H73820  10.504  12.248   1.965  0.4327  2.4092 -1.5964
  547MOL0     H73821  10.797  12.298   2.060  2.2815 -0.8102 -1.4869
  547MOL0     H73822  10.739  12.317   1.895  1.6508 -1.2891 -0.8191
  547MOL0     H73823  10.701  12.040   2.024 -0.2691 -1.3589 -1.8675
  547MOL0     H73824  10.712  12.099   1.847  0.8028  0.5309 -0.5016
  547MOL0     H73825  10.113  12.266   2.460  0.2840 -0.2535 -1.7505
  547MOL0     H73826   9.987  12.107   2.593 -1.6349 -1.3356  0.1709
  547MOL0     H73827   9.660  11.852   2.694  0.2697  1.1094 -1.4825
  547MOL0     H73828   9.525  11.684   2.774  1.8377  0.7899 -0.9129
  547MOL0     H73829   8.445  10.858   3.927 -0.0467 -0.9188  0.5022
  547MOL0     H73830   8.285  10.768   4.105 -0.0042  0.6052  0.3278
  547MOL0     H73831   7.957  10.586   4.229 -2.6185 -2.7646 -0.0895
  547MOL0     H73832   7.855  10.457   4.415  2.6263 -0.6792 -1.7696
  547MOL0     H73833   7.643  10.370   4.674 -1.2145  1.1261  1.6463
  547MOL0     H73834   7.643  10.430   4.507 -0.4071 -2.0329  0.6313
  547MOL0     H73835   7.441  10.519   4.569  1.3016 -1.3742 -0.9386
  547MOL0     H73836   7.546  10.655   4.611  0.6070  0.3410 -2.6496
  547MOL0     H73837   7.562  10.511   4.850 -0.4267 -0.0062  0.0754
  547MOL0     H73838   7.423  10.426   4.770 -2.0260  0.8942  1.6873
  547MOL0     H73839   7.348  10.570   4.927  2.4098 -0.9953  0.8551
  547MOL0     H73840   7.469  10.695   4.880  1.9900 -3.2271  2.7554
  547MOL0     H73841   7.124  10.694   4.598 -0.7345 -3.1151  0.1678
  547MOL0     H73842   7.790  10.788   4.655  1.1176  1.0896  0.5460
  547MOL0     H73843   7.918  11.032   4.410  1.9704 -1.4054 -2.2026
  547MOL0     H73844   7.898  11.013   4.585  0.2748  2.0744 -1.1320
  547MOL0     H73845   8.052  10.970   4.524  0.1106  0.1414  0.8963
  548MOL0     O73846   2.118   0.949   3.537  0.3308  0.1454 -0.1708
  548MOL0     C73847   2.127   0.832   3.563 -0.3401 -0.0311  0.0052
  548MOL0     O73848   2.244   0.770   3.570 -0.4376 -0.1808  0.5261
  548MOL0     C73849   2.362   0.823   3.517 -0.2342 -0.3603 -0.2607
  548MOL0     C73850   2.412   0.950   3.560  0.0510 -0.4553  0.8417
  548MOL0     C73851   2.531   1.000   3.510 -0.2973 -0.3018 -0.7582
  548MOL0     C73852   2.599   0.930   3.417 -0.0680  0.4803  0.4054
  548MOL0     O73853   2.717   0.977   3.365 -0.6517 -0.5963 -0.0307
  548MOL0     C73854   2.747   0.971   3.225  0.1316  0.0903  0.0027
  548MOL0     C73855   2.895   0.997   3.210  0.5712  0.7091  0.7016
  548MOL0     C73856   2.989   0.894   3.285  0.3726  0.7126  0.0076
  548MOL0     C73857   3.001   0.910   3.436  0.5972 -0.1794  1.2180
  548MOL0     C73858   3.083   1.037   3.481  0.8382  0.0370  0.9005
  548MOL0     C73859   3.225   1.049   3.425 -0.7307  0.1712  0.3226
  548MOL0     C73860   3.328   0.960   3.487 -0.5822 -0.2243  0.5627
  548MOL0     C73861   3.473   0.986   3.440 -1.2960  0.6797  0.1303
  548MOL0     N73862   3.565   0.877   3.473 -0.0568 -0.8122 -0.2086
  548MOL0     C73863   3.623   0.791   3.377 -0.2722 -0.1429  1.0676
  548MOL0     C73864   3.684   0.690   3.450 -0.0455  0.1322  0.6688
  548MOL0     C73865   3.774   0.588   3.397  0.7973 -0.2424 -0.2927
  548MOL0     C73866   3.916   0.644   3.382  0.2016  0.1524 -0.4424
  548MOL0     C73867   3.998   0.565   3.278 -1.1902 -0.1357  0.1550
  548MOL0     C73868   4.123   0.645   3.232  0.7455  0.2739 -1.2558
  548MOL0     O73869   4.192   0.575   3.132 -0.2137  0.6773  0.2177
  548MOL0     C73870   4.306   0.628   3.075  0.3188 -0.9904 -1.4184
  548MOL0     C73871   4.363   0.755   3.102  0.3703  0.3501 -1.0022
  548MOL0     C73872   4.483   0.789   3.041  0.1186 -0.1264  1.2235
  548MOL0     C73873   4.543   0.710   2.940  0.1475 -0.6465 -0.9383
  548MOL0     C73874   4.666   0.741   2.876  0.3219  0.3943  0.1014
  548MOL0     O73875   4.708   0.665   2.764  0.9640  0.0687  0.3231
  548MOL0     C73876   4.840   0.667   2.735 -0.3340 -0.4953  0.0225
  548MOL0     C73877   4.878   0.743   2.614  0.1295 -0.7207  0.3590
  548MOL0     C73878   5.013   0.777   2.591 -1.1682 -0.0760  0.2509
  548MOL0     C73879   5.119   0.726   2.671  0.4065  0.3844  1.1163
  548MOL0     O73880   5.254   0.751   2.670 -0.3446  0.1861  0.0920
  548MOL0     C73881   5.301   0.829   2.551 -0.6518 -0.5659  0.0115
  548MOL0     C73882   5.448   0.817   2.554 -0.0423  0.3710 -0.8992
  548MOL0     C73883   5.496   0.682   2.527 -0.3899  0.4715 -0.2839
  548MOL0     C73884   5.632   0.677   2.444  0.4307 -0.6941 -0.3751
  548MOL0     C73885   5.693   0.539   2.470 -0.7094 -0.6139 -0.2599
  548MOL0     C73886   5.793   0.506   2.367 -0.2713 -0.5799  0.3420
  548MOL0     C73887   5.865   0.372   2.393  0.0610 -0.5072  0.5151
  548MOL0     C73888   5.915   0.315   2.259  1.1562  0.2487 -0.2132
  548MOL0    Cl73889   6.016   0.443   2.203 -0.1996 -0.5034  0.0755
  548MOL0     C73890   5.081   0.661   2.790 -0.0657 -0.6238  1.0905
  548MOL0     C73891   4.946   0.626   2.825  0.4275 -0.5651  0.5405
  548MOL0     O73892   4.733   0.843   2.916 -0.1436  0.0727 -0.3745
  548MOL0     C73893   4.482   0.580   2.920  0.0631 -0.7125 -0.2474
  548MOL0     C73894   4.361   0.542   2.985 -0.9028 -0.0298  0.3110
  548MOL0     N73895   3.655   0.713   3.583  0.2709  0.5308  0.2413
  548MOL0     N73896   3.582   0.825   3.597 -0.2503 -0.1685  0.4731
  548MOL0     C73897   2.550   0.804   3.372 -0.0766 -0.3323  0.8092
  548MOL0     C73898   2.436   0.742   3.430  0.2006 -0.2678  0.3082
  548MOL0     C73899   2.002   0.753   3.584 -0.5703  0.6137  0.4003
  548MOL0     C73900   2.021   0.626   3.648  0.3935  0.6681  0.6951
  548MOL0     C73901   1.912   0.559   3.701  0.2901 -0.0623 -0.9845
  548MOL0     C73902   1.784   0.607   3.685 -0.6948 -0.3549  0.4237
  548MOL0     O73903   1.679   0.543   3.741 -0.1025 -0.0670  0.5203
  548MOL0     C73904   1.573   0.517   3.646  0.0621 -0.3214 -0.3361
  548MOL0     C73905   1.513   0.383   3.683 -0.3107 -0.1087  0.1845
  548MOL0     C73906   1.408   0.337   3.591 -0.6342  0.1669 -0.2526
  548MOL0     C73907   1.329   0.205   3.635 -0.2683 -0.5787 -0.0946
  548MOL0     C73908   1.416   0.095   3.672 -0.5981  0.0894  0.0782
  548MOL0     C73909   1.478   0.002   3.717 -0.1629 -0.2064  0.0105
  548MOL0     C73910   1.769   0.732   3.624  0.6870 -0.5480  0.2824
  548MOL0     C73911   1.869   0.805   3.565  0.4340  0.0510 -0.0715
  548MOL0     C73912   1.830   0.935   3.490 -0.7376  0.0140  0.6351
  548MOL0     H73913   2.353   1.003   3.634 -2.5703 -1.5276 -0.3565
  548MOL0     H73914   2.565   1.097   3.545 -5.8208  1.9217 -0.4765
  548MOL0     H73915   2.717   0.878   3.176 -1.4907  0.6245 -0.0859
  548MOL0     H73916   2.701   1.056   3.172  0.8261  0.6537  0.2925
  548MOL0     H73917   2.919   1.097   3.247  1.2144  0.0576  2.1024
  548MOL0     H73918   2.912   0.981   3.103 -1.8497 -2.1690  0.6042
  548MOL0     H73919   3.092   0.896   3.247  1.6431  2.6838  3.1975
  548MOL0     H73920   2.951   0.791   3.278  2.8249 -0.4167  1.8533
  548MOL0     H73921   2.898   0.909   3.475 -0.7427 -2.2567 -1.9190
  548MOL0     H73922   3.049   0.817   3.467  0.4366 -0.1229  1.6462
  548MOL0     H73923   3.031   1.132   3.467 -1.1368 -0.9026  1.5377
  548MOL0     H73924   3.074   1.033   3.590 -1.2332  1.3207  0.8331
  548MOL0     H73925   3.230   1.032   3.317  1.4366  1.2483  0.1946
  548MOL0     H73926   3.251   1.155   3.430 -1.5312  0.3810  0.1735
  548MOL0     H73927   3.300   0.854   3.488 -0.0148 -0.4134  3.0039
  548MOL0     H73928   3.341   0.985   3.593  4.0782  3.4320 -0.5412
  548MOL0     H73929   3.481   1.007   3.333  0.8623  2.9777  0.6349
  548MOL0     H73930   3.512   1.084   3.472 -4.1778  1.9948 -0.0715
  548MOL0     H73931   3.637   0.798   3.270  1.3713 -3.4411  0.9458
  548MOL0     H73932   3.773   0.504   3.466 -3.1272  1.5715  2.2375
  548MOL0     H73933   3.741   0.562   3.297  1.0853  1.1982 -0.7884
  548MOL0     H73934   3.917   0.745   3.338  2.6419  1.4781  2.3281
  548MOL0     H73935   3.960   0.631   3.481  0.7502 -2.4714 -0.9504
  548MOL0     H73936   3.935   0.546   3.190 -2.0730 -0.9045  0.9328
  548MOL0     H73937   4.033   0.467   3.310  1.9680 -0.0416 -2.3807
  548MOL0     H73938   4.187   0.673   3.315  1.0307  0.3727 -1.5078
  548MOL0     H73939   4.086   0.743   3.198 -1.1291 -0.1608 -0.5760
  548MOL0     H73940   4.326   0.820   3.181  1.5026  1.3233 -1.2352
  548MOL0     H73941   4.532   0.886   3.052 -0.1028  0.1806 -0.2812
  548MOL0     H73942   4.799   0.764   2.543 -1.0166 -0.4060  1.6718
  548MOL0     H73943   5.035   0.845   2.509 -4.2467  0.0623 -0.5875
  548MOL0     H73944   5.262   0.804   2.452  0.8905  3.7935 -1.9488
  548MOL0     H73945   5.263   0.931   2.564 -1.0330 -0.5644 -1.0223
  548MOL0     H73946   5.480   0.880   2.471 -2.7097 -0.2835 -2.5478
  548MOL0     H73947   5.491   0.845   2.650  0.7835 -2.4922 -0.3250
  548MOL0     H73948   5.501   0.614   2.612  1.5314  0.7733 -0.1181
  548MOL0     H73949   5.427   0.630   2.459  1.2674  0.7989 -2.3003
  548MOL0     H73950   5.701   0.755   2.479  1.9548 -2.1576 -0.0058
  548MOL0     H73951   5.620   0.696   2.337 -0.8530 -1.8755 -0.4648
  548MOL0     H73952   5.609   0.472   2.452 -0.3912 -1.3783  0.9843
  548MOL0     H73953   5.726   0.530   2.574 -1.5414  0.8212  0.1593
  548MOL0     H73954   5.748   0.506   2.268  1.6954  0.5950 -0.6062
  548MOL0     H73955   5.870   0.584   2.372  1.5009 -2.0548 -1.7989
  548MOL0     H73956   5.796   0.300   2.438  0.4032 -1.6554 -0.7303
  548MOL0     H73957   5.945   0.395   2.465  1.0580  1.5903 -1.1432
  548MOL0     H73958   5.976   0.227   2.281  1.9345  0.4763 -1.3834
  548MOL0     H73959   5.839   0.289   2.184  0.4541 -0.4683  0.7197
  548MOL0     H73960   5.160   0.618   2.851  1.3912 -1.0020 -0.9696
  548MOL0     H73961   4.924   0.576   2.919 -3.8719  0.8612  0.4890
  548MOL0     H73962   4.528   0.500   2.864 -0.4830 -0.1068 -1.6197
  548MOL0     H73963   4.313   0.448   2.958 -2.7187  0.4428  1.6910
  548MOL0     H73964   2.593   0.740   3.296 -1.7593  0.0009 -0.4837
  548MOL0     H73965   2.405   0.641   3.406 -4.9276  1.2620 -0.7567
  548MOL0     H73966   2.113   0.570   3.638  0.1194  0.5035 -1.3488
  548MOL0     H73967   1.923   0.457   3.736 -1.8683 -0.0249 -0.0573
  548MOL0     H73968   1.610   0.515   3.543 -1.0807  0.1754 -0.7683
  548MOL0     H73969   1.494   0.591   3.641  1.3665  1.1309 -0.1358
  548MOL0     H73970   1.464   0.391   3.781 -0.9924 -0.7905 -0.0912
  548MOL0     H73971   1.587   0.303   3.691 -0.1495 -0.2230 -1.9129
  548MOL0     H73972   1.449   0.323   3.491  1.5868 -2.5600  0.9204
  548MOL0     H73973   1.335   0.416   3.573 -1.4048 -0.2355  0.9619
  548MOL0     H73974   1.279   0.224   3.731 -0.6562  3.0400 -0.8575
  548MOL0     H73975   1.261   0.170   3.557 -2.4261  3.1126 -0.1312
  548MOL0     H73976   1.551  -0.068   3.752  0.3138  0.1454 -0.2573
  548MOL0     H73977   1.664   0.758   3.617  0.8456 -0.0847 -0.5006
  548MOL0     H73978   1.738   0.922   3.432  0.6766 -2.5139 -1.2244
  548MOL0     H73979   1.828   1.023   3.555  0.6894  0.1403  0.5223
  548MOL0     H73980   1.912   0.952   3.420  0.9790 -2.1709  1.9911
  549MOL0     O73981   6.485   0.432   8.981  0.2066  0.1404  0.0254
  549MOL0     C73982   6.469   0.405   8.861  0.5238 -0.3817  0.0405
  549MOL0     O73983   6.529   0.468   8.757  0.6278 -0.0363 -0.3486
  549MOL0     C73984   6.634   0.560   8.778  0.8479 -0.6934 -0.3485
  549MOL0     C73985   6.745   0.511   8.845  0.1616  0.0215 -0.0554
  549MOL0     C73986   6.864   0.581   8.868 -0.2296  0.3100  0.1782
  549MOL0     C73987   6.872   0.713   8.824  0.2766 -0.0436  0.4937
  549MOL0     O73988   6.988   0.792   8.827 -0.1336  0.8670  0.2946
  549MOL0     C73989   7.079   0.776   8.935 -0.6150 -0.8565 -0.7181
  549MOL0     C73990   7.212   0.826   8.892 -0.9036  0.3753  0.4799
  549MOL0     C73991   7.204   0.974   8.843 -0.2767 -0.5779 -0.1602
  549MOL0     C73992   7.167   1.053   8.973 -0.1221 -0.2528  0.3621
  549MOL0     C73993   7.200   1.210   8.957 -0.6153  0.5113 -0.4182
  549MOL0     C73994   7.350   1.240   8.993  1.5799 -0.6956  0.6210
  549MOL0     C73995   7.396   1.377   8.944  0.5977 -0.0406 -0.2535
  549MOL0     C73996   7.523   1.420   9.010  0.0726 -0.3451 -0.3211
  549MOL0     N73997   7.648   1.364   8.950  0.1384 -0.5915 -0.1466
  549MOL0     C73998   7.770   1.428   8.955 -0.5973 -0.1127 -0.2211
  549MOL0     C73999   7.853   1.351   8.889  1.2002  0.6180  0.1960
  549MOL0     C74000   7.983   1.397   8.835 -0.0785  0.4738 -0.7811
  549MOL0     C74001   8.043   1.520   8.894  0.5500 -0.4082 -0.0744
  549MOL0     C74002   8.081   1.514   9.046 -0.0514  0.6457  0.1847
  549MOL0     C74003   8.193   1.613   9.078 -0.2177 -0.0621  0.2271
  549MOL0     O74004   8.300   1.581   8.995 -0.0551 -0.3365  0.4810
  549MOL0     C74005   8.420   1.649   9.022  0.3108  0.9140  0.5441
  549MOL0     C74006   8.523   1.630   8.919  0.0896 -0.2438 -0.2482
  549MOL0     C74007   8.650   1.690   8.934 -0.6140  0.5966  0.0393
  549MOL0     C74008   8.680   1.780   9.039 -0.1040 -0.6468 -0.2775
  549MOL0     C74009   8.822   1.835   9.048 -0.6539 -0.2222 -1.2860
  549MOL0     O74010   8.925   1.780   8.973 -0.3487  0.5072 -0.2960
  549MOL0     C74011   9.057   1.814   8.979 -0.0661 -0.2835  0.5255
  549MOL0     C74012   9.142   1.711   8.996 -0.2030  1.0150  0.3466
  549MOL0     C74013   9.275   1.735   9.015 -0.6081  0.5671 -0.7266
  549MOL0     C74014   9.326   1.867   9.006  1.0078  0.3885 -0.8480
  549MOL0     O74015   9.456   1.906   9.013 -0.7534  0.0645  1.1845
  549MOL0     C74016   9.551   1.809   8.995 -1.0222  1.2615 -0.4218
  549MOL0     C74017   9.689   1.867   9.005  1.3142 -0.5495  0.0165
  549MOL0     C74018   9.807   1.770   9.007  0.0653 -0.1045  0.5864
  549MOL0     C74019   9.804   1.664   9.116 -0.2397 -0.6696 -0.3135
  549MOL0     C74020   9.869   1.721   9.244  0.7623 -0.0865 -0.1684
  549MOL0     C74021   9.868   1.615   9.361 -0.7753  0.5737  0.5503
  549MOL0     C74022   9.954   1.494   9.339  0.1462  0.2258  0.1981
  549MOL0     C74023   9.957   1.407   9.465  1.1388 -0.3306 -0.4388
  549MOL0    Cl74024   9.806   1.308   9.474  0.8025 -0.2721  0.2372
  549MOL0     C74025   9.235   1.973   8.996  0.9260 -0.1316 -0.4531
  549MOL0     C74026   9.103   1.944   8.978  0.3669 -0.3317  0.2292
  549MOL0     O74027   8.847   1.911   9.141  0.1684  0.7575  0.4460
  549MOL0     C74028   8.574   1.817   9.129  0.1315 -0.0666  0.6621
  549MOL0     C74029   8.453   1.737   9.126 -0.5897  0.0484 -0.2084
  549MOL0     N74030   7.786   1.233   8.851  0.0265 -0.3253  0.0075
  549MOL0     N74031   7.657   1.241   8.892 -0.2649  0.1197  0.7516
  549MOL0     C74032   6.759   0.762   8.750  0.4409  0.5285  0.7324
  549MOL0     C74033   6.643   0.693   8.730  0.8679  0.6859 -0.5819
  549MOL0     C74034   6.370   0.296   8.828  1.0769  1.3780 -0.2751
  549MOL0     C74035   6.263   0.283   8.925 -1.1088 -0.4555 -0.6342
  549MOL0     C74036   6.160   0.182   8.908  0.2088 -0.4178 -0.1290
  549MOL0     C74037   6.172   0.090   8.802 -0.8933  0.3890  0.0944
  549MOL0     O74038   6.078  -0.010   8.796  0.6912 -0.0569  0.7023
  549MOL0     C74039   6.111  -0.130   8.725 -0.2219  0.0487  0.1166
  549MOL0     C74040   6.080  -0.119   8.573  0.1985  0.1002 -0.0901
  549MOL0     C74041   6.134  -0.247   8.500 -0.1649 -0.5349 -0.7042
  549MOL0     C74042   6.140  -0.216   8.354 -0.2455  0.2210 -0.3249
  549MOL0     C74043   6.256  -0.124   8.329  0.5439 -0.1887 -0.8818
  549MOL0     C74044   6.353  -0.060   8.323  0.6024 -0.0914  0.4507
  549MOL0     C74045   6.277   0.101   8.715 -0.3100  0.3349  0.5398
  549MOL0     C74046   6.373   0.200   8.717 -0.0724  0.2929 -0.1233
  549MOL0     C74047   6.481   0.204   8.614  0.1025  1.2628 -0.2200
  549MOL0     H74048   6.740   0.413   8.892 -1.4584  0.5916  1.0361
  549MOL0     H74049   6.937   0.530   8.929 -1.6754 -1.5729  0.4437
  549MOL0     H74050   7.035   0.834   9.017  1.1760  0.3176 -0.5414
  549MOL0     H74051   7.095   0.674   8.971  2.7937 -0.0971  0.2998
  549MOL0     H74052   7.252   0.770   8.807 -0.2117 -1.2761  1.8511
  549MOL0     H74053   7.296   0.822   8.962  1.0167  1.4322 -1.5990
  549MOL0     H74054   7.131   0.996   8.765  0.6937  0.0808 -0.9115
  549MOL0     H74055   7.298   1.008   8.798 -0.9675  2.1052  0.2606
  549MOL0     H74056   7.059   1.038   8.970 -0.2276  0.0267 -3.8935
  549MOL0     H74057   7.214   1.012   9.063  0.0788  0.5546  0.6273
  549MOL0     H74058   7.173   1.231   8.853 -2.8104 -1.0060 -0.2277
  549MOL0     H74059   7.147   1.272   9.030  2.9842  4.0168 -0.4836
  549MOL0     H74060   7.362   1.229   9.101  1.2498 -2.3934  0.5116
  549MOL0     H74061   7.411   1.155   8.961  3.0844  0.3468  0.6057
  549MOL0     H74062   7.320   1.453   8.965 -1.1979 -2.0262  0.8199
  549MOL0     H74063   7.411   1.375   8.836  0.6466  0.0627 -0.2484
  549MOL0     H74064   7.537   1.527   8.994  1.5515 -0.1524  1.8822
  549MOL0     H74065   7.523   1.411   9.119 -0.5857 -2.9467 -0.4602
  549MOL0     H74066   7.795   1.519   9.009  3.0561 -1.1237  0.0745
  549MOL0     H74067   8.047   1.308   8.844 -0.4056  0.1344 -1.7229
  549MOL0     H74068   7.969   1.414   8.728 -1.6672  1.6872 -0.4126
  549MOL0     H74069   8.125   1.554   8.830  0.1034  0.9853  0.0699
  549MOL0     H74070   7.967   1.596   8.872  0.9503 -0.5080 -2.0107
  549MOL0     H74071   8.114   1.412   9.070 -1.8318 -0.4186 -1.5514
  549MOL0     H74072   8.000   1.543   9.114 -0.0164  1.7131 -0.2043
  549MOL0     H74073   8.225   1.590   9.180  0.0981  0.0409  0.1493
  549MOL0     H74074   8.157   1.715   9.064  1.2570  0.5182  0.5008
  549MOL0     H74075   8.499   1.556   8.843  0.4512 -1.3615  0.6933
  549MOL0     H74076   8.730   1.663   8.866  1.6205  0.8053  2.4228
  549MOL0     H74077   9.121   1.605   8.986  1.8553  0.5722  0.2542
  549MOL0     H74078   9.347   1.654   9.013 -1.4796 -0.2294 -2.8311
  549MOL0     H74079   9.547   1.736   9.075  1.4050 -0.1590 -1.4951
  549MOL0     H74080   9.531   1.746   8.907 -1.6731  0.2643  0.4272
  549MOL0     H74081   9.690   1.931   8.917  0.3467 -2.0576 -1.1474
  549MOL0     H74082   9.682   1.920   9.100  0.1809  1.8718 -1.3188
  549MOL0     H74083   9.816   1.722   8.909 -0.9088  0.8034  0.0307
  549MOL0     H74084   9.889   1.839   9.029 -1.3461  1.6168  0.6549
  549MOL0     H74085   9.870   1.583   9.082 -2.5476 -2.0202 -1.8418
  549MOL0     H74086   9.701   1.632   9.135 -0.0530 -0.5709  0.9429
  549MOL0     H74087   9.812   1.810   9.273  1.7202 -0.5600  3.6576
  549MOL0     H74088   9.970   1.758   9.222  0.9826 -1.7684 -2.3675
  549MOL0     H74089   9.905   1.670   9.447  2.6600  0.3131 -0.6123
  549MOL0     H74090   9.766   1.578   9.378  0.8490 -3.8088  1.9675
  549MOL0     H74091  10.055   1.523   9.307  0.4529 -0.5073  0.4731
  549MOL0     H74092   9.909   1.438   9.256 -1.7795  1.5771  0.2868
  549MOL0     H74093  10.038   1.335   9.451 -0.3749 -1.6828 -3.3412
  549MOL0     H74094   9.973   1.469   9.553  2.0443  0.7297 -1.3137
  549MOL0     H74095   9.273   2.075   9.002  4.1371 -1.2175 -0.2454
  549MOL0     H74096   9.034   2.028   8.975 -1.4271 -1.7666 -1.1437
  549MOL0     H74097   8.591   1.895   9.204 -0.9075  2.1694 -1.2825
  549MOL0     H74098   8.393   1.748   9.216  3.1271 -1.0030  2.6688
  549MOL0     H74099   6.754   0.862   8.708  0.8101  0.5570  0.7498
  549MOL0     H74100   6.560   0.743   8.680  1.2955  2.4768  0.4198
  549MOL0     H74101   6.271   0.346   9.013  3.6383 -2.5135  0.7628
  549MOL0     H74102   6.078   0.171   8.978 -0.1985  3.0139  0.0821
  549MOL0     H74103   6.053  -0.210   8.772  0.9574 -0.2439  1.1209
  549MOL0     H74104   6.215  -0.158   8.739 -0.4559 -1.3914 -0.7968
  549MOL0     H74105   6.126  -0.031   8.528 -0.2135 -0.9686 -2.7394
  549MOL0     H74106   5.971  -0.110   8.567 -0.1662 -1.8337  1.9117
  549MOL0     H74107   6.074  -0.338   8.510 -1.4817  0.2753 -0.9488
  549MOL0     H74108   6.230  -0.286   8.536  0.0554 -1.9162 -2.6276
  549MOL0     H74109   6.162  -0.312   8.306  0.7839  0.9096 -1.2843
  549MOL0     H74110   6.048  -0.179   8.307 -1.4878 -0.7088  1.2527
  549MOL0     H74111   6.439   0.005   8.323  0.1893  0.6648 -3.1346
  549MOL0     H74112   6.292   0.027   8.637  0.1140  1.1401 -0.1570
  549MOL0     H74113   6.579   0.198   8.662 -0.0341 -2.6375 -0.0603
  549MOL0     H74114   6.489   0.126   8.538  1.2426 -0.2869  1.4074
  549MOL0     H74115   6.467   0.297   8.560  1.1611  2.1608  0.9887
  550MOL0     O74116   7.467   3.181   0.773  0.2912  0.1626 -0.0816
  550MOL0     C74117   7.399   3.156   0.672  0.3703 -0.2347 -0.2343
  550MOL0     O74118   7.454   3.113   0.552  0.2694 -0.8523 -0.5184
  550MOL0     C74119   7.582   3.155   0.526 -0.2549 -0.2646  0.6323
  550MOL0     C74120   7.681   3.053   0.523 -0.3181  0.3082  0.0723
  550MOL0     C74121   7.805   3.080   0.467  0.2801  0.6025  0.0773
  550MOL0     C74122   7.833   3.209   0.414 -0.7727  0.1195 -0.1669
  550MOL0     O74123   7.957   3.257   0.384 -0.4553  0.6371 -0.3406
  550MOL0     C74124   8.025   3.177   0.286  0.2772 -0.1906 -0.3269
  550MOL0     C74125   8.131   3.273   0.220 -0.7327 -0.3570 -0.3494
  550MOL0     C74126   8.234   3.326   0.325 -0.0119 -0.1583  0.4516
  550MOL0     C74127   8.360   3.367   0.249 -0.4451 -0.2297 -0.0539
  550MOL0     C74128   8.487   3.391   0.338 -0.3219  0.0548  0.7436
  550MOL0     C74129   8.624   3.412   0.271 -0.1413  0.3117  0.4756
  550MOL0     C74130   8.664   3.277   0.208  0.4259 -0.7162 -0.0714
  550MOL0     C74131   8.778   3.295   0.112  0.1347 -0.5824 -0.2286
  550MOL0     N74132   8.898   3.357   0.164  0.0649  0.2568 -0.3661
  550MOL0     C74133   9.023   3.293   0.165 -0.1570 -0.4816  0.9827
  550MOL0     C74134   9.101   3.402   0.157 -0.2915  0.8569 -0.8015
  550MOL0     C74135   9.250   3.379   0.164  0.4628 -0.1556  0.0535
  550MOL0     C74136   9.321   3.494   0.236 -0.6521 -0.3657 -0.0761
  550MOL0     C74137   9.475   3.480   0.238  0.1212  1.4436 -0.5550
  550MOL0     C74138   9.555   3.564   0.340 -0.3708 -0.2690 -0.1928
  550MOL0     O74139   9.691   3.511   0.345 -0.3957  0.3412 -0.4937
  550MOL0     C74140   9.792   3.592   0.393 -0.6355 -0.4211 -0.1737
  550MOL0     C74141   9.776   3.721   0.443 -0.3652  0.0528  0.8066
  550MOL0     C74142   9.883   3.812   0.470  0.9255  0.2615 -0.6343
  550MOL0     C74143  10.018   3.765   0.464  0.6689 -0.7820  0.4487
  550MOL0     C74144  10.130   3.853   0.489  0.4476 -0.1632 -0.2879
  550MOL0     O74145  10.245   3.828   0.425 -0.0457 -0.1457  0.8476
  550MOL0     C74146  10.374   3.867   0.458 -0.8968 -0.4221 -0.4224
  550MOL0     C74147  10.471   3.850   0.362  0.6516  0.0836  0.9104
  550MOL0     C74148  10.604   3.909   0.362 -0.6217  0.2452  0.1236
  550MOL0     C74149  10.649   3.972   0.477 -0.3150  0.0965  0.4270
  550MOL0     O74150  10.782   4.007   0.495 -0.0741  0.1589 -0.0019
  550MOL0     C74151  10.885   3.971   0.405 -0.4121  0.0606  1.4843
  550MOL0     C74152  10.927   3.826   0.423 -0.9314  0.0451  0.8893
  550MOL0     C74153  11.023   3.780   0.303  0.8154 -0.0612  0.9103
  550MOL0     C74154  11.147   3.859   0.272  0.1246  0.2064  0.0018
  550MOL0     C74155  11.276   3.778   0.241  0.2275  0.4250  0.2274
  550MOL0     C74156  11.398   3.867   0.242  0.5350 -0.2835  0.7272
  550MOL0     C74157  11.532   3.792   0.204 -0.1411 -0.1531 -0.4448
  550MOL0     C74158  11.640   3.915   0.182  0.0736 -0.1622  0.9182
  550MOL0    Cl74159  11.587   3.979   0.026  0.0602  0.3925  0.0103
  550MOL0     C74160  10.551   4.000   0.571 -0.5157 -0.0221  0.8720
  550MOL0     C74161  10.417   3.953   0.566  0.2787  0.5643  0.7746
  550MOL0     O74162  10.111   3.956   0.564 -0.1120  0.4939 -0.0307
  550MOL0     C74163  10.037   3.636   0.420  0.1785 -1.3336  0.0788
  550MOL0     C74164   9.927   3.548   0.390  0.0359 -0.1410  0.2969
  550MOL0     N74165   9.028   3.516   0.146 -1.6675 -0.2262  1.3907
  550MOL0     N74166   8.905   3.489   0.154 -0.1674 -0.3496  0.0106
  550MOL0     C74167   7.726   3.305   0.410 -0.5009 -0.0933 -0.2796
  550MOL0     C74168   7.601   3.276   0.466  0.1482 -0.4622 -0.5538
  550MOL0     C74169   7.252   3.162   0.679  0.0360 -0.1589 -0.7290
  550MOL0     C74170   7.192   3.123   0.806  0.2159 -0.5773 -0.1087
  550MOL0     C74171   7.058   3.093   0.817  0.6740 -0.5341  0.4681
  550MOL0     C74172   6.976   3.108   0.705  1.2151 -0.8586 -0.5635
  550MOL0     O74173   6.843   3.064   0.716 -0.2470  0.2635  0.8315
  550MOL0     C74174   6.743   3.101   0.612  0.0791 -0.4199  0.5680
  550MOL0     C74175   6.609   3.032   0.631  0.3325 -0.0506 -0.7230
  550MOL0     C74176   6.512   3.063   0.521  0.1499  0.2886 -0.8273
  550MOL0     C74177   6.389   2.972   0.545  0.5511  0.3644  0.0356
  550MOL0     C74178   6.414   2.839   0.489 -0.2569 -0.1614  0.2339
  550MOL0     C74179   6.447   2.727   0.450 -0.8421 -0.8855  0.7573
  550MOL0     C74180   7.031   3.154   0.586 -0.2009  0.1294  0.3267
  550MOL0     C74181   7.169   3.179   0.567  0.3184  0.6163 -0.5887
  550MOL0     C74182   7.209   3.250   0.440 -0.1846 -0.1147  0.1301
  550MOL0     H74183   7.645   2.965   0.575 -0.4772  1.4071  1.9151
  550MOL0     H74184   7.894   3.019   0.479 -0.1550 -0.2109 -0.7269
  550MOL0     H74185   8.080   3.096   0.335 -2.3355 -0.9361  1.5862
  550MOL0     H74186   7.960   3.144   0.204  1.9347  2.5684 -2.9689
  550MOL0     H74187   8.078   3.355   0.170 -1.1354  0.5698  1.5060
  550MOL0     H74188   8.195   3.225   0.146  3.1883  0.4901  2.1710
  550MOL0     H74189   8.265   3.245   0.392  0.2991 -1.7942 -1.5773
  550MOL0     H74190   8.198   3.416   0.376  3.5775  1.4689  0.4565
  550MOL0     H74191   8.378   3.282   0.182 -3.1515 -0.2930 -0.8138
  550MOL0     H74192   8.336   3.454   0.186 -0.0569 -0.5581 -0.6625
  550MOL0     H74193   8.466   3.488   0.385  0.1566  0.7494 -0.4307
  550MOL0     H74194   8.506   3.316   0.415 -0.3810 -1.6420 -0.8324
  550MOL0     H74195   8.613   3.490   0.195  1.8646 -0.3929 -0.5933
  550MOL0     H74196   8.696   3.439   0.349  0.5934 -0.6646  0.1558
  550MOL0     H74197   8.585   3.237   0.143 -1.2079  0.3357  1.1863
  550MOL0     H74198   8.681   3.198   0.282 -0.0910 -0.8283 -0.0729
  550MOL0     H74199   8.821   3.198   0.087  3.2647  0.5868  0.1034
  550MOL0     H74200   8.733   3.339   0.023 -1.3683  0.0809  0.8157
  550MOL0     H74201   9.046   3.187   0.171  1.4234 -0.3401 -1.4722
  550MOL0     H74202   9.290   3.286   0.207  2.1298  0.3764 -0.2479
  550MOL0     H74203   9.284   3.381   0.060 -0.0970 -0.8559 -0.1460
  550MOL0     H74204   9.298   3.594   0.199 -2.7499 -1.0690 -0.8437
  550MOL0     H74205   9.294   3.487   0.342  2.2308  1.2820  0.8602
  550MOL0     H74206   9.503   3.482   0.132  2.7393 -3.6401 -0.2779
  550MOL0     H74207   9.482   3.373   0.263 -1.8645  1.5123  0.4754
  550MOL0     H74208   9.513   3.564   0.441 -1.4199 -0.4233 -0.6202
  550MOL0     H74209   9.545   3.667   0.305 -1.0223 -1.2464 -3.2437
  550MOL0     H74210   9.679   3.765   0.464 -1.7205 -1.6045 -1.4217
  550MOL0     H74211   9.856   3.908   0.511 -2.0702 -1.3412  1.5750
  550MOL0     H74212  10.452   3.798   0.268 -1.6666  2.0884  0.1897
  550MOL0     H74213  10.675   3.889   0.283 -1.2275  0.5267 -0.5057
  550MOL0     H74214  10.857   3.991   0.301  1.8792  1.8583  1.1241
  550MOL0     H74215  10.966   4.042   0.425  0.1851 -1.1191  3.5281
  550MOL0     H74216  10.985   3.815   0.515  0.4881  0.7764  0.1012
  550MOL0     H74217  10.847   3.751   0.412 -0.2926 -0.3682 -1.5707
  550MOL0     H74218  11.040   3.673   0.321 -1.8323 -0.7781 -0.3076
  550MOL0     H74219  10.962   3.776   0.212  0.2046  1.7734  1.1971
  550MOL0     H74220  11.177   3.900   0.369  0.2265 -2.4931  1.2108
  550MOL0     H74221  11.127   3.937   0.198 -0.9943 -1.7254 -1.8408
  550MOL0     H74222  11.273   3.732   0.141 -2.5980  0.1991  0.3350
  550MOL0     H74223  11.280   3.699   0.317  2.5920 -0.2608 -0.5029
  550MOL0     H74224  11.380   3.940   0.162  1.4120  0.8337  1.5105
  550MOL0     H74225  11.418   3.922   0.335  0.2450 -0.7449  1.0681
  550MOL0     H74226  11.518   3.722   0.121 -1.8148  0.9180 -1.1168
  550MOL0     H74227  11.549   3.731   0.293 -2.3894 -1.6401 -0.9494
  550MOL0     H74228  11.631   3.983   0.267 -3.3951  1.6435 -0.6534
  550MOL0     H74229  11.746   3.889   0.179  0.1531  0.1977 -0.8671
  550MOL0     H74230  10.587   4.062   0.653  2.9619 -0.0545 -0.4485
  550MOL0     H74231  10.348   3.999   0.636 -0.1561  0.9385  0.1108
  550MOL0     H74232  10.136   3.593   0.415  0.7690  0.0909 -1.0411
  550MOL0     H74233   9.951   3.450   0.349 -0.1923  0.1969 -0.6585
  550MOL0     H74234   7.757   3.401   0.367 -0.4218 -0.7214 -1.6878
  550MOL0     H74235   7.523   3.349   0.446 -0.7143 -1.2546 -0.1770
  550MOL0     H74236   7.262   3.110   0.888  0.6987 -0.1624 -0.4445
  550MOL0     H74237   7.026   3.068   0.918  0.4859  2.3712  1.2342
  550MOL0     H74238   6.786   3.073   0.516  1.1296  1.9852  0.2646
  550MOL0     H74239   6.730   3.208   0.595 -1.0487 -0.9653 -2.6812
  550MOL0     H74240   6.572   3.064   0.729 -0.0999 -0.4181 -0.7582
  550MOL0     H74241   6.621   2.924   0.646 -0.4338 -0.2686 -1.5434
  550MOL0     H74242   6.551   3.050   0.420 -1.0173 -0.8865 -1.1624
  550MOL0     H74243   6.477   3.165   0.536 -0.5791 -0.1300  0.5016
  550MOL0     H74244   6.344   2.956   0.643 -0.6308 -0.9787 -0.6841
  550MOL0     H74245   6.308   3.000   0.476 -0.4658 -1.7788  0.2703
  550MOL0     H74246   6.469   2.634   0.402  3.2110  1.0604 -1.6922
  550MOL0     H74247   6.971   3.163   0.496 -1.2279  2.3499  1.1692
  550MOL0     H74248   7.257   3.341   0.478  0.2607 -1.3443  2.7261
  550MOL0     H74249   7.268   3.189   0.371 -1.4119  1.5818 -2.5759
  550MOL0     H74250   7.127   3.285   0.377  0.7111 -2.0674 -2.3041
  551MOL0     O74251   9.372   2.860   8.460  0.4621 -0.3003  0.0808
  551MOL0     C74252   9.288   2.791   8.404 -0.2191 -0.0008  0.4139
  551MOL0     O74253   9.300   2.755   8.268  0.3514 -0.1655 -0.4105
  551MOL0     C74254   9.410   2.809   8.198  1.0575 -0.7098  0.6735
  551MOL0     C74255   9.402   2.945   8.160  0.5641  0.1129 -0.7003
  551MOL0     C74256   9.515   3.005   8.104  0.6958 -0.4724  0.4577
  551MOL0     C74257   9.635   2.926   8.080 -0.1418 -1.1170 -0.4845
  551MOL0     O74258   9.756   2.971   8.033  0.1464  0.2402 -0.4171
  551MOL0     C74259   9.755   3.102   7.982  0.0320  0.0524 -0.8562
  551MOL0     C74260   9.894   3.146   7.934 -0.2286 -0.0157  0.2039
  551MOL0     C74261   9.918   3.102   7.793  0.1739  0.3832 -0.1395
  551MOL0     C74262  10.019   3.195   7.729 -0.8311 -0.8863 -0.5022
  551MOL0     C74263  10.084   3.117   7.616 -0.3405  0.2278 -0.4041
  551MOL0     C74264  10.218   3.174   7.568  0.0562 -0.2955  0.3683
  551MOL0     C74265  10.326   3.148   7.675 -0.1688  0.0952 -0.5729
  551MOL0     C74266  10.465   3.223   7.659 -0.2105  0.1072  0.3569
  551MOL0     N74267  10.551   3.139   7.570  0.2700 -0.9358 -0.1827
  551MOL0     C74268  10.546   3.167   7.431  0.4002  0.9304 -0.3837
  551MOL0     C74269  10.661   3.107   7.390 -0.4966  0.7807  0.4020
  551MOL0     C74270  10.717   3.115   7.248 -0.2982  0.3230 -0.5749
  551MOL0     C74271  10.696   3.256   7.190  0.4823 -0.7234  0.7969
  551MOL0     C74272  10.724   3.373   7.283 -0.0454 -0.1201 -0.1513
  551MOL0     C74273  10.871   3.382   7.337 -0.2762 -0.4813 -0.0509
  551MOL0     O74274  10.956   3.405   7.226 -0.1046 -0.2009  0.4590
  551MOL0     C74275  11.090   3.362   7.226 -0.4679  0.2131 -0.3194
  551MOL0     C74276  11.128   3.243   7.286  0.5819 -0.0770  0.6492
  551MOL0     C74277  11.259   3.195   7.283 -0.6263 -0.6614 -0.2841
  551MOL0     C74278  11.354   3.263   7.207 -0.3293 -0.2182  0.4374
  551MOL0     C74279  11.482   3.206   7.183 -0.8615 -0.5274  0.2654
  551MOL0     O74280  11.549   3.251   7.076  0.0225  0.4833 -0.8409
  551MOL0     C74281  11.680   3.208   7.060 -0.2089 -0.3562  0.7724
  551MOL0     C74282  11.735   3.164   6.934  0.6897  0.6773  0.1489
  551MOL0     C74283  11.863   3.119   6.916 -0.3233 -0.9171  0.2677
  551MOL0     C74284  11.946   3.117   7.024 -0.3102  0.0207  1.2036
  551MOL0     O74285  12.084   3.092   7.017 -0.3295  0.6184 -0.0225
  551MOL0     C74286  12.173   3.185   6.949 -0.5094 -0.1238 -0.0550
  551MOL0     C74287  12.317   3.155   6.983  0.2829  0.5552 -0.5154
  551MOL0     C74288  12.416   3.255   6.928  1.2275  0.6307 -0.8357
  551MOL0     C74289  12.563   3.225   6.954 -0.1014 -0.0029 -0.2908
  551MOL0     C74290  12.656   3.332   6.896  0.0370  0.0302 -0.2253
  551MOL0     C74291  12.797   3.310   6.940 -0.4765 -0.0651  0.4714
  551MOL0     C74292  12.866   3.187   6.893  0.5911  0.2479 -0.5878
  551MOL0     C74293  12.857   3.077   7.004 -0.2674  0.5015  0.1255
  551MOL0    Cl74294  12.937   3.112   7.153  0.4524  0.9534 -0.0505
  551MOL0     C74295  11.901   3.159   7.153  0.6110 -0.6795  0.2346
  551MOL0     C74296  11.768   3.202   7.166  0.4226  0.0668  0.5358
  551MOL0     O74297  11.517   3.122   7.260  0.2978 -0.7842 -0.5315
  551MOL0     C74298  11.318   3.386   7.154 -0.5551 -0.3970  0.3581
  551MOL0     C74299  11.189   3.437   7.160  0.3778  0.2914  0.6050
  551MOL0     N74300  10.738   3.065   7.501 -0.8349  0.2253  0.3272
  551MOL0     N74301  10.673   3.093   7.603  0.2811  0.1193 -0.1592
  551MOL0     C74302   9.636   2.799   8.125 -0.7690  0.4996  0.9739
  551MOL0     C74303   9.530   2.739   8.195 -0.5213 -0.0617 -0.4360
  551MOL0     C74304   9.158   2.774   8.479 -0.3360  0.0330  0.0510
  551MOL0     C74305   9.149   2.839   8.609 -0.5980 -0.1579  0.2847
  551MOL0     C74306   9.036   2.818   8.683 -0.3005  0.3782 -0.4764
  551MOL0     C74307   8.924   2.756   8.635 -0.3701  0.7421 -0.3520
  551MOL0     O74308   8.817   2.746   8.716 -0.2032  0.0344 -0.1561
  551MOL0     C74309   8.694   2.673   8.687 -0.8294 -0.2030  0.0578
  551MOL0     C74310   8.630   2.639   8.818 -0.2168  0.3292  0.1822
  551MOL0     C74311   8.506   2.550   8.788  0.8381 -0.3985  0.6643
  551MOL0     C74312   8.387   2.640   8.800  0.5327  0.5011  0.4014
  551MOL0     C74313   8.270   2.577   8.754  0.1472 -0.2072 -0.1490
  551MOL0     C74314   8.166   2.532   8.709  0.4502 -0.2780 -0.5885
  551MOL0     C74315   8.939   2.696   8.513  0.1904  0.3702  0.3013
  551MOL0     C74316   9.053   2.696   8.436  0.8741 -0.1276 -0.5842
  551MOL0     C74317   9.054   2.615   8.308 -0.1813 -0.0214 -0.9808
  551MOL0     H74318   9.312   3.003   8.179 -0.1205 -1.5349  1.5197
  551MOL0     H74319   9.509   3.112   8.084 -2.0004 -0.4491  1.1394
  551MOL0     H74320   9.681   3.106   7.901 -1.3686  0.1487  0.3926
  551MOL0     H74321   9.707   3.174   8.049 -0.2334 -0.3279 -0.6331
  551MOL0     H74322   9.974   3.104   7.997  0.5481  2.2988  0.8464
  551MOL0     H74323   9.893   3.255   7.926 -0.7449 -0.1696 -3.5704
  551MOL0     H74324   9.824   3.106   7.736  1.5937 -3.3576 -3.1784
  551MOL0     H74325   9.947   2.997   7.781 -3.6061 -0.8698  0.3870
  551MOL0     H74326   9.976   3.290   7.696 -3.5950 -1.0493  2.2155
  551MOL0     H74327  10.089   3.228   7.805 -1.7473  0.0921 -0.0665
  551MOL0     H74328  10.099   3.010   7.634 -2.5737 -0.1175 -0.2082
  551MOL0     H74329  10.012   3.125   7.534 -1.9187  2.5580  1.0840
  551MOL0     H74330  10.238   3.135   7.468 -0.0521  1.5522 -0.4042
  551MOL0     H74331  10.220   3.283   7.560 -1.8926 -0.2305  0.3815
  551MOL0     H74332  10.344   3.041   7.668  0.1626  0.1100 -0.0146
  551MOL0     H74333  10.286   3.177   7.773 -3.0542  0.4243 -1.7395
  551MOL0     H74334  10.452   3.323   7.617 -2.1054  1.2198  3.2527
  551MOL0     H74335  10.515   3.226   7.756  0.6506  0.7417 -0.0971
  551MOL0     H74336  10.467   3.222   7.381 -0.6459  0.9795  1.2449
  551MOL0     H74337  10.824   3.092   7.249 -0.2187  0.5976 -1.6455
  551MOL0     H74338  10.673   3.035   7.188  0.1788  0.1666 -0.7241
  551MOL0     H74339  10.771   3.266   7.111 -0.1771  0.8322  0.3370
  551MOL0     H74340  10.594   3.261   7.149  0.8701 -0.5370 -0.1794
  551MOL0     H74341  10.657   3.364   7.369  0.6070  0.6517  0.4541
  551MOL0     H74342  10.700   3.467   7.232  1.0788  0.4914  0.3956
  551MOL0     H74343  10.899   3.286   7.381  2.4724 -0.0207 -0.5978
  551MOL0     H74344  10.885   3.455   7.417  2.5498 -2.0023  1.0184
  551MOL0     H74345  11.055   3.178   7.333 -0.6811  0.2883 -0.7579
  551MOL0     H74346  11.281   3.100   7.332 -1.7789 -1.7740 -1.8005
  551MOL0     H74347  11.674   3.169   6.845  1.2546  2.3339 -0.1714
  551MOL0     H74348  11.899   3.079   6.822 -0.6784 -1.3716  0.3231
  551MOL0     H74349  12.149   3.176   6.843 -0.4346 -1.5875  0.0199
  551MOL0     H74350  12.159   3.289   6.978  1.3982 -0.0985  0.9205
  551MOL0     H74351  12.330   3.147   7.091  0.8394 -3.0551 -0.7434
  551MOL0     H74352  12.346   3.054   6.952 -1.5992 -0.9528  2.2540
  551MOL0     H74353  12.405   3.253   6.819  2.4880  0.3674 -0.9732
  551MOL0     H74354  12.392   3.354   6.967  3.3212  0.3194  1.5160
  551MOL0     H74355  12.585   3.130   6.903 -1.0237 -0.7571  0.6783
  551MOL0     H74356  12.570   3.233   7.062  1.3700  0.1865 -0.3743
  551MOL0     H74357  12.629   3.436   6.917 -0.9767 -0.4615  1.0423
  551MOL0     H74358  12.650   3.328   6.787  1.0873  0.0998 -0.2945
  551MOL0     H74359  12.846   3.398   6.896 -1.5152 -0.6122 -1.9768
  551MOL0     H74360  12.802   3.311   7.049 -0.2942 -0.1118  0.4623
  551MOL0     H74361  12.970   3.213   6.874  0.8618 -1.0160 -0.9201
  551MOL0     H74362  12.821   3.141   6.804 -1.7853  0.7729  0.2664
  551MOL0     H74363  12.753   3.050   7.026  0.6338 -1.1653  2.9783
  551MOL0     H74364  12.904   2.987   6.964  1.4405  2.2245 -1.9599
  551MOL0     H74365  11.966   3.164   7.240  0.1483 -1.6742  0.6531
  551MOL0     H74366  11.733   3.234   7.263  0.7816  1.9635  0.0749
  551MOL0     H74367  11.390   3.449   7.101 -2.6053  1.9491  0.1734
  551MOL0     H74368  11.161   3.530   7.112 -1.3465  0.5213  1.9743
  551MOL0     H74369   9.725   2.739   8.111 -0.5017  0.4199  2.7299
  551MOL0     H74370   9.530   2.639   8.236 -0.1470  0.5562  1.1293
  551MOL0     H74371   9.225   2.904   8.650  0.6175 -1.0239 -0.5419
  551MOL0     H74372   9.033   2.871   8.778  3.9575  1.0150 -0.4609
  551MOL0     H74373   8.709   2.581   8.630  2.5236  0.4220 -0.2910
  551MOL0     H74374   8.628   2.733   8.625 -0.5155  0.3114  0.2102
  551MOL0     H74375   8.604   2.734   8.866 -0.4613  0.6905 -0.6587
  551MOL0     H74376   8.702   2.583   8.878  1.0874  2.0212  0.2899
  551MOL0     H74377   8.510   2.474   8.866  0.9780 -3.4809 -2.1110
  551MOL0     H74378   8.512   2.500   8.691  0.2248 -2.4324  1.6151
  551MOL0     H74379   8.364   2.668   8.904  0.9561 -1.5765  1.0837
  551MOL0     H74380   8.408   2.726   8.735  0.2031  0.6481  0.4829
  551MOL0     H74381   8.074   2.489   8.674 -0.0130 -0.7394  1.1057
  551MOL0     H74382   8.853   2.639   8.479 -0.0527  1.4059 -0.9171
  551MOL0     H74383   9.144   2.556   8.325 -1.4441 -1.2517  2.3515
  551MOL0     H74384   8.977   2.538   8.303  0.6974 -0.9243 -1.0486
  551MOL0     H74385   9.064   2.672   8.215  1.9890 -2.8767 -2.6663
  552MOL0     O74386   5.189   4.572   3.543  0.2732 -0.2046  0.3005
  552MOL0     C74387   5.153   4.468   3.486  0.3866 -0.4934 -0.1122
  552MOL0     O74388   5.225   4.353   3.448  0.5294 -0.0540  0.1326
  552MOL0     C74389   5.338   4.347   3.513 -1.2974  0.2048 -0.8281
  552MOL0     C74390   5.454   4.372   3.440 -0.4265  0.0430 -0.0366
  552MOL0     C74391   5.583   4.365   3.495  0.6454 -0.6825  0.1449
  552MOL0     C74392   5.592   4.325   3.629 -0.4698  0.4070 -0.3570
  552MOL0     O74393   5.716   4.319   3.697 -0.0453 -0.7367  0.1033
  552MOL0     C74394   5.741   4.441   3.780  0.6163 -0.2632  0.7191
  552MOL0     C74395   5.851   4.533   3.723 -0.8058  0.6412 -1.3454
  552MOL0     C74396   5.992   4.468   3.734 -0.6445  0.5022  0.3172
  552MOL0     C74397   6.100   4.543   3.651 -1.2036 -0.3088  0.2564
  552MOL0     C74398   6.246   4.508   3.698  0.3337  0.4335  0.0195
  552MOL0     C74399   6.361   4.574   3.619  0.8671  0.6162 -0.0479
  552MOL0     C74400   6.492   4.580   3.690 -0.0614  0.3604 -0.6848
  552MOL0     C74401   6.606   4.622   3.598 -0.1715 -0.2767  0.3133
  552MOL0     N74402   6.733   4.604   3.674 -0.0960  0.5265  0.3107
  552MOL0     C74403   6.804   4.485   3.676 -0.4452 -0.0603  0.2162
  552MOL0     C74404   6.927   4.517   3.732  0.0821  0.3646  0.1096
  552MOL0     C74405   7.034   4.424   3.772  0.3294  0.2523  1.1726
  552MOL0     C74406   7.151   4.413   3.670  0.4771 -0.0396 -0.5042
  552MOL0     C74407   7.248   4.306   3.714  0.3965 -0.4780  0.1024
  552MOL0     C74408   7.369   4.302   3.620 -0.5645  0.0982 -0.4870
  552MOL0     O74409   7.446   4.420   3.629 -0.8443  0.3524  0.0805
  552MOL0     C74410   7.560   4.416   3.554 -0.6255 -0.0614 -0.4103
  552MOL0     C74411   7.591   4.321   3.454 -0.1212  0.2454 -0.4750
  552MOL0     C74412   7.713   4.343   3.377 -0.5018  0.6616  0.5886
  552MOL0     C74413   7.791   4.452   3.400 -0.4564  0.4529  0.6942
  552MOL0     C74414   7.922   4.479   3.322  0.4675  0.2545  0.5738
  552MOL0     O74415   7.960   4.611   3.328  0.2125  0.5939 -0.3622
  552MOL0     C74416   8.089   4.660   3.286 -0.6173 -0.2580 -0.3523
  552MOL0     C74417   8.127   4.790   3.337 -0.2790  0.5060  0.6098
  552MOL0     C74418   8.247   4.847   3.300 -0.4717  0.3503  0.2560
  552MOL0     C74419   8.341   4.779   3.213  0.1007  0.5133  0.6545
  552MOL0     O74420   8.463   4.837   3.187  0.3171 -0.3724  0.1814
  552MOL0     C74421   8.564   4.771   3.110  0.5785 -0.3398 -0.4120
  552MOL0     C74422   8.656   4.889   3.069  1.2757  0.1461  0.3189
  552MOL0     C74423   8.792   4.839   3.003 -1.0614 -0.9960  0.0283
  552MOL0     C74424   8.902   4.949   3.016  1.2877  0.3651 -0.4503
  552MOL0     C74425   9.045   4.900   2.995  0.8398 -0.0356  0.6107
  552MOL0     C74426   9.163   5.005   2.999  0.7522  0.0713  1.2887
  552MOL0     C74427   9.148   5.091   2.869  0.1762 -0.1249 -0.3536
  552MOL0     C74428   9.245   5.211   2.876 -0.0721 -0.6483 -0.2869
  552MOL0    Cl74429   9.410   5.194   2.944 -0.1872  0.7148  0.0982
  552MOL0     C74430   8.304   4.652   3.166 -0.3477  0.5363  0.3932
  552MOL0     C74431   8.177   4.592   3.197 -0.4354 -0.1152 -0.1348
  552MOL0     O74432   7.984   4.377   3.284 -0.4669  0.1757  0.3648
  552MOL0     C74433   7.753   4.547   3.494  0.1440  0.1659 -0.0220
  552MOL0     C74434   7.639   4.525   3.574  0.0090 -0.3138  0.0942
  552MOL0     N74435   6.922   4.650   3.776 -0.0732  0.1126 -0.0465
  552MOL0     N74436   6.808   4.702   3.737  0.4737  0.5710  0.6673
  552MOL0     C74437   5.478   4.312   3.711  0.0145 -0.6525  0.0268
  552MOL0     C74438   5.353   4.323   3.653  0.8040  0.2790  0.5705
  552MOL0     C74439   5.018   4.464   3.449 -0.2923 -1.0345  0.2682
  552MOL0     C74440   4.991   4.483   3.313 -0.5816  0.0077  0.5385
  552MOL0     C74441   4.866   4.488   3.269  0.3000 -0.3793 -0.6418
  552MOL0     C74442   4.755   4.478   3.355 -0.1039  0.3362 -0.0869
  552MOL0     O74443   4.625   4.486   3.309 -0.1840 -0.3555 -0.0836
  552MOL0     C74444   4.603   4.543   3.183  0.0175 -0.3089  0.1089
  552MOL0     C74445   4.456   4.582   3.152 -0.0474 -0.0429 -0.2400
  552MOL0     C74446   4.356   4.474   3.172 -0.4298  0.3231 -0.3176
  552MOL0     C74447   4.214   4.518   3.165 -0.0495 -0.1175  0.1386
  552MOL0     C74448   4.115   4.410   3.158 -0.3088 -0.4479 -0.4578
  552MOL0     C74449   4.043   4.316   3.156  0.0188 -0.3382  0.4734
  552MOL0     C74450   4.786   4.466   3.495  0.7648 -0.6152 -1.1797
  552MOL0     C74451   4.912   4.466   3.547  0.1330 -0.9258 -0.5461
  552MOL0     C74452   4.935   4.447   3.698 -0.5165  0.1866  0.1083
  552MOL0     H74453   5.446   4.398   3.335  0.4972  0.7099  0.0496
  552MOL0     H74454   5.666   4.380   3.427  0.6706 -1.0578  0.0940
  552MOL0     H74455   5.652   4.503   3.790  1.1245  0.7005 -0.5206
  552MOL0     H74456   5.780   4.410   3.878  2.6558 -1.6404 -0.4634
  552MOL0     H74457   5.842   4.623   3.785 -0.8202 -1.1591  1.4318
  552MOL0     H74458   5.822   4.567   3.623 -2.5696  0.8070 -0.8185
  552MOL0     H74459   5.976   4.367   3.696  0.4213  1.3418 -2.6054
  552MOL0     H74460   6.015   4.455   3.840  0.0141 -0.9668  0.0220
  552MOL0     H74461   6.086   4.523   3.545  0.1965 -0.9401  0.1608
  552MOL0     H74462   6.074   4.648   3.667 -0.6215 -0.1600  0.2405
  552MOL0     H74463   6.261   4.536   3.802 -0.7106  0.3760  0.1926
  552MOL0     H74464   6.258   4.400   3.707 -0.7909  0.4362  2.1600
  552MOL0     H74465   6.374   4.512   3.529  2.2867 -2.1960  1.9481
  552MOL0     H74466   6.338   4.678   3.594  3.4058  1.9694  2.6200
  552MOL0     H74467   6.520   4.484   3.734 -1.5767  0.4930  0.6545
  552MOL0     H74468   6.481   4.646   3.776  3.7396  1.3288 -0.7426
  552MOL0     H74469   6.601   4.556   3.511  0.6774  1.5302 -1.1952
  552MOL0     H74470   6.599   4.726   3.565 -1.9644 -0.9187 -1.5381
  552MOL0     H74471   6.776   4.386   3.642  1.4269 -1.2658  1.9500
  552MOL0     H74472   7.075   4.444   3.871  1.7165 -1.6630  1.0228
  552MOL0     H74473   6.982   4.328   3.773 -0.4371  0.6629  1.2562
  552MOL0     H74474   7.103   4.381   3.577  0.5126  0.3593 -0.6575
  552MOL0     H74475   7.198   4.511   3.659 -0.5102  0.5688  0.4767
  552MOL0     H74476   7.198   4.210   3.701  0.7859 -0.5429 -1.0897
  552MOL0     H74477   7.281   4.322   3.817 -0.6529 -1.9163  0.6993
  552MOL0     H74478   7.339   4.295   3.515  1.1165 -1.3370 -0.9166
  552MOL0     H74479   7.436   4.222   3.654 -1.5759  0.6275  3.2612
  552MOL0     H74480   7.522   4.242   3.427  0.3094 -1.4333  2.9104
  552MOL0     H74481   7.749   4.281   3.296  0.4545 -0.6143  1.9195
  552MOL0     H74482   8.059   4.830   3.412 -1.8002 -0.1453 -0.3688
  552MOL0     H74483   8.286   4.940   3.342 -0.6417  1.5481 -2.0451
  552MOL0     H74484   8.604   4.693   3.174 -0.3624  1.2038  2.2322
  552MOL0     H74485   8.519   4.728   3.020  0.6282 -1.1680 -0.0420
  552MOL0     H74486   8.603   4.951   2.996  0.9236 -2.5194 -1.8486
  552MOL0     H74487   8.681   4.949   3.157  1.6572  1.4680 -0.6517
  552MOL0     H74488   8.833   4.752   3.055 -0.1855  0.0110  1.0659
  552MOL0     H74489   8.783   4.797   2.903 -0.7130 -1.6106  0.2530
  552MOL0     H74490   8.891   4.987   3.118 -0.9938  1.7053 -1.1111
  552MOL0     H74491   8.882   5.032   2.947  0.9221  1.0177  0.4121
  552MOL0     H74492   9.044   4.856   2.895 -0.5110  0.8760  0.2132
  552MOL0     H74493   9.067   4.812   3.057 -1.8030 -2.2952 -1.4147
  552MOL0     H74494   9.146   5.075   3.082 -0.1702  0.6380  0.6360
  552MOL0     H74495   9.261   4.957   3.010 -0.4416 -2.1228  3.3856
  552MOL0     H74496   9.041   5.112   2.864 -0.0180 -1.0376 -0.1073
  552MOL0     H74497   9.167   5.028   2.782  0.4599  2.1253 -2.0144
  552MOL0     H74498   9.276   5.251   2.779  5.7028  1.8522  2.1401
  552MOL0     H74499   9.195   5.280   2.945 -2.8373  0.2916 -2.9670
  552MOL0     H74500   8.373   4.595   3.105  0.5349  2.1975 -0.2250
  552MOL0     H74501   8.152   4.495   3.155  3.6380 -0.9305 -1.0986
  552MOL0     H74502   7.814   4.634   3.513  0.7185 -0.0228 -0.9003
  552MOL0     H74503   7.616   4.609   3.637 -2.7315 -1.8915  1.3524
  552MOL0     H74504   5.490   4.290   3.817  1.3437  1.0949  0.2947
  552MOL0     H74505   5.271   4.317   3.724  2.4373  1.1176  2.6491
  552MOL0     H74506   5.064   4.486   3.234 -1.6666  2.6414 -0.4810
  552MOL0     H74507   4.846   4.500   3.163 -2.7149 -2.0992 -0.3890
  552MOL0     H74508   4.641   4.468   3.114 -0.7093 -0.6996  0.1272
  552MOL0     H74509   4.666   4.632   3.174  0.2626 -0.6175 -1.5492
  552MOL0     H74510   4.456   4.607   3.046  1.8769 -1.2234 -0.5640
  552MOL0     H74511   4.438   4.673   3.210  1.6197  0.5636 -0.6216
  552MOL0     H74512   4.361   4.430   3.272 -0.6966 -0.6242 -0.7099
  552MOL0     H74513   4.379   4.391   3.104  2.4733  0.3990  0.4519
  552MOL0     H74514   4.187   4.591   3.241 -0.7329 -0.5221  0.2918
  552MOL0     H74515   4.210   4.577   3.073 -1.8294 -1.3009 -0.5900
  552MOL0     H74516   3.962   4.247   3.147 -0.3459  0.1849 -0.3104
  552MOL0     H74517   4.696   4.459   3.554  1.0805  3.8095  0.1672
  552MOL0     H74518   5.027   4.495   3.734  0.4868 -2.0347  0.7393
  552MOL0     H74519   4.856   4.494   3.757  1.1344 -1.2560  3.7952
  552MOL0     H74520   4.935   4.339   3.718  1.6182  0.0803 -0.1563
  553MOL0     O74521   1.061   8.267   1.901  1.0511 -0.0504  0.4228
  553MOL0     C74522   0.963   8.332   1.943 -0.1631 -0.3025 -0.1699
  553MOL0     O74523   0.934   8.461   1.907 -0.4157  0.3676 -0.2077
  553MOL0     C74524   1.035   8.534   1.861  0.2227  0.2694  0.0016
  553MOL0     C74525   1.100   8.505   1.740  0.2460 -0.2939 -0.8336
  553MOL0     C74526   1.205   8.580   1.685 -0.1995  0.2020 -0.6921
  553MOL0     C74527   1.240   8.697   1.748  1.1193  0.4468 -1.0250
  553MOL0     O74528   1.337   8.766   1.695 -0.3471  0.4649  0.0014
  553MOL0     C74529   1.405   8.863   1.776 -0.9249  0.1105 -0.0828
  553MOL0     C74530   1.510   8.938   1.680  0.5912 -0.2050 -0.8221
  553MOL0     C74531   1.595   9.032   1.771  0.2844 -1.1139 -0.4977
  553MOL0     C74532   1.718   9.057   1.686 -0.1231 -0.1722  0.0069
  553MOL0     C74533   1.801   9.181   1.736 -0.9285  0.3105 -0.4038
  553MOL0     C74534   1.914   9.199   1.634 -0.0177 -0.2910  0.7288
  553MOL0     C74535   2.002   9.315   1.663  0.1480  0.1818 -0.0102
  553MOL0     C74536   2.121   9.337   1.564 -0.5719 -0.0586  0.2986
  553MOL0     N74537   2.200   9.454   1.600  0.4901  0.1332  0.4731
  553MOL0     C74538   2.268   9.461   1.718 -0.1520  0.0643  0.0813
  553MOL0     C74539   2.338   9.576   1.706  0.3856  0.4691  0.4164
  553MOL0     C74540   2.436   9.637   1.803 -0.7918  0.4474  0.2467
  553MOL0     C74541   2.372   9.728   1.914 -0.5101 -0.7085 -0.1310
  553MOL0     C74542   2.376   9.869   1.844  0.1037 -0.8324 -0.4699
  553MOL0     C74543   2.317   9.986   1.925 -0.6090 -0.5574  0.6189
  553MOL0     O74544   2.366  10.000   2.052 -0.0309  0.6235  0.5742
  553MOL0     C74545   2.494  10.036   2.070  0.4685 -0.4352  0.3353
  553MOL0     C74546   2.565  10.142   2.005  0.2360  0.9133  0.2026
  553MOL0     C74547   2.697  10.162   2.041  0.3709  0.0134 -0.8524
  553MOL0     C74548   2.773  10.090   2.131 -0.2374 -0.8002 -0.1161
  553MOL0     C74549   2.927  10.111   2.141 -0.3712 -0.2327 -0.4182
  553MOL0     O74550   2.979  10.229   2.078 -0.7162  0.4561 -0.7394
  553MOL0     C74551   3.109  10.254   2.112  0.1865  0.4469  0.2262
  553MOL0     C74552   3.197  10.281   2.007 -0.5825 -0.0552  0.7774
  553MOL0     C74553   3.334  10.321   2.027 -0.5797 -0.8187  1.0534
  553MOL0     C74554   3.383  10.334   2.162 -1.2566  0.3747  0.2524
  553MOL0     O74555   3.514  10.365   2.166  0.0319  0.2534 -0.0599
  553MOL0     C74556   3.584  10.390   2.292  0.3243  0.3236  0.2954
  553MOL0     C74557   3.724  10.343   2.255  0.4347  0.1608  1.1593
  553MOL0     C74558   3.814  10.317   2.376  0.5910  0.8114  0.5362
  553MOL0     C74559   3.949  10.284   2.315  0.0316 -0.4652  1.2124
  553MOL0     C74560   4.062  10.321   2.410 -0.6541  0.5981  0.3924
  553MOL0     C74561   4.194  10.263   2.381 -0.0310  0.6678  0.5101
  553MOL0     C74562   4.296  10.306   2.491 -0.6893  0.2669  0.1881
  553MOL0     C74563   4.433  10.227   2.468  0.9167 -0.2025  0.7488
  553MOL0    Cl74564   4.401  10.048   2.466 -0.5206 -0.0230 -0.1129
  553MOL0     C74565   3.301  10.302   2.267  0.1242 -0.1142  0.2096
  553MOL0     C74566   3.164  10.269   2.246  0.8882 -0.3920  0.0098
  553MOL0     O74567   2.994  10.033   2.221 -0.1042 -0.4445 -0.2361
  553MOL0     C74568   2.705   9.980   2.193 -0.7586  0.8151 -0.4648
  553MOL0     C74569   2.566   9.954   2.154  0.7951 -0.1539 -0.0209
  553MOL0     N74570   2.308   9.629   1.584  0.0288  0.7013  0.9447
  553MOL0     N74571   2.228   9.551   1.511 -0.2325  0.2799  0.4311
  553MOL0     C74572   1.183   8.721   1.881  0.3947  0.0811 -0.1320
  553MOL0     C74573   1.081   8.637   1.935  0.3948 -0.1384  0.0966
  553MOL0     C74574   0.870   8.253   2.030  0.2966 -0.3330 -0.1643
  553MOL0     C74575   0.870   8.112   2.017 -0.1015  0.2471  0.3437
  553MOL0     C74576   0.775   8.035   2.091  0.7036 -0.8001 -0.0359
  553MOL0     C74577   0.683   8.089   2.176  0.0305  0.5803 -0.3309
  553MOL0     O74578   0.600   7.993   2.229  0.0119  0.3614  0.4826
  553MOL0     C74579   0.490   8.032   2.310  0.1341  0.5424 -0.4122
  553MOL0     C74580   0.528   8.054   2.456  0.1081 -0.3354  0.5206
  553MOL0     C74581   0.559   7.920   2.527 -0.3088  0.3862 -0.3071
  553MOL0     C74582   0.569   7.933   2.681 -0.2104  0.1445 -0.1332
  553MOL0     C74583   0.607   7.802   2.737  0.4550  0.0074  0.2428
  553MOL0     C74584   0.639   7.704   2.793  0.3170 -0.8885 -1.0668
  553MOL0     C74585   0.703   8.225   2.214  0.1367  0.5479 -0.5028
  553MOL0     C74586   0.792   8.310   2.136  1.1500  0.9536  1.0132
  553MOL0     C74587   0.819   8.455   2.174 -0.2254  0.7401 -1.3920
  553MOL0     H74588   1.067   8.412   1.696  0.4316 -1.8269  2.0424
  553MOL0     H74589   1.245   8.551   1.588 -0.9813 -0.8712 -0.7212
  553MOL0     H74590   1.338   8.937   1.818  0.1183  2.8524 -2.8181
  553MOL0     H74591   1.473   8.814   1.847  0.9050 -0.9049 -2.3838
  553MOL0     H74592   1.451   8.988   1.603  1.2397 -0.5245 -1.5328
  553MOL0     H74593   1.564   8.864   1.621  1.3438  1.2050 -1.9255
  553MOL0     H74594   1.619   8.989   1.868  1.2382  1.1146  0.3195
  553MOL0     H74595   1.541   9.126   1.780  0.2644 -1.2595  1.0625
  553MOL0     H74596   1.783   8.970   1.698 -1.1604 -0.8671  0.6724
  553MOL0     H74597   1.691   9.069   1.580 -2.1144  0.4740  0.5619
  553MOL0     H74598   1.742   9.273   1.741  2.0130  2.4231 -1.6448
  553MOL0     H74599   1.828   9.154   1.838 -1.0124  0.5001 -0.3311
  553MOL0     H74600   1.979   9.112   1.624  1.2089  0.2510  3.1862
  553MOL0     H74601   1.862   9.211   1.538 -1.2442  0.1754  1.4305
  553MOL0     H74602   2.049   9.296   1.760  1.8295 -0.9396 -0.9904
  553MOL0     H74603   1.949   9.411   1.656 -0.5444 -0.1516  0.4998
  553MOL0     H74604   2.183   9.249   1.579  1.0767  0.9289 -0.4712
  553MOL0     H74605   2.076   9.342   1.465  1.8418 -1.2060 -0.9459
  553MOL0     H74606   2.259   9.401   1.807 -3.6375  0.5145  0.1529
  553MOL0     H74607   2.474   9.546   1.851 -4.6875 -0.7273  1.4695
  553MOL0     H74608   2.516   9.689   1.750 -0.3667 -1.8388 -1.5081
  553MOL0     H74609   2.270   9.701   1.940 -0.5447  1.1497  2.0289
  553MOL0     H74610   2.420   9.724   2.012 -1.2110 -0.6297  0.2164
  553MOL0     H74611   2.315   9.863   1.752 -1.3131 -0.6661  0.4263
  553MOL0     H74612   2.477   9.899   1.816 -0.5120  5.4841  2.4472
  553MOL0     H74613   2.208   9.973   1.934 -0.4286 -1.5691  1.6175
  553MOL0     H74614   2.336  10.080   1.873  2.9191 -1.9686 -0.9745
  553MOL0     H74615   2.514  10.209   1.936 -0.9711  1.8285  1.9241
  553MOL0     H74616   2.737  10.250   1.991  2.2149  1.3466  2.6070
  553MOL0     H74617   3.160  10.294   1.906 -1.6321  1.0949  1.2852
  553MOL0     H74618   3.402  10.348   1.946 -0.0294 -1.2286  1.3673
  553MOL0     H74619   3.580  10.498   2.311  0.7501  0.3873  0.0215
  553MOL0     H74620   3.549  10.349   2.387 -2.0360  4.5177  1.5180
  553MOL0     H74621   3.724  10.258   2.186 -1.2488  1.7557 -0.9728
  553MOL0     H74622   3.772  10.416   2.188  0.1884  0.5858  1.4445
  553MOL0     H74623   3.824  10.392   2.455  4.2413  0.3023  0.7334
  553MOL0     H74624   3.769  10.228   2.420 -0.9473  0.3490 -1.7592
  553MOL0     H74625   3.967  10.336   2.220 -1.4056 -2.5438 -0.2977
  553MOL0     H74626   3.948  10.178   2.286  0.2989 -0.1515  0.0008
  553MOL0     H74627   4.034  10.287   2.511  1.5834 -2.7239  0.0727
  553MOL0     H74628   4.063  10.429   2.399  0.5346  0.4405 -1.5783
  553MOL0     H74629   4.191  10.155   2.367 -0.7758  0.5998  1.1458
  553MOL0     H74630   4.236  10.310   2.292  1.4980 -3.0042 -0.8764
  553MOL0     H74631   4.261  10.282   2.592 -0.5845  1.9591  0.6456
  553MOL0     H74632   4.311  10.413   2.501 -0.8750  0.0995  3.1530
  553MOL0     H74633   4.460  10.245   2.364 -1.9533 -1.3111 -0.2955
  553MOL0     H74634   4.505  10.263   2.542  1.1892 -2.1965  1.5141
  553MOL0     H74635   3.342  10.307   2.367 -3.5393 -1.7201  2.0076
  553MOL0     H74636   3.101  10.241   2.330  0.1974  2.8553  0.7109
  553MOL0     H74637   2.766   9.922   2.261  2.3932  4.1070 -0.1896
  553MOL0     H74638   2.514   9.865   2.189  3.3003 -1.7485 -0.0530
  553MOL0     H74639   1.221   8.812   1.926  1.0405 -1.9102  3.7723
  553MOL0     H74640   1.036   8.655   2.032  2.0551  0.6076  0.7654
  553MOL0     H74641   0.934   8.061   1.946  0.5031  1.6824 -0.1775
  553MOL0     H74642   0.782   7.930   2.063 -1.8829 -0.7030 -1.3981
  553MOL0     H74643   0.408   7.959   2.303  0.1579  0.0003  3.2496
  553MOL0     H74644   0.457   8.126   2.266  2.6598  1.4681 -0.5176
  553MOL0     H74645   0.452   8.106   2.516  0.6664  1.1926 -0.0479
  553MOL0     H74646   0.620   8.112   2.469  0.5643 -1.1921  1.2033
  553MOL0     H74647   0.654   7.873   2.497  0.9759 -0.4685  4.3603
  553MOL0     H74648   0.485   7.847   2.492 -1.9471  0.6687  2.3329
  553MOL0     H74649   0.639   8.010   2.715  0.1087  0.3931 -1.2756
  553MOL0     H74650   0.475   7.971   2.722  0.3000  0.0144  1.1791
  553MOL0     H74651   0.684   7.639   2.865  0.9729  0.0420 -0.6028
  553MOL0     H74652   0.629   8.269   2.280 -1.1744  0.0069 -1.5480
  553MOL0     H74653   0.768   8.478   2.269 -3.2124  1.1354 -2.9679
  553MOL0     H74654   0.928   8.460   2.179 -0.1120 -0.9446 -1.6070
  553MOL0     H74655   0.782   8.527   2.101  2.2735  0.3053 -3.1867
  554MOL0     O74656   5.129   1.749  10.597  0.6955  0.5049 -0.1874
  554MOL0     C74657   5.123   1.631  10.546 -0.2083  0.5223  0.6020
  554MOL0     O74658   5.014   1.556  10.533 -0.4324 -0.5470 -0.3056
  554MOL0     C74659   4.886   1.609  10.542 -0.8552  0.0556 -0.3326
  554MOL0     C74660   4.847   1.722  10.467  1.0700  0.2304  0.1053
  554MOL0     C74661   4.722   1.781  10.487  0.2849  0.0925  0.1496
  554MOL0     C74662   4.628   1.720  10.581 -1.1594  0.6070 -0.1371
  554MOL0     O74663   4.505   1.764  10.611  0.6518 -0.2140  0.4153
  554MOL0     C74664   4.447   1.839  10.497  0.6803 -0.5433 -0.3149
  554MOL0     C74665   4.302   1.873  10.525  0.2375  0.0278  0.2619
  554MOL0     C74666   4.241   1.968  10.423  0.5471 -0.3565  0.2331
  554MOL0     C74667   4.099   1.995  10.438 -0.4392 -0.5649  0.2927
  554MOL0     C74668   4.070   2.065  10.568  0.6226  0.2291 -0.6600
  554MOL0     C74669   3.940   2.133  10.554 -0.1837 -0.3405 -0.5864
  554MOL0     C74670   3.883   2.178  10.693 -0.6761  0.4069 -0.4067
  554MOL0     C74671   3.762   2.268  10.667 -0.5952 -0.0530 -0.3276
  554MOL0     N74672   3.647   2.193  10.610  0.3112 -0.6415  0.2787
  554MOL0     C74673   3.576   2.101  10.677  0.0801  1.3958 -0.0427
  554MOL0     C74674   3.476   2.062  10.596 -0.3461  0.4590  0.5793
  554MOL0     C74675   3.374   1.961  10.637  0.2509 -0.4077  0.8271
  554MOL0     C74676   3.289   1.888  10.523 -0.0390  0.2025 -0.0242
  554MOL0     C74677   3.367   1.782  10.445  0.2703  0.8762  0.3281
  554MOL0     C74678   3.460   1.833  10.341 -0.7705 -0.3413 -0.1142
  554MOL0     O74679   3.504   1.737  10.245 -0.4137 -0.3158  0.7171
  554MOL0     C74680   3.624   1.687  10.251  0.3469  0.4003  0.5028
  554MOL0     C74681   3.642   1.571  10.321  0.2677  0.2874  0.1676
  554MOL0     C74682   3.767   1.518  10.340  0.9844 -0.1891 -0.4768
  554MOL0     C74683   3.879   1.578  10.276 -0.3999  0.0694 -0.9886
  554MOL0     C74684   4.015   1.532  10.313  0.7778  0.1103 -0.3590
  554MOL0     O74685   4.117   1.609  10.288  0.2910  0.1202 -0.0321
  554MOL0     C74686   4.244   1.548  10.305  0.6957 -0.3555  0.6422
  554MOL0     C74687   4.286   1.508  10.430  0.3617 -0.0096  0.2865
  554MOL0     C74688   4.406   1.444  10.445 -1.6465 -0.5381 -0.1782
  554MOL0     C74689   4.497   1.439  10.341 -1.3458  0.1154 -0.0988
  554MOL0     O74690   4.609   1.367  10.361  0.5151 -0.3209 -0.0656
  554MOL0     C74691   4.715   1.351  10.256  0.6332 -0.7358  0.5490
  554MOL0     C74692   4.826   1.254  10.297 -0.5848 -0.7344  0.7090
  554MOL0     C74693   4.949   1.276  10.220 -0.5625 -0.2649  0.8852
  554MOL0     C74694   5.048   1.159  10.240  0.7389  0.3230 -0.3450
  554MOL0     C74695   5.168   1.173  10.144 -0.7019  0.6418  0.6646
  554MOL0     C74696   5.250   1.043  10.143  0.4412 -0.0488 -0.0830
  554MOL0     C74697   5.395   1.073  10.103  0.4625  0.2953  0.0377
  554MOL0     C74698   5.476   0.943  10.075  0.0210 -0.0894  0.1635
  554MOL0    Cl74699   5.655   0.995  10.096 -0.5460 -0.2223 -0.4049
  554MOL0     C74700   4.467   1.506  10.224  0.7409  0.3950  0.5090
  554MOL0     C74701   4.336   1.555  10.205 -0.2339 -0.1984  0.2995
  554MOL0     O74702   4.019   1.428  10.384 -0.3956  0.0751  0.7403
  554MOL0     C74703   3.860   1.695  10.207  0.0898 -0.1554  0.0965
  554MOL0     C74704   3.735   1.755  10.203  0.8582 -0.5156 -0.0896
  554MOL0     N74705   3.487   2.133  10.480  0.9366 -0.8726 -0.2053
  554MOL0     N74706   3.587   2.216  10.489 -0.4943 -0.5920  0.6080
  554MOL0     C74707   4.666   1.604  10.649  0.3417  0.2441  0.2079
  554MOL0     C74708   4.799   1.544  10.628  0.4580  0.2023 -0.4967
  554MOL0     C74709   5.249   1.566  10.498  0.5119  0.0956  0.0464
  554MOL0     C74710   5.229   1.428  10.454  0.7009 -0.3616 -0.8930
  554MOL0     C74711   5.335   1.353  10.406 -1.4233 -1.0630  0.4104
  554MOL0     C74712   5.461   1.411  10.400  0.0784  0.2748 -0.0734
  554MOL0     O74713   5.559   1.334  10.352  0.0481  0.3948 -0.2029
  554MOL0     C74714   5.692   1.392  10.335  0.4372 -0.6022 -0.9529
  554MOL0     C74715   5.781   1.290  10.278 -0.0491 -0.3325  0.6626
  554MOL0     C74716   5.788   1.165  10.371  0.4832  0.2649 -0.2762
  554MOL0     C74717   5.878   1.169  10.502 -0.4164 -0.4431  0.1775
  554MOL0     C74718   5.792   1.201  10.618 -0.0024 -0.9326 -0.5384
  554MOL0     C74719   5.725   1.242  10.704 -0.2602 -0.1010 -0.9544
  554MOL0     C74720   5.483   1.539  10.463  0.5836 -0.1569 -0.0052
  554MOL0     C74721   5.373   1.618  10.512 -0.0192  0.1904  0.2374
  554MOL0     C74722   5.400   1.764  10.548 -0.4805  0.5709  0.5798
  554MOL0     H74723   4.925   1.744  10.395  0.6431 -1.8188 -1.0680
  554MOL0     H74724   4.697   1.870  10.429  1.2867 -0.5178 -1.2751
  554MOL0     H74725   4.499   1.933  10.482  0.3495 -0.4220 -0.7466
  554MOL0     H74726   4.443   1.782  10.404 -3.1790 -2.0154  0.5572
  554MOL0     H74727   4.275   1.916  10.622 -0.7379 -0.2894  0.1441
  554MOL0     H74728   4.240   1.782  10.527 -1.6781  1.2263 -0.8815
  554MOL0     H74729   4.256   1.924  10.323 -1.3789 -0.5546 -0.0077
  554MOL0     H74730   4.296   2.060  10.442  1.4132 -1.3868  3.1412
  554MOL0     H74731   4.059   2.034  10.344 -3.0116 -0.7349  1.2464
  554MOL0     H74732   4.038   1.904  10.441 -1.3558  0.0261 -0.0684
  554MOL0     H74733   4.064   1.979  10.636 -0.2587  1.0247  0.2966
  554MOL0     H74734   4.152   2.133  10.592  0.1549  1.3152 -2.0425
  554MOL0     H74735   3.955   2.224  10.495  0.3592  0.7046  1.1001
  554MOL0     H74736   3.868   2.063  10.509  0.5239 -1.2206 -0.3824
  554MOL0     H74737   3.958   2.246  10.737 -0.2917  2.5250 -3.9348
  554MOL0     H74738   3.852   2.092  10.752  0.2570  0.7657  0.6726
  554MOL0     H74739   3.736   2.335  10.750  1.3244 -1.6658  1.6890
  554MOL0     H74740   3.797   2.338  10.590  1.4991 -0.9835 -0.2886
  554MOL0     H74741   3.584   2.069  10.780 -0.3110 -3.2202 -1.2102
  554MOL0     H74742   3.416   1.887  10.707  1.1680  1.4365  2.3268
  554MOL0     H74743   3.305   2.021  10.696  2.2035  1.2250  1.5373
  554MOL0     H74744   3.199   1.846  10.568 -0.6788 -1.3060 -2.4799
  554MOL0     H74745   3.259   1.977  10.466 -0.5484  0.2873  0.3691
  554MOL0     H74746   3.296   1.712  10.402  0.4451 -0.1497  1.6538
  554MOL0     H74747   3.428   1.722  10.514  1.5506 -0.4088 -1.8344
  554MOL0     H74748   3.554   1.867  10.387  0.7325 -1.3115 -2.2743
  554MOL0     H74749   3.411   1.914  10.286 -0.3483  0.0891  0.1373
  554MOL0     H74750   3.551   1.536  10.368  0.9436  0.0863  1.3615
  554MOL0     H74751   3.783   1.438  10.412 -0.5417  1.5349  1.9464
  554MOL0     H74752   4.215   1.503  10.511  3.5695 -2.3097  3.2408
  554MOL0     H74753   4.424   1.393  10.539 -1.9757  0.3977  0.4038
  554MOL0     H74754   4.679   1.316  10.159  1.3631 -2.9444  0.9993
  554MOL0     H74755   4.755   1.450  10.234 -1.4074  0.1415  0.5880
  554MOL0     H74756   4.847   1.265  10.404 -1.5395  0.4203  0.7934
  554MOL0     H74757   4.801   1.149  10.278  3.5298 -1.4693 -1.9626
  554MOL0     H74758   4.938   1.287  10.111 -1.9030 -0.0284  1.0312
  554MOL0     H74759   5.011   1.357  10.259 -0.9476  0.0979  0.7517
  554MOL0     H74760   4.995   1.069  10.208  0.6794  0.4603 -0.6444
  554MOL0     H74761   5.082   1.153  10.343 -1.3475  0.0952  0.3871
  554MOL0     H74762   5.226   1.255  10.189  1.7038 -0.0940 -0.9448
  554MOL0     H74763   5.135   1.200  10.043  1.9006  0.3391 -0.3498
  554MOL0     H74764   5.265   1.006  10.245 -0.5510 -0.6962 -0.1630
  554MOL0     H74765   5.197   0.969  10.082  1.5074  0.3598 -1.5765
  554MOL0     H74766   5.439   1.129  10.187 -0.5045  0.0215  0.7372
  554MOL0     H74767   5.384   1.126  10.008 -1.6021 -0.6841 -0.3109
  554MOL0     H74768   5.448   0.861  10.143  0.7550 -2.9396 -2.7364
  554MOL0     H74769   5.453   0.904   9.975  3.7834 -2.2202 -0.0502
  554MOL0     H74770   4.531   1.517  10.137  0.9948  0.1692  0.6658
  554MOL0     H74771   4.304   1.606  10.115 -2.1629 -0.1597  0.9591
  554MOL0     H74772   3.943   1.746  10.158 -0.4846 -1.3646 -2.3229
  554MOL0     H74773   3.736   1.858  10.168  0.4342 -1.6273 -3.6575
  554MOL0     H74774   4.599   1.558  10.721 -0.7026 -1.5123 -1.7637
  554MOL0     H74775   4.824   1.462  10.694  0.5559 -0.1892 -1.0213
  554MOL0     H74776   5.135   1.374  10.460 -0.5075  1.7857  1.8078
  554MOL0     H74777   5.328   1.248  10.377  0.3716 -0.9507 -0.5371
  554MOL0     H74778   5.734   1.422  10.431  1.4846  2.5332 -2.2733
  554MOL0     H74779   5.680   1.472  10.262 -1.3439  0.1742  0.1175
  554MOL0     H74780   5.880   1.337  10.271 -1.1052  2.1378  1.2894
  554MOL0     H74781   5.757   1.273  10.173 -0.0245  1.8420  0.2598
  554MOL0     H74782   5.838   1.105  10.294  2.1093  2.0713 -0.7105
  554MOL0     H74783   5.694   1.117  10.398  1.7678 -1.8493  0.7063
  554MOL0     H74784   5.939   1.084  10.535 -0.8079 -0.3471  1.1768
  554MOL0     H74785   5.945   1.255  10.490  1.9757 -1.6452  3.3490
  554MOL0     H74786   5.669   1.283  10.786  0.5472 -0.9855  0.0747
  554MOL0     H74787   5.581   1.585  10.455 -0.1631  2.1108  2.5593
  554MOL0     H74788   5.332   1.838  10.505  2.3515  1.6233 -2.5808
  554MOL0     H74789   5.403   1.764  10.658  1.7558  2.8987  0.5967
  554MOL0     H74790   5.499   1.792  10.511 -0.7093  1.1761  0.4150
  555MOL0     O74791   4.876   9.902   3.651 -0.0213 -0.1556  0.1973
  555MOL0     C74792   4.850   9.882   3.530 -0.4468  0.7853  0.2507
  555MOL0     O74793   4.939   9.857   3.430  0.2907  0.6840  0.3859
  555MOL0     C74794   5.069   9.850   3.476 -1.0399 -0.1236  0.1579
  555MOL0     C74795   5.124   9.727   3.525  1.1304  0.4113  0.4883
  555MOL0     C74796   5.261   9.725   3.571 -0.0862  0.2937 -0.4867
  555MOL0     C74797   5.347   9.834   3.565 -0.6069  0.2469  0.5890
  555MOL0     O74798   5.479   9.808   3.617  0.0005 -0.1889 -0.2420
  555MOL0     C74799   5.560   9.927   3.615  0.0187  0.3237 -0.2218
  555MOL0     C74800   5.683   9.898   3.702  0.2054 -0.5113  0.3573
  555MOL0     C74801   5.771  10.016   3.737  0.2635 -0.0070 -1.3962
  555MOL0     C74802   5.902   9.988   3.794  0.2251 -0.7131 -0.4003
  555MOL0     C74803   5.969  10.098   3.879 -0.7866 -1.2102 -0.6642
  555MOL0     C74804   6.095  10.039   3.939  0.7260  0.8047 -0.3782
  555MOL0     C74805   6.173  10.158   3.999  0.0840 -0.2352 -0.6737
  555MOL0     C74806   6.297  10.116   4.077 -0.8934  0.6223  0.8005
  555MOL0     N74807   6.417  10.076   3.995 -0.3471  0.2264  0.9423
  555MOL0     C74808   6.545  10.068   4.040  0.4313 -0.8532 -0.2406
  555MOL0     C74809   6.612  10.027   3.931 -0.2465 -0.1276 -0.8704
  555MOL0     C74810   6.766  10.029   3.924 -0.1297 -0.1363 -0.4825
  555MOL0     C74811   6.827   9.906   3.984 -0.1269  0.3779  0.6042
  555MOL0     C74812   6.862   9.807   3.873 -0.1941  0.7411  0.7794
  555MOL0     C74813   6.938   9.692   3.927 -0.2571 -0.3283 -0.1893
  555MOL0     O74814   7.032   9.718   4.033 -0.0472  0.3954  0.1064
  555MOL0     C74815   7.165   9.742   4.005  0.1356 -0.1960 -0.4826
  555MOL0     C74816   7.218   9.768   3.874  0.3717  0.0902 -0.9111
  555MOL0     C74817   7.350   9.803   3.846 -0.1431  0.8036 -0.4047
  555MOL0     C74818   7.451   9.797   3.953  1.0184 -0.2982  0.2833
  555MOL0     C74819   7.588   9.815   3.922  0.1064  1.0912 -0.5843
  555MOL0     O74820   7.635   9.810   3.794 -0.1628  0.8877  0.3307
  555MOL0     C74821   7.775   9.827   3.790  0.4796 -0.0070  0.6324
  555MOL0     C74822   7.818   9.938   3.718  0.3589  0.3008  1.3699
  555MOL0     C74823   7.942   9.936   3.669  0.7700 -0.6354 -0.4163
  555MOL0     C74824   8.040   9.841   3.702  0.7030  0.3848 -0.2783
  555MOL0     O74825   8.167   9.862   3.670 -0.1254  0.0531  0.3551
  555MOL0     C74826   8.214   9.796   3.550 -0.3584 -0.2862  0.0596
  555MOL0     C74827   8.351   9.855   3.521 -0.2269 -0.2071  0.1752
  555MOL0     C74828   8.467   9.816   3.617 -0.2270  0.3569 -0.1520
  555MOL0     C74829   8.527   9.675   3.586 -1.2786 -0.4725 -0.3980
  555MOL0     C74830   8.648   9.636   3.680  0.3125 -0.2027 -0.2242
  555MOL0     C74831   8.769   9.718   3.661  0.3459 -0.6165  0.1968
  555MOL0     C74832   8.883   9.652   3.735 -0.2603  0.5487  0.6514
  555MOL0     C74833   9.013   9.722   3.705 -0.3312  0.4019 -0.3497
  555MOL0    Cl74834   9.012   9.870   3.797 -0.0543 -0.1834 -0.1091
  555MOL0     C74835   8.000   9.731   3.778 -0.3269  0.3032  0.0568
  555MOL0     C74836   7.869   9.725   3.829  0.6020  0.1319 -0.2076
  555MOL0     O74837   7.660   9.837   4.020  0.2154 -0.5034 -0.4004
  555MOL0     C74838   7.406   9.762   4.079 -0.2113 -0.1908  0.5964
  555MOL0     C74839   7.263   9.737   4.107 -0.3120 -0.6221 -0.2675
  555MOL0     N74840   6.531   9.992   3.830  0.3152  0.1673  0.1103
  555MOL0     N74841   6.412  10.012   3.873 -0.4267 -0.4129  0.8144
  555MOL0     C74842   5.290   9.950   3.508 -0.4962 -0.5579 -0.8966
  555MOL0     C74843   5.153   9.956   3.471  0.5639 -0.8765 -0.5406
  555MOL0     C74844   4.703   9.903   3.500 -0.0855 -0.2893  0.1289
  555MOL0     C74845   4.609   9.824   3.569 -0.0548 -1.1423 -0.3000
  555MOL0     C74846   4.479   9.837   3.536  0.1037  0.6538 -0.2011
  555MOL0     C74847   4.433   9.924   3.437 -0.3940 -1.1450  0.0529
  555MOL0     O74848   4.300   9.929   3.428  0.6304 -0.4630 -0.2423
  555MOL0     C74849   4.243   9.990   3.308  0.1595  0.8405  1.0736
  555MOL0     C74850   4.097   9.950   3.288  0.1539 -0.1751  0.0813
  555MOL0     C74851   4.032  10.033   3.170  0.1688  0.8368 -0.1917
  555MOL0     C74852   3.882   9.990   3.145 -0.2293  0.5696 -0.2585
  555MOL0     C74853   3.876   9.868   3.082 -0.0071  0.5500  0.4415
  555MOL0     C74854   3.865   9.762   3.020 -0.1269 -0.4133  0.2037
  555MOL0     C74855   4.525  10.003   3.374  0.7699 -0.2150  0.6782
  555MOL0     C74856   4.660   9.995   3.400 -0.5591  0.1111  0.6258
  555MOL0     C74857   4.759  10.091   3.330 -0.0974  0.4716 -0.0760
  555MOL0     H74858   5.061   9.639   3.539 -0.0261  1.2878  0.9319
  555MOL0     H74859   5.302   9.646   3.633  0.5472  0.8985 -0.1236
  555MOL0     H74860   5.581   9.950   3.510  1.7120 -0.2550 -0.0542
  555MOL0     H74861   5.511  10.014   3.658  0.6993 -0.1491  1.5930
  555MOL0     H74862   5.739   9.833   3.634 -0.7971 -1.2075  0.1805
  555MOL0     H74863   5.665   9.852   3.800  2.0210 -5.5102 -1.3575
  555MOL0     H74864   5.711  10.069   3.812 -0.0225  1.6816 -2.7659
  555MOL0     H74865   5.789  10.073   3.645  3.5331 -1.8299 -2.0221
  555MOL0     H74866   5.894   9.892   3.846  1.3565 -1.7897 -2.1034
  555MOL0     H74867   5.969   9.977   3.709 -1.5235 -1.2328 -1.7627
  555MOL0     H74868   5.993  10.190   3.825  1.1619 -1.4722 -0.3176
  555MOL0     H74869   5.903  10.125   3.962  1.2424 -0.2570  0.7045
  555MOL0     H74870   6.068   9.968   4.018  1.9612  1.5105  0.7153
  555MOL0     H74871   6.149   9.983   3.861 -0.8587 -4.1453  1.6617
  555MOL0     H74872   6.112  10.214   4.070  3.2780  1.3678  0.9969
  555MOL0     H74873   6.212  10.229   3.926  0.3010 -0.1251 -0.4520
  555MOL0     H74874   6.328  10.200   4.139 -0.9192  0.7853  0.5943
  555MOL0     H74875   6.285  10.031   4.144  3.5624 -1.1732 -0.3286
  555MOL0     H74876   6.585  10.093   4.138  1.6972  0.4799 -1.0678
  555MOL0     H74877   6.809  10.052   3.826  1.5553  0.1296  0.2950
  555MOL0     H74878   6.797  10.111   3.989 -3.3951  0.9409 -0.0606
  555MOL0     H74879   6.912   9.927   4.049 -0.8016  2.6646  0.8215
  555MOL0     H74880   6.754   9.859   4.051 -0.0228 -1.0442 -0.2314
  555MOL0     H74881   6.921   9.869   3.804 -3.3619  4.9148  1.4093
  555MOL0     H74882   6.769   9.770   3.828 -0.1597 -0.3868  1.6118
  555MOL0     H74883   6.984   9.636   3.845 -3.0409 -2.0515 -0.7198
  555MOL0     H74884   6.863   9.623   3.967 -2.5370  1.0690 -1.7765
  555MOL0     H74885   7.153   9.773   3.788 -0.7819 -1.3029 -0.1820
  555MOL0     H74886   7.374   9.825   3.742  0.4809 -0.8833 -0.6400
  555MOL0     H74887   7.757  10.024   3.691 -1.6594 -1.9841 -2.0616
  555MOL0     H74888   7.977  10.023   3.614 -0.5267  1.9222  2.4629
  555MOL0     H74889   8.227   9.690   3.570 -2.1442 -1.6539 -4.6939
  555MOL0     H74890   8.143   9.816   3.469 -0.2078 -2.9220 -0.8008
  555MOL0     H74891   8.385   9.818   3.424  1.3819  1.9641 -0.1620
  555MOL0     H74892   8.338   9.962   3.505  0.2499 -0.4204 -2.0218
  555MOL0     H74893   8.547   9.890   3.614  2.0106 -1.8140  1.7341
  555MOL0     H74894   8.440   9.810   3.723  0.6894 -2.5176  0.0060
  555MOL0     H74895   8.564   9.667   3.483  1.2295  0.5070  0.3431
  555MOL0     H74896   8.442   9.607   3.597 -1.0981 -0.2712  3.0269
  555MOL0     H74897   8.667   9.528   3.685  0.4019 -0.1553  0.5358
  555MOL0     H74898   8.613   9.660   3.781  0.8512 -0.8451  0.1182
  555MOL0     H74899   8.796   9.730   3.556  0.4593  0.7010  0.3603
  555MOL0     H74900   8.763   9.822   3.695 -2.2283  0.2589 -2.5112
  555MOL0     H74901   8.889   9.547   3.707 -3.1474 -0.0341  1.8901
  555MOL0     H74902   8.865   9.648   3.843 -1.7560  0.2702  0.4123
  555MOL0     H74903   9.094   9.657   3.738  0.0192 -0.6637 -3.1014
  555MOL0     H74904   9.027   9.734   3.597  0.3929  0.4129 -0.2615
  555MOL0     H74905   8.065   9.646   3.794  0.5250  0.6767 -1.2869
  555MOL0     H74906   7.835   9.642   3.889 -0.3321  0.8486  0.2854
  555MOL0     H74907   7.477   9.743   4.159  0.2816  0.0698  0.2236
  555MOL0     H74908   7.237   9.716   4.211  1.7142 -1.2801  0.1520
  555MOL0     H74909   5.352  10.039   3.506  1.4382 -1.7455  1.3625
  555MOL0     H74910   5.106  10.048   3.438  0.5804 -1.6015 -2.7613
  555MOL0     H74911   4.647   9.765   3.652  1.6019  1.5395  1.0296
  555MOL0     H74912   4.410   9.791   3.606  3.4489 -0.5231  2.6892
  555MOL0     H74913   4.309   9.955   3.229  1.7816  0.7647  2.4094
  555MOL0     H74914   4.249  10.099   3.302  0.3629  0.8372  1.2110
  555MOL0     H74915   4.043   9.958   3.383  1.2082 -1.1488  0.7772
  555MOL0     H74916   4.094   9.845   3.258  0.0100 -0.6708  1.7256
  555MOL0     H74917   4.084  10.017   3.075  0.9449  0.2656  0.3152
  555MOL0     H74918   4.035  10.139   3.197  0.3452  0.8345 -0.2035
  555MOL0     H74919   3.835   9.966   3.241 -1.2077 -2.5160 -1.3668
  555MOL0     H74920   3.816  10.052   3.084 -0.5345  0.5468  0.0504
  555MOL0     H74921   3.848   9.685   2.948 -0.4206  0.8528 -1.1104
  555MOL0     H74922   4.500  10.074   3.295  1.3017 -0.5180  0.2252
  555MOL0     H74923   4.705  10.183   3.304 -5.1838 -2.0865  0.2189
  555MOL0     H74924   4.834  10.114   3.406 -0.7919 -1.6232  1.3484
  555MOL0     H74925   4.807  10.040   3.246  0.6402 -1.2821  1.3422
  556MOL0     O74926   6.179  10.784  11.298 -0.2851  0.5031  0.3738
  556MOL0     C74927   6.136  10.886  11.242  0.7929 -0.8518  0.1480
  556MOL0     O74928   6.213  10.998  11.212 -0.2408  0.3088  0.4394
  556MOL0     C74929   6.348  10.983  11.206  0.3102 -0.0097  0.1364
  556MOL0     C74930   6.420  11.008  11.319  0.4645 -0.3868  0.2965
  556MOL0     C74931   6.560  10.993  11.319 -0.4595 -0.4529  0.1612
  556MOL0     C74932   6.629  10.950  11.203 -0.1260  0.3911  0.3012
  556MOL0     O74933   6.763  10.927  11.176  0.1012 -0.2746 -0.0595
  556MOL0     C74934   6.868  10.971  11.265 -0.9878  0.0777 -0.5159
  556MOL0     C74935   7.004  10.930  11.213  0.7980 -0.0806 -0.1515
  556MOL0     C74936   7.004  10.783  11.171  0.1921  0.0282 -0.5659
  556MOL0     C74937   7.149  10.740  11.167  0.3584 -0.0345  0.2858
  556MOL0     C74938   7.237  10.819  11.060 -0.5479  0.0481  0.7680
  556MOL0     C74939   7.351  10.729  11.006  0.2842  0.0550 -0.4007
  556MOL0     C74940   7.445  10.820  10.933 -0.0530 -0.2328 -0.2518
  556MOL0     C74941   7.596  10.773  10.935  0.7019 -0.8868 -0.1958
  556MOL0     N74942   7.615  10.657  10.844 -0.2208 -0.3239  0.7284
  556MOL0     C74943   7.643  10.668  10.711 -0.0063  0.3193 -0.1822
  556MOL0     C74944   7.653  10.538  10.668 -0.1750  0.1529 -1.1070
  556MOL0     C74945   7.712  10.483  10.547  0.4487  0.4645  0.7200
  556MOL0     C74946   7.630  10.515  10.422 -0.1621 -0.2057 -0.3228
  556MOL0     C74947   7.622  10.665  10.394  0.4342  0.0567  0.3395
  556MOL0     C74948   7.587  10.698  10.242  0.3818  0.1941 -0.1683
  556MOL0     O74949   7.666  10.637  10.140  1.5057  0.1821  0.3366
  556MOL0     C74950   7.794  10.668  10.151 -0.2647 -0.3459 -0.8380
  556MOL0     C74951   7.882  10.556  10.128  0.3646 -0.4758 -1.2161
  556MOL0     C74952   8.026  10.571  10.133 -0.0334 -0.1730 -0.4285
  556MOL0     C74953   8.087  10.698  10.168  0.6021  0.4790 -1.5811
  556MOL0     C74954   8.237  10.724  10.170 -0.8767  0.0132  0.7751
  556MOL0     O74955   8.328  10.637  10.103  0.7421 -0.6769  0.1114
  556MOL0     C74956   8.461  10.662  10.105  0.6446  1.2682 -0.3257
  556MOL0     C74957   8.533  10.726  10.207 -0.5803 -0.2666  0.5404
  556MOL0     C74958   8.673  10.739  10.203  0.1830  0.2926  0.3359
  556MOL0     C74959   8.752  10.681  10.097 -0.4745  0.6815  0.9661
  556MOL0     O74960   8.887  10.711  10.101  0.7063 -0.3828 -0.1390
  556MOL0     C74961   8.975  10.644  10.013  0.5882 -0.4950  0.1168
  556MOL0     C74962   9.125  10.676  10.038 -0.5195 -0.3292 -0.5383
  556MOL0     C74963   9.223  10.610   9.930  0.4354  0.0090 -0.2753
  556MOL0     C74964   9.252  10.701   9.803  0.0265 -0.0814  0.4872
  556MOL0     C74965   9.406  10.708   9.779 -0.3651 -0.3515 -0.4363
  556MOL0     C74966   9.469  10.570   9.758 -0.0861 -0.2447  0.1702
  556MOL0     C74967   9.615  10.588   9.700  0.6433  0.6166  0.0168
  556MOL0     C74968   9.612  10.615   9.550  0.4908  0.1056 -0.3194
  556MOL0    Cl74969   9.768  10.625   9.475 -0.1385  0.1451  0.4229
  556MOL0     C74970   8.677  10.613   9.999  0.5263 -0.1226 -0.1896
  556MOL0     C74971   8.536  10.602  10.008 -0.6220  0.8699  1.0330
  556MOL0     O74972   8.265  10.839  10.212 -0.1550 -0.7165 -0.6492
  556MOL0     C74973   8.000  10.806  10.199  0.7707  0.5717 -0.8491
  556MOL0     C74974   7.857  10.791  10.188  0.2732  0.3390 -0.3898
  556MOL0     N74975   7.631  10.456  10.781  0.8259 -0.9395 -0.1462
  556MOL0     N74976   7.614  10.528  10.886  0.1004  0.1976  0.1532
  556MOL0     C74977   6.549  10.932  11.085 -0.4732  0.0357 -0.0225
  556MOL0     C74978   6.411  10.944  11.089  0.7453 -0.3180 -0.0995
  556MOL0     C74979   5.988  10.892  11.219 -0.4658 -0.2662  0.5974
  556MOL0     C74980   5.931  11.019  11.239  0.3083  0.1956 -0.7634
  556MOL0     C74981   5.795  11.041  11.218 -0.4921 -0.6682 -0.3292
  556MOL0     C74982   5.715  10.937  11.171 -0.0668 -0.3073 -0.7051
  556MOL0     O74983   5.581  10.966  11.155  0.4262  0.2809 -0.7522
  556MOL0     C74984   5.486  10.857  11.172 -0.0193 -0.1657  0.4664
  556MOL0     C74985   5.431  10.811  11.043  0.4020  0.4769  0.2005
  556MOL0     C74986   5.382  10.907  10.934  1.1290  0.2460  0.5028
  556MOL0     C74987   5.279  10.997  10.977  0.0234  0.7243 -0.4459
  556MOL0     C74988   5.150  10.935  10.983  0.6958  0.1289  0.1141
  556MOL0     C74989   5.033  10.903  10.971  0.0466 -0.4200  0.3707
  556MOL0     C74990   5.767  10.810  11.146 -0.0164 -0.9654  0.8299
  556MOL0     C74991   5.905  10.790  11.170  0.0957  0.5499  0.0708
  556MOL0     C74992   5.965  10.658  11.122  1.4041  0.8138  0.6184
  556MOL0     H74993   6.363  11.039  11.406 -0.0404 -2.1335  0.6186
  556MOL0     H74994   6.621  11.026  11.403  1.2646 -0.0391 -1.2178
  556MOL0     H74995   6.852  11.076  11.290  1.0571 -0.0455  1.6117
  556MOL0     H74996   6.849  10.908  11.352  0.2741  0.8852  0.3666
  556MOL0     H74997   7.068  10.949  11.300 -0.3281 -1.4234  1.0272
  556MOL0     H74998   7.036  11.006  11.141  1.1151  0.7999  0.8949
  556MOL0     H74999   6.937  10.776  11.085 -1.3002  1.0592  0.4653
  556MOL0     H75000   6.959  10.724  11.251 -0.5807  0.9447 -0.3113
  556MOL0     H75001   7.194  10.746  11.266  1.1287 -0.5253 -0.0225
  556MOL0     H75002   7.152  10.634  11.139  0.8817 -0.3780  1.5695
  556MOL0     H75003   7.177  10.852  10.975  1.5475  1.8129 -0.0943
  556MOL0     H75004   7.263  10.913  11.108 -2.8108  1.3160 -0.3546
  556MOL0     H75005   7.396  10.670  11.087 -2.4151 -0.9253  0.4826
  556MOL0     H75006   7.307  10.653  10.942 -4.6808  2.0679  0.1796
  556MOL0     H75007   7.451  10.919  10.977 -0.8399 -0.1080 -0.4236
  556MOL0     H75008   7.420  10.829  10.827 -0.7656  0.5095 -0.0282
  556MOL0     H75009   7.659  10.858  10.906 -3.0754  1.6954 -1.6503
  556MOL0     H75010   7.614  10.740  11.037 -3.6785 -2.9009  0.1405
  556MOL0     H75011   7.654  10.761  10.657  1.1201 -0.5780 -1.5408
  556MOL0     H75012   7.813  10.516  10.521  0.5853 -2.0247 -2.7218
  556MOL0     H75013   7.712  10.373  10.547 -1.0261  0.3783 -2.0739
  556MOL0     H75014   7.681  10.470  10.336 -0.7865  1.3999 -1.5738
  556MOL0     H75015   7.534  10.464  10.430 -0.4405  0.2791 -0.5541
  556MOL0     H75016   7.723  10.704  10.411  0.6761  0.1982 -1.2983
  556MOL0     H75017   7.551  10.713  10.462  0.5726  2.1099 -0.8891
  556MOL0     H75018   7.570  10.804  10.221  3.6052  0.6564 -0.8269
  556MOL0     H75019   7.494  10.640  10.232  1.2387 -1.2627 -0.0177
  556MOL0     H75020   7.833  10.461  10.112  1.2030 -1.7217  2.5850
  556MOL0     H75021   8.084  10.487  10.098 -0.7727  0.3865 -3.2767
  556MOL0     H75022   8.477  10.775  10.286 -0.8365  0.3210  0.0076
  556MOL0     H75023   8.710  10.809  10.277 -0.5336 -0.2055  1.1672
  556MOL0     H75024   8.968  10.536  10.032  0.3181 -0.4418  0.3226
  556MOL0     H75025   8.957  10.680   9.911 -1.4241  0.5440  0.7778
  556MOL0     H75026   9.132  10.786  10.042 -0.6740 -0.3289 -0.2827
  556MOL0     H75027   9.161  10.633  10.132  0.9212  0.4478 -0.6945
  556MOL0     H75028   9.313  10.589   9.989  1.1371  3.4014  0.0537
  556MOL0     H75029   9.176  10.515   9.903 -2.9750  1.8505 -1.4524
  556MOL0     H75030   9.217  10.802   9.829 -3.4126 -0.1232 -3.1676
  556MOL0     H75031   9.202  10.667   9.713  1.5844 -0.5470 -0.2291
  556MOL0     H75032   9.457  10.754   9.864 -3.3186  1.9540  0.2214
  556MOL0     H75033   9.431  10.770   9.692  3.9044 -1.6638 -0.4075
  556MOL0     H75034   9.486  10.527   9.857  1.8557  1.3151  0.5731
  556MOL0     H75035   9.406  10.504   9.697  0.0222 -0.3887  0.2120
  556MOL0     H75036   9.677  10.499   9.716  0.6720  0.4771 -0.7947
  556MOL0     H75037   9.676  10.672   9.735  1.6141  0.5630 -1.4419
  556MOL0     H75038   9.552  10.533   9.509  1.5054 -3.2902  4.2591
  556MOL0     H75039   9.556  10.707   9.529 -0.9054 -0.2350  1.6624
  556MOL0     H75040   8.730  10.560   9.921 -1.6335 -0.2498 -1.6533
  556MOL0     H75041   8.486  10.543   9.932  1.5000  0.5717 -0.1986
  556MOL0     H75042   8.043  10.900  10.230  3.0825 -1.0722  1.3363
  556MOL0     H75043   7.806  10.882  10.217  2.2315  2.2390 -2.5189
  556MOL0     H75044   6.598  10.912  10.990 -0.6403 -1.3103  0.1570
  556MOL0     H75045   6.354  10.923  10.999 -1.4191  0.7001  0.9570
  556MOL0     H75046   5.990  11.107  11.266 -2.2148  2.1269 -1.1994
  556MOL0     H75047   5.768  11.143  11.242  2.7889  1.1506 -3.4116
  556MOL0     H75048   5.399  10.901  11.222  2.2387  2.0662  2.7495
  556MOL0     H75049   5.511  10.774  11.238 -2.8371 -0.8914  0.7424
  556MOL0     H75050   5.342  10.750  11.064 -0.7036  1.1602 -2.1750
  556MOL0     H75051   5.510  10.748  11.003 -0.1197 -1.5460  2.1259
  556MOL0     H75052   5.349  10.855  10.844  3.5978  0.0343 -0.3493
  556MOL0     H75053   5.467  10.971  10.909  1.1741 -1.2244 -3.8264
  556MOL0     H75054   5.310  11.040  11.072  1.6477  0.2090 -0.7119
  556MOL0     H75055   5.275  11.087  10.915 -1.3466  0.9938  0.0017
  556MOL0     H75056   4.929  10.877  10.969 -0.7785  2.5998 -0.0470
  556MOL0     H75057   5.721  10.727  11.094 -1.7066 -1.5782  3.1305
  556MOL0     H75058   5.928  10.627  11.024  2.2354  0.0150  0.5364
  556MOL0     H75059   6.073  10.664  11.112  1.5604 -0.1041  1.4891
  556MOL0     H75060   5.936  10.586  11.200  0.3062 -1.3061 -1.6076
  557MOL0     O75061   5.308   0.197   2.923 -0.3592  0.3643  0.3679
  557MOL0     C75062   5.249   0.192   3.031  0.0792 -0.0906 -0.9129
  557MOL0     O75063   5.236   0.084   3.110  0.0560  0.5305 -0.4299
  557MOL0     C75064   5.305  -0.033   3.068 -0.3333 -1.4292 -0.1046
  557MOL0     C75065   5.419  -0.066   3.138  0.2288  0.3597  0.6896
  557MOL0     C75066   5.488  -0.184   3.102 -0.3198  0.2003 -0.3043
  557MOL0     C75067   5.427  -0.281   3.014 -0.0260 -0.4115 -0.5488
  557MOL0     O75068   5.465  -0.416   3.010  0.0265 -0.3374 -0.6336
  557MOL0     C75069   5.604  -0.440   3.019 -0.3114  0.9990 -0.0869
  557MOL0     C75070   5.623  -0.583   3.077 -0.1720 -0.2079  0.3786
  557MOL0     C75071   5.778  -0.602   3.093 -0.5994  0.2124  0.4601
  557MOL0     C75072   5.830  -0.554   3.223  0.5301 -0.1382  0.6389
  557MOL0     C75073   5.979  -0.592   3.230 -0.0880  0.0006  0.1216
  557MOL0     C75074   6.065  -0.485   3.160 -0.5904 -0.1009 -0.5239
  557MOL0     C75075   6.214  -0.526   3.173  0.1037 -0.1058  0.3965
  557MOL0     C75076   6.301  -0.425   3.099  0.6802 -0.1083  0.0833
  557MOL0     N75077   6.442  -0.462   3.102 -0.5590 -0.3239 -0.0503
  557MOL0     C75078   6.515  -0.533   3.008 -0.1350  0.0759  0.4027
  557MOL0     C75079   6.642  -0.501   3.019  0.1879  0.1241 -0.1480
  557MOL0     C75080   6.743  -0.560   2.923  0.2772  0.5135 -0.3326
  557MOL0     C75081   6.885  -0.553   2.984 -0.1694  0.1424 -0.7971
  557MOL0     C75082   6.978  -0.614   2.882 -0.1014 -0.2894  0.3501
  557MOL0     C75083   7.116  -0.618   2.948  0.2166  0.1361 -0.7285
  557MOL0     O75084   7.216  -0.647   2.855  0.3371 -0.0227 -0.6602
  557MOL0     C75085   7.340  -0.684   2.898  0.0169 -0.4131  0.3861
  557MOL0     C75086   7.432  -0.693   2.788 -0.0775 -0.7943  0.3803
  557MOL0     C75087   7.567  -0.748   2.815 -0.3217  0.6391  0.5682
  557MOL0     C75088   7.606  -0.775   2.950  0.4777 -0.1870 -0.0663
  557MOL0     C75089   7.744  -0.817   2.981  0.3265 -0.5328  0.3939
  557MOL0     O75090   7.832  -0.773   2.880 -0.1148 -0.2483 -0.4144
  557MOL0     C75091   7.958  -0.829   2.881 -0.0339 -0.5642 -0.1570
  557MOL0     C75092   8.063  -0.761   2.944  0.6938  0.1611 -0.3604
  557MOL0     C75093   8.188  -0.815   2.938 -0.3073  0.1528  0.5875
  557MOL0     C75094   8.219  -0.921   2.853  0.5073  0.1717  0.6865
  557MOL0     O75095   8.349  -0.965   2.855  0.1172  0.0582  0.1148
  557MOL0     C75096   8.384  -1.089   2.798 -0.2305 -0.2324  0.5274
  557MOL0     C75097   8.529  -1.112   2.817 -0.1974 -0.5673 -0.7392
  557MOL0     C75098   8.558  -1.154   2.967  0.5076 -0.1255  0.2541
  557MOL0     C75099   8.682  -1.230   2.987 -0.4339  0.1575  0.7221
  557MOL0     C75100   8.800  -1.141   3.024 -0.0781  0.0428  0.0500
  557MOL0     C75101   8.930  -1.225   3.027 -0.5621 -0.4574 -0.8858
  557MOL0     C75102   9.037  -1.146   3.109 -0.2849  0.0452  0.7920
  557MOL0     C75103   9.169  -1.227   3.134  0.5454  0.2354 -0.4541
  557MOL0    Cl75104   9.318  -1.124   3.163 -0.0529  0.0260  0.4859
  557MOL0     C75105   8.116  -0.982   2.790 -0.1934 -0.1979 -0.8997
  557MOL0     C75106   7.987  -0.945   2.805  0.7819 -0.2662 -0.5319
  557MOL0     O75107   7.783  -0.879   3.084  0.5455 -0.0957 -0.7599
  557MOL0     C75108   7.515  -0.764   3.053  0.4556 -0.1249 -0.0117
  557MOL0     C75109   7.383  -0.722   3.030 -0.1069 -0.4940 -0.0439
  557MOL0     N75110   6.660  -0.409   3.112  0.3338  0.0885  0.1527
  557MOL0     N75111   6.541  -0.394   3.165 -0.2123  0.1762  0.9544
  557MOL0     C75112   5.301  -0.249   2.957 -0.8109 -0.7447 -0.2823
  557MOL0     C75113   5.247  -0.115   2.975  0.4838  0.0165 -0.1556
  557MOL0     C75114   5.189   0.321   3.079 -0.1640 -0.7871 -0.4848
  557MOL0     C75115   5.072   0.308   3.155 -0.3849  0.1556  0.0236
  557MOL0     C75116   5.003   0.427   3.193  0.0193  0.1183 -0.4555
  557MOL0     C75117   5.050   0.548   3.164 -0.5014 -0.6259 -0.0567
  557MOL0     O75118   4.992   0.670   3.198 -0.4536  0.0438 -0.1155
  557MOL0     C75119   4.854   0.669   3.237  0.9161  0.6617 -0.5581
  557MOL0     C75120   4.809   0.808   3.273  1.0312 -0.8766 -0.0498
  557MOL0     C75121   4.682   0.809   3.356  0.5615 -0.7362  0.4917
  557MOL0     C75122   4.673   0.961   3.396 -1.1897  0.6610 -0.7684
  557MOL0     C75123   4.539   0.982   3.450 -0.8090 -0.4350 -0.6608
  557MOL0     C75124   4.426   0.990   3.491  0.2860 -0.1892 -0.5309
  557MOL0     C75125   5.178   0.557   3.098  0.1234 -0.2042 -0.4685
  557MOL0     C75126   5.246   0.445   3.059 -0.7760 -0.2728 -0.5394
  557MOL0     C75127   5.389   0.467   3.002 -0.2277  0.4233 -0.1383
  557MOL0     H75128   5.459  -0.007   3.220  3.4006 -3.1855  1.9666
  557MOL0     H75129   5.576  -0.200   3.163  1.0231 -1.5740 -2.5347
  557MOL0     H75130   5.650  -0.430   2.920 -2.1429 -0.2317 -1.1098
  557MOL0     H75131   5.651  -0.369   3.088 -1.1025  3.0310 -1.5149
  557MOL0     H75132   5.586  -0.651   3.000  1.4243  0.3068 -0.8908
  557MOL0     H75133   5.568  -0.584   3.172 -0.8849  2.1407  0.0676
  557MOL0     H75134   5.827  -0.543   3.014 -2.8095  1.3574 -0.1286
  557MOL0     H75135   5.808  -0.706   3.077  0.3331  0.9181 -3.8578
  557MOL0     H75136   5.817  -0.446   3.228 -0.8568 -0.1727 -1.3144
  557MOL0     H75137   5.784  -0.603   3.309  1.5869 -1.3494  0.5487
  557MOL0     H75138   6.000  -0.606   3.336 -2.3376 -1.7212  0.4263
  557MOL0     H75139   6.004  -0.692   3.192 -1.9633 -0.7862  0.8282
  557MOL0     H75140   6.039  -0.474   3.054  0.6577  2.5953 -0.6356
  557MOL0     H75141   6.038  -0.392   3.211  1.8630 -0.3698  1.4315
  557MOL0     H75142   6.226  -0.620   3.118 -1.3798  0.5423 -1.1517
  557MOL0     H75143   6.251  -0.526   3.275  1.4814 -0.7555 -0.0842
  557MOL0     H75144   6.257  -0.413   3.000  0.4259 -2.3271 -0.1250
  557MOL0     H75145   6.287  -0.326   3.143 -3.8043 -0.2790 -0.5053
  557MOL0     H75146   6.485  -0.593   2.922  0.5795  0.8581 -0.4145
  557MOL0     H75147   6.720  -0.666   2.916 -0.2595  0.3897  2.2762
  557MOL0     H75148   6.724  -0.504   2.831 -3.2230  2.4859  1.3840
  557MOL0     H75149   6.924  -0.457   3.018 -2.4569  0.1156  2.3648
  557MOL0     H75150   6.892  -0.609   3.077 -0.2653 -0.0097 -0.8814
  557MOL0     H75151   6.972  -0.555   2.791 -3.8831 -1.0033 -0.0280
  557MOL0     H75152   6.940  -0.714   2.860 -0.1024 -0.3775  0.7294
  557MOL0     H75153   7.120  -0.693   3.027  2.1349 -0.1765 -1.0813
  557MOL0     H75154   7.145  -0.527   3.001  1.8690 -2.1008  2.5335
  557MOL0     H75155   7.389  -0.670   2.690 -2.7689 -5.2996  0.1949
  557MOL0     H75156   7.631  -0.761   2.728  1.2926  1.1374  1.6275
  557MOL0     H75157   8.043  -0.680   3.013  1.7427  0.7493 -0.7379
  557MOL0     H75158   8.262  -0.754   2.990 -0.1423  3.3336 -2.9513
  557MOL0     H75159   8.319  -1.168   2.837 -0.8072  0.8427  1.8374
  557MOL0     H75160   8.353  -1.075   2.694 -2.7538 -0.5497  1.1662
  557MOL0     H75161   8.570  -1.191   2.754 -3.1180 -2.6872 -0.2459
  557MOL0     H75162   8.585  -1.024   2.784  0.2005 -0.0986  1.0354
  557MOL0     H75163   8.560  -1.076   3.043  1.0406 -0.4263  0.5503
  557MOL0     H75164   8.476  -1.223   2.988 -2.3481  2.5606 -1.1748
  557MOL0     H75165   8.702  -1.277   2.890 -0.6499  2.9676 -0.7765
  557MOL0     H75166   8.657  -1.306   3.061 -0.8019 -3.6753 -2.9072
  557MOL0     H75167   8.784  -1.092   3.121 -1.3102 -0.7474  0.2608
  557MOL0     H75168   8.822  -1.064   2.949  2.3807 -0.4190  0.2110
  557MOL0     H75169   8.911  -1.305   3.099 -3.2627 -1.2194 -2.3317
  557MOL0     H75170   8.963  -1.261   2.929  3.5796 -0.8347  0.4195
  557MOL0     H75171   9.003  -1.109   3.207 -0.6650 -0.9404  1.0520
  557MOL0     H75172   9.072  -1.059   3.054 -0.3172  0.5505  1.5554
  557MOL0     H75173   9.158  -1.279   3.230  0.3543 -0.4713 -0.8521
  557MOL0     H75174   9.189  -1.294   3.050  2.3171  1.4903 -1.0908
  557MOL0     H75175   8.132  -1.069   2.726  2.0521  1.1724 -2.3236
  557MOL0     H75176   7.901  -0.991   2.758  0.2946  1.3992 -1.3459
  557MOL0     H75177   7.530  -0.782   3.159 -0.2649  3.9793  0.9642
  557MOL0     H75178   7.312  -0.710   3.112  0.0684 -1.3693  0.2452
  557MOL0     H75179   5.243  -0.313   2.891 -0.6857  0.6802 -1.8311
  557MOL0     H75180   5.151  -0.087   2.933 -0.5163  0.7640  2.4479
  557MOL0     H75181   5.027   0.214   3.187 -1.4111 -0.6004 -3.2538
  557MOL0     H75182   4.915   0.403   3.251  0.6902 -1.2663  0.0391
  557MOL0     H75183   4.841   0.612   3.329  1.1274 -0.9049 -1.4746
  557MOL0     H75184   4.785   0.633   3.159  1.3717 -1.4305 -0.0484
  557MOL0     H75185   4.796   0.867   3.182 -0.4008  0.0144  0.7063
  557MOL0     H75186   4.895   0.859   3.317  1.1027 -0.6975 -0.4020
  557MOL0     H75187   4.698   0.750   3.447  2.9397 -2.3689 -0.8730
  557MOL0     H75188   4.597   0.780   3.294  0.4081  1.2426 -0.2887
  557MOL0     H75189   4.748   0.977   3.474 -1.7478  3.7615 -0.7489
  557MOL0     H75190   4.694   1.023   3.308  0.4943  1.7581  0.3418
  557MOL0     H75191   4.327   1.001   3.531  0.8648 -0.3782  1.0261
  557MOL0     H75192   5.222   0.654   3.080 -1.3263  0.8573  1.4532
  557MOL0     H75193   5.400   0.421   2.903  1.3352 -0.1759  0.2898
  557MOL0     H75194   5.401   0.576   2.996 -2.6181  0.8630  1.5938
  557MOL0     H75195   5.465   0.417   3.062 -0.5890 -2.4659 -1.9128
  558MOL0     O75196   2.036   7.475   6.306 -0.1576  0.9378 -0.3981
  558MOL0     C75197   2.078   7.363   6.338  0.7213 -0.5325  0.1736
  558MOL0     O75198   1.997   7.272   6.390  0.3101  0.3085  0.2131
  558MOL0     C75199   1.871   7.314   6.435  0.4452  0.3421  0.0539
  558MOL0     C75200   1.839   7.281   6.568  0.7329  0.5345  0.0872
  558MOL0     C75201   1.709   7.307   6.620 -0.0109 -0.9775  0.3329
  558MOL0     C75202   1.607   7.363   6.537  0.0226  0.3651 -0.2793
  558MOL0     O75203   1.481   7.356   6.592  0.0875  0.0244 -0.3878
  558MOL0     C75204   1.366   7.361   6.514  0.6466  0.1946  0.6272
  558MOL0     C75205   1.231   7.357   6.590 -0.2073  0.2025 -0.9081
  558MOL0     C75206   1.110   7.369   6.492 -0.4044  0.4432  0.4365
  558MOL0     C75207   1.058   7.234   6.440  0.5419 -0.4856  0.0588
  558MOL0     C75208   0.926   7.260   6.352  1.0737  0.6108 -0.4065
  558MOL0     C75209   0.882   7.124   6.299  0.3390 -0.2805 -0.5469
  558MOL0     C75210   0.747   7.133   6.236  0.9630  0.5054 -0.3087
  558MOL0     C75211   0.634   7.072   6.331 -0.4435  1.0298 -0.8563
  558MOL0     N75212   0.647   6.936   6.394  1.1024  0.0001 -1.6015
  558MOL0     C75213   0.695   6.925   6.520 -0.6579  0.0729 -0.5708
  558MOL0     C75214   0.732   6.792   6.528  0.2834 -0.4332  0.3014
  558MOL0     C75215   0.801   6.725   6.644  0.6198 -0.2872 -0.0457
  558MOL0     C75216   0.945   6.724   6.641  0.0910 -0.0948  0.8269
  558MOL0     C75217   1.003   6.671   6.775 -0.4490  0.3683  0.0988
  558MOL0     C75218   1.151   6.659   6.776  0.2735 -0.0987 -1.0943
  558MOL0     O75219   1.219   6.790   6.765  0.7310  0.5686  0.2179
  558MOL0     C75220   1.350   6.812   6.781  0.5483  0.9143  1.6315
  558MOL0     C75221   1.441   6.711   6.765 -0.5766 -0.3234  0.2119
  558MOL0     C75222   1.583   6.749   6.771 -0.5782  0.1183 -0.6430
  558MOL0     C75223   1.622   6.882   6.772 -0.0289  0.1501  1.3237
  558MOL0     C75224   1.765   6.924   6.762  0.3926  0.1728 -0.7279
  558MOL0     O75225   1.861   6.822   6.744  1.0488 -0.3187  0.3215
  558MOL0     C75226   1.993   6.855   6.748  0.4553  0.2168 -0.3693
  558MOL0     C75227   2.063   6.936   6.842  0.0355 -0.0449  0.7760
  558MOL0     C75228   2.191   6.962   6.817 -0.9226  0.4037  0.3906
  558MOL0     C75229   2.259   6.904   6.713 -1.0012 -0.4615  0.4126
  558MOL0     O75230   2.389   6.932   6.715 -0.9738 -0.3639 -0.0548
  558MOL0     C75231   2.468   6.897   6.596  0.3065  0.0634 -0.9432
  558MOL0     C75232   2.593   6.971   6.618 -0.6714 -0.1878 -0.4886
  558MOL0     C75233   2.696   6.931   6.503  0.1026 -0.0920  0.0157
  558MOL0     C75234   2.838   6.974   6.533 -0.6341 -0.3704 -0.6393
  558MOL0     C75235   2.854   7.123   6.523  0.4968  0.4201 -0.1802
  558MOL0     C75236   2.986   7.168   6.580  0.1182 -0.2535 -0.2523
  558MOL0     C75237   3.108   7.116   6.500  0.8210 -0.1182 -0.7114
  558MOL0     C75238   3.090   7.126   6.349  0.3939 -0.3256 -0.7934
  558MOL0    Cl75239   3.253   7.098   6.246 -0.5986 -0.2106 -0.0597
  558MOL0     C75240   2.197   6.814   6.628 -0.1842  0.5063 -0.6166
  558MOL0     C75241   2.062   6.790   6.639 -0.0306 -0.3243  0.8112
  558MOL0     O75242   1.791   7.041   6.780  0.1873 -0.0885 -0.8995
  558MOL0     C75243   1.522   6.982   6.771 -0.1692 -0.0767 -0.3374
  558MOL0     C75244   1.386   6.942   6.772 -0.3028 -0.6329 -0.3250
  558MOL0     N75245   0.706   6.731   6.402  1.2214 -0.2952  0.7341
  558MOL0     N75246   0.668   6.826   6.321  0.8882  0.1539 -0.0122
  558MOL0     C75247   1.636   7.392   6.406  0.0580  0.0284  0.1431
  558MOL0     C75248   1.767   7.366   6.356 -0.0905  0.7206  0.0213
  558MOL0     C75249   2.212   7.307   6.296 -0.4287 -0.6923  0.8859
  558MOL0     C75250   2.254   7.324   6.165  0.4861 -0.0768  0.1181
  558MOL0     C75251   2.381   7.286   6.127 -0.2538 -0.5854 -1.0137
  558MOL0     C75252   2.471   7.224   6.216 -0.0043  0.3921  0.3478
  558MOL0     O75253   2.600   7.183   6.186 -0.2184 -0.4725  0.1707
  558MOL0     C75254   2.614   7.115   6.058 -0.1074  0.2379  0.3250
  558MOL0     C75255   2.704   6.996   6.100 -0.1473 -0.9506  0.6521
  558MOL0     C75256   2.749   6.921   5.973  0.3227  0.0594  0.3119
  558MOL0     C75257   2.820   6.788   6.003 -0.2597  0.0410 -0.4240
  558MOL0     C75258   2.941   6.802   6.085  0.0240  0.1472 -0.5826
  558MOL0     C75259   3.043   6.795   6.158  0.7632  0.5444  0.7518
  558MOL0     C75260   2.421   7.199   6.343  0.6927  0.0089 -0.2508
  558MOL0     C75261   2.296   7.247   6.391 -0.0781 -0.8159 -0.3630
  558MOL0     C75262   2.259   7.227   6.538  0.7456 -0.2799  0.5023
  558MOL0     H75263   1.910   7.231   6.633  0.6486  1.1755  0.6813
  558MOL0     H75264   1.689   7.286   6.724 -0.6739  0.9783  0.6361
  558MOL0     H75265   1.374   7.464   6.478  0.5217  0.0592  0.2030
  558MOL0     H75266   1.357   7.286   6.435 -4.9698  1.0518  0.0575
  558MOL0     H75267   1.222   7.431   6.671 -0.2631  0.8005 -1.4563
  558MOL0     H75268   1.212   7.257   6.630  1.7205  0.1700  0.0224
  558MOL0     H75269   1.135   7.435   6.408  0.8200  0.0253  0.4524
  558MOL0     H75270   1.034   7.424   6.548 -0.0699 -0.0998  1.4310
  558MOL0     H75271   1.136   7.190   6.377 -0.3052 -0.1781 -1.2330
  558MOL0     H75272   1.039   7.166   6.523 -0.5752 -0.0573  0.1729
  558MOL0     H75273   0.850   7.309   6.414 -0.9674 -0.3172 -2.0428
  558MOL0     H75274   0.948   7.332   6.272  0.8928 -0.9592 -1.9260
  558MOL0     H75275   0.960   7.096   6.228  3.3606  0.8940  2.0432
  558MOL0     H75276   0.889   7.046   6.375 -0.4577  0.2526  0.0832
  558MOL0     H75277   0.740   7.081   6.140 -1.6292 -1.5733  0.8937
  558MOL0     H75278   0.728   7.234   6.201 -0.4856 -0.2127 -1.7338
  558MOL0     H75279   0.638   7.152   6.406  3.5680  1.7253 -1.5905
  558MOL0     H75280   0.541   7.069   6.274 -1.5100  4.2058  0.4840
  558MOL0     H75281   0.724   7.003   6.590  1.1358 -0.4514 -0.6876
  558MOL0     H75282   0.776   6.779   6.736  1.7488  2.5915 -1.2856
  558MOL0     H75283   0.762   6.623   6.645  0.4334 -0.2827 -2.3321
  558MOL0     H75284   0.988   6.665   6.560  0.9050 -0.3726  1.4487
  558MOL0     H75285   0.972   6.830   6.633 -2.8150  0.6850  0.0525
  558MOL0     H75286   0.967   6.568   6.789  0.5667  0.1321  1.0945
  558MOL0     H75287   0.968   6.741   6.851 -2.8470  0.5847 -1.0925
  558MOL0     H75288   1.190   6.596   6.695  1.6822 -0.7975  0.0775
  558MOL0     H75289   1.193   6.603   6.859  0.5989  0.4437 -0.8900
  558MOL0     H75290   1.417   6.607   6.741 -0.1203 -1.1689  3.0685
  558MOL0     H75291   1.670   6.685   6.770  1.2427  2.3756  1.6079
  558MOL0     H75292   2.025   6.987   6.930  1.8638  1.9206  0.4979
  558MOL0     H75293   2.249   7.018   6.889  1.6161  1.4027 -2.2323
  558MOL0     H75294   2.481   6.788   6.597  0.7362  0.1004  0.6615
  558MOL0     H75295   2.413   6.914   6.503 -0.0535  0.7324 -0.6146
  558MOL0     H75296   2.562   7.075   6.621  1.7233  0.5541  0.8388
  558MOL0     H75297   2.634   6.939   6.714  0.3622  0.2159 -0.7826
  558MOL0     H75298   2.696   6.823   6.488 -0.9824 -0.0449 -0.3923
  558MOL0     H75299   2.662   6.966   6.405  0.8500 -3.6541 -1.6802
  558MOL0     H75300   2.908   6.927   6.463 -1.5312 -0.4552 -1.5040
  558MOL0     H75301   2.871   6.954   6.636 -2.6557  0.1848  0.1662
  558MOL0     H75302   2.771   7.164   6.581  1.3719  2.1916 -0.1166
  558MOL0     H75303   2.836   7.153   6.420 -1.7906 -0.7165 -0.1668
  558MOL0     H75304   2.988   7.278   6.584 -0.4143 -0.2680  0.5595
  558MOL0     H75305   2.992   7.137   6.685 -1.2907  1.1711  0.2850
  558MOL0     H75306   3.126   7.009   6.517 -2.8676 -0.7217  0.2654
  558MOL0     H75307   3.201   7.170   6.522  1.4658 -0.2281 -2.9407
  558MOL0     H75308   3.009   7.063   6.310  1.6641 -0.5848 -3.2579
  558MOL0     H75309   3.047   7.226   6.340 -0.8922 -0.4185  2.8564
  558MOL0     H75310   2.242   6.771   6.539  1.3635  0.6088  0.0712
  558MOL0     H75311   2.004   6.743   6.560  0.3470  1.7728 -0.8183
  558MOL0     H75312   1.552   7.082   6.740 -1.5607 -0.4078 -3.0301
  558MOL0     H75313   1.302   7.010   6.759 -2.4200 -3.4859 -2.9319
  558MOL0     H75314   1.561   7.442   6.344 -0.3779  1.8024  1.9879
  558MOL0     H75315   1.781   7.387   6.250  1.1736 -1.3007 -0.2726
  558MOL0     H75316   2.196   7.378   6.090 -0.8214  0.2472  1.3278
  558MOL0     H75317   2.412   7.303   6.024 -0.8696 -0.6570 -1.2147
  558MOL0     H75318   2.665   7.186   5.994  0.8388 -1.4555 -0.8838
  558MOL0     H75319   2.522   7.079   6.011  0.2450 -2.3584  1.4358
  558MOL0     H75320   2.650   6.925   6.164  0.4751 -3.6099 -1.5814
  558MOL0     H75321   2.784   7.042   6.159 -2.9156  0.7352  3.3795
  558MOL0     H75322   2.805   6.989   5.908  2.0849 -1.8377 -0.2703
  558MOL0     H75323   2.661   6.897   5.913  1.4961  0.0169 -1.4635
  558MOL0     H75324   2.750   6.720   6.054  1.9268 -0.7013  1.8062
  558MOL0     H75325   2.854   6.741   5.910  0.3867 -3.9090  1.5722
  558MOL0     H75326   3.139   6.775   6.201  1.0692 -1.2199 -0.6188
  558MOL0     H75327   2.484   7.161   6.424 -0.8168  0.3847  1.1566
  558MOL0     H75328   2.203   7.308   6.585  1.5235  0.5387  0.0381
  558MOL0     H75329   2.189   7.143   6.546 -1.1769  1.3265  1.5339
  558MOL0     H75330   2.345   7.202   6.600 -1.4356 -1.3844  3.2977
  559MOL0     O75331   2.320  10.063   2.941 -0.8378 -0.7935  0.2750
  559MOL0     C75332   2.252  10.048   3.047 -1.0725 -0.4450  0.2680
  559MOL0     O75333   2.297  10.061   3.178  0.9089 -0.4039 -0.3490
  559MOL0     C75334   2.433  10.074   3.214 -0.0580 -0.3107  0.0319
  559MOL0     C75335   2.499   9.989   3.301 -0.3137  0.2744  0.8098
  559MOL0     C75336   2.635  10.009   3.334  0.5347 -0.5813 -0.2038
  559MOL0     C75337   2.695  10.128   3.291 -0.0616 -0.9709  0.2303
  559MOL0     O75338   2.818  10.163   3.320 -0.1722  0.0579  0.5864
  559MOL0     C75339   2.899  10.078   3.395 -0.4208  0.7471  0.2349
  559MOL0     C75340   3.049  10.107   3.400 -0.0886  0.1967 -0.2617
  559MOL0     C75341   3.075  10.239   3.467 -0.2841 -0.0536  0.0611
  559MOL0     C75342   3.105  10.354   3.363  0.3121 -0.4908  0.4435
  559MOL0     C75343   3.131  10.492   3.431  0.2281  0.2979 -0.0483
  559MOL0     C75344   3.262  10.479   3.519 -0.0773 -0.4479 -0.0706
  559MOL0     C75345   3.310  10.621   3.555 -0.4521  0.2519 -0.3320
  559MOL0     C75346   3.399  10.692   3.441 -0.6105 -0.7133 -0.3308
  559MOL0     N75347   3.544  10.667   3.455  0.0270 -0.2879 -0.5597
  559MOL0     C75348   3.600  10.542   3.468  0.5810  0.2180  0.3755
  559MOL0     C75349   3.730  10.561   3.504  0.1176  0.5713  0.1060
  559MOL0     C75350   3.844  10.455   3.527  0.1691 -0.2669 -0.3155
  559MOL0     C75351   3.880  10.385   3.397 -0.5436 -0.4840 -0.2572
  559MOL0     C75352   3.942  10.482   3.294  0.8549 -0.3192 -0.0631
  559MOL0     C75353   4.082  10.525   3.316 -0.5619  0.1798  0.6723
  559MOL0     O75354   4.156  10.403   3.356  0.5724  0.1570 -0.0788
  559MOL0     C75355   4.280  10.422   3.414  0.1940  0.6781 -0.0400
  559MOL0     C75356   4.353  10.538   3.396  0.0356  0.4575 -0.5677
  559MOL0     C75357   4.483  10.550   3.430 -0.2801 -0.2388  0.0533
  559MOL0     C75358   4.552  10.456   3.500  0.1914 -0.2571 -0.3878
  559MOL0     C75359   4.689  10.466   3.533 -0.2209  0.6654  0.6852
  559MOL0     O75360   4.751  10.345   3.564 -0.1120  0.3771 -0.5506
  559MOL0     C75361   4.887  10.337   3.598  0.2001  0.4551  1.3888
  559MOL0     C75362   4.919  10.219   3.665 -0.1829 -0.0710  0.8731
  559MOL0     C75363   5.052  10.189   3.697  0.2986 -0.1942  0.1750
  559MOL0     C75364   5.151  10.274   3.657 -0.0802  0.4996 -0.4692
  559MOL0     O75365   5.278  10.244   3.696 -0.0569  0.5528  0.1918
  559MOL0     C75366   5.375  10.346   3.715  0.4968  0.4290  0.2629
  559MOL0     C75367   5.488  10.300   3.809  0.2184  0.3717 -0.8800
  559MOL0     C75368   5.567  10.436   3.847 -0.2379  0.8505 -0.7290
  559MOL0     C75369   5.712  10.414   3.889 -0.1122 -0.5438  0.0906
  559MOL0     C75370   5.770  10.537   3.952 -0.7539  0.2265 -0.1623
  559MOL0     C75371   5.928  10.534   3.952  0.1963 -0.7733  0.2324
  559MOL0     C75372   5.980  10.630   4.045  0.9378 -0.3212  0.3673
  559MOL0     C75373   6.136  10.653   4.028 -0.0225  0.6678 -0.3560
  559MOL0    Cl75374   6.169  10.729   3.862  0.2800  0.0536 -0.3530
  559MOL0     C75375   5.118  10.385   3.577 -0.6323  0.0582  0.6323
  559MOL0     C75376   4.991  10.426   3.546  0.1672 -0.6444 -0.0402
  559MOL0     O75377   4.750  10.571   3.525 -0.0055  0.4103 -0.0912
  559MOL0     C75378   4.481  10.334   3.521 -0.3181 -0.0632  0.2014
  559MOL0     C75379   4.348  10.315   3.474  0.3905  0.0084  0.0134
  559MOL0     N75380   3.756  10.695   3.517  0.3485 -0.0328 -0.0266
  559MOL0     N75381   3.647  10.754   3.481  0.5670 -0.3631 -0.1915
  559MOL0     C75382   2.622  10.223   3.216 -0.9084  0.1760  0.3626
  559MOL0     C75383   2.492  10.192   3.181  1.0192  0.4204 -0.4522
  559MOL0     C75384   2.108  10.038   3.036  0.2961  0.6121 -0.7204
  559MOL0     C75385   2.032  10.105   3.127  0.3833 -0.2197 -1.0994
  559MOL0     C75386   1.891  10.108   3.120  0.1494 -0.2474  0.0690
  559MOL0     C75387   1.825  10.030   3.024  0.7001  0.1775 -0.1788
  559MOL0     O75388   1.688  10.013   3.032 -0.5513 -0.9800 -0.1559
  559MOL0     C75389   1.616   9.941   2.936 -0.3154  0.0770  0.2116
  559MOL0     C75390   1.466   9.977   2.952 -0.5343  0.1470  0.6545
  559MOL0     C75391   1.418  10.081   2.851 -0.5909 -0.8234 -0.7689
  559MOL0     C75392   1.268  10.094   2.880 -0.3108  0.7638  0.0779
  559MOL0     C75393   1.211  10.191   2.789 -1.1608  0.4689 -0.4158
  559MOL0     C75394   1.158  10.261   2.702 -0.0690 -0.4170  0.4453
  559MOL0     C75395   1.907   9.952   2.929 -0.3395 -0.3543 -0.0526
  559MOL0     C75396   2.044   9.964   2.936  0.6329 -0.4736 -0.2615
  559MOL0     C75397   2.120   9.884   2.836 -0.4145  0.0372  0.0410
  559MOL0     H75398   2.450   9.901   3.342 -1.0519 -1.0025 -2.4207
  559MOL0     H75399   2.688   9.934   3.391 -0.6974 -1.7218 -0.4890
  559MOL0     H75400   2.865  10.084   3.499  2.1981 -2.4635  1.4719
  559MOL0     H75401   2.897   9.970   3.379 -1.1837  0.6583  0.9010
  559MOL0     H75402   3.095  10.088   3.303 -0.2870 -1.2332 -0.0969
  559MOL0     H75403   3.100  10.041   3.471 -0.5672 -0.5401 -0.5902
  559MOL0     H75404   3.157  10.223   3.538 -1.8800 -2.6422  1.4988
  559MOL0     H75405   2.989  10.266   3.528  0.0343  0.6976  0.1844
  559MOL0     H75406   3.187  10.331   3.295  0.3221  2.6257 -0.7473
  559MOL0     H75407   3.012  10.368   3.306 -0.0370 -0.3216  1.0429
  559MOL0     H75408   3.148  10.575   3.363 -0.4751 -0.1044 -0.7294
  559MOL0     H75409   3.045  10.527   3.489 -1.0629 -1.1822 -0.9809
  559MOL0     H75410   3.244  10.420   3.610  1.1083 -0.9635 -0.1509
  559MOL0     H75411   3.337  10.418   3.469 -0.8302  0.1907 -2.0622
  559MOL0     H75412   3.372  10.610   3.644 -0.5939  2.3281  0.0758
  559MOL0     H75413   3.225  10.686   3.580  0.7243  1.7661 -0.0948
  559MOL0     H75414   3.365  10.688   3.337 -0.2695  1.1988 -0.5633
  559MOL0     H75415   3.394  10.799   3.465  3.2397 -0.3108 -0.6685
  559MOL0     H75416   3.542  10.453   3.446 -1.0840  1.5217 -0.7057
  559MOL0     H75417   3.930  10.493   3.582  0.1675  1.1079 -1.2174
  559MOL0     H75418   3.796  10.373   3.581  1.3796  0.2082  1.5686
  559MOL0     H75419   3.945  10.299   3.412  1.1523  0.5211 -1.4117
  559MOL0     H75420   3.790  10.338   3.356 -0.5841 -0.9438  0.3468
  559MOL0     H75421   3.887  10.576   3.289  2.3706  0.6616  0.7734
  559MOL0     H75422   3.931  10.441   3.194 -0.9165 -0.1014  0.0148
  559MOL0     H75423   4.079  10.587   3.406 -1.8081  0.1117  0.6968
  559MOL0     H75424   4.126  10.577   3.230 -2.0559 -1.5851 -1.2673
  559MOL0     H75425   4.302  10.627   3.359  2.6709  2.2299 -0.2400
  559MOL0     H75426   4.537  10.633   3.386 -2.4560  0.9947 -0.4596
  559MOL0     H75427   4.835  10.156   3.691 -1.2290  1.8005  2.3631
  559MOL0     H75428   5.082  10.105   3.759  2.1355 -0.4796 -1.0250
  559MOL0     H75429   5.417  10.378   3.619  3.0061 -0.1604  1.0795
  559MOL0     H75430   5.320  10.425   3.766 -4.1319 -2.2678  0.0527
  559MOL0     H75431   5.451  10.259   3.903  2.3513  2.1875  0.8451
  559MOL0     H75432   5.539  10.219   3.756 -1.8703 -1.5503 -0.1139
  559MOL0     H75433   5.560  10.508   3.766 -0.2823  0.2281 -1.2903
  559MOL0     H75434   5.522  10.480   3.936 -0.3048  0.0306 -0.3479
  559MOL0     H75435   5.771  10.387   3.800 -0.1794 -1.7258  0.3917
  559MOL0     H75436   5.725  10.328   3.954 -0.1098 -0.2177  0.5265
  559MOL0     H75437   5.727  10.529   4.052 -0.0126 -1.2091  0.0704
  559MOL0     H75438   5.734  10.631   3.910  1.8368  0.7258 -1.5188
  559MOL0     H75439   5.969  10.445   4.001 -0.1041 -1.0962 -0.1001
  559MOL0     H75440   5.968  10.546   3.850  0.9285  2.7896  0.8303
  559MOL0     H75441   5.952  10.601   4.147 -1.4609 -0.1372 -0.1894
  559MOL0     H75442   5.926  10.723   4.025 -1.8168 -2.1070 -1.1485
  559MOL0     H75443   6.162  10.727   4.104  0.4498 -1.0140  1.1737
  559MOL0     H75444   6.194  10.562   4.045  0.7075  1.1391 -0.2713
  559MOL0     H75445   5.188  10.450   3.525  1.2407 -3.3707 -1.4833
  559MOL0     H75446   4.968  10.511   3.482 -1.7486  1.8748  3.6663
  559MOL0     H75447   4.530  10.253   3.574  3.7247  1.8773 -0.2032
  559MOL0     H75448   4.300  10.222   3.501  0.4586 -0.2582 -0.7461
  559MOL0     H75449   2.672  10.314   3.183  2.4829 -0.4953  3.0334
  559MOL0     H75450   2.438  10.270   3.130  0.3015 -0.4641 -1.0860
  559MOL0     H75451   2.079  10.149   3.215  2.0602  0.3226 -2.2259
  559MOL0     H75452   1.832  10.156   3.198  0.9788  0.4326  0.2831
  559MOL0     H75453   1.634   9.833   2.940  0.5389  0.2591  2.9193
  559MOL0     H75454   1.648   9.970   2.835 -1.4145 -2.3238 -0.9216
  559MOL0     H75455   1.447  10.012   3.054  1.8455  0.6729  0.9835
  559MOL0     H75456   1.419   9.880   2.935  2.2005 -0.6480 -4.5415
  559MOL0     H75457   1.438  10.038   2.752  3.1096 -0.7065 -0.2279
  559MOL0     H75458   1.458  10.181   2.871 -3.4212  0.0194  1.2138
  559MOL0     H75459   1.221   9.996   2.866 -0.2941  0.6006  1.0619
  559MOL0     H75460   1.249  10.127   2.983  0.3182 -0.7857  0.7260
  559MOL0     H75461   1.126  10.333   2.629 -0.1752  0.1102  1.0040
  559MOL0     H75462   1.865   9.882   2.858  1.2399 -2.6553  1.1683
  559MOL0     H75463   2.225   9.868   2.865 -0.1065  0.9546 -0.5055
  559MOL0     H75464   2.076   9.785   2.831  0.4619 -0.3904  0.6283
  559MOL0     H75465   2.110   9.923   2.734  0.4813  0.2796  0.0346
  560MOL0     O75466   6.900   5.685  10.024  0.3239 -0.0975  0.2802
  560MOL0     C75467   6.893   5.806  10.013 -0.9667  0.0074 -0.3057
  560MOL0     O75468   6.997   5.897  10.040 -0.4351 -0.0951  0.9124
  560MOL0     C75469   7.120   5.847  10.068 -0.7984  0.1608 -0.0805
  560MOL0     C75470   7.149   5.797  10.203 -0.8010  0.1246  1.3698
  560MOL0     C75471   7.276   5.740  10.235 -0.0597  0.0125  0.0415
  560MOL0     C75472   7.377   5.750  10.140 -0.5031 -0.0262 -0.1131
  560MOL0     O75473   7.506   5.730  10.175  0.0590  0.1720 -0.1177
  560MOL0     C75474   7.567   5.606  10.120  0.0887  0.3271 -0.4416
  560MOL0     C75475   7.687   5.645  10.042  0.0611  0.0839 -0.4058
  560MOL0     C75476   7.811   5.668  10.134  0.0088  0.4416  0.6342
  560MOL0     C75477   7.920   5.722  10.046  0.2124 -0.4962 -0.9803
  560MOL0     C75478   7.976   5.609   9.955 -0.6765 -1.1697  0.4137
  560MOL0     C75479   8.057   5.686   9.849  0.1788  0.6904 -0.9259
  560MOL0     C75480   8.181   5.612   9.797 -0.1562 -0.0056  0.0005
  560MOL0     C75481   8.235   5.671   9.668  0.4427  0.1842  0.3132
  560MOL0     N75482   8.327   5.779   9.703  0.4734 -0.1420 -0.0382
  560MOL0     C75483   8.436   5.771   9.786 -0.0900 -0.7738  0.3793
  560MOL0     C75484   8.484   5.895   9.793  0.3133  0.3738  0.0613
  560MOL0     C75485   8.607   5.948   9.861  0.3446 -0.0337  0.3715
  560MOL0     C75486   8.616   5.909  10.014 -0.4121 -0.7251 -0.4767
  560MOL0     C75487   8.713   5.997  10.090  0.0804  0.0182  0.1721
  560MOL0     C75488   8.853   6.014  10.023  0.3569  0.2017  0.0484
  560MOL0     O75489   8.917   5.890   9.997 -0.0724  0.4296 -0.7936
  560MOL0     C75490   9.047   5.884   9.960  0.0202 -0.5284  0.1521
  560MOL0     C75491   9.108   5.764   9.975 -0.2451 -0.3348 -0.2837
  560MOL0     C75492   9.248   5.751   9.972 -0.2185  0.3461  0.2018
  560MOL0     C75493   9.334   5.858   9.939  0.0676  0.5476  0.2691
  560MOL0     C75494   9.476   5.825   9.922 -0.1585 -0.2997 -0.0308
  560MOL0     O75495   9.543   5.929   9.861 -0.0465 -0.3735 -0.4647
  560MOL0     C75496   9.678   5.944   9.872  0.1190 -0.0723 -0.3328
  560MOL0     C75497   9.750   5.890   9.981 -0.1112  0.2238 -0.0942
  560MOL0     C75498   9.890   5.905   9.973 -0.5643 -0.1506 -0.5294
  560MOL0     C75499   9.961   5.980   9.884 -0.3238  0.2389  0.5944
  560MOL0     O75500  10.094   6.002   9.878 -0.1492 -0.5068 -0.3106
  560MOL0     C75501  10.181   5.915   9.952  0.1126  0.1473  0.4001
  560MOL0     C75502  10.323   5.950   9.910  0.5465 -0.1531 -0.0599
  560MOL0     C75503  10.357   5.935   9.761 -0.4441  0.4040 -0.5126
  560MOL0     C75504  10.422   6.057   9.700 -0.1246 -0.5215 -0.5637
  560MOL0     C75505  10.444   6.044   9.547  0.2445 -0.5514  0.4927
  560MOL0     C75506  10.563   6.124   9.493  0.5147  0.5403  0.3078
  560MOL0     C75507  10.577   6.094   9.342  0.0145 -0.2810  0.0729
  560MOL0     C75508  10.521   6.206   9.249  0.1178 -0.1628  0.1976
  560MOL0    Cl75509  10.577   6.368   9.280  0.2767  0.2145 -0.2952
  560MOL0     C75510   9.884   6.042   9.783  0.8725  1.4111  0.1703
  560MOL0     C75511   9.745   6.027   9.777  0.1578 -0.3696 -0.2375
  560MOL0     O75512   9.524   5.722   9.955 -0.5870  0.5675 -0.7236
  560MOL0     C75513   9.273   5.980   9.909 -0.4303  0.9739 -0.2781
  560MOL0     C75514   9.129   5.998   9.926  1.3567 -1.0093  0.0842
  560MOL0     N75515   8.404   5.984   9.731  0.4790 -0.1068 -0.0632
  560MOL0     N75516   8.309   5.913   9.668 -0.2564 -0.0091 -0.1429
  560MOL0     C75517   7.356   5.823  10.017 -0.4096 -0.9405 -0.0916
  560MOL0     C75518   7.227   5.860   9.983  0.0001 -0.9566  0.4475
  560MOL0     C75519   6.762   5.862   9.946  0.4880 -0.5601  0.6427
  560MOL0     C75520   6.781   5.980   9.859 -0.4447 -0.2052 -0.2216
  560MOL0     C75521   6.668   6.049   9.813  0.0568  0.2728  0.0771
  560MOL0     C75522   6.540   5.998   9.836 -0.0449  1.1906 -0.0106
  560MOL0     O75523   6.440   6.071   9.785  0.2742  0.1462  0.7425
  560MOL0     C75524   6.315   6.086   9.854  1.0340 -1.0905  0.1096
  560MOL0     C75525   6.293   6.227   9.895 -0.6767  0.0618 -0.7271
  560MOL0     C75526   6.264   6.317   9.779  0.1197 -0.5370 -0.1648
  560MOL0     C75527   6.223   6.456   9.828  0.5652 -0.4523 -0.0519
  560MOL0     C75528   6.184   6.552   9.721  0.4602 -0.6598  0.5251
  560MOL0     C75529   6.129   6.623   9.641 -0.5088  0.8568  0.0955
  560MOL0     C75530   6.523   5.871   9.910  0.2793 -0.5649 -0.4275
  560MOL0     C75531   6.632   5.808   9.968  0.1671 -0.9238 -0.0759
  560MOL0     C75532   6.603   5.694  10.055 -0.3338 -0.2961  0.7318
  560MOL0     H75533   7.069   5.803  10.275 -1.8649  3.3710  0.1083
  560MOL0     H75534   7.299   5.718  10.338 -0.6703 -1.9660 -0.1978
  560MOL0     H75535   7.590   5.537  10.201  1.3724  0.7168 -0.4446
  560MOL0     H75536   7.499   5.559  10.049  0.6240 -1.2138  0.0457
  560MOL0     H75537   7.666   5.736   9.986  0.4785  1.1604  1.1114
  560MOL0     H75538   7.707   5.568   9.968 -0.0069  0.5749 -0.9390
  560MOL0     H75539   7.849   5.580  10.186  2.3998  1.1054  0.1636
  560MOL0     H75540   7.788   5.757  10.194 -0.7010  2.1180 -1.9520
  560MOL0     H75541   7.880   5.803   9.984 -1.2309 -0.3611  0.0790
  560MOL0     H75542   7.998   5.756  10.114 -1.2996 -0.1663  0.6599
  560MOL0     H75543   8.021   5.533  10.019  1.1131 -1.3246 -0.9750
  560MOL0     H75544   7.898   5.553   9.902 -1.1434 -2.7732  2.6167
  560MOL0     H75545   7.990   5.730   9.775 -0.6887 -0.5714 -0.9058
  560MOL0     H75546   8.092   5.777   9.899 -0.4773  2.2289 -3.1353
  560MOL0     H75547   8.161   5.506   9.782 -1.8210  0.0663  1.4381
  560MOL0     H75548   8.253   5.619   9.879 -1.1471  0.6966  0.8341
  560MOL0     H75549   8.294   5.591   9.621 -3.9685 -1.3722 -3.3630
  560MOL0     H75550   8.160   5.699   9.593  1.2581 -1.1240 -1.0439
  560MOL0     H75551   8.471   5.685   9.843 -2.9262 -2.1231  0.2479
  560MOL0     H75552   8.698   5.910   9.813 -0.7161 -1.3811 -0.6345
  560MOL0     H75553   8.617   6.056   9.846  1.9219 -0.5612 -3.4960
  560MOL0     H75554   8.518   5.933  10.055  0.5892 -0.3412  1.8767
  560MOL0     H75555   8.649   5.805  10.018 -0.9554 -0.9488 -1.7237
  560MOL0     H75556   8.736   5.947  10.184 -2.2725 -0.7285  0.4059
  560MOL0     H75557   8.676   6.098  10.112 -0.3270  0.3991 -1.9892
  560MOL0     H75558   8.922   6.065  10.091  1.4797 -0.2528 -0.7099
  560MOL0     H75559   8.844   6.070   9.929 -0.2452  0.2016  0.1058
  560MOL0     H75560   9.050   5.679  10.010 -1.7641  0.0996 -1.6039
  560MOL0     H75561   9.278   5.648   9.990 -3.8656 -0.6554  1.4497
  560MOL0     H75562   9.712   5.829  10.062  0.3354  0.6767  0.4570
  560MOL0     H75563   9.945   5.856  10.053 -0.1480  0.6505 -0.3121
  560MOL0     H75564  10.164   5.927  10.060 -3.3611  0.0041 -0.0149
  560MOL0     H75565  10.167   5.811   9.924  1.3937 -0.5580  2.1928
  560MOL0     H75566  10.350   6.050   9.948 -2.4618 -0.4887  3.5303
  560MOL0     H75567  10.387   5.888   9.974  1.6600  1.2749  0.2818
  560MOL0     H75568  10.433   5.857   9.749  0.0124  0.5347  1.2495
  560MOL0     H75569  10.266   5.907   9.707  0.8756 -4.6190 -0.6151
  560MOL0     H75570  10.517   6.072   9.753 -0.9724  2.5904  0.3332
  560MOL0     H75571  10.371   6.151   9.722 -0.5690 -1.3471  2.4841
  560MOL0     H75572  10.355   6.091   9.504  0.4097  1.3762  2.1341
  560MOL0     H75573  10.458   5.941   9.513 -0.6708 -0.9273  1.2094
  560MOL0     H75574  10.551   6.231   9.511 -0.4276  0.7874 -1.5926
  560MOL0     H75575  10.654   6.087   9.541 -0.3880 -1.1151  0.8258
  560MOL0     H75576  10.520   6.003   9.323  0.2010 -0.4957  0.5337
  560MOL0     H75577  10.679   6.090   9.302  0.6516  1.2886  1.3930
  560MOL0     H75578  10.555   6.174   9.150 -0.5149 -1.3172  0.3305
  560MOL0     H75579  10.411   6.205   9.253  0.1289  0.1145  0.5886
  560MOL0     H75580   9.926   6.111   9.711  1.6161  0.0496 -0.7347
  560MOL0     H75581   9.693   6.067   9.691  0.8525 -1.3738 -1.1583
  560MOL0     H75582   9.327   6.063   9.864  0.1995  1.1612  0.7772
  560MOL0     H75583   9.072   6.091   9.916  3.2261  0.4463  1.9296
  560MOL0     H75584   7.440   5.851   9.954  1.1975 -0.7405  2.0376
  560MOL0     H75585   7.215   5.914   9.890  1.9262  0.3033  0.8683
  560MOL0     H75586   6.882   6.010   9.834  0.2049 -1.8139  0.2899
  560MOL0     H75587   6.673   6.135   9.746  0.1389  0.0305 -0.2342
  560MOL0     H75588   6.311   6.023   9.944 -0.1296  0.4036  1.1499
  560MOL0     H75589   6.229   6.068   9.790 -0.9348 -1.5917  2.7377
  560MOL0     H75590   6.386   6.260   9.941  0.3658 -0.7320 -2.1874
  560MOL0     H75591   6.219   6.239   9.975  0.4733  0.1201  0.3738
  560MOL0     H75592   6.188   6.271   9.715 -0.2931  1.5329 -1.2321
  560MOL0     H75593   6.356   6.321   9.720 -0.7276 -1.1022 -1.5615
  560MOL0     H75594   6.137   6.448   9.896  2.1318 -1.7728  1.8853
  560MOL0     H75595   6.312   6.499   9.875 -0.2858 -1.7608  3.0474
  560MOL0     H75596   6.072   6.679   9.570 -1.2060 -0.5060 -0.4472
  560MOL0     H75597   6.426   5.823   9.911  0.2269 -0.4532  0.1618
  560MOL0     H75598   6.682   5.693  10.131  0.5629 -0.9983 -0.1784
  560MOL0     H75599   6.504   5.705  10.100 -1.6969  1.0136 -2.2736
  560MOL0     H75600   6.603   5.594  10.010 -0.9258 -0.7980  1.8188
  561MOL0     O75601   8.944   1.021   7.301 -0.8967 -0.5386 -0.2793
  561MOL0     C75602   8.905   0.906   7.321  0.8256 -0.0876  0.8050
  561MOL0     O75603   8.982   0.794   7.328 -0.1363  0.0011 -0.4928
  561MOL0     C75604   9.109   0.813   7.378 -0.4126 -0.5972 -0.6194
  561MOL0     C75605   9.139   0.907   7.481  0.5539  0.4296  0.8701
  561MOL0     C75606   9.269   0.918   7.523  0.4480  0.1183 -0.1851
  561MOL0     C75607   9.371   0.843   7.468 -1.3181  0.9004  0.4550
  561MOL0     O75608   9.501   0.859   7.498 -0.1646 -0.4413 -0.6577
  561MOL0     C75609   9.586   0.741   7.521 -0.5279 -0.5086  0.2322
  561MOL0     C75610   9.724   0.778   7.567  1.4178  0.0635 -0.3056
  561MOL0     C75611   9.790   0.855   7.449 -0.0661 -0.4991  0.1697
  561MOL0     C75612   9.938   0.909   7.474 -0.3438  1.6869  0.1844
  561MOL0     C75613  10.003   0.956   7.341 -0.5983 -0.5239 -0.6610
  561MOL0     C75614  10.151   0.986   7.355  0.0290 -0.2161 -0.0101
  561MOL0     C75615  10.212   1.095   7.274  0.5333 -0.5930 -0.1866
  561MOL0     C75616  10.286   1.069   7.143  0.2577 -0.7932 -0.6183
  561MOL0     N75617  10.355   1.197   7.093  0.1150 -0.5288 -0.5070
  561MOL0     C75618  10.291   1.310   7.064  0.4342 -0.1939 -0.4060
  561MOL0     C75619  10.388   1.399   7.059  0.5383 -0.3487 -0.5041
  561MOL0     C75620  10.371   1.548   7.054  0.5006  0.6212  0.1729
  561MOL0     C75621  10.329   1.578   6.904  0.6999  0.3212 -0.2132
  561MOL0     C75622  10.348   1.732   6.883 -0.6860 -0.4835 -0.2509
  561MOL0     C75623  10.379   1.755   6.737 -0.1912 -0.2758 -0.0018
  561MOL0     O75624  10.458   1.872   6.710  0.2864  0.0750  0.2909
  561MOL0     C75625  10.514   1.878   6.589  0.2049 -0.1978 -0.3067
  561MOL0     C75626  10.460   1.850   6.461 -0.5277  0.5439  0.0446
  561MOL0     C75627  10.530   1.872   6.343 -0.3903  0.3508 -0.5438
  561MOL0     C75628  10.675   1.896   6.350  1.0084  0.6672  1.1173
  561MOL0     C75629  10.756   1.891   6.230  1.0891  0.0128  0.0451
  561MOL0     O75630  10.877   1.835   6.239 -0.2047 -0.3034  0.3164
  561MOL0     C75631  10.958   1.845   6.134 -0.7064  0.0103  0.2166
  561MOL0     C75632  11.019   1.967   6.101 -0.9702 -0.6903  0.1063
  561MOL0     C75633  11.113   1.961   5.993 -0.2039  0.0389  0.5348
  561MOL0     C75634  11.144   1.840   5.926 -0.4367 -0.1311  0.0021
  561MOL0     O75635  11.237   1.840   5.820 -0.5948  0.2979  0.1777
  561MOL0     C75636  11.300   1.731   5.760 -0.0023 -0.0522 -0.7183
  561MOL0     C75637  11.419   1.776   5.674 -0.5940  0.4793 -0.8645
  561MOL0     C75638  11.373   1.854   5.550 -0.2650 -0.4798 -0.3036
  561MOL0     C75639  11.482   1.866   5.433 -0.2469 -0.7114 -0.6789
  561MOL0     C75640  11.444   1.980   5.333  0.0011  0.5602 -0.5390
  561MOL0     C75641  11.527   1.955   5.206  0.1560 -0.1295 -0.2952
  561MOL0     C75642  11.491   2.062   5.102  0.1845 -0.5947  0.0565
  561MOL0     C75643  11.556   2.041   4.971 -0.7967 -0.5363  0.2825
  561MOL0    Cl75644  11.517   1.872   4.915 -0.1118  0.6316  0.5626
  561MOL0     C75645  11.076   1.723   5.958 -0.0214 -0.2627  0.4815
  561MOL0     C75646  10.982   1.729   6.062 -0.3885  0.4253  0.5716
  561MOL0     O75647  10.698   1.933   6.125 -0.0173 -0.0373  0.7050
  561MOL0     C75648  10.738   1.923   6.477  0.5302 -0.4620 -0.1704
  561MOL0     C75649  10.652   1.914   6.592  0.4183  0.2652  0.1737
  561MOL0     N75650  10.510   1.340   7.070 -0.4049 -0.0443  0.2893
  561MOL0     N75651  10.486   1.218   7.088  0.2678  0.1499  0.3560
  561MOL0     C75652   9.331   0.746   7.375 -0.4979  1.0113  0.1753
  561MOL0     C75653   9.208   0.718   7.329  0.4955 -0.6443 -0.1722
  561MOL0     C75654   8.756   0.887   7.281  0.7369  0.1105 -0.4222
  561MOL0     C75655   8.704   0.762   7.253  0.1195 -0.1011  0.2413
  561MOL0     C75656   8.576   0.746   7.211 -0.4498 -1.0106 -0.1526
  561MOL0     C75657   8.488   0.851   7.189  0.0653  0.9531 -0.0717
  561MOL0     O75658   8.354   0.820   7.163  0.5983  0.4832 -0.2909
  561MOL0     C75659   8.266   0.851   7.271  0.6169 -0.5240 -0.1839
  561MOL0     C75660   8.136   0.919   7.210 -0.4025 -0.1144 -0.3729
  561MOL0     C75661   8.042   0.822   7.134  0.4704 -0.1666  0.7374
  561MOL0     C75662   7.933   0.908   7.058 -0.3183  0.7427 -0.5199
  561MOL0     C75663   7.829   0.947   7.156  0.1729  0.6973 -0.2094
  561MOL0     C75664   7.740   0.972   7.234  0.5611 -0.2675 -0.2376
  561MOL0     C75665   8.528   0.975   7.221 -0.5620 -0.6722 -0.9977
  561MOL0     C75666   8.661   0.993   7.273  0.6021  0.2478  1.0622
  561MOL0     C75667   8.686   1.125   7.338 -0.0798 -0.8490  0.2184
  561MOL0     H75668   9.064   0.973   7.523 -0.0540  0.2484  0.0962
  561MOL0     H75669   9.299   0.980   7.606 -1.7030  2.0027 -0.7288
  561MOL0     H75670   9.535   0.676   7.593 -1.5664  1.8480  1.7274
  561MOL0     H75671   9.606   0.674   7.437 -0.8336 -0.0817 -0.1842
  561MOL0     H75672   9.784   0.695   7.606 -0.1728 -0.5568  0.9201
  561MOL0     H75673   9.721   0.854   7.645  0.9613  0.9658 -1.1858
  561MOL0     H75674   9.729   0.935   7.406 -2.3317 -3.5091 -2.7103
  561MOL0     H75675   9.790   0.782   7.367 -0.8280  0.5433 -0.7887
  561MOL0     H75676   9.933   0.992   7.545 -2.0440  1.6694  0.1149
  561MOL0     H75677   9.994   0.819   7.503  1.4414  1.3951 -3.5817
  561MOL0     H75678   9.977   0.881   7.265 -2.1989 -2.8885  2.0582
  561MOL0     H75679   9.952   1.049   7.312 -0.9548 -0.5124 -0.0210
  561MOL0     H75680  10.184   1.006   7.458  1.8314 -1.2326 -0.3518
  561MOL0     H75681  10.205   0.896   7.326 -0.3672 -0.5038  0.1403
  561MOL0     H75682  10.284   1.153   7.333  0.1292  1.2632 -1.4587
  561MOL0     H75683  10.133   1.163   7.240  0.1785 -1.6306 -1.5212
  561MOL0     H75684  10.361   0.995   7.173 -1.5521 -2.6089 -0.2934
  561MOL0     H75685  10.224   1.029   7.062  1.6185  0.0728 -2.1487
  561MOL0     H75686  10.185   1.334   7.075  0.3912 -0.6033  0.1560
  561MOL0     H75687  10.297   1.589   7.123 -0.6471 -0.9663 -0.0545
  561MOL0     H75688  10.468   1.586   7.087  0.5202 -1.7358  3.1873
  561MOL0     H75689  10.384   1.522   6.828 -2.1134 -2.9252 -0.1037
  561MOL0     H75690  10.225   1.544   6.897  0.5851  0.0054  2.0651
  561MOL0     H75691  10.436   1.771   6.935 -2.0093  2.1563  0.1657
  561MOL0     H75692  10.257   1.784   6.914  0.6975 -0.1212  3.6874
  561MOL0     H75693  10.280   1.760   6.691 -0.4057 -0.2774  0.4612
  561MOL0     H75694  10.432   1.671   6.692 -1.9060  0.0966 -2.9716
  561MOL0     H75695  10.357   1.814   6.464  0.6341 -3.0608  1.0725
  561MOL0     H75696  10.484   1.849   6.247  0.0964 -0.3699 -0.6217
  561MOL0     H75697  11.010   2.057   6.161  1.4147  0.7019 -1.4970
  561MOL0     H75698  11.170   2.052   5.977 -1.2644  0.5095 -0.7420
  561MOL0     H75699  11.333   1.656   5.833  3.1490  1.6333 -0.2602
  561MOL0     H75700  11.225   1.679   5.699 -1.3042  0.2167  0.5881
  561MOL0     H75701  11.492   1.833   5.732 -1.4139  0.3107  0.3862
  561MOL0     H75702  11.475   1.690   5.638 -0.7018  0.5288 -1.1548
  561MOL0     H75703  11.283   1.812   5.505 -0.8186  0.8814 -0.5228
  561MOL0     H75704  11.360   1.956   5.587  0.7245 -0.2308 -0.5999
  561MOL0     H75705  11.495   1.764   5.396 -3.9821 -0.7584 -2.3458
  561MOL0     H75706  11.575   1.903   5.476 -0.9146 -2.2805  2.4392
  561MOL0     H75707  11.469   2.078   5.374  0.3137  0.3298 -0.1815
  561MOL0     H75708  11.337   1.969   5.312 -0.1503 -0.6346  0.7342
  561MOL0     H75709  11.633   1.964   5.230 -0.1823 -1.7288  2.0936
  561MOL0     H75710  11.505   1.855   5.168  0.9552 -0.5606  0.3746
  561MOL0     H75711  11.532   2.154   5.143  0.1131 -0.4108 -0.2875
  561MOL0     H75712  11.384   2.078   5.084  0.9416  1.3033 -3.5121
  561MOL0     H75713  11.524   2.122   4.904 -0.8890  0.3305  1.3379
  561MOL0     H75714  11.665   2.043   4.981 -0.6379 -2.1161 -0.8542
  561MOL0     H75715  11.104   1.640   5.894  0.4491 -1.3446  2.0495
  561MOL0     H75716  10.924   1.639   6.081 -1.0480  0.2374 -1.8814
  561MOL0     H75717  10.845   1.942   6.479  0.3127  1.3938 -2.0946
  561MOL0     H75718  10.699   1.940   6.687  2.9096 -0.3928 -0.8130
  561MOL0     H75719   9.412   0.687   7.334 -0.2849  1.5277 -0.1628
  561MOL0     H75720   9.180   0.647   7.251 -1.5722 -0.4823  0.3483
  561MOL0     H75721   8.767   0.674   7.254 -1.0664 -0.9563  0.5235
  561MOL0     H75722   8.548   0.643   7.190  0.9831 -1.3122 -0.6624
  561MOL0     H75723   8.314   0.914   7.347  4.1820 -0.1625 -2.5294
  561MOL0     H75724   8.228   0.755   7.307  0.4106 -0.5339 -0.4307
  561MOL0     H75725   8.170   1.000   7.145  1.5307 -2.1501 -2.1054
  561MOL0     H75726   8.077   0.961   7.291 -0.8521 -0.5495 -0.4708
  561MOL0     H75727   8.005   0.741   7.197 -1.2750 -0.6113 -0.7949
  561MOL0     H75728   8.102   0.777   7.055 -0.3809 -0.7894  0.4399
  561MOL0     H75729   7.973   1.000   7.013 -1.6377  1.3197 -0.5697
  561MOL0     H75730   7.886   0.851   6.978 -1.1140 -1.4327  1.3960
  561MOL0     H75731   7.665   0.991   7.308 -0.3940 -2.4100 -0.5813
  561MOL0     H75732   8.458   1.055   7.202 -0.2363 -0.7423 -2.5677
  561MOL0     H75733   8.764   1.181   7.285 -0.3528  0.5212  1.2204
  561MOL0     H75734   8.602   1.195   7.335  0.8861  0.4096 -3.9676
  561MOL0     H75735   8.705   1.111   7.445 -0.2721 -3.0551  0.0236
  562MOL0     O75736   0.952   0.355   6.594  0.1188  0.0695 -0.4637
  562MOL0     C75737   0.880   0.457   6.593 -0.4026  0.0476 -0.7274
  562MOL0     O75738   0.890   0.549   6.688  0.5293 -0.2299  0.4976
  562MOL0     C75739   1.003   0.557   6.763  0.1112  0.1907 -0.4094
  562MOL0     C75740   1.134   0.574   6.706  0.6476  0.6212  0.2593
  562MOL0     C75741   1.245   0.593   6.791  0.0388 -0.0554  0.4712
  562MOL0     C75742   1.233   0.587   6.928  1.0060 -0.4119 -0.4086
  562MOL0     O75743   1.331   0.639   7.007  0.3817 -0.2350  0.7175
  562MOL0     C75744   1.346   0.580   7.133 -0.1661 -0.5522 -0.1980
  562MOL0     C75745   1.491   0.535   7.138 -0.1733 -0.3774  0.7191
  562MOL0     C75746   1.523   0.407   7.063 -0.1500 -0.0319 -0.0702
  562MOL0     C75747   1.649   0.329   7.118 -1.1429 -0.5828 -0.2107
  562MOL0     C75748   1.775   0.415   7.101  0.8017 -0.6239  0.2731
  562MOL0     C75749   1.819   0.423   6.960  0.4203 -0.0931 -0.2851
  562MOL0     C75750   1.970   0.467   6.965  0.2339  0.8583 -0.3076
  562MOL0     C75751   2.028   0.479   6.822 -0.7249  0.2458  0.2421
  562MOL0     N75752   2.168   0.526   6.827  0.4523 -0.1711 -0.3959
  562MOL0     C75753   2.281   0.449   6.846 -0.2109 -0.4729 -0.5574
  562MOL0     C75754   2.377   0.545   6.872  0.4590  0.3826  0.4231
  562MOL0     C75755   2.519   0.510   6.900 -0.7203 -0.1387  0.1446
  562MOL0     C75756   2.572   0.424   6.780  0.0599  0.4670 -0.1192
  562MOL0     C75757   2.716   0.440   6.730  0.5380 -0.1547  0.2218
  562MOL0     C75758   2.761   0.591   6.715 -0.0672 -1.0587  0.0838
  562MOL0     O75759   2.891   0.592   6.636  0.8288 -0.1850 -0.5589
  562MOL0     C75760   3.007   0.547   6.706  0.6015 -0.0274 -0.0912
  562MOL0     C75761   3.121   0.547   6.625 -0.2037  0.1646  0.2335
  562MOL0     C75762   3.247   0.493   6.667  0.0691  0.4904 -0.1430
  562MOL0     C75763   3.256   0.448   6.801 -1.1963  0.4954  0.2407
  562MOL0     C75764   3.388   0.420   6.855  0.2186  0.7121 -0.1249
  562MOL0     O75765   3.396   0.408   6.989  0.1808 -0.1637 -0.6656
  562MOL0     C75766   3.508   0.415   7.068 -1.1770 -1.2276 -0.2338
  562MOL0     C75767   3.514   0.503   7.173 -0.9793  0.0882 -0.8706
  562MOL0     C75768   3.619   0.513   7.258  0.5559  0.4626 -0.4151
  562MOL0     C75769   3.735   0.434   7.238 -0.3212 -0.3425 -0.1756
  562MOL0     O75770   3.839   0.412   7.327  0.1979  0.7077  0.0389
  562MOL0     C75771   3.807   0.459   7.459 -0.7569  0.0929  0.1972
  562MOL0     C75772   3.940   0.441   7.542 -0.2527 -0.1424  0.6579
  562MOL0     C75773   4.078   0.439   7.459 -0.0081 -0.3820 -0.0221
  562MOL0     C75774   4.124   0.297   7.457 -0.3607  0.3771 -0.5544
  562MOL0     C75775   4.250   0.276   7.366  0.4088  0.3235 -0.4290
  562MOL0     C75776   4.372   0.352   7.419 -0.0688  0.7768  0.5194
  562MOL0     C75777   4.511   0.300   7.358 -0.3600  0.5242 -0.3137
  562MOL0     C75778   4.636   0.362   7.428  0.4532  0.5365  0.9898
  562MOL0    Cl75779   4.660   0.285   7.589  0.0797  0.2385 -0.1676
  562MOL0     C75780   3.739   0.346   7.131  0.1053  0.5836  0.4120
  562MOL0     C75781   3.624   0.338   7.040 -0.2841 -0.0672  0.5405
  562MOL0     O75782   3.477   0.385   6.779 -0.1690 -0.1157 -0.1529
  562MOL0     C75783   3.140   0.445   6.882  0.9795  0.5843 -0.1398
  562MOL0     C75784   3.016   0.493   6.833  0.1100  0.0895  0.4752
  562MOL0     N75785   2.319   0.671   6.863 -0.4886  0.1050 -0.3514
  562MOL0     N75786   2.197   0.658   6.828  0.4571 -0.3727  0.8305
  562MOL0     C75787   1.102   0.560   6.990 -0.1113 -0.5005 -0.1320
  562MOL0     C75788   0.987   0.549   6.907 -0.4405 -0.4262  0.5809
  562MOL0     C75789   0.767   0.472   6.501  0.6170  0.3337  0.2400
  562MOL0     C75790   0.668   0.569   6.528 -0.4421  0.6443 -0.0204
  562MOL0     C75791   0.550   0.581   6.451 -0.9929  0.2190 -0.5183
  562MOL0     C75792   0.542   0.507   6.334  0.1975  0.1690 -0.1294
  562MOL0     O75793   0.437   0.531   6.242  0.0523 -0.5414  0.1701
  562MOL0     C75794   0.307   0.539   6.303  0.3415  0.0743 -0.4771
  562MOL0     C75795   0.265   0.684   6.307  0.7901 -0.0817 -0.9567
  562MOL0     C75796   0.156   0.717   6.414  0.7678 -0.2619  0.3859
  562MOL0     C75797   0.120   0.856   6.433 -0.3937 -0.7521 -0.1373
  562MOL0     C75798   0.054   0.914   6.313  0.0602 -0.6009 -0.8025
  562MOL0     C75799   0.009   0.967   6.217  0.1598 -0.0237  0.3968
  562MOL0     C75800   0.634   0.416   6.304  0.1752  0.3881  1.1626
  562MOL0     C75801   0.753   0.398   6.382 -0.2450 -0.3560 -0.6750
  562MOL0     C75802   0.849   0.293   6.336 -0.1873 -0.5533  0.1588
  562MOL0     H75803   1.146   0.573   6.599  2.6186  5.3651  0.2372
  562MOL0     H75804   1.344   0.616   6.753  0.2487 -1.6733 -0.0377
  562MOL0     H75805   1.330   0.660   7.207  0.2374 -1.1457  0.5514
  562MOL0     H75806   1.285   0.491   7.147 -0.6877 -0.4054 -1.4102
  562MOL0     H75807   1.505   0.515   7.245 -1.0244 -1.3179  0.6637
  562MOL0     H75808   1.557   0.615   7.103  2.2157 -2.0824  1.0652
  562MOL0     H75809   1.525   0.436   6.957  0.2586  2.6515  0.5963
  562MOL0     H75810   1.438   0.338   7.071 -0.1168 -0.3568 -2.0459
  562MOL0     H75811   1.633   0.301   7.223  0.9945  1.7226  0.8434
  562MOL0     H75812   1.675   0.234   7.071  1.1000 -0.7749  1.2392
  562MOL0     H75813   1.758   0.515   7.142 -2.9628 -0.0492 -2.1136
  562MOL0     H75814   1.858   0.366   7.152 -0.8393 -1.1543  2.5919
  562MOL0     H75815   1.798   0.326   6.914 -0.6758 -0.3288  0.6545
  562MOL0     H75816   1.763   0.495   6.901  0.1314 -1.1769 -1.3823
  562MOL0     H75817   2.036   0.413   7.033 -0.1960  2.6906  1.6649
  562MOL0     H75818   1.974   0.572   6.996  0.5446  0.4838  0.9520
  562MOL0     H75819   2.025   0.386   6.764 -0.8604  0.7704 -0.6036
  562MOL0     H75820   1.964   0.551   6.770 -2.4290  0.8440  2.9191
  562MOL0     H75821   2.292   0.343   6.862  2.0370  0.2075  3.9248
  562MOL0     H75822   2.581   0.599   6.913  1.1157 -1.5856  1.7283
  562MOL0     H75823   2.529   0.447   6.988  3.4216 -1.5286 -1.0949
  562MOL0     H75824   2.568   0.317   6.805 -2.0833  0.6837  0.6951
  562MOL0     H75825   2.502   0.447   6.699 -0.6338 -0.1015  0.3023
  562MOL0     H75826   2.724   0.401   6.628 -0.2100 -0.2792  0.2080
  562MOL0     H75827   2.777   0.382   6.800  2.4805  1.4419 -0.0401
  562MOL0     H75828   2.773   0.645   6.810 -2.4152  3.1360 -1.7367
  562MOL0     H75829   2.686   0.649   6.660  1.7257 -1.0377 -2.4857
  562MOL0     H75830   3.104   0.590   6.527 -0.6650  0.4206  0.4224
  562MOL0     H75831   3.340   0.500   6.611  0.4496 -1.8432  0.1103
  562MOL0     H75832   3.435   0.574   7.198 -0.3218  0.0808  1.4541
  562MOL0     H75833   3.613   0.576   7.346  1.2211 -2.8875  2.2185
  562MOL0     H75834   3.797   0.568   7.446  0.4255 -0.0285 -2.2271
  562MOL0     H75835   3.723   0.402   7.501 -0.2838 -1.8292 -1.3690
  562MOL0     H75836   3.947   0.523   7.614  2.9689  1.3343 -1.1231
  562MOL0     H75837   3.940   0.350   7.602  0.0297 -0.6600 -0.1106
  562MOL0     H75838   4.080   0.475   7.356  0.9320 -0.9798 -0.2211
  562MOL0     H75839   4.152   0.507   7.502  0.9369 -1.0233 -0.5972
  562MOL0     H75840   4.037   0.252   7.407 -0.4542  0.1933 -0.2272
  562MOL0     H75841   4.136   0.269   7.562  2.3142 -0.5228 -1.0319
  562MOL0     H75842   4.231   0.298   7.260 -0.5430 -6.7100 -2.2499
  562MOL0     H75843   4.276   0.170   7.371 -1.0210 -0.0138  0.1502
  562MOL0     H75844   4.359   0.452   7.376  1.8265  0.5858 -0.5988
  562MOL0     H75845   4.375   0.359   7.528  0.0042 -0.2670  0.5975
  562MOL0     H75846   4.529   0.319   7.252 -0.5278 -3.1437 -1.1374
  562MOL0     H75847   4.520   0.193   7.383 -1.6584  0.8683  1.8337
  562MOL0     H75848   4.731   0.346   7.375 -0.2802  1.0347 -0.5229
  562MOL0     H75849   4.619   0.469   7.435 -0.9565  0.4546 -0.5918
  562MOL0     H75850   3.819   0.273   7.125  0.1182  0.7014 -1.4490
  562MOL0     H75851   3.625   0.263   6.961 -0.6535 -0.1463  0.6068
  562MOL0     H75852   3.143   0.402   6.981 -2.3834 -1.8631 -0.9502
  562MOL0     H75853   2.932   0.484   6.902 -0.9706  1.1187 -0.6454
  562MOL0     H75854   1.102   0.570   7.098  0.9316 -1.2286 -0.0479
  562MOL0     H75855   0.883   0.538   6.936 -0.9837 -1.5617 -1.6034
  562MOL0     H75856   0.665   0.628   6.619 -1.3254  2.1117 -0.9770
  562MOL0     H75857   0.480   0.659   6.481  2.9921  3.6914  0.8706
  562MOL0     H75858   0.294   0.477   6.393 -1.7094 -1.4887 -1.7625
  562MOL0     H75859   0.239   0.490   6.232 -1.6554 -1.0662  2.0353
  562MOL0     H75860   0.205   0.706   6.219 -3.6562 -1.9554  1.2893
  562MOL0     H75861   0.352   0.750   6.312 -0.5235  1.6401  0.6491
  562MOL0     H75862   0.196   0.701   6.514  2.2846  0.6607 -0.0434
  562MOL0     H75863   0.066   0.655   6.399  0.2830  0.6165 -0.4286
  562MOL0     H75864   0.046   0.859   6.514  1.7915 -0.4995  1.9647
  562MOL0     H75865   0.212   0.910   6.458 -0.7253 -0.3526  0.2399
  562MOL0     H75866  -0.041   1.029   6.145 -0.6481 -2.2649 -1.0934
  562MOL0     H75867   0.624   0.354   6.216  1.5323  0.8925  0.6198
  562MOL0     H75868   0.829   0.254   6.236  2.0192  1.2114 -1.0660
  562MOL0     H75869   0.946   0.344   6.338 -1.1358  1.5170  4.3004
  562MOL0     H75870   0.836   0.212   6.408 -3.7201  1.7154  2.3634
  563MOL0     O75871   5.017   9.440   0.501 -0.0065 -0.5394 -0.1959
  563MOL0     C75872   5.114   9.390   0.555  0.2048 -0.4555 -0.3744
  563MOL0     O75873   5.124   9.255   0.576  0.1639  0.2948  0.0026
  563MOL0     C75874   5.020   9.170   0.527  0.6548 -0.3672  0.6492
  563MOL0     C75875   5.018   9.148   0.389  0.2355  0.6696 -0.1236
  563MOL0     C75876   4.926   9.064   0.334 -0.7371  0.2966 -0.1442
  563MOL0     C75877   4.825   9.001   0.406 -0.8241  0.3650 -0.5996
  563MOL0     O75878   4.742   8.919   0.332  0.3579  0.3744 -0.4631
  563MOL0     C75879   4.732   8.788   0.393 -0.2879  0.2859  0.4590
  563MOL0     C75880   4.620   8.707   0.316 -0.3585  0.1424  0.1154
  563MOL0     C75881   4.540   8.609   0.417 -0.0427 -0.4335  0.8449
  563MOL0     C75882   4.439   8.539   0.326  0.1830  0.1829  0.1809
  563MOL0     C75883   4.337   8.470   0.416 -0.9982 -0.6694  0.7507
  563MOL0     C75884   4.250   8.373   0.330  0.0648 -0.5120 -0.2953
  563MOL0     C75885   4.143   8.313   0.422  0.2188  0.0456  0.0361
  563MOL0     C75886   4.024   8.418   0.426 -0.7264  0.5227  0.3041
  563MOL0     N75887   3.922   8.407   0.322  0.0637 -0.4653 -0.6393
  563MOL0     C75888   3.810   8.337   0.342 -0.4307  0.1632  0.1259
  563MOL0     C75889   3.752   8.330   0.220 -0.2030 -0.8346  0.1344
  563MOL0     C75890   3.647   8.234   0.179  0.1586  0.5093  0.2638
  563MOL0     C75891   3.678   8.142   0.063  0.9476  0.3208  0.6233
  563MOL0     C75892   3.778   8.022   0.073 -0.3849 -0.1249  0.0400
  563MOL0     C75893   3.921   8.074   0.098 -0.4893  0.0034 -0.5230
  563MOL0     O75894   4.019   7.971   0.089 -0.1869  0.4296  0.8965
  563MOL0     C75895   4.154   7.990   0.086 -0.3421  0.3332 -0.0331
  563MOL0     C75896   4.213   8.126   0.086  0.1023  1.2197  0.6983
  563MOL0     C75897   4.352   8.126   0.092  0.0800  0.6906  0.5332
  563MOL0     C75898   4.434   8.011   0.097 -0.4505 -0.5640  0.3574
  563MOL0     C75899   4.582   8.025   0.090 -0.1203  0.2532  0.2758
  563MOL0     O75900   4.656   7.909   0.098 -0.7518 -0.0303 -0.3289
  563MOL0     C75901   4.784   7.917   0.138 -0.3691  0.8781 -0.1815
  563MOL0     C75902   4.824   7.880   0.266  0.1666 -0.5634  0.4781
  563MOL0     C75903   4.960   7.875   0.295  0.1537 -0.8772 -0.6357
  563MOL0     C75904   5.050   7.941   0.211 -0.0752  0.2959 -0.7453
  563MOL0     O75905   5.188   7.979   0.234 -0.0590  0.3413 -0.2532
  563MOL0     C75906   5.228   7.995   0.364 -0.1947 -0.6465 -0.1161
  563MOL0     C75907   5.364   8.066   0.360 -0.1065 -0.6160 -0.2306
  563MOL0     C75908   5.373   8.213   0.311  1.2452  1.4834  0.1498
  563MOL0     C75909   5.521   8.251   0.315 -0.2625 -0.8068  0.4161
  563MOL0     C75910   5.534   8.407   0.301 -0.0085 -0.3166 -0.2573
  563MOL0     C75911   5.681   8.450   0.320 -0.8296 -0.7719  0.5047
  563MOL0     C75912   5.694   8.604   0.289  0.1684  0.1282 -0.0289
  563MOL0     C75913   5.842   8.639   0.293  0.2065 -0.5818 -0.1337
  563MOL0    Cl75914   5.881   8.811   0.303 -0.1544 -0.2758 -0.2533
  563MOL0     C75915   5.006   7.983   0.080 -0.3227  0.3451 -0.2881
  563MOL0     C75916   4.874   7.969   0.045 -0.2700  0.0885 -0.2928
  563MOL0     O75917   4.631   8.137   0.089  0.1018 -0.8277  0.0433
  563MOL0     C75918   4.375   7.887   0.097 -0.5514  0.6275  0.7911
  563MOL0     C75919   4.230   7.872   0.092 -0.9838 -0.0175 -0.2553
  563MOL0     N75920   3.832   8.403   0.131  0.4839  0.0116  0.1176
  563MOL0     N75921   3.932   8.445   0.194  0.3497 -0.5840  0.4719
  563MOL0     C75922   4.838   9.031   0.545  0.2947 -0.2787 -0.0173
  563MOL0     C75923   4.930   9.109   0.607  0.2293 -0.4384 -0.1275
  563MOL0     C75924   5.228   9.468   0.612  0.6430  0.0640 -0.3054
  563MOL0     C75925   5.348   9.396   0.634  0.2938 -0.2756 -0.0471
  563MOL0     C75926   5.450   9.473   0.690 -0.1556 -0.4465 -0.1597
  563MOL0     C75927   5.443   9.609   0.722 -0.1934  0.0246  0.6694
  563MOL0     O75928   5.551   9.677   0.768  0.0522 -0.9214  0.4911
  563MOL0     C75929   5.550   9.679   0.911  0.2646 -0.8967 -0.1899
  563MOL0     C75930   5.664   9.780   0.944  0.1411  0.2217  0.3630
  563MOL0     C75931   5.672   9.791   1.104  0.1877 -0.4874  0.0530
  563MOL0     C75932   5.780   9.884   1.156  0.1437 -0.3360  0.0762
  563MOL0     C75933   5.908   9.854   1.093 -0.9805  0.2997  0.4175
  563MOL0     C75934   6.020   9.828   1.048 -0.2574 -1.7388  0.3048
  563MOL0     C75935   5.316   9.680   0.715  0.8664  0.2848  1.3402
  563MOL0     C75936   5.205   9.608   0.654  0.1012  0.1874 -0.1481
  563MOL0     C75937   5.067   9.680   0.668  0.2776 -0.2567  0.6383
  563MOL0     H75938   5.093   9.203   0.334 -0.2360  0.0984 -1.3587
  563MOL0     H75939   4.917   9.068   0.225  0.4574 -1.3439 -0.3485
  563MOL0     H75940   4.827   8.734   0.381 -0.2353  0.0347  1.8176
  563MOL0     H75941   4.713   8.795   0.501  1.4480  0.1639  0.8054
  563MOL0     H75942   4.660   8.654   0.229  0.8130  4.4099 -2.2334
  563MOL0     H75943   4.551   8.781   0.274 -1.5073 -0.1494  1.4032
  563MOL0     H75944   4.483   8.672   0.486  1.7446  1.6017  0.5521
  563MOL0     H75945   4.610   8.542   0.469 -0.6498 -3.4713 -1.9253
  563MOL0     H75946   4.386   8.602   0.254  0.3086 -0.9293 -0.9339
  563MOL0     H75947   4.487   8.460   0.267 -1.3975 -1.7908  1.3996
  563MOL0     H75948   4.390   8.414   0.493  0.1862 -0.8245 -0.1658
  563MOL0     H75949   4.275   8.550   0.460  0.1468 -0.4762  2.0833
  563MOL0     H75950   4.197   8.408   0.241 -0.5856  0.4500  0.4367
  563MOL0     H75951   4.314   8.303   0.276  0.1391 -0.3858 -0.3699
  563MOL0     H75952   4.192   8.298   0.519  0.2097  1.0455  0.2114
  563MOL0     H75953   4.111   8.221   0.372 -1.8357  1.0049 -0.5574
  563MOL0     H75954   3.974   8.401   0.522 -0.0820  0.6569  0.6676
  563MOL0     H75955   4.066   8.518   0.433  0.7795  0.0291 -0.9601
  563MOL0     H75956   3.778   8.276   0.426  3.3095 -2.1452  0.0988
  563MOL0     H75957   3.616   8.182   0.270  1.3500  2.2910  1.7516
  563MOL0     H75958   3.563   8.297   0.147 -0.7643 -0.7086  0.2138
  563MOL0     H75959   3.582   8.096   0.039  1.0563  0.6044 -0.3649
  563MOL0     H75960   3.707   8.207  -0.019  3.1256 -2.2574 -0.7914
  563MOL0     H75961   3.790   7.972  -0.023  1.8516  1.7199 -0.7575
  563MOL0     H75962   3.729   7.947   0.136  0.8461 -1.7186 -0.8182
  563MOL0     H75963   3.919   8.110   0.201  1.2572 -1.8906  0.2476
  563MOL0     H75964   3.952   8.154   0.031  0.8832  0.8919  1.1268
  563MOL0     H75965   4.156   8.218   0.078 -1.6335  0.1188 -0.1356
  563MOL0     H75966   4.382   8.230   0.084 -2.1913  1.3782  0.2209
  563MOL0     H75967   4.753   7.830   0.331 -3.2077  1.4951 -1.2884
  563MOL0     H75968   5.011   7.852   0.388  1.3699 -0.0693 -1.0782
  563MOL0     H75969   5.155   8.052   0.423  1.7847  2.3824 -0.4280
  563MOL0     H75970   5.248   7.897   0.409 -2.1247 -0.4037  1.3947
  563MOL0     H75971   5.397   8.066   0.464  1.7836 -0.0774 -0.7759
  563MOL0     H75972   5.428   7.994   0.307 -0.9471 -1.6254  0.0908
  563MOL0     H75973   5.349   8.220   0.204  3.2134  0.0944 -0.4599
  563MOL0     H75974   5.319   8.284   0.374 -0.7977 -0.2494  0.4355
  563MOL0     H75975   5.591   8.206   0.244  0.4438  2.6192 -1.2654
  563MOL0     H75976   5.559   8.229   0.416  2.5568  0.9693 -0.1563
  563MOL0     H75977   5.468   8.444   0.380 -0.7599 -1.0677 -0.5158
  563MOL0     H75978   5.494   8.435   0.203  0.8899 -0.7044 -0.7438
  563MOL0     H75979   5.713   8.421   0.421  0.1495 -0.3637  0.3285
  563MOL0     H75980   5.751   8.405   0.249 -0.1886  0.6914  0.1589
  563MOL0     H75981   5.637   8.670   0.354  0.7282 -0.1746  0.7916
  563MOL0     H75982   5.657   8.620   0.187  0.7652  1.5409 -0.0398
  563MOL0     H75983   5.895   8.589   0.374  0.3379 -1.5864 -0.8100
  563MOL0     H75984   5.881   8.592   0.201 -0.9096 -0.2048 -0.8223
  563MOL0     H75985   5.065   8.018  -0.004 -0.8694 -0.1658 -0.9020
  563MOL0     H75986   4.847   7.997  -0.057 -2.5920 -0.0043  0.2431
  563MOL0     H75987   4.430   7.794   0.097  2.1025  2.0876  1.6368
  563MOL0     H75988   4.201   7.769   0.075  1.6399 -0.6891 -1.1819
  563MOL0     H75989   4.767   8.978   0.608 -1.7371  0.0899 -1.8691
  563MOL0     H75990   4.931   9.126   0.714 -0.3023 -0.4670 -0.1108
  563MOL0     H75991   5.372   9.293   0.607  0.1981 -0.4004  0.3446
  563MOL0     H75992   5.545   9.426   0.712  0.0150  1.1379  3.0991
  563MOL0     H75993   5.575   9.581   0.952 -4.2058 -1.8431  0.7856
  563MOL0     H75994   5.455   9.723   0.942  0.7660  2.1799 -2.4644
  563MOL0     H75995   5.648   9.884   0.915  1.5538  0.4258  0.2469
  563MOL0     H75996   5.754   9.752   0.888 -0.6390  2.4307 -2.2238
  563MOL0     H75997   5.699   9.689   1.135 -1.4784 -0.5647  1.4336
  563MOL0     H75998   5.578   9.830   1.146 -0.5313  0.1938 -2.0779
  563MOL0     H75999   5.758   9.987   1.130  1.6546  0.0206  0.1106
  563MOL0     H76000   5.800   9.878   1.264  4.1754 -1.0927 -0.5559
  563MOL0     H76001   6.105   9.787   0.997 -0.7050  0.0348 -2.0589
  563MOL0     H76002   5.312   9.780   0.755 -0.8482  0.5857  0.4705
  563MOL0     H76003   5.046   9.762   0.598 -3.3428 -1.9263 -0.5144
  563MOL0     H76004   4.983   9.609   0.664  1.1424 -1.2689 -0.0482
  563MOL0     H76005   5.066   9.732   0.764  0.0348  1.1583 -0.1082
  564MOL0     O76006   8.372   6.775   2.032  0.1231 -0.1843  0.1584
  564MOL0     C76007   8.408   6.844   2.127 -0.1370 -0.2459 -0.2961
  564MOL0     O76008   8.319   6.900   2.217  0.4064  0.0994  0.2034
  564MOL0     C76009   8.180   6.875   2.211 -0.8260  0.4559 -0.2900
  564MOL0     C76010   8.104   6.835   2.096 -0.2285  0.1608 -0.0428
  564MOL0     C76011   7.968   6.806   2.111  1.0111  0.2628  0.0703
  564MOL0     C76012   7.905   6.797   2.239 -0.5639  0.6049  0.8857
  564MOL0     O76013   7.782   6.740   2.263 -0.0651 -0.3353  0.2298
  564MOL0     C76014   7.739   6.634   2.182  0.2821  0.6352  0.2926
  564MOL0     C76015   7.648   6.691   2.072  0.2425 -0.4443  0.0460
  564MOL0     C76016   7.499   6.656   2.067 -0.5368  0.2838 -0.9896
  564MOL0     C76017   7.410   6.748   1.988 -0.3190  0.7176  0.1384
  564MOL0     C76018   7.266   6.692   1.985 -0.3961  0.8747  0.8009
  564MOL0     C76019   7.162   6.762   1.900 -0.5509 -0.4164 -0.5003
  564MOL0     C76020   7.019   6.704   1.919  0.1833 -0.4147  0.1972
  564MOL0     C76021   7.008   6.554   1.925 -0.4809  0.5637 -0.8646
  564MOL0     N76022   7.043   6.482   2.050  0.1140  0.8971 -0.8207
  564MOL0     C76023   7.047   6.520   2.175  0.1090  0.1832 -0.3685
  564MOL0     C76024   7.088   6.411   2.244 -0.2247  0.3643  1.3266
  564MOL0     C76025   7.105   6.414   2.392  0.0096 -0.6199 -0.5932
  564MOL0     C76026   7.248   6.459   2.429  0.0811 -0.5708 -0.1726
  564MOL0     C76027   7.355   6.365   2.362 -0.2367  0.4593  0.0019
  564MOL0     C76028   7.483   6.364   2.447 -0.0370  0.0482 -0.4064
  564MOL0     O76029   7.562   6.241   2.413 -0.7111 -0.1340 -1.5873
  564MOL0     C76030   7.690   6.240   2.455 -0.3207  0.4645  0.3648
  564MOL0     C76031   7.739   6.327   2.549  0.5100 -0.3977  0.1108
  564MOL0     C76032   7.875   6.306   2.594  1.1744 -0.6815 -0.3787
  564MOL0     C76033   7.954   6.205   2.532  0.5362 -0.1621 -0.0168
  564MOL0     C76034   8.094   6.185   2.590  0.4380 -0.2291 -0.6430
  564MOL0     O76035   8.126   6.249   2.709  0.5494 -0.6255  0.1840
  564MOL0     C76036   8.254   6.262   2.750 -0.3982  0.2080  0.1073
  564MOL0     C76037   8.345   6.347   2.678  0.3235 -0.1865 -0.4307
  564MOL0     C76038   8.473   6.369   2.721  0.3461  0.0912 -0.2654
  564MOL0     C76039   8.525   6.304   2.832 -0.3909  0.3405  0.5673
  564MOL0     O76040   8.657   6.304   2.867 -0.3039 -0.1443  0.6964
  564MOL0     C76041   8.757   6.361   2.773  0.1259  0.2189  0.3230
  564MOL0     C76042   8.897   6.329   2.826  0.2715 -0.6486  0.3275
  564MOL0     C76043   9.006   6.409   2.757  0.2730 -0.0381  0.0532
  564MOL0     C76044   9.148   6.418   2.827 -0.6434  0.5950  0.0873
  564MOL0     C76045   9.261   6.473   2.736  0.8235 -0.2148 -0.3837
  564MOL0     C76046   9.295   6.387   2.614 -0.0841  0.5627 -0.7733
  564MOL0     C76047   9.392   6.454   2.509  0.8452  1.2335 -0.6416
  564MOL0     C76048   9.510   6.532   2.570 -0.6039  0.1349 -0.3456
  564MOL0    Cl76049   9.614   6.592   2.445 -0.2804  0.3150 -0.3813
  564MOL0     C76050   8.436   6.219   2.905  0.2347  0.4341 -0.3856
  564MOL0     C76051   8.300   6.208   2.865 -0.5598 -0.8838 -0.4277
  564MOL0     O76052   8.176   6.115   2.527  1.4198  0.1259 -0.3703
  564MOL0     C76053   7.897   6.126   2.423 -0.1471  1.4197 -0.6562
  564MOL0     C76054   7.768   6.138   2.397  0.1792 -0.2084  1.0011
  564MOL0     N76055   7.100   6.298   2.160 -0.9140  0.2660  0.2166
  564MOL0     N76056   7.070   6.345   2.040  0.0924 -0.1826  0.2522
  564MOL0     C76057   7.976   6.847   2.347 -0.5218 -0.5342 -0.1549
  564MOL0     C76058   8.116   6.888   2.328  0.0780  1.1823 -0.3323
  564MOL0     C76059   8.552   6.872   2.151 -0.0584 -0.6917  0.1194
  564MOL0     C76060   8.641   6.765   2.132  0.1482  0.8508 -0.3277
  564MOL0     C76061   8.778   6.776   2.167  0.2997  0.4301 -0.4961
  564MOL0     C76062   8.825   6.901   2.206 -0.4742  0.1705  0.2720
  564MOL0     O76063   8.958   6.919   2.232 -0.1545  0.0766  0.1617
  564MOL0     C76064   9.045   6.797   2.224 -0.1349 -0.2663 -0.9578
  564MOL0     C76065   9.184   6.833   2.279  0.3710 -0.1567 -0.6851
  564MOL0     C76066   9.179   6.880   2.428 -0.4439  0.1501 -1.3609
  564MOL0     C76067   9.322   6.908   2.474  0.0390 -0.0244 -1.4143
  564MOL0     C76068   9.345   6.915   2.617 -0.3967 -0.3315 -0.2064
  564MOL0     C76069   9.366   6.918   2.738  0.1637 -0.2235  0.2654
  564MOL0     C76070   8.742   7.007   2.230 -0.2981 -0.5246  0.9552
  564MOL0     C76071   8.604   6.998   2.196 -0.4825  0.4484 -0.1485
  564MOL0     C76072   8.511   7.113   2.221 -0.1330  0.3716  0.2881
  564MOL0     H76073   8.151   6.839   1.998  0.8848 -1.7433  0.3603
  564MOL0     H76074   7.925   6.777   2.016  1.5130  1.8923 -0.7004
  564MOL0     H76075   7.823   6.586   2.131 -2.3246 -0.4495 -3.3619
  564MOL0     H76076   7.674   6.570   2.242 -1.6399  1.1453 -1.1658
  564MOL0     H76077   7.696   6.653   1.982  1.2233 -0.5942  0.6225
  564MOL0     H76078   7.655   6.800   2.076 -2.2354 -0.0404 -2.7127
  564MOL0     H76079   7.462   6.651   2.170  0.6409 -2.3702 -0.5954
  564MOL0     H76080   7.495   6.549   2.043 -0.4511 -0.6300  2.4801
  564MOL0     H76081   7.404   6.849   2.030  2.6327  0.0553  2.5145
  564MOL0     H76082   7.447   6.751   1.885  4.0558 -2.7719  1.2776
  564MOL0     H76083   7.270   6.590   1.946 -1.2993  0.7937  0.9199
  564MOL0     H76084   7.216   6.689   2.082 -1.3342  2.5452  0.3962
  564MOL0     H76085   7.158   6.868   1.927  3.6753 -1.2255  5.2380
  564MOL0     H76086   7.188   6.751   1.794 -0.2362  1.5387 -0.6510
  564MOL0     H76087   6.960   6.748   1.838  0.3413 -2.1261 -0.8865
  564MOL0     H76088   6.978   6.744   2.012  0.6149 -1.7751  0.9961
  564MOL0     H76089   6.902   6.535   1.903 -0.6956  2.2250 -1.3874
  564MOL0     H76090   7.069   6.509   1.846 -0.0617 -1.4084  0.5142
  564MOL0     H76091   7.012   6.614   2.219 -1.8822 -0.9436  0.6149
  564MOL0     H76092   7.026   6.475   2.437  1.5013  0.2600  0.9389
  564MOL0     H76093   7.090   6.315   2.435 -0.1075  0.6407  2.5807
  564MOL0     H76094   7.276   6.560   2.399 -3.1828  1.1150  1.7947
  564MOL0     H76095   7.255   6.459   2.538 -3.8366 -2.6975  0.2748
  564MOL0     H76096   7.384   6.395   2.261  1.2854 -1.1746 -0.0910
  564MOL0     H76097   7.317   6.264   2.347 -0.1168  0.6565 -1.9001
  564MOL0     H76098   7.469   6.362   2.556  0.5808  1.3985 -0.2801
  564MOL0     H76099   7.525   6.462   2.423 -1.2805  0.3409 -1.5010
  564MOL0     H76100   7.681   6.402   2.601  3.0852  0.7692  1.4275
  564MOL0     H76101   7.922   6.365   2.672 -1.5545 -2.3040  2.7772
  564MOL0     H76102   8.316   6.402   2.590  2.5138 -2.3916 -2.7196
  564MOL0     H76103   8.532   6.440   2.663 -0.9487  1.7555  0.3430
  564MOL0     H76104   8.753   6.323   2.671  0.1787  1.2469 -0.0742
  564MOL0     H76105   8.734   6.467   2.758 -1.7806 -0.1754  0.2225
  564MOL0     H76106   8.908   6.358   2.931 -2.5778  0.0824  0.5059
  564MOL0     H76107   8.928   6.225   2.815  3.2027 -0.4531  4.4910
  564MOL0     H76108   9.019   6.356   2.663  0.8023  0.2594 -0.0440
  564MOL0     H76109   8.966   6.505   2.724  0.7286 -0.5541 -2.1510
  564MOL0     H76110   9.185   6.319   2.855 -3.2303 -1.4273 -2.9766
  564MOL0     H76111   9.128   6.484   2.912  0.2190  0.0818  0.7046
  564MOL0     H76112   9.345   6.479   2.805  2.1600 -3.6433 -1.4818
  564MOL0     H76113   9.225   6.572   2.707 -1.1199 -0.9992 -0.8444
  564MOL0     H76114   9.334   6.291   2.650 -0.5440  0.0242 -1.6665
  564MOL0     H76115   9.201   6.361   2.564 -1.8018  2.2565  1.4015
  564MOL0     H76116   9.329   6.520   2.449  1.4757 -0.0613 -2.8796
  564MOL0     H76117   9.427   6.384   2.432  3.4819  1.3771  0.3133
  564MOL0     H76118   9.473   6.607   2.640  0.2045 -1.7481  2.2448
  564MOL0     H76119   9.569   6.461   2.629 -0.2144  0.5412 -0.2465
  564MOL0     H76120   8.466   6.158   2.989  0.4457 -1.7943 -1.9755
  564MOL0     H76121   8.234   6.145   2.925  0.8412 -1.6164  0.3938
  564MOL0     H76122   7.955   6.042   2.387 -1.1517  0.6193 -0.4542
  564MOL0     H76123   7.706   6.070   2.340 -3.2293  1.3645  2.5574
  564MOL0     H76124   7.932   6.847   2.446 -1.2874 -0.5947 -0.4937
  564MOL0     H76125   8.173   6.928   2.411 -0.9416 -0.4022  1.2107
  564MOL0     H76126   8.604   6.666   2.104  1.0803  0.6962 -1.1092
  564MOL0     H76127   8.837   6.686   2.161 -1.2136 -0.6772  0.4524
  564MOL0     H76128   9.059   6.755   2.124 -1.6786  0.5750 -1.5617
  564MOL0     H76129   9.002   6.722   2.291  1.6860  0.3895  1.0559
  564MOL0     H76130   9.222   6.917   2.220  1.9981  0.7600  1.5319
  564MOL0     H76131   9.242   6.745   2.252 -1.6018 -0.3101 -5.3358
  564MOL0     H76132   9.138   6.803   2.494 -0.0892  1.2089  0.1477
  564MOL0     H76133   9.112   6.967   2.438 -0.2683  0.2944 -1.4382
  564MOL0     H76134   9.392   6.835   2.433  0.3529 -0.1010 -0.7454
  564MOL0     H76135   9.340   7.008   2.432 -1.0297  1.4143  1.2859
  564MOL0     H76136   9.402   6.916   2.838 -2.2649 -2.1604  1.1960
  564MOL0     H76137   8.780   7.108   2.247  0.8148 -0.9577  1.1381
  564MOL0     H76138   8.458   7.093   2.314  0.4963  0.0671  0.5846
  564MOL0     H76139   8.568   7.207   2.224  1.7139 -0.5504 -2.0064
  564MOL0     H76140   8.433   7.121   2.144 -1.7135 -0.5850  1.7349
  565MOL0     O76141   3.087  10.702   0.055 -1.2062 -0.5319 -0.8412
  565MOL0     C76142   3.152  10.774   0.134 -0.2387  0.1347 -0.0380
  565MOL0     O76143   3.290  10.774   0.131  0.3190  0.4133  0.3800
  565MOL0     C76144   3.361  10.668   0.072 -0.0610  0.3894  0.1259
  565MOL0     C76145   3.473  10.629   0.143 -0.4430  0.2322 -0.2999
  565MOL0     C76146   3.562  10.534   0.092  0.6613  0.8621  0.0533
  565MOL0     C76147   3.542  10.461  -0.031  0.0003  0.2753  0.6071
  565MOL0     O76148   3.641  10.370  -0.073  0.2606  0.6487 -0.3882
  565MOL0     C76149   3.636  10.319  -0.205 -0.4733  0.8358  0.3773
  565MOL0     C76150   3.782  10.270  -0.243  0.3771 -0.0538 -0.3008
  565MOL0     C76151   3.800  10.120  -0.210 -0.3822 -0.2032  0.0064
  565MOL0     C76152   3.924  10.055  -0.275 -0.4437 -0.1313  0.3184
  565MOL0     C76153   3.907   9.978  -0.405 -0.3212 -0.3616  0.5497
  565MOL0     C76154   4.035   9.928  -0.466  0.1118 -0.0104  0.1158
  565MOL0     C76155   4.017   9.854  -0.603  0.1037  0.5767 -0.1627
  565MOL0     C76156   3.968   9.708  -0.589  0.3885  0.2331  0.1240
  565MOL0     N76157   4.051   9.628  -0.500 -0.2538  0.2883 -0.0378
  565MOL0     C76158   4.049   9.622  -0.366  1.2133  0.5163 -0.3126
  565MOL0     C76159   4.127   9.518  -0.331 -0.5046  0.9033 -1.0200
  565MOL0     C76160   4.121   9.468  -0.185  0.2400  0.5020 -0.7203
  565MOL0     C76161   4.261   9.485  -0.144 -0.0772  0.1871 -0.0482
  565MOL0     C76162   4.280   9.412  -0.007 -0.4802  0.1971 -0.0139
  565MOL0     C76163   4.249   9.496   0.112  0.5936 -0.2505 -0.6131
  565MOL0     O76164   4.329   9.458   0.228 -0.1166 -0.6881 -0.2531
  565MOL0     C76165   4.442   9.531   0.259  0.6393 -0.3950  0.4307
  565MOL0     C76166   4.477   9.538   0.386  0.0755  0.3848 -0.7705
  565MOL0     C76167   4.580   9.625   0.429  0.0982  0.7076 -0.0002
  565MOL0     C76168   4.652   9.694   0.338 -0.0290 -0.1636 -0.6454
  565MOL0     C76169   4.759   9.787   0.395  0.0756  0.2739  0.0382
  565MOL0     O76170   4.848   9.831   0.303  0.9263  0.6440  0.4778
  565MOL0     C76171   4.959   9.897   0.350 -0.8488  0.1885 -0.5114
  565MOL0     C76172   4.960  10.024   0.423  0.3968  0.1106  0.3681
  565MOL0     C76173   5.078  10.061   0.484  0.3668  1.0757  0.3291
  565MOL0     C76174   5.194   9.982   0.479  0.4700 -0.5196  0.1897
  565MOL0     O76175   5.304  10.032   0.535  0.4153  0.6545  0.0924
  565MOL0     C76176   5.438   9.972   0.520  0.8357 -0.4185 -0.9385
  565MOL0     C76177   5.515  10.013   0.651  0.5645  0.4108  0.5821
  565MOL0     C76178   5.663   9.978   0.648  0.0056 -0.5021  0.6454
  565MOL0     C76179   5.732  10.039   0.526 -0.3001  1.0660  0.3912
  565MOL0     C76180   5.890  10.053   0.535  0.4653  0.9140  0.7092
  565MOL0     C76181   5.960   9.926   0.549 -0.6217  0.3926 -0.1324
  565MOL0     C76182   6.114   9.932   0.550 -1.2169  0.1998  0.1691
  565MOL0     C76183   6.171   9.968   0.681  0.9589 -0.4600 -0.1105
  565MOL0    Cl76184   6.336   9.911   0.700 -0.6708 -0.1306  0.2950
  565MOL0     C76185   5.192   9.858   0.409 -0.0228  0.2964  0.0509
  565MOL0     C76186   5.076   9.820   0.349  0.2097 -0.0658  0.2620
  565MOL0     O76187   4.754   9.820   0.515 -0.7242 -0.3740 -0.7793
  565MOL0     C76188   4.625   9.684   0.200 -0.6517 -0.9380 -0.1689
  565MOL0     C76189   4.520   9.598   0.162  0.1511  0.3577 -0.0019
  565MOL0     N76190   4.189   9.471  -0.442  0.0915 -0.2731  0.6901
  565MOL0     N76191   4.135   9.534  -0.542 -0.4965 -0.0926 -0.4279
  565MOL0     C76192   3.424  10.486  -0.100  0.5250 -0.5260  0.5904
  565MOL0     C76193   3.339  10.598  -0.045 -0.6012 -0.2221  0.1535
  565MOL0     C76194   3.076  10.856   0.238  0.5865  0.5316  0.1717
  565MOL0     C76195   3.154  10.937   0.320 -0.0304 -0.2124 -0.2602
  565MOL0     C76196   3.090  11.004   0.426  0.1800 -0.8196  0.5682
  565MOL0     C76197   2.947  11.007   0.444 -1.6319  0.0940 -0.6708
  565MOL0     O76198   2.889  11.087   0.543 -0.3629 -0.0019 -0.1932
  565MOL0     C76199   2.794  11.020   0.628 -0.1267 -0.0327 -0.0816
  565MOL0     C76200   2.810  11.049   0.780 -0.7143 -0.4090 -0.1741
  565MOL0     C76201   2.932  10.985   0.853  0.7758 -0.4331  0.5073
  565MOL0     C76202   2.917  10.828   0.863  0.5354 -0.1941 -0.3728
  565MOL0     C76203   2.968  10.774   0.740  1.0972 -0.4458  0.6786
  565MOL0     C76204   3.007  10.717   0.639  0.3341 -0.2714 -0.5437
  565MOL0     C76205   2.878  10.932   0.351 -0.3517 -0.2427  0.0294
  565MOL0     C76206   2.937  10.860   0.243  0.4505  0.1382  0.7195
  565MOL0     C76207   2.845  10.809   0.136  0.6980 -0.3534 -0.6380
  565MOL0     H76208   3.509  10.674   0.235  1.1175 -1.5764  0.0433
  565MOL0     H76209   3.650  10.508   0.150  1.0037  0.4388 -0.6415
  565MOL0     H76210   3.560  10.241  -0.209 -0.9769  1.2005  2.0389
  565MOL0     H76211   3.610  10.403  -0.271  0.6182  1.2362  0.4235
  565MOL0     H76212   3.852  10.325  -0.180  0.7675 -0.4582 -0.3779
  565MOL0     H76213   3.820  10.290  -0.343  1.1247  2.0888  0.3636
  565MOL0     H76214   3.710  10.072  -0.251 -1.9562  2.3230  0.3458
  565MOL0     H76215   3.811  10.110  -0.102  1.7633  1.1938 -0.0388
  565MOL0     H76216   3.996  10.137  -0.283  0.8238 -1.3559 -1.9683
  565MOL0     H76217   3.966   9.989  -0.199 -3.1433 -4.2395 -1.3649
  565MOL0     H76218   3.840   9.895  -0.378  0.1296 -1.2245 -0.8748
  565MOL0     H76219   3.863  10.054  -0.470  1.7673  2.2997  2.0868
  565MOL0     H76220   4.096  10.017  -0.477 -1.5652  1.4704  2.0053
  565MOL0     H76221   4.080   9.864  -0.389  0.2042  0.3133  0.3329
  565MOL0     H76222   4.118   9.854  -0.646  0.8453  1.7829  1.4689
  565MOL0     H76223   3.950   9.909  -0.669 -0.6475 -1.1902 -0.9284
  565MOL0     H76224   3.866   9.708  -0.550  0.2591 -1.1283 -0.1623
  565MOL0     H76225   3.978   9.669  -0.691  0.7557  0.4923  0.0601
  565MOL0     H76226   3.992   9.684  -0.297  1.9771  0.3200  0.5168
  565MOL0     H76227   4.048   9.520  -0.122 -0.4817  0.9103 -1.8696
  565MOL0     H76228   4.082   9.366  -0.195  0.0982  0.5744 -0.9120
  565MOL0     H76229   4.322   9.447  -0.226 -1.1248  0.7649 -1.1251
  565MOL0     H76230   4.279   9.593  -0.138 -0.2919  0.1818  0.8645
  565MOL0     H76231   4.382   9.373  -0.016 -0.6943 -0.3750 -0.0200
  565MOL0     H76232   4.214   9.325  -0.010 -0.8629  0.3950  1.7827
  565MOL0     H76233   4.142   9.499   0.134  0.8851  0.2365  0.8941
  565MOL0     H76234   4.268   9.601   0.090  0.0209 -0.2503 -1.1322
  565MOL0     H76235   4.419   9.474   0.453 -0.4929  0.0743 -1.5398
  565MOL0     H76236   4.605   9.635   0.534  2.6312  0.1478 -0.4909
  565MOL0     H76237   4.866  10.078   0.416  0.9088  1.0762  0.6561
  565MOL0     H76238   5.094  10.158   0.529  2.3521  0.3690  1.2535
  565MOL0     H76239   5.445   9.864   0.509 -2.8106 -1.5458  4.2855
  565MOL0     H76240   5.483  10.012   0.428 -1.8780  0.7879 -1.8353
  565MOL0     H76241   5.494  10.117   0.679  0.0760  0.3681  0.3908
  565MOL0     H76242   5.466   9.946   0.722  1.9978 -2.0822 -0.6647
  565MOL0     H76243   5.713  10.025   0.733  1.7974 -1.0810 -0.0569
  565MOL0     H76244   5.670   9.870   0.668 -1.6165 -0.3212  2.6361
  565MOL0     H76245   5.688  10.132   0.490 -0.7399  0.6107 -0.2710
  565MOL0     H76246   5.696   9.975   0.445 -5.6581  1.9210  1.7364
  565MOL0     H76247   5.921  10.121   0.615  0.5953  2.7400 -0.8244
  565MOL0     H76248   5.918  10.103   0.442 -1.4658  1.1668  0.2165
  565MOL0     H76249   5.925   9.885   0.644  0.2875  0.9499  0.4563
  565MOL0     H76250   5.926   9.861   0.468 -2.5342 -0.1458  1.0322
  565MOL0     H76251   6.161  10.004   0.483 -1.2583  0.1064  0.0395
  565MOL0     H76252   6.145   9.832   0.519 -0.5667  0.4372  0.0396
  565MOL0     H76253   6.172  10.077   0.693  2.1540 -0.6274  1.6739
  565MOL0     H76254   6.111   9.913   0.755 -1.2973  2.6497  0.5729
  565MOL0     H76255   5.271   9.783   0.405 -1.2656 -1.0214 -0.7743
  565MOL0     H76256   5.064   9.721   0.308 -2.1332  0.7980 -1.3510
  565MOL0     H76257   4.677   9.750   0.132 -1.7407  0.0923 -0.0354
  565MOL0     H76258   4.496   9.588   0.057 -2.5419 -0.5607  0.6019
  565MOL0     H76259   3.395  10.434  -0.191  0.3168  1.1053 -0.3170
  565MOL0     H76260   3.256  10.619  -0.111 -0.9172  0.2398  0.6986
  565MOL0     H76261   3.262  10.940   0.309  0.1032 -1.1268  0.6661
  565MOL0     H76262   3.143  11.066   0.497 -0.5659 -0.9987  1.3077
  565MOL0     H76263   2.797  10.911   0.618 -0.7829  0.1051 -2.3735
  565MOL0     H76264   2.695  11.054   0.595  0.1245  1.3630  0.5619
  565MOL0     H76265   2.719  11.013   0.828 -2.3482 -0.0987 -2.7899
  565MOL0     H76266   2.808  11.158   0.787  0.3614 -0.3429 -0.6904
  565MOL0     H76267   2.935  11.043   0.945 -3.7848  3.3569 -1.2922
  565MOL0     H76268   3.023  11.022   0.805  0.2564  1.3196  0.8025
  565MOL0     H76269   2.959  10.782   0.953  0.7729  0.2344 -0.2602
  565MOL0     H76270   2.810  10.811   0.872  0.2882  1.3517 -0.0091
  565MOL0     H76271   3.029  10.660   0.551  1.0526  2.3261 -2.1626
  565MOL0     H76272   2.770  10.929   0.363 -0.2859  0.7185  1.0693
  565MOL0     H76273   2.742  10.824   0.171  1.4296  1.9209  0.7860
  565MOL0     H76274   2.860  10.865   0.043  2.3853  1.6772  0.7584
  565MOL0     H76275   2.864  10.702   0.121  1.9360 -0.4871  1.5492
  566MOL0     O76276   0.496  10.888   7.423 -0.0972 -0.3210 -0.0381
  566MOL0     C76277   0.422  10.807   7.360  0.8419 -0.1644  0.3985
  566MOL0     O76278   0.449  10.735   7.252 -0.2961 -0.2799 -0.4286
  566MOL0     C76279   0.556  10.761   7.173  0.4924 -0.9231 -0.5320
  566MOL0     C76280   0.516  10.777   7.040  0.2696  0.3112 -0.0704
  566MOL0     C76281   0.609  10.779   6.940 -0.4146  0.1728 -1.0906
  566MOL0     C76282   0.746  10.782   6.973 -0.5474 -0.2686  0.1526
  566MOL0     O76283   0.852  10.800   6.885 -0.0343 -0.3757 -0.4008
  566MOL0     C76284   0.801  10.795   6.753 -0.6008  0.8719  0.4301
  566MOL0     C76285   0.913  10.839   6.647 -0.4060 -0.3420  0.0886
  566MOL0     C76286   1.040  10.769   6.677 -0.8145  0.6387 -0.6152
  566MOL0     C76287   1.147  10.811   6.587 -0.2929 -1.0385 -0.4688
  566MOL0     C76288   1.271  10.732   6.584  0.0976  0.6427  0.7148
  566MOL0     C76289   1.380  10.800   6.517 -0.4773  0.4591 -0.0560
  566MOL0     C76290   1.515  10.741   6.570  0.5312  0.3641  0.3684
  566MOL0     C76291   1.559  10.613   6.491  1.3120  0.7408  0.0520
  566MOL0     N76292   1.685  10.557   6.535  0.4735  0.3715 -0.0219
  566MOL0     C76293   1.726  10.543   6.661  0.1711 -0.2196 -0.4180
  566MOL0     C76294   1.849  10.486   6.656  0.0523 -0.5353  0.7486
  566MOL0     C76295   1.943  10.444   6.759  0.4901  0.3016 -0.5790
  566MOL0     C76296   1.924  10.291   6.787 -0.7933 -0.1226  0.4631
  566MOL0     C76297   1.981  10.203   6.680  0.2180  2.0016  0.2982
  566MOL0     C76298   2.138  10.213   6.659  0.1826  1.2104 -1.2199
  566MOL0     O76299   2.208  10.158   6.772  0.3596 -0.2460 -0.0575
  566MOL0     C76300   2.343  10.162   6.760 -0.2579  0.0339 -0.2995
  566MOL0     C76301   2.393  10.113   6.882  0.3809  0.0560  0.3769
  566MOL0     C76302   2.528  10.134   6.912 -0.0148 -0.2322  0.0868
  566MOL0     C76303   2.620  10.181   6.810  0.3555  0.9797  0.0624
  566MOL0     C76304   2.760  10.218   6.826 -0.3375 -0.4650 -0.4753
  566MOL0     O76305   2.831  10.247   6.716  0.2024 -0.3746 -0.2718
  566MOL0     C76306   2.966  10.281   6.733  0.2418 -0.0268  0.3430
  566MOL0     C76307   3.055  10.187   6.799  0.6132  0.4389 -0.5230
  566MOL0     C76308   3.191  10.215   6.799  0.0012 -0.1717  0.1808
  566MOL0     C76309   3.244  10.335   6.744 -0.0262 -0.7376 -0.5700
  566MOL0     O76310   3.373  10.367   6.721 -0.0019  0.1932 -0.1613
  566MOL0     C76311   3.461  10.325   6.830 -0.3203 -0.2994  0.2210
  566MOL0     C76312   3.605  10.378   6.843  0.5211 -0.7770  0.3318
  566MOL0     C76313   3.721  10.302   6.772  0.7742  0.9712  0.5295
  566MOL0     C76314   3.858  10.367   6.788  0.7712  0.7641 -0.3656
  566MOL0     C76315   3.924  10.398   6.657  0.0831  0.4956 -0.5205
  566MOL0     C76316   4.062  10.470   6.694  0.0647  0.0778  0.7332
  566MOL0     C76317   4.176  10.377   6.737 -0.1153 -0.2101  0.4568
  566MOL0     C76318   4.315  10.442   6.743 -0.0790 -0.2218  0.4261
  566MOL0    Cl76319   4.366  10.499   6.577  0.2706 -0.4099  0.3202
  566MOL0     C76320   3.151  10.427   6.695 -0.0262  0.1884 -0.1700
  566MOL0     C76321   3.017  10.406   6.684  0.2603 -1.5390 -0.4508
  566MOL0     O76322   2.804  10.206   6.940 -0.0202 -0.2580  0.3936
  566MOL0     C76323   2.565  10.211   6.685  0.2555  0.3850  0.1521
  566MOL0     C76324   2.430  10.195   6.663  0.9243  0.7028  0.6791
  566MOL0     N76325   1.877  10.475   6.518 -0.3600 -0.1974 -0.2655
  566MOL0     N76326   1.774  10.513   6.445 -0.3766 -0.2704 -0.2162
  566MOL0     C76327   0.780  10.767   7.106  0.6377  0.9544  0.4789
  566MOL0     C76328   0.684  10.755   7.206  0.7024 -0.0823  0.3204
  566MOL0     C76329   0.288  10.785   7.415 -0.6890  0.2029  0.0581
  566MOL0     C76330   0.199  10.731   7.329  1.1116 -0.4711 -0.1380
  566MOL0     C76331   0.066  10.706   7.373 -1.1006 -0.4985 -0.7089
  566MOL0     C76332   0.036  10.734   7.501  0.3846 -0.4124 -0.5048
  566MOL0     O76333  -0.097  10.741   7.537 -0.4578 -0.3178 -0.0342
  566MOL0     C76334  -0.141  10.673   7.655  0.1605  0.3400 -0.2897
  566MOL0     C76335  -0.279  10.608   7.638  0.1168 -0.5428  0.1884
  566MOL0     C76336  -0.381  10.725   7.651  0.0130 -0.9219  0.2780
  566MOL0     C76337  -0.529  10.683   7.631 -0.0524 -0.3413 -0.2833
  566MOL0     C76338  -0.568  10.583   7.734 -0.7517  0.2229  0.5220
  566MOL0     C76339  -0.600  10.494   7.809  0.1194  0.8303 -0.9084
  566MOL0     C76340   0.126  10.785   7.594 -0.5624  0.1366  0.0695
  566MOL0     C76341   0.257  10.801   7.558  1.1085 -0.1567 -0.0888
  566MOL0     C76342   0.351  10.866   7.667 -0.0307  0.3111  0.9470
  566MOL0     H76343   0.411  10.759   7.017  0.7670  0.2689 -2.6082
  566MOL0     H76344   0.562  10.783   6.843  1.5682 -3.5517 -2.3915
  566MOL0     H76345   0.797  10.689   6.726  2.1317  0.8942 -0.3409
  566MOL0     H76346   0.714  10.854   6.725 -1.5621 -0.5486  0.2916
  566MOL0     H76347   0.928  10.947   6.656 -0.3196 -0.3292 -0.2027
  566MOL0     H76348   0.885  10.827   6.542 -0.1106 -1.0083  0.0774
  566MOL0     H76349   1.017  10.662   6.669 -1.4155  0.5906  1.2786
  566MOL0     H76350   1.064  10.770   6.784 -1.5299  1.0991 -0.4521
  566MOL0     H76351   1.097  10.814   6.490 -1.2002  0.1430  0.0024
  566MOL0     H76352   1.171  10.913   6.620 -1.0647 -0.6666 -1.0161
  566MOL0     H76353   1.297  10.706   6.687 -1.9600 -0.5121  1.0073
  566MOL0     H76354   1.242  10.636   6.542 -1.2683  0.7165  1.4423
  566MOL0     H76355   1.374  10.783   6.409  2.3277  2.0927 -0.5749
  566MOL0     H76356   1.366  10.908   6.531 -2.0762  0.8222 -3.4098
  566MOL0     H76357   1.515  10.716   6.676  3.8964 -2.4383 -0.0960
  566MOL0     H76358   1.586  10.823   6.554  1.7036 -0.6512  0.1861
  566MOL0     H76359   1.473  10.549   6.514  1.2376  0.6306 -0.5174
  566MOL0     H76360   1.567  10.632   6.384  2.7488  1.9093  0.3357
  566MOL0     H76361   1.676  10.568   6.754 -0.4915 -0.6090 -0.6664
  566MOL0     H76362   2.048  10.463   6.736  0.1838 -0.2785 -2.7691
  566MOL0     H76363   1.913  10.499   6.848 -1.2507 -0.3900 -0.6986
  566MOL0     H76364   1.975  10.267   6.881  3.7229  1.4353 -1.3013
  566MOL0     H76365   1.819  10.261   6.787 -1.1972  0.9594 -2.2871
  566MOL0     H76366   1.933  10.215   6.583  3.8286  0.2274 -1.9341
  566MOL0     H76367   1.961  10.097   6.702  1.9444  0.7382 -3.3502
  566MOL0     H76368   2.170  10.317   6.651  1.9574  1.0590  2.2306
  566MOL0     H76369   2.163  10.154   6.571 -1.6234 -3.1187  0.8723
  566MOL0     H76370   2.322  10.069   6.951  0.2566 -0.1982  0.0855
  566MOL0     H76371   2.571  10.122   7.011  0.0305  1.8205  0.3559
  566MOL0     H76372   3.028  10.086   6.825  0.1725  0.0922 -2.1988
  566MOL0     H76373   3.256  10.131   6.820  1.5290  0.9847  0.2772
  566MOL0     H76374   3.407  10.359   6.919  0.2949 -0.9137  0.8470
  566MOL0     H76375   3.471  10.216   6.834  0.7752 -0.4071 -2.8707
  566MOL0     H76376   3.600  10.485   6.823  0.6844 -0.7290  0.5405
  566MOL0     H76377   3.631  10.378   6.950  2.9711  1.0022 -0.1720
  566MOL0     H76378   3.732  10.199   6.807  0.8888  1.5993  2.5159
  566MOL0     H76379   3.707  10.299   6.664  4.5560  0.7410 -0.1161
  566MOL0     H76380   3.920  10.299   6.847 -2.8931 -1.2544  1.5412
  566MOL0     H76381   3.852  10.459   6.847 -0.9318  0.7524 -0.4503
  566MOL0     H76382   3.855  10.467   6.608 -0.3124 -0.6043 -1.5471
  566MOL0     H76383   3.929  10.306   6.598 -0.5099  0.1331 -0.0229
  566MOL0     H76384   4.090  10.541   6.616  1.8873  4.4282  4.8053
  566MOL0     H76385   4.046  10.528   6.786  4.2798  0.5864  1.3749
  566MOL0     H76386   4.186  10.301   6.659  2.2426  1.0520 -0.5795
  566MOL0     H76387   4.150  10.327   6.831 -0.8119  1.1413  1.0058
  566MOL0     H76388   4.308  10.516   6.824 -1.0715 -0.6692  0.7621
  566MOL0     H76389   4.384  10.364   6.775 -1.1499 -0.2006  3.0534
  566MOL0     H76390   3.192  10.518   6.652 -0.0969  0.0084 -0.6240
  566MOL0     H76391   2.954  10.476   6.630 -1.1142 -2.5064 -0.1491
  566MOL0     H76392   2.628  10.243   6.603  0.8998  0.7384  0.7763
  566MOL0     H76393   2.394  10.232   6.568  0.5965  1.6769  1.1663
  566MOL0     H76394   0.887  10.757   7.125  0.8761  3.6147  0.9667
  566MOL0     H76395   0.723  10.718   7.300  1.4665  2.3392  1.0327
  566MOL0     H76396   0.219  10.727   7.222  0.2642  0.1612 -0.3376
  566MOL0     H76397  -0.005  10.670   7.299  0.3994 -2.3279 -1.3327
  566MOL0     H76398  -0.158  10.746   7.735  0.8292  0.2841 -0.0904
  566MOL0     H76399  -0.065  10.598   7.681  0.0266 -0.4722 -2.1317
  566MOL0     H76400  -0.306  10.536   7.715 -2.2241  1.8905  1.8405
  566MOL0     H76401  -0.289  10.560   7.540  0.7562 -0.2314 -0.0417
  566MOL0     H76402  -0.368  10.804   7.577 -0.9952 -1.4346 -0.4812
  566MOL0     H76403  -0.383  10.772   7.750 -2.6932 -0.3358  0.0164
  566MOL0     H76404  -0.597  10.767   7.649 -1.5638 -0.7351 -3.4810
  566MOL0     H76405  -0.538  10.633   7.534 -1.6830 -0.8429  0.0831
  566MOL0     H76406  -0.619  10.403   7.863 -0.3281  0.7512 -1.1936
  566MOL0     H76407   0.102  10.794   7.700 -0.3110 -0.3809  0.1795
  566MOL0     H76408   0.295  10.874   7.760  0.5441 -0.0695  1.3305
  566MOL0     H76409   0.439  10.804   7.687  0.2863  0.5847  0.4192
  566MOL0     H76410   0.383  10.966   7.636  2.1952 -0.0459  1.9123
  567MOL0     O76411   8.727   1.218   5.404 -0.0410  0.8818 -0.0062
  567MOL0     C76412   8.696   1.221   5.284 -0.2353  0.0265 -0.3149
  567MOL0     O76413   8.781   1.197   5.177 -0.6703 -0.1572  0.1101
  567MOL0     C76414   8.910   1.172   5.208  0.3351  0.2366 -0.4872
  567MOL0     C76415   8.972   1.108   5.323 -0.5166 -0.1221  1.1611
  567MOL0     C76416   9.111   1.094   5.330 -0.8825 -0.2830 -0.4595
  567MOL0     C76417   9.199   1.131   5.227  0.6367  0.0670 -0.1065
  567MOL0     O76418   9.327   1.101   5.251 -0.3772 -0.3091  0.4445
  567MOL0     C76419   9.428   1.184   5.198  0.8332 -0.0232  0.8931
  567MOL0     C76420   9.558   1.128   5.242  0.5002 -0.4697 -0.1207
  567MOL0     C76421   9.598   1.155   5.389 -0.0028  0.2963  0.4426
  567MOL0     C76422   9.660   1.295   5.392  0.4042 -0.7259 -0.1987
  567MOL0     C76423   9.727   1.328   5.533  0.1014  0.5066 -0.4572
  567MOL0     C76424   9.799   1.458   5.511 -0.3249  0.1215 -0.5164
  567MOL0     C76425   9.855   1.506   5.650  0.2168  0.0248  0.6239
  567MOL0     C76426   9.920   1.645   5.632 -0.4505  0.7212  0.7691
  567MOL0     N76427  10.067   1.620   5.614 -0.1477 -0.3046 -0.1239
  567MOL0     C76428  10.117   1.568   5.500 -0.3345 -0.4437 -1.0963
  567MOL0     C76429  10.251   1.562   5.531 -0.1285 -0.9416 -0.1885
  567MOL0     C76430  10.346   1.492   5.446  0.0009 -0.6869 -0.1575
  567MOL0     C76431  10.330   1.535   5.300 -0.4179  0.2044 -0.0781
  567MOL0     C76432  10.402   1.451   5.198  0.6723 -0.3786 -0.1136
  567MOL0     C76433  10.553   1.422   5.222 -0.5368  0.4597  0.2619
  567MOL0     O76434  10.604   1.373   5.095  0.1017 -0.1176 -0.2784
  567MOL0     C76435  10.740   1.380   5.064 -0.1961 -0.7003 -0.0888
  567MOL0     C76436  10.787   1.489   4.989  0.1668 -0.6037 -0.0387
  567MOL0     C76437  10.927   1.503   4.964  0.4979  0.2147 -0.0837
  567MOL0     C76438  11.020   1.412   5.019 -0.5340  0.3188 -0.7830
  567MOL0     C76439  11.166   1.426   4.983  0.8199 -0.5751 -0.7735
  567MOL0     O76440  11.249   1.340   5.050 -0.1892 -0.0126  0.4334
  567MOL0     C76441  11.387   1.361   5.036  0.6771  0.0824  0.5790
  567MOL0     C76442  11.457   1.247   5.015 -1.1230 -0.3409  0.5748
  567MOL0     C76443  11.593   1.252   5.006  0.0254 -0.0741  0.5944
  567MOL0     C76444  11.663   1.366   5.016 -0.3503  0.6609 -0.1440
  567MOL0     O76445  11.800   1.367   5.011 -0.1839  0.9393  0.2394
  567MOL0     C76446  11.852   1.349   5.145  0.8391 -0.2776 -0.0487
  567MOL0     C76447  11.959   1.445   5.166 -0.0446 -0.6175 -0.1732
  567MOL0     C76448  12.085   1.418   5.096 -0.3242  0.1116 -0.3843
  567MOL0     C76449  12.185   1.518   5.149  0.7542  0.9900 -0.7594
  567MOL0     C76450  12.299   1.525   5.059  0.1622 -0.0542 -0.1142
  567MOL0     C76451  12.413   1.598   5.120  0.6436 -0.5045  0.7084
  567MOL0     C76452  12.525   1.570   5.026 -0.0323 -0.1832  0.4743
  567MOL0     C76453  12.646   1.648   5.068  0.5149 -0.3910  0.2990
  567MOL0    Cl76454  12.752   1.622   4.933  0.5010 -0.0373  0.3676
  567MOL0     C76455  11.598   1.482   5.037 -0.0361  0.5340 -0.8460
  567MOL0     C76456  11.456   1.481   5.025  0.0486 -0.0784 -0.4905
  567MOL0     O76457  11.197   1.488   4.888 -0.3652  0.0384 -0.0105
  567MOL0     C76458  10.959   1.307   5.098  0.3136 -0.0831  0.1667
  567MOL0     C76459  10.823   1.294   5.124 -0.4508 -0.1850  0.9204
  567MOL0     N76460  10.276   1.608   5.657  0.1015  0.6890 -0.3776
  567MOL0     N76461  10.162   1.638   5.709  0.3327 -0.1771  0.5669
  567MOL0     C76462   9.138   1.192   5.114 -0.0201  0.4789  0.4815
  567MOL0     C76463   9.007   1.222   5.113  0.2571 -0.0032 -0.0026
  567MOL0     C76464   8.551   1.236   5.260 -0.2018  0.4770  0.4003
  567MOL0     C76465   8.508   1.208   5.128  0.1295  0.3050  0.3653
  567MOL0     C76466   8.373   1.211   5.103  1.0202  0.4814  0.5060
  567MOL0     C76467   8.271   1.233   5.190 -0.9110 -0.8319 -0.8513
  567MOL0     O76468   8.136   1.205   5.157  0.3649 -0.3722  0.1787
  567MOL0     C76469   8.030   1.211   5.253 -1.0195 -1.2384 -0.0865
  567MOL0     C76470   7.922   1.120   5.189 -0.1322 -0.3163 -0.2540
  567MOL0     C76471   7.806   1.123   5.295 -1.0616  0.4491  0.8407
  567MOL0     C76472   7.701   1.229   5.275  0.7133  0.3550  0.5712
  567MOL0     C76473   7.640   1.193   5.154  0.6394  0.4706  1.1962
  567MOL0     C76474   7.601   1.175   5.040  0.3619  0.1588 -0.0264
  567MOL0     C76475   8.318   1.251   5.322 -1.2878  0.2973  0.4132
  567MOL0     C76476   8.452   1.261   5.357  0.5086  0.3566 -0.2745
  567MOL0     C76477   8.478   1.282   5.501  0.1830 -0.2838  0.1635
  567MOL0     H76478   8.916   1.083   5.412 -1.6961  0.6705  0.6604
  567MOL0     H76479   9.157   1.037   5.410  1.5499  0.0102 -1.5479
  567MOL0     H76480   9.423   1.184   5.088 -4.1106 -1.0029  0.8970
  567MOL0     H76481   9.412   1.289   5.223  0.1414  0.3090 -0.7643
  567MOL0     H76482   9.633   1.157   5.168 -0.8745  0.6956 -1.1264
  567MOL0     H76483   9.559   1.019   5.238  1.8297 -0.5453  1.2691
  567MOL0     H76484   9.670   1.076   5.412  1.9094  1.5781 -0.8185
  567MOL0     H76485   9.507   1.161   5.449 -0.0010  3.0138  0.2757
  567MOL0     H76486   9.730   1.307   5.309  0.3363 -0.5780 -0.2358
  567MOL0     H76487   9.578   1.367   5.390  1.5792  0.6938  1.0945
  567MOL0     H76488   9.647   1.342   5.606  0.4780  0.6255 -0.0671
  567MOL0     H76489   9.788   1.244   5.567 -1.9040 -0.0382  2.1456
  567MOL0     H76490   9.869   1.449   5.427 -0.2944  1.0231 -0.6065
  567MOL0     H76491   9.736   1.542   5.482 -0.8374  1.0545  2.8307
  567MOL0     H76492   9.919   1.425   5.689 -0.5020 -1.9463 -2.0035
  567MOL0     H76493   9.774   1.528   5.719  0.0038  2.0292 -0.2181
  567MOL0     H76494   9.878   1.699   5.546 -1.2237 -2.3286 -0.8901
  567MOL0     H76495   9.892   1.706   5.718 -2.8543 -1.1392  1.4013
  567MOL0     H76496  10.059   1.520   5.422 -1.2076 -2.4437  0.6780
  567MOL0     H76497  10.445   1.509   5.487 -0.9165 -2.6836  3.2905
  567MOL0     H76498  10.317   1.387   5.456 -1.4465 -0.2597  0.4059
  567MOL0     H76499  10.224   1.527   5.273 -1.1556  1.9980  1.9435
  567MOL0     H76500  10.354   1.641   5.284 -0.8743  0.3530  0.2019
  567MOL0     H76501  10.405   1.514   5.109  0.1347 -0.8133 -0.4444
  567MOL0     H76502  10.343   1.360   5.181  2.0845 -1.4403  0.4459
  567MOL0     H76503  10.561   1.347   5.300 -2.4203 -1.1832 -1.0358
  567MOL0     H76504  10.608   1.511   5.255  1.2278  0.0724 -1.4420
  567MOL0     H76505  10.724   1.567   4.947  0.1405 -1.4596 -1.6401
  567MOL0     H76506  10.969   1.568   4.888  0.1386  1.9283  1.1178
  567MOL0     H76507  11.418   1.150   5.044 -1.5909 -0.6292 -0.9347
  567MOL0     H76508  11.661   1.171   4.980  3.3886  2.9766 -0.9451
  567MOL0     H76509  11.769   1.354   5.216 -0.5627 -0.3810 -1.6177
  567MOL0     H76510  11.888   1.246   5.153  0.3548 -0.7204 -2.7704
  567MOL0     H76511  11.924   1.542   5.130  1.3786  0.3143  0.8756
  567MOL0     H76512  11.980   1.451   5.273 -0.7556  0.4763 -0.0807
  567MOL0     H76513  12.124   1.316   5.089  0.5751  0.5448 -2.4316
  567MOL0     H76514  12.063   1.450   4.994  1.4059  3.8657  0.2352
  567MOL0     H76515  12.215   1.485   5.250 -3.4264 -2.5324 -0.3641
  567MOL0     H76516  12.155   1.620   5.174 -3.7002 -0.7454  2.3921
  567MOL0     H76517  12.272   1.588   4.974  0.4114 -0.4075 -0.4616
  567MOL0     H76518  12.330   1.430   5.014  0.5079  0.9844 -2.1816
  567MOL0     H76519  12.387   1.704   5.122  1.4339 -0.2548 -0.7452
  567MOL0     H76520  12.447   1.559   5.216  2.5130 -1.4660 -0.2793
  567MOL0     H76521  12.503   1.586   4.920 -1.0853 -1.1476  0.5228
  567MOL0     H76522  12.549   1.463   5.034 -1.8970 -0.7112 -0.3103
  567MOL0     H76523  12.622   1.755   5.074  0.0363 -0.5604  2.4630
  567MOL0     H76524  12.697   1.629   5.163  0.8403 -0.9779  0.0095
  567MOL0     H76525  11.649   1.577   5.050  2.0247 -0.7418  1.0109
  567MOL0     H76526  11.415   1.581   5.031 -1.2328 -0.5453 -1.1893
  567MOL0     H76527  11.024   1.231   5.140 -0.4837 -0.0255  1.5406
  567MOL0     H76528  10.787   1.219   5.193 -2.4721 -1.4620 -1.3732
  567MOL0     H76529   9.211   1.224   5.041 -0.5795  0.2953 -0.1656
  567MOL0     H76530   8.960   1.274   5.030  0.5051 -0.9095 -0.7308
  567MOL0     H76531   8.579   1.195   5.046 -0.0206  0.4465  0.2117
  567MOL0     H76532   8.331   1.186   5.006  0.2985  1.7374  0.4750
  567MOL0     H76533   8.004   1.317   5.260  0.0895 -0.7641 -2.1463
  567MOL0     H76534   8.067   1.171   5.348 -2.6901 -0.5001  0.9240
  567MOL0     H76535   7.963   1.018   5.187 -2.2956 -1.2372 -1.0649
  567MOL0     H76536   7.889   1.140   5.087 -1.6920 -0.8306  0.1286
  567MOL0     H76537   7.844   1.149   5.395  2.6927  1.1610 -0.5996
  567MOL0     H76538   7.761   1.024   5.288  0.7340 -0.2557 -2.8204
  567MOL0     H76539   7.640   1.227   5.365  0.3826  0.5660  0.3542
  567MOL0     H76540   7.761   1.318   5.255 -0.3332  0.4075 -3.1157
  567MOL0     H76541   7.556   1.162   4.943 -2.9003  1.9372  1.0812
  567MOL0     H76542   8.242   1.264   5.399  0.9420 -0.8707  3.0164
  567MOL0     H76543   8.506   1.185   5.544  1.9151 -0.3307 -0.9414
  567MOL0     H76544   8.563   1.350   5.513 -0.4289  0.2367  1.6973
  567MOL0     H76545   8.406   1.331   5.566  0.5691 -1.3725  1.4582
  568MOL0     O76546   7.022   9.289   1.062 -0.3280 -0.3913 -0.0351
  568MOL0     C76547   6.936   9.343   0.992 -0.1395 -0.5029  0.5872
  568MOL0     O76548   6.963   9.431   0.886 -0.6226 -0.2244 -0.4729
  568MOL0     C76549   7.087   9.487   0.878 -0.8278 -0.5299 -0.2940
  568MOL0     C76550   7.150   9.492   0.753  0.3279 -0.5327 -0.3572
  568MOL0     C76551   7.284   9.533   0.743 -0.3713  0.4522 -0.2432
  568MOL0     C76552   7.357   9.590   0.849  0.3274  0.5844 -0.0460
  568MOL0     O76553   7.487   9.629   0.823 -0.3902 -0.0473 -0.0988
  568MOL0     C76554   7.583   9.627   0.930 -0.0556  0.0155  0.1956
  568MOL0     C76555   7.717   9.660   0.865  0.4206 -0.2604  0.7294
  568MOL0     C76556   7.832   9.640   0.966  0.6158  0.0326  1.0501
  568MOL0     C76557   7.964   9.695   0.908 -0.8602  0.2933  0.7463
  568MOL0     C76558   8.067   9.709   1.013 -0.5706 -0.0554  0.0215
  568MOL0     C76559   8.125   9.573   1.060  0.0599 -0.7316  0.1452
  568MOL0     C76560   8.199   9.578   1.199  0.2525 -0.7023  0.8036
  568MOL0     C76561   8.271   9.447   1.232 -0.1880 -0.1854  0.1316
  568MOL0     N76562   8.328   9.454   1.364 -0.1221  0.9285 -0.2479
  568MOL0     C76563   8.454   9.498   1.393  1.5127  0.1007  0.6684
  568MOL0     C76564   8.469   9.461   1.522 -0.4219 -0.4100  1.0975
  568MOL0     C76565   8.592   9.497   1.597  0.0234 -0.3422 -0.0144
  568MOL0     C76566   8.723   9.443   1.536  0.6940 -0.6654 -0.2722
  568MOL0     C76567   8.728   9.297   1.497 -0.6635  0.2780 -0.2312
  568MOL0     C76568   8.868   9.251   1.459 -0.8254  0.0984  0.1726
  568MOL0     O76569   8.940   9.217   1.585  0.0213  0.1107  0.6799
  568MOL0     C76570   9.060   9.264   1.610 -0.7913 -0.2284  0.4584
  568MOL0     C76571   9.129   9.194   1.718 -0.3616 -0.0272  0.6015
  568MOL0     C76572   9.257   9.238   1.753 -0.5467 -0.6470  0.1565
  568MOL0     C76573   9.310   9.350   1.692  0.5047  0.5655  0.8857
  568MOL0     C76574   9.449   9.388   1.719 -0.2827  0.3031 -0.1636
  568MOL0     O76575   9.487   9.522   1.705 -0.6306  0.2054  0.4113
  568MOL0     C76576   9.620   9.546   1.727  0.1792  0.1222  0.0591
  568MOL0     C76577   9.652   9.624   1.836 -0.2209 -1.2127 -0.0650
  568MOL0     C76578   9.787   9.659   1.844 -0.7759  0.0615  0.4421
  568MOL0     C76579   9.889   9.620   1.751 -0.2303  0.2491 -0.2504
  568MOL0     O76580  10.017   9.674   1.747  0.4040  0.5343  0.2672
  568MOL0     C76581  10.075   9.763   1.848  1.0245 -0.4141  0.6128
  568MOL0     C76582  10.210   9.816   1.797  0.2774  0.7434 -0.0428
  568MOL0     C76583  10.193   9.887   1.655  0.2143  0.1466  0.1150
  568MOL0     C76584  10.128  10.022   1.669  0.4426  0.5552  0.4592
  568MOL0     C76585  10.122  10.092   1.533  0.9342  0.3076 -0.1402
  568MOL0     C76586  10.257  10.124   1.469 -0.1052 -0.1838 -0.2336
  568MOL0     C76587  10.239  10.217   1.349 -0.3144  0.5363 -0.7831
  568MOL0     C76588  10.272  10.128   1.223 -0.2542 -0.3725  0.0234
  568MOL0    Cl76589  10.259  10.225   1.074 -0.3412  0.1277 -0.1191
  568MOL0     C76590   9.849   9.542   1.651  0.5204  0.0367 -0.6910
  568MOL0     C76591   9.718   9.499   1.640  0.1049  0.5729  0.2136
  568MOL0     O76592   9.521   9.300   1.777 -0.0318  0.8345  0.3420
  568MOL0     C76593   9.246   9.427   1.595 -0.4774  0.5713 -0.1505
  568MOL0     C76594   9.120   9.377   1.553 -0.1124 -0.5509 -0.5111
  568MOL0     N76595   8.364   9.391   1.570 -0.1972 -0.5176  0.0633
  568MOL0     N76596   8.282   9.383   1.471  0.7510 -0.0995 -0.2929
  568MOL0     C76597   7.288   9.605   0.968  0.2422 -0.4174  0.6869
  568MOL0     C76598   7.159   9.538   0.990  0.4442 -0.4992 -0.0370
  568MOL0     C76599   6.795   9.328   1.020  0.8969 -0.3007 -0.5151
  568MOL0     C76600   6.704   9.317   0.906 -0.2447  0.2251  0.8610
  568MOL0     C76601   6.574   9.295   0.930  0.8580 -0.0994  0.4548
  568MOL0     C76602   6.517   9.292   1.057  0.1078  0.5250 -0.3330
  568MOL0     O76603   6.386   9.283   1.089 -0.2289  0.2203 -0.6229
  568MOL0     C76604   6.285   9.275   0.985 -0.6277 -0.0191  0.3933
  568MOL0     C76605   6.247   9.416   0.937  0.0226  0.4333 -0.8345
  568MOL0     C76606   6.111   9.416   0.871  0.2568 -0.1354  0.5038
  568MOL0     C76607   6.099   9.551   0.799 -0.3920  0.3586  0.1581
  568MOL0     C76608   5.969   9.568   0.727  0.4177  0.2942  1.0780
  568MOL0     C76609   5.869   9.575   0.649  0.2296  0.2405 -0.2355
  568MOL0     C76610   6.601   9.298   1.169 -0.5561 -0.2172  0.8001
  568MOL0     C76611   6.741   9.321   1.148 -0.2057 -0.1326 -0.7577
  568MOL0     C76612   6.816   9.327   1.276 -0.3410  0.3303 -0.4737
  568MOL0     H76613   7.105   9.452   0.663  0.2957 -0.6035 -0.3101
  568MOL0     H76614   7.320   9.542   0.641  1.4634  2.4978  0.4834
  568MOL0     H76615   7.567   9.709   1.001 -0.7946  0.1880 -0.1572
  568MOL0     H76616   7.578   9.535   0.987 -0.8970  0.0734  0.2362
  568MOL0     H76617   7.705   9.762   0.829 -0.5247 -0.7285 -0.3408
  568MOL0     H76618   7.729   9.595   0.778 -2.7147  0.4455 -0.3590
  568MOL0     H76619   7.844   9.533   0.988  1.2935  0.3517  2.3658
  568MOL0     H76620   7.810   9.695   1.058  0.1405  4.1941 -1.3059
  568MOL0     H76621   8.008   9.633   0.829 -1.0983 -0.2257  1.0199
  568MOL0     H76622   7.955   9.797   0.868  3.6010  0.7084  0.3801
  568MOL0     H76623   8.145   9.778   0.976 -1.9044  1.2165 -0.5137
  568MOL0     H76624   8.024   9.758   1.101 -1.6183  0.7753 -0.9323
  568MOL0     H76625   8.045   9.500   1.078  0.1830 -0.3495  2.5568
  568MOL0     H76626   8.204   9.537   0.992  2.7090  1.7156  1.7379
  568MOL0     H76627   8.123   9.603   1.274 -1.2074 -0.5121 -0.7042
  568MOL0     H76628   8.266   9.665   1.195  0.0774 -0.6220 -1.1367
  568MOL0     H76629   8.189   9.374   1.231  0.3701 -0.8527 -1.5503
  568MOL0     H76630   8.352   9.426   1.161 -0.7174  0.0285 -0.5430
  568MOL0     H76631   8.515   9.566   1.334  1.9198  0.1967  1.1906
  568MOL0     H76632   8.603   9.602   1.623  4.5915 -0.0926 -2.0109
  568MOL0     H76633   8.581   9.449   1.695 -1.7066  0.7314  0.3554
  568MOL0     H76634   8.739   9.494   1.440 -0.6772  1.2009  0.4340
  568MOL0     H76635   8.805   9.471   1.602  0.7877 -1.4512 -0.0500
  568MOL0     H76636   8.675   9.269   1.405 -1.6275 -2.2223  1.0047
  568MOL0     H76637   8.679   9.236   1.573 -3.3785  2.2264 -0.2578
  568MOL0     H76638   8.914   9.316   1.384  0.7291  1.0239  1.8491
  568MOL0     H76639   8.860   9.154   1.409 -0.8576 -0.6321  1.5367
  568MOL0     H76640   9.098   9.101   1.765 -1.0230  0.2932  0.7980
  568MOL0     H76641   9.314   9.172   1.816 -1.5125  0.0016  1.7685
  568MOL0     H76642   9.574   9.652   1.907 -1.2715 -1.0079 -1.2512
  568MOL0     H76643   9.823   9.722   1.925 -1.5943  0.4559  0.5100
  568MOL0     H76644  10.004   9.843   1.872  1.2829 -0.0826  0.2802
  568MOL0     H76645  10.104   9.709   1.939 -1.6470 -0.7229  1.3819
  568MOL0     H76646  10.252   9.885   1.871  2.0983  0.9336 -1.1931
  568MOL0     H76647  10.282   9.735   1.784 -3.1702 -2.5785 -0.1200
  568MOL0     H76648  10.296   9.904   1.623 -0.0950  0.8582 -0.5638
  568MOL0     H76649  10.144   9.819   1.585  3.2613 -1.1169 -0.9622
  568MOL0     H76650  10.182  10.082   1.742  2.9188 -3.8736  2.7319
  568MOL0     H76651  10.030  10.011   1.716  0.0882  0.6839 -0.2384
  568MOL0     H76652  10.070  10.187   1.548  0.4115  0.3207 -1.7732
  568MOL0     H76653  10.059  10.029   1.469  1.2513  0.9294 -1.0902
  568MOL0     H76654  10.303  10.176   1.553  0.2308 -0.0053 -0.5284
  568MOL0     H76655  10.312  10.037   1.433 -0.4456  0.3301 -2.0992
  568MOL0     H76656  10.286  10.315   1.361 -0.1420  0.2540  1.2149
  568MOL0     H76657  10.131  10.227   1.329  0.0681 -0.8024 -4.2477
  568MOL0     H76658  10.376  10.094   1.225 -0.4212 -1.1159 -1.9079
  568MOL0     H76659  10.203  10.047   1.198  0.5380 -0.4797 -1.9907
  568MOL0     H76660   9.919   9.505   1.576  2.7690 -3.8443  2.8985
  568MOL0     H76661   9.683   9.430   1.564 -0.6325 -0.7797  1.7242
  568MOL0     H76662   9.281   9.524   1.560 -0.8940  1.4056  1.6160
  568MOL0     H76663   9.070   9.445   1.486  0.1683  1.4100  1.1611
  568MOL0     H76664   7.346   9.644   1.051  0.8427  2.0327 -0.7636
  568MOL0     H76665   7.125   9.535   1.093  2.8928 -1.1319  0.8437
  568MOL0     H76666   6.737   9.330   0.803 -0.1814  1.6637  1.0476
  568MOL0     H76667   6.506   9.284   0.845  1.1224  1.2022  0.0560
  568MOL0     H76668   6.207   9.225   1.043 -1.9440  0.3529 -0.9900
  568MOL0     H76669   6.306   9.220   0.893 -2.7256 -1.6247  0.7995
  568MOL0     H76670   6.316   9.453   0.860 -0.3181 -2.1170 -2.4895
  568MOL0     H76671   6.247   9.481   1.025  0.8752  1.2227 -1.3937
  568MOL0     H76672   6.032   9.395   0.945 -2.3364 -0.6295 -2.2228
  568MOL0     H76673   6.109   9.340   0.793 -0.2786  0.8826 -0.4927
  568MOL0     H76674   6.094   9.629   0.876  1.3288 -1.0347  1.7438
  568MOL0     H76675   6.184   9.562   0.731  1.6832 -1.0519  2.3853
  568MOL0     H76676   5.777   9.579   0.596  0.6426 -0.1021 -0.9885
  568MOL0     H76677   6.555   9.313   1.266 -1.6611 -0.3593  0.3140
  568MOL0     H76678   6.908   9.385   1.267  0.0597 -0.6262 -4.6781
  568MOL0     H76679   6.755   9.353   1.363 -1.3599  0.2419 -1.1427
  568MOL0     H76680   6.853   9.225   1.295 -1.0151 -0.2346 -2.0156
  569MOL0     O76681   3.274   8.321  10.568 -0.7411  0.8413  0.4361
  569MOL0     C76682   3.270   8.306  10.689 -0.1656  0.1445 -0.1582
  569MOL0     O76683   3.369   8.230  10.755 -0.0893 -0.1998  0.6213
  569MOL0     C76684   3.482   8.204  10.677 -1.0974  1.2840  1.1117
  569MOL0     C76685   3.608   8.273  10.681 -1.4037 -0.5553  0.3264
  569MOL0     C76686   3.718   8.225  10.601  0.2415  0.0260 -0.1530
  569MOL0     C76687   3.694   8.114  10.518 -0.6930  0.4386  0.5504
  569MOL0     O76688   3.798   8.054  10.447  0.3785 -0.6907 -0.4989
  569MOL0     C76689   3.901   8.146  10.402 -0.5513  0.8379 -0.1709
  569MOL0     C76690   4.033   8.154  10.481  0.7030 -0.5453 -0.5671
  569MOL0     C76691   4.099   8.021  10.501 -0.0545 -0.0479  0.2779
  569MOL0     C76692   4.256   8.048  10.523  0.9959  0.6319 -0.1876
  569MOL0     C76693   4.319   7.908  10.566  0.5338  0.8431  0.5339
  569MOL0     C76694   4.473   7.941  10.600  0.4380 -0.4356  0.3319
  569MOL0     C76695   4.556   7.824  10.656 -0.5469 -0.2247  0.1689
  569MOL0     C76696   4.703   7.869  10.684 -0.1855  0.3911 -0.2212
  569MOL0     N76697   4.810   7.766  10.672  0.3755  0.3848 -0.2840
  569MOL0     C76698   4.805   7.631  10.712 -1.2207  0.1670 -0.3427
  569MOL0     C76699   4.912   7.578  10.654  0.0988  0.1701  0.1777
  569MOL0     C76700   4.959   7.431  10.670 -0.2726 -0.9713  0.2633
  569MOL0     C76701   5.097   7.409  10.736  0.6146 -1.1159  0.5840
  569MOL0     C76702   5.208   7.500  10.678  0.3788  0.2613  0.1594
  569MOL0     C76703   5.344   7.463  10.724 -0.2102  0.8644 -0.9167
  569MOL0     O76704   5.443   7.509  10.625 -0.6463 -0.0245 -0.1019
  569MOL0     C76705   5.574   7.467  10.633 -0.0644  0.3670 -0.2274
  569MOL0     C76706   5.665   7.502  10.543 -0.7958  0.8491 -0.1928
  569MOL0     C76707   5.801   7.464  10.552  0.1316 -0.7392 -0.5871
  569MOL0     C76708   5.849   7.383  10.647 -0.9971  0.1231 -0.3839
  569MOL0     C76709   5.996   7.355  10.660 -0.7122 -0.4125 -0.0326
  569MOL0     O76710   6.084   7.453  10.617  0.1150 -0.3342  0.0521
  569MOL0     C76711   6.213   7.432  10.663  0.2214  0.1053  0.2240
  569MOL0     C76712   6.306   7.432  10.560  0.1182 -0.3350  0.5420
  569MOL0     C76713   6.439   7.420  10.586  0.5003  0.7444 -0.1387
  569MOL0     C76714   6.487   7.412  10.718 -0.3381 -0.2635 -0.1845
  569MOL0     O76715   6.618   7.390  10.739 -0.6182 -0.3487  0.1400
  569MOL0     C76716   6.680   7.339  10.862  0.6204  0.3673  1.1129
  569MOL0     C76717   6.827   7.320  10.837  0.0318 -0.6417  0.0258
  569MOL0     C76718   6.889   7.221  10.932  0.3597 -0.2004  0.0700
  569MOL0     C76719   7.028   7.265  10.963 -0.0526 -0.3367 -0.8860
  569MOL0     C76720   7.121   7.277  10.840 -0.3484  0.1797 -0.6027
  569MOL0     C76721   7.270   7.298  10.887  1.0179  0.3677  0.2786
  569MOL0     C76722   7.365   7.247  10.782  0.4944 -0.0505  0.4138
  569MOL0     C76723   7.498   7.214  10.842 -0.2178 -0.2554 -0.3256
  569MOL0    Cl76724   7.587   7.356  10.896 -0.1789  0.0632 -0.1229
  569MOL0     C76725   6.397   7.428  10.821 -0.2020  0.2719  0.0593
  569MOL0     C76726   6.262   7.425  10.792  0.2559  0.0670  0.0153
  569MOL0     O76727   6.029   7.256  10.730  0.5254  0.4446 -0.3759
  569MOL0     C76728   5.759   7.335  10.740  0.3340  0.0153 -0.7199
  569MOL0     C76729   5.621   7.384  10.736 -0.5506  0.4235 -0.2057
  569MOL0     N76730   4.977   7.674  10.573 -0.7796  0.2437  0.1099
  569MOL0     N76731   4.915   7.785  10.581 -0.4790 -0.3425 -0.0797
  569MOL0     C76732   3.576   8.040  10.532  0.5543 -0.2610 -0.0573
  569MOL0     C76733   3.475   8.085  10.612  0.5878  0.3540 -0.1326
  569MOL0     C76734   3.170   8.374  10.774  0.4550  0.1613  0.2070
  569MOL0     C76735   3.187   8.360  10.913 -0.1200  0.7690  0.0131
  569MOL0     C76736   3.098   8.428  10.998  0.2909  0.4354  0.5772
  569MOL0     C76737   2.985   8.501  10.949  0.1442  0.1887 -0.5744
  569MOL0     O76738   2.897   8.561  11.032 -0.3719 -0.5528  0.0438
  569MOL0     C76739   2.879   8.514  11.169 -0.5410 -0.6319 -0.6455
  569MOL0     C76740   2.779   8.607  11.251 -1.0850  0.5966 -0.0211
  569MOL0     C76741   2.639   8.589  11.195 -0.5018  0.7346  0.7252
  569MOL0     C76742   2.558   8.495  11.287  0.5879  0.2867  0.2635
  569MOL0     C76743   2.420   8.478  11.241 -0.0477 -0.8021  0.9230
  569MOL0     C76744   2.308   8.473  11.198  0.6988 -0.4024 -0.1885
  569MOL0     C76745   2.977   8.519  10.816  0.4029  0.2403 -0.3521
  569MOL0     C76746   3.060   8.457  10.725 -0.1358  0.6841  0.6122
  569MOL0     C76747   3.055   8.501  10.581  0.0552  0.6181  0.6804
  569MOL0     H76748   3.619   8.370  10.729  0.6472 -1.0759  0.9996
  569MOL0     H76749   3.815   8.275  10.602  1.1939 -1.7305 -0.0182
  569MOL0     H76750   3.935   8.100  10.309  0.9781  2.1836 -0.3228
  569MOL0     H76751   3.877   8.249  10.373  0.0418  1.4608  1.4363
  569MOL0     H76752   4.002   8.200  10.576 -1.8283  0.3339 -1.7531
  569MOL0     H76753   4.104   8.226  10.439  1.8138  0.6831  3.0155
  569MOL0     H76754   4.077   7.942  10.428  2.3946 -0.3928 -0.1836
  569MOL0     H76755   4.056   7.971  10.588 -1.7237 -0.4403 -0.7116
  569MOL0     H76756   4.302   8.085  10.431 -2.3848 -0.6846 -2.5900
  569MOL0     H76757   4.279   8.126  10.596  2.5831  1.1255 -1.1442
  569MOL0     H76758   4.262   7.873  10.652 -0.1075  1.3017  0.3040
  569MOL0     H76759   4.310   7.850  10.474  0.8945 -0.8540  1.5339
  569MOL0     H76760   4.530   7.977  10.514 -0.1264  0.8363  0.4747
  569MOL0     H76761   4.477   8.023  10.672 -2.7652  0.1871 -0.0644
  569MOL0     H76762   4.549   7.730  10.600 -1.4694 -0.1905  0.2043
  569MOL0     H76763   4.513   7.798  10.753 -0.5644 -1.5934 -0.1805
  569MOL0     H76764   4.731   7.944  10.609 -1.8288  1.9569  0.6758
  569MOL0     H76765   4.715   7.918  10.781  2.4708  2.0304 -1.2587
  569MOL0     H76766   4.730   7.593  10.782 -1.9552 -0.5184 -1.4719
  569MOL0     H76767   4.884   7.395  10.741 -5.0459  2.6257 -2.3408
  569MOL0     H76768   4.962   7.371  10.578 -0.6694  1.0054 -1.1114
  569MOL0     H76769   5.098   7.435  10.843 -0.6317 -1.5707  0.7178
  569MOL0     H76770   5.122   7.305  10.717  3.4157 -0.0139 -2.8856
  569MOL0     H76771   5.190   7.604  10.706 -2.2409  0.2045 -0.9724
  569MOL0     H76772   5.206   7.497  10.568  0.1463 -0.7864  0.1749
  569MOL0     H76773   5.357   7.355  10.719  2.3234  1.1217 -0.8656
  569MOL0     H76774   5.360   7.503  10.824 -0.4540 -1.1264 -0.0481
  569MOL0     H76775   5.640   7.560  10.454 -0.4207  1.8251  0.3224
  569MOL0     H76776   5.872   7.499  10.478  0.5534  0.5335  0.3650
  569MOL0     H76777   6.278   7.445  10.456  1.7681 -1.2314 -0.0623
  569MOL0     H76778   6.510   7.407  10.505  3.4150  0.4832  2.2524
  569MOL0     H76779   6.684   7.414  10.941  1.9329  0.2223  1.2047
  569MOL0     H76780   6.622   7.247  10.877  0.9054 -0.6352 -2.7500
  569MOL0     H76781   6.830   7.277  10.737 -3.5073 -2.1432  0.4042
  569MOL0     H76782   6.875   7.418  10.839 -0.9989 -0.1043  2.5166
  569MOL0     H76783   6.828   7.220  11.022  1.1349  1.0067  0.6362
  569MOL0     H76784   6.891   7.123  10.883  1.0584 -1.1044  1.8326
  569MOL0     H76785   7.068   7.188  11.028 -1.5055  0.9028  1.6034
  569MOL0     H76786   7.010   7.362  11.010  1.7617 -0.1790 -0.4545
  569MOL0     H76787   7.106   7.367  10.780  1.4222  1.7558  1.1850
  569MOL0     H76788   7.111   7.191  10.774 -0.6439  3.1265 -4.7415
  569MOL0     H76789   7.297   7.401  10.912 -1.5512  1.4386 -0.9587
  569MOL0     H76790   7.277   7.238  10.978 -0.1276 -1.2963 -0.6676
  569MOL0     H76791   7.377   7.334  10.716 -1.0912  0.4201  0.6946
  569MOL0     H76792   7.322   7.165  10.724  2.1800  1.8304 -3.9012
  569MOL0     H76793   7.481   7.155  10.933  1.6203 -1.0501 -0.4555
  569MOL0     H76794   7.557   7.165  10.764 -1.1114  2.2530 -2.7390
  569MOL0     H76795   6.433   7.435  10.923  2.0816  3.0988 -0.7896
  569MOL0     H76796   6.193   7.426  10.875  1.1205 -0.6226  0.7581
  569MOL0     H76797   5.790   7.257  10.809  0.9470  0.2432 -0.7302
  569MOL0     H76798   5.555   7.350  10.816 -1.0490  0.3297 -0.6493
  569MOL0     H76799   3.564   7.947  10.478 -0.3359 -0.3086  0.2122
  569MOL0     H76800   3.382   8.031  10.624  1.9849 -2.3422 -0.6616
  569MOL0     H76801   3.269   8.303  10.956 -1.6545 -0.8198  0.9605
  569MOL0     H76802   3.120   8.429  11.104 -2.3690 -0.9628  1.2398
  569MOL0     H76803   2.976   8.517  11.221 -0.5945 -0.3631 -0.5613
  569MOL0     H76804   2.853   8.407  11.169  2.4150 -1.4917  0.7242
  569MOL0     H76805   2.826   8.705  11.240 -1.0911  0.3950 -2.3592
  569MOL0     H76806   2.774   8.568  11.353  0.7604  0.5969  0.0951
  569MOL0     H76807   2.639   8.552  11.092 -2.1706  2.1344  0.1758
  569MOL0     H76808   2.588   8.685  11.182 -1.1727 -0.0144 -3.9571
  569MOL0     H76809   2.602   8.394  11.282 -2.2981 -1.2669  2.6421
  569MOL0     H76810   2.543   8.525  11.391 -1.6806 -0.2859  0.1539
  569MOL0     H76811   2.203   8.476  11.174  0.3503  1.7099  1.2979
  569MOL0     H76812   2.900   8.587  10.778  0.0193 -0.4493 -0.8342
  569MOL0     H76813   2.960   8.553  10.564 -0.4416 -0.5622 -0.3250
  569MOL0     H76814   3.145   8.563  10.573 -0.1532  0.6821 -2.5401
  569MOL0     H76815   3.062   8.419  10.508 -2.4643  0.9808 -0.0925
  570MOL0     O76816   6.899   2.013   8.080 -0.3150  0.3231  0.5780
  570MOL0     C76817   6.849   2.125   8.063  0.5076 -0.0657  0.0911
  570MOL0     O76818   6.908   2.249   8.079  0.2392 -0.3766  1.2305
  570MOL0     C76819   7.024   2.256   8.146 -0.4063 -0.0897  0.5914
  570MOL0     C76820   7.145   2.216   8.088 -0.1988  0.1762 -0.4106
  570MOL0     C76821   7.267   2.222   8.161 -0.4688 -0.4789 -0.4344
  570MOL0     C76822   7.267   2.276   8.292 -0.6295 -0.1481 -0.2590
  570MOL0     O76823   7.394   2.295   8.348  0.5873 -0.0774 -0.0929
  570MOL0     C76824   7.392   2.310   8.488  0.2970  0.6657  0.4756
  570MOL0     C76825   7.537   2.301   8.537  0.2196 -0.2903  0.2436
  570MOL0     C76826   7.622   2.416   8.489  0.0151 -0.1624  0.8775
  570MOL0     C76827   7.676   2.504   8.600 -0.6005  0.5030 -0.2688
  570MOL0     C76828   7.786   2.600   8.546 -0.4381  0.7027 -0.3391
  570MOL0     C76829   7.822   2.696   8.664 -0.2261  0.8005  0.2964
  570MOL0     C76830   7.942   2.786   8.636 -0.2351  0.9569 -0.1852
  570MOL0     C76831   7.984   2.857   8.766 -0.6783 -0.0490  0.1059
  570MOL0     N76832   8.120   2.918   8.746  0.2975  0.0621  0.2223
  570MOL0     C76833   8.223   2.912   8.827  0.1426 -0.0843 -0.3005
  570MOL0     C76834   8.320   2.983   8.768  0.2605 -0.7327  0.1437
  570MOL0     C76835   8.452   3.011   8.838 -0.0035  0.5447 -0.6399
  570MOL0     C76836   8.534   3.110   8.759  0.6130  0.1340  0.1269
  570MOL0     C76837   8.587   3.049   8.634  0.5434 -0.1626 -0.4317
  570MOL0     C76838   8.586   3.158   8.519 -0.6270  0.5301 -0.8026
  570MOL0     O76839   8.669   3.099   8.412  0.5595  0.3060 -0.2159
  570MOL0     C76840   8.795   3.153   8.391  0.0129  0.0810  0.5301
  570MOL0     C76841   8.901   3.073   8.406 -0.1097  0.8495 -0.1058
  570MOL0     C76842   9.031   3.128   8.407  0.3679 -0.0979 -0.5903
  570MOL0     C76843   9.057   3.268   8.389  0.5103  0.9607  0.2807
  570MOL0     C76844   9.199   3.320   8.388  0.5046  0.4195 -0.8580
  570MOL0     O76845   9.298   3.231   8.374 -0.2914  0.9697  0.0678
  570MOL0     C76846   9.429   3.270   8.349  0.6844  0.3302  0.0367
  570MOL0     C76847   9.524   3.189   8.401  0.6437  0.2319  0.5390
  570MOL0     C76848   9.662   3.208   8.380 -0.2250  0.0893  0.3290
  570MOL0     C76849   9.708   3.320   8.306 -0.0984 -0.7295  0.6133
  570MOL0     O76850   9.842   3.339   8.282  0.1749 -0.0677 -0.3204
  570MOL0     C76851   9.932   3.233   8.314 -0.0799 -0.2812  0.2615
  570MOL0     C76852  10.066   3.282   8.261 -0.7395  0.2306 -0.1093
  570MOL0     C76853  10.184   3.176   8.260 -0.0196 -0.5737 -0.4640
  570MOL0     C76854  10.278   3.175   8.131 -0.5619 -0.0729 -0.0892
  570MOL0     C76855  10.407   3.099   8.152 -0.1886  0.9541 -0.4396
  570MOL0     C76856  10.532   3.179   8.107  0.3125  0.1648 -0.4284
  570MOL0     C76857  10.660   3.102   8.115  0.0140 -0.7296 -0.7939
  570MOL0     C76858  10.685   2.997   8.007  0.0486 -0.4331  0.0365
  570MOL0    Cl76859  10.855   2.946   8.017  0.2643  0.0370  0.0197
  570MOL0     C76860   9.601   3.401   8.243 -0.3080  0.1622  0.4850
  570MOL0     C76861   9.465   3.375   8.259 -0.2703  0.2168 -0.0359
  570MOL0     O76862   9.212   3.440   8.391  0.0977 -0.2343 -0.6463
  570MOL0     C76863   8.949   3.344   8.370  1.1195 -0.2537  0.3126
  570MOL0     C76864   8.817   3.292   8.375  0.5191  0.7449 -0.5519
  570MOL0     N76865   8.267   3.039   8.648  0.3622  0.9535 -0.2449
  570MOL0     N76866   8.145   2.999   8.647 -0.6239 -0.1914 -0.0818
  570MOL0     C76867   7.148   2.312   8.350  0.4226  0.2680  0.4824
  570MOL0     C76868   7.029   2.307   8.272  0.5120  0.3836  0.8257
  570MOL0     C76869   6.720   2.140   7.994  0.8673  0.4668 -0.1780
  570MOL0     C76870   6.707   2.065   7.876  0.2602  0.3883  0.4080
  570MOL0     C76871   6.583   2.068   7.812  0.2483  0.2138  0.4401
  570MOL0     C76872   6.476   2.137   7.861  0.5539  0.0804 -0.6202
  570MOL0     O76873   6.372   2.129   7.779  0.3015  0.5622 -1.0213
  570MOL0     C76874   6.244   2.163   7.834 -0.2441  0.0855  0.7079
  570MOL0     C76875   6.203   2.309   7.826  0.6726 -0.0757 -0.3420
  570MOL0     C76876   6.081   2.343   7.909  0.2312  0.1376  0.0841
  570MOL0     C76877   6.047   2.486   7.901 -0.0452 -0.5548 -0.4707
  570MOL0     C76878   5.907   2.514   7.922  0.0529 -0.5038 -0.8677
  570MOL0     C76879   5.791   2.519   7.940 -0.4847 -0.3142  0.3446
  570MOL0     C76880   6.488   2.204   7.983 -0.4661 -0.1566 -0.2297
  570MOL0     C76881   6.606   2.204   8.052 -0.4324 -0.6409  1.3239
  570MOL0     C76882   6.614   2.270   8.185  0.4029  0.3359 -0.1182
  570MOL0     H76883   7.155   2.156   7.999  0.4897 -1.4104  0.6879
  570MOL0     H76884   7.365   2.189   8.131 -0.0784 -1.6002  1.8169
  570MOL0     H76885   7.334   2.393   8.529 -1.2064  0.4701 -1.1405
  570MOL0     H76886   7.344   2.223   8.533  1.6368 -1.0832 -1.3126
  570MOL0     H76887   7.580   2.208   8.496 -1.3599 -1.4442  1.0864
  570MOL0     H76888   7.542   2.288   8.645 -0.4844 -1.2073  0.1842
  570MOL0     H76889   7.560   2.484   8.430  0.7411  0.5270  0.9049
  570MOL0     H76890   7.709   2.383   8.431  0.7894  1.0117  1.3408
  570MOL0     H76891   7.602   2.560   8.657  1.1189  0.1537  2.4481
  570MOL0     H76892   7.731   2.435   8.665  0.4133  0.3369 -1.2479
  570MOL0     H76893   7.869   2.546   8.500 -2.1875 -2.3648 -0.1633
  570MOL0     H76894   7.742   2.665   8.470  0.2406 -0.0030 -1.3623
  570MOL0     H76895   7.741   2.760   8.700 -0.9864 -0.3683  0.7121
  570MOL0     H76896   7.831   2.634   8.753 -3.9271  0.7478  0.7822
  570MOL0     H76897   7.901   2.854   8.561 -0.4496  1.8417  0.7070
  570MOL0     H76898   8.031   2.740   8.593 -0.2981 -0.2572  0.9139
  570MOL0     H76899   7.909   2.934   8.788 -2.9807 -1.4858 -2.1987
  570MOL0     H76900   7.985   2.798   8.858  1.0530  1.2064  0.9555
  570MOL0     H76901   8.222   2.871   8.928 -2.0876  3.3258  1.2697
  570MOL0     H76902   8.436   3.063   8.932  2.3230 -0.1373  0.1880
  570MOL0     H76903   8.511   2.920   8.853 -2.2052 -1.2453 -2.0970
  570MOL0     H76904   8.475   3.198   8.731  2.6033  2.1522  1.8848
  570MOL0     H76905   8.614   3.148   8.823  0.3530 -0.1616  0.6296
  570MOL0     H76906   8.521   2.967   8.603 -1.4415  1.7157 -1.4703
  570MOL0     H76907   8.687   3.006   8.643  1.1945  1.4367  0.3479
  570MOL0     H76908   8.625   3.258   8.539 -1.9179  0.7438  0.8438
  570MOL0     H76909   8.488   3.183   8.478  0.8928  0.8138 -4.6461
  570MOL0     H76910   8.892   2.965   8.409  1.6609  0.6801  0.3992
  570MOL0     H76911   9.104   3.053   8.435 -2.2940 -2.9430 -0.8243
  570MOL0     H76912   9.488   3.108   8.464  2.3429 -0.5936  0.5236
  570MOL0     H76913   9.724   3.135   8.430 -0.9880 -0.2836  0.7458
  570MOL0     H76914   9.935   3.209   8.421  1.1641 -2.1969 -0.1531
  570MOL0     H76915   9.904   3.140   8.264 -1.2672  0.2154 -0.0245
  570MOL0     H76916  10.054   3.320   8.159 -0.6485  1.7626  0.4384
  570MOL0     H76917  10.109   3.362   8.321  0.4559 -1.2834  1.1155
  570MOL0     H76918  10.241   3.205   8.349 -0.4802  2.0876 -0.9383
  570MOL0     H76919  10.141   3.078   8.281  0.6921 -0.2033  3.6469
  570MOL0     H76920  10.294   3.279   8.101  1.1005 -0.6398 -1.3210
  570MOL0     H76921  10.217   3.125   8.055 -1.1826 -0.8963  0.9189
  570MOL0     H76922  10.403   3.002   8.101 -1.0136  0.6524  0.1675
  570MOL0     H76923  10.426   3.084   8.259  3.0526  3.6531 -0.4975
  570MOL0     H76924  10.518   3.222   8.008  0.3104  0.2320 -0.3992
  570MOL0     H76925  10.540   3.269   8.168 -0.6457  1.5618 -2.2734
  570MOL0     H76926  10.671   3.062   8.217  0.0100 -1.0404 -0.9159
  570MOL0     H76927  10.750   3.164   8.105 -0.1130 -0.5471 -0.8147
  570MOL0     H76928  10.614   2.914   8.009 -2.8438  1.8142 -1.3136
  570MOL0     H76929  10.673   3.046   7.910 -1.8343 -1.5125 -0.3347
  570MOL0     H76930   9.642   3.478   8.178 -0.1314 -0.2489  0.1041
  570MOL0     H76931   9.397   3.443   8.209 -1.6963  0.0923  1.6745
  570MOL0     H76932   8.969   3.448   8.349 -1.7143  0.1178 -1.1093
  570MOL0     H76933   8.736   3.364   8.371 -1.4590 -1.1615  1.8214
  570MOL0     H76934   7.136   2.351   8.450 -2.1707  0.1973  0.2737
  570MOL0     H76935   6.933   2.344   8.306  0.5517  1.3184 -0.0535
  570MOL0     H76936   6.780   1.991   7.845 -0.2779 -0.7930  1.8353
  570MOL0     H76937   6.585   2.007   7.722 -1.8995  1.5862 -0.6178
  570MOL0     H76938   6.247   2.141   7.941  0.9700 -3.7734  0.0334
  570MOL0     H76939   6.170   2.100   7.783  1.1026  0.0039 -1.2549
  570MOL0     H76940   6.174   2.332   7.723 -0.5378  1.5208  0.3061
  570MOL0     H76941   6.288   2.366   7.866  2.0932 -1.4014 -1.3643
  570MOL0     H76942   6.101   2.315   8.013  1.8468 -0.5937 -0.3773
  570MOL0     H76943   5.995   2.279   7.888  1.6151 -2.5501  1.9207
  570MOL0     H76944   6.111   2.549   7.964  0.2998 -0.1773 -1.1835
  570MOL0     H76945   6.086   2.514   7.803  0.1187 -0.9432 -0.5191
  570MOL0     H76946   5.686   2.529   7.959 -0.0015  2.4597  2.0281
  570MOL0     H76947   6.406   2.252   8.035 -1.4669 -2.1978  0.1661
  570MOL0     H76948   6.535   2.344   8.194  1.2442  1.2399 -0.0387
  570MOL0     H76949   6.598   2.187   8.255 -0.4443  1.3335  0.8936
  570MOL0     H76950   6.710   2.313   8.215  0.8688 -1.4485  1.1271
  571MOL0     O76951   5.849   1.252   0.293  0.2166  0.0964  1.1810
  571MOL0     C76952   5.942   1.300   0.231 -0.4825  0.5956  1.1443
  571MOL0     O76953   6.037   1.221   0.174 -0.1039  0.1230 -0.1001
  571MOL0     C76954   6.023   1.081   0.161  0.0651 -0.2424  0.2577
  571MOL0     C76955   6.134   1.001   0.178  0.2361 -0.5927 -0.8665
  571MOL0     C76956   6.134   0.868   0.147  0.2486  0.3250 -0.3472
  571MOL0     C76957   6.016   0.802   0.107  1.1293  0.7882 -0.0088
  571MOL0     O76958   6.004   0.668   0.071 -0.0079 -0.0134  0.0278
  571MOL0     C76959   6.099   0.634  -0.022 -0.4628 -0.3020 -0.7049
  571MOL0     C76960   6.052   0.509  -0.096 -0.3761  1.1265 -0.7751
  571MOL0     C76961   5.925   0.550  -0.178  0.2492  1.0699  0.2669
  571MOL0     C76962   5.920   0.455  -0.298 -0.5201 -0.3663 -0.1827
  571MOL0     C76963   5.801   0.485  -0.401 -0.0197 -0.0490 -1.0153
  571MOL0     C76964   5.806   0.379  -0.510  0.6211 -0.2386  0.2056
  571MOL0     C76965   5.656   0.346  -0.556  0.2487  0.0445  0.0226
  571MOL0     C76966   5.656   0.245  -0.676  0.0510 -0.4878  0.2346
  571MOL0     N76967   5.723   0.282  -0.799 -0.2394 -0.6211  0.5032
  571MOL0     C76968   5.692   0.388  -0.877 -0.2929 -0.9582 -1.1793
  571MOL0     C76969   5.779   0.390  -0.980  0.3565 -0.4071  0.5603
  571MOL0     C76970   5.784   0.493  -1.097 -0.1607  0.0594 -0.6279
  571MOL0     C76971   5.927   0.553  -1.107  0.3534  0.1734  0.0735
  571MOL0     C76972   5.923   0.682  -1.042 -0.3904  0.2016  0.0425
  571MOL0     C76973   6.060   0.740  -1.004 -0.9645 -0.0101 -0.1666
  571MOL0     O76974   6.131   0.766  -1.133  0.9022  0.5199 -0.0623
  571MOL0     C76975   6.264   0.776  -1.142  0.7798 -0.3592  0.0041
  571MOL0     C76976   6.317   0.810  -1.268  0.5039  0.0809 -0.9021
  571MOL0     C76977   6.452   0.837  -1.283 -0.4719  0.2656 -0.2822
  571MOL0     C76978   6.549   0.809  -1.182 -0.7746  0.3414  0.1444
  571MOL0     C76979   6.696   0.808  -1.210 -0.0899  0.5830 -0.1849
  571MOL0     O76980   6.738   0.783  -1.337 -0.2380 -0.5616  0.9578
  571MOL0     C76981   6.870   0.809  -1.356  0.2456  0.5324  0.4741
  571MOL0     C76982   6.964   0.706  -1.349  0.3778  0.3430  0.9022
  571MOL0     C76983   7.092   0.728  -1.394  0.6362 -0.8970 -0.0376
  571MOL0     C76984   7.128   0.856  -1.430 -0.7401 -0.1404 -0.0689
  571MOL0     O76985   7.259   0.884  -1.461 -0.5132  0.4599  0.5794
  571MOL0     C76986   7.326   0.975  -1.377 -0.2163  0.4281 -0.0261
  571MOL0     C76987   7.470   1.005  -1.426  0.9608  1.2468 -0.8861
  571MOL0     C76988   7.477   1.089  -1.556 -0.5906  0.2152 -0.1089
  571MOL0     C76989   7.613   1.144  -1.594 -0.7780  0.0220  1.5137
  571MOL0     C76990   7.601   1.270  -1.683  0.5142 -0.6400 -0.3766
  571MOL0     C76991   7.734   1.326  -1.735  0.3510  0.4046  0.3417
  571MOL0     C76992   7.759   1.466  -1.673 -0.5078 -0.7692  0.0874
  571MOL0     C76993   7.901   1.507  -1.701 -0.8781 -0.1615  0.4295
  571MOL0    Cl76994   7.973   1.669  -1.642 -0.1264  0.1112  0.5222
  571MOL0     C76995   7.035   0.960  -1.443  0.1528 -0.0432 -0.1870
  571MOL0     C76996   6.907   0.937  -1.403 -0.0059  0.1638 -0.3791
  571MOL0     O76997   6.764   0.841  -1.113 -0.1764 -0.4316 -0.1756
  571MOL0     C76998   6.504   0.766  -1.059  0.2128  0.0513 -0.3154
  571MOL0     C76999   6.360   0.757  -1.034  0.2188 -0.1830  0.0492
  571MOL0     N77000   5.863   0.279  -0.966  0.5961  0.1617 -0.1576
  571MOL0     N77001   5.830   0.216  -0.866  0.4022 -0.4972 -0.3363
  571MOL0     C77002   5.897   0.883   0.095 -0.0455  1.0841  0.3487
  571MOL0     C77003   5.902   1.023   0.117 -0.7271  0.2858 -0.5179
  571MOL0     C77004   5.952   1.443   0.250  1.0732 -0.6917  0.3207
  571MOL0     C77005   5.835   1.512   0.292 -0.2926  0.2813 -0.2022
  571MOL0     C77006   5.850   1.646   0.319 -0.1080 -0.2008  0.2250
  571MOL0     C77007   5.968   1.716   0.299  0.3272 -0.3212 -0.4109
  571MOL0     O77008   5.955   1.850   0.321 -0.0103  0.6100 -0.0899
  571MOL0     C77009   6.065   1.945   0.315  0.4994  0.7892  0.2371
  571MOL0     C77010   6.161   1.931   0.422 -0.5351  0.6779  0.5744
  571MOL0     C77011   6.093   1.961   0.554 -0.1250 -0.4735  0.5524
  571MOL0     C77012   6.179   2.060   0.633 -0.3923  0.8411 -0.5872
  571MOL0     C77013   6.105   2.103   0.761 -0.5808  0.5843  0.5637
  571MOL0     C77014   6.034   2.133   0.854 -0.0167 -0.0230  0.2959
  571MOL0     C77015   6.085   1.644   0.271  0.2465  0.5299  0.3695
  571MOL0     C77016   6.076   1.509   0.239 -0.1014  0.3980 -0.0119
  571MOL0     C77017   6.207   1.437   0.210 -0.5706 -0.1299 -0.1935
  571MOL0     H77018   6.220   1.057   0.211 -0.7319  1.1277 -1.1688
  571MOL0     H77019   6.231   0.819   0.150  0.0450 -0.0255  1.0959
  571MOL0     H77020   6.112   0.714  -0.096 -0.7198 -0.0873 -0.5183
  571MOL0     H77021   6.194   0.616   0.030 -0.4690 -0.9304 -0.8939
  571MOL0     H77022   6.028   0.434  -0.020  0.0647  2.0046  0.2638
  571MOL0     H77023   6.141   0.472  -0.148  2.7515  1.6404  3.6079
  571MOL0     H77024   5.940   0.654  -0.209  3.4533  0.6568  0.0865
  571MOL0     H77025   5.835   0.552  -0.115  0.3058 -0.3863  0.4265
  571MOL0     H77026   6.016   0.450  -0.352  0.4109 -1.4668  1.4930
  571MOL0     H77027   5.905   0.361  -0.244  2.7852  0.1250  1.8935
  571MOL0     H77028   5.708   0.477  -0.345  0.8091  1.9583  0.7534
  571MOL0     H77029   5.816   0.586  -0.441 -1.4051  0.3227 -0.6300
  571MOL0     H77030   5.870   0.407  -0.593  0.3496 -3.7054 -1.3558
  571MOL0     H77031   5.843   0.281  -0.479  1.4126 -0.8214 -2.3455
  571MOL0     H77032   5.615   0.443  -0.588  2.5451  1.3066  0.6751
  571MOL0     H77033   5.597   0.311  -0.471 -4.7594  1.7650 -2.3292
  571MOL0     H77034   5.718   0.163  -0.640  3.1961  0.8677 -1.7384
  571MOL0     H77035   5.559   0.208  -0.710 -1.2185  2.0587  0.7747
  571MOL0     H77036   5.613   0.462  -0.867 -0.8895 -1.0802 -4.1110
  571MOL0     H77037   5.763   0.445  -1.193 -1.2609 -2.8559  0.9090
  571MOL0     H77038   5.701   0.563  -1.096 -0.5540 -0.3997  0.0466
  571MOL0     H77039   6.004   0.485  -1.071 -0.1859  0.4836  1.8819
  571MOL0     H77040   5.938   0.571  -1.215  0.0033  0.4903  0.0882
  571MOL0     H77041   5.865   0.684  -0.949  1.7057  2.0208  1.4212
  571MOL0     H77042   5.869   0.756  -1.101 -2.4004 -0.5774  0.7975
  571MOL0     H77043   6.122   0.674  -0.942  1.1287  0.3434 -1.7689
  571MOL0     H77044   6.041   0.821  -0.933  1.3926 -0.9464  1.6879
  571MOL0     H77045   6.245   0.833  -1.346 -0.3624 -1.3100 -0.5458
  571MOL0     H77046   6.496   0.860  -1.379  1.6777  0.0506  0.6015
  571MOL0     H77047   6.924   0.613  -1.311 -2.6476  0.6382 -1.1919
  571MOL0     H77048   7.167   0.652  -1.375  0.0761 -1.6129 -0.6767
  571MOL0     H77049   7.274   1.071  -1.368  0.2782  0.5254  2.8735
  571MOL0     H77050   7.316   0.928  -1.279 -0.9575 -3.0289 -1.6294
  571MOL0     H77051   7.531   1.061  -1.355  0.8467 -1.0195  1.1040
  571MOL0     H77052   7.516   0.906  -1.432 -0.9857  0.3107 -1.0125
  571MOL0     H77053   7.418   1.039  -1.634 -3.0760 -2.8500  3.3758
  571MOL0     H77054   7.423   1.182  -1.538 -1.0599  0.3644 -2.0423
  571MOL0     H77055   7.656   1.060  -1.650 -0.3018  1.1207  0.1768
  571MOL0     H77056   7.676   1.177  -1.511  0.9982  4.3298 -1.2291
  571MOL0     H77057   7.547   1.356  -1.641  0.4921 -0.6798 -0.3233
  571MOL0     H77058   7.545   1.235  -1.770 -1.0190 -0.7867  0.6172
  571MOL0     H77059   7.823   1.262  -1.733 -1.3584 -2.1272  0.7788
  571MOL0     H77060   7.714   1.332  -1.843  1.1968  0.6521  0.1883
  571MOL0     H77061   7.739   1.469  -1.566  3.4707 -0.7243  0.9794
  571MOL0     H77062   7.698   1.545  -1.718 -2.3423 -0.4957  2.8182
  571MOL0     H77063   7.967   1.425  -1.668  0.3524 -0.0912 -1.6434
  571MOL0     H77064   7.909   1.501  -1.810  0.0639 -2.0034  0.5505
  571MOL0     H77065   7.068   1.050  -1.494  0.2712  0.5540  0.8930
  571MOL0     H77066   6.844   1.021  -1.432  0.4230 -0.2977 -2.9372
  571MOL0     H77067   6.567   0.734  -0.976 -0.2373 -1.3589 -0.4892
  571MOL0     H77068   6.323   0.726  -0.937 -0.2439 -0.5705 -0.2443
  571MOL0     H77069   5.804   0.835   0.066 -0.0092  1.7430 -0.8892
  571MOL0     H77070   5.813   1.084   0.107 -1.8848 -0.7437  2.4725
  571MOL0     H77071   5.741   1.460   0.304 -0.6867  0.1185 -3.2508
  571MOL0     H77072   5.764   1.703   0.353 -2.0843 -2.3148 -0.9721
  571MOL0     H77073   6.019   2.044   0.325  1.1156  1.1074 -0.0386
  571MOL0     H77074   6.114   1.933   0.218 -0.9629 -1.5277 -0.2989
  571MOL0     H77075   6.239   2.005   0.404 -2.6706  3.9299  3.3835
  571MOL0     H77076   6.215   1.836   0.414  1.5227  1.9525 -3.0343
  571MOL0     H77077   6.091   1.867   0.612  1.6022 -0.1261  1.2421
  571MOL0     H77078   5.990   1.994   0.541 -0.8514 -3.3463 -2.1333
  571MOL0     H77079   6.273   2.014   0.664  0.0041  2.5710  0.8793
  571MOL0     H77080   6.208   2.145   0.572 -0.4100  0.3790 -1.2562
  571MOL0     H77081   5.965   2.158   0.932 -0.7047 -3.3675  0.9303
  571MOL0     H77082   6.179   1.696   0.256 -0.4427  1.8184  0.3587
  571MOL0     H77083   6.204   1.374   0.121  0.6155  1.8978 -1.7423
  571MOL0     H77084   6.292   1.504   0.195  0.9063 -2.3167 -2.2507
  571MOL0     H77085   6.245   1.373   0.291 -1.6904 -2.1096 -1.1440
  572MOL0     O77086   8.536   0.892   2.299 -0.1870 -0.4362  0.3756
  572MOL0     C77087   8.423   0.926   2.334  0.0519  0.0492 -0.3299
  572MOL0     O77088   8.378   1.056   2.353 -0.2223 -0.3440  0.6335
  572MOL0     C77089   8.452   1.172   2.352 -0.4949 -0.7819  0.3533
  572MOL0     C77090   8.570   1.194   2.273  0.8359  0.5908 -0.0957
  572MOL0     C77091   8.624   1.323   2.267 -0.1599  1.0481  0.7684
  572MOL0     C77092   8.571   1.427   2.333 -0.1769  0.7512 -0.5073
  572MOL0     O77093   8.617   1.555   2.336 -0.1351 -0.3608  0.3558
  572MOL0     C77094   8.682   1.609   2.220  0.0459 -0.3838  0.1492
  572MOL0     C77095   8.816   1.673   2.250 -0.5917  0.2747 -0.3552
  572MOL0     C77096   8.897   1.722   2.133  0.3594  1.0701 -0.3027
  572MOL0     C77097   8.822   1.819   2.036 -0.1379 -0.3670  0.1851
  572MOL0     C77098   8.786   1.949   2.106 -0.3628  0.3598 -0.8459
  572MOL0     C77099   8.896   2.034   2.180 -0.1945  0.7583  1.0983
  572MOL0     C77100   9.016   2.059   2.097 -0.3311 -0.2413  0.4149
  572MOL0     C77101   9.106   2.146   2.182  0.5297 -0.3769 -0.2135
  572MOL0     N77102   9.232   2.179   2.107  0.5827  1.0221 -0.3750
  572MOL0     C77103   9.350   2.114   2.104 -0.2954  0.4710  0.0593
  572MOL0     C77104   9.425   2.173   2.011 -0.2903  0.6859 -0.5016
  572MOL0     C77105   9.557   2.127   1.965  0.3044 -0.9176  0.3312
  572MOL0     C77106   9.658   2.168   2.063 -0.4471  0.1853  1.1842
  572MOL0     C77107   9.776   2.227   1.990 -0.4809 -0.1147  0.5058
  572MOL0     C77108   9.897   2.261   2.076 -0.0470  0.9927 -0.3759
  572MOL0     O77109  10.008   2.294   1.999 -0.3177  0.2692  0.2700
  572MOL0     C77110  10.126   2.334   2.053 -0.7231 -0.7542 -0.4259
  572MOL0     C77111  10.231   2.347   1.967 -0.2992  0.7959  0.4410
  572MOL0     C77112  10.357   2.390   2.015 -0.7860 -0.0610  0.3437
  572MOL0     C77113  10.364   2.445   2.136  0.3112 -0.6865  0.0756
  572MOL0     C77114  10.487   2.528   2.167  0.2257  0.0811 -0.0266
  572MOL0     O77115  10.601   2.518   2.091  0.1186  0.1137  0.0490
  572MOL0     C77116  10.715   2.584   2.127  0.0117  0.4131 -1.2484
  572MOL0     C77117  10.795   2.566   2.247  0.0073  0.8334  0.7849
  572MOL0     C77118  10.921   2.625   2.253 -0.9880 -1.3957  0.3586
  572MOL0     C77119  10.976   2.705   2.152 -0.0668 -1.0189  0.7323
  572MOL0     O77120  11.100   2.768   2.169  0.5028 -0.0199  0.3722
  572MOL0     C77121  11.188   2.762   2.052 -0.3997 -0.2106 -0.0527
  572MOL0     C77122  11.323   2.802   2.100  0.1538 -0.6035 -0.0675
  572MOL0     C77123  11.415   2.761   1.994 -0.4138  0.2860  0.4238
  572MOL0     C77124  11.555   2.800   2.033  0.0118  0.3315 -0.2278
  572MOL0     C77125  11.653   2.787   1.912  0.1656 -0.0979 -1.3266
  572MOL0     C77126  11.699   2.634   1.887 -0.0357 -1.1194  0.2619
  572MOL0     C77127  11.808   2.619   1.780 -0.2288 -0.2868  1.0261
  572MOL0     C77128  11.767   2.666   1.640  1.1137 -0.0313  0.4733
  572MOL0    Cl77129  11.846   2.824   1.600 -0.3600 -0.2726  0.2137
  572MOL0     C77130  10.893   2.727   2.036 -0.1226 -0.2367  0.9453
  572MOL0     C77131  10.772   2.665   2.028  0.0115  0.2086  0.9700
  572MOL0     O77132  10.480   2.595   2.270  0.4810  0.0215 -0.0372
  572MOL0     C77133  10.262   2.436   2.231 -0.2616  0.5843 -0.0786
  572MOL0     C77134  10.145   2.373   2.185 -0.6924 -0.7795 -0.4008
  572MOL0     N77135   9.352   2.276   1.956  0.2309 -0.1487 -0.4441
  572MOL0     N77136   9.235   2.274   2.005  0.1535  0.9820 -0.4928
  572MOL0     C77137   8.443   1.408   2.405  0.4811 -0.1206  0.2394
  572MOL0     C77138   8.393   1.281   2.418 -0.0720 -0.2255 -0.4985
  572MOL0     C77139   8.327   0.816   2.369  0.7307 -0.2141 -0.0872
  572MOL0     C77140   8.200   0.856   2.418 -0.5138  0.2284 -0.4052
  572MOL0     C77141   8.099   0.760   2.454  0.5841 -0.7027 -0.5257
  572MOL0     C77142   8.124   0.625   2.440  0.1963  0.3522  0.1509
  572MOL0     O77143   8.025   0.526   2.465 -0.4585  0.0464 -0.1628
  572MOL0     C77144   7.892   0.559   2.513 -0.4017  0.1577  0.2290
  572MOL0     C77145   7.815   0.426   2.505  0.3649  0.1907 -0.0472
  572MOL0     C77146   7.691   0.439   2.601 -0.9715 -0.2681 -0.3231
  572MOL0     C77147   7.591   0.541   2.562 -0.0633 -0.0565  0.3445
  572MOL0     C77148   7.487   0.473   2.479  0.5232 -0.1493  0.1612
  572MOL0     C77149   7.414   0.439   2.385  0.1932 -0.3881  0.2739
  572MOL0     C77150   8.252   0.588   2.394  0.5700 -0.6668  0.1213
  572MOL0     C77151   8.350   0.677   2.350 -0.0690  0.0928 -0.0553
  572MOL0     C77152   8.479   0.607   2.300  0.3068  0.1494  0.1187
  572MOL0     H77153   8.621   1.107   2.234 -0.4833 -0.4531  0.4584
  572MOL0     H77154   8.724   1.336   2.228 -2.1442  3.2316 -4.4749
  572MOL0     H77155   8.697   1.531   2.144  1.3245  0.3642 -0.4090
  572MOL0     H77156   8.616   1.681   2.172 -1.1039 -0.9042  0.9084
  572MOL0     H77157   8.877   1.598   2.302  0.1374  2.9028  2.9248
  572MOL0     H77158   8.795   1.751   2.323  0.0733 -0.4212  0.5988
  572MOL0     H77159   8.933   1.639   2.072 -1.5149  1.1289 -1.5361
  572MOL0     H77160   8.978   1.780   2.180  0.1022  0.2620  1.1875
  572MOL0     H77161   8.901   1.832   1.962  1.1361 -1.5440  1.2918
  572MOL0     H77162   8.732   1.772   1.995 -0.9508  0.9963  0.3499
  572MOL0     H77163   8.724   2.005   2.035 -0.5611  1.3204  0.0664
  572MOL0     H77164   8.722   1.926   2.191  1.2742 -3.0737 -0.3741
  572MOL0     H77165   8.846   2.125   2.215  1.6830  3.2777 -2.3000
  572MOL0     H77166   8.929   1.971   2.264 -1.3135 -0.1932  0.8556
  572MOL0     H77167   8.986   2.112   2.007  2.7879  1.5349  0.2808
  572MOL0     H77168   9.059   1.964   2.064  0.6105  0.6342 -0.9655
  572MOL0     H77169   9.053   2.238   2.210  1.2998 -0.0297  0.1437
  572MOL0     H77170   9.122   2.087   2.273  2.3614 -0.3369 -0.4635
  572MOL0     H77171   9.369   2.018   2.150 -5.3765 -1.0498 -0.4864
  572MOL0     H77172   9.566   2.021   1.940  3.0934 -1.0297  1.4410
  572MOL0     H77173   9.576   2.182   1.872  1.1149 -0.9484  0.4698
  572MOL0     H77174   9.625   2.244   2.135 -2.1493 -0.2571  0.9057
  572MOL0     H77175   9.692   2.080   2.119  2.1258  0.7658  0.6710
  572MOL0     H77176   9.758   2.326   1.947  0.3290 -0.1730  0.0277
  572MOL0     H77177   9.810   2.165   1.907 -2.1100  2.7218 -2.5393
  572MOL0     H77178   9.925   2.173   2.136  0.7687  1.3844 -0.1718
  572MOL0     H77179   9.865   2.335   2.150 -1.7533 -0.4986  0.4780
  572MOL0     H77180  10.221   2.300   1.870 -0.2764 -0.2744  0.9391
  572MOL0     H77181  10.441   2.394   1.946  0.5371  0.7495  1.9440
  572MOL0     H77182  10.773   2.491   2.321  0.1163  0.8998  0.8849
  572MOL0     H77183  10.982   2.598   2.338 -1.4924 -2.1835  0.4847
  572MOL0     H77184  11.190   2.659   2.014  1.8629 -0.6687  1.1043
  572MOL0     H77185  11.146   2.835   1.983  1.4062  0.9433  0.0238
  572MOL0     H77186  11.335   2.911   2.104  1.9843 -0.7736 -0.1335
  572MOL0     H77187  11.350   2.757   2.196  3.2817  0.7347 -0.1983
  572MOL0     H77188  11.412   2.652   1.981  0.7632  0.2043  0.7369
  572MOL0     H77189  11.389   2.801   1.895  2.9464 -1.8456 -1.5329
  572MOL0     H77190  11.598   2.743   2.115  2.1563  0.2813 -1.3189
  572MOL0     H77191  11.553   2.904   2.066 -1.3359  0.3474 -0.2747
  572MOL0     H77192  11.739   2.854   1.925  1.1393 -1.4198 -0.7660
  572MOL0     H77193  11.602   2.816   1.820 -0.4618 -0.0710 -0.9787
  572MOL0     H77194  11.751   2.609   1.980  0.8071  0.3676  0.2264
  572MOL0     H77195  11.613   2.566   1.877 -3.1464  2.7857 -3.3525
  572MOL0     H77196  11.830   2.513   1.768  1.7641  0.1760  0.0875
  572MOL0     H77197  11.898   2.674   1.811 -1.6458  2.0958  1.1977
  572MOL0     H77198  11.790   2.598   1.558 -1.9947 -0.2451 -0.3133
  572MOL0     H77199  11.659   2.680   1.638  1.1844  0.6336  0.8972
  572MOL0     H77200  10.926   2.776   1.945  0.9588  1.7824  2.3360
  572MOL0     H77201  10.718   2.677   1.935 -2.1038 -0.1612  2.0601
  572MOL0     H77202  10.269   2.483   2.329 -2.3754 -5.3385  3.4099
  572MOL0     H77203  10.064   2.372   2.256 -0.3733  1.1300  0.0441
  572MOL0     H77204   8.410   1.497   2.460  2.0476  1.4725 -1.2802
  572MOL0     H77205   8.298   1.260   2.467  1.0911 -2.5909  0.8997
  572MOL0     H77206   8.167   0.959   2.431 -0.6394  0.3870 -1.8490
  572MOL0     H77207   8.005   0.798   2.492  0.7472 -1.1999  0.4076
  572MOL0     H77208   7.835   0.636   2.461  0.8791  2.5077  2.0577
  572MOL0     H77209   7.912   0.595   2.615 -0.1243  0.5925  0.0205
  572MOL0     H77210   7.874   0.340   2.537  1.1510  0.3286 -1.0549
  572MOL0     H77211   7.797   0.406   2.399 -1.9040  1.8959 -0.0574
  572MOL0     H77212   7.724   0.468   2.702  0.0062 -2.0820 -0.0553
  572MOL0     H77213   7.647   0.339   2.611 -1.2959 -0.3957 -2.5933
  572MOL0     H77214   7.546   0.576   2.655  2.5800 -1.8857  2.4750
  572MOL0     H77215   7.637   0.621   2.503  3.4082 -0.9908  1.5157
  572MOL0     H77216   7.338   0.417   2.314  0.9906  1.9866 -1.4738
  572MOL0     H77217   8.261   0.482   2.371  0.2189 -1.1402  1.9995
  572MOL0     H77218   8.470   0.501   2.325 -1.1598  0.0744 -0.6088
  572MOL0     H77219   8.497   0.632   2.195  0.5251  2.1432  0.5903
  572MOL0     H77220   8.567   0.639   2.357  0.0708  1.7406 -0.3525
  573MOL0     O77221   1.590   5.006   6.018  1.0475  0.4881 -0.5406
  573MOL0     C77222   1.558   5.063   6.127 -0.5786  0.1712  0.4263
  573MOL0     O77223   1.638   5.135   6.201 -0.4300  0.1090 -0.0746
  573MOL0     C77224   1.771   5.129   6.167  0.3895  0.2029  0.1735
  573MOL0     C77225   1.857   5.068   6.256 -0.1026  0.3662 -0.4766
  573MOL0     C77226   1.997   5.064   6.235  0.7396 -0.2033 -0.6203
  573MOL0     C77227   2.057   5.127   6.122  0.3660 -0.5076 -0.1753
  573MOL0     O77228   2.191   5.115   6.116  0.3538 -0.1346 -0.1712
  573MOL0     C77229   2.265   5.227   6.083 -0.6039  0.6325 -0.0906
  573MOL0     C77230   2.395   5.185   6.010 -0.5752 -0.0281  0.3052
  573MOL0     C77231   2.472   5.063   6.067 -0.0326  0.5121 -0.0820
  573MOL0     C77232   2.511   5.082   6.210  0.7171  0.6703 -0.8049
  573MOL0     C77233   2.619   5.184   6.241  1.0809 -0.0981 -0.7126
  573MOL0     C77234   2.747   5.172   6.164 -0.0444 -0.4611  0.1986
  573MOL0     C77235   2.842   5.284   6.228  0.3724  0.4794  0.0853
  573MOL0     C77236   2.925   5.225   6.347  0.1168  0.0119 -1.0935
  573MOL0     N77237   3.000   5.100   6.319  1.0410  1.0056  0.0963
  573MOL0     C77238   2.959   4.972   6.366  0.1478  0.7575 -0.4372
  573MOL0     C77239   3.065   4.888   6.355  0.6658  0.3895 -0.2196
  573MOL0     C77240   3.081   4.744   6.407 -0.1673 -0.9947 -1.1809
  573MOL0     C77241   3.055   4.648   6.294 -0.0018 -0.3886 -0.3503
  573MOL0     C77242   3.133   4.669   6.168  0.0406  0.5965 -0.0612
  573MOL0     C77243   3.288   4.680   6.197 -0.0152 -0.5238 -0.2826
  573MOL0     O77244   3.347   4.572   6.279  1.1798 -0.3784  0.2845
  573MOL0     C77245   3.482   4.565   6.295 -0.6488 -0.2308 -0.9323
  573MOL0     C77246   3.569   4.669   6.261 -0.7685 -0.3253  0.5345
  573MOL0     C77247   3.705   4.660   6.289 -1.0132 -0.0089  0.3333
  573MOL0     C77248   3.759   4.534   6.336 -0.3306 -0.2233  0.3538
  573MOL0     C77249   3.906   4.506   6.330  0.3200 -0.3512 -0.8344
  573MOL0     O77250   3.993   4.608   6.317 -0.1611 -0.2694 -0.2834
  573MOL0     C77251   4.136   4.593   6.337 -0.2597  0.7395  0.6756
  573MOL0     C77252   4.207   4.710   6.295 -0.1204 -0.4272 -0.5240
  573MOL0     C77253   4.346   4.714   6.297  0.3203 -0.6079  0.4695
  573MOL0     C77254   4.422   4.618   6.358 -0.0573 -0.4207  0.2592
  573MOL0     O77255   4.555   4.646   6.382 -0.1213 -0.3649 -0.4305
  573MOL0     C77256   4.643   4.559   6.448  0.0795  0.2538 -0.4560
  573MOL0     C77257   4.791   4.564   6.395  0.4333  0.7199 -0.4919
  573MOL0     C77258   4.838   4.713   6.367 -0.0365  0.2101  0.0621
  573MOL0     C77259   4.850   4.801   6.490 -0.0054 -0.8817 -0.6029
  573MOL0     C77260   4.853   4.952   6.437  0.6027  0.1056  0.1797
  573MOL0     C77261   4.980   4.986   6.359  0.0400  0.5202  0.7166
  573MOL0     C77262   4.974   5.142   6.320  0.8178 -0.7219  0.3636
  573MOL0     C77263   5.071   5.188   6.216  0.3249 -0.2348 -0.1829
  573MOL0    Cl77264   5.104   5.364   6.258  0.5123 -0.0251  0.4046
  573MOL0     C77265   4.351   4.493   6.401  0.0692 -1.0035 -0.4795
  573MOL0     C77266   4.208   4.483   6.388  0.6166 -0.7456 -0.3208
  573MOL0     O77267   3.941   4.384   6.341  0.3445 -0.5459  0.5523
  573MOL0     C77268   3.668   4.435   6.379  0.1430 -0.0497  0.3075
  573MOL0     C77269   3.533   4.449   6.357 -0.4593 -0.0000  0.3163
  573MOL0     N77270   3.166   4.958   6.309  0.0062 -0.0647 -0.8942
  573MOL0     N77271   3.134   5.087   6.288 -0.6570  0.2432 -0.2940
  573MOL0     C77272   1.969   5.179   6.030  0.6800 -0.4250  0.1039
  573MOL0     C77273   1.824   5.187   6.050 -0.4360 -0.1570  0.2460
  573MOL0     C77274   1.418   5.071   6.167  0.3830 -0.3387  0.8549
  573MOL0     C77275   1.320   5.042   6.062 -1.0918  0.6643 -0.3295
  573MOL0     C77276   1.183   5.038   6.093  0.4195  0.0293  0.6697
  573MOL0     C77277   1.135   5.079   6.219  0.3895 -0.5103 -0.6690
  573MOL0     O77278   1.007   5.073   6.267  0.5523 -0.0214  0.1158
  573MOL0     C77279   0.892   5.060   6.184 -0.2121  0.3438 -0.4762
  573MOL0     C77280   0.767   5.087   6.267 -0.4420 -0.3800  0.7288
  573MOL0     C77281   0.641   5.083   6.183 -0.2046  0.1136 -0.5500
  573MOL0     C77282   0.516   5.128   6.265  0.6559  0.3447  0.8318
  573MOL0     C77283   0.392   5.106   6.187 -0.2972  0.4592 -0.5577
  573MOL0     C77284   0.280   5.100   6.130  0.4788 -0.3392 -0.0808
  573MOL0     C77285   1.230   5.104   6.323 -0.6054  0.1617  0.2310
  573MOL0     C77286   1.368   5.095   6.297 -0.0369 -0.0610  0.1971
  573MOL0     C77287   1.465   5.105   6.411  0.1822  0.1927 -0.9937
  573MOL0     H77288   1.826   5.005   6.339 -0.7107  1.0629 -0.1607
  573MOL0     H77289   2.068   5.015   6.301 -0.3794 -2.1069 -0.7537
  573MOL0     H77290   2.214   5.305   6.025  3.1666  2.6078 -1.1664
  573MOL0     H77291   2.293   5.269   6.180  3.3819 -1.6397  0.0016
  573MOL0     H77292   2.462   5.272   6.011  1.1853 -1.3442  0.3607
  573MOL0     H77293   2.368   5.175   5.904 -1.1893  1.1268  0.3279
  573MOL0     H77294   2.567   5.044   6.017  0.1988  2.8338 -0.6703
  573MOL0     H77295   2.402   4.980   6.057  2.0297 -1.1459 -1.6348
  573MOL0     H77296   2.419   5.101   6.267 -1.1568  0.2824 -3.5424
  573MOL0     H77297   2.554   4.989   6.249 -1.6962 -0.1335  0.1511
  573MOL0     H77298   2.568   5.280   6.229  0.2869 -0.4733 -0.3751
  573MOL0     H77299   2.636   5.174   6.349 -0.3739 -2.7447 -0.6309
  573MOL0     H77300   2.792   5.073   6.160 -0.6676 -0.7519  0.2438
  573MOL0     H77301   2.721   5.178   6.058  0.9983 -3.0248 -0.2800
  573MOL0     H77302   2.773   5.367   6.247 -2.6391 -1.7036 -0.5447
  573MOL0     H77303   2.912   5.312   6.149  0.0371 -2.0139 -1.2005
  573MOL0     H77304   2.996   5.303   6.374  1.8314 -1.8263 -0.0672
  573MOL0     H77305   2.848   5.210   6.423 -0.0981 -0.7576 -1.4438
  573MOL0     H77306   2.861   4.937   6.399 -1.0668  1.1283 -3.2967
  573MOL0     H77307   3.183   4.729   6.444 -0.3703 -1.4014 -0.7711
  573MOL0     H77308   3.013   4.721   6.490 -0.0087 -0.7813 -0.9887
  573MOL0     H77309   3.078   4.548   6.329  2.9800 -0.1082 -1.2905
  573MOL0     H77310   2.948   4.653   6.269 -0.4421  3.8434  1.4757
  573MOL0     H77311   3.089   4.750   6.107 -0.0345  0.2542 -0.4693
  573MOL0     H77312   3.120   4.586   6.098 -0.9026  1.8268 -1.4116
  573MOL0     H77313   3.315   4.769   6.254 -0.5563  0.1857 -1.1062
  573MOL0     H77314   3.338   4.689   6.100 -1.8198 -0.5083 -1.2469
  573MOL0     H77315   3.529   4.764   6.228  0.5060  1.4852  3.7558
  573MOL0     H77316   3.773   4.743   6.270  0.1974 -1.2318 -0.8798
  573MOL0     H77317   4.151   4.797   6.262 -1.4276 -0.6196  1.0624
  573MOL0     H77318   4.400   4.804   6.272 -0.7283 -0.3221 -0.9237
  573MOL0     H77319   4.650   4.593   6.551 -1.4907 -2.1020  0.5218
  573MOL0     H77320   4.620   4.453   6.435  1.7957 -0.0310 -1.4252
  573MOL0     H77321   4.860   4.507   6.457  2.5145  0.9714 -2.4661
  573MOL0     H77322   4.779   4.502   6.305 -0.6954 -2.4788  1.6721
  573MOL0     H77323   4.934   4.699   6.315  0.8487 -4.4703  2.3724
  573MOL0     H77324   4.762   4.750   6.298  1.0841 -1.2153 -2.0723
  573MOL0     H77325   4.939   4.791   6.552 -0.0861 -1.4075 -0.5659
  573MOL0     H77326   4.763   4.798   6.556  0.2797 -0.4014 -0.2067
  573MOL0     H77327   4.858   5.020   6.522  2.2225 -1.3395  1.2961
  573MOL0     H77328   4.766   4.974   6.374 -0.3640 -0.7422  1.1887
  573MOL0     H77329   5.070   4.970   6.419  0.2420 -0.1265  0.2525
  573MOL0     H77330   4.989   4.931   6.265  3.0492 -0.8761  1.7006
  573MOL0     H77331   4.993   5.188   6.417 -0.8676 -2.0689  1.3839
  573MOL0     H77332   4.875   5.179   6.294  0.6573 -1.9313 -0.8816
  573MOL0     H77333   5.165   5.134   6.226  2.3939  2.6230 -2.3173
  573MOL0     H77334   5.044   5.182   6.110 -1.7677 -1.1635  0.3474
  573MOL0     H77335   4.408   4.413   6.448  0.9987 -0.4125 -0.5886
  573MOL0     H77336   4.160   4.392   6.423  0.1257  0.1877  1.5813
  573MOL0     H77337   3.698   4.343   6.430  0.3970 -0.3085 -0.3022
  573MOL0     H77338   3.462   4.369   6.377  0.1268 -0.5199  0.3523
  573MOL0     H77339   2.002   5.225   5.937  0.9549 -1.2739 -0.2200
  573MOL0     H77340   1.766   5.232   5.970  0.5446 -0.7246 -0.8166
  573MOL0     H77341   1.351   5.007   5.964 -0.0089  0.5962  0.0238
  573MOL0     H77342   1.118   5.009   6.011  1.2850 -4.0775  1.2484
  573MOL0     H77343   0.885   4.957   6.149 -0.5863 -0.2222  1.1796
  573MOL0     H77344   0.888   5.130   6.099 -0.6943  0.4126 -0.4008
  573MOL0     H77345   0.770   5.179   6.325 -0.3344 -0.5312  0.9637
  573MOL0     H77346   0.766   5.005   6.340  0.6883 -2.6227 -1.6058
  573MOL0     H77347   0.623   4.986   6.134 -1.6067  0.1512 -0.1585
  573MOL0     H77348   0.654   5.159   6.105 -1.5542 -0.3153 -1.2236
  573MOL0     H77349   0.513   5.066   6.355  2.5799  0.4472  1.0065
  573MOL0     H77350   0.532   5.234   6.290  3.0408  0.5339 -1.1040
  573MOL0     H77351   0.179   5.112   6.098 -0.1155  1.6703  2.2973
  573MOL0     H77352   1.184   5.132   6.418  0.5500  3.6528 -0.0912
  573MOL0     H77353   1.418   5.103   6.509  0.3445  3.0204 -0.7847
  573MOL0     H77354   1.560   5.050   6.411  0.0405 -0.5409  4.1078
  573MOL0     H77355   1.505   5.206   6.401 -1.7760  1.1981  0.6430
  574MOL0     O77356   3.322   1.218   6.286  0.3305 -0.1098  0.4569
  574MOL0     C77357   3.289   1.316   6.218  0.0508  0.0593 -0.5882
  574MOL0     O77358   3.362   1.369   6.118  0.2491 -0.2051  0.2463
  574MOL0     C77359   3.495   1.323   6.105  0.4267 -0.2135  0.5250
  574MOL0     C77360   3.588   1.419   6.125 -0.0987  0.4375  0.8201
  574MOL0     C77361   3.725   1.384   6.106 -0.1523 -0.0030 -0.6980
  574MOL0     C77362   3.762   1.260   6.052  0.0356 -0.6576  0.2594
  574MOL0     O77363   3.899   1.242   6.040  0.2675  0.2711  0.0753
  574MOL0     C77364   3.939   1.127   5.971 -0.0473  0.3007 -0.0252
  574MOL0     C77365   4.097   1.124   5.959  0.2776 -0.2560  0.4410
  574MOL0     C77366   4.172   1.105   6.089  0.6958 -0.0525  0.1949
  574MOL0     C77367   4.267   0.984   6.077  0.5209 -0.3691  0.4018
  574MOL0     C77368   4.378   0.990   6.187  0.9235 -0.8839  0.9280
  574MOL0     C77369   4.433   0.847   6.211  0.5152 -0.3994  0.1946
  574MOL0     C77370   4.573   0.843   6.285 -0.5921 -0.2880 -0.0947
  574MOL0     C77371   4.634   0.704   6.303 -0.2443 -0.2317 -0.0585
  574MOL0     N77372   4.770   0.713   6.361  0.1038  0.4052  0.9967
  574MOL0     C77373   4.811   0.657   6.479  0.0280  0.8886  0.8573
  574MOL0     C77374   4.947   0.689   6.475 -0.2793 -0.2599  0.0091
  574MOL0     C77375   5.041   0.662   6.586  0.2958 -0.1153 -0.4545
  574MOL0     C77376   5.016   0.766   6.702 -0.0101  0.1219 -0.0776
  574MOL0     C77377   5.085   0.904   6.675  0.4276 -0.3048 -0.4714
  574MOL0     C77378   5.240   0.901   6.679 -0.1175 -0.2249  0.3048
  574MOL0     O77379   5.291   1.031   6.726 -0.1005  0.2909 -0.7752
  574MOL0     C77380   5.343   1.043   6.849 -0.3464  0.4244  0.3501
  574MOL0     C77381   5.334   0.943   6.949 -0.0177  0.0511  0.6666
  574MOL0     C77382   5.396   0.967   7.072  0.4644  0.7007  0.3919
  574MOL0     C77383   5.469   1.084   7.097 -0.1945 -0.7546 -0.0430
  574MOL0     C77384   5.537   1.115   7.228 -0.3113  0.5492 -0.2149
  574MOL0     O77385   5.629   1.210   7.226 -0.1719 -0.1125 -1.2575
  574MOL0     C77386   5.701   1.222   7.350  0.1383 -0.6483  0.1274
  574MOL0     C77387   5.670   1.321   7.438  0.0138 -0.0414 -0.7486
  574MOL0     C77388   5.728   1.313   7.567  0.1644 -0.5717 -0.7805
  574MOL0     C77389   5.822   1.220   7.594  0.0128  0.4010 -0.5738
  574MOL0     O77390   5.883   1.223   7.717  0.3435  0.4852  0.4470
  574MOL0     C77391   5.801   1.202   7.830 -0.5123 -0.1844  0.3623
  574MOL0     C77392   5.878   1.267   7.944  0.2621 -0.9858 -0.3912
  574MOL0     C77393   5.902   1.420   7.934 -0.0420 -0.2577 -0.2005
  574MOL0     C77394   5.992   1.460   8.047  0.0016  0.1650 -0.7453
  574MOL0     C77395   6.007   1.607   8.073 -0.0110  0.0539  0.7076
  574MOL0     C77396   6.105   1.673   7.965 -1.1493  0.4209  0.3252
  574MOL0     C77397   6.197   1.789   8.015 -0.3604  0.4800 -0.0894
  574MOL0     C77398   6.117   1.907   8.063 -0.6519 -0.5591  0.3493
  574MOL0    Cl77399   6.009   1.960   7.938 -0.2688  0.1859  0.1751
  574MOL0     C77400   5.870   1.137   7.494 -0.2422 -0.3140  0.5483
  574MOL0     C77401   5.804   1.132   7.370  0.0697  0.4906  0.2461
  574MOL0     O77402   5.513   1.038   7.321  0.4022  0.0108 -0.0150
  574MOL0     C77403   5.471   1.183   6.997  0.7399  0.4722  0.4326
  574MOL0     C77404   5.409   1.164   6.882 -0.2210 -0.0443  0.3538
  574MOL0     N77405   4.985   0.746   6.357 -0.5331  0.1228 -1.1000
  574MOL0     N77406   4.877   0.750   6.286  0.8609 -1.3912  0.7635
  574MOL0     C77407   3.663   1.163   6.040 -0.2312 -0.0141  0.2789
  574MOL0     C77408   3.531   1.192   6.075  0.5647 -0.2752  0.2533
  574MOL0     C77409   3.160   1.380   6.251  0.1772  0.1898 -0.4365
  574MOL0     C77410   3.120   1.400   6.385 -0.3034 -0.2948 -0.2893
  574MOL0     C77411   3.006   1.465   6.423 -0.0596  1.0151 -0.1380
  574MOL0     C77412   2.928   1.524   6.333  0.6379  0.4259  0.3501
  574MOL0     O77413   2.819   1.588   6.395 -0.3788  0.3616 -0.2375
  574MOL0     C77414   2.718   1.654   6.318 -0.4786  0.3696  0.9180
  574MOL0     C77415   2.594   1.645   6.398  0.4107 -0.1288 -0.3029
  574MOL0     C77416   2.504   1.529   6.377  0.5278 -0.1864  0.1145
  574MOL0     C77417   2.553   1.393   6.428 -0.7317  0.1167 -0.6313
  574MOL0     C77418   2.558   1.392   6.575 -1.1186  0.2240  0.0821
  574MOL0     C77419   2.541   1.406   6.698  0.2430  0.4569 -0.1515
  574MOL0     C77420   2.951   1.498   6.197  0.5500 -0.1378  0.0316
  574MOL0     C77421   3.064   1.426   6.156 -0.0934  0.4272  0.4040
  574MOL0     C77422   3.091   1.392   6.009 -0.0448 -0.1810 -1.3238
  574MOL0     H77423   3.566   1.510   6.178 -3.8025 -1.0883  2.2247
  574MOL0     H77424   3.799   1.463   6.115 -0.7756  0.5348 -0.2014
  574MOL0     H77425   3.905   1.033   6.017  0.8320  0.7622  1.6574
  574MOL0     H77426   3.897   1.133   5.871 -0.2070  0.2939  0.0416
  574MOL0     H77427   4.115   1.226   5.924  0.4353  0.5519  2.6610
  574MOL0     H77428   4.127   1.058   5.878 -1.5321  1.0582 -1.3867
  574MOL0     H77429   4.097   1.073   6.162  2.1422  1.2108  2.3186
  574MOL0     H77430   4.217   1.195   6.131 -0.1060  0.6361 -0.4010
  574MOL0     H77431   4.205   0.894   6.087 -2.0084  1.2505  0.1076
  574MOL0     H77432   4.298   0.968   5.974 -4.3188 -2.3277 -1.0449
  574MOL0     H77433   4.458   1.054   6.149  0.1998 -0.2295  0.4907
  574MOL0     H77434   4.337   1.035   6.278 -3.8905  0.3554 -1.5593
  574MOL0     H77435   4.358   0.786   6.263 -1.8004 -0.7222 -3.2402
  574MOL0     H77436   4.447   0.807   6.111 -0.8954 -2.2380  0.6772
  574MOL0     H77437   4.574   0.890   6.384  1.0565 -1.1818  0.3468
  574MOL0     H77438   4.642   0.909   6.232 -2.8056  0.7646 -1.8427
  574MOL0     H77439   4.577   0.650   6.379  1.3207 -1.6403  0.1824
  574MOL0     H77440   4.642   0.638   6.216  3.4299  0.8480 -0.7174
  574MOL0     H77441   4.742   0.610   6.548 -0.6452  1.2186  0.4189
  574MOL0     H77442   5.021   0.563   6.629  1.6768  0.2613  1.1419
  574MOL0     H77443   5.143   0.660   6.546 -0.1866  2.0361 -1.9841
  574MOL0     H77444   4.910   0.792   6.706  0.1094  1.0594 -1.9233
  574MOL0     H77445   5.055   0.724   6.795  3.3254 -0.2365 -1.4923
  574MOL0     H77446   5.052   0.965   6.759  0.0220 -0.5494 -0.4522
  574MOL0     H77447   5.040   0.952   6.587 -2.3122  1.8846  1.9596
  574MOL0     H77448   5.286   0.869   6.586  0.0125 -5.0981  1.7966
  574MOL0     H77449   5.261   0.816   6.745  5.2977 -1.2228 -2.1985
  574MOL0     H77450   5.276   0.852   6.952  0.2307 -0.1105  0.5851
  574MOL0     H77451   5.396   0.893   7.152  2.5748  0.1834 -0.0420
  574MOL0     H77452   5.597   1.398   7.417  0.2282 -0.4450 -3.3368
  574MOL0     H77453   5.706   1.386   7.644 -0.9507 -3.3275  1.7084
  574MOL0     H77454   5.704   1.249   7.813 -1.4412 -2.3645 -0.6260
  574MOL0     H77455   5.786   1.096   7.849  0.7101 -0.1761  1.5837
  574MOL0     H77456   5.820   1.260   8.037 -1.4487  0.1116 -1.3302
  574MOL0     H77457   5.975   1.217   7.949 -0.0820 -1.9470 -2.6032
  574MOL0     H77458   5.948   1.437   7.837  1.3585 -0.2667  0.4316
  574MOL0     H77459   5.809   1.478   7.934  0.0795 -0.0049 -2.2373
  574MOL0     H77460   6.090   1.419   8.020  1.0035  2.7051 -1.1773
  574MOL0     H77461   5.962   1.400   8.134 -0.6923  0.9112 -0.4616
  574MOL0     H77462   6.046   1.628   8.173 -0.0233  2.2902  0.2772
  574MOL0     H77463   5.912   1.661   8.073  0.0055  0.1105 -0.4559
  574MOL0     H77464   6.175   1.593   7.939 -2.0146  0.1136 -1.1908
  574MOL0     H77465   6.059   1.697   7.868  2.0789  1.1331 -1.1778
  574MOL0     H77466   6.262   1.818   7.933  1.2957 -0.9093  0.6560
  574MOL0     H77467   6.258   1.751   8.098 -0.5577 -1.4497 -0.7696
  574MOL0     H77468   6.063   1.872   8.152  0.1138 -0.2001  0.9647
  574MOL0     H77469   6.189   1.986   8.086 -0.5667 -1.0901  2.0037
  574MOL0     H77470   5.958   1.076   7.515  0.1388 -0.4032 -1.1948
  574MOL0     H77471   5.831   1.060   7.293  0.0573 -0.2040  0.8704
  574MOL0     H77472   5.513   1.282   7.008  2.0595 -0.0258 -0.0184
  574MOL0     H77473   5.433   1.237   6.805  1.1154 -0.7892  0.0313
  574MOL0     H77474   3.692   1.065   6.005 -0.2678 -0.1790  0.7097
  574MOL0     H77475   3.461   1.117   6.041  1.0295 -0.0874 -1.1547
  574MOL0     H77476   3.188   1.357   6.458 -2.4903  0.3954  2.3009
  574MOL0     H77477   2.971   1.465   6.526 -0.5610 -0.3319 -0.2892
  574MOL0     H77478   2.703   1.607   6.221  1.2306 -0.5343  1.0531
  574MOL0     H77479   2.756   1.755   6.298  1.4830 -0.1639  1.7134
  574MOL0     H77480   2.532   1.734   6.383 -2.3405 -1.6228  1.3427
  574MOL0     H77481   2.631   1.652   6.501 -1.4815  5.1610  0.3393
  574MOL0     H77482   2.490   1.518   6.269 -0.2434  1.2364  0.0483
  574MOL0     H77483   2.412   1.564   6.424  0.7426  1.9368 -0.9066
  574MOL0     H77484   2.495   1.303   6.406 -0.3270 -0.4162  0.3983
  574MOL0     H77485   2.657   1.375   6.398 -0.1611  1.2899  0.5508
  574MOL0     H77486   2.522   1.416   6.803 -2.1068 -2.9349 -0.0797
  574MOL0     H77487   2.881   1.538   6.124 -0.1675 -0.9424  0.2634
  574MOL0     H77488   3.126   1.290   5.990  2.9032  0.3712  0.4938
  574MOL0     H77489   3.000   1.401   5.948 -0.0008 -0.5798 -1.4554
  574MOL0     H77490   3.172   1.455   5.971  0.6858 -1.4884 -1.9917
  575MOL0     O77491   5.710   2.615   1.414  0.4089 -0.1091 -0.3959
  575MOL0     C77492   5.679   2.500   1.456  0.2417  0.2228  0.0609
  575MOL0     O77493   5.757   2.424   1.533 -0.2148 -0.1015  0.2255
  575MOL0     C77494   5.893   2.450   1.551  0.5674  0.4437  0.4134
  575MOL0     C77495   5.985   2.484   1.449 -0.0124 -0.4329  0.9203
  575MOL0     C77496   6.119   2.512   1.477  0.0555  0.3382  0.2583
  575MOL0     C77497   6.156   2.520   1.608  0.6072 -0.9770 -0.1305
  575MOL0     O77498   6.282   2.548   1.658 -0.1290 -0.8510 -0.1941
  575MOL0     C77499   6.382   2.566   1.565  0.2702  0.3892  0.2663
  575MOL0     C77500   6.503   2.625   1.632  0.1024  0.8099  1.1334
  575MOL0     C77501   6.635   2.606   1.547 -0.1508  0.0031 -0.5594
  575MOL0     C77502   6.668   2.719   1.451  0.3097  0.9500 -0.0420
  575MOL0     C77503   6.811   2.705   1.391  0.4341  0.4601 -0.2534
  575MOL0     C77504   6.923   2.745   1.487 -0.5342 -0.5572  0.1825
  575MOL0     C77505   7.051   2.717   1.417 -0.2128 -0.3534  0.1214
  575MOL0     C77506   7.175   2.733   1.507 -0.2938  0.0110 -0.3075
  575MOL0     N77507   7.306   2.710   1.447  0.7420  0.1259 -0.2635
  575MOL0     C77508   7.355   2.585   1.431  0.0905 -0.4848 -0.1457
  575MOL0     C77509   7.472   2.603   1.356 -0.2371  0.8993  0.1709
  575MOL0     C77510   7.556   2.496   1.296 -0.0461 -0.8877 -0.3082
  575MOL0     C77511   7.509   2.469   1.150  0.0219 -0.4334 -0.0779
  575MOL0     C77512   7.620   2.406   1.065  0.3447 -0.9155 -0.3353
  575MOL0     C77513   7.582   2.378   0.916  0.1527  0.1246 -0.3956
  575MOL0     O77514   7.677   2.274   0.855 -0.1315 -0.3894  0.0726
  575MOL0     C77515   7.802   2.312   0.810  0.1448  0.5992 -0.0263
  575MOL0     C77516   7.861   2.433   0.818 -0.1646  0.4039  0.1759
  575MOL0     C77517   7.987   2.464   0.765  0.6531  0.9386 -0.8072
  575MOL0     C77518   8.050   2.366   0.682 -0.6062 -0.3946 -0.4705
  575MOL0     C77519   8.170   2.399   0.599 -0.0243  0.5338  0.0728
  575MOL0     O77520   8.227   2.294   0.533  0.5904 -0.2647 -0.1490
  575MOL0     C77521   8.350   2.305   0.480 -0.8792  0.8851  0.6319
  575MOL0     C77522   8.390   2.405   0.396 -0.9222  0.9078 -0.4440
  575MOL0     C77523   8.521   2.409   0.343  0.3340  0.2483  0.3519
  575MOL0     C77524   8.613   2.310   0.379 -0.1497 -0.3770  0.4171
  575MOL0     O77525   8.745   2.299   0.349  0.4575 -0.1178  0.4117
  575MOL0     C77526   8.797   2.406   0.271  0.0154 -0.0207  0.0834
  575MOL0     C77527   8.940   2.375   0.219 -0.6770 -0.2577 -0.2941
  575MOL0     C77528   9.048   2.375   0.322  0.2662 -0.5594  0.8471
  575MOL0     C77529   9.084   2.514   0.374  0.1227  0.6896  0.3994
  575MOL0     C77530   9.167   2.507   0.497 -0.4877  0.2929 -0.1325
  575MOL0     C77531   9.294   2.419   0.490  0.5488  0.1145  0.2758
  575MOL0     C77532   9.417   2.487   0.432 -0.0989  0.2574 -0.0405
  575MOL0     C77533   9.416   2.535   0.285  0.3786  0.2514  0.2147
  575MOL0    Cl77534   9.576   2.577   0.232  0.0391 -0.2257  0.0981
  575MOL0     C77535   8.567   2.207   0.469  0.2228 -0.5827  0.4173
  575MOL0     C77536   8.441   2.213   0.528  0.3303  0.3650 -0.1889
  575MOL0     O77537   8.202   2.515   0.604  0.0138  0.2046  0.5264
  575MOL0     C77538   7.996   2.233   0.680 -0.4167 -0.4141  0.1161
  575MOL0     C77539   7.876   2.210   0.741  0.4659  0.0117 -0.1836
  575MOL0     N77540   7.493   2.739   1.344  0.0950 -0.2109  0.0995
  575MOL0     N77541   7.392   2.796   1.397  0.5545 -0.2977  0.3973
  575MOL0     C77542   6.073   2.477   1.708 -0.3244 -0.2067  0.3239
  575MOL0     C77543   5.937   2.454   1.683 -0.0057 -0.4078  0.9493
  575MOL0     C77544   5.536   2.451   1.414  0.5576  0.2828 -0.2670
  575MOL0     C77545   5.460   2.539   1.345  0.0453 -0.3647  0.1487
  575MOL0     C77546   5.329   2.509   1.300  0.0468 -1.1111 -0.2367
  575MOL0     C77547   5.276   2.386   1.315 -0.2260  0.7489  0.0621
  575MOL0     O77548   5.158   2.367   1.248  0.2656  0.3141  0.5843
  575MOL0     C77549   5.152   2.253   1.163  0.6172  0.8839  0.2587
  575MOL0     C77550   5.241   2.277   1.039 -0.0447 -0.4823 -0.2160
  575MOL0     C77551   5.206   2.398   0.947 -0.1068  0.2022 -0.4558
  575MOL0     C77552   5.316   2.407   0.834  0.2305  0.5803  0.3969
  575MOL0     C77553   5.410   2.517   0.864 -0.0143 -0.1953  0.0573
  575MOL0     C77554   5.488   2.603   0.896 -0.1778 -0.0330  0.7527
  575MOL0     C77555   5.344   2.294   1.405  0.0916 -0.4338 -0.2896
  575MOL0     C77556   5.469   2.325   1.456 -0.1826  0.0825  0.0162
  575MOL0     C77557   5.533   2.224   1.560  0.5644 -1.1487  0.9602
  575MOL0     H77558   5.947   2.483   1.348 -2.4226  0.8832  1.7220
  575MOL0     H77559   6.172   2.521   1.382  0.5184 -2.3474  0.1885
  575MOL0     H77560   6.418   2.474   1.518  2.5945  2.4718 -2.3912
  575MOL0     H77561   6.351   2.634   1.485  1.9075 -0.7497 -1.4031
  575MOL0     H77562   6.513   2.565   1.724 -0.5139 -0.1584  0.5873
  575MOL0     H77563   6.492   2.729   1.665 -2.7138  0.2702  2.1529
  575MOL0     H77564   6.620   2.510   1.495 -0.6397 -0.1792 -0.0862
  575MOL0     H77565   6.719   2.595   1.616  0.3272  0.4412 -1.0664
  575MOL0     H77566   6.604   2.707   1.364  0.4464 -0.9420  0.0610
  575MOL0     H77567   6.653   2.811   1.508  1.0066  0.7060  0.5641
  575MOL0     H77568   6.811   2.606   1.346 -2.9952 -0.9108  2.3385
  575MOL0     H77569   6.827   2.773   1.307  1.4778  0.7449  0.1521
  575MOL0     H77570   6.920   2.853   1.508  1.8594 -0.6421  1.2868
  575MOL0     H77571   6.913   2.689   1.580 -0.4502 -1.4676 -0.3434
  575MOL0     H77572   7.067   2.779   1.328 -0.2877 -1.7203 -0.8716
  575MOL0     H77573   7.050   2.616   1.374  0.6454  1.3721 -4.5150
  575MOL0     H77574   7.173   2.832   1.554 -3.8953  0.0383 -0.2750
  575MOL0     H77575   7.163   2.649   1.577 -1.0806 -1.9010 -2.6063
  575MOL0     H77576   7.310   2.490   1.460  3.4307 -1.6577  1.8621
  575MOL0     H77577   7.659   2.533   1.285 -0.6372  0.6227 -1.0088
  575MOL0     H77578   7.565   2.413   1.365  0.2734 -1.4984 -1.0668
  575MOL0     H77579   7.422   2.404   1.139 -0.9562  0.4831  1.8365
  575MOL0     H77580   7.489   2.567   1.104  3.4575 -0.4733 -2.0578
  575MOL0     H77581   7.642   2.309   1.111  0.7349 -1.9633 -2.5944
  575MOL0     H77582   7.707   2.472   1.074 -1.4493  1.6267 -0.7806
  575MOL0     H77583   7.576   2.471   0.859  0.0342  0.4905  0.2023
  575MOL0     H77584   7.478   2.344   0.912  0.5538 -1.2244  0.0847
  575MOL0     H77585   7.803   2.515   0.860 -0.4424 -0.5102  1.6493
  575MOL0     H77586   7.999   2.571   0.778 -3.2402  1.3333  1.0164
  575MOL0     H77587   8.320   2.487   0.383 -1.5746  0.9532  2.5062
  575MOL0     H77588   8.553   2.500   0.295 -2.5068  0.1935 -1.9260
  575MOL0     H77589   8.725   2.428   0.192 -0.8053 -1.2061  0.4715
  575MOL0     H77590   8.813   2.498   0.328  1.5657 -1.2877  1.8172
  575MOL0     H77591   8.935   2.271   0.185  1.0369 -0.5696  0.3211
  575MOL0     H77592   8.964   2.442   0.136 -3.9131  2.1136  0.4871
  575MOL0     H77593   9.024   2.305   0.404  1.5457 -0.1232  1.6180
  575MOL0     H77594   9.132   2.329   0.271 -0.2268  1.2009 -1.7234
  575MOL0     H77595   8.996   2.578   0.385  1.2663  2.5893 -0.8532
  575MOL0     H77596   9.145   2.562   0.297  2.4589 -4.6317 -1.5403
  575MOL0     H77597   9.104   2.460   0.574  0.9149 -1.7653 -0.1672
  575MOL0     H77598   9.195   2.607   0.530  0.3544  0.2974 -0.8229
  575MOL0     H77599   9.325   2.412   0.594 -1.2204 -0.3077  0.8195
  575MOL0     H77600   9.277   2.314   0.463 -4.1301 -0.3152  3.6493
  575MOL0     H77601   9.511   2.434   0.452  0.1265  1.6531  3.0544
  575MOL0     H77602   9.427   2.579   0.490 -0.3455  1.6974 -2.1319
  575MOL0     H77603   9.376   2.452   0.226 -2.6583  0.2385  2.0439
  575MOL0     H77604   9.352   2.624   0.284  1.4329  1.0293 -0.0829
  575MOL0     H77605   8.627   2.121   0.496 -1.3633 -2.6426 -2.1685
  575MOL0     H77606   8.402   2.141   0.599 -1.3829  1.8190  0.4385
  575MOL0     H77607   8.043   2.154   0.622 -0.9540  0.2356 -1.2364
  575MOL0     H77608   7.832   2.115   0.711  2.8657 -1.7911  1.5708
  575MOL0     H77609   6.110   2.477   1.810 -0.4031  1.9607  0.4030
  575MOL0     H77610   5.871   2.440   1.768 -0.0021  2.1866  1.4507
  575MOL0     H77611   5.500   2.638   1.326  3.2184 -1.8198 -1.6098
  575MOL0     H77612   5.279   2.588   1.244  1.9919 -0.2850 -0.9142
  575MOL0     H77613   5.047   2.228   1.141  0.9273 -1.4912  1.2120
  575MOL0     H77614   5.184   2.167   1.221 -2.8641 -0.0911  0.9750
  575MOL0     H77615   5.237   2.184   0.982  0.8642 -1.4802  1.3053
  575MOL0     H77616   5.344   2.293   1.070 -0.5567 -1.0362  1.9338
  575MOL0     H77617   5.223   2.475   1.023 -0.7677 -0.5154  0.4384
  575MOL0     H77618   5.104   2.385   0.911 -1.6003  0.2866  3.2814
  575MOL0     H77619   5.377   2.317   0.829 -0.4212  0.1966 -1.2509
  575MOL0     H77620   5.278   2.416   0.732 -0.5744  3.7981  0.8440
  575MOL0     H77621   5.562   2.677   0.919  2.2076 -1.6982 -1.1203
  575MOL0     H77622   5.309   2.193   1.426  1.2790 -0.7140  0.5270
  575MOL0     H77623   5.637   2.195   1.540  0.9817 -0.5048  2.1040
  575MOL0     H77624   5.524   2.285   1.650 -0.6013  2.0167 -1.1036
  575MOL0     H77625   5.467   2.139   1.576 -4.5969  2.2440  0.2047
  576MOL0     O77626   1.333   4.295   9.842 -0.3715 -0.1350 -0.4616
  576MOL0     C77627   1.289   4.201   9.903 -1.2362  0.4107 -0.6921
  576MOL0     O77628   1.361   4.122   9.988 -0.2677  0.9993 -0.3930
  576MOL0     C77629   1.496   4.141  10.017 -0.0019 -0.1158  0.4306
  576MOL0     C77630   1.561   4.265  10.038  0.7774  0.2443 -0.2362
  576MOL0     C77631   1.693   4.275  10.064 -0.2781  0.1586 -0.2581
  576MOL0     C77632   1.771   4.160  10.076 -1.2874 -0.1620  0.2183
  576MOL0     O77633   1.906   4.155  10.102  0.2733 -0.4053  0.0814
  576MOL0     C77634   1.959   4.269  10.169 -0.4550 -0.3698  0.7108
  576MOL0     C77635   2.086   4.217  10.235  0.9521  0.4547 -0.2868
  576MOL0     C77636   2.173   4.346  10.274  0.0390  0.2418 -0.2389
  576MOL0     C77637   2.328   4.316  10.270  0.4752  0.3215  0.4273
  576MOL0     C77638   2.363   4.211  10.373 -0.6839 -0.1531 -0.4544
  576MOL0     C77639   2.455   4.109  10.314  0.3197 -0.3979  0.2150
  576MOL0     C77640   2.593   4.152  10.278  0.2868  0.1959 -0.1897
  576MOL0     C77641   2.685   4.046  10.218 -0.0404  0.2513  0.2582
  576MOL0     N77642   2.813   4.107  10.180  0.2564 -0.0400  0.1048
  576MOL0     C77643   2.875   4.213  10.249 -1.4263  0.1274  0.3106
  576MOL0     C77644   2.971   4.258  10.165  0.0141  0.4320 -0.1914
  576MOL0     C77645   3.061   4.381  10.187  0.0760  0.0767  0.0687
  576MOL0     C77646   3.200   4.353  10.273  0.3790  0.3153 -0.0837
  576MOL0     C77647   3.310   4.258  10.212  0.4296 -0.6785  0.1215
  576MOL0     C77648   3.384   4.318  10.097  0.1087 -0.1052  0.2017
  576MOL0     O77649   3.465   4.217  10.034 -0.1115 -0.6342 -0.3605
  576MOL0     C77650   3.574   4.251   9.956  0.4410 -0.1283  0.2047
  576MOL0     C77651   3.610   4.380   9.926  0.0873  0.0156  0.2948
  576MOL0     C77652   3.725   4.401   9.848 -0.5008 -0.7196  0.7372
  576MOL0     C77653   3.806   4.299   9.801  0.7747 -0.6592  0.5122
  576MOL0     C77654   3.928   4.327   9.717  0.2469 -0.1709  0.7776
  576MOL0     O77655   4.003   4.212   9.699  0.1671 -0.8230  0.1544
  576MOL0     C77656   4.126   4.207   9.633 -0.5713 -0.4009  0.4899
  576MOL0     C77657   4.169   4.296   9.526 -0.0509 -0.2490 -0.0025
  576MOL0     C77658   4.295   4.301   9.479  0.5452  0.0252  0.3031
  576MOL0     C77659   4.395   4.215   9.532  0.8579  0.0133  0.7437
  576MOL0     O77660   4.508   4.197   9.463 -0.1171 -0.8201  0.4868
  576MOL0     C77661   4.579   4.069   9.447 -0.2236  0.5708  0.3001
  576MOL0     C77662   4.501   3.967   9.356  0.1419 -0.0766  0.2394
  576MOL0     C77663   4.521   3.997   9.204  0.1888 -0.0838 -1.2028
  576MOL0     C77664   4.458   3.889   9.115  0.5239  0.5494 -0.2781
  576MOL0     C77665   4.544   3.764   9.101 -0.5476 -1.1502 -0.3810
  576MOL0     C77666   4.488   3.684   8.977  0.0221  0.0547  0.1643
  576MOL0     C77667   4.568   3.723   8.844  0.9178  0.7718  0.1354
  576MOL0     C77668   4.482   3.718   8.717 -0.5966 -0.0606 -0.0797
  576MOL0    Cl77669   4.383   3.867   8.716 -0.2398 -0.2585  0.2298
  576MOL0     C77670   4.360   4.133   9.639 -0.0397  0.7097  0.4218
  576MOL0     C77671   4.226   4.124   9.682 -0.0648 -0.5259  0.3775
  576MOL0     O77672   3.958   4.437   9.679  0.3539  0.0617 -0.1590
  576MOL0     C77673   3.780   4.167   9.839  0.5887 -0.4276  0.6019
  576MOL0     C77674   3.664   4.145   9.910 -0.4849  0.4327  0.0843
  576MOL0     N77675   2.963   4.182  10.047 -1.0128 -0.4354 -0.0917
  576MOL0     N77676   2.871   4.090  10.055  0.4271 -0.5908 -1.0558
  576MOL0     C77677   1.714   4.031  10.065 -0.0236 -0.4225  0.8676
  576MOL0     C77678   1.575   4.021  10.037 -0.3910  0.1821 -0.6083
  576MOL0     C77679   1.162   4.144   9.864  0.4279 -0.2056  0.1182
  576MOL0     C77680   1.097   4.197   9.744  0.1470  0.2778  0.3954
  576MOL0     C77681   0.976   4.150   9.702 -0.1352  0.5330 -0.4177
  576MOL0     C77682   0.905   4.057   9.779  0.9247 -0.4805 -0.1089
  576MOL0     O77683   0.774   4.019   9.740 -1.0332  0.4393  1.0865
  576MOL0     C77684   0.745   3.882   9.770  1.0224 -0.5153 -0.0720
  576MOL0     C77685   0.606   3.846   9.720  0.5372  0.0001 -0.4999
  576MOL0     C77686   0.494   3.947   9.762  0.2493  0.1697 -0.5006
  576MOL0     C77687   0.361   3.936   9.683 -0.6167 -0.2485  0.1345
  576MOL0     C77688   0.303   3.807   9.696 -0.6091  0.8913 -0.6307
  576MOL0     C77689   0.257   3.693   9.709 -0.7162 -0.4620 -0.5839
  576MOL0     C77690   0.959   4.010   9.900 -0.3707 -0.6854  0.1510
  576MOL0     C77691   1.087   4.044   9.944 -0.1392  0.5705 -0.5176
  576MOL0     C77692   1.126   3.988  10.080 -0.1615  0.1678 -0.0909
  576MOL0     H77693   1.499   4.354  10.027 -1.1948 -1.1008 -0.4538
  576MOL0     H77694   1.732   4.376  10.070 -1.6460  0.6515  1.0413
  576MOL0     H77695   1.974   4.348  10.093 -2.4211 -0.5969  0.0256
  576MOL0     H77696   1.900   4.323  10.243  3.0205  1.6997  2.2203
  576MOL0     H77697   2.141   4.160  10.161  1.9806  0.7321  0.2496
  576MOL0     H77698   2.051   4.164  10.325 -1.5650 -0.2802 -1.5928
  576MOL0     H77699   2.149   4.388  10.372  3.3538  3.0870 -0.4637
  576MOL0     H77700   2.167   4.425  10.199 -0.8657 -0.2542 -0.6997
  576MOL0     H77701   2.355   4.289  10.167  0.1123  1.7804 -0.0754
  576MOL0     H77702   2.375   4.408  10.304  0.0143  0.6947  0.0617
  576MOL0     H77703   2.416   4.244  10.463  0.0965 -0.7308 -0.6946
  576MOL0     H77704   2.274   4.155  10.405 -1.0266  0.7361  0.1945
  576MOL0     H77705   2.451   4.015  10.369  2.2048 -0.1616  0.8372
  576MOL0     H77706   2.406   4.085  10.219 -1.5702 -0.6667  1.2112
  576MOL0     H77707   2.633   4.203  10.367  1.3523  0.2689 -0.6923
  576MOL0     H77708   2.583   4.225  10.197  0.4256 -0.7098 -1.0369
  576MOL0     H77709   2.700   3.964  10.288  0.9936  0.9316  0.8636
  576MOL0     H77710   2.639   3.994  10.133  2.8582 -5.2989  1.5821
  576MOL0     H77711   2.861   4.244  10.352 -1.1711  1.0636  0.0675
  576MOL0     H77712   3.084   4.431  10.093 -0.4541 -0.7403 -0.5044
  576MOL0     H77713   3.003   4.452  10.247  1.6422  0.6880  0.9394
  576MOL0     H77714   3.246   4.445  10.311  1.2038 -1.0046  2.2847
  576MOL0     H77715   3.166   4.308  10.366 -1.1452  1.9959  0.2257
  576MOL0     H77716   3.271   4.160  10.183 -4.3159  1.3967 -1.5471
  576MOL0     H77717   3.378   4.241  10.296 -0.6101 -1.2347  0.8845
  576MOL0     H77718   3.437   4.403  10.140 -1.6402 -0.4649  3.3475
  576MOL0     H77719   3.307   4.351  10.026 -1.1949  0.2725  1.7465
  576MOL0     H77720   3.557   4.469   9.957  2.1801  2.6878 -3.1025
  576MOL0     H77721   3.759   4.501   9.823 -1.7849 -0.6130 -0.7264
  576MOL0     H77722   4.108   4.377   9.488  0.9149  2.0209  2.8886
  576MOL0     H77723   4.323   4.359   9.391  2.6641  0.4847  1.1979
  576MOL0     H77724   4.677   4.086   9.401 -0.4335  0.7949 -0.0656
  576MOL0     H77725   4.599   4.013   9.539  2.4817 -0.2464 -0.6856
  576MOL0     H77726   4.533   3.863   9.367 -1.5065 -0.7444 -0.8102
  576MOL0     H77727   4.393   3.975   9.374 -0.1636  2.1231 -1.9216
  576MOL0     H77728   4.469   4.090   9.182  0.8401 -0.0051 -2.5081
  576MOL0     H77729   4.628   4.014   9.191  1.0345  0.4300  4.1945
  576MOL0     H77730   4.435   3.929   9.016  3.4725 -1.4313 -1.9282
  576MOL0     H77731   4.357   3.861   9.146  0.9415 -3.7336 -2.1007
  576MOL0     H77732   4.526   3.707   9.193 -3.1266 -1.1712 -0.8416
  576MOL0     H77733   4.650   3.792   9.101 -1.1863  2.3178  4.1198
  576MOL0     H77734   4.513   3.579   8.995  0.3990  0.2072  0.5350
  576MOL0     H77735   4.381   3.705   8.960  0.0224 -0.4080 -0.4316
  576MOL0     H77736   4.640   3.643   8.826  3.4699  2.9408  0.1357
  576MOL0     H77737   4.618   3.818   8.862  1.2393  0.4047  1.2469
  576MOL0     H77738   4.544   3.721   8.626 -1.7239 -2.4811 -0.9986
  576MOL0     H77739   4.415   3.632   8.724  2.0692 -2.1066  3.6524
  576MOL0     H77740   4.439   4.069   9.678  1.4090 -0.6825 -4.1892
  576MOL0     H77741   4.207   4.048   9.757 -3.9685 -0.9721 -0.8588
  576MOL0     H77742   3.841   4.079   9.819  1.0029  0.2042 -1.0566
  576MOL0     H77743   3.652   4.042   9.942  4.9154 -0.6030 -0.3839
  576MOL0     H77744   1.775   3.948  10.099 -0.7215 -1.9505 -1.3841
  576MOL0     H77745   1.539   3.920  10.023 -1.9272  0.1627  2.6502
  576MOL0     H77746   1.138   4.277   9.683 -0.6758 -0.3629 -1.0308
  576MOL0     H77747   0.943   4.198   9.610  3.5053  1.6587 -1.3152
  576MOL0     H77748   0.736   3.866   9.877  0.0812 -2.1861 -0.3729
  576MOL0     H77749   0.824   3.821   9.726  1.4770 -1.9097  2.4818
  576MOL0     H77750   0.564   3.749   9.747 -3.2520  2.0405  2.0482
  576MOL0     H77751   0.619   3.855   9.612  1.3433 -2.0906 -0.6032
  576MOL0     H77752   0.536   4.048   9.762  0.7721  0.0769  3.0264
  576MOL0     H77753   0.482   3.927   9.869 -2.8233 -0.8335 -0.9322
  576MOL0     H77754   0.296   4.021   9.705  0.4406  1.1454 -1.7855
  576MOL0     H77755   0.393   3.944   9.579 -0.8970  0.0175  0.0686
  576MOL0     H77756   0.204   3.600   9.713  0.4354 -1.1223 -0.4047
  576MOL0     H77757   0.900   3.951   9.969 -2.7166  2.2247  0.8598
  576MOL0     H77758   1.232   3.988  10.106 -0.7537 -2.9695  2.9678
  576MOL0     H77759   1.062   4.037  10.153  1.2578  2.7968 -0.4889
  576MOL0     H77760   1.088   3.886  10.078  1.0385 -0.3039  0.4313
  577MOL0     O77761  10.369   8.561   9.771 -0.5814  0.4517 -0.2728
  577MOL0     C77762  10.340   8.660   9.707  0.2142 -0.1056 -1.4477
  577MOL0     O77763  10.428   8.769   9.684  0.6111  0.6792 -0.2936
  577MOL0     C77764  10.544   8.767   9.749 -0.1368 -0.2063 -0.0495
  577MOL0     C77765  10.655   8.693   9.702  0.0904  0.1257 -0.2225
  577MOL0     C77766  10.777   8.727   9.769  0.2162 -1.1741 -0.2933
  577MOL0     C77767  10.784   8.827   9.871 -0.4546  0.2774  0.8860
  577MOL0     O77768  10.900   8.852   9.938  0.1094  0.0529  0.0197
  577MOL0     C77769  10.897   8.900  10.066  0.4745 -0.5080 -0.3678
  577MOL0     C77770  11.046   8.882  10.133 -0.2824  0.0786 -0.3890
  577MOL0     C77771  11.142   8.949  10.037 -0.3970  0.1886  0.3521
  577MOL0     C77772  11.290   8.943  10.086  0.1623  0.3553  0.4379
  577MOL0     C77773  11.383   9.024   9.998 -0.0736  0.7702 -0.2206
  577MOL0     C77774  11.525   8.971  10.027 -0.2060  0.1453  0.5309
  577MOL0     C77775  11.616   9.087   9.989  0.2345  0.2087 -0.6141
  577MOL0     C77776  11.762   9.056  10.013  0.3401 -0.3685 -0.3819
  577MOL0     N77777  11.861   9.158   9.976 -0.0153  0.2389 -0.2428
  577MOL0     C77778  11.871   9.274  10.036  0.2231 -0.8718  0.1152
  577MOL0     C77779  11.994   9.324   9.992  0.1648  0.6846 -0.1425
  577MOL0     C77780  12.029   9.463  10.027 -0.4060 -0.5475  0.5997
  577MOL0     C77781  12.094   9.533   9.906  0.5680 -0.2878 -0.4650
  577MOL0     C77782  12.131   9.683   9.920  0.5219 -0.7119 -1.0431
  577MOL0     C77783  12.243   9.726   9.837 -0.1663 -0.9774  0.0995
  577MOL0     O77784  12.271   9.865   9.865  0.1376  0.5327 -0.0914
  577MOL0     C77785  12.400   9.908   9.846 -0.5742 -0.0808  0.5392
  577MOL0     C77786  12.507   9.834   9.790  0.1658  0.0928  0.1350
  577MOL0     C77787  12.639   9.872   9.807 -0.7141  0.0865  0.7765
  577MOL0     C77788  12.669   9.997   9.861  0.5712  0.0811 -1.0886
  577MOL0     C77789  12.813  10.051   9.855  0.0845  0.6517 -0.7830
  577MOL0     O77790  12.827  10.166   9.915 -0.3384 -0.8399 -0.0341
  577MOL0     C77791  12.958  10.213   9.935 -0.3273 -0.6389 -0.9561
  577MOL0     C77792  13.010  10.304   9.840  0.0307  0.0649  0.1289
  577MOL0     C77793  13.146  10.350   9.859  0.7134 -0.4941  0.8444
  577MOL0     C77794  13.215  10.315   9.963  0.5289  0.5107  0.1477
  577MOL0     O77795  13.343  10.340   9.974 -0.2198 -0.4470 -0.1710
  577MOL0     C77796  13.360  10.418  10.095 -0.0506  0.0681 -0.9146
  577MOL0     C77797  13.487  10.366  10.167 -0.0247 -0.1002  0.8928
  577MOL0     C77798  13.628  10.393  10.115 -0.1778 -1.0277 -0.0590
  577MOL0     C77799  13.739  10.339  10.206  0.2876 -0.2173  0.8459
  577MOL0     C77800  13.871  10.405  10.165  1.1199 -0.8204 -0.5355
  577MOL0     C77801  13.965  10.395  10.282  0.1519 -0.3008 -0.3759
  577MOL0     C77802  14.111  10.451  10.265 -1.3469 -0.0787 -0.7725
  577MOL0     C77803  14.103  10.605  10.274  1.2036  0.5209 -1.0285
  577MOL0    Cl77804  14.269  10.668  10.294 -0.5535  0.3641 -0.1981
  577MOL0     C77805  13.157  10.227  10.056  0.0338 -0.5657  0.2799
  577MOL0     C77806  13.031  10.181  10.045  0.0034  0.3018 -0.4549
  577MOL0     O77807  12.896   9.985   9.789 -0.4869  0.1166  0.2317
  577MOL0     C77808  12.566  10.076   9.917 -0.2561 -0.2251  0.6475
  577MOL0     C77809  12.430  10.038   9.902  0.9041  0.4950  0.4142
  577MOL0     N77810  12.056   9.233   9.908  0.3624  0.3889  0.2496
  577MOL0     N77811  11.974   9.133   9.901  0.7973  0.0363  0.2982
  577MOL0     C77812  10.673   8.900   9.888 -0.2013 -0.1491 -0.3497
  577MOL0     C77813  10.554   8.868   9.837 -0.1121 -0.0811  0.2358
  577MOL0     C77814  10.198   8.686   9.677  0.0132 -0.0919 -0.6829
  577MOL0     C77815  10.152   8.822   9.688 -0.2164  0.3167  0.6456
  577MOL0     C77816  10.025   8.856   9.648  1.0167 -0.5769  0.0661
  577MOL0     C77817   9.937   8.764   9.598 -0.1641 -0.6428  0.3308
  577MOL0     O77818   9.809   8.809   9.590  0.5427 -0.0012 -0.0054
  577MOL0     C77819   9.712   8.734   9.519  0.5027  1.0381  0.7519
  577MOL0     C77820   9.572   8.756   9.569  0.2999 -0.4460  0.5725
  577MOL0     C77821   9.461   8.751   9.468  0.2934 -0.7178 -0.8675
  577MOL0     C77822   9.322   8.775   9.537  0.7459 -0.2329 -0.0683
  577MOL0     C77823   9.294   8.915   9.584 -0.3946 -0.2177  0.3684
  577MOL0     C77824   9.276   9.034   9.625  0.0375  0.8934 -0.3571
  577MOL0     C77825   9.983   8.633   9.581  0.2728  0.0468  0.1079
  577MOL0     C77826  10.112   8.594   9.615 -0.3278 -0.9847 -0.0794
  577MOL0     C77827  10.135   8.440   9.613  0.5071 -0.3356 -1.0559
  577MOL0     H77828  10.659   8.616   9.626 -1.5206  0.9080 -1.1549
  577MOL0     H77829  10.874   8.690   9.736  0.6907 -1.4652  1.3478
  577MOL0     H77830  10.853   9.000  10.074 -1.4389 -1.4031  1.1806
  577MOL0     H77831  10.832   8.844  10.133  2.4328  1.5375  3.6297
  577MOL0     H77832  11.070   8.776  10.145 -5.3647 -1.3171 -0.2742
  577MOL0     H77833  11.044   8.933  10.230  0.3618  2.0512 -1.3497
  577MOL0     H77834  11.116   9.055  10.026 -2.3266 -0.2668  0.2872
  577MOL0     H77835  11.143   8.913   9.933  1.3783 -0.7767  0.6519
  577MOL0     H77836  11.309   8.977  10.188  2.2922  1.5453 -0.2713
  577MOL0     H77837  11.316   8.837  10.086 -2.0143 -0.2884 -1.7993
  577MOL0     H77838  11.357   9.016   9.892 -2.1718 -4.1813  0.4128
  577MOL0     H77839  11.369   9.124  10.040  3.0117  0.5204  1.6971
  577MOL0     H77840  11.535   8.942  10.132  0.5996 -2.6252 -0.2404
  577MOL0     H77841  11.547   8.882   9.969  0.1845 -0.4660  1.5833
  577MOL0     H77842  11.596   9.173  10.052  2.6527 -0.4751  1.2299
  577MOL0     H77843  11.594   9.107   9.883 -1.4511 -0.0250 -0.3328
  577MOL0     H77844  11.774   9.033  10.120  1.2359  2.4995  0.2364
  577MOL0     H77845  11.797   8.960   9.976  2.1173  0.5213 -1.0945
  577MOL0     H77846  11.791   9.319  10.094 -2.5024 -0.5371 -3.5088
  577MOL0     H77847  11.948   9.519  10.074 -1.6908 -2.0984  0.3248
  577MOL0     H77848  12.104   9.459  10.107  1.4083  0.3073 -0.9978
  577MOL0     H77849  12.186   9.477   9.888  1.0079 -0.1036  1.0144
  577MOL0     H77850  12.033   9.512   9.818  0.6099 -2.4483 -0.0358
  577MOL0     H77851  12.162   9.709  10.021  1.4031 -1.0569 -1.2181
  577MOL0     H77852  12.043   9.741   9.892  0.3003 -1.2034 -1.3891
  577MOL0     H77853  12.214   9.722   9.731 -0.3117  1.7458 -0.0316
  577MOL0     H77854  12.325   9.656   9.853 -0.4544 -1.0434  1.3435
  577MOL0     H77855  12.492   9.737   9.743  0.0026 -0.0831  0.5437
  577MOL0     H77856  12.722   9.814   9.769 -0.9749 -0.0971  0.4893
  577MOL0     H77857  12.941  10.335   9.762 -2.0953 -2.7697  0.7129
  577MOL0     H77858  13.190  10.420   9.789 -0.4233 -1.7551 -1.2268
  577MOL0     H77859  13.356  10.527  10.090 -1.4884  0.0561 -0.5162
  577MOL0     H77860  13.287  10.398  10.174  2.5247  0.5771  1.7575
  577MOL0     H77861  13.481  10.400  10.271  0.0566 -1.8007  1.4834
  577MOL0     H77862  13.487  10.256  10.167 -0.1077 -0.1101 -0.5749
  577MOL0     H77863  13.639  10.344  10.017  1.3283 -0.7807 -0.0481
  577MOL0     H77864  13.648  10.500  10.100  2.0064 -1.2984  0.4623
  577MOL0     H77865  13.743  10.231  10.188 -1.3928 -0.4349  1.5836
  577MOL0     H77866  13.716  10.357  10.312  1.0140 -2.1315  1.3640
  577MOL0     H77867  13.856  10.513  10.154 -1.6106 -1.3188 -2.7716
  577MOL0     H77868  13.902  10.371  10.066 -0.3208 -0.1423 -1.2432
  577MOL0     H77869  13.915  10.442  10.367 -2.1838 -1.7250 -0.8810
  577MOL0     H77870  13.975  10.289  10.306 -0.9226 -0.3933 -0.3057
  577MOL0     H77871  14.163  10.409  10.178 -1.3081 -0.8395 -0.3886
  577MOL0     H77872  14.168  10.421  10.354 -0.6435  2.2653 -0.3571
  577MOL0     H77873  14.050  10.646  10.188  0.4165  0.1949 -0.7063
  577MOL0     H77874  14.049  10.649  10.358 -0.5057 -1.9609 -0.7079
  577MOL0     H77875  13.215  10.178  10.134  1.0171  2.3346  1.5221
  577MOL0     H77876  12.969  10.120  10.111 -1.7953  2.4978  0.0514
  577MOL0     H77877  12.587  10.164   9.977 -1.4050  0.2538  0.3688
  577MOL0     H77878  12.342  10.093   9.933 -1.1901  0.0014 -3.9108
  577MOL0     H77879  10.675   8.993   9.944  0.9532  2.5384 -4.4095
  577MOL0     H77880  10.465   8.928   9.851 -0.4844 -0.4186 -0.6010
  577MOL0     H77881  10.214   8.895   9.738 -1.3177 -0.0129  2.5767
  577MOL0     H77882   9.984   8.955   9.664 -0.5524 -0.8971 -1.6912
  577MOL0     H77883   9.732   8.627   9.510 -0.4846  0.8562  0.5579
  577MOL0     H77884   9.709   8.775   9.417  0.6257  1.4482  0.9140
  577MOL0     H77885   9.565   8.859   9.607 -2.6805  0.9208 -3.0364
  577MOL0     H77886   9.534   8.691   9.647 -3.9186  1.6008  0.4954
  577MOL0     H77887   9.466   8.653   9.420  1.6956 -0.7480 -0.7106
  577MOL0     H77888   9.482   8.825   9.390 -0.0092  1.6436  1.1694
  577MOL0     H77889   9.240   8.754   9.468 -1.2602 -1.3713  2.5339
  577MOL0     H77890   9.305   8.706   9.620 -2.8250  1.0228  0.4007
  577MOL0     H77891   9.272   9.133   9.666  2.6405  0.1162  2.1358
  577MOL0     H77892   9.920   8.554   9.542  2.3410 -1.9071  0.5312
  577MOL0     H77893  10.093   8.399   9.521 -0.9061 -0.4469 -0.3769
  577MOL0     H77894  10.242   8.417   9.618  0.5144 -0.1736 -0.3316
  577MOL0     H77895  10.099   8.400   9.708  0.0861  0.0440 -1.0522
  578MOL0     O77896   3.033   9.186   7.564  0.7277 -0.5195 -0.7426
  578MOL0     C77897   3.071   9.289   7.618  0.4511 -0.7442  0.4973
  578MOL0     O77898   3.192   9.344   7.601 -0.5509  0.4527  0.5543
  578MOL0     C77899   3.293   9.293   7.527 -0.0333  0.2603  0.2028
  578MOL0     C77900   3.289   9.187   7.436 -0.0926  0.5826  0.3574
  578MOL0     C77901   3.406   9.154   7.357  0.6470  0.2542 -0.8428
  578MOL0     C77902   3.521   9.220   7.376 -0.3741 -0.3312  0.0334
  578MOL0     O77903   3.635   9.193   7.292  0.2269  0.3923 -0.3375
  578MOL0     C77904   3.671   9.056   7.287 -0.0789 -0.9490 -1.6542
  578MOL0     C77905   3.803   9.025   7.365 -0.2143 -0.7831  0.1066
  578MOL0     C77906   3.912   9.127   7.339  0.3319  0.6227 -0.1394
  578MOL0     C77907   3.950   9.149   7.187 -0.8168 -0.0434 -0.3488
  578MOL0     C77908   4.052   9.261   7.171  0.5376 -0.0885 -0.3946
  578MOL0     C77909   4.008   9.405   7.220 -0.1378  0.1007 -0.3150
  578MOL0     C77910   3.862   9.446   7.219 -0.4358  1.0376 -0.0136
  578MOL0     C77911   3.819   9.479   7.081  0.7182  0.3926  0.4935
  578MOL0     N77912   3.672   9.490   7.063  0.2397  0.0466 -0.0231
  578MOL0     C77913   3.584   9.385   7.056  0.3819  0.7778 -0.6034
  578MOL0     C77914   3.455   9.443   7.054 -0.2448  0.0086  0.3092
  578MOL0     C77915   3.325   9.361   7.024 -0.8761  0.3595  0.4771
  578MOL0     C77916   3.214   9.447   7.071  0.1336 -0.1445 -0.1537
  578MOL0     C77917   3.079   9.379   7.061  0.1354 -0.0505  0.3352
  578MOL0     C77918   3.056   9.250   7.142 -0.4871  0.2478  0.2387
  578MOL0     O77919   2.926   9.193   7.124  0.2826  0.5426  0.2592
  578MOL0     C77920   2.823   9.269   7.178 -0.5720 -0.5781 -0.0868
  578MOL0     C77921   2.718   9.320   7.095 -0.7499 -0.4775 -0.6994
  578MOL0     C77922   2.616   9.401   7.149  0.2759  0.1798  0.0131
  578MOL0     C77923   2.613   9.436   7.281  0.0016  1.1541 -0.5502
  578MOL0     C77924   2.496   9.511   7.347  1.0244 -0.0923  0.4324
  578MOL0     O77925   2.479   9.504   7.481 -0.2001 -0.2700 -0.4625
  578MOL0     C77926   2.370   9.570   7.529  0.6718 -0.3567  0.4624
  578MOL0     C77927   2.390   9.670   7.630 -0.0945  0.4375  0.4750
  578MOL0     C77928   2.286   9.749   7.681 -0.5414  0.5061  0.0228
  578MOL0     C77929   2.151   9.728   7.632  0.1063 -0.0962  0.4635
  578MOL0     O77930   2.065   9.825   7.666  0.1462  0.2813 -0.0917
  578MOL0     C77931   1.923   9.827   7.631  0.1471  0.1661 -0.2845
  578MOL0     C77932   1.842   9.943   7.707 -0.9190  0.0727  0.5663
  578MOL0     C77933   1.916  10.082   7.696 -0.7056 -0.3230 -0.3128
  578MOL0     C77934   1.851  10.180   7.793 -0.6895 -0.6130 -0.6821
  578MOL0     C77935   1.707  10.239   7.756 -0.5589  0.1300  0.0801
  578MOL0     C77936   1.683  10.255   7.602 -0.3638 -0.2745 -0.4196
  578MOL0     C77937   1.582  10.376   7.572  0.1584 -0.0489  0.6974
  578MOL0     C77938   1.558  10.397   7.423  0.1018 -0.2207  0.1279
  578MOL0    Cl77939   1.485  10.258   7.340  0.1023  0.4821 -0.1693
  578MOL0     C77940   2.133   9.642   7.524  0.3835  0.5598 -0.4950
  578MOL0     C77941   2.241   9.562   7.479 -0.3659  1.5059 -0.0979
  578MOL0     O77942   2.431   9.578   7.266  0.8399 -0.1183 -0.2722
  578MOL0     C77943   2.721   9.383   7.363  1.4617  1.1458  0.3082
  578MOL0     C77944   2.821   9.306   7.312  0.1888  0.8898  0.1710
  578MOL0     N77945   3.476   9.577   7.039 -0.1216  0.1687  1.0237
  578MOL0     N77946   3.609   9.608   7.039  0.0973 -0.4029 -0.2045
  578MOL0     C77947   3.527   9.327   7.465 -0.5709 -0.1784 -0.9268
  578MOL0     C77948   3.412   9.369   7.538 -0.2631 -0.9345 -0.6629
  578MOL0     C77949   2.968   9.342   7.707 -0.3732  0.6449  0.9645
  578MOL0     C77950   2.827   9.309   7.688 -0.5977 -0.3600  0.4135
  578MOL0     C77951   2.727   9.371   7.763  0.4607 -0.0690 -0.5087
  578MOL0     C77952   2.758   9.466   7.863  0.5563 -0.8672 -0.1176
  578MOL0     O77953   2.649   9.513   7.943 -0.2563 -0.4419  0.3273
  578MOL0     C77954   2.673   9.620   8.036  0.3958 -0.6300 -0.1184
  578MOL0     C77955   2.544   9.700   8.064 -0.3829 -0.9654 -0.6653
  578MOL0     C77956   2.494   9.779   7.946 -0.0759 -0.5573  0.1604
  578MOL0     C77957   2.570   9.915   7.939  0.6398  1.0174 -0.0825
  578MOL0     C77958   2.488  10.009   7.864  0.6916  0.8252 -0.2154
  578MOL0     C77959   2.412  10.084   7.813  0.5870 -0.7121  0.1824
  578MOL0     C77960   2.884   9.496   7.884 -0.8723 -0.0900  0.6683
  578MOL0     C77961   2.989   9.440   7.809  0.0937 -0.1237  1.2243
  578MOL0     C77962   3.122   9.494   7.846  0.6269 -0.9189 -0.7713
  578MOL0     H77963   3.199   9.128   7.419  1.2422 -1.5013  0.2429
  578MOL0     H77964   3.385   9.072   7.290  0.9146 -1.0967  0.6532
  578MOL0     H77965   3.590   8.995   7.328  0.0799 -1.4376 -2.0493
  578MOL0     H77966   3.667   9.020   7.184  1.3473 -1.5864 -1.5065
  578MOL0     H77967   3.834   8.935   7.313 -0.8429  0.3200 -2.3530
  578MOL0     H77968   3.803   9.003   7.472 -1.2642  1.2091  0.5869
  578MOL0     H77969   3.999   9.080   7.386 -0.0493 -0.5420 -0.5777
  578MOL0     H77970   3.886   9.218   7.394 -0.1709  0.3976 -0.0036
  578MOL0     H77971   3.987   9.051   7.154 -1.9848 -0.7028  0.2445
  578MOL0     H77972   3.857   9.168   7.133 -0.1873  1.8856 -0.8160
  578MOL0     H77973   4.150   9.232   7.207  0.6951 -2.4473 -2.4600
  578MOL0     H77974   4.072   9.263   7.063  2.3319 -1.1177 -0.1079
  578MOL0     H77975   4.052   9.420   7.319  0.6376 -1.6778 -0.3380
  578MOL0     H77976   4.068   9.467   7.153  1.7881 -0.6684  0.5943
  578MOL0     H77977   3.851   9.537   7.279 -2.2907  0.8929 -0.0744
  578MOL0     H77978   3.804   9.361   7.256  2.0196 -1.4603 -1.4534
  578MOL0     H77979   3.866   9.566   7.033 -0.1201 -0.4019 -1.9054
  578MOL0     H77980   3.850   9.402   7.010  1.1048  1.5937 -0.6956
  578MOL0     H77981   3.603   9.278   7.062 -5.2337 -0.4578  0.0778
  578MOL0     H77982   3.331   9.341   6.917  0.3464  0.7047  0.4710
  578MOL0     H77983   3.334   9.267   7.079  0.1306  1.2753  1.9432
  578MOL0     H77984   3.235   9.487   7.170 -1.7228 -0.7297  0.5229
  578MOL0     H77985   3.216   9.537   7.009  0.0807 -0.7005 -0.9766
  578MOL0     H77986   3.064   9.362   6.954  0.3043  1.8777 -0.0414
  578MOL0     H77987   3.003   9.456   7.081  1.9018  2.4552 -1.9184
  578MOL0     H77988   3.072   9.255   7.250 -1.2303 -1.1484  0.4455
  578MOL0     H77989   3.130   9.183   7.096 -0.9901  0.8800 -1.5724
  578MOL0     H77990   2.723   9.285   6.992 -0.4328 -2.8811  0.0749
  578MOL0     H77991   2.532   9.418   7.084 -0.9090  1.1315  1.7190
  578MOL0     H77992   2.491   9.690   7.665 -0.1889  1.1718  0.3516
  578MOL0     H77993   2.304   9.829   7.752 -0.5086 -1.8530  2.8597
  578MOL0     H77994   1.906   9.828   7.523 -1.2262  1.3099 -0.0801
  578MOL0     H77995   1.879   9.730   7.658 -2.4984  1.3065 -0.2022
  578MOL0     H77996   1.743   9.943   7.660 -2.2616  1.7305  3.1157
  578MOL0     H77997   1.826   9.921   7.813 -2.2704 -3.7605 -0.2916
  578MOL0     H77998   2.018  10.061   7.730 -0.5128  0.3330 -0.4788
  578MOL0     H77999   1.916  10.113   7.591  0.3743  1.3255  0.1325
  578MOL0     H78000   1.918  10.265   7.805 -1.0251 -0.4592  0.2171
  578MOL0     H78001   1.847  10.140   7.895  1.7924  2.9285  1.0061
  578MOL0     H78002   1.691  10.333   7.809  1.9962  0.5345  0.2160
  578MOL0     H78003   1.641  10.155   7.779  1.0746 -0.8701  1.2627
  578MOL0     H78004   1.780  10.281   7.559 -0.7880  2.3722  0.0273
  578MOL0     H78005   1.660  10.162   7.549  2.8300  0.6311 -3.8274
  578MOL0     H78006   1.628  10.467   7.613  3.8588 -1.2739 -0.3282
  578MOL0     H78007   1.486  10.354   7.620  0.7367 -0.3466  1.7666
  578MOL0     H78008   1.495  10.484   7.400  1.3983  0.1119 -2.5585
  578MOL0     H78009   1.649  10.418   7.367 -1.2406 -0.2753 -2.2241
  578MOL0     H78010   2.036   9.647   7.475  1.7504  1.1821 -3.3896
  578MOL0     H78011   2.216   9.501   7.393 -0.3022 -0.1825  1.0424
  578MOL0     H78012   2.726   9.401   7.470  3.9411  1.4895  0.2070
  578MOL0     H78013   2.899   9.263   7.374 -2.5335 -0.7255  2.7659
  578MOL0     H78014   3.618   9.382   7.484 -1.5250  1.7306 -1.6349
  578MOL0     H78015   3.422   9.459   7.598  1.3860 -1.2639 -0.3890
  578MOL0     H78016   2.798   9.233   7.616  0.6978 -1.1918  0.7198
  578MOL0     H78017   2.625   9.356   7.729  0.6462 -2.2663 -0.2107
  578MOL0     H78018   2.749   9.687   7.996 -0.9615  1.8352  1.2009
  578MOL0     H78019   2.709   9.577   8.130 -3.3616 -3.2056  0.3918
  578MOL0     H78020   2.569   9.776   8.140 -1.3982 -0.8674 -0.4162
  578MOL0     H78021   2.467   9.636   8.107 -1.0667  0.7046  0.7487
  578MOL0     H78022   2.388   9.806   7.956 -0.3909 -0.7142 -2.2907
  578MOL0     H78023   2.506   9.722   7.854  3.6872  0.3789 -0.0897
  578MOL0     H78024   2.585   9.959   8.038  0.0407 -2.2267  1.5774
  578MOL0     H78025   2.661   9.889   7.884  0.0165 -1.1833 -0.1714
  578MOL0     H78026   2.342  10.146   7.760  0.9151  0.6924  1.3545
  578MOL0     H78027   2.911   9.550   7.974  3.6657 -1.5423  0.4263
  578MOL0     H78028   3.177   9.525   7.756 -0.7191 -1.8532 -1.9588
  578MOL0     H78029   3.114   9.575   7.918 -0.6286 -2.1632  0.5436
  578MOL0     H78030   3.175   9.412   7.895 -0.2476 -2.0899 -1.7431
  579MOL0     O78031   7.419   2.635   3.344 -0.1140 -0.0474 -0.1625
  579MOL0     C78032   7.473   2.635   3.239 -0.0485  1.0002 -0.2595
  579MOL0     O78033   7.575   2.719   3.202  0.7421 -0.5177  0.8792
  579MOL0     C78034   7.611   2.824   3.281  0.3511 -0.2935 -0.4239
  579MOL0     C78035   7.742   2.828   3.311 -0.3251 -0.9766 -0.4310
  579MOL0     C78036   7.788   2.928   3.400  0.9050  0.0131  0.3100
  579MOL0     C78037   7.695   3.028   3.449  0.2717  0.8293 -0.2080
  579MOL0     O78038   7.721   3.123   3.546  0.2950  0.3898 -0.5986
  579MOL0     C78039   7.856   3.173   3.555 -0.5476  0.1101 -0.0211
  579MOL0     C78040   7.865   3.286   3.659 -0.0360 -0.5742  0.1081
  579MOL0     C78041   8.011   3.327   3.669  0.1977 -0.1042 -0.0476
  579MOL0     C78042   8.047   3.353   3.812 -0.1771 -0.4197  0.0248
  579MOL0     C78043   8.178   3.430   3.823 -0.2495 -0.9136 -0.2577
  579MOL0     C78044   8.302   3.371   3.755 -0.3495 -0.5834 -0.5543
  579MOL0     C78045   8.331   3.225   3.812 -0.0471 -0.5388  0.5876
  579MOL0     C78046   8.442   3.154   3.742 -0.1042  0.6008  0.0828
  579MOL0     N78047   8.574   3.213   3.767  0.3907  1.1236  0.0107
  579MOL0     C78048   8.659   3.154   3.857 -0.8940 -0.1537  0.2491
  579MOL0     C78049   8.763   3.242   3.854  0.1435 -0.0051  0.3190
  579MOL0     C78050   8.880   3.235   3.938 -0.1019  1.1303  0.0158
  579MOL0     C78051   8.993   3.132   3.885  0.3969 -0.9385 -0.3046
  579MOL0     C78052   9.099   3.122   3.993 -0.2107  0.3351 -0.1947
  579MOL0     C78053   9.219   3.027   3.955  0.2996 -0.1878 -0.6046
  579MOL0     O78054   9.334   3.036   4.040  0.3716 -0.0342 -0.0210
  579MOL0     C78055   9.362   2.937   4.134 -0.0672 -0.5621 -0.4435
  579MOL0     C78056   9.403   2.811   4.090  0.5015 -1.1337  0.3390
  579MOL0     C78057   9.476   2.725   4.173 -0.0762  0.3219  0.1057
  579MOL0     C78058   9.482   2.752   4.308  0.8589  0.5310 -0.3425
  579MOL0     C78059   9.541   2.653   4.399  0.3544 -0.1686 -0.6678
  579MOL0     O78060   9.582   2.530   4.349  1.4106  0.4892  0.0416
  579MOL0     C78061   9.591   2.424   4.433  0.2408 -0.7969 -0.2942
  579MOL0     C78062   9.513   2.394   4.543  0.2280  0.2627 -0.2450
  579MOL0     C78063   9.527   2.270   4.612  0.3420  0.8539 -0.1729
  579MOL0     C78064   9.623   2.174   4.573  0.1667  0.1350  0.6659
  579MOL0     O78065   9.657   2.063   4.648 -0.3356  0.4294  0.7278
  579MOL0     C78066   9.660   2.071   4.787 -0.8041 -0.5489 -0.3011
  579MOL0     C78067   9.704   1.945   4.873  0.0864  0.8449 -0.2314
  579MOL0     C78068   9.846   1.892   4.850 -0.2859 -0.4812 -0.3492
  579MOL0     C78069   9.854   1.806   4.726 -0.6231 -0.3779 -0.2887
  579MOL0     C78070   9.996   1.810   4.680  0.8284 -0.0679 -0.3049
  579MOL0     C78071  10.068   1.684   4.729 -0.6273 -0.5421  0.1184
  579MOL0     C78072  10.224   1.704   4.747  0.5692 -0.9153  0.1363
  579MOL0     C78073  10.304   1.626   4.636  0.2930  0.3468 -0.7178
  579MOL0    Cl78074  10.242   1.462   4.635  0.3168  0.0831  0.2658
  579MOL0     C78075   9.704   2.204   4.455  0.6151  0.6843 -0.0472
  579MOL0     C78076   9.689   2.331   4.388  0.3040  0.5477  0.4225
  579MOL0     O78077   9.527   2.684   4.523 -0.0599 -0.6372  0.8626
  579MOL0     C78078   9.423   2.874   4.354 -0.2457 -0.2852 -0.5320
  579MOL0     C78079   9.362   2.964   4.272 -0.2237  0.1769 -1.0533
  579MOL0     N78080   8.735   3.350   3.774  0.6749 -0.5846  0.3989
  579MOL0     N78081   8.624   3.321   3.709 -0.6920 -1.1776  0.0118
  579MOL0     C78082   7.564   3.013   3.418  0.0314  0.5699 -0.1929
  579MOL0     C78083   7.517   2.915   3.331  0.6862 -0.5835  0.7588
  579MOL0     C78084   7.437   2.526   3.146 -0.5342 -0.1173 -0.5723
  579MOL0     C78085   7.318   2.458   3.173 -0.2841  0.8033 -0.2724
  579MOL0     C78086   7.270   2.354   3.092 -0.7511  0.0168  0.4925
  579MOL0     C78087   7.345   2.317   2.979 -0.2001 -0.0468  0.8610
  579MOL0     O78088   7.307   2.216   2.894  0.0169 -0.1049  0.7403
  579MOL0     C78089   7.178   2.169   2.909  0.8100 -0.1756  0.2053
  579MOL0     C78090   7.144   2.080   2.793  0.2498  0.5771 -0.3786
  579MOL0     C78091   7.176   2.146   2.660 -0.4820 -0.3923  0.2531
  579MOL0     C78092   7.180   2.041   2.551 -0.4552 -0.3850  0.3245
  579MOL0     C78093   7.044   1.999   2.514  0.4270  0.0679  1.2673
  579MOL0     C78094   6.933   1.977   2.482  0.2170  0.3441 -0.4598
  579MOL0     C78095   7.461   2.386   2.944 -0.1568 -0.7786  0.0315
  579MOL0     C78096   7.511   2.488   3.027 -0.1164  0.5463 -0.0080
  579MOL0     C78097   7.641   2.551   2.977 -0.2373 -0.2817  0.6903
  579MOL0     H78098   7.806   2.758   3.258  0.8544 -1.4785  1.5292
  579MOL0     H78099   7.892   2.941   3.428  0.6896  0.9811  0.7156
  579MOL0     H78100   7.929   3.093   3.565  1.4598  1.3802 -3.0714
  579MOL0     H78101   7.883   3.221   3.460  0.2439  1.2190  0.7436
  579MOL0     H78102   7.821   3.240   3.747 -0.3147 -1.7753 -0.6380
  579MOL0     H78103   7.804   3.370   3.623  1.6016  1.2427  1.3650
  579MOL0     H78104   8.028   3.421   3.617  1.6307 -1.5888 -2.4599
  579MOL0     H78105   8.075   3.250   3.624 -1.3159 -1.0173 -0.7011
  579MOL0     H78106   7.965   3.412   3.855  0.3430  0.6088 -0.3622
  579MOL0     H78107   8.060   3.270   3.882 -0.7097  1.5818  2.6301
  579MOL0     H78108   8.162   3.529   3.780 -2.0415 -2.0930 -2.5403
  579MOL0     H78109   8.205   3.439   3.928  2.6996  1.9122 -1.1044
  579MOL0     H78110   8.287   3.367   3.647 -2.4468  3.3908 -0.6356
  579MOL0     H78111   8.383   3.441   3.779 -0.4655 -0.9782  1.1024
  579MOL0     H78112   8.239   3.166   3.811  0.0808 -0.7577 -0.8181
  579MOL0     H78113   8.345   3.251   3.917 -3.3654 -3.0331  1.8236
  579MOL0     H78114   8.440   3.054   3.785 -1.2213  0.6636  0.1945
  579MOL0     H78115   8.417   3.148   3.635  0.0406  1.4187 -0.0025
  579MOL0     H78116   8.660   3.056   3.904 -0.5199 -0.2187  0.1081
  579MOL0     H78117   8.921   3.335   3.950  1.1269  0.4289  2.1368
  579MOL0     H78118   8.859   3.197   4.038 -2.2188  1.1742 -0.3705
  579MOL0     H78119   8.952   3.031   3.871  0.8070 -1.5937  2.5433
  579MOL0     H78120   9.030   3.178   3.793  1.1522 -1.6494 -0.3717
  579MOL0     H78121   9.052   3.079   4.083 -0.6110 -1.3056 -1.1400
  579MOL0     H78122   9.134   3.223   4.018 -0.2176  0.4673 -0.7111
  579MOL0     H78123   9.253   3.055   3.855  2.4863  0.8166  0.3464
  579MOL0     H78124   9.190   2.922   3.962  2.2462 -0.7726 -0.8208
  579MOL0     H78125   9.387   2.775   3.989  2.0858 -0.3988 -0.1997
  579MOL0     H78126   9.498   2.628   4.129 -0.7074 -0.8291  2.2018
  579MOL0     H78127   9.429   2.456   4.573 -1.1262 -1.1515 -0.9682
  579MOL0     H78128   9.461   2.251   4.697  0.6184  3.0551  0.6017
  579MOL0     H78129   9.740   2.143   4.805 -0.3044 -1.3429  0.7438
  579MOL0     H78130   9.559   2.105   4.812  0.2958  2.3816  0.6550
  579MOL0     H78131   9.700   1.968   4.979  0.5192  1.2598 -0.3073
  579MOL0     H78132   9.638   1.858   4.858  1.1560 -0.2050  0.9185
  579MOL0     H78133   9.915   1.978   4.849 -3.0044  1.9193  1.2195
  579MOL0     H78134   9.875   1.825   4.931 -2.4809 -0.4851  0.5061
  579MOL0     H78135   9.784   1.837   4.649  0.2057  0.6733 -0.6438
  579MOL0     H78136   9.830   1.700   4.743 -1.4024 -0.0849  0.4881
  579MOL0     H78137  10.049   1.898   4.718  0.7025 -0.4836  0.8930
  579MOL0     H78138  10.002   1.811   4.571 -1.9383  0.7532 -0.5099
  579MOL0     H78139  10.023   1.646   4.820 -0.2709 -0.7236  0.2191
  579MOL0     H78140  10.051   1.609   4.651 -0.6980  1.3533 -1.7846
  579MOL0     H78141  10.234   1.650   4.841 -1.2131 -0.6488  0.5208
  579MOL0     H78142  10.262   1.807   4.755 -1.3814 -0.1120 -0.3449
  579MOL0     H78143  10.287   1.678   4.542  0.7032 -2.4322 -2.4266
  579MOL0     H78144  10.412   1.627   4.650  0.1587 -1.4358  0.8850
  579MOL0     H78145   9.769   2.131   4.409 -0.6421  0.7426 -2.0504
  579MOL0     H78146   9.745   2.348   4.297  0.0967  0.5547  0.2972
  579MOL0     H78147   9.416   2.885   4.461  2.5815 -1.3762 -0.1403
  579MOL0     H78148   9.323   3.053   4.321 -1.0568 -1.3768  1.2294
  579MOL0     H78149   7.495   3.089   3.453 -0.9887  0.3387 -1.5918
  579MOL0     H78150   7.412   2.914   3.304  1.0663 -0.9599 -0.8024
  579MOL0     H78151   7.254   2.485   3.256 -0.1610  0.6923 -0.1411
  579MOL0     H78152   7.180   2.303   3.124 -1.1944 -0.4685 -1.4153
  579MOL0     H78153   7.098   2.243   2.909  0.0543 -0.9844 -0.0331
  579MOL0     H78154   7.175   2.112   3.002 -0.6450  0.0842  0.3322
  579MOL0     H78155   7.038   2.057   2.787  0.3467  0.5375 -3.3183
  579MOL0     H78156   7.199   1.987   2.807 -0.2095  0.4631  0.7465
  579MOL0     H78157   7.274   2.195   2.667  0.2302 -1.6038 -0.9114
  579MOL0     H78158   7.107   2.228   2.640  0.2542  0.9053  2.6242
  579MOL0     H78159   7.221   2.087   2.460 -2.5571  0.8179 -0.0752
  579MOL0     H78160   7.222   1.951   2.597 -3.4267 -0.8421  2.4509
  579MOL0     H78161   6.831   1.956   2.456  0.9595 -2.8897 -1.2753
  579MOL0     H78162   7.525   2.361   2.860 -0.7726  0.4289 -0.8196
  579MOL0     H78163   7.730   2.537   3.040  0.3163 -0.4681 -0.1167
  579MOL0     H78164   7.671   2.503   2.883 -2.8437  0.4002 -0.5771
  579MOL0     H78165   7.623   2.658   2.967 -3.0492 -0.7867 -0.4319
  580MOL0     O78166  10.890   5.213   2.024  0.5446 -0.4486  0.0418
  580MOL0     C78167  10.857   5.194   2.144  0.3729  0.8009 -0.2948
  580MOL0     O78168  10.942   5.161   2.246  0.7323  0.1303 -0.0164
  580MOL0     C78169  11.080   5.187   2.229  0.1249  0.0329  0.1819
  580MOL0     C78170  11.145   5.284   2.313  0.0936  0.6350 -0.2029
  580MOL0     C78171  11.276   5.328   2.296 -0.4903  0.5913 -0.4058
  580MOL0     C78172  11.355   5.282   2.197  1.2572 -0.0606  0.6246
  580MOL0     O78173  11.486   5.320   2.158  0.0644 -0.1413  0.0787
  580MOL0     C78174  11.552   5.281   2.039  0.5276 -0.1645 -0.7342
  580MOL0     C78175  11.680   5.368   2.015 -0.3330 -1.2227 -0.3273
  580MOL0     C78176  11.779   5.311   1.919  0.4999  0.7019  0.3099
  580MOL0     C78177  11.904   5.403   1.915 -0.1386 -0.2772  0.6429
  580MOL0     C78178  12.003   5.361   1.797  0.7528  0.1582 -0.2739
  580MOL0     C78179  12.068   5.225   1.819  0.3659  0.1183 -0.1011
  580MOL0     C78180  12.190   5.184   1.729  0.8459 -0.5376 -0.9540
  580MOL0     C78181  12.327   5.252   1.765  0.5234 -1.0183  0.4455
  580MOL0     N78182  12.442   5.206   1.688  0.0488  0.3195  0.6548
  580MOL0     C78183  12.478   5.249   1.560 -0.9633 -0.3138 -0.1834
  580MOL0     C78184  12.588   5.174   1.539  0.3948 -0.9947  0.6564
  580MOL0     C78185  12.677   5.173   1.415  1.6148 -0.5965  0.5467
  580MOL0     C78186  12.692   5.315   1.351 -0.6209 -0.0260 -0.4301
  580MOL0     C78187  12.777   5.394   1.450 -0.0278  0.0030  0.3090
  580MOL0     C78188  12.800   5.539   1.399 -0.1455  0.2123  0.0360
  580MOL0     O78189  12.843   5.545   1.262  0.3186 -0.1342 -0.5204
  580MOL0     C78190  12.884   5.661   1.205  0.7704  0.5101  0.4922
  580MOL0     C78191  12.920   5.774   1.271 -0.3213 -0.4896  0.7654
  580MOL0     C78192  12.990   5.871   1.200  1.2558 -0.8400  0.1496
  580MOL0     C78193  13.012   5.867   1.061 -0.0732  0.3313  0.8450
  580MOL0     C78194  13.082   5.984   0.992 -0.7377 -0.1123 -0.4640
  580MOL0     O78195  13.102   6.092   1.073  0.3023 -0.3513  0.0132
  580MOL0     C78196  13.160   6.193   1.017  0.4602 -1.0265  0.7330
  580MOL0     C78197  13.095   6.278   0.920 -0.4365  0.0864 -0.3334
  580MOL0     C78198  13.161   6.388   0.874 -0.4180  0.0779  0.1060
  580MOL0     C78199  13.292   6.422   0.916  0.0289  0.1864 -0.2990
  580MOL0     O78200  13.344   6.539   0.867 -0.5293  0.1935 -0.0431
  580MOL0     C78201  13.488   6.553   0.870  0.0772 -0.5923 -0.7860
  580MOL0     C78202  13.529   6.675   0.794  0.8497 -0.5552 -0.0993
  580MOL0     C78203  13.682   6.701   0.803 -0.2788 -0.5539 -0.5886
  580MOL0     C78204  13.715   6.815   0.704  0.2475  0.4071  0.0327
  580MOL0     C78205  13.857   6.872   0.732 -0.1199 -0.2096 -0.3142
  580MOL0     C78206  13.988   6.788   0.691  0.1405 -0.2974 -0.4375
  580MOL0     C78207  14.112   6.858   0.749 -0.0167 -0.2470 -0.5385
  580MOL0     C78208  14.229   6.845   0.659 -0.3829  0.0573 -0.2293
  580MOL0    Cl78209  14.229   6.985   0.554  0.0427 -0.2188  0.6818
  580MOL0     C78210  13.352   6.340   1.011  1.0349  0.0782 -0.0285
  580MOL0     C78211  13.290   6.232   1.056 -0.0124  0.1430 -0.4822
  580MOL0     O78212  13.099   5.986   0.868 -0.2134 -0.0826  0.6826
  580MOL0     C78213  12.951   5.763   0.988 -0.7314  0.1663 -0.4661
  580MOL0     C78214  12.892   5.657   1.064 -0.5789  0.1812 -0.0610
  580MOL0     N78215  12.613   5.087   1.639  0.3669 -0.5006 -0.5600
  580MOL0     N78216  12.523   5.102   1.729  0.1426 -0.3814  0.3819
  580MOL0     C78217  11.294   5.174   2.120 -0.3056  0.2861  0.1871
  580MOL0     C78218  11.161   5.129   2.133  0.8183  0.0194 -0.4652
  580MOL0     C78219  10.715   5.213   2.186 -0.0346 -0.3132  0.8022
  580MOL0     C78220  10.681   5.175   2.317  0.1766 -0.0195  0.1004
  580MOL0     C78221  10.552   5.177   2.364  0.0214 -0.1317  0.0556
  580MOL0     C78222  10.446   5.216   2.286 -0.6437  0.1681 -0.1903
  580MOL0     O78223  10.319   5.205   2.331  0.6450  0.1636 -0.5758
  580MOL0     C78224  10.250   5.335   2.334 -0.0623 -0.1224 -0.1317
  580MOL0     C78225  10.206   5.377   2.469 -0.1703  1.6383 -0.4226
  580MOL0     C78226  10.112   5.271   2.539 -0.0881 -0.0778  0.2319
  580MOL0     C78227  10.041   5.334   2.658  1.3742  0.0564  0.7375
  580MOL0     C78228  10.131   5.379   2.765  0.2829 -0.7339 -0.0861
  580MOL0     C78229  10.204   5.405   2.855  0.2525  0.2008  0.2562
  580MOL0     C78230  10.471   5.260   2.152 -0.7657 -0.1326 -0.3354
  580MOL0     C78231  10.605   5.259   2.099 -0.2418  0.1914 -0.1396
  580MOL0     C78232  10.626   5.303   1.956  1.5139 -0.0727  0.0481
  580MOL0     H78233  11.072   5.305   2.391 -0.8139  0.4512 -0.9839
  580MOL0     H78234  11.325   5.412   2.343  0.1174  2.2308 -3.6616
  580MOL0     H78235  11.588   5.179   2.058 -0.5609 -0.3310  0.5694
  580MOL0     H78236  11.489   5.275   1.950  1.6167 -0.6667 -1.4979
  580MOL0     H78237  11.730   5.391   2.110 -1.7520 -0.7841  0.3382
  580MOL0     H78238  11.658   5.469   1.978 -0.2864 -0.4991  1.5174
  580MOL0     H78239  11.741   5.307   1.816  1.4615  1.8522 -0.1276
  580MOL0     H78240  11.817   5.212   1.944  3.7004  1.5044 -0.7902
  580MOL0     H78241  11.868   5.503   1.891 -1.3091 -0.8400 -0.0812
  580MOL0     H78242  11.959   5.398   2.009 -1.0265  4.2474  1.6387
  580MOL0     H78243  11.955   5.361   1.699  4.4197 -2.1545 -2.2945
  580MOL0     H78244  12.082   5.437   1.792  0.9347 -0.0513 -0.5749
  580MOL0     H78245  12.106   5.237   1.921  0.7078  2.7252 -0.4596
  580MOL0     H78246  11.996   5.143   1.814  0.3241  0.2147 -1.5253
  580MOL0     H78247  12.160   5.216   1.628 -2.6558 -1.9994 -0.5171
  580MOL0     H78248  12.204   5.076   1.727  2.4719 -0.3728  0.1629
  580MOL0     H78249  12.311   5.359   1.748 -2.3814 -1.3072  0.9343
  580MOL0     H78250  12.341   5.241   1.873 -1.1281 -2.1032  0.5731
  580MOL0     H78251  12.441   5.336   1.507  1.3764  0.7286 -0.2508
  580MOL0     H78252  12.780   5.143   1.440  3.5375  4.4650 -0.1322
  580MOL0     H78253  12.627   5.107   1.344 -0.9453 -0.3470  2.0225
  580MOL0     H78254  12.745   5.312   1.256  1.4693 -1.9756  0.7079
  580MOL0     H78255  12.597   5.367   1.341 -0.5886  0.5914  1.7684
  580MOL0     H78256  12.870   5.343   1.475  0.2313  1.2966  2.2065
  580MOL0     H78257  12.728   5.405   1.548 -0.7054 -1.1106  0.1181
  580MOL0     H78258  12.863   5.596   1.467  0.7763 -0.9673  0.1997
  580MOL0     H78259  12.704   5.589   1.414  0.6448  1.2816  1.7567
  580MOL0     H78260  12.904   5.796   1.375  0.3954  0.7339  0.6282
  580MOL0     H78261  13.022   5.948   1.269 -1.2653 -3.0269  4.1687
  580MOL0     H78262  12.990   6.264   0.895 -0.3231 -0.0796 -0.7327
  580MOL0     H78263  13.124   6.453   0.796 -0.3464  1.2332  1.0133
  580MOL0     H78264  13.513   6.563   0.976 -2.3714 -0.2573 -0.1736
  580MOL0     H78265  13.544   6.466   0.838 -1.8179 -1.4069 -2.0837
  580MOL0     H78266  13.509   6.652   0.689  2.1066 -0.1323 -0.4473
  580MOL0     H78267  13.464   6.758   0.822  0.8320 -1.5387  3.2662
  580MOL0     H78268  13.708   6.724   0.907 -1.7886 -0.7570 -0.1446
  580MOL0     H78269  13.741   6.611   0.780  2.0000  0.3671  1.1652
  580MOL0     H78270  13.642   6.894   0.721  0.5171  0.3764  1.4075
  580MOL0     H78271  13.709   6.774   0.602 -2.5009 -2.2520  1.1342
  580MOL0     H78272  13.852   6.873   0.841 -2.5274  2.7512 -0.3140
  580MOL0     H78273  13.865   6.974   0.694 -0.9215 -1.3460 -3.9607
  580MOL0     H78274  13.980   6.694   0.746 -0.3051  0.0373  0.0778
  580MOL0     H78275  13.986   6.774   0.582 -1.3005  2.6239 -0.8819
  580MOL0     H78276  14.121   6.818   0.850 -0.2413  2.1092  0.4717
  580MOL0     H78277  14.089   6.963   0.771  3.2494  0.1966  1.4463
  580MOL0     H78278  14.327   6.841   0.708 -0.6441  0.1112  0.2993
  580MOL0     H78279  14.216   6.757   0.595 -0.9361  0.0572 -0.1182
  580MOL0     H78280  13.440   6.375   1.063 -0.6676  2.9252  1.1690
  580MOL0     H78281  13.335   6.173   1.135 -2.7427  2.2281  2.9326
  580MOL0     H78282  12.960   5.755   0.880  1.8691  2.2804 -0.5157
  580MOL0     H78283  12.855   5.573   1.007  0.4823  0.1275 -0.6873
  580MOL0     H78284  11.340   5.133   2.030  1.9904  1.4475  0.7688
  580MOL0     H78285  11.126   5.066   2.052  2.6060  0.7280 -1.8531
  580MOL0     H78286  10.755   5.142   2.389  0.1357  0.3860  0.3347
  580MOL0     H78287  10.531   5.133   2.461  0.6647  0.2386  0.3680
  580MOL0     H78288  10.159   5.341   2.272 -0.3094  1.0888  0.3182
  580MOL0     H78289  10.315   5.419   2.309  0.3634  0.1285  1.6907
  580MOL0     H78290  10.167   5.479   2.459  0.5946  1.7609 -2.5611
  580MOL0     H78291  10.295   5.379   2.532  1.2146  0.2069 -2.2346
  580MOL0     H78292  10.158   5.183   2.583 -1.3327 -2.1533 -2.3096
  580MOL0     H78293  10.035   5.228   2.474 -1.9489  0.2226  2.1506
  580MOL0     H78294   9.976   5.415   2.626  2.1291 -0.8004 -3.5584
  580MOL0     H78295   9.978   5.253   2.696  0.2993  0.1472 -0.7450
  580MOL0     H78296  10.281   5.424   2.927 -0.5750  1.8326  0.7438
  580MOL0     H78297  10.389   5.292   2.089 -1.2185 -0.6182  0.0045
  580MOL0     H78298  10.676   5.400   1.946 -0.3257  1.2899  2.9218
  580MOL0     H78299  10.681   5.225   1.903 -0.4318 -2.2625  1.1128
  580MOL0     H78300  10.529   5.311   1.906  2.1026  0.9680 -1.0007
  581MOL0     O78301   8.654   7.642   0.772 -0.5617  0.4210  0.1727
  581MOL0     C78302   8.744   7.686   0.834  0.0076 -1.0790  0.5924
  581MOL0     O78303   8.771   7.822   0.859 -0.4871  0.1072 -0.2728
  581MOL0     C78304   8.692   7.920   0.810  0.1834 -0.8597 -0.1399
  581MOL0     C78305   8.675   8.034   0.891  0.1637  0.1329  0.4104
  581MOL0     C78306   8.603   8.136   0.840  0.7817 -0.3686  0.0834
  581MOL0     C78307   8.555   8.139   0.712  0.9936 -0.0877  0.0335
  581MOL0     O78308   8.483   8.245   0.670 -0.1706  0.1317  0.1576
  581MOL0     C78309   8.481   8.288   0.533  0.3146 -0.0154  0.8243
  581MOL0     C78310   8.334   8.280   0.483 -0.5338  0.2075  0.4727
  581MOL0     C78311   8.308   8.390   0.384  0.1606 -0.5619 -0.4885
  581MOL0     C78312   8.178   8.363   0.312  0.4600 -0.3261  0.0166
  581MOL0     C78313   8.120   8.471   0.227 -0.1629 -0.1912  0.7067
  581MOL0     C78314   7.987   8.425   0.166 -0.3573 -0.1443 -0.5169
  581MOL0     C78315   7.908   8.540   0.116  0.5743 -0.3268 -0.0747
  581MOL0     C78316   7.762   8.497   0.076 -0.4553 -0.1032  0.7145
  581MOL0     N78317   7.685   8.596  -0.003 -0.6329  0.1036 -0.9465
  581MOL0     C78318   7.577   8.655   0.046  0.9279  0.3854  0.7991
  581MOL0     C78319   7.531   8.745  -0.051 -0.6413  0.2324 -0.1896
  581MOL0     C78320   7.421   8.854  -0.040 -0.4212  1.1175 -0.4314
  581MOL0     C78321   7.425   8.955  -0.159  0.7317 -0.5203 -0.0800
  581MOL0     C78322   7.524   9.069  -0.133  0.0020 -0.1115  0.7645
  581MOL0     C78323   7.667   9.019  -0.105  0.1589  0.4052 -1.0054
  581MOL0     O78324   7.760   9.117  -0.073 -0.2862  0.2828 -0.3084
  581MOL0     C78325   7.893   9.102  -0.117  0.4170 -0.2161  0.4899
  581MOL0     C78326   7.931   9.038  -0.237 -0.3084  0.8132 -0.5951
  581MOL0     C78327   8.070   9.032  -0.266  0.2516 -0.2910 -0.1541
  581MOL0     C78328   8.163   9.101  -0.187 -1.4719 -0.2132 -0.6522
  581MOL0     C78329   8.314   9.097  -0.205  1.0396 -0.0673  0.3867
  581MOL0     O78330   8.381   9.202  -0.151  0.2310  0.0190  0.3385
  581MOL0     C78331   8.509   9.209  -0.188  0.5442  0.3639 -0.1296
  581MOL0     C78332   8.558   9.288  -0.292  0.5928 -0.6534 -0.3527
  581MOL0     C78333   8.701   9.283  -0.329  0.2597 -0.5153 -0.3271
  581MOL0     C78334   8.788   9.206  -0.252  0.1904  0.4539  0.5906
  581MOL0     O78335   8.922   9.191  -0.269  0.0855 -0.5711 -0.2933
  581MOL0     C78336   8.986   9.244  -0.390 -1.0640  0.4905  0.6101
  581MOL0     C78337   9.127   9.174  -0.385 -0.3567 -0.4063  0.8690
  581MOL0     C78338   9.114   9.014  -0.379 -0.8176 -0.4229 -0.6071
  581MOL0     C78339   9.249   8.962  -0.387  0.0714  0.4361  0.4478
  581MOL0     C78340   9.244   8.811  -0.402 -0.9627  0.3001  0.3003
  581MOL0     C78341   9.384   8.752  -0.435  1.4074  0.3979  0.5388
  581MOL0     C78342   9.499   8.761  -0.328 -0.2384 -0.1428  0.7604
  581MOL0     C78343   9.600   8.653  -0.366 -0.8357  0.0423  0.9055
  581MOL0    Cl78344   9.653   8.682  -0.534 -0.4405 -0.0225  0.6521
  581MOL0     C78345   8.734   9.137  -0.152 -1.2165 -0.4078 -0.2037
  581MOL0     C78346   8.602   9.136  -0.116  0.3031  0.2723  0.7481
  581MOL0     O78347   8.357   8.998  -0.263  0.0122 -1.1428  0.0355
  581MOL0     C78348   8.115   9.167  -0.073  0.7992 -0.0949 -0.1198
  581MOL0     C78349   7.980   9.162  -0.039  0.0314 -0.0268 -0.3926
  581MOL0     N78350   7.620   8.730  -0.159  0.9002 -0.3168 -0.2225
  581MOL0     N78351   7.705   8.632  -0.129 -0.4892  0.0486  0.4164
  581MOL0     C78352   8.564   8.028   0.625 -0.6428 -0.2771 -0.7545
  581MOL0     C78353   8.643   7.920   0.673  0.8195  0.2010 -0.4837
  581MOL0     C78354   8.848   7.591   0.898  0.1026  0.6791 -0.4655
  581MOL0     C78355   8.941   7.649   0.980  0.2975  0.3730  0.4959
  581MOL0     C78356   9.033   7.567   1.049 -0.2908  0.2549 -0.7957
  581MOL0     C78357   9.020   7.426   1.047 -0.3445 -0.1161 -0.1211
  581MOL0     O78358   9.106   7.327   1.094 -0.2414  0.1923 -0.8280
  581MOL0     C78359   9.220   7.368   1.171 -0.1130 -0.8392 -0.8221
  581MOL0     C78360   9.299   7.245   1.205 -0.5156 -0.3840  0.3137
  581MOL0     C78361   9.394   7.280   1.315  0.0642  0.2843 -0.6621
  581MOL0     C78362   9.491   7.162   1.325  0.5578 -0.2061 -0.2394
  581MOL0     C78363   9.437   7.036   1.386 -0.2062 -0.1348 -1.0462
  581MOL0     C78364   9.397   6.932   1.441  0.4974 -0.1361 -0.1671
  581MOL0     C78365   8.921   7.370   0.972  0.1137  0.1280  0.7845
  581MOL0     C78366   8.832   7.453   0.899 -0.8864 -0.2173 -0.4079
  581MOL0     C78367   8.741   7.372   0.817 -0.2686  0.7908  0.1193
  581MOL0     H78368   8.730   8.051   0.983  2.4958  0.0268 -0.8734
  581MOL0     H78369   8.585   8.223   0.903  5.2617  0.1303  0.9773
  581MOL0     H78370   8.519   8.391   0.526  0.1834  0.0190  0.6160
  581MOL0     H78371   8.535   8.222   0.465 -1.0202  0.4421 -0.7553
  581MOL0     H78372   8.269   8.297   0.569  0.2602  0.2040  1.0807
  581MOL0     H78373   8.317   8.180   0.443  1.1979  0.6909 -1.6993
  581MOL0     H78374   8.383   8.406   0.305 -0.1934 -3.0257 -1.4068
  581MOL0     H78375   8.299   8.482   0.442 -0.6243  0.5231 -2.2361
  581MOL0     H78376   8.194   8.282   0.241 -0.5392 -0.1274 -0.4476
  581MOL0     H78377   8.111   8.332   0.393 -0.5821 -0.3604 -0.8312
  581MOL0     H78378   8.105   8.563   0.285  2.7811 -0.0482  1.3520
  581MOL0     H78379   8.186   8.494   0.143 -2.2282 -0.7415 -1.1794
  581MOL0     H78380   8.002   8.343   0.095 -2.2821  0.6381 -1.9313
  581MOL0     H78381   7.930   8.381   0.249  0.1207 -1.3751 -0.8183
  581MOL0     H78382   7.964   8.591   0.037  2.3364 -4.4349 -1.7711
  581MOL0     H78383   7.893   8.608   0.200  1.7191 -1.5104  1.1257
  581MOL0     H78384   7.776   8.416   0.004  1.5530  0.7749  0.0276
  581MOL0     H78385   7.713   8.475   0.171  1.4144 -1.2845  1.4658
  581MOL0     H78386   7.534   8.639   0.145 -0.4247  0.2276  0.2053
  581MOL0     H78387   7.322   8.810  -0.055 -0.6113  2.0121 -2.0412
  581MOL0     H78388   7.422   8.900   0.059 -1.4207  0.1939  0.0213
  581MOL0     H78389   7.459   8.902  -0.248 -0.2897 -1.7500  0.2355
  581MOL0     H78390   7.326   8.997  -0.180  0.5889  0.3786  2.0879
  581MOL0     H78391   7.492   9.138  -0.054 -1.4072  1.5048 -1.1411
  581MOL0     H78392   7.527   9.142  -0.214 -0.9397 -0.2525  0.5884
  581MOL0     H78393   7.703   8.967  -0.195  0.9286  0.8362 -0.9513
  581MOL0     H78394   7.674   8.946  -0.023 -0.8928  1.6563  0.2405
  581MOL0     H78395   7.862   8.990  -0.306 -0.6431  1.7948 -0.9614
  581MOL0     H78396   8.109   8.987  -0.357  2.1445 -1.1085  0.9990
  581MOL0     H78397   8.489   9.345  -0.353 -0.6027 -1.3486  0.3154
  581MOL0     H78398   8.743   9.345  -0.408  1.6845  1.8207  2.0995
  581MOL0     H78399   8.934   9.209  -0.480  0.1853 -1.3264  0.5327
  581MOL0     H78400   9.001   9.352  -0.388  1.5557  0.2022 -0.1885
  581MOL0     H78401   9.187   9.188  -0.475 -0.8198 -1.0413  0.4519
  581MOL0     H78402   9.186   9.208  -0.299  0.3309 -2.7807  1.4171
  581MOL0     H78403   9.061   8.988  -0.287 -0.5125  2.6403  0.5540
  581MOL0     H78404   9.052   8.980  -0.462 -0.1769 -1.1861 -0.7831
  581MOL0     H78405   9.300   8.993  -0.295  0.3104 -1.9522  1.1893
  581MOL0     H78406   9.312   9.008  -0.464 -0.6811  1.5846  0.4802
  581MOL0     H78407   9.190   8.770  -0.488 -1.9822 -1.4199  1.6906
  581MOL0     H78408   9.198   8.770  -0.312 -0.1559  1.7351  1.4150
  581MOL0     H78409   9.368   8.646  -0.459 -0.8129  0.9752 -0.8387
  581MOL0     H78410   9.426   8.798  -0.525  2.9915  0.4171  1.2502
  581MOL0     H78411   9.466   8.739  -0.226  2.1893 -0.5203  1.5393
  581MOL0     H78412   9.542   8.861  -0.336  0.8188 -0.7259 -1.7682
  581MOL0     H78413   9.692   8.661  -0.308  1.3819 -2.1237 -2.0303
  581MOL0     H78414   9.554   8.554  -0.359 -3.1421  1.1920  4.0370
  581MOL0     H78415   8.801   9.083  -0.085 -0.8311 -1.1134 -1.1262
  581MOL0     H78416   8.563   9.084  -0.028  2.7969  0.0774  1.8231
  581MOL0     H78417   8.184   9.222  -0.010  1.3815  0.1556 -0.9493
  581MOL0     H78418   7.940   9.192   0.057 -2.4199 -1.1134 -1.0077
  581MOL0     H78419   8.513   8.021   0.529 -0.3305  0.6791 -1.0001
  581MOL0     H78420   8.660   7.845   0.596 -0.3226 -0.3741 -0.1975
  581MOL0     H78421   8.943   7.755   1.002 -2.3292  0.0459  3.0464
  581MOL0     H78422   9.110   7.612   1.111  0.5859 -0.7928 -1.0949
  581MOL0     H78423   9.201   7.412   1.270 -2.0320 -0.7033 -1.2157
  581MOL0     H78424   9.282   7.438   1.115 -1.5375 -0.9825 -2.6708
  581MOL0     H78425   9.352   7.230   1.111 -2.4334 -0.1131 -0.8650
  581MOL0     H78426   9.240   7.153   1.220 -0.4230  0.0765  4.7912
  581MOL0     H78427   9.336   7.307   1.404 -0.7159  0.0987 -1.1038
  581MOL0     H78428   9.454   7.368   1.287 -2.6401  2.5247  0.1633
  581MOL0     H78429   9.537   7.146   1.228  1.7989  0.5189  0.2042
  581MOL0     H78430   9.577   7.195   1.383  0.5191  2.5968 -1.6089
  581MOL0     H78431   9.356   6.843   1.483  0.3439  0.0634  0.1055
  581MOL0     H78432   8.909   7.262   0.981 -0.9033  0.2400  0.9525
  581MOL0     H78433   8.792   7.281   0.785  2.8719  2.9536 -1.5928
  581MOL0     H78434   8.644   7.356   0.865  0.9338 -1.6716  1.9391
  581MOL0     H78435   8.727   7.429   0.725 -0.3909 -0.9904 -1.0108
  582MOL0     O78436   0.567   4.517   4.370 -0.1072  0.3195 -0.0233
  582MOL0     C78437   0.573   4.598   4.465  0.7662  0.8227 -0.3881
  582MOL0     O78438   0.689   4.643   4.523 -0.0152 -0.0873 -0.0249
  582MOL0     C78439   0.816   4.585   4.503  0.0607 -0.1604  0.1153
  582MOL0     C78440   0.918   4.664   4.563 -0.1664  0.1248 -0.6143
  582MOL0     C78441   1.048   4.621   4.577  0.0214  0.0934 -0.2301
  582MOL0     C78442   1.081   4.494   4.525 -0.1516 -0.2871 -0.2395
  582MOL0     O78443   1.210   4.448   4.543  0.0192 -0.1576  0.2553
  582MOL0     C78444   1.259   4.313   4.525  0.1376  0.2124 -0.8753
  582MOL0     C78445   1.405   4.294   4.565  0.1455 -0.2072 -0.5456
  582MOL0     C78446   1.506   4.390   4.504 -0.2606  0.0093  0.7727
  582MOL0     C78447   1.518   4.393   4.345 -0.0396 -0.7155  0.0932
  582MOL0     C78448   1.648   4.450   4.290 -1.2955  0.1897 -0.0282
  582MOL0     C78449   1.666   4.468   4.144 -0.0225  0.1441  0.3804
  582MOL0     C78450   1.791   4.546   4.107  0.7484  0.3200  0.7034
  582MOL0     C78451   1.789   4.601   3.967 -0.5009 -0.1486 -0.0872
  582MOL0     N78452   1.730   4.515   3.864 -0.9474 -0.3162  0.2422
  582MOL0     C78453   1.794   4.388   3.837  0.5212 -0.7862 -0.0893
  582MOL0     C78454   1.700   4.314   3.779  0.0903 -0.2520 -0.4272
  582MOL0     C78455   1.735   4.185   3.712 -0.0509  0.3542 -0.2419
  582MOL0     C78456   1.742   4.210   3.565  0.4133  0.0476  0.4558
  582MOL0     C78457   1.839   4.106   3.505 -0.0507  0.3820  0.1684
  582MOL0     C78458   1.890   4.135   3.368  0.5826  0.5861 -0.4216
  582MOL0     O78459   1.992   4.234   3.386  0.2528  0.5275  0.0480
  582MOL0     C78460   2.085   4.250   3.282 -0.1976 -0.4307 -0.0524
  582MOL0     C78461   2.052   4.236   3.153  0.4627 -0.6675  1.2216
  582MOL0     C78462   2.147   4.249   3.051  0.5342 -0.8231  0.4073
  582MOL0     C78463   2.276   4.300   3.079 -0.3648 -1.2815  0.0705
  582MOL0     C78464   2.376   4.332   2.972 -0.4066 -0.3352 -1.2061
  582MOL0     O78465   2.505   4.354   3.013  0.4951  0.1279  0.7758
  582MOL0     C78466   2.589   4.389   2.912  0.0242 -0.3928  0.8718
  582MOL0     C78467   2.563   4.501   2.834  0.4599  0.2313 -0.5651
  582MOL0     C78468   2.648   4.539   2.735 -0.1687 -0.0606  0.5666
  582MOL0     C78469   2.770   4.471   2.709  0.1613  0.7633 -0.7636
  582MOL0     O78470   2.852   4.543   2.636 -0.6951 -0.1609 -0.2821
  582MOL0     C78471   2.956   4.477   2.573  0.1782  0.4292  0.3327
  582MOL0     C78472   2.998   4.544   2.439 -0.2089 -0.1850  0.3988
  582MOL0     C78473   3.063   4.461   2.336 -0.2584  0.1445 -0.3456
  582MOL0     C78474   3.165   4.368   2.397  0.0036 -0.5772  0.6256
  582MOL0     C78475   3.234   4.284   2.288 -0.2895 -0.6592  0.1828
  582MOL0     C78476   3.357   4.367   2.226  1.4752 -1.3494 -0.1900
  582MOL0     C78477   3.483   4.366   2.322 -0.3739 -0.0782 -0.0165
  582MOL0     C78478   3.530   4.235   2.369 -0.0655  0.1204  0.2338
  582MOL0    Cl78479   3.573   4.115   2.244  0.0618 -0.2441  0.3920
  582MOL0     C78480   2.805   4.369   2.810  0.0085 -0.2394  0.0091
  582MOL0     C78481   2.715   4.323   2.902  0.2585  0.4763  0.3231
  582MOL0     O78482   2.341   4.304   2.862 -0.5785 -0.8517 -0.1303
  582MOL0     C78483   2.306   4.328   3.212 -0.2093  0.0601 -0.1282
  582MOL0     C78484   2.213   4.298   3.312  0.1392 -0.3126 -0.4381
  582MOL0     N78485   1.581   4.383   3.783 -0.4804 -0.0623  0.0675
  582MOL0     N78486   1.602   4.503   3.826 -0.0066  0.0777 -0.5013
  582MOL0     C78487   0.985   4.426   4.452 -0.1814 -0.1327  0.2405
  582MOL0     C78488   0.857   4.467   4.440  0.3717 -0.1156  0.4390
  582MOL0     C78489   0.445   4.675   4.499 -0.7033 -0.3909  0.4394
  582MOL0     C78490   0.330   4.653   4.413  0.4115 -0.5433 -0.0340
  582MOL0     C78491   0.210   4.724   4.423 -0.2111  0.0522  0.3416
  582MOL0     C78492   0.206   4.834   4.512 -0.3215  0.7218 -1.0084
  582MOL0     O78493   0.099   4.914   4.535  0.1896 -0.4417  0.1547
  582MOL0     C78494  -0.014   4.908   4.449 -0.2818 -0.1743  0.0891
  582MOL0     C78495  -0.107   4.793   4.508  0.6724 -0.3474  0.1761
  582MOL0     C78496  -0.247   4.784   4.443 -0.5975 -0.7078 -0.3673
  582MOL0     C78497  -0.262   4.683   4.325  0.0310  0.0700 -0.0091
  582MOL0     C78498  -0.198   4.719   4.202  0.2536 -0.0848  0.4979
  582MOL0     C78499  -0.148   4.737   4.096 -1.2158 -1.2607  0.4508
  582MOL0     C78500   0.319   4.854   4.600 -0.0959 -0.7340  0.1798
  582MOL0     C78501   0.434   4.772   4.597 -0.0974  0.0604  0.2753
  582MOL0     C78502   0.545   4.802   4.698 -0.3363 -0.4911  0.3573
  582MOL0     H78503   0.895   4.759   4.610 -1.9932 -1.3131  1.6338
  582MOL0     H78504   1.122   4.682   4.628  0.4466 -0.3654 -0.2866
  582MOL0     H78505   1.198   4.242   4.581 -0.1263  0.4018 -0.9242
  582MOL0     H78506   1.236   4.285   4.422 -1.3353  1.1027 -0.8125
  582MOL0     H78507   1.428   4.190   4.539  0.0698 -0.4440  0.3218
  582MOL0     H78508   1.422   4.309   4.671  0.0639 -1.7321 -0.2900
  582MOL0     H78509   1.606   4.384   4.547 -0.3873  0.3554  1.1270
  582MOL0     H78510   1.468   4.487   4.537  2.1064  1.8454 -1.4982
  582MOL0     H78511   1.485   4.302   4.295 -1.8639  1.0396 -2.1047
  582MOL0     H78512   1.441   4.466   4.320  1.4615  1.8288  2.3034
  582MOL0     H78513   1.670   4.546   4.339 -0.0486  0.9197 -1.9144
  582MOL0     H78514   1.730   4.386   4.324 -0.7124  0.7720 -0.3087
  582MOL0     H78515   1.673   4.368   4.099  2.3770  1.1290 -1.6659
  582MOL0     H78516   1.582   4.526   4.104  0.7695  1.7995  1.0676
  582MOL0     H78517   1.872   4.472   4.107  0.1089 -0.3892  0.5846
  582MOL0     H78518   1.808   4.634   4.171 -3.4352  2.7871 -1.1715
  582MOL0     H78519   1.732   4.695   3.962 -1.9828 -0.9618  0.6216
  582MOL0     H78520   1.893   4.619   3.940 -0.5803  0.7353  0.1656
  582MOL0     H78521   1.901   4.370   3.847  0.9021 -0.4783 -2.9640
  582MOL0     H78522   1.835   4.157   3.746 -0.7928  0.4899  2.2486
  582MOL0     H78523   1.661   4.110   3.740 -0.4649  0.4954 -0.9406
  582MOL0     H78524   1.639   4.203   3.529  0.8113  0.0988 -0.7140
  582MOL0     H78525   1.782   4.310   3.544  0.7913 -0.1201  0.3643
  582MOL0     H78526   1.791   4.008   3.512  2.0427 -0.6989  0.3169
  582MOL0     H78527   1.923   4.087   3.572 -0.7534 -0.0206  0.9542
  582MOL0     H78528   1.806   4.162   3.304 -0.6159  1.3910  1.4414
  582MOL0     H78529   1.943   4.054   3.315  1.1488  1.7961 -1.7649
  582MOL0     H78530   1.960   4.189   3.120  1.1582 -1.9830  1.1123
  582MOL0     H78531   2.112   4.249   2.949 -0.5879 -0.2534  0.7717
  582MOL0     H78532   2.490   4.577   2.862  0.2938  0.2178 -0.9644
  582MOL0     H78533   2.625   4.634   2.689  1.9073  1.0888  1.7662
  582MOL0     H78534   3.043   4.480   2.639  0.1884 -1.3096  0.4497
  582MOL0     H78535   2.918   4.375   2.556 -3.8940  1.5698  1.4902
  582MOL0     H78536   2.908   4.589   2.395 -0.0565  1.2331  1.4625
  582MOL0     H78537   3.060   4.630   2.464 -0.1913  0.0776 -0.5227
  582MOL0     H78538   2.991   4.416   2.269  0.3150 -0.1786 -0.7494
  582MOL0     H78539   3.113   4.535   2.273  1.8917 -0.7637  0.2094
  582MOL0     H78540   3.114   4.300   2.465 -0.5855  0.5424  1.3245
  582MOL0     H78541   3.244   4.420   2.451  0.6979  1.1273 -1.8408
  582MOL0     H78542   3.164   4.266   2.207  1.0676 -1.0700 -0.9236
  582MOL0     H78543   3.278   4.192   2.328  1.1042  0.4482  1.3363
  582MOL0     H78544   3.387   4.320   2.132  0.0292 -0.9248 -0.8817
  582MOL0     H78545   3.325   4.470   2.211 -1.2665 -2.0070  0.6087
  582MOL0     H78546   3.467   4.423   2.414  0.8685 -2.5938  1.8915
  582MOL0     H78547   3.574   4.409   2.278 -0.1026 -0.4005  0.2232
  582MOL0     H78548   3.620   4.249   2.431 -1.2092  0.3744  1.9205
  582MOL0     H78549   3.463   4.182   2.438  0.3849 -2.7865 -1.4203
  582MOL0     H78550   2.904   4.326   2.817 -0.2358 -0.4476  4.3373
  582MOL0     H78551   2.742   4.253   2.980  2.2626 -0.3222 -1.0228
  582MOL0     H78552   2.409   4.351   3.236  1.0520 -4.5739 -0.1150
  582MOL0     H78553   2.233   4.298   3.418  0.3407 -1.6987 -0.4522
  582MOL0     H78554   1.018   4.335   4.404  2.4971  1.5995 -1.5084
  582MOL0     H78555   0.789   4.404   4.382 -0.1205  1.9376 -1.3338
  582MOL0     H78556   0.353   4.582   4.335  4.0775  1.1941 -0.7797
  582MOL0     H78557   0.137   4.689   4.352  0.9986 -0.9373 -0.4585
  582MOL0     H78558   0.026   4.882   4.350  1.4736 -2.5675  1.3102
  582MOL0     H78559  -0.068   5.003   4.439  1.4297  0.7906 -0.2979
  582MOL0     H78560  -0.122   4.822   4.612 -1.1786  1.7964 -0.6170
  582MOL0     H78561  -0.056   4.696   4.511  3.9760  1.2415  0.4544
  582MOL0     H78562  -0.273   4.886   4.415 -0.8793 -0.5643  0.4123
  582MOL0     H78563  -0.325   4.756   4.514  0.1700 -0.4831  0.5958
  582MOL0     H78564  -0.249   4.579   4.355 -1.7597 -0.6346 -1.5200
  582MOL0     H78565  -0.370   4.671   4.318  0.0683 -0.0860 -0.3521
  582MOL0     H78566  -0.093   4.745   4.004  0.0504 -0.2575  1.2622
  582MOL0     H78567   0.309   4.931   4.676  1.7038 -1.9325  1.7236
  582MOL0     H78568   0.506   4.884   4.758  0.9832  2.1720 -2.1656
  582MOL0     H78569   0.564   4.714   4.760 -0.1754 -0.9380 -0.3156
  582MOL0     H78570   0.634   4.842   4.648  0.9172 -1.1387  1.9635
  583MOL0     O78571   6.400   6.226   4.510 -0.1656  0.4238 -0.4231
  583MOL0     C78572   6.391   6.347   4.509  0.2485 -0.0739 -0.5039
  583MOL0     O78573   6.498   6.434   4.472  0.4343  0.1997 -0.4249
  583MOL0     C78574   6.622   6.385   4.461  1.0147 -0.7834  0.3918
  583MOL0     C78575   6.687   6.381   4.340 -0.1352 -0.3193  0.0629
  583MOL0     C78576   6.827   6.359   4.328 -0.0400 -0.8634 -0.0961
  583MOL0     C78577   6.899   6.338   4.444  0.1186 -0.1411  0.1360
  583MOL0     O78578   7.032   6.317   4.420 -1.2291  0.4376  0.1940
  583MOL0     C78579   7.128   6.324   4.534  0.0051 -0.2774 -0.8408
  583MOL0     C78580   7.278   6.322   4.499  0.0978 -0.2595  0.4398
  583MOL0     C78581   7.321   6.424   4.392  0.1478  0.6594 -0.1722
  583MOL0     C78582   7.455   6.497   4.426  0.0569  0.7031 -0.5183
  583MOL0     C78583   7.585   6.408   4.407  0.1927 -1.4561  0.2765
  583MOL0     C78584   7.718   6.468   4.453 -0.6021  0.1469 -0.1575
  583MOL0     C78585   7.835   6.366   4.451 -0.2561  0.2333  0.2356
  583MOL0     C78586   7.958   6.413   4.517  0.3842 -0.8258 -0.8949
  583MOL0     N78587   8.052   6.299   4.530 -1.3702  0.2336  0.1042
  583MOL0     C78588   8.039   6.168   4.572  0.4326 -0.0569 -0.4203
  583MOL0     C78589   8.165   6.137   4.616  0.7213  0.0861  0.2846
  583MOL0     C78590   8.213   6.014   4.684  0.2844 -0.0651 -0.7814
  583MOL0     C78591   8.199   6.031   4.836  0.5193 -0.1532  0.0020
  583MOL0     C78592   8.266   5.923   4.915 -0.4397  1.0953  0.1155
  583MOL0     C78593   8.223   5.780   4.885  0.5159  0.1822  0.1535
  583MOL0     O78594   8.280   5.718   4.771  0.2099  0.1495 -0.7945
  583MOL0     C78595   8.403   5.659   4.764  0.3099  0.3680 -0.2115
  583MOL0     C78596   8.424   5.575   4.655  0.0517  0.8828  0.0069
  583MOL0     C78597   8.546   5.495   4.660  0.2013 -0.9671 -0.1978
  583MOL0     C78598   8.645   5.512   4.760 -0.1836  0.3503 -0.2808
  583MOL0     C78599   8.755   5.414   4.783  0.0506 -0.5949  0.2195
  583MOL0     O78600   8.811   5.344   4.671  0.2816 -0.7874 -0.4065
  583MOL0     C78601   8.941   5.304   4.656 -0.6677 -0.4494 -0.3326
  583MOL0     C78602   8.987   5.296   4.523  0.5080 -0.2239 -0.1307
  583MOL0     C78603   9.121   5.268   4.493 -0.5207  0.1704  0.3411
  583MOL0     C78604   9.215   5.258   4.594 -0.5978 -0.4181  0.3397
  583MOL0     O78605   9.353   5.238   4.582  0.6043  0.0346  0.5229
  583MOL0     C78606   9.407   5.205   4.456 -0.7255  0.3585  1.0719
  583MOL0     C78607   9.559   5.175   4.465 -0.2143 -0.3862  0.2074
  583MOL0     C78608   9.626   5.166   4.328 -0.0689 -0.1055 -0.8623
  583MOL0     C78609   9.770   5.125   4.347  0.4135  0.2207  1.3164
  583MOL0     C78610   9.851   5.171   4.223  0.2789 -0.1241  0.7631
  583MOL0     C78611   9.984   5.101   4.219 -0.2081  0.0464 -1.0326
  583MOL0     C78612  10.066   5.162   4.110 -0.0579  0.0214 -0.4405
  583MOL0     C78613  10.209   5.131   4.136  0.9897 -0.7548  0.8296
  583MOL0    Cl78614  10.248   4.972   4.077  0.1484  0.4312 -0.2262
  583MOL0     C78615   9.174   5.268   4.725  0.6149 -0.3236 -0.2190
  583MOL0     C78616   9.037   5.293   4.760  0.3398 -0.3322  0.5628
  583MOL0     O78617   8.796   5.396   4.897  0.5954  0.1000 -0.3046
  583MOL0     C78618   8.627   5.612   4.861  0.5082  0.0779  0.1187
  583MOL0     C78619   8.504   5.680   4.862  0.4553 -0.4049 -0.5149
  583MOL0     N78620   8.245   6.247   4.602 -0.3324  0.3488 -0.1915
  583MOL0     N78621   8.177   6.336   4.556  0.1753 -0.6982  0.3678
  583MOL0     C78622   6.833   6.341   4.562 -0.6645  0.4390  0.0268
  583MOL0     C78623   6.696   6.364   4.574  0.2449  0.9713  0.3797
  583MOL0     C78624   6.268   6.409   4.554  0.3072  0.5195 -0.0944
  583MOL0     C78625   6.277   6.518   4.638 -0.2843  0.1333 -0.1370
  583MOL0     C78626   6.160   6.574   4.691  0.1268 -0.3702  0.8643
  583MOL0     C78627   6.039   6.531   4.641 -0.2420 -0.3209 -0.2573
  583MOL0     O78628   5.934   6.614   4.668  0.0863 -0.4620 -0.1067
  583MOL0     C78629   5.806   6.588   4.616 -0.6066  0.3903 -0.0192
  583MOL0     C78630   5.699   6.661   4.700 -0.4362  0.2500  0.8515
  583MOL0     C78631   5.664   6.580   4.835 -0.2662  0.3163  0.4416
  583MOL0     C78632   5.546   6.636   4.918 -0.3689  0.4207 -0.4058
  583MOL0     C78633   5.417   6.634   4.841  1.0034 -0.2984 -0.5938
  583MOL0     C78634   5.307   6.620   4.797  1.7905 -0.6752 -0.9289
  583MOL0     C78635   6.037   6.437   4.542  0.3448 -0.5662  0.3136
  583MOL0     C78636   6.148   6.376   4.494 -0.3133  0.3227  0.1403
  583MOL0     C78637   6.139   6.273   4.379 -0.0974  0.2103 -0.4554
  583MOL0     H78638   6.630   6.399   4.249 -0.7067 -1.6407  0.1347
  583MOL0     H78639   6.879   6.350   4.233  2.5846 -3.4387  1.4108
  583MOL0     H78640   7.110   6.419   4.585  1.2776 -1.4333  1.9412
  583MOL0     H78641   7.092   6.254   4.610 -3.9514  0.2187 -2.0422
  583MOL0     H78642   7.309   6.222   4.467  0.1282 -0.4991  1.1835
  583MOL0     H78643   7.327   6.346   4.594 -1.5350  1.3888  0.9252
  583MOL0     H78644   7.251   6.509   4.389  0.3192  0.8993  1.6106
  583MOL0     H78645   7.333   6.383   4.292  0.1437 -0.7570  0.3769
  583MOL0     H78646   7.471   6.583   4.360 -2.1212  0.0437 -2.0344
  583MOL0     H78647   7.453   6.529   4.531  1.1571  1.8512 -0.8227
  583MOL0     H78648   7.564   6.315   4.460 -2.4636 -1.4070 -0.5522
  583MOL0     H78649   7.585   6.379   4.301 -2.2542 -0.6884  0.0001
  583MOL0     H78650   7.753   6.558   4.401  0.8335 -0.5934 -0.5362
  583MOL0     H78651   7.701   6.490   4.558 -1.3957 -0.0763 -0.2371
  583MOL0     H78652   7.857   6.349   4.345 -0.2518 -0.1732  0.3008
  583MOL0     H78653   7.792   6.279   4.500 -1.3861 -0.9716 -2.6392
  583MOL0     H78654   8.004   6.498   4.466  0.9594 -1.9153 -2.2755
  583MOL0     H78655   7.926   6.439   4.618  0.9695 -3.2242 -0.0167
  583MOL0     H78656   7.953   6.102   4.568 -2.1265  2.9607  0.8310
  583MOL0     H78657   8.153   5.928   4.650 -0.2830  0.8827 -2.2679
  583MOL0     H78658   8.315   6.008   4.646  0.9269 -0.7628  0.9599
  583MOL0     H78659   8.226   6.130   4.874 -0.9462  1.2347 -2.3348
  583MOL0     H78660   8.091   6.019   4.848  0.5718 -2.2533 -1.0504
  583MOL0     H78661   8.244   5.931   5.022  0.7413 -2.4762  0.7558
  583MOL0     H78662   8.373   5.924   4.897 -0.2038 -1.9105  0.8232
  583MOL0     H78663   8.117   5.789   4.860  0.3808  0.1787  0.7113
  583MOL0     H78664   8.231   5.716   4.973 -1.8828  2.9105  2.5545
  583MOL0     H78665   8.338   5.555   4.591 -1.7382 -0.1673  2.5896
  583MOL0     H78666   8.572   5.424   4.582 -1.2859 -2.5021  0.6387
  583MOL0     H78667   8.909   5.305   4.448 -3.4144 -3.8553  3.0032
  583MOL0     H78668   9.142   5.258   4.387  2.9670  1.1198  0.7987
  583MOL0     H78669   9.358   5.114   4.422 -1.0005  1.0093 -0.3705
  583MOL0     H78670   9.397   5.291   4.389 -0.4519  1.2346  2.1202
  583MOL0     H78671   9.605   5.264   4.508 -1.2124  1.1044 -1.6568
  583MOL0     H78672   9.583   5.085   4.523 -0.9634 -0.5882  0.2137
  583MOL0     H78673   9.567   5.099   4.265  0.2882 -1.7554  0.4778
  583MOL0     H78674   9.631   5.265   4.283  1.9936  1.7440  2.9426
  583MOL0     H78675   9.781   5.017   4.361 -0.0886  0.1430  1.1266
  583MOL0     H78676   9.823   5.173   4.430  2.7984  2.8809 -1.5262
  583MOL0     H78677   9.868   5.279   4.220 -0.0545 -0.0895 -1.7398
  583MOL0     H78678   9.798   5.140   4.132  1.1989  0.8770 -0.1352
  583MOL0     H78679  10.033   5.113   4.316  0.1253 -1.7215 -0.9502
  583MOL0     H78680   9.972   4.993   4.212  1.5475 -0.1626 -1.2087
  583MOL0     H78681  10.066   5.271   4.110 -1.0935  0.0530 -1.6761
  583MOL0     H78682  10.040   5.137   4.007 -1.3335 -1.5489  0.2167
  583MOL0     H78683  10.275   5.203   4.086  1.5323 -1.2477  0.8232
  583MOL0     H78684  10.232   5.147   4.242 -0.3382  0.7673  0.9238
  583MOL0     H78685   9.239   5.255   4.811 -3.3702 -3.4567  2.7004
  583MOL0     H78686   9.003   5.302   4.863 -1.3591  1.4228 -0.0984
  583MOL0     H78687   8.688   5.619   4.950 -3.9688 -2.5948  3.8101
  583MOL0     H78688   8.488   5.753   4.940 -1.5957 -1.1737 -0.1655
  583MOL0     H78689   6.887   6.333   4.656  0.1628  0.2042 -0.4663
  583MOL0     H78690   6.652   6.376   4.673  0.1232 -0.3916  0.5155
  583MOL0     H78691   6.374   6.547   4.678 -0.0761 -0.6386 -0.0513
  583MOL0     H78692   6.167   6.665   4.750  2.6773  0.9244 -1.2014
  583MOL0     H78693   5.786   6.481   4.612 -1.8589  0.6252 -0.4572
  583MOL0     H78694   5.809   6.616   4.510 -0.4706  1.3383  0.2227
  583MOL0     H78695   5.605   6.667   4.646 -0.7443 -1.5779  1.1317
  583MOL0     H78696   5.729   6.763   4.728  2.7058 -0.7887  1.6628
  583MOL0     H78697   5.754   6.572   4.896 -0.7479 -0.7390  1.0421
  583MOL0     H78698   5.641   6.479   4.799  1.1748 -0.3357  1.2812
  583MOL0     H78699   5.532   6.587   5.014 -3.5788  1.6837 -0.1246
  583MOL0     H78700   5.566   6.739   4.948 -3.9070  1.0419  0.2241
  583MOL0     H78701   5.204   6.636   4.773  1.3688 -0.8668  0.6676
  583MOL0     H78702   5.940   6.406   4.503  0.0202  0.1919  0.4897
  583MOL0     H78703   6.209   6.296   4.298  1.7183  1.2827  1.3202
  583MOL0     H78704   6.161   6.174   4.420 -0.7915 -0.2725 -1.2125
  583MOL0     H78705   6.043   6.263   4.328 -0.4061  0.1042  0.1425
  584MOL0     O78706   7.027   2.375   3.818  0.4983  0.0061 -0.7976
  584MOL0     C78707   7.032   2.255   3.804 -0.1150 -0.1360 -0.5741
  584MOL0     O78708   7.147   2.179   3.833  1.0959  0.4594  0.0695
  584MOL0     C78709   7.252   2.250   3.889  0.0638 -0.9490 -0.4814
  584MOL0     C78710   7.284   2.240   4.024 -0.3023 -0.9189  0.2693
  584MOL0     C78711   7.407   2.291   4.069  0.2693  0.0574 -0.3912
  584MOL0     C78712   7.507   2.348   3.985 -0.5411 -0.3429 -0.3179
  584MOL0     O78713   7.628   2.374   4.054  0.5954 -0.4343 -0.0833
  584MOL0     C78714   7.732   2.444   3.982  0.5872  0.0997  0.4770
  584MOL0     C78715   7.859   2.422   4.066 -1.0667  1.5531  0.6347
  584MOL0     C78716   7.979   2.490   4.005 -0.4769 -0.0407 -0.4344
  584MOL0     C78717   8.105   2.482   4.087 -0.7932 -0.0085 -0.9762
  584MOL0     C78718   8.227   2.574   4.031  0.5444  0.2027 -0.1842
  584MOL0     C78719   8.346   2.566   4.118  0.9050 -0.3362  0.1240
  584MOL0     C78720   8.463   2.625   4.035  0.0606 -0.0267  0.5028
  584MOL0     C78721   8.591   2.622   4.121  1.2938  0.0109 -0.3638
  584MOL0     N78722   8.702   2.676   4.047 -0.0060  0.9510 -1.1154
  584MOL0     C78723   8.778   2.586   3.976 -0.0948 -0.5021  0.5298
  584MOL0     C78724   8.819   2.656   3.872 -0.6015 -0.3836 -0.3898
  584MOL0     C78725   8.900   2.595   3.760 -0.3081 -0.5961 -0.5506
  584MOL0     C78726   9.044   2.580   3.792 -0.0792  0.0847  0.3204
  584MOL0     C78727   9.062   2.468   3.891 -0.5628 -0.5468 -0.1761
  584MOL0     C78728   9.201   2.402   3.897 -0.7080  1.0089  0.6132
  584MOL0     O78729   9.291   2.485   3.959  0.1393 -0.0637  0.4223
  584MOL0     C78730   9.418   2.434   3.953  0.0069  0.7955  0.5682
  584MOL0     C78731   9.512   2.473   3.857 -0.4027  0.4692 -0.7616
  584MOL0     C78732   9.644   2.421   3.852 -0.5164  0.0907  0.0703
  584MOL0     C78733   9.690   2.334   3.954  0.3385 -0.1701 -0.2247
  584MOL0     C78734   9.824   2.279   3.950 -0.4175  0.5152  0.3059
  584MOL0     O78735   9.853   2.179   4.041 -0.0873  0.7096  0.4388
  584MOL0     C78736   9.988   2.142   4.067 -0.3403  0.4672 -0.0313
  584MOL0     C78737  10.038   2.186   4.187 -0.1012  0.6089 -0.5342
  584MOL0     C78738  10.175   2.166   4.227  0.1039 -0.0714  0.7350
  584MOL0     C78739  10.268   2.113   4.133  0.5937  1.2079  0.3743
  584MOL0     O78740  10.396   2.127   4.173 -0.3957  0.2652  0.0101
  584MOL0     C78741  10.495   2.047   4.101  0.6983 -0.0530  0.5815
  584MOL0     C78742  10.545   2.137   3.982 -1.2627 -0.4428  0.3297
  584MOL0     C78743  10.680   2.095   3.941 -0.6260  0.2292  0.3995
  584MOL0     C78744  10.748   2.195   3.841  0.4887 -0.1647 -0.4908
  584MOL0     C78745  10.898   2.176   3.820 -0.3476  0.0602  0.4353
  584MOL0     C78746  10.943   2.039   3.772 -0.3470  1.0027 -0.2673
  584MOL0     C78747  11.095   2.037   3.746 -0.5780  0.9837  0.4614
  584MOL0     C78748  11.137   1.908   3.687 -0.4253  0.1868  0.3375
  584MOL0    Cl78749  11.316   1.937   3.675  0.1364 -0.3864  0.0223
  584MOL0     C78750  10.215   2.070   4.007  0.1798  0.1062  0.0079
  584MOL0     C78751  10.076   2.082   3.973 -0.4014 -0.0204  0.0308
  584MOL0     O78752   9.911   2.326   3.879  0.2434 -0.0698 -0.2293
  584MOL0     C78753   9.599   2.294   4.046  0.2824  0.5578 -0.1689
  584MOL0     C78754   9.464   2.340   4.045  0.1174 -0.5489 -1.0079
  584MOL0     N78755   8.768   2.782   3.882  0.2103 -0.4474  0.1503
  584MOL0     N78756   8.706   2.796   3.991  0.6078 -0.4903  0.0515
  584MOL0     C78757   7.474   2.369   3.856 -0.1264 -0.2769  0.6715
  584MOL0     C78758   7.350   2.318   3.806  0.3758 -0.5171 -0.9200
  584MOL0     C78759   6.907   2.183   3.777  0.5438  0.0249  0.2967
  584MOL0     C78760   6.906   2.051   3.801  0.3824 -0.5185  0.0001
  584MOL0     C78761   6.798   1.971   3.771  0.0833 -0.1204 -0.3703
  584MOL0     C78762   6.676   2.033   3.730 -0.3140  0.7349 -0.6289
  584MOL0     O78763   6.567   1.959   3.700 -0.1124 -0.0499  0.5524
  584MOL0     C78764   6.479   1.995   3.596 -0.3521  0.4584 -0.1133
  584MOL0     C78765   6.426   1.866   3.512  0.1115  0.2607  0.6722
  584MOL0     C78766   6.524   1.776   3.443  0.5640 -0.5413  0.0918
  584MOL0     C78767   6.577   1.839   3.310 -0.4901 -0.7113  0.1536
  584MOL0     C78768   6.468   1.856   3.211 -0.5596  0.4967 -0.1235
  584MOL0     C78769   6.385   1.881   3.130 -0.4293  0.1615  0.0700
  584MOL0     C78770   6.676   2.172   3.714 -0.9194  0.9332  0.5200
  584MOL0     C78771   6.788   2.240   3.721  0.4793 -0.3805  0.3567
  584MOL0     C78772   6.789   2.378   3.660 -0.7041 -0.6734 -0.4918
  584MOL0     H78773   7.208   2.202   4.091 -1.3530  1.6396  0.6263
  584MOL0     H78774   7.442   2.297   4.172  0.6011  0.6898 -0.5365
  584MOL0     H78775   7.745   2.426   3.875 -2.0327 -0.7015  0.2109
  584MOL0     H78776   7.700   2.548   3.973 -1.0941 -0.4114  0.2549
  584MOL0     H78777   7.895   2.319   4.077 -1.3399  1.4495  0.5775
  584MOL0     H78778   7.850   2.456   4.170  1.0496 -0.4327  1.5613
  584MOL0     H78779   7.958   2.595   3.985  2.0403  0.6601  0.1685
  584MOL0     H78780   8.002   2.447   3.907 -1.2134  1.4184 -1.2834
  584MOL0     H78781   8.091   2.494   4.194  1.7163 -1.4281 -0.3888
  584MOL0     H78782   8.148   2.381   4.086  0.6724  0.5834 -0.7386
  584MOL0     H78783   8.244   2.529   3.933 -1.4755  1.5942 -1.2555
  584MOL0     H78784   8.187   2.673   4.009 -0.8560 -0.1202  0.7151
  584MOL0     H78785   8.334   2.620   4.213  3.0591 -2.2441  1.5914
  584MOL0     H78786   8.370   2.462   4.142  1.6712 -0.6688 -1.9132
  584MOL0     H78787   8.439   2.731   4.018 -1.5037 -0.7930 -2.7446
  584MOL0     H78788   8.487   2.579   3.939  1.5527  1.7062 -0.0072
  584MOL0     H78789   8.561   2.681   4.208  1.2147 -0.9488  0.2684
  584MOL0     H78790   8.615   2.520   4.151  0.1758 -0.1913 -0.1377
  584MOL0     H78791   8.803   2.482   3.993  2.9657 -0.3750 -2.2511
  584MOL0     H78792   8.846   2.502   3.741 -2.2705  0.2222  0.5912
  584MOL0     H78793   8.886   2.649   3.666  0.2757  4.0030  1.7128
  584MOL0     H78794   9.092   2.544   3.701 -0.1904  1.3636 -0.2655
  584MOL0     H78795   9.095   2.674   3.812 -1.0226  0.7882 -0.4846
  584MOL0     H78796   8.982   2.395   3.874 -0.8981  0.3310 -2.7352
  584MOL0     H78797   9.050   2.512   3.990 -3.0775 -1.6771  0.1110
  584MOL0     H78798   9.227   2.374   3.794 -1.5248 -1.3130  0.9666
  584MOL0     H78799   9.201   2.308   3.953  0.1689 -0.0441 -1.0682
  584MOL0     H78800   9.479   2.555   3.794 -1.6512  0.6167  0.0516
  584MOL0     H78801   9.718   2.435   3.774  0.5921  0.5823  1.1822
  584MOL0     H78802   9.967   2.233   4.255  0.7907 -0.2267  1.0565
  584MOL0     H78803  10.200   2.190   4.330  1.8561  0.7384  0.1530
  584MOL0     H78804  10.579   2.010   4.160  0.5564 -3.5340 -1.1900
  584MOL0     H78805  10.449   1.959   4.057 -3.3716  2.0762  0.0751
  584MOL0     H78806  10.481   2.136   3.894 -0.9401 -0.6524  0.0972
  584MOL0     H78807  10.554   2.242   4.014 -0.3309 -0.5949  0.5781
  584MOL0     H78808  10.745   2.087   4.029 -2.5492 -0.0458  1.8750
  584MOL0     H78809  10.677   1.994   3.899 -0.6758 -0.0138  0.9776
  584MOL0     H78810  10.742   2.299   3.873  1.4840 -0.4928  0.8374
  584MOL0     H78811  10.695   2.180   3.746 -0.6117 -1.0076  0.2395
  584MOL0     H78812  10.950   2.190   3.916  0.8218  0.0576 -0.1740
  584MOL0     H78813  10.939   2.255   3.757  0.3675  0.1234  0.9637
  584MOL0     H78814  10.916   1.962   3.845 -4.2396 -0.0328 -2.4767
  584MOL0     H78815  10.896   2.027   3.674  1.4716  0.0322 -1.0765
  584MOL0     H78816  11.148   2.056   3.840 -0.8802  0.0388  0.8435
  584MOL0     H78817  11.124   2.117   3.678  1.6216  0.0819  0.2342
  584MOL0     H78818  11.118   1.819   3.747 -2.0562 -0.6375 -1.3289
  584MOL0     H78819  11.101   1.897   3.584  1.9816  0.2081 -0.5874
  584MOL0     H78820  10.288   2.033   3.936 -0.0463  0.1107 -0.2305
  584MOL0     H78821  10.033   2.056   3.876  0.3847 -0.7184 -0.1416
  584MOL0     H78822   9.628   2.231   4.129 -0.0819  0.8270  0.1658
  584MOL0     H78823   9.384   2.313   4.114  0.7494  0.6148  0.2167
  584MOL0     H78824   7.538   2.421   3.786 -2.1739  2.4973  0.6984
  584MOL0     H78825   7.320   2.328   3.702  0.7003 -2.0412 -1.1824
  584MOL0     H78826   7.000   2.000   3.822  0.1573 -0.5791  0.9115
  584MOL0     H78827   6.810   1.863   3.775  3.6058  0.2142  0.9697
  584MOL0     H78828   6.543   2.048   3.525 -0.0039 -1.8574 -1.6448
  584MOL0     H78829   6.397   2.050   3.643 -1.6863  1.5611 -3.4579
  584MOL0     H78830   6.355   1.900   3.436  0.1227 -2.0512 -0.4629
  584MOL0     H78831   6.365   1.806   3.580  1.2666 -1.3995  0.3029
  584MOL0     H78832   6.472   1.684   3.414  1.4926 -0.3951 -2.2583
  584MOL0     H78833   6.598   1.740   3.516  1.5149  0.2322 -0.4789
  584MOL0     H78834   6.621   1.935   3.338 -0.4020  0.4203 -3.3809
  584MOL0     H78835   6.665   1.787   3.273  0.8488  1.3887  0.2304
  584MOL0     H78836   6.300   1.902   3.068  0.0823  0.9478 -0.3831
  584MOL0     H78837   6.584   2.213   3.674 -1.5053  1.0285  1.8935
  584MOL0     H78838   6.713   2.381   3.581 -0.2145  1.7205 -0.9576
  584MOL0     H78839   6.769   2.455   3.735  2.8558 -0.4643  0.4438
  584MOL0     H78840   6.886   2.407   3.618 -1.2779  1.9667 -0.2132
  585MOL0     O78841   1.964   8.572  11.206 -0.3990 -0.5429 -0.7835
  585MOL0     C78842   1.887   8.490  11.169  0.5655 -0.7666  1.2437
  585MOL0     O78843   1.919   8.388  11.076 -0.1856  0.0657 -0.1237
  585MOL0     C78844   2.024   8.402  10.989  0.0872 -0.0835  0.2378
  585MOL0     C78845   2.100   8.289  10.950  0.4937  0.4070  0.4847
  585MOL0     C78846   2.197   8.298  10.858 -0.3176 -0.7544  1.0708
  585MOL0     C78847   2.243   8.426  10.810 -0.1806  0.2333 -0.0183
  585MOL0     O78848   2.367   8.438  10.754 -0.1734 -0.3485  0.4410
  585MOL0     C78849   2.480   8.391  10.824  0.4655 -0.0583  0.4337
  585MOL0     C78850   2.568   8.331  10.714 -0.1418 -0.5355  0.5309
  585MOL0     C78851   2.670   8.234  10.782 -0.2903 -0.2100 -0.1761
  585MOL0     C78852   2.774   8.193  10.682  0.4475  1.5532 -0.2381
  585MOL0     C78853   2.907   8.145  10.743  0.4507  0.5453  0.1622
  585MOL0     C78854   2.895   8.008  10.816  0.5498 -0.6268  0.1486
  585MOL0     C78855   3.027   7.966  10.873 -0.6013 -0.3678 -0.1094
  585MOL0     C78856   3.147   7.948  10.778 -0.0409 -0.0420 -0.0223
  585MOL0     N78857   3.259   7.899  10.857  0.3935  0.5668  0.9237
  585MOL0     C78858   3.312   7.961  10.968  0.1430 -0.1648  0.4297
  585MOL0     C78859   3.431   7.899  10.990 -0.3107 -0.1492 -0.0230
  585MOL0     C78860   3.531   7.933  11.101 -0.0904  0.1696  0.5871
  585MOL0     C78861   3.667   7.960  11.037 -0.4519  0.4810  0.2126
  585MOL0     C78862   3.670   8.103  10.966 -0.4542  0.7398  0.1589
  585MOL0     C78863   3.810   8.145  10.914 -0.5282  0.0474 -0.6530
  585MOL0     O78864   3.912   8.150  11.020  0.0466  1.0453  0.1388
  585MOL0     C78865   4.037   8.179  10.979 -0.2891 -0.1075 -0.3450
  585MOL0     C78866   4.132   8.139  11.068  0.0670  0.8805 -0.7327
  585MOL0     C78867   4.272   8.162  11.041 -0.4744  0.0069  0.6448
  585MOL0     C78868   4.311   8.235  10.921  0.4496 -0.1407 -0.3685
  585MOL0     C78869   4.462   8.259  10.895 -0.6436 -0.3138  0.0543
  585MOL0     O78870   4.553   8.183  10.979  0.2436  0.2042  0.3780
  585MOL0     C78871   4.691   8.190  10.958 -0.5227  0.2303 -1.0284
  585MOL0     C78872   4.766   8.176  10.839  0.5183 -0.5979  0.4578
  585MOL0     C78873   4.907   8.181  10.828 -0.2396 -0.0333 -1.4517
  585MOL0     C78874   4.983   8.212  10.944  0.2741  0.2698 -0.6045
  585MOL0     O78875   5.115   8.233  10.948 -0.5114  0.5601  0.1328
  585MOL0     C78876   5.187   8.219  10.824 -0.9801  0.6317  0.7466
  585MOL0     C78877   5.339   8.223  10.856  0.8935  0.4929  0.7527
  585MOL0     C78878   5.368   8.355  10.924 -0.6844 -0.0067  0.3981
  585MOL0     C78879   5.513   8.347  10.971  0.1599  0.3275  0.8484
  585MOL0     C78880   5.539   8.471  11.050 -0.5040  0.2788  0.5754
  585MOL0     C78881   5.686   8.487  11.090 -0.2825  0.0503  0.9213
  585MOL0     C78882   5.726   8.398  11.210  0.3601 -0.6945 -0.0884
  585MOL0     C78883   5.883   8.398  11.232  0.2614 -0.5317 -0.1917
  585MOL0    Cl78884   5.915   8.310  11.386 -0.3750 -0.2206 -0.1235
  585MOL0     C78885   4.916   8.223  11.066  0.4153 -0.0185  0.3669
  585MOL0     C78886   4.772   8.205  11.074 -1.3067 -0.0689 -0.0861
  585MOL0     O78887   4.490   8.323  10.794 -0.3121  0.1026 -0.0211
  585MOL0     C78888   4.209   8.272  10.835  0.5138 -0.4831  0.6232
  585MOL0     C78889   4.080   8.230  10.858  0.0077  0.3783 -0.6603
  585MOL0     N78890   3.440   7.801  10.901 -0.3176  0.0676  0.6162
  585MOL0     N78891   3.349   7.805  10.810 -0.4411 -0.8169 -0.9185
  585MOL0     C78892   2.169   8.539  10.848  0.0937  0.4463 -0.3290
  585MOL0     C78893   2.060   8.524  10.931 -0.0099  0.5682  0.4255
  585MOL0     C78894   1.750   8.473  11.226 -0.1146 -0.4911 -1.2493
  585MOL0     C78895   1.652   8.393  11.156  0.5441 -0.8961 -0.5401
  585MOL0     C78896   1.530   8.379  11.217  0.1885 -0.5870 -0.0930
  585MOL0     C78897   1.495   8.440  11.334 -0.1141  0.7722 -0.3886
  585MOL0     O78898   1.385   8.422  11.402  0.2412 -0.3597 -0.4263
  585MOL0     C78899   1.285   8.333  11.345  0.2979 -0.5868 -0.0276
  585MOL0     C78900   1.157   8.341  11.434 -0.0409  0.0237  1.0794
  585MOL0     C78901   1.112   8.477  11.490  0.3540 -0.2456 -0.2079
  585MOL0     C78902   1.086   8.578  11.373  0.8547  0.5910  0.7289
  585MOL0     C78903   0.969   8.542  11.303 -0.0737 -0.0479 -0.0250
  585MOL0     C78904   0.859   8.508  11.272 -0.1050 -0.7175  0.2739
  585MOL0     C78905   1.580   8.527  11.395  0.0395 -0.7638 -0.1747
  585MOL0     C78906   1.711   8.532  11.349 -0.1049  0.3765 -0.3871
  585MOL0     C78907   1.800   8.604  11.440  0.3608  0.1571 -0.8073
  585MOL0     H78908   2.070   8.186  10.968  1.4330  0.0349  0.0117
  585MOL0     H78909   2.245   8.213  10.811  2.8327  1.5725 -0.2733
  585MOL0     H78910   2.524   8.481  10.868 -0.1767  1.6740 -2.2323
  585MOL0     H78911   2.464   8.315  10.901 -0.7025 -0.5666 -0.2870
  585MOL0     H78912   2.627   8.413  10.671  1.0532 -2.3149 -1.4225
  585MOL0     H78913   2.499   8.286  10.642 -1.7502  1.3910  0.7804
  585MOL0     H78914   2.614   8.149  10.821 -0.8966 -0.2302 -1.0608
  585MOL0     H78915   2.709   8.287  10.869  0.5548 -0.4106 -0.4145
  585MOL0     H78916   2.735   8.117  10.613  1.1419  0.7541  0.2356
  585MOL0     H78917   2.797   8.275  10.613  2.2276  0.4666 -0.9918
  585MOL0     H78918   2.970   8.122  10.656 -0.7879 -1.5944 -0.2444
  585MOL0     H78919   2.943   8.221  10.814 -2.9291 -0.2295  2.9754
  585MOL0     H78920   2.823   8.011  10.898 -0.9061  3.7899 -1.0058
  585MOL0     H78921   2.844   7.941  10.747 -0.9382  0.7837 -0.1901
  585MOL0     H78922   3.009   7.867  10.916  0.2543 -1.1829 -1.5386
  585MOL0     H78923   3.063   8.028  10.956  2.4377 -3.3052  1.0283
  585MOL0     H78924   3.140   7.875  10.697  0.8131  0.0348 -0.1721
  585MOL0     H78925   3.157   8.046  10.730 -0.0453 -0.3005 -0.5633
  585MOL0     H78926   3.265   8.026  11.042  1.1505  0.0722  0.8795
  585MOL0     H78927   3.496   8.019  11.158  1.3462  0.1378  1.5600
  585MOL0     H78928   3.533   7.845  11.167  0.8840  0.6635  1.2355
  585MOL0     H78929   3.745   7.955  11.113 -1.0089  2.4271  0.9656
  585MOL0     H78930   3.685   7.873  10.973 -0.6140 -0.6084  1.6053
  585MOL0     H78931   3.628   8.178  11.034 -0.0160  0.2941  0.9480
  585MOL0     H78932   3.593   8.093  10.889  0.6648 -0.5174 -0.8657
  585MOL0     H78933   3.795   8.244  10.869 -2.2681  0.7910  1.3414
  585MOL0     H78934   3.831   8.070  10.837  1.2576 -0.9693  0.7507
  585MOL0     H78935   4.099   8.093  11.161  1.1058  0.7733 -0.4015
  585MOL0     H78936   4.343   8.137  11.120  0.2178  0.1983  0.0909
  585MOL0     H78937   4.707   8.161  10.749  1.4627  0.8308 -0.4261
  585MOL0     H78938   4.948   8.155  10.730 -0.7783  0.5187 -1.8289
  585MOL0     H78939   5.160   8.129  10.768  0.6133  0.2553  0.5305
  585MOL0     H78940   5.164   8.295  10.749 -2.7387 -1.6293 -1.1699
  585MOL0     H78941   5.366   8.137  10.918 -1.7822  1.0549  2.9094
  585MOL0     H78942   5.390   8.200  10.762 -2.0299 -3.0917 -0.2078
  585MOL0     H78943   5.344   8.447  10.869 -1.1250  1.3035  2.6693
  585MOL0     H78944   5.299   8.364  11.009 -1.1134  0.3597  0.0205
  585MOL0     H78945   5.575   8.343  10.881 -0.3034 -6.3187  0.3269
  585MOL0     H78946   5.534   8.254  11.026  4.7062  0.7620  0.1698
  585MOL0     H78947   5.477   8.467  11.140  0.4295  2.5406  1.4136
  585MOL0     H78948   5.518   8.563  10.995  1.3225 -0.7081 -1.9808
  585MOL0     H78949   5.749   8.454  11.007 -2.6705 -1.8703 -0.2396
  585MOL0     H78950   5.705   8.592  11.115  1.0371 -0.2635  1.3016
  585MOL0     H78951   5.706   8.296  11.176  0.4273  0.0392 -2.5011
  585MOL0     H78952   5.674   8.432  11.300  0.7752  2.0764 -0.8018
  585MOL0     H78953   5.933   8.352  11.146 -0.1532 -0.2760 -0.5705
  585MOL0     H78954   5.913   8.503  11.237  0.4849 -0.5495 -0.9513
  585MOL0     H78955   4.971   8.235  11.159 -0.9757 -0.2794  1.2513
  585MOL0     H78956   4.725   8.236  11.167  0.0680  0.5587  0.4356
  585MOL0     H78957   4.222   8.328  10.743  1.7904  2.2556  2.3525
  585MOL0     H78958   4.004   8.244  10.783  0.1456  0.9751 -0.6958
  585MOL0     H78959   2.209   8.639  10.834 -0.4635  0.8487  0.8357
  585MOL0     H78960   2.009   8.608  10.977  3.0984  1.7739  1.9410
  585MOL0     H78961   1.678   8.362  11.056 -0.5212  3.5868 -2.4178
  585MOL0     H78962   1.478   8.315  11.147  1.6643 -2.1902  0.2184
  585MOL0     H78963   1.315   8.228  11.351  0.9156 -0.3867  0.6166
  585MOL0     H78964   1.259   8.374  11.247 -2.5585  1.8744  1.5907
  585MOL0     H78965   1.178   8.279  11.522  0.4912  0.8382  1.5403
  585MOL0     H78966   1.068   8.304  11.383 -0.8234  2.5709  0.4352
  585MOL0     H78967   1.183   8.508  11.567  0.4722  0.7719 -0.7050
  585MOL0     H78968   1.013   8.472  11.535 -0.5301  3.6295 -1.3209
  585MOL0     H78969   1.065   8.677  11.413 -2.9126  0.0945  0.2758
  585MOL0     H78970   1.168   8.588  11.301 -0.9679  1.2401 -1.3636
  585MOL0     H78971   0.756   8.485  11.252  0.4291 -1.3651 -1.9908
  585MOL0     H78972   1.546   8.580  11.483 -1.8271  1.3416 -2.0070
  585MOL0     H78973   1.816   8.708  11.408 -0.1046  0.2827 -0.6464
  585MOL0     H78974   1.761   8.615  11.542 -1.8095  1.9317 -1.7408
  585MOL0     H78975   1.904   8.572  11.435 -0.2673 -1.8382 -3.6837
  586MOL0     O78976   3.343   9.073   1.531  0.1712  0.1691 -0.3661
  586MOL0     C78977   3.288   8.984   1.593  0.8266  0.6871 -0.3496
  586MOL0     O78978   3.322   8.941   1.714  0.1186  0.7143  0.3218
  586MOL0     C78979   3.450   8.970   1.760  0.2893  0.9390 -0.7728
  586MOL0     C78980   3.551   8.871   1.734 -1.2778  0.4443 -0.8389
  586MOL0     C78981   3.680   8.892   1.775 -0.1224  0.3712  0.6699
  586MOL0     C78982   3.718   9.005   1.846 -0.6500  0.3515 -0.1757
  586MOL0     O78983   3.850   9.023   1.864 -0.1580  0.5922  0.2819
  586MOL0     C78984   3.891   9.080   1.994 -0.4297 -0.2562 -0.0397
  586MOL0     C78985   4.020   9.029   2.026  0.8314 -0.2151  0.6297
  586MOL0     C78986   4.072   9.107   2.157  0.1673 -0.1216  0.3159
  586MOL0     C78987   4.225   9.077   2.183  0.4718  0.3603  0.6494
  586MOL0     C78988   4.260   8.929   2.165 -0.2496 -0.0462 -0.4573
  586MOL0     C78989   4.416   8.921   2.166  0.3357 -0.0049  0.4096
  586MOL0     C78990   4.497   8.977   2.277 -0.5940 -0.4488  0.4845
  586MOL0     C78991   4.564   8.871   2.354 -0.3495 -0.7134  0.3631
  586MOL0     N78992   4.669   8.941   2.439  0.4633 -0.3056 -0.9165
  586MOL0     C78993   4.801   8.950   2.420 -0.4445 -0.4173 -0.5107
  586MOL0     C78994   4.853   9.020   2.522  0.3541  0.5498  0.2226
  586MOL0     C78995   4.999   9.046   2.534  0.2017 -0.7277 -0.2709
  586MOL0     C78996   5.043   9.177   2.472  0.1254 -0.1000 -0.6011
  586MOL0     C78997   5.074   9.155   2.326  0.3122 -0.0659 -0.0750
  586MOL0     C78998   5.200   9.079   2.278  0.0269 -0.3293  0.9171
  586MOL0     O78999   5.306   9.121   2.367 -0.2281  0.1862  0.2111
  586MOL0     C79000   5.434   9.123   2.323 -0.4333 -0.6596 -0.1817
  586MOL0     C79001   5.487   9.061   2.215 -0.2227 -1.0321  0.1417
  586MOL0     C79002   5.607   9.092   2.158 -0.5565  0.4411 -0.4843
  586MOL0     C79003   5.703   9.162   2.217  0.7041 -0.1664  0.5639
  586MOL0     C79004   5.822   9.192   2.143  0.2580 -0.4180  0.0637
  586MOL0     O79005   5.823   9.186   2.008 -0.2113 -0.1604  0.0562
  586MOL0     C79006   5.929   9.218   1.928 -0.9964 -0.2843 -0.0537
  586MOL0     C79007   6.037   9.300   1.959 -0.2708 -0.9030  0.0081
  586MOL0     C79008   6.136   9.338   1.862 -0.2168  0.5081 -0.3145
  586MOL0     C79009   6.131   9.282   1.731 -0.0838  0.3002 -0.0015
  586MOL0     O79010   6.235   9.281   1.638 -0.1855 -0.3200  0.7611
  586MOL0     C79011   6.351   9.342   1.675 -0.7785 -0.5904  0.2720
  586MOL0     C79012   6.472   9.295   1.586  0.3050  0.6806  0.2592
  586MOL0     C79013   6.517   9.148   1.624  0.4286 -0.8471  0.3689
  586MOL0     C79014   6.623   9.095   1.535  0.4156 -0.1419 -0.1239
  586MOL0     C79015   6.656   8.947   1.526  0.8507  0.0830  0.0040
  586MOL0     C79016   6.678   8.883   1.659  0.0750  0.2426  0.8064
  586MOL0     C79017   6.703   8.730   1.658  0.3800 -0.1523 -0.4288
  586MOL0     C79018   6.827   8.693   1.584  0.3649  0.4274 -0.1930
  586MOL0    Cl79019   6.868   8.513   1.556  0.4294  0.1732  0.4366
  586MOL0     C79020   6.019   9.191   1.693 -0.4556 -0.5906  0.3589
  586MOL0     C79021   5.929   9.163   1.802  0.7859  0.3914  0.1567
  586MOL0     O79022   5.913   9.223   2.214  0.4602  0.3726  0.3961
  586MOL0     C79023   5.661   9.223   2.344  0.6581 -0.5952 -0.0273
  586MOL0     C79024   5.532   9.203   2.396 -0.2437 -0.4814 -0.4392
  586MOL0     N79025   4.750   9.067   2.597  0.3092  0.1886  0.2720
  586MOL0     N79026   4.642   9.021   2.545  0.2238  0.1089 -0.4152
  586MOL0     C79027   3.619   9.098   1.884 -0.4949  0.2868 -0.1349
  586MOL0     C79028   3.481   9.084   1.832 -0.2699  0.1824 -0.2871
  586MOL0     C79029   3.164   8.923   1.536  0.7670  0.2305 -0.0400
  586MOL0     C79030   3.101   8.993   1.436  0.4684 -0.0751  0.8143
  586MOL0     C79031   2.980   8.942   1.374  0.0838  0.1602 -1.1930
  586MOL0     C79032   2.930   8.815   1.410  0.2428  0.1786  0.7725
  586MOL0     O79033   2.818   8.772   1.334  0.2457  0.1935 -0.1893
  586MOL0     C79034   2.772   8.637   1.365 -0.7932 -1.2182 -0.2943
  586MOL0     C79035   2.656   8.592   1.284 -0.1866 -0.0716  1.2883
  586MOL0     C79036   2.522   8.666   1.324 -0.0903  0.1005  0.3782
  586MOL0     C79037   2.394   8.596   1.276  1.0674 -0.5934  0.5942
  586MOL0     C79038   2.398   8.572   1.135  0.5755 -0.4896 -0.1728
  586MOL0     C79039   2.425   8.539   1.023  0.2436  0.1146  0.2812
  586MOL0     C79040   2.991   8.743   1.511  0.5036  0.1725  0.8836
  586MOL0     C79041   3.096   8.797   1.574 -0.9039  0.7058  0.5378
  586MOL0     C79042   3.147   8.719   1.695 -0.2777 -0.6253 -0.0067
  586MOL0     H79043   3.507   8.786   1.683 -3.4335  0.6566  0.5539
  586MOL0     H79044   3.749   8.810   1.762 -3.5152 -2.5032 -0.8955
  586MOL0     H79045   3.880   9.188   1.982  2.3410  0.1800  0.6795
  586MOL0     H79046   3.820   9.055   2.073  1.4378  1.9602  2.5266
  586MOL0     H79047   4.084   9.039   1.938 -1.0334  0.4210 -0.7213
  586MOL0     H79048   4.024   8.921   2.036  0.6026 -0.4929 -1.7547
  586MOL0     H79049   4.016   9.079   2.246 -0.9035  1.5101  0.2020
  586MOL0     H79050   4.064   9.213   2.131 -1.3219 -0.7186 -2.0361
  586MOL0     H79051   4.287   9.131   2.112  1.3326 -2.8603 -1.2508
  586MOL0     H79052   4.244   9.116   2.284  2.0635 -1.4258  1.0967
  586MOL0     H79053   4.212   8.870   2.244 -0.3825  0.1964 -0.3527
  586MOL0     H79054   4.231   8.874   2.075  3.8317 -1.8474 -0.9338
  586MOL0     H79055   4.433   8.815   2.144 -3.6676 -0.2588 -2.5994
  586MOL0     H79056   4.450   8.974   2.077  0.1783  1.0152  0.9427
  586MOL0     H79057   4.439   9.044   2.341  0.6498  2.3909 -1.1686
  586MOL0     H79058   4.576   9.041   2.234 -2.4464  0.2742 -2.0975
  586MOL0     H79059   4.494   8.812   2.414 -0.9475 -0.9524 -0.5314
  586MOL0     H79060   4.618   8.811   2.279  0.1769  3.0318 -2.5658
  586MOL0     H79061   4.863   8.894   2.351  0.2148  0.4686 -0.6471
  586MOL0     H79062   5.020   9.057   2.641 -3.4003 -0.5831  0.5532
  586MOL0     H79063   5.046   8.958   2.490 -0.4556 -0.0708 -2.4065
  586MOL0     H79064   4.959   9.245   2.488 -0.2901 -1.5109  5.1431
  586MOL0     H79065   5.132   9.226   2.513 -1.4650  2.0877  0.3880
  586MOL0     H79066   5.081   9.254   2.281  1.0666  0.0232  0.2383
  586MOL0     H79067   4.993   9.095   2.282 -0.5083 -1.3524  2.9371
  586MOL0     H79068   5.216   9.109   2.174  3.1612 -0.6743  1.1892
  586MOL0     H79069   5.200   8.969   2.278 -1.5972 -0.3497  1.4530
  586MOL0     H79070   5.436   8.987   2.155  0.7904 -0.7345 -1.1226
  586MOL0     H79071   5.627   9.061   2.056  1.5337  0.7375 -0.1932
  586MOL0     H79072   6.040   9.337   2.061 -1.3177 -1.0699  0.1072
  586MOL0     H79073   6.225   9.392   1.894 -0.2138 -0.0280  0.6340
  586MOL0     H79074   6.331   9.448   1.661 -0.0688 -0.5510 -0.5749
  586MOL0     H79075   6.385   9.338   1.778  1.8131 -0.3483 -0.4976
  586MOL0     H79076   6.430   9.304   1.486 -1.2143  1.5548  0.9537
  586MOL0     H79077   6.553   9.367   1.601  0.7988  0.3550 -0.7197
  586MOL0     H79078   6.553   9.160   1.727  1.3532 -0.6695  0.0267
  586MOL0     H79079   6.434   9.076   1.621  0.0766 -0.4049 -0.6485
  586MOL0     H79080   6.714   9.148   1.563  1.1863 -0.5833 -1.6960
  586MOL0     H79081   6.591   9.125   1.435  5.2330 -1.2969 -2.2927
  586MOL0     H79082   6.746   8.936   1.466  1.1692 -0.4701  0.5657
  586MOL0     H79083   6.582   8.888   1.471  1.1104  1.1797 -1.5735
  586MOL0     H79084   6.771   8.918   1.703  1.8646 -3.9736  0.9072
  586MOL0     H79085   6.588   8.901   1.720 -0.1949 -1.8709  1.1082
  586MOL0     H79086   6.614   8.683   1.615  0.2004  0.7440 -1.0779
  586MOL0     H79087   6.727   8.688   1.756  1.1740 -0.3194 -0.6884
  586MOL0     H79088   6.814   8.735   1.484  2.7235 -1.0900 -1.2071
  586MOL0     H79089   6.915   8.731   1.636  4.6779 -1.5788 -5.1800
  586MOL0     H79090   6.028   9.159   1.590  0.2515  0.9878 -0.0942
  586MOL0     H79091   5.842   9.101   1.780 -1.3107  2.7681  1.1654
  586MOL0     H79092   5.734   9.279   2.403 -0.9223  0.3180  1.1316
  586MOL0     H79093   5.504   9.247   2.491  0.1259 -1.0647 -0.0532
  586MOL0     H79094   3.655   9.181   1.944 -0.4969  0.8085 -0.8398
  586MOL0     H79095   3.410   9.164   1.849 -0.2107  0.3781 -0.9451
  586MOL0     H79096   3.125   9.096   1.412 -1.9589  0.6545  1.2147
  586MOL0     H79097   2.931   9.006   1.302 -0.6968  0.7470 -0.1647
  586MOL0     H79098   2.752   8.628   1.472  1.2277 -0.3498  0.2165
  586MOL0     H79099   2.851   8.569   1.333 -0.9604 -0.3741 -2.7313
  586MOL0     H79100   2.653   8.483   1.292  3.6620 -0.6365 -1.8327
  586MOL0     H79101   2.666   8.594   1.175 -0.4493 -2.9524  1.1310
  586MOL0     H79102   2.518   8.766   1.280 -1.5210 -0.2957 -0.4715
  586MOL0     H79103   2.513   8.679   1.432  1.9063  0.5167  0.5293
  586MOL0     H79104   2.375   8.501   1.328 -4.1008  0.6082  1.5128
  586MOL0     H79105   2.309   8.663   1.292  0.3957 -1.2725 -0.0184
  586MOL0     H79106   2.440   8.511   0.921  0.4049  0.4996  0.1959
  586MOL0     H79107   2.961   8.641   1.534  0.3825  0.0140  0.0673
  586MOL0     H79108   3.099   8.623   1.720  1.2751 -0.3874  4.8938
  586MOL0     H79109   3.254   8.700   1.685  0.8692  3.3144  2.4703
  586MOL0     H79110   3.129   8.782   1.782  0.4189  1.0891 -1.0575
  587MOL0     O79111  10.513   5.973   7.054 -0.5318  0.4962  0.1810
  587MOL0     C79112  10.484   6.046   7.144  0.3537 -0.4157  0.6846
  587MOL0     O79113  10.568   6.123   7.217  0.5651 -0.3567 -0.8434
  587MOL0     C79114  10.691   6.134   7.161 -0.2491  0.3591 -0.0582
  587MOL0     C79115  10.702   6.207   7.046 -0.2860  0.4650  0.4610
  587MOL0     C79116  10.822   6.228   6.978 -0.7655  0.2121 -0.5603
  587MOL0     C79117  10.940   6.161   7.025 -0.2204  0.0036 -0.7985
  587MOL0     O79118  11.060   6.182   6.969 -0.0547 -0.6050 -0.1445
  587MOL0     C79119  11.058   6.149   6.826 -0.2073 -0.4805 -0.0661
  587MOL0     C79120  11.198   6.149   6.759 -0.7575 -0.8790 -0.4405
  587MOL0     C79121  11.257   6.009   6.783  0.1951 -0.0713 -0.3455
  587MOL0     C79122  11.378   5.979   6.705 -0.7413  1.4832 -0.5859
  587MOL0     C79123  11.426   5.827   6.726  0.3626  0.1989 -0.0140
  587MOL0     C79124  11.545   5.790   6.631 -0.5682  0.6741 -0.3860
  587MOL0     C79125  11.601   5.644   6.645  0.3819 -0.2752  0.2564
  587MOL0     C79126  11.495   5.542   6.622 -0.5628  0.2157  0.3771
  587MOL0     N79127  11.434   5.545   6.485 -0.3260 -0.5652  0.3646
  587MOL0     C79128  11.506   5.542   6.368  0.3648  0.5804  0.2960
  587MOL0     C79129  11.418   5.587   6.278 -0.8569 -0.9442  0.4748
  587MOL0     C79130  11.442   5.597   6.125  0.8071  0.4791 -0.7114
  587MOL0     C79131  11.438   5.462   6.048  0.2576 -0.0473  0.1549
  587MOL0     C79132  11.385   5.467   5.904 -0.1216  0.9862 -0.3403
  587MOL0     C79133  11.479   5.546   5.827 -1.1583 -0.8627 -0.2269
  587MOL0     O79134  11.608   5.485   5.833  0.2019  0.0913 -0.5584
  587MOL0     C79135  11.648   5.399   5.734  0.1261  0.2006 -0.8101
  587MOL0     C79136  11.576   5.374   5.617  0.3483  1.3461  0.8870
  587MOL0     C79137  11.614   5.263   5.531 -0.4291 -0.4797 -0.0567
  587MOL0     C79138  11.736   5.195   5.556  0.4786  0.8235 -0.5768
  587MOL0     C79139  11.805   5.109   5.449  1.3634 -0.0530 -0.7546
  587MOL0     O79140  11.905   5.025   5.481  0.7110  0.4114  0.1748
  587MOL0     C79141  11.987   4.966   5.383 -0.7459 -0.4328  0.0804
  587MOL0     C79142  12.038   5.037   5.274 -0.2167 -0.2629  0.6045
  587MOL0     C79143  12.124   4.983   5.183  0.0086  0.1249 -0.1799
  587MOL0     C79144  12.166   4.846   5.198 -0.2006 -0.6256 -0.8800
  587MOL0     O79145  12.246   4.800   5.109 -0.3102 -0.4799  0.0593
  587MOL0     C79146  12.255   4.657   5.080  0.5204  0.1255  0.2488
  587MOL0     C79147  12.349   4.648   4.959  0.3931  0.3607 -0.4162
  587MOL0     C79148  12.486   4.690   4.993 -0.9065 -0.0529  0.5036
  587MOL0     C79149  12.585   4.671   4.867 -0.4775 -0.6830  0.2274
  587MOL0     C79150  12.726   4.696   4.917 -0.6542  1.1111 -0.2801
  587MOL0     C79151  12.838   4.694   4.810  0.3491  0.6143 -0.4266
  587MOL0     C79152  12.964   4.751   4.863 -0.4208 -0.2413  0.2800
  587MOL0     C79153  13.068   4.786   4.756  0.4809  0.1666  0.3715
  587MOL0    Cl79154  13.067   4.650   4.641  0.1123 -0.2731  0.7347
  587MOL0     C79155  12.107   4.771   5.307 -0.6530 -0.1275  0.3991
  587MOL0     C79156  12.031   4.833   5.407  0.3124  0.2975  0.3419
  587MOL0     O79157  11.752   5.124   5.332  0.0387  0.4789  0.1314
  587MOL0     C79158  11.806   5.217   5.674 -0.1119 -0.3023  0.6225
  587MOL0     C79159  11.754   5.318   5.762  0.4167 -0.0756  1.5074
  587MOL0     N79160  11.294   5.601   6.333  0.1757 -0.2225 -0.0925
  587MOL0     N79161  11.310   5.579   6.464  0.1963 -0.3283  1.2650
  587MOL0     C79162  10.929   6.086   7.143 -0.0870 -0.0046 -0.4441
  587MOL0     C79163  10.804   6.067   7.208  0.3864  0.1429 -0.4418
  587MOL0     C79164  10.344   6.035   7.197 -0.7774 -0.4640  0.2072
  587MOL0     C79165  10.268   5.915   7.185  0.6119  0.5332  0.2041
  587MOL0     C79166  10.135   5.906   7.215  0.0185  0.3188  0.3374
  587MOL0     C79167  10.069   6.011   7.276 -0.7799  0.9109  0.2779
  587MOL0     O79168   9.936   5.992   7.308  0.0671  0.4289  0.2585
  587MOL0     C79169   9.881   6.052   7.426 -0.1044  0.4498  0.5615
  587MOL0     C79170   9.947   6.011   7.556  0.6593 -0.1027  0.0536
  587MOL0     C79171   9.957   5.863   7.587 -0.4855  0.4957 -0.1054
  587MOL0     C79172   9.966   5.814   7.730  0.8828 -0.0955  0.7786
  587MOL0     C79173  10.037   5.909   7.816  0.2438 -0.8054  0.3328
  587MOL0     C79174  10.095   5.981   7.901 -0.0623  0.5468  0.6360
  587MOL0     C79175  10.133   6.129   7.281  0.2140  0.6376 -0.4813
  587MOL0     C79176  10.267   6.149   7.237  0.7093  0.5564  0.7200
  587MOL0     C79177  10.332   6.280   7.254 -0.2166 -0.2342  0.8341
  587MOL0     H79178  10.613   6.254   7.004 -0.0094  1.1634  0.6397
  587MOL0     H79179  10.832   6.288   6.888  2.3086  0.9777  0.1810
  587MOL0     H79180  11.014   6.050   6.811 -0.2653 -0.5538  0.5337
  587MOL0     H79181  11.004   6.224   6.767  1.6055  0.2305 -0.8982
  587MOL0     H79182  11.265   6.224   6.800  0.0106 -2.0519  0.5090
  587MOL0     H79183  11.188   6.172   6.652  1.1420  0.2143 -0.4319
  587MOL0     H79184  11.184   5.934   6.752  1.5255 -1.0546 -1.2200
  587MOL0     H79185  11.286   5.984   6.885 -0.4694 -2.4344 -0.6764
  587MOL0     H79186  11.373   5.995   6.597  0.8251  0.2504 -0.8851
  587MOL0     H79187  11.456   6.052   6.733 -0.8555  1.1225  0.7231
  587MOL0     H79188  11.444   5.810   6.833 -0.8166 -3.1574 -0.2162
  587MOL0     H79189  11.339   5.765   6.703  0.3615 -0.5922  1.9058
  587MOL0     H79190  11.528   5.805   6.524 -0.1895  1.1491 -0.3803
  587MOL0     H79191  11.627   5.858   6.655 -1.2939  1.0167  1.2751
  587MOL0     H79192  11.649   5.633   6.743 -0.1329  1.7479  0.7843
  587MOL0     H79193  11.682   5.642   6.572  0.0800 -1.0707 -0.0681
  587MOL0     H79194  11.536   5.441   6.632  1.1529  0.9056  0.4811
  587MOL0     H79195  11.411   5.542   6.692 -1.2325  0.3889 -0.4049
  587MOL0     H79196  11.607   5.508   6.350  0.4304  0.8390  0.1666
  587MOL0     H79197  11.375   5.667   6.074 -1.4673 -0.3689  0.9380
  587MOL0     H79198  11.547   5.627   6.119  0.8203  0.2223 -1.9330
  587MOL0     H79199  11.536   5.415   6.055 -0.1735 -1.0038 -0.1069
  587MOL0     H79200  11.368   5.403   6.108  0.2379  1.6214  1.8931
  587MOL0     H79201  11.283   5.506   5.899 -0.5405 -0.0678 -0.2370
  587MOL0     H79202  11.401   5.365   5.865  1.5514  0.4190  1.6586
  587MOL0     H79203  11.483   5.647   5.869 -1.2242 -1.0948  0.3487
  587MOL0     H79204  11.430   5.552   5.729 -1.2544  1.3862 -0.0755
  587MOL0     H79205  11.484   5.421   5.587  0.1532  0.0013 -0.7934
  587MOL0     H79206  11.554   5.248   5.442  0.2093  2.1236 -1.0207
  587MOL0     H79207  12.017   5.143   5.262  2.1317  0.2563  0.5935
  587MOL0     H79208  12.141   5.050   5.100  0.9627  0.3291  0.1748
  587MOL0     H79209  12.300   4.601   5.163  1.0723  0.0606 -0.0936
  587MOL0     H79210  12.162   4.607   5.051 -0.2241  1.0986  0.8845
  587MOL0     H79211  12.356   4.548   4.917  1.7549  0.0213  0.5508
  587MOL0     H79212  12.312   4.704   4.872  0.8330  2.0265  0.4280
  587MOL0     H79213  12.487   4.793   5.032  2.6723  0.0996  0.3196
  587MOL0     H79214  12.516   4.630   5.079  0.0617 -0.3336 -0.0163
  587MOL0     H79215  12.573   4.745   4.787  0.4007 -0.3491  0.4023
  587MOL0     H79216  12.579   4.568   4.831 -2.2375 -0.3501 -0.5523
  587MOL0     H79217  12.754   4.615   4.985  0.6663  1.6464 -0.1492
  587MOL0     H79218  12.732   4.791   4.970 -2.5165  1.8716 -1.3378
  587MOL0     H79219  12.854   4.588   4.789  1.4935  0.5880  0.4673
  587MOL0     H79220  12.804   4.729   4.712  2.8790 -0.1640 -1.6800
  587MOL0     H79221  13.004   4.679   4.935 -0.4926  0.0729  0.6428
  587MOL0     H79222  12.942   4.846   4.913  0.3712  0.6302 -0.9757
  587MOL0     H79223  13.040   4.881   4.711  0.2324 -0.8614 -1.7455
  587MOL0     H79224  13.169   4.800   4.796  1.5820 -0.8394 -1.8663
  587MOL0     H79225  12.121   4.665   5.321  1.4248 -0.9923 -5.3664
  587MOL0     H79226  11.997   4.771   5.489  0.0701 -0.9157 -0.6382
  587MOL0     H79227  11.894   5.156   5.689  0.3891  0.2515  0.0327
  587MOL0     H79228  11.801   5.338   5.858  0.3882 -3.2263  2.2819
  587MOL0     H79229  11.019   6.031   7.170 -1.2089 -2.7422 -1.7944
  587MOL0     H79230  10.805   6.000   7.294  2.6731  0.1921 -0.3751
  587MOL0     H79231  10.310   5.819   7.156 -0.0959 -0.7111  2.9711
  587MOL0     H79232  10.073   5.817   7.213 -1.4013  1.2838 -1.2873
  587MOL0     H79233   9.778   6.015   7.431  0.1184 -1.1856 -3.4218
  587MOL0     H79234   9.876   6.161   7.417 -0.7435  0.3805 -0.0049
  587MOL0     H79235   9.877   6.060   7.625  0.2696 -0.5955  0.0105
  587MOL0     H79236  10.049   6.051   7.552  1.5118 -2.1929 -0.0756
  587MOL0     H79237  10.036   5.817   7.527  0.9846 -2.9467  3.9652
  587MOL0     H79238   9.872   5.811   7.541 -0.8780  2.0849 -1.2279
  587MOL0     H79239   9.861   5.811   7.760  0.1867  1.6246 -1.2310
  587MOL0     H79240  10.005   5.712   7.740  0.7011 -0.3576 -0.9258
  587MOL0     H79241  10.144   6.043   7.974  3.0824 -0.5158 -0.4295
  587MOL0     H79242  10.083   6.213   7.330 -1.1288  0.4326 -1.4356
  587MOL0     H79243  10.257   6.359   7.263  0.5123  0.6660 -0.6520
  587MOL0     H79244  10.393   6.284   7.345 -1.1611  0.1882  1.4583
  587MOL0     H79245  10.390   6.316   7.169  1.3666 -1.4447  1.3374
  588MOL0     O79246   4.604   6.122   0.510  0.6328  0.7377  0.1044
  588MOL0     C79247   4.594   5.997   0.494 -1.5203 -0.0733  0.2994
  588MOL0     O79248   4.650   5.934   0.388  0.1779  0.2395 -0.3391
  588MOL0     C79249   4.731   6.001   0.305  0.5187 -0.4118 -0.0512
  588MOL0     C79250   4.701   6.013   0.164  0.2289 -0.2435  0.0917
  588MOL0     C79251   4.774   6.086   0.082  0.3204 -0.4324  0.6220
  588MOL0     C79252   4.878   6.163   0.126 -0.2469 -0.5162 -0.1461
  588MOL0     O79253   4.930   6.239   0.029  0.4867 -0.2861 -0.4983
  588MOL0     C79254   5.051   6.314   0.041 -0.8962 -0.3568 -0.2522
  588MOL0     C79255   5.186   6.230   0.049  0.6443  0.4798 -0.2525
  588MOL0     C79256   5.215   6.150  -0.079  0.1802  0.3181  0.1491
  588MOL0     C79257   5.362   6.100  -0.079 -0.3904  0.6476  0.6247
  588MOL0     C79258   5.474   6.206  -0.084 -0.1135  0.5255  0.1514
  588MOL0     C79259   5.612   6.158  -0.080  0.3436 -0.1583 -0.7684
  588MOL0     C79260   5.705   6.278  -0.079 -0.2637  0.1643 -0.7149
  588MOL0     C79261   5.859   6.243  -0.082  0.2613 -0.1953 -0.2190
  588MOL0     N79262   5.895   6.138   0.016  0.5860  0.3718 -0.1913
  588MOL0     C79263   5.939   6.169   0.143 -0.8393  0.5244 -0.2061
  588MOL0     C79264   5.984   6.050   0.193 -0.3183  0.1915  0.0176
  588MOL0     C79265   6.041   6.039   0.335 -0.6608 -0.9906  0.3604
  588MOL0     C79266   6.175   6.106   0.351 -0.5847 -0.3895 -0.3702
  588MOL0     C79267   6.198   6.256   0.325 -0.2712  1.1579  0.0880
  588MOL0     C79268   6.345   6.293   0.323 -0.7554 -0.0905  0.1215
  588MOL0     O79269   6.406   6.258   0.447 -0.3714  0.4119 -0.3723
  588MOL0     C79270   6.515   6.173   0.434 -0.2190  0.0573 -0.7948
  588MOL0     C79271   6.634   6.215   0.384  0.2220  0.1239 -1.1443
  588MOL0     C79272   6.753   6.141   0.392  0.5072 -0.3420  0.2332
  588MOL0     C79273   6.740   6.015   0.447  1.5167  0.1891  0.4284
  588MOL0     C79274   6.852   5.929   0.451 -0.5019  0.0546 -0.1676
  588MOL0     O79275   6.967   5.986   0.428 -0.3592  0.1249  0.1639
  588MOL0     C79276   7.090   5.919   0.434  0.0510 -0.4500  0.3905
  588MOL0     C79277   7.134   5.867   0.557  0.5177 -0.4480 -0.1949
  588MOL0     C79278   7.260   5.809   0.566  0.6031  0.6421 -0.3807
  588MOL0     C79279   7.352   5.809   0.459  0.8355 -0.0061 -0.6244
  588MOL0     O79280   7.469   5.743   0.471 -0.3807 -0.8204 -0.2363
  588MOL0     C79281   7.569   5.759   0.370  0.9374  1.2326  0.5658
  588MOL0     C79282   7.572   5.647   0.257  0.1339 -0.0569 -0.2489
  588MOL0     C79283   7.583   5.505   0.332 -0.0726  0.0883 -0.1943
  588MOL0     C79284   7.616   5.400   0.228 -1.2136 -0.9867  0.5339
  588MOL0     C79285   7.678   5.273   0.286 -0.1365 -0.9053 -0.4835
  588MOL0     C79286   7.706   5.178   0.171 -0.3771  0.1412 -0.1906
  588MOL0     C79287   7.823   5.230   0.097  0.0608  0.7324 -0.5733
  588MOL0     C79288   7.856   5.116   0.002  0.1321 -0.2754 -0.1296
  588MOL0    Cl79289   7.905   4.956   0.065 -0.6126 -0.1054  0.0220
  588MOL0     C79290   7.308   5.867   0.339  0.2575  0.5934  0.7121
  588MOL0     C79291   7.182   5.922   0.326  0.0915  0.9941  0.6801
  588MOL0     O79292   6.836   5.815   0.470  0.7884  0.2877 -0.2529
  588MOL0     C79293   6.608   5.963   0.476 -0.8102 -0.1846  0.3329
  588MOL0     C79294   6.500   6.045   0.475  0.1552  0.0125  0.0612
  588MOL0     N79295   5.949   5.947   0.107  0.3989  0.1278 -0.3590
  588MOL0     N79296   5.893   5.999   0.001  0.2316 -0.8374  0.2830
  588MOL0     C79297   4.918   6.146   0.265 -0.1684 -0.0623  0.2814
  588MOL0     C79298   4.847   6.055   0.352  0.4390 -1.2658  0.6747
  588MOL0     C79299   4.512   5.923   0.594  0.7076 -0.3169 -0.4146
  588MOL0     C79300   4.480   5.794   0.557  0.1469 -0.1734 -0.7418
  588MOL0     C79301   4.394   5.715   0.632 -0.0836 -0.2039  0.6621
  588MOL0     C79302   4.347   5.753   0.754 -0.2021  0.4832 -0.1788
  588MOL0     O79303   4.254   5.676   0.819 -0.3301  0.6196 -1.0359
  588MOL0     C79304   4.262   5.534   0.824 -0.0605  0.1132 -0.8034
  588MOL0     C79305   4.302   5.496   0.968 -0.4219  0.3524  0.4616
  588MOL0     C79306   4.347   5.347   0.980 -0.4302  0.1460  0.4575
  588MOL0     C79307   4.399   5.295   1.113 -0.9475  0.1881  0.1426
  588MOL0     C79308   4.519   5.370   1.157 -0.3085 -0.2287  0.1279
  588MOL0     C79309   4.609   5.441   1.195  1.0425 -0.1694  0.1581
  588MOL0     C79310   4.376   5.884   0.795  0.1127 -0.1397  0.2699
  588MOL0     C79311   4.457   5.972   0.719  0.1406  0.3462  0.9940
  588MOL0     C79312   4.506   6.104   0.773  0.6859 -0.6110 -1.2134
  588MOL0     H79313   4.611   5.957   0.142  0.2741 -0.3679  0.2309
  588MOL0     H79314   4.746   6.096  -0.022  2.1038 -1.5014 -0.0092
  588MOL0     H79315   5.048   6.381  -0.045 -0.9534  1.5142  1.1430
  588MOL0     H79316   5.049   6.371   0.134  0.2903 -2.0269  0.8673
  588MOL0     H79317   5.185   6.167   0.139 -1.4022 -0.6148 -0.9828
  588MOL0     H79318   5.266   6.305   0.056  0.7788  0.6644 -2.9121
  588MOL0     H79319   5.201   6.201  -0.175  0.0398 -0.8743 -0.4899
  588MOL0     H79320   5.148   6.064  -0.075 -0.5180  0.9018  2.6289
  588MOL0     H79321   5.382   6.032   0.004 -0.7303  1.4381  1.3635
  588MOL0     H79322   5.377   6.051  -0.176 -4.5160  0.4429 -0.0822
  588MOL0     H79323   5.456   6.266  -0.174 -1.2714 -0.4206 -0.2660
  588MOL0     H79324   5.461   6.278  -0.003  1.2648  1.5134 -0.4623
  588MOL0     H79325   5.626   6.110   0.017 -2.2861  0.9868  0.2844
  588MOL0     H79326   5.635   6.082  -0.155  0.6592 -1.4528  0.5876
  588MOL0     H79327   5.684   6.333   0.013 -0.7639 -1.3634  0.1211
  588MOL0     H79328   5.689   6.341  -0.167  0.7187  0.8492 -0.4217
  588MOL0     H79329   5.882   6.198  -0.179 -3.4843 -0.5849 -1.0724
  588MOL0     H79330   5.928   6.327  -0.068 -0.2091 -0.0706  1.7132
  588MOL0     H79331   5.939   6.271   0.181  1.1265  1.0899 -1.5880
  588MOL0     H79332   5.975   6.084   0.410  0.2509  0.0517  0.5591
  588MOL0     H79333   6.043   5.935   0.368 -3.1701 -1.0005  0.6891
  588MOL0     H79334   6.204   6.082   0.454  0.5591  3.7465  0.4609
  588MOL0     H79335   6.246   6.047   0.293 -0.1330  0.4101 -0.6430
  588MOL0     H79336   6.155   6.330   0.392  2.3295  1.0355  2.0192
  588MOL0     H79337   6.161   6.284   0.225  0.0310  0.7847 -0.1321
  588MOL0     H79338   6.355   6.398   0.295 -0.1270  0.1264  1.0773
  588MOL0     H79339   6.395   6.231   0.248 -1.4964 -1.2407  0.5396
  588MOL0     H79340   6.639   6.311   0.332  1.2649  0.4115 -0.5342
  588MOL0     H79341   6.847   6.184   0.358 -0.3579  1.4264 -0.0222
  588MOL0     H79342   7.069   5.870   0.643 -2.1713 -2.9365 -1.9505
  588MOL0     H79343   7.290   5.774   0.664  1.5380  0.5138 -0.6981
  588MOL0     H79344   7.556   5.855   0.320  1.2044  1.6976  1.3617
  588MOL0     H79345   7.669   5.763   0.414  0.6580  0.1163  1.3707
  588MOL0     H79346   7.481   5.653   0.197 -0.1076  1.3891  0.2162
  588MOL0     H79347   7.661   5.671   0.198  0.2240  2.7431  0.8488
  588MOL0     H79348   7.647   5.503   0.421  0.6188 -0.8565 -0.7040
  588MOL0     H79349   7.485   5.477   0.372 -0.2405  1.6588  0.6131
  588MOL0     H79350   7.692   5.434   0.157 -4.3933 -1.5978 -3.5386
  588MOL0     H79351   7.525   5.371   0.174  0.5855 -1.6679 -2.3612
  588MOL0     H79352   7.604   5.226   0.352 -4.1376  2.8286 -1.7702
  588MOL0     H79353   7.769   5.301   0.339 -0.2236 -0.9325 -0.3169
  588MOL0     H79354   7.721   5.074   0.201 -0.5713 -0.4494 -1.9925
  588MOL0     H79355   7.625   5.174   0.097  0.7109 -0.5918 -1.3979
  588MOL0     H79356   7.908   5.237   0.165  0.9699 -1.1305 -1.4225
  588MOL0     H79357   7.808   5.322   0.039 -1.2031  0.3507 -0.8838
  588MOL0     H79358   7.778   5.101  -0.074 -1.1217 -2.1003  1.4238
  588MOL0     H79359   7.941   5.154  -0.055  0.2103 -0.7172 -0.3084
  588MOL0     H79360   7.369   5.865   0.249 -0.4281 -1.2034  0.2399
  588MOL0     H79361   7.158   5.971   0.232  0.2394  1.8223  1.0688
  588MOL0     H79362   6.595   5.865   0.521  2.9721 -0.4139  1.2371
  588MOL0     H79363   6.408   6.007   0.518  1.5074 -1.4725  1.8399
  588MOL0     H79364   5.005   6.190   0.312 -0.4762 -0.2182  0.9954
  588MOL0     H79365   4.888   6.045   0.452 -0.7632  0.5683  1.4104
  588MOL0     H79366   4.521   5.768   0.460 -0.0203  1.7743 -1.3831
  588MOL0     H79367   4.357   5.624   0.585  0.0820 -0.8870  1.8329
  588MOL0     H79368   4.332   5.486   0.756 -0.3190 -0.6067 -0.5677
  588MOL0     H79369   4.167   5.486   0.801 -0.0740  0.6912 -2.0519
  588MOL0     H79370   4.226   5.509   1.045 -0.9735  0.0292 -0.0187
  588MOL0     H79371   4.394   5.550   0.990 -0.1619 -0.0153  0.2860
  588MOL0     H79372   4.424   5.326   0.905 -1.3031  0.6056 -0.5950
  588MOL0     H79373   4.259   5.287   0.956 -0.4796  0.5943 -0.5275
  588MOL0     H79374   4.319   5.285   1.187 -1.9535  3.2269 -0.3916
  588MOL0     H79375   4.437   5.196   1.086 -0.5470  0.3818 -0.0216
  588MOL0     H79376   4.690   5.510   1.206 -1.0552  2.1838  2.1761
  588MOL0     H79377   4.330   5.917   0.888 -1.0625 -1.3024  0.1292
  588MOL0     H79378   4.466   6.121   0.873  0.8002  0.4791 -1.3395
  588MOL0     H79379   4.614   6.119   0.783  0.0822  3.1379  2.4351
  588MOL0     H79380   4.469   6.192   0.719 -0.2488  0.5039  1.1312
  589MOL0     O79381   0.586   0.044   5.244 -0.6925  0.1864  0.3469
  589MOL0     C79382   0.604   0.012   5.357  0.2347  0.1557 -0.5606
  589MOL0     O79383   0.731  -0.016   5.415 -0.7554 -0.4339  0.2135
  589MOL0     C79384   0.852  -0.011   5.344  0.5568 -0.1576  0.2786
  589MOL0     C79385   0.958  -0.089   5.405 -0.4038  0.0569 -0.1836
  589MOL0     C79386   1.088  -0.083   5.352  0.2485  0.2669 -0.2068
  589MOL0     C79387   1.109   0.001   5.243  0.7136 -0.2466 -0.3249
  589MOL0     O79388   1.230   0.009   5.180 -0.3111  0.0016 -0.5803
  589MOL0     C79389   1.332  -0.099   5.188 -0.9986 -0.5716 -0.2111
  589MOL0     C79390   1.466  -0.012   5.200 -0.2906 -0.0174  0.3079
  589MOL0     C79391   1.530   0.003   5.066  0.1899  0.5408  0.4074
  589MOL0     C79392   1.660   0.093   5.088  0.1053  0.8338  0.1573
  589MOL0     C79393   1.632   0.235   5.138 -0.7609 -0.2955  0.6265
  589MOL0     C79394   1.752   0.325   5.152 -0.7337 -1.0738 -0.5840
  589MOL0     C79395   1.832   0.315   5.283 -0.6503 -0.5892 -0.2979
  589MOL0     C79396   1.896   0.450   5.324  0.4552  0.0890 -0.5984
  589MOL0     N79397   2.041   0.464   5.292 -0.0625 -0.3122 -0.1209
  589MOL0     C79398   2.141   0.377   5.328  0.1906  0.2855  0.5616
  589MOL0     C79399   2.248   0.439   5.271 -0.4799 -0.0446  0.1452
  589MOL0     C79400   2.392   0.403   5.273 -1.4600  0.0856  0.3449
  589MOL0     C79401   2.455   0.469   5.396 -0.3565 -0.7333 -0.3393
  589MOL0     C79402   2.591   0.437   5.424  0.1375 -0.1281 -0.1610
  589MOL0     C79403   2.687   0.547   5.386 -0.3402  0.0075 -0.7340
  589MOL0     O79404   2.822   0.515   5.449  1.0487 -0.4048 -0.3861
  589MOL0     C79405   2.939   0.520   5.380 -0.6068  0.1685 -0.2017
  589MOL0     C79406   3.049   0.485   5.460 -0.1068  0.2278  0.6792
  589MOL0     C79407   3.184   0.478   5.407 -0.1794  0.3956 -0.3857
  589MOL0     C79408   3.206   0.511   5.276  0.3095  0.3962  0.4281
  589MOL0     C79409   3.348   0.513   5.212  0.1774  0.8557 -1.0283
  589MOL0     O79410   3.445   0.522   5.311  0.0053 -0.3926 -0.2371
  589MOL0     C79411   3.566   0.561   5.274 -0.2233  0.1715  0.2406
  589MOL0     C79412   3.583   0.684   5.228  0.1044  0.0858  0.5441
  589MOL0     C79413   3.702   0.751   5.203 -0.1652  0.4066 -0.4537
  589MOL0     C79414   3.823   0.684   5.245 -0.0241  0.2015 -0.1263
  589MOL0     O79415   3.946   0.735   5.204 -0.3807 -0.0091  0.1391
  589MOL0     C79416   4.017   0.666   5.108 -0.1008 -0.2862  1.0329
  589MOL0     C79417   4.073   0.757   4.992 -0.7105 -1.4137 -0.4187
  589MOL0     C79418   4.141   0.880   5.043 -1.1150 -0.3343  0.0316
  589MOL0     C79419   4.267   0.839   5.126 -0.6368 -0.2609 -0.5631
  589MOL0     C79420   4.330   0.952   5.201 -0.4555  0.4599  0.3054
  589MOL0     C79421   4.379   1.075   5.117 -0.0853 -0.1185  0.6468
  589MOL0     C79422   4.496   1.037   5.031 -0.1942 -0.4167 -0.2711
  589MOL0     C79423   4.557   1.146   4.949  0.9285  0.8544 -0.2879
  589MOL0    Cl79424   4.611   1.285   5.055 -0.0914 -0.5110 -0.4354
  589MOL0     C79425   3.802   0.558   5.311 -0.2092 -0.0821  0.8943
  589MOL0     C79426   3.679   0.495   5.326 -0.3268 -0.1384 -0.2724
  589MOL0     O79427   3.377   0.511   5.096  1.1298 -0.9227  0.6611
  589MOL0     C79428   3.097   0.541   5.190  0.1882  1.0640  0.6739
  589MOL0     C79429   2.969   0.548   5.240 -0.3556  0.2078 -0.0664
  589MOL0     N79430   2.214   0.552   5.207 -0.5444  0.1327 -0.0428
  589MOL0     N79431   2.091   0.571   5.215 -0.4656  0.0922 -0.1513
  589MOL0     C79432   1.005   0.059   5.172  0.7527 -0.3708 -0.6291
  589MOL0     C79433   0.875   0.046   5.221  0.0651  0.3281 -0.0636
  589MOL0     C79434   0.482  -0.002   5.447 -0.0962 -0.1114 -0.4925
  589MOL0     C79435   0.513  -0.064   5.567 -0.0683  0.1464  0.3108
  589MOL0     C79436   0.421  -0.095   5.672 -0.2767 -0.2264  0.0795
  589MOL0     C79437   0.284  -0.064   5.643 -0.3223  1.0144 -0.2905
  589MOL0     O79438   0.194  -0.113   5.728 -0.1087  0.6538 -0.0324
  589MOL0     C79439   0.165  -0.008   5.827 -0.6409  0.4018 -0.5298
  589MOL0     C79440   0.016   0.001   5.840  0.3092  0.2473 -0.0976
  589MOL0     C79441  -0.050   0.074   5.730 -0.0372  0.5410  0.1452
  589MOL0     C79442  -0.203   0.080   5.754  0.5880  0.1319  0.1505
  589MOL0     C79443  -0.242   0.160   5.868 -0.2830 -0.2849  1.2151
  589MOL0     C79444  -0.252   0.230   5.964 -0.6247  0.0124 -0.0735
  589MOL0     C79445   0.252  -0.010   5.520 -0.3776 -0.0209  0.1579
  589MOL0     C79446   0.353   0.029   5.430 -0.1504  0.1881 -0.6332
  589MOL0     C79447   0.300   0.104   5.305  0.6007  0.1792  0.0590
  589MOL0     H79448   0.945  -0.142   5.498  0.6601  0.3978  0.1768
  589MOL0     H79449   1.169  -0.132   5.404  0.7880  0.9639 -0.3698
  589MOL0     H79450   1.324  -0.167   5.273  1.4698 -2.1923 -1.1564
  589MOL0     H79451   1.336  -0.156   5.094  3.2957 -0.3781 -0.3498
  589MOL0     H79452   1.530  -0.076   5.262 -2.0015 -0.1943  1.9897
  589MOL0     H79453   1.453   0.086   5.246  0.0213  0.6878 -1.0576
  589MOL0     H79454   1.483   0.055   4.982  2.5346 -1.4353 -2.3374
  589MOL0     H79455   1.566  -0.093   5.029  1.9004  1.7083 -1.1654
  589MOL0     H79456   1.722   0.041   5.161  0.4819  1.8692  0.5936
  589MOL0     H79457   1.712   0.105   4.992 -0.6708  0.8976 -0.2660
  589MOL0     H79458   1.575   0.275   5.054 -0.9301 -2.3985 -0.3228
  589MOL0     H79459   1.583   0.253   5.234 -0.5838  2.2517  0.3164
  589MOL0     H79460   1.817   0.310   5.065 -0.0958 -1.0169 -0.1194
  589MOL0     H79461   1.716   0.426   5.132  0.7325 -0.8264 -2.3234
  589MOL0     H79462   1.910   0.241   5.264 -2.1396 -2.4961  0.6343
  589MOL0     H79463   1.762   0.280   5.359  0.1195 -1.2841  0.0977
  589MOL0     H79464   1.839   0.533   5.282 -1.1217 -2.2217 -3.4435
  589MOL0     H79465   1.886   0.444   5.433 -0.9040 -1.7903 -0.7765
  589MOL0     H79466   2.142   0.289   5.391 -1.2177  0.1650  0.4549
  589MOL0     H79467   2.412   0.298   5.296  2.6224  0.2970 -1.3300
  589MOL0     H79468   2.446   0.437   5.184 -0.0911 -0.7743  0.8135
  589MOL0     H79469   2.451   0.577   5.375  2.5214 -0.8411 -1.8758
  589MOL0     H79470   2.385   0.449   5.478 -2.0192  0.4572 -1.4108
  589MOL0     H79471   2.619   0.347   5.367  1.3315  0.3998 -0.4359
  589MOL0     H79472   2.592   0.411   5.530 -5.4595  0.9419  0.4802
  589MOL0     H79473   2.650   0.646   5.413  0.8926  0.6091 -1.1685
  589MOL0     H79474   2.693   0.558   5.277  0.2182 -1.4450 -0.8822
  589MOL0     H79475   3.040   0.455   5.564 -1.2389 -2.9559 -0.2026
  589MOL0     H79476   3.260   0.444   5.476  1.1973  0.8003 -1.6443
  589MOL0     H79477   3.489   0.735   5.211  0.4138  0.2566 -0.7034
  589MOL0     H79478   3.704   0.847   5.152 -2.2191  0.3734 -0.7072
  589MOL0     H79479   4.093   0.609   5.163 -1.0301 -1.4553  1.1354
  589MOL0     H79480   3.972   0.579   5.059  2.2048 -2.5810  2.6762
  589MOL0     H79481   4.153   0.705   4.940  1.8844  0.1649  1.7189
  589MOL0     H79482   3.994   0.790   4.924 -0.2183 -1.2627 -0.9255
  589MOL0     H79483   4.166   0.930   4.949 -3.6477  1.6231  0.2954
  589MOL0     H79484   4.078   0.952   5.096  0.1917 -1.1711  2.9254
  589MOL0     H79485   4.338   0.784   5.063  0.7469 -1.1775  1.6748
  589MOL0     H79486   4.241   0.770   5.207  1.0683 -1.6667 -1.1595
  589MOL0     H79487   4.412   0.911   5.262  0.5766  3.0170  0.7426
  589MOL0     H79488   4.253   0.985   5.270 -1.3797 -1.7402  0.3922
  589MOL0     H79489   4.295   1.111   5.057  0.5315  1.9593  0.9566
  589MOL0     H79490   4.415   1.152   5.185 -0.2542  0.1776  0.4010
  589MOL0     H79491   4.457   0.970   4.954 -0.3587 -1.4548  0.6948
  589MOL0     H79492   4.569   0.974   5.083  0.0318 -1.0852 -1.3578
  589MOL0     H79493   4.643   1.123   4.885  0.9835  1.6663 -0.5159
  589MOL0     H79494   4.485   1.173   4.872 -0.8912 -2.9211 -0.1422
  589MOL0     H79495   3.887   0.498   5.343  0.5142  0.3010 -0.2629
  589MOL0     H79496   3.670   0.394   5.365  1.8500 -0.1764  0.2624
  589MOL0     H79497   3.106   0.557   5.083  0.7186  0.6610  0.6539
  589MOL0     H79498   2.897   0.591   5.171  0.3296  1.7417  0.1209
  589MOL0     H79499   1.024   0.111   5.078  1.2912  1.2281  0.3253
  589MOL0     H79500   0.801   0.097   5.159 -0.4534 -0.7185 -0.3218
  589MOL0     H79501   0.618  -0.087   5.581  0.1505 -1.4583 -2.9973
  589MOL0     H79502   0.460  -0.155   5.753 -0.9663 -0.9512 -0.1118
  589MOL0     H79503   0.208   0.090   5.806 -2.5376  1.5912  0.9258
  589MOL0     H79504   0.199  -0.036   5.927  1.6134  2.7747 -0.5080
  589MOL0     H79505  -0.005   0.055   5.933 -1.8352 -0.4428 -0.1231
  589MOL0     H79506  -0.034  -0.096   5.852  0.6671 -0.1308 -1.5305
  589MOL0     H79507  -0.026   0.020   5.638  3.3752  1.2290  0.4877
  589MOL0     H79508  -0.020   0.180   5.728 -1.3777  0.9924  1.7514
  589MOL0     H79509  -0.241   0.121   5.660 -1.7528  0.9647  1.3790
  589MOL0     H79510  -0.246  -0.021   5.749  0.8389  0.0624 -0.9799
  589MOL0     H79511  -0.238   0.304   6.041 -1.8467 -0.2820  0.4619
  589MOL0     H79512   0.149  -0.004   5.488  0.3781  1.5189 -2.2599
  589MOL0     H79513   0.193   0.124   5.312  1.1238  2.5914  3.8646
  589MOL0     H79514   0.346   0.202   5.286  1.9457 -0.0648  1.8310
  589MOL0     H79515   0.316   0.033   5.223 -1.2646 -2.0217  1.4880
  590MOL0     O79516   7.199   2.507   6.744  0.4387  0.4829 -0.5708
  590MOL0     C79517   7.100   2.474   6.674  0.1217  0.2525  0.6459
  590MOL0     O79518   6.972   2.497   6.692  0.7826  0.1513 -0.4047
  590MOL0     C79519   6.929   2.582   6.793 -0.2455 -0.0171  0.4990
  590MOL0     C79520   6.995   2.704   6.836  0.1132  0.7451 -0.4171
  590MOL0     C79521   6.947   2.773   6.941  1.1983  0.0747 -1.0456
  590MOL0     C79522   6.831   2.736   7.015  0.0262 -0.9097 -0.3199
  590MOL0     O79523   6.788   2.819   7.119 -0.6725 -0.2665 -0.5006
  590MOL0     C79524   6.747   2.735   7.232 -0.2770  0.6433 -1.6037
  590MOL0     C79525   6.702   2.815   7.362  0.4631  0.3964 -0.4646
  590MOL0     C79526   6.814   2.898   7.402 -0.3611 -0.1856 -0.2925
  590MOL0     C79527   6.940   2.813   7.427 -0.7762 -0.9580 -0.0412
  590MOL0     C79528   7.041   2.894   7.512 -0.3502 -0.5051 -0.6538
  590MOL0     C79529   7.081   3.023   7.444 -0.5870  0.4963  0.2194
  590MOL0     C79530   7.182   2.994   7.316  1.0189  0.2236 -1.2608
  590MOL0     C79531   7.112   2.978   7.180 -1.1836  0.5429 -0.3951
  590MOL0     N79532   7.056   3.109   7.143 -0.5246  0.5689  0.6825
  590MOL0     C79533   6.931   3.138   7.093 -0.3555  0.6790 -0.7086
  590MOL0     C79534   6.923   3.272   7.088  0.0111 -0.3631 -0.1815
  590MOL0     C79535   6.795   3.350   7.055  0.1824 -0.7588  1.2212
  590MOL0     C79536   6.742   3.434   7.169 -0.9319  0.2056  0.4422
  590MOL0     C79537   6.682   3.354   7.280 -0.1394  0.4896  0.0974
  590MOL0     C79538   6.554   3.268   7.258  0.1052  0.7862  0.7129
  590MOL0     O79539   6.510   3.237   7.393 -0.2267 -0.2195 -0.4738
  590MOL0     C79540   6.449   3.113   7.411  1.0392 -0.1823  0.5971
  590MOL0     C79541   6.476   3.047   7.530 -0.8677  0.1178  0.2800
  590MOL0     C79542   6.429   2.919   7.555 -0.7431  0.1774 -0.4187
  590MOL0     C79543   6.343   2.861   7.464  0.6239  0.1368  0.3446
  590MOL0     C79544   6.277   2.729   7.496  0.1744 -0.1486  0.6642
  590MOL0     O79545   6.180   2.670   7.416 -0.2013  0.1690 -0.3566
  590MOL0     C79546   6.130   2.545   7.442 -0.1011 -0.3595  0.0985
  590MOL0     C79547   6.009   2.524   7.517 -0.1404 -0.8190 -0.7131
  590MOL0     C79548   5.961   2.398   7.544  0.3774 -0.5029 -0.4531
  590MOL0     C79549   6.027   2.287   7.501  0.3367  0.6149  0.4176
  590MOL0     O79550   5.985   2.156   7.520 -0.2275  0.0364  0.9023
  590MOL0     C79551   5.884   2.117   7.612  0.1346  0.6164 -0.0154
  590MOL0     C79552   5.851   1.971   7.590  0.4387 -0.7177  0.1252
  590MOL0     C79553   5.973   1.879   7.578  0.0691  0.2000  0.2762
  590MOL0     C79554   5.927   1.739   7.548  0.8937  0.3045 -0.5564
  590MOL0     C79555   6.041   1.652   7.500 -0.8014  0.3262  0.2177
  590MOL0     C79556   6.138   1.606   7.611  0.4432 -0.8296  0.6750
  590MOL0     C79557   6.229   1.489   7.566  0.1008 -0.5053  0.3257
  590MOL0     C79558   6.167   1.349   7.586 -0.6793 -0.3408  0.8100
  590MOL0    Cl79559   6.267   1.228   7.504  0.3926  0.2969 -0.0691
  590MOL0     C79560   6.148   2.304   7.429 -0.1662 -0.6186 -1.7157
  590MOL0     C79561   6.192   2.433   7.396 -0.1411 -0.1055 -0.8854
  590MOL0     O79562   6.319   2.682   7.603  0.0884 -0.5451 -0.7167
  590MOL0     C79563   6.308   2.931   7.342 -0.1509  0.0418 -0.0224
  590MOL0     C79564   6.369   3.056   7.318  0.9968 -0.4334  0.3144
  590MOL0     N79565   7.048   3.324   7.115 -0.0680  0.0230  0.7546
  590MOL0     N79566   7.124   3.227   7.156 -0.0731 -0.3073 -0.1684
  590MOL0     C79567   6.774   2.617   6.970  0.8414  0.1030  1.0615
  590MOL0     C79568   6.820   2.544   6.864  0.1357  0.4216 -0.0960
  590MOL0     C79569   7.125   2.392   6.551  0.9316  0.1176  0.1071
  590MOL0     C79570   7.014   2.365   6.463 -0.0352 -0.7443 -0.4001
  590MOL0     C79571   7.029   2.289   6.349 -0.2669  0.3932  0.0588
  590MOL0     C79572   7.151   2.243   6.302  0.2953  0.2927 -0.2455
  590MOL0     O79573   7.164   2.197   6.174 -0.1404 -0.3479 -0.1180
  590MOL0     C79574   7.049   2.156   6.096  0.9194 -0.7399 -0.8775
  590MOL0     C79575   7.087   2.126   5.952 -0.1578  0.7412  0.1530
  590MOL0     C79576   6.964   2.106   5.861  0.0165 -1.2531  0.4275
  590MOL0     C79577   7.025   2.050   5.734  0.7175 -0.8341  0.5092
  590MOL0     C79578   7.071   2.157   5.643  0.1388 -0.5219  0.1133
  590MOL0     C79579   7.108   2.240   5.565  0.2639 -0.1364 -0.5323
  590MOL0     C79580   7.259   2.270   6.384 -0.2536  0.6809  0.4200
  590MOL0     C79581   7.250   2.332   6.514  0.1321 -0.0912 -0.9026
  590MOL0     C79582   7.379   2.347   6.590 -0.4475 -0.5810 -0.8527
  590MOL0     H79583   7.092   2.738   6.803  1.6064  0.2953  3.0928
  590MOL0     H79584   6.997   2.864   6.973 -1.2433  1.0950  0.1755
  590MOL0     H79585   6.658   2.676   7.207 -1.0400  1.2313 -0.3410
  590MOL0     H79586   6.821   2.659   7.260 -1.1876  1.2998  3.4013
  590MOL0     H79587   6.666   2.742   7.435 -2.0206 -0.2259 -2.1711
  590MOL0     H79588   6.617   2.873   7.324  1.0194  1.2924 -0.3508
  590MOL0     H79589   6.787   2.949   7.494 -2.5915  0.8722 -1.4487
  590MOL0     H79590   6.831   2.977   7.327  1.1469 -1.5574 -1.4556
  590MOL0     H79591   6.915   2.722   7.482  1.8024 -0.8412  1.5031
  590MOL0     H79592   6.983   2.772   7.335  0.7050  1.6800 -0.6371
  590MOL0     H79593   7.000   2.902   7.613 -0.4543  3.1729 -0.8436
  590MOL0     H79594   7.120   2.822   7.533 -1.1220 -0.6671  2.0890
  590MOL0     H79595   6.996   3.083   7.412  0.0780  0.8277 -1.0230
  590MOL0     H79596   7.135   3.077   7.522 -2.2792 -0.0305  1.7967
  590MOL0     H79597   7.241   2.904   7.335  0.6040  0.6356  3.0329
  590MOL0     H79598   7.256   3.074   7.304  1.2722  0.2283  0.1533
  590MOL0     H79599   7.185   2.948   7.104  2.6200  2.1015  2.3600
  590MOL0     H79600   7.044   2.894   7.196 -0.5170  0.5653  3.6100
  590MOL0     H79601   6.853   3.063   7.105  0.5592  0.0929  2.7127
  590MOL0     H79602   6.810   3.421   6.973 -1.3572  0.1618  1.7105
  590MOL0     H79603   6.715   3.281   7.027 -4.6516  4.3454  0.8351
  590MOL0     H79604   6.818   3.497   7.218 -2.9547  1.2655  2.3819
  590MOL0     H79605   6.673   3.504   7.123  0.0418 -0.3802 -2.0860
  590MOL0     H79606   6.665   3.416   7.369 -1.5080 -0.3753  0.4634
  590MOL0     H79607   6.757   3.278   7.304 -0.2957 -0.1515 -1.3757
  590MOL0     H79608   6.578   3.181   7.197 -1.6570  1.5239 -1.1407
  590MOL0     H79609   6.475   3.318   7.200  1.3476  0.9642 -0.8808
  590MOL0     H79610   6.540   3.092   7.605  1.1611 -1.1162 -0.6170
  590MOL0     H79611   6.452   2.877   7.652  2.4906 -3.5318 -2.4738
  590MOL0     H79612   5.949   2.613   7.534  2.2112  1.8508 -4.6297
  590MOL0     H79613   5.881   2.380   7.615  1.0426  1.2436  0.8255
  590MOL0     H79614   5.915   2.140   7.715 -0.6460  2.0561 -0.0846
  590MOL0     H79615   5.786   2.161   7.591 -1.1429 -2.6476 -1.6833
  590MOL0     H79616   5.789   1.932   7.671 -0.7942  0.9781  0.0435
  590MOL0     H79617   5.790   1.954   7.500  1.8447 -2.1517 -0.6058
  590MOL0     H79618   6.033   1.914   7.494  0.0519 -2.7860 -1.1241
  590MOL0     H79619   6.026   1.879   7.673 -1.4601 -3.3520  1.2987
  590MOL0     H79620   5.848   1.730   7.473 -0.2262 -2.0667  0.7706
  590MOL0     H79621   5.889   1.704   7.645  1.8443  2.0168  0.4806
  590MOL0     H79622   6.102   1.710   7.430  2.1403 -1.2351  1.3143
  590MOL0     H79623   6.011   1.570   7.435  0.1233  1.5902 -1.9301
  590MOL0     H79624   6.193   1.696   7.639  0.2399 -1.0915  1.9435
  590MOL0     H79625   6.083   1.562   7.694 -2.5798 -0.1928 -0.8729
  590MOL0     H79626   6.327   1.498   7.615 -0.0907  2.3275  0.3811
  590MOL0     H79627   6.247   1.494   7.458  1.0624  0.4530  0.5092
  590MOL0     H79628   6.167   1.333   7.694  0.3142 -1.4420  0.6694
  590MOL0     H79629   6.069   1.358   7.539 -0.7213 -0.7353  0.8207
  590MOL0     H79630   6.184   2.213   7.382 -2.6469 -1.8291 -1.4709
  590MOL0     H79631   6.286   2.445   7.342 -1.8459  0.1433 -4.0379
  590MOL0     H79632   6.238   2.893   7.269 -0.0693  1.6286 -0.9850
  590MOL0     H79633   6.351   3.103   7.223 -0.6882  1.9818  1.7152
  590MOL0     H79634   6.688   2.581   7.027  1.1615  1.3204  2.3946
  590MOL0     H79635   6.777   2.452   6.827 -0.0383  1.3570 -2.3962
  590MOL0     H79636   6.919   2.411   6.487  2.0083  3.4143  0.6928
  590MOL0     H79637   6.937   2.270   6.295 -1.0352 -1.5388  1.9156
  590MOL0     H79638   6.985   2.244   6.092  1.0335 -0.5437  0.9479
  590MOL0     H79639   7.004   2.065   6.136 -1.3559  0.7400  0.1618
  590MOL0     H79640   7.155   2.041   5.956 -0.4391  0.3769 -2.0294
  590MOL0     H79641   7.146   2.211   5.916  2.5389 -2.2554 -3.1963
  590MOL0     H79642   6.894   2.189   5.852  0.4136 -0.7799  1.5164
  590MOL0     H79643   6.902   2.031   5.911  2.3735 -2.8554  1.1329
  590MOL0     H79644   7.106   1.984   5.767  1.1760  0.7894  2.8531
  590MOL0     H79645   6.948   1.993   5.681  0.3911 -1.5171  1.6686
  590MOL0     H79646   7.119   2.317   5.491 -1.9991  1.0893  0.3048
  590MOL0     H79647   7.361   2.245   6.355 -0.2329  2.5266 -1.2932
  590MOL0     H79648   7.363   2.332   6.697  0.8084  0.3591 -0.5123
  590MOL0     H79649   7.460   2.289   6.544  1.5774  0.3840  1.2529
  590MOL0     H79650   7.407   2.450   6.569 -2.2162  0.0856 -0.1229
  591MOL0     O79651   8.233   6.727   4.277 -0.4959  0.0110  0.3042
  591MOL0     C79652   8.214   6.763   4.392  0.3280  0.4700 -0.2151
  591MOL0     O79653   8.089   6.824   4.434 -0.4106  0.1653 -1.0501
  591MOL0     C79654   7.992   6.836   4.336 -0.6555  0.1076 -1.0841
  591MOL0     C79655   7.940   6.964   4.318 -0.0937 -0.0582 -0.3677
  591MOL0     C79656   7.815   6.976   4.244 -0.1700 -0.1848 -0.2420
  591MOL0     C79657   7.756   6.861   4.181  0.1408  0.9606  0.4164
  591MOL0     O79658   7.634   6.882   4.118 -0.5504  0.1573  0.2236
  591MOL0     C79659   7.557   6.766   4.083 -0.3424 -0.0694  0.3787
  591MOL0     C79660   7.414   6.796   4.028  0.4621 -0.3322 -0.2009
  591MOL0     C79661   7.326   6.850   4.139 -0.4737 -0.0267  0.5768
  591MOL0     C79662   7.338   7.000   4.146 -0.6131 -0.2416 -0.4065
  591MOL0     C79663   7.237   7.063   4.240 -0.3042  0.5629 -0.1718
  591MOL0     C79664   7.233   7.219   4.223 -0.4555  0.1327 -0.4480
  591MOL0     C79665   7.238   7.300   4.361 -0.2412  0.2462  0.2534
  591MOL0     C79666   7.369   7.288   4.443  0.7933 -1.2608  0.8955
  591MOL0     N79667   7.473   7.355   4.364 -0.2581 -0.2379  0.5482
  591MOL0     C79668   7.500   7.485   4.360  0.4202 -0.4166  0.0180
  591MOL0     C79669   7.611   7.504   4.290  0.1460  0.0992  0.0401
  591MOL0     C79670   7.655   7.646   4.251 -0.5250  0.3630  0.2657
  591MOL0     C79671   7.811   7.633   4.275  0.1794 -0.5706  0.8626
  591MOL0     C79672   7.868   7.771   4.251 -0.7762  0.4597 -0.6239
  591MOL0     C79673   8.021   7.782   4.295  0.4594  0.8538 -0.3007
  591MOL0     O79674   8.051   7.707   4.416 -0.2613  0.2371  0.1971
  591MOL0     C79675   8.176   7.724   4.469  0.2021  0.6820  0.2931
  591MOL0     C79676   8.196   7.647   4.593 -0.0856  0.0021 -0.3795
  591MOL0     C79677   8.319   7.643   4.648 -0.5874 -1.3373 -0.5033
  591MOL0     C79678   8.429   7.714   4.590  0.2128  0.6879  0.0558
  591MOL0     C79679   8.568   7.732   4.643 -0.3416  0.6714 -0.5758
  591MOL0     O79680   8.672   7.788   4.573  0.1410 -0.6406  1.0186
  591MOL0     C79681   8.793   7.772   4.634 -0.6692 -0.8513 -0.1698
  591MOL0     C79682   8.892   7.671   4.595  0.5977 -0.4706  0.1781
  591MOL0     C79683   9.007   7.655   4.676 -0.0620 -0.2411  0.4859
  591MOL0     C79684   9.023   7.738   4.791 -0.2037 -0.5517 -0.1796
  591MOL0     O79685   9.139   7.694   4.864  0.0325 -0.1890  0.4473
  591MOL0     C79686   9.159   7.757   4.993 -0.3133  0.3912  0.3432
  591MOL0     C79687   9.295   7.700   5.049 -0.3904 -0.7054 -0.7243
  591MOL0     C79688   9.320   7.749   5.197  0.9236 -0.0927 -0.0190
  591MOL0     C79689   9.402   7.650   5.283  0.2359  0.3148  0.5926
  591MOL0     C79690   9.503   7.560   5.197 -0.3670  0.1610 -0.2174
  591MOL0     C79691   9.597   7.483   5.286 -0.3539 -0.2838 -1.4893
  591MOL0     C79692   9.689   7.576   5.364 -0.7580  0.2976 -0.1409
  591MOL0     C79693   9.826   7.521   5.349 -0.4936  0.6132  0.7949
  591MOL0    Cl79694   9.938   7.640   5.415 -0.4734 -0.1125  0.3494
  591MOL0     C79695   8.931   7.847   4.813  1.0130  0.0234  0.2369
  591MOL0     C79696   8.819   7.866   4.736 -0.5873  0.0955 -0.7686
  591MOL0     O79697   8.580   7.688   4.759  0.4465 -0.1974  0.3270
  591MOL0     C79698   8.398   7.792   4.477 -0.3570  0.0898 -0.3369
  591MOL0     C79699   8.280   7.798   4.424 -0.2667 -0.2844  0.1833
  591MOL0     N79700   7.655   7.376   4.253  0.0627  0.4862 -0.6196
  591MOL0     N79701   7.573   7.294   4.302  0.7972 -0.2714  0.4283
  591MOL0     C79702   7.827   6.738   4.192 -0.4547 -0.5325 -0.1679
  591MOL0     C79703   7.941   6.729   4.273 -1.0372  0.0983  0.0033
  591MOL0     C79704   8.325   6.744   4.481  0.8126 -0.2971  0.2262
  591MOL0     C79705   8.370   6.617   4.493  0.3385 -0.1161 -0.3249
  591MOL0     C79706   8.479   6.586   4.567 -0.5931  0.1629  0.7978
  591MOL0     C79707   8.557   6.680   4.629 -0.4641 -0.4933 -0.3782
  591MOL0     O79708   8.673   6.635   4.698  0.8608 -0.4581  0.1669
  591MOL0     C79709   8.774   6.734   4.722  0.7531  0.2466 -0.2946
  591MOL0     C79710   8.869   6.657   4.812 -0.0851 -0.3098  0.4013
  591MOL0     C79711   9.009   6.723   4.814 -0.8153  0.1975  1.2047
  591MOL0     C79712   9.062   6.695   4.956 -0.3499  0.5202  0.5461
  591MOL0     C79713   9.095   6.826   5.019 -0.3309  0.9910 -0.6930
  591MOL0     C79714   9.118   6.931   5.074  0.3651 -0.3198  0.3983
  591MOL0     C79715   8.508   6.811   4.621  0.5319 -0.8569  0.8217
  591MOL0     C79716   8.396   6.852   4.548  0.4729 -0.7997  0.6652
  591MOL0     C79717   8.340   6.994   4.543  0.0595 -0.6487 -0.1354
  591MOL0     H79718   7.996   7.047   4.359 -2.1812  0.2208  2.1317
  591MOL0     H79719   7.770   7.075   4.233  0.7419  0.2672  0.0538
  591MOL0     H79720   7.606   6.704   4.008  1.8997 -0.1992  1.8347
  591MOL0     H79721   7.540   6.702   4.171 -1.3319 -1.6304 -0.8961
  591MOL0     H79722   7.367   6.706   3.989  1.8789  0.4744 -4.3290
  591MOL0     H79723   7.419   6.867   3.945 -1.5118  2.7856  2.1190
  591MOL0     H79724   7.337   6.804   4.237 -0.2413 -1.5080 -0.1162
  591MOL0     H79725   7.222   6.836   4.107  0.0971  1.3020 -2.1294
  591MOL0     H79726   7.438   7.027   4.181 -0.1407  2.4235 -3.2948
  591MOL0     H79727   7.338   7.048   4.047 -1.3793 -3.4807 -2.1035
  591MOL0     H79728   7.138   7.016   4.231  0.0680 -0.3416  0.3630
  591MOL0     H79729   7.263   7.032   4.342 -3.0622 -0.1227  0.4083
  591MOL0     H79730   7.319   7.264   4.172  0.6238  1.3251  2.2267
  591MOL0     H79731   7.145   7.258   4.170  0.5564  3.2247 -0.0560
  591MOL0     H79732   7.151   7.269   4.421 -1.9335 -0.0326 -2.1951
  591MOL0     H79733   7.209   7.404   4.341 -1.4399  0.9679  4.6897
  591MOL0     H79734   7.345   7.343   4.534 -2.9496  1.2473 -1.3149
  591MOL0     H79735   7.397   7.185   4.465  4.1335 -0.9505 -1.2295
  591MOL0     H79736   7.433   7.558   4.403  1.1313 -0.1540  0.7012
  591MOL0     H79737   7.623   7.670   4.149 -0.2654  0.7452  0.2739
  591MOL0     H79738   7.620   7.722   4.321  0.3026  0.4147  0.6393
  591MOL0     H79739   7.835   7.580   4.368  0.5884  1.9115  2.2436
  591MOL0     H79740   7.852   7.574   4.192 -0.0676  0.1001  0.2464
  591MOL0     H79741   7.824   7.849   4.314 -1.5747 -0.5053  0.0264
  591MOL0     H79742   7.856   7.801   4.147 -0.7286  0.8729 -0.5124
  591MOL0     H79743   8.049   7.886   4.314  0.4378  0.9695 -0.8749
  591MOL0     H79744   8.086   7.742   4.217  1.3176 -0.4745  1.0345
  591MOL0     H79745   8.119   7.578   4.627  0.5692 -1.5685 -1.9315
  591MOL0     H79746   8.328   7.585   4.740 -1.2174  4.1279  3.5511
  591MOL0     H79747   8.869   7.604   4.513  1.9376 -2.3713  1.2710
  591MOL0     H79748   9.081   7.580   4.653 -2.4883 -2.4429 -0.5639
  591MOL0     H79749   9.156   7.866   4.985 -0.7168  0.3261 -0.4351
  591MOL0     H79750   9.088   7.720   5.068  1.1525  0.2328  1.7289
  591MOL0     H79751   9.300   7.593   5.029  2.2787 -0.3735 -2.2448
  591MOL0     H79752   9.370   7.744   4.984  0.3643 -3.2044 -1.6551
  591MOL0     H79753   9.366   7.848   5.187 -3.1343  1.9254 -0.8289
  591MOL0     H79754   9.220   7.759   5.240  0.6131 -1.5966 -0.3450
  591MOL0     H79755   9.324   7.589   5.330  1.5638 -1.5544  0.4737
  591MOL0     H79756   9.460   7.709   5.354  2.3823 -1.2202  0.1793
  591MOL0     H79757   9.554   7.619   5.121  1.9675 -2.0902 -0.5003
  591MOL0     H79758   9.440   7.484   5.150 -0.7585  1.7398 -2.4251
  591MOL0     H79759   9.527   7.436   5.356  0.9578 -1.2207 -0.7594
  591MOL0     H79760   9.645   7.399   5.235  0.7121 -1.3720  1.1492
  591MOL0     H79761   9.668   7.583   5.471 -0.3682 -1.3840  0.0767
  591MOL0     H79762   9.694   7.679   5.327  0.7119  0.3802  0.2202
  591MOL0     H79763   9.834   7.429   5.407 -0.8851  0.3671  0.4623
  591MOL0     H79764   9.857   7.498   5.247 -0.1185 -0.7611  1.2003
  591MOL0     H79765   8.935   7.915   4.897 -1.1818 -0.3271  0.7005
  591MOL0     H79766   8.744   7.942   4.754 -0.8184  0.1252 -1.8177
  591MOL0     H79767   8.465   7.866   4.434 -1.4892  1.9342  0.9398
  591MOL0     H79768   8.276   7.868   4.342  0.6099 -0.1645  0.2277
  591MOL0     H79769   7.773   6.650   4.160 -2.2933  0.5208 -0.0927
  591MOL0     H79770   7.987   6.631   4.279 -1.6186 -0.1110  1.2843
  591MOL0     H79771   8.302   6.540   4.459  0.5973 -0.1147 -0.8505
  591MOL0     H79772   8.492   6.481   4.591 -0.9098 -0.4469 -1.5109
  591MOL0     H79773   8.737   6.827   4.765 -2.9069  0.2278 -2.9224
  591MOL0     H79774   8.833   6.763   4.635  0.7889 -1.2680 -0.8027
  591MOL0     H79775   8.880   6.555   4.774 -0.2688  0.6393 -2.4338
  591MOL0     H79776   8.831   6.653   4.915  0.7444 -1.0040  0.7038
  591MOL0     H79777   9.008   6.830   4.792  4.1070  0.2668  0.0805
  591MOL0     H79778   9.067   6.676   4.734 -1.5155 -0.5137  1.0988
  591MOL0     H79779   9.001   6.646   5.032  0.7409 -0.5183  0.7752
  591MOL0     H79780   9.149   6.629   4.952  0.4010  1.4305  1.4282
  591MOL0     H79781   9.138   7.031   5.108 -1.7662  0.4435 -0.4638
  591MOL0     H79782   8.559   6.887   4.678  1.3344 -0.6897 -0.0952
  591MOL0     H79783   8.233   7.014   4.546  0.4246  1.4652  0.4537
  591MOL0     H79784   8.380   7.052   4.627 -0.0917  0.9239 -1.1048
  591MOL0     H79785   8.386   7.043   4.456  0.5502  1.1586  1.0886
  592MOL0     O79786   8.990  10.808   8.910 -0.4812 -0.3156 -0.3945
  592MOL0     C79787   8.905  10.859   8.839  0.1209  0.3627  0.3393
  592MOL0     O79788   8.916  10.977   8.775 -0.3521 -0.1053  0.3113
  592MOL0     C79789   9.042  11.009   8.734  0.3611 -0.6283 -0.3399
  592MOL0     C79790   9.135  11.030   8.847  0.2590 -0.7900 -0.3301
  592MOL0     C79791   9.265  11.064   8.818 -0.3024 -0.0406 -0.5372
  592MOL0     C79792   9.311  11.055   8.689 -0.0993 -0.5676 -0.2439
  592MOL0     O79793   9.449  11.051   8.652  0.3595 -0.5388  0.5188
  592MOL0     C79794   9.537  10.981   8.742  0.5746 -0.4908 -0.0627
  592MOL0     C79795   9.641  10.901   8.658  0.4438 -0.1734 -1.4267
  592MOL0     C79796   9.749  10.998   8.609  0.0141  0.5606  1.0689
  592MOL0     C79797   9.879  10.924   8.566  0.6578 -0.0417  0.1583
  592MOL0     C79798   9.985  11.022   8.538 -0.2199  0.5494 -0.3738
  592MOL0     C79799  10.101  10.969   8.452 -0.0591  0.9110  0.4044
  592MOL0     C79800  10.240  11.052   8.455  0.0074 -0.4704 -0.5991
  592MOL0     C79801  10.308  11.003   8.587 -0.1136 -0.3172  0.5844
  592MOL0     N79802  10.444  11.044   8.589 -0.2877  0.6325 -0.0973
  592MOL0     C79803  10.545  11.002   8.508  0.0269 -0.2282 -0.3769
  592MOL0     C79804  10.649  11.083   8.527  0.0529  0.7215  0.2294
  592MOL0     C79805  10.783  11.076   8.447 -1.0704  0.5387 -0.1556
  592MOL0     C79806  10.803  11.190   8.348 -0.7467 -1.0959  0.9427
  592MOL0     C79807  10.925  11.151   8.262  0.2033  0.7154 -0.6375
  592MOL0     C79808  10.983  11.270   8.169 -0.1534 -0.3190 -0.6859
  592MOL0     O79809  11.071  11.225   8.060  0.2718  0.5336  0.6050
  592MOL0     C79810  11.195  11.169   8.073 -0.6303  0.1210  0.6979
  592MOL0     C79811  11.279  11.175   8.186 -0.8354 -0.1732  0.0830
  592MOL0     C79812  11.418  11.139   8.192  0.7605  0.5853  0.4463
  592MOL0     C79813  11.469  11.073   8.076 -0.4395 -0.4994  0.0248
  592MOL0     C79814  11.612  11.028   8.078  0.1636 -0.1522 -0.4534
  592MOL0     O79815  11.671  11.015   8.204  0.1282  0.4834  0.7820
  592MOL0     C79816  11.793  10.952   8.226  0.9293  0.4951 -0.1820
  592MOL0     C79817  11.864  11.003   8.331  0.4498  0.0141  0.0828
  592MOL0     C79818  11.997  10.964   8.354 -0.5137 -0.1837  0.6127
  592MOL0     C79819  12.053  10.872   8.278 -0.3946 -0.6043 -0.1718
  592MOL0     O79820  12.188  10.847   8.307  0.3127 -0.1511  0.1576
  592MOL0     C79821  12.257  10.750   8.230 -0.5033  0.9227 -0.3361
  592MOL0     C79822  12.396  10.744   8.282 -1.1837  0.0633  0.5258
  592MOL0     C79823  12.479  10.882   8.256 -0.4167 -0.4295  0.7420
  592MOL0     C79824  12.637  10.856   8.243 -0.0120 -0.1189 -0.4206
  592MOL0     C79825  12.714  10.985   8.201  0.7789  0.0835 -0.9772
  592MOL0     C79826  12.867  10.970   8.226  0.0354  0.1135  0.5984
  592MOL0     C79827  12.914  10.967   8.362 -0.9024  0.8368 -0.1847
  592MOL0     C79828  13.048  11.045   8.392  0.2367  0.1602 -0.6188
  592MOL0    Cl79829  13.192  10.965   8.334 -0.2440  0.3317 -0.3701
  592MOL0     C79830  11.981  10.819   8.169 -0.7170  0.6110 -0.4184
  592MOL0     C79831  11.853  10.859   8.150  0.4606  0.0721 -0.0183
  592MOL0     O79832  11.666  11.005   7.970 -0.4238 -0.4468  0.2937
  592MOL0     C79833  11.384  11.066   7.957  0.0379 -0.5711  0.0847
  592MOL0     C79834  11.250  11.117   7.957  0.5053  1.1347  0.5141
  592MOL0     N79835  10.603  11.171   8.621 -0.2165 -0.8187  0.1813
  592MOL0     N79836  10.488  11.148   8.659  0.4669 -0.4644  0.0207
  592MOL0     C79837   9.227  11.040   8.582  0.3126  0.3018  0.1930
  592MOL0     C79838   9.089  11.020   8.604 -0.2629  0.2786 -0.5681
  592MOL0     C79839   8.768  10.801   8.835 -1.2849  1.2080 -0.1591
  592MOL0     C79840   8.668  10.853   8.745 -0.4719 -0.3735 -0.2579
  592MOL0     C79841   8.535  10.796   8.737 -0.1403  0.6321  0.4046
  592MOL0     C79842   8.507  10.682   8.810  0.5066 -0.6791  0.9420
  592MOL0     O79843   8.376  10.636   8.813 -0.3067 -0.4505 -0.3815
  592MOL0     C79844   8.358  10.498   8.856  0.4762 -0.3434  0.6512
  592MOL0     C79845   8.238  10.444   8.780 -0.0291 -0.1165 -0.1023
  592MOL0     C79846   8.173  10.325   8.845 -0.2282  0.5713 -0.0052
  592MOL0     C79847   8.220  10.184   8.802 -0.1941 -0.1457 -0.6097
  592MOL0     C79848   8.364  10.160   8.781  0.3648 -0.3942 -0.1345
  592MOL0     C79849   8.482  10.126   8.751  1.1441 -0.3043 -0.2379
  592MOL0     C79850   8.606  10.628   8.893  0.0053  0.2246  0.2373
  592MOL0     C79851   8.739  10.680   8.908 -0.2665 -0.5417  0.2381
  592MOL0     C79852   8.826  10.617   9.009 -0.2415  0.5263 -0.5153
  592MOL0     H79853   9.104  11.031   8.951 -0.6390 -0.6807 -0.5908
  592MOL0     H79854   9.325  11.079   8.907  0.7105 -3.5539 -0.4944
  592MOL0     H79855   9.570  11.038   8.829  1.1082  0.0799 -0.6339
  592MOL0     H79856   9.481  10.908   8.802  0.0206  1.9755  2.6738
  592MOL0     H79857   9.587  10.843   8.583  0.4195 -1.5803 -0.3488
  592MOL0     H79858   9.693  10.837   8.730  1.4911 -0.2846 -2.2492
  592MOL0     H79859   9.770  11.072   8.686  1.3965  1.2245  0.0863
  592MOL0     H79860   9.717  11.055   8.521  1.4555 -0.2387 -0.0154
  592MOL0     H79861   9.900  10.854   8.648 -3.3809 -1.0912  0.5153
  592MOL0     H79862   9.860  10.863   8.477  0.0621 -0.4545  0.5534
  592MOL0     H79863   9.933  11.112   8.504 -1.2772  1.6334  3.6065
  592MOL0     H79864  10.037  11.048   8.631  0.6175 -1.6005 -0.1867
  592MOL0     H79865  10.115  10.863   8.475 -1.1482  0.3774 -1.2112
  592MOL0     H79866  10.074  10.960   8.346 -1.2553 -1.8677  0.8610
  592MOL0     H79867  10.224  11.160   8.460 -0.9227 -0.5485 -1.4835
  592MOL0     H79868  10.305  11.030   8.369  2.5777 -0.3137  1.1919
  592MOL0     H79869  10.267  11.042   8.680 -0.7904  3.2151 -1.0382
  592MOL0     H79870  10.317  10.894   8.586  1.1705 -0.2641  1.9456
  592MOL0     H79871  10.538  10.923   8.434 -2.0044  2.5905 -3.4338
  592MOL0     H79872  10.871  11.082   8.511 -1.1554  2.4332 -0.1450
  592MOL0     H79873  10.811  10.983   8.398  3.4017  0.4704  2.0491
  592MOL0     H79874  10.718  11.197   8.279 -0.4463  0.3504  0.6845
  592MOL0     H79875  10.822  11.285   8.398  0.4757 -0.7366 -0.1355
  592MOL0     H79876  10.898  11.068   8.196 -3.0199  0.4609  0.8120
  592MOL0     H79877  11.006  11.122   8.329 -1.2772 -0.2255  0.8288
  592MOL0     H79878  11.034  11.349   8.225 -0.1768 -0.1901 -0.8434
  592MOL0     H79879  10.898  11.322   8.123  0.0157 -1.2539 -2.1129
  592MOL0     H79880  11.233  11.198   8.281 -2.7131 -0.5160 -0.6995
  592MOL0     H79881  11.468  11.148   8.288  0.6184  0.8551  0.4959
  592MOL0     H79882  11.821  11.068   8.407  1.3606 -1.1268  1.6477
  592MOL0     H79883  12.052  11.005   8.438  2.0178  0.0495 -1.0580
  592MOL0     H79884  12.209  10.653   8.246  0.8442  0.1413 -0.8656
  592MOL0     H79885  12.256  10.789   8.128 -0.5306  0.1432 -0.6340
  592MOL0     H79886  12.398  10.732   8.390  1.4885  0.2140  0.5696
  592MOL0     H79887  12.450  10.656   8.245 -0.6777 -0.8104  3.1409
  592MOL0     H79888  12.445  10.928   8.162  3.3958  0.4299 -0.3883
  592MOL0     H79889  12.469  10.958   8.334 -0.9420  0.8505 -0.4978
  592MOL0     H79890  12.652  10.777   8.169 -0.5156 -0.3395 -0.2933
  592MOL0     H79891  12.672  10.825   8.342  0.3180 -0.8366 -0.7507
  592MOL0     H79892  12.670  11.067   8.257  0.0426  1.0211 -2.8472
  592MOL0     H79893  12.687  11.003   8.097 -0.9477 -1.8096 -0.9335
  592MOL0     H79894  12.901  10.876   8.182 -2.8815 -1.5033  1.5427
  592MOL0     H79895  12.912  11.057   8.178 -0.8384 -0.0514 -0.5468
  592MOL0     H79896  12.918  10.859   8.380 -0.9225  0.5209 -1.8916
  592MOL0     H79897  12.841  11.009   8.432 -0.3700  0.6100  0.5110
  592MOL0     H79898  13.053  11.138   8.335  0.7290 -0.0779 -0.9747
  592MOL0     H79899  13.059  11.058   8.499  1.6174  0.3493 -0.7718
  592MOL0     H79900  12.028  10.737   8.115 -0.0430 -1.0922  2.5077
  592MOL0     H79901  11.797  10.808   8.071 -1.6040  2.8012 -0.4532
  592MOL0     H79902  11.432  11.028   7.868  1.1574  3.2084 -1.0951
  592MOL0     H79903  11.187  11.108   7.869  0.8124  2.0688  0.1812
  592MOL0     H79904   9.254  11.015   8.480  0.3591 -1.7434  0.6525
  592MOL0     H79905   9.023  11.012   8.518 -1.2635  1.1542  0.0876
  592MOL0     H79906   8.692  10.938   8.682 -0.6090  0.5346  0.8795
  592MOL0     H79907   8.464  10.839   8.668  0.9225 -0.3554 -1.4001
  592MOL0     H79908   8.331  10.496   8.962 -1.9103 -2.4794  0.1084
  592MOL0     H79909   8.445  10.435   8.839  1.3272  1.1533 -0.8858
  592MOL0     H79910   8.267  10.419   8.678  0.4264  1.3225 -0.3349
  592MOL0     H79911   8.157  10.518   8.783  0.0642 -0.0394  1.1882
  592MOL0     H79912   8.066  10.345   8.836 -0.5505 -1.2513 -0.6556
  592MOL0     H79913   8.192  10.330   8.953 -0.9554  1.5392  0.0837
  592MOL0     H79914   8.197  10.124   8.891  1.7389  0.3933  0.3048
  592MOL0     H79915   8.158  10.151   8.718 -0.3879 -2.3347  0.3046
  592MOL0     H79916   8.579  10.096   8.717  0.6050 -2.8734  0.2702
  592MOL0     H79917   8.574  10.566   8.977 -3.2742 -2.5264 -2.7270
  592MOL0     H79918   8.926  10.585   8.978  0.3188  1.5829  0.1313
  592MOL0     H79919   8.855  10.691   9.085  1.2599 -1.4129  0.9258
  592MOL0     H79920   8.773  10.533   9.054  2.2573 -0.5596  0.6264
  593MOL0     O79921   4.877   1.501   7.436  0.4094 -0.1298  0.1867
  593MOL0     C79922   4.886   1.408   7.360 -0.5200  0.4439 -0.0103
  593MOL0     O79923   5.000   1.384   7.290 -0.3631 -0.6804 -0.0206
  593MOL0     C79924   5.117   1.448   7.322 -0.0673  0.3460  0.3968
  593MOL0     C79925   5.173   1.455   7.450 -0.3517  0.2562  0.0597
  593MOL0     C79926   5.292   1.526   7.476 -0.8332 -0.0707 -0.7659
  593MOL0     C79927   5.352   1.600   7.377 -0.2005 -0.8215  0.0535
  593MOL0     O79928   5.446   1.699   7.410  0.2284 -0.0833 -0.1415
  593MOL0     C79929   5.486   1.721   7.542 -0.1849 -0.2756 -0.0465
  593MOL0     C79930   5.574   1.622   7.621  1.0002  0.3919 -0.1573
  593MOL0     C79931   5.589   1.648   7.774 -0.5972 -0.8124  0.1506
  593MOL0     C79932   5.452   1.644   7.845  1.0069  0.0808  0.6537
  593MOL0     C79933   5.457   1.666   7.992  0.9248  0.9254 -0.4238
  593MOL0     C79934   5.313   1.676   8.054 -0.6185  0.7533  0.0351
  593MOL0     C79935   5.312   1.673   8.209  0.8477  0.1242  0.1277
  593MOL0     C79936   5.328   1.796   8.292  0.0836 -0.0732  0.2647
  593MOL0     N79937   5.363   1.762   8.433 -0.5159 -0.6800 -0.5084
  593MOL0     C79938   5.472   1.692   8.481 -0.8295  0.3858  0.0746
  593MOL0     C79939   5.467   1.700   8.615  1.5634  0.2652 -0.9771
  593MOL0     C79940   5.558   1.626   8.700 -0.0623  0.4970 -0.7139
  593MOL0     C79941   5.694   1.695   8.707  0.8152 -0.0216 -0.2127
  593MOL0     C79942   5.696   1.794   8.821 -0.5965 -0.3481 -0.3135
  593MOL0     C79943   5.831   1.857   8.839 -0.1317  0.1350  0.1930
  593MOL0     O79944   5.836   1.958   8.935 -0.2178 -0.1222 -1.0895
  593MOL0     C79945   5.954   2.038   8.941  0.8667 -0.2717 -0.6458
  593MOL0     C79946   6.081   2.000   8.890  0.4693  0.1001 -0.3596
  593MOL0     C79947   6.194   2.078   8.918 -0.8290  0.8919  0.7929
  593MOL0     C79948   6.185   2.201   8.989 -0.2562  0.3184  0.6041
  593MOL0     C79949   6.304   2.284   9.010  0.7645  0.3460 -0.8533
  593MOL0     O79950   6.417   2.207   8.993 -0.3474 -1.1421 -0.1160
  593MOL0     C79951   6.546   2.279   9.004  0.1559  0.5495 -0.2058
  593MOL0     C79952   6.576   2.405   8.955  0.3463  0.5233  0.0211
  593MOL0     C79953   6.709   2.447   8.943 -0.8399  0.1902 -0.7757
  593MOL0     C79954   6.811   2.375   9.001  0.9081  0.2757  1.0759
  593MOL0     O79955   6.939   2.422   8.987 -0.0804  0.3468 -0.7105
  593MOL0     C79956   7.041   2.362   9.075 -0.4768 -0.7904  0.0689
  593MOL0     C79957   7.177   2.437   9.057  0.2550 -0.1816  0.6444
  593MOL0     C79958   7.239   2.419   8.925  0.6045 -0.1064 -0.3774
  593MOL0     C79959   7.337   2.534   8.909 -0.2620  0.5551 -0.2244
  593MOL0     C79960   7.474   2.516   8.981  0.6311  0.0851  0.3432
  593MOL0     C79961   7.566   2.406   8.926 -0.3379  0.7935  0.0122
  593MOL0     C79962   7.662   2.352   9.037  0.0826  1.0237 -0.0038
  593MOL0     C79963   7.781   2.259   8.984 -0.1302  0.2924 -0.4634
  593MOL0    Cl79964   7.895   2.344   8.878 -0.2418 -0.0627 -0.4839
  593MOL0     C79965   6.782   2.251   9.060 -0.8908  0.0405 -0.0759
  593MOL0     C79966   6.652   2.209   9.060  0.1689  0.6037 -0.9123
  593MOL0     O79967   6.298   2.401   9.041  0.0721 -1.3365 -0.7142
  593MOL0     C79968   6.058   2.239   9.040 -1.2523 -0.4390  0.2743
  593MOL0     C79969   5.953   2.155   9.020  0.6603  0.2120  0.0113
  593MOL0     N79970   5.359   1.780   8.649 -0.2960  0.1284  0.4469
  593MOL0     N79971   5.296   1.814   8.540 -0.1823 -0.3984  0.0693
  593MOL0     C79972   5.303   1.599   7.248  0.5795 -0.3209  0.6048
  593MOL0     C79973   5.184   1.519   7.220 -0.5412 -0.5473 -0.9914
  593MOL0     C79974   4.766   1.321   7.333 -0.7265 -0.2645  0.4230
  593MOL0     C79975   4.703   1.322   7.205  0.3801 -0.3189  0.9249
  593MOL0     C79976   4.590   1.250   7.186  0.1552  0.1311  1.0995
  593MOL0     C79977   4.537   1.163   7.279  0.8365 -0.4320  0.3659
  593MOL0     O79978   4.427   1.079   7.261 -0.0115 -0.3381 -0.0276
  593MOL0     C79979   4.371   1.059   7.128  0.7213  0.0364 -0.5816
  593MOL0     C79980   4.230   1.121   7.145  0.5867  0.0269  0.4734
  593MOL0     C79981   4.136   1.120   7.027 -0.1214  0.2951  0.8722
  593MOL0     C79982   4.201   1.162   6.895  0.0603 -0.2272 -0.4328
  593MOL0     C79983   4.250   1.294   6.903  0.5948 -0.1385 -0.9276
  593MOL0     C79984   4.286   1.408   6.923  0.0774  0.3208 -0.2992
  593MOL0     C79985   4.597   1.159   7.411 -0.3335 -0.8672 -0.5661
  593MOL0     C79986   4.716   1.236   7.429  0.8859 -0.7480 -0.8535
  593MOL0     C79987   4.788   1.222   7.564 -0.1388 -0.3465  0.7047
  593MOL0     H79988   5.122   1.403   7.532 -0.4786 -0.2513 -0.3342
  593MOL0     H79989   5.327   1.524   7.579 -3.2028  1.7731  0.1564
  593MOL0     H79990   5.548   1.812   7.534 -3.0233  1.6338 -3.0931
  593MOL0     H79991   5.396   1.739   7.601 -1.8659 -2.1808 -1.8634
  593MOL0     H79992   5.671   1.637   7.574  0.7471  1.8552 -0.2590
  593MOL0     H79993   5.546   1.517   7.609  2.4834 -0.2931  1.7973
  593MOL0     H79994   5.627   1.751   7.780 -4.5214  0.8235 -0.1238
  593MOL0     H79995   5.660   1.578   7.818  0.8625  2.1713  3.0287
  593MOL0     H79996   5.386   1.716   7.794  0.1470 -1.8055 -1.0306
  593MOL0     H79997   5.398   1.551   7.828 -1.1749  1.2847  0.4906
  593MOL0     H79998   5.506   1.585   8.045  0.6347  1.7572  1.1710
  593MOL0     H79999   5.509   1.758   8.022  1.6379 -0.0260  1.3626
  593MOL0     H80000   5.254   1.757   8.010 -1.2003  0.2875 -0.0498
  593MOL0     H80001   5.259   1.584   8.031  0.1039  0.7928 -1.9893
  593MOL0     H80002   5.373   1.593   8.251  2.7767  0.4667 -1.8330
  593MOL0     H80003   5.210   1.635   8.219  0.5895  1.0769  1.4045
  593MOL0     H80004   5.411   1.839   8.236 -1.1650 -1.1880 -2.6836
  593MOL0     H80005   5.237   1.857   8.299 -0.4346 -0.8123  0.0943
  593MOL0     H80006   5.553   1.640   8.431 -1.4140 -0.5867  0.1110
  593MOL0     H80007   5.514   1.613   8.800 -2.2993  0.4561 -1.6457
  593MOL0     H80008   5.562   1.528   8.651  2.8478  1.0654 -1.7901
  593MOL0     H80009   5.764   1.614   8.732  1.5980  0.5302 -0.5739
  593MOL0     H80010   5.711   1.739   8.609 -1.2520 -1.5778 -1.3508
  593MOL0     H80011   5.667   1.747   8.915 -0.8949 -1.5484 -0.9891
  593MOL0     H80012   5.626   1.876   8.803 -2.1581 -1.9543 -2.0449
  593MOL0     H80013   5.858   1.909   8.747  0.5910  1.8543  1.3208
  593MOL0     H80014   5.906   1.781   8.860  0.1136  0.0635 -0.8899
  593MOL0     H80015   6.090   1.905   8.837 -0.1392  1.3908 -2.9223
  593MOL0     H80016   6.290   2.041   8.885 -0.3076 -0.1220  3.1854
  593MOL0     H80017   6.501   2.468   8.909 -1.9375 -1.8896  0.2146
  593MOL0     H80018   6.717   2.546   8.900 -2.3586 -0.2568 -2.2055
  593MOL0     H80019   7.012   2.378   9.179  2.4398  0.7434  0.7447
  593MOL0     H80020   7.058   2.258   9.044  0.9414 -0.4423 -0.3984
  593MOL0     H80021   7.157   2.542   9.080 -0.2358 -0.4100  1.2910
  593MOL0     H80022   7.249   2.399   9.130  2.1218 -0.4115 -1.2234
  593MOL0     H80023   7.292   2.324   8.917 -1.2593 -1.2997  0.6321
  593MOL0     H80024   7.162   2.418   8.847  0.5037  1.6114 -0.3383
  593MOL0     H80025   7.291   2.624   8.952 -0.3957  0.8097 -0.8950
  593MOL0     H80026   7.345   2.551   8.802  1.2791  2.5531  0.1537
  593MOL0     H80027   7.446   2.484   9.082 -4.6088 -0.0707 -0.9094
  593MOL0     H80028   7.528   2.611   8.970 -1.4261  1.1912 -0.6866
  593MOL0     H80029   7.509   2.322   8.886  1.6946 -1.7014  1.9629
  593MOL0     H80030   7.620   2.450   8.841 -2.6804  0.6659 -1.6348
  593MOL0     H80031   7.603   2.286   9.101 -0.3670 -1.4188 -2.7488
  593MOL0     H80032   7.700   2.435   9.097 -2.7708  1.2017  1.7557
  593MOL0     H80033   7.829   2.233   9.079  1.0102 -1.0502 -1.3612
  593MOL0     H80034   7.741   2.163   8.949 -1.8421  0.0263  1.9569
  593MOL0     H80035   6.863   2.193   9.103 -0.3052  2.4690  2.4027
  593MOL0     H80036   6.639   2.110   9.101  2.9666  0.5183 -0.0407
  593MOL0     H80037   6.052   2.334   9.092 -0.6886 -1.2356  1.8730
  593MOL0     H80038   5.860   2.174   9.073  0.6793 -2.0865  0.9709
  593MOL0     H80039   5.364   1.647   7.172  0.4711 -1.0456  0.0449
  593MOL0     H80040   5.152   1.513   7.116  1.6951 -1.1342 -1.7047
  593MOL0     H80041   4.741   1.382   7.123  1.7117 -0.5990  1.3037
  593MOL0     H80042   4.525   1.268   7.101 -1.4671 -0.8383  2.0780
  593MOL0     H80043   4.360   0.950   7.119 -1.8664  0.2739 -1.1897
  593MOL0     H80044   4.414   1.099   7.036 -0.9115  0.5466 -1.1536
  593MOL0     H80045   4.236   1.227   7.170 -4.1510  1.0229 -1.5564
  593MOL0     H80046   4.181   1.074   7.231 -0.7294  0.3240 -0.1050
  593MOL0     H80047   4.057   1.194   7.043 -0.3233  0.1007  0.7880
  593MOL0     H80048   4.087   1.023   7.019 -1.8165  1.2120 -0.5156
  593MOL0     H80049   4.279   1.090   6.868 -0.0118  0.2227 -1.8955
  593MOL0     H80050   4.119   1.164   6.823 -1.7152 -1.1536  1.4591
  593MOL0     H80051   4.313   1.509   6.943  1.0985 -0.5159  3.2765
  593MOL0     H80052   4.558   1.088   7.484  0.8066 -1.4392 -0.4935
  593MOL0     H80053   4.878   1.162   7.550 -0.0314 -0.1077  0.3701
  593MOL0     H80054   4.810   1.317   7.613 -3.2929  1.3125 -0.7946
  593MOL0     H80055   4.725   1.164   7.632 -4.8448  1.6660 -1.4231
  594MOL0     O80056   7.087   5.851   4.475 -0.3960  0.0211 -0.2164
  594MOL0     C80057   6.998   5.868   4.554  0.2070 -0.3690  0.0919
  594MOL0     O80058   7.010   5.892   4.693 -0.1285  0.6560  0.4458
  594MOL0     C80059   7.144   5.891   4.739 -0.0455  0.5176  0.2346
  594MOL0     C80060   7.243   5.983   4.694 -0.1156 -0.0385 -0.1472
  594MOL0     C80061   7.369   5.979   4.756 -0.1837 -0.5647  0.3312
  594MOL0     C80062   7.398   5.878   4.848 -0.3349 -0.3083 -0.1209
  594MOL0     O80063   7.510   5.863   4.924  0.9708  0.0676 -0.0617
  594MOL0     C80064   7.615   5.960   4.901 -0.2866 -0.5365 -0.4037
  594MOL0     C80065   7.747   5.928   4.964  0.4075  0.0884 -0.1712
  594MOL0     C80066   7.735   5.911   5.117  0.1109 -0.3135  0.3553
  594MOL0     C80067   7.858   5.855   5.184 -0.3492 -0.4068  0.0387
  594MOL0     C80068   7.976   5.951   5.162  1.0782 -0.0570  0.1415
  594MOL0     C80069   8.095   5.928   5.258  0.4264  0.2552 -0.6397
  594MOL0     C80070   8.131   5.779   5.296  0.7592  1.0403 -0.1024
  594MOL0     C80071   8.266   5.765   5.372 -0.6643 -0.2456  0.0354
  594MOL0     N80072   8.364   5.857   5.333  0.6228 -0.3131 -0.3243
  594MOL0     C80073   8.413   5.956   5.409 -0.4397 -0.4832  1.0697
  594MOL0     C80074   8.525   5.990   5.339 -1.1071  0.6980  0.3174
  594MOL0     C80075   8.617   6.101   5.356 -1.4087  0.4538 -0.0674
  594MOL0     C80076   8.703   6.135   5.235 -0.6315 -0.0473  0.9061
  594MOL0     C80077   8.812   6.237   5.268  0.6233  0.8799  0.1760
  594MOL0     C80078   8.906   6.282   5.156 -0.2798 -0.0269  0.0077
  594MOL0     O80079   8.999   6.380   5.203 -0.2099  0.3180 -0.5730
  594MOL0     C80080   9.116   6.400   5.134 -0.9167  0.5970  0.5410
  594MOL0     C80081   9.221   6.454   5.208 -0.1218 -0.2798 -0.0346
  594MOL0     C80082   9.340   6.497   5.156  0.4513 -0.5268  0.2544
  594MOL0     C80083   9.372   6.459   5.021  0.0029 -0.5731  0.1060
  594MOL0     C80084   9.494   6.504   4.961  0.4499  0.2799 -0.0664
  594MOL0     O80085   9.584   6.562   5.041 -0.9709  0.3710 -0.2484
  594MOL0     C80086   9.716   6.570   5.004  0.3098 -0.8941 -0.1146
  594MOL0     C80087   9.780   6.694   5.026  0.2102  0.2395 -0.3081
  594MOL0     C80088   9.917   6.707   5.001  0.0517  0.4371  0.5410
  594MOL0     C80089   9.990   6.594   4.964  1.0176  0.5535  0.3547
  594MOL0     O80090  10.122   6.593   4.947  0.1128 -0.1628  0.3291
  594MOL0     C80091  10.211   6.702   4.966  0.2193  0.2933 -0.2409
  594MOL0     C80092  10.348   6.660   4.925 -0.6590 -0.0146  0.7888
  594MOL0     C80093  10.458   6.756   4.983  0.0725 -0.2445 -0.0516
  594MOL0     C80094  10.602   6.731   4.937 -0.6280  0.0610 -0.2641
  594MOL0     C80095  10.708   6.822   5.000 -0.4901 -0.4337  0.6135
  594MOL0     C80096  10.732   6.788   5.145  0.3223 -0.0562 -0.0296
  594MOL0     C80097  10.845   6.884   5.187 -0.9123  0.0481  1.1458
  594MOL0     C80098  10.923   6.860   5.318  0.3340  0.6672  0.5545
  594MOL0    Cl80099  11.007   6.701   5.328  0.1676  0.2511 -0.0279
  594MOL0     C80100   9.925   6.476   4.942  0.9171 -0.6950 -0.5654
  594MOL0     C80101   9.787   6.460   4.964 -0.2880 -0.6560 -0.1100
  594MOL0     O80102   9.516   6.466   4.851 -0.0467 -0.0936 -0.0597
  594MOL0     C80103   9.273   6.385   4.952  0.4112  0.3212 -0.0850
  594MOL0     C80104   9.146   6.355   5.004 -0.5826 -0.0708 -0.4192
  594MOL0     N80105   8.537   5.916   5.228 -0.6549 -0.5020 -0.3327
  594MOL0     N80106   8.441   5.832   5.226  0.1188 -0.9408  0.6645
  594MOL0     C80107   7.298   5.791   4.897 -1.0302 -0.6938  0.5670
  594MOL0     C80108   7.170   5.804   4.845  0.5120 -0.0359 -0.1354
  594MOL0     C80109   6.859   5.877   4.497  0.5617  0.9523  0.8196
  594MOL0     C80110   6.770   5.963   4.555  0.2593 -0.0817 -1.3170
  594MOL0     C80111   6.631   5.966   4.523 -1.0487  0.4888 -0.7780
  594MOL0     C80112   6.583   5.885   4.423  0.8396 -0.7711 -0.5998
  594MOL0     O80113   6.452   5.867   4.397  0.1074  0.2958 -0.0157
  594MOL0     C80114   6.358   5.848   4.506  0.7658 -0.5357 -0.7146
  594MOL0     C80115   6.331   5.700   4.516  0.4196  0.4354 -0.4964
  594MOL0     C80116   6.260   5.660   4.639 -0.0076  0.1651  0.3715
  594MOL0     C80117   6.130   5.726   4.659  0.1475  0.6681 -0.2030
  594MOL0     C80118   6.026   5.632   4.617  0.2934  0.9812  0.3741
  594MOL0     C80119   5.948   5.558   4.560 -0.4759 -0.4856 -0.7600
  594MOL0     C80120   6.672   5.810   4.347  0.1462  0.9802 -1.2934
  594MOL0     C80121   6.816   5.809   4.378 -0.9093 -0.2777  0.2203
  594MOL0     C80122   6.911   5.717   4.302  0.0008 -0.1205  0.0137
  594MOL0     H80123   7.220   6.048   4.610 -0.8323  1.0878  0.8843
  594MOL0     H80124   7.442   6.059   4.751  1.2393 -1.6040  2.8094
  594MOL0     H80125   7.631   5.969   4.793  2.3030  0.2731 -0.0086
  594MOL0     H80126   7.592   6.055   4.949  1.2025 -0.5599  0.3838
  594MOL0     H80127   7.813   6.013   4.946 -1.5810  1.5363 -1.0742
  594MOL0     H80128   7.794   5.841   4.918 -0.6160 -0.2960 -0.5186
  594MOL0     H80129   7.644   5.854   5.135  0.2779 -0.3775  1.0225
  594MOL0     H80130   7.723   6.013   5.154  2.0016  1.6476 -3.7411
  594MOL0     H80131   7.833   5.848   5.291 -4.2046  0.3864 -0.6617
  594MOL0     H80132   7.884   5.758   5.142 -0.4772 -0.0363 -0.9047
  594MOL0     H80133   8.015   5.929   5.062 -0.8184 -0.4698 -0.5358
  594MOL0     H80134   7.942   6.055   5.171  3.1708  0.7712 -0.7099
  594MOL0     H80135   8.184   5.977   5.219 -0.6386  1.1398 -2.0445
  594MOL0     H80136   8.072   5.988   5.346 -0.9541 -1.0876 -0.0374
  594MOL0     H80137   8.127   5.730   5.198 -1.3004  3.2641 -1.2349
  594MOL0     H80138   8.052   5.733   5.356  1.3109 -1.6631 -1.3066
  594MOL0     H80139   8.243   5.762   5.479 -2.6962 -0.0663 -0.3440
  594MOL0     H80140   8.293   5.661   5.353 -1.2589  0.1927 -4.3859
  594MOL0     H80141   8.365   5.995   5.498 -0.6899  1.5733  0.0905
  594MOL0     H80142   8.560   6.186   5.395 -0.7643 -0.4097  2.9844
  594MOL0     H80143   8.690   6.079   5.434  1.6062  0.1990 -2.7604
  594MOL0     H80144   8.747   6.044   5.192 -1.2445  1.3045 -2.8757
  594MOL0     H80145   8.639   6.174   5.156  0.4877 -0.0146 -0.0135
  594MOL0     H80146   8.867   6.191   5.351  0.7172 -0.9997 -0.8579
  594MOL0     H80147   8.754   6.316   5.316 -1.5242 -0.1329 -0.6351
  594MOL0     H80148   8.861   6.333   5.070  1.1735 -0.9414 -1.3588
  594MOL0     H80149   8.953   6.193   5.115 -2.8329 -0.8875 -1.2735
  594MOL0     H80150   9.193   6.483   5.309 -0.4458 -2.2362  0.4811
  594MOL0     H80151   9.413   6.553   5.214  0.6130  0.2470 -0.6783
  594MOL0     H80152   9.719   6.778   5.059  1.5656  1.1295 -0.0025
  594MOL0     H80153   9.962   6.806   5.007 -1.9747  1.4138  0.6323
  594MOL0     H80154  10.181   6.787   4.904 -1.2135 -2.0295 -2.9310
  594MOL0     H80155  10.201   6.739   5.069  0.2004 -0.3543 -0.0100
  594MOL0     H80156  10.385   6.559   4.946 -0.4780  0.4798  3.0988
  594MOL0     H80157  10.352   6.673   4.816  2.7882  0.5180  0.8593
  594MOL0     H80158  10.426   6.857   4.955  0.0331 -0.2723 -0.1060
  594MOL0     H80159  10.449   6.750   5.092  0.3194  0.0110 -0.0162
  594MOL0     H80160  10.615   6.738   4.829 -2.4994  3.4241 -0.4120
  594MOL0     H80161  10.621   6.628   4.968 -2.6880  0.4810  2.9404
  594MOL0     H80162  10.670   6.925   4.996  0.2021 -0.2050 -1.0679
  594MOL0     H80163  10.804   6.829   4.947 -1.1532  3.5247 -0.4370
  594MOL0     H80164  10.641   6.817   5.198  0.6391 -2.5517  2.0988
  594MOL0     H80165  10.756   6.682   5.154 -0.7531 -0.3706 -0.6336
  594MOL0     H80166  10.811   6.988   5.196  3.5165  1.8116  0.1650
  594MOL0     H80167  10.927   6.882   5.115 -2.4078 -0.4147 -0.6242
  594MOL0     H80168  10.989   6.945   5.337 -1.4279  2.9876 -2.5694
  594MOL0     H80169  10.845   6.868   5.394 -0.2223 -0.6114  0.1475
  594MOL0     H80170   9.993   6.397   4.911  0.8351 -0.2593 -1.8963
  594MOL0     H80171   9.739   6.363   4.952 -0.9153 -0.3874  0.1701
  594MOL0     H80172   9.301   6.358   4.851  1.2653  1.5870 -0.2079
  594MOL0     H80173   9.079   6.297   4.943 -1.2270  2.2941 -2.0961
  594MOL0     H80174   7.320   5.726   4.981  2.6461 -0.5232 -0.0699
  594MOL0     H80175   7.097   5.733   4.881 -0.6892  0.8568 -0.7429
  594MOL0     H80176   6.792   6.019   4.646 -0.5253  0.6526 -1.5631
  594MOL0     H80177   6.563   6.031   4.577 -2.2987 -3.0481  2.3710
  594MOL0     H80178   6.266   5.897   4.475 -0.1627  2.3549  5.2897
  594MOL0     H80179   6.390   5.898   4.598  2.0457  2.8815 -2.8221
  594MOL0     H80180   6.428   5.650   4.503  0.6596  1.0917 -1.3777
  594MOL0     H80181   6.271   5.685   4.426  2.1929  0.0915 -1.6865
  594MOL0     H80182   6.321   5.688   4.725  2.6455  0.2380 -1.4058
  594MOL0     H80183   6.238   5.553   4.636 -0.2849  0.2475 -1.6782
  594MOL0     H80184   6.113   5.759   4.762  0.5056  0.3123 -0.0267
  594MOL0     H80185   6.124   5.817   4.599  1.7887  0.7230 -0.3310
  594MOL0     H80186   5.870   5.495   4.523 -1.2856 -1.2846  2.0731
  594MOL0     H80187   6.633   5.740   4.274  0.5981 -1.9741  1.0990
  594MOL0     H80188   6.960   5.640   4.363 -0.0305 -0.4339 -0.3494
  594MOL0     H80189   6.852   5.670   4.222 -0.5024  0.2074  0.1878
  594MOL0     H80190   6.987   5.773   4.248  1.2502 -2.5881 -0.9654
  595MOL0     O80191   0.116   7.050   1.799 -0.5241  0.5063  0.1930
  595MOL0     C80192   0.048   7.094   1.706 -0.1981  0.0223  0.9356
  595MOL0     O80193   0.071   7.078   1.570 -0.1764  1.2844  0.8087
  595MOL0     C80194   0.195   7.012   1.551  0.5519  0.1329 -0.1595
  595MOL0     C80195   0.212   6.875   1.587 -0.2724 -1.0277  0.5110
  595MOL0     C80196   0.330   6.805   1.568  0.3276 -0.8534  1.3810
  595MOL0     C80197   0.448   6.879   1.533 -0.4541  0.5716 -0.0419
  595MOL0     O80198   0.571   6.812   1.529 -0.2222 -0.2076  0.2022
  595MOL0     C80199   0.610   6.760   1.652  0.1341 -1.0354  0.1932
  595MOL0     C80200   0.754   6.786   1.692 -0.4766 -0.1060  0.6030
  595MOL0     C80201   0.789   6.715   1.819 -0.4871  0.6951  0.0597
  595MOL0     C80202   0.928   6.739   1.871 -0.0345  0.1665 -0.0569
  595MOL0     C80203   0.945   6.677   2.013  0.1234  0.0269 -0.2240
  595MOL0     C80204   1.083   6.705   2.075  0.2027  0.3034 -0.7680
  595MOL0     C80205   1.102   6.620   2.202  0.3056  0.0988  0.2616
  595MOL0     C80206   1.240   6.632   2.272  0.5462  0.8651 -0.4377
  595MOL0     N80207   1.292   6.770   2.292  0.3142  0.8552 -0.7251
  595MOL0     C80208   1.358   6.849   2.203 -0.5305  0.5621 -0.0675
  595MOL0     C80209   1.401   6.952   2.266 -0.5282 -0.9514 -0.2350
  595MOL0     C80210   1.458   7.082   2.198 -0.4757  0.4529 -0.3127
  595MOL0     C80211   1.597   7.093   2.236 -0.6129  0.4040 -0.9953
  595MOL0     C80212   1.667   7.213   2.178  0.0846 -0.1625  0.2737
  595MOL0     C80213   1.804   7.239   2.243 -1.1983 -0.0861  0.0342
  595MOL0     O80214   1.853   7.120   2.292 -0.5237 -0.0698 -0.1442
  595MOL0     C80215   1.990   7.108   2.334 -0.2353  0.3183  0.4512
  595MOL0     C80216   2.018   6.998   2.419 -0.1666  0.4075  0.7446
  595MOL0     C80217   2.149   6.954   2.452  0.7882  0.6870 -0.3362
  595MOL0     C80218   2.255   7.026   2.396  0.1629 -0.9548 -0.2247
  595MOL0     C80219   2.397   6.993   2.434  0.1513 -0.6862  0.1605
  595MOL0     O80220   2.490   7.093   2.410  0.0639 -0.2515 -0.0510
  595MOL0     C80221   2.612   7.067   2.464 -0.5510 -0.2549  0.4189
  595MOL0     C80222   2.724   7.086   2.383  0.8729  0.0014 -0.1463
  595MOL0     C80223   2.849   7.084   2.441  0.0441 -0.2716 -0.5706
  595MOL0     C80224   2.873   7.070   2.574  0.8599  0.5949 -0.3960
  595MOL0     O80225   3.003   7.077   2.624 -0.8224 -0.3652 -0.1592
  595MOL0     C80226   3.090   7.180   2.569  0.1831 -0.6005  0.2517
  595MOL0     C80227   3.233   7.164   2.611  1.4879  0.2822  0.4824
  595MOL0     C80228   3.304   7.303   2.606  0.2934 -0.1321  0.2053
  595MOL0     C80229   3.443   7.294   2.674 -0.6857 -0.2439 -0.3606
  595MOL0     C80230   3.531   7.408   2.640 -0.6308 -0.0094  0.1511
  595MOL0     C80231   3.671   7.406   2.695  0.0559 -0.3469  0.3151
  595MOL0     C80232   3.768   7.348   2.596  0.0103 -0.1564 -0.1622
  595MOL0     C80233   3.908   7.329   2.652 -0.3872  1.4183 -0.1129
  595MOL0    Cl80234   3.927   7.207   2.787 -0.1174 -0.2431 -0.4704
  595MOL0     C80235   2.761   7.061   2.663 -0.1759 -0.0730  0.5740
  595MOL0     C80236   2.634   7.048   2.604 -0.0104 -0.9354 -0.0150
  595MOL0     O80237   2.416   6.885   2.482  0.4040 -0.3694 -0.0978
  595MOL0     C80238   2.234   7.138   2.316  0.3141  0.4833 -0.0675
  595MOL0     C80239   2.102   7.176   2.284 -0.3372 -1.5480 -0.6119
  595MOL0     N80240   1.344   6.957   2.389  0.1351 -0.2348 -0.3845
  595MOL0     N80241   1.275   6.848   2.399  0.1740  0.7322  0.2210
  595MOL0     C80242   0.442   7.016   1.512 -0.1143 -0.2320  0.6136
  595MOL0     C80243   0.312   7.076   1.507  0.1868  0.1412  0.2129
  595MOL0     C80244  -0.059   7.183   1.754  0.0812 -0.0471  0.2877
  595MOL0     C80245  -0.148   7.249   1.657  0.1019  0.4790 -0.8675
  595MOL0     C80246  -0.247   7.339   1.683 -0.4078  1.3268 -0.2785
  595MOL0     C80247  -0.278   7.361   1.819  0.6401  0.4204  0.2307
  595MOL0     O80248  -0.385   7.448   1.844 -0.3040  0.3484  0.0152
  595MOL0     C80249  -0.382   7.522   1.962  0.2554  0.9659  0.2196
  595MOL0     C80250  -0.476   7.639   1.978 -1.0141 -0.0624 -0.0506
  595MOL0     C80251  -0.616   7.607   1.999  1.3222 -1.1613  0.2788
  595MOL0     C80252  -0.708   7.728   2.024 -0.1251  0.1171  0.0595
  595MOL0     C80253  -0.830   7.674   2.090  0.0015  0.4241  0.3518
  595MOL0     C80254  -0.925   7.627   2.149  0.0843 -0.5590 -0.5557
  595MOL0     C80255  -0.202   7.294   1.924  0.1445  0.1038  0.3567
  595MOL0     C80256  -0.099   7.201   1.893  0.2988 -0.3544 -0.2139
  595MOL0     C80257  -0.022   7.141   2.007  0.4909 -0.5646 -1.1800
  595MOL0     H80258   0.129   6.818   1.627 -0.7567 -1.1704 -0.6534
  595MOL0     H80259   0.325   6.698   1.589  0.2090 -1.3027 -0.7061
  595MOL0     H80260   0.540   6.787   1.732 -1.4328 -2.0913 -0.7618
  595MOL0     H80261   0.594   6.653   1.638 -2.0441 -0.7688  0.3026
  595MOL0     H80262   0.758   6.895   1.700  0.1073 -0.1901  1.6987
  595MOL0     H80263   0.813   6.757   1.604  0.8400  3.2290  0.2634
  595MOL0     H80264   0.764   6.610   1.796 -4.1893  1.3758  0.2669
  595MOL0     H80265   0.714   6.757   1.887 -0.6939  1.5231 -0.6653
  595MOL0     H80266   0.998   6.686   1.804 -1.5408 -1.9309 -0.0760
  595MOL0     H80267   0.934   6.848   1.866 -3.1983  0.3934 -1.2262
  595MOL0     H80268   0.864   6.711   2.079 -0.4243 -0.7569 -0.4756
  595MOL0     H80269   0.932   6.568   2.011 -2.5713  0.1337  2.7037
  595MOL0     H80270   1.164   6.685   2.005  1.6172  0.7398  0.6725
  595MOL0     H80271   1.097   6.812   2.096  1.1205  0.0971 -0.3111
  595MOL0     H80272   1.085   6.514   2.183  0.2025  0.1614 -0.0071
  595MOL0     H80273   1.026   6.656   2.272  0.6959  1.2003  0.1522
  595MOL0     H80274   1.234   6.584   2.370  2.3817 -0.3373 -0.8696
  595MOL0     H80275   1.312   6.577   2.211  4.0632  3.2289  1.2041
  595MOL0     H80276   1.398   6.821   2.106 -0.5503  0.1911  0.0260
  595MOL0     H80277   1.457   7.061   2.091 -2.8164 -2.0791  0.0900
  595MOL0     H80278   1.403   7.166   2.241 -0.6116 -1.7920  4.6938
  595MOL0     H80279   1.604   7.103   2.345 -0.2855  0.0374 -0.9814
  595MOL0     H80280   1.658   7.004   2.218  0.8401  1.3960 -1.0794
  595MOL0     H80281   1.610   7.305   2.189 -0.3745  0.0515 -2.9574
  595MOL0     H80282   1.679   7.187   2.072  1.2334  0.8846  0.1370
  595MOL0     H80283   1.799   7.314   2.324  0.3907 -2.8392  2.9145
  595MOL0     H80284   1.866   7.291   2.169 -0.6824 -3.0706 -1.7927
  595MOL0     H80285   1.935   6.942   2.460 -1.1019  0.8319 -0.4956
  595MOL0     H80286   2.153   6.883   2.534 -2.8566  2.2182  1.3951
  595MOL0     H80287   2.736   7.111   2.278  4.2795  1.1799  0.3877
  595MOL0     H80288   2.937   7.088   2.377  1.5654 -1.0247  1.4019
  595MOL0     H80289   3.098   7.177   2.460  4.7979  1.6449  0.2633
  595MOL0     H80290   3.053   7.280   2.594  2.3101 -0.0167  1.3329
  595MOL0     H80291   3.245   7.125   2.713 -0.8246  1.3483  1.2270
  595MOL0     H80292   3.273   7.081   2.553 -0.8380 -0.8087  0.3091
  595MOL0     H80293   3.317   7.328   2.500 -0.8795  0.8204  0.2689
  595MOL0     H80294   3.251   7.386   2.654  0.0498 -1.3058  2.0682
  595MOL0     H80295   3.484   7.197   2.646 -1.0586 -1.3527  2.5088
  595MOL0     H80296   3.438   7.304   2.783  0.2191 -0.8917 -0.2448
  595MOL0     H80297   3.482   7.496   2.683  0.7584  1.9240 -1.9842
  595MOL0     H80298   3.534   7.413   2.531 -0.1495  1.1149  0.2053
  595MOL0     H80299   3.705   7.509   2.706  0.9848 -0.9154  4.1375
  595MOL0     H80300   3.681   7.347   2.787 -0.3100  0.1403  0.6689
  595MOL0     H80301   3.782   7.421   2.515  0.8197  1.0716  1.0318
  595MOL0     H80302   3.727   7.251   2.568 -0.8469 -0.1833  1.0979
  595MOL0     H80303   3.974   7.293   2.573  1.7543  1.3030  1.6244
  595MOL0     H80304   3.945   7.426   2.686  0.8227  0.7729  0.4867
  595MOL0     H80305   2.790   7.061   2.768  0.6201  0.1124  0.3657
  595MOL0     H80306   2.538   7.050   2.654 -1.0419 -1.1819 -1.8919
  595MOL0     H80307   2.306   7.201   2.265  0.4794  0.1148 -0.2859
  595MOL0     H80308   2.085   7.267   2.227 -2.8530  0.2549  2.6477
  595MOL0     H80309   0.525   7.084   1.494 -2.9885  3.4197 -0.2463
  595MOL0     H80310   0.309   7.185   1.501  0.7438  0.2971  2.1858
  595MOL0     H80311  -0.117   7.235   1.554 -1.0509  0.4001 -1.2175
  595MOL0     H80312  -0.296   7.397   1.606 -2.5430  2.6307  1.8917
  595MOL0     H80313  -0.280   7.560   1.969  0.7906 -0.1150 -1.1889
  595MOL0     H80314  -0.390   7.459   2.052  0.5226  1.5014  0.6243
  595MOL0     H80315  -0.457   7.701   1.889 -0.5090 -1.3422 -0.8641
  595MOL0     H80316  -0.434   7.697   2.061  0.3130  2.6243 -2.4054
  595MOL0     H80317  -0.622   7.527   2.073 -0.2956  0.3270  1.8670
  595MOL0     H80318  -0.653   7.563   1.906  0.2833 -2.7509  1.3961
  595MOL0     H80319  -0.666   7.802   2.093 -1.1745  0.5421  0.2654
  595MOL0     H80320  -0.728   7.780   1.930 -2.0889  0.2095  0.4988
  595MOL0     H80321  -1.010   7.574   2.184 -0.1841 -0.7264 -1.4278
  595MOL0     H80322  -0.214   7.314   2.030  2.7437  0.0285  0.7316
  595MOL0     H80323   0.076   7.188   2.022  0.4433 -1.2866  2.2765
  595MOL0     H80324  -0.074   7.155   2.103  3.4381  2.2410  0.2212
  595MOL0     H80325  -0.027   7.033   1.992  0.7158 -1.6582  4.3374
  596MOL0     O80326   6.250   6.981   4.093  0.4775  0.7978  0.8879
  596MOL0     C80327   6.206   6.990   3.982  0.1102 -0.0415 -0.1296
  596MOL0     O80328   6.272   6.955   3.869  0.2093 -0.4583 -1.1543
  596MOL0     C80329   6.398   6.890   3.880  0.0113 -0.7890 -0.4714
  596MOL0     C80330   6.523   6.955   3.868 -0.0963 -0.3363 -0.1262
  596MOL0     C80331   6.643   6.887   3.892  0.4328 -0.5860 -0.5378
  596MOL0     C80332   6.643   6.755   3.939  1.1354  0.1940  0.4944
  596MOL0     O80333   6.757   6.683   3.972 -0.0436  0.0549 -0.8776
  596MOL0     C80334   6.872   6.755   4.014  0.5142  0.1184  0.6501
  596MOL0     C80335   6.945   6.647   4.087  0.1237  0.7016 -0.4395
  596MOL0     C80336   7.011   6.545   3.990  0.5192  0.2442  0.0041
  596MOL0     C80337   7.143   6.496   4.047  0.3711 -0.8611  1.0612
  596MOL0     C80338   7.205   6.372   3.981 -0.1204  0.4443 -0.0960
  596MOL0     C80339   7.264   6.400   3.841 -0.2043 -1.6091 -0.1552
  596MOL0     C80340   7.303   6.271   3.773  0.4475  0.3217  0.2687
  596MOL0     C80341   7.422   6.199   3.832 -0.1903  1.3118 -0.0326
  596MOL0     N80342   7.536   6.286   3.876 -0.6447  0.2840 -0.4617
  596MOL0     C80343   7.651   6.324   3.812 -0.5274  0.0155  0.4889
  596MOL0     C80344   7.722   6.370   3.911 -0.2169  0.6258 -0.4992
  596MOL0     C80345   7.873   6.414   3.903 -0.6052  0.5318 -0.4098
  596MOL0     C80346   7.959   6.397   4.035  0.3592 -0.5323  0.6137
  596MOL0     C80347   8.095   6.479   4.038 -0.2033  0.6490 -0.3911
  596MOL0     C80348   8.203   6.421   3.948  0.2965 -0.8806 -0.1748
  596MOL0     O80349   8.245   6.298   3.988  0.1087 -0.1934  0.4576
  596MOL0     C80350   8.359   6.308   4.066 -0.1611 -0.2833 -0.1446
  596MOL0     C80351   8.479   6.291   4.005 -0.0286 -0.1740  0.2627
  596MOL0     C80352   8.602   6.295   4.081  0.3802  0.5174  0.2311
  596MOL0     C80353   8.603   6.299   4.221 -0.5799 -0.5392  0.2647
  596MOL0     C80354   8.728   6.309   4.298 -0.8749 -0.7686 -0.3869
  596MOL0     O80355   8.710   6.298   4.431 -0.2690  0.1947 -0.1384
  596MOL0     C80356   8.818   6.263   4.509 -0.7545  0.3592 -0.6512
  596MOL0     C80357   8.850   6.125   4.521 -0.1078 -0.0220  0.0655
  596MOL0     C80358   8.966   6.087   4.594  0.6395  0.4200 -0.7779
  596MOL0     C80359   9.048   6.190   4.649 -0.0306  0.8410  0.0016
  596MOL0     O80360   9.152   6.154   4.727 -0.7625 -0.0431  0.9881
  596MOL0     C80361   9.253   6.069   4.667 -0.7290  0.0462 -0.8531
  596MOL0     C80362   9.363   6.146   4.580  0.0714 -0.2278 -0.1602
  596MOL0     C80363   9.455   6.032   4.514  0.6376  0.4563 -0.9631
  596MOL0     C80364   9.583   6.080   4.441  0.6105 -0.2551  0.0111
  596MOL0     C80365   9.712   5.989   4.453 -0.6306  0.1222  0.3378
  596MOL0     C80366   9.829   6.043   4.361  0.4956  0.5230 -0.0873
  596MOL0     C80367   9.956   5.959   4.403 -0.7902 -0.7694 -0.1318
  596MOL0     C80368  10.085   5.985   4.328  1.3589 -0.3383  0.1127
  596MOL0    Cl80369  10.076   5.872   4.194  0.5495  0.3446  0.1899
  596MOL0     C80370   9.007   6.323   4.641  0.3415  0.4049  0.9303
  596MOL0     C80371   8.893   6.359   4.568 -0.2023  0.0980  0.1937
  596MOL0     O80372   8.836   6.321   4.239 -0.0271  0.0251 -0.3829
  596MOL0     C80373   8.475   6.305   4.288 -0.3074  0.3332  0.7275
  596MOL0     C80374   8.352   6.299   4.205 -0.4208 -0.3926 -0.0242
  596MOL0     N80375   7.655   6.354   4.030  0.7656  0.1595  0.6107
  596MOL0     N80376   7.543   6.308   4.008 -0.5400 -0.0587 -0.3157
  596MOL0     C80377   6.524   6.695   3.956 -0.3158  0.0177  0.5574
  596MOL0     C80378   6.408   6.759   3.925  0.1032 -0.3618 -0.3014
  596MOL0     C80379   6.058   6.999   3.974 -0.4299  0.1153  0.0518
  596MOL0     C80380   5.988   6.920   3.878 -0.3371  0.5834  0.3523
  596MOL0     C80381   5.846   6.909   3.885 -0.1654 -0.6985 -0.5006
  596MOL0     C80382   5.774   6.995   3.971 -0.3785 -0.2142  0.0571
  596MOL0     O80383   5.634   7.004   3.976  0.2344 -0.0680 -0.0350
  596MOL0     C80384   5.570   6.881   3.990  0.1838 -0.1943  0.0863
  596MOL0     C80385   5.423   6.894   3.935 -0.6894  0.4992  0.6067
  596MOL0     C80386   5.333   6.976   4.029 -0.4715  0.0274  0.8559
  596MOL0     C80387   5.186   6.996   3.985  0.1863  0.1393 -0.3929
  596MOL0     C80388   5.116   6.867   3.989  0.6211 -0.0929 -0.5115
  596MOL0     C80389   5.070   6.757   3.988 -0.4486 -0.1091  0.7922
  596MOL0     C80390   5.843   7.082   4.057 -0.1107  0.3383  0.0094
  596MOL0     C80391   5.985   7.083   4.058 -0.4127 -0.0241 -0.0576
  596MOL0     C80392   6.051   7.184   4.156 -1.2362  0.8323  0.1009
  596MOL0     H80393   6.528   7.058   3.836  0.8749 -0.3935 -0.1818
  596MOL0     H80394   6.736   6.936   3.869  1.7935 -2.8403 -0.1510
  596MOL0     H80395   6.924   6.788   3.923 -2.8735  1.7592 -0.8687
  596MOL0     H80396   6.856   6.846   4.073  0.1828  0.1653  0.4887
  596MOL0     H80397   6.878   6.593   4.154 -2.2303 -0.1213 -3.2754
  596MOL0     H80398   7.035   6.688   4.135 -1.2544  3.8057 -0.2395
  596MOL0     H80399   7.013   6.586   3.888 -3.1853  0.3635 -0.1909
  596MOL0     H80400   6.945   6.458   3.978  0.1805  0.6743 -1.5952
  596MOL0     H80401   7.218   6.576   4.040 -0.3013 -0.3332 -3.4030
  596MOL0     H80402   7.123   6.474   4.152 -3.4589  0.5880  0.7595
  596MOL0     H80403   7.282   6.333   4.048  0.5770  2.1188  0.1271
  596MOL0     H80404   7.134   6.289   3.975  2.8309 -2.4638  2.0559
  596MOL0     H80405   7.190   6.451   3.778  0.9977  0.0193 -0.3108
  596MOL0     H80406   7.347   6.472   3.843 -0.7544 -0.9887  1.3502
  596MOL0     H80407   7.318   6.299   3.668 -1.8016 -2.2432 -0.8410
  596MOL0     H80408   7.217   6.204   3.769 -0.7121  1.6324  2.0604
  596MOL0     H80409   7.388   6.137   3.915  0.4705  0.6532 -0.2426
  596MOL0     H80410   7.466   6.140   3.750 -1.9017  2.9655 -2.2674
  596MOL0     H80411   7.672   6.289   3.711 -3.1912 -1.2929  0.3099
  596MOL0     H80412   7.915   6.352   3.824 -1.2905 -0.5335  0.0440
  596MOL0     H80413   7.871   6.519   3.874  0.5396  0.9155  0.7423
  596MOL0     H80414   7.904   6.423   4.126 -0.0188  0.5325  0.0902
  596MOL0     H80415   7.977   6.290   4.052 -3.1904 -1.1931  1.0831
  596MOL0     H80416   8.129   6.474   4.141 -0.4952  0.5546 -0.2970
  596MOL0     H80417   8.084   6.586   4.020 -2.6477  0.7254  1.0167
  596MOL0     H80418   8.286   6.491   3.946 -2.2858  2.4866  0.9992
  596MOL0     H80419   8.162   6.393   3.851 -1.1335 -0.1861  0.1941
  596MOL0     H80420   8.481   6.284   3.897  1.1471 -4.7555  0.3621
  596MOL0     H80421   8.692   6.299   4.021  0.1819  2.3362 -0.0041
  596MOL0     H80422   8.784   6.048   4.483 -1.6408  0.5366  1.4673
  596MOL0     H80423   8.998   5.984   4.609 -1.0998  0.1433  1.5376
  596MOL0     H80424   9.307   6.012   4.742 -1.6504  0.5288  0.2105
  596MOL0     H80425   9.195   5.991   4.616  0.3717 -0.5941 -1.1519
  596MOL0     H80426   9.319   6.203   4.498  1.5072  0.5987 -0.3871
  596MOL0     H80427   9.429   6.209   4.640 -1.9608 -0.2133  2.2020
  596MOL0     H80428   9.493   5.967   4.594  0.5994  0.6245 -0.8079
  596MOL0     H80429   9.385   5.982   4.447 -1.7120  0.0183  1.6421
  596MOL0     H80430   9.616   6.178   4.478  0.7656 -0.0227 -0.7090
  596MOL0     H80431   9.551   6.085   4.336 -1.3681 -1.2125  0.5260
  596MOL0     H80432   9.681   5.885   4.434 -3.0806  1.1308 -1.7550
  596MOL0     H80433   9.748   5.994   4.557 -2.3343 -2.1454  1.1410
  596MOL0     H80434   9.815   6.028   4.254  0.9427  1.2298 -0.2545
  596MOL0     H80435   9.844   6.148   4.387  1.7777  0.8511 -1.9848
  596MOL0     H80436   9.949   5.850   4.397  2.1878 -1.1303  1.2988
  596MOL0     H80437   9.987   5.986   4.505  0.8272 -1.0597 -0.5251
  596MOL0     H80438  10.089   6.089   4.295  3.5547 -0.9871 -2.0315
  596MOL0     H80439  10.170   5.970   4.396  0.9842  0.2022  0.7089
  596MOL0     H80440   9.075   6.396   4.683  0.3574  1.7612 -1.2699
  596MOL0     H80441   8.863   6.462   4.559  0.2461  0.0916 -1.8399
  596MOL0     H80442   8.466   6.289   4.395  1.8089  1.2857  1.0800
  596MOL0     H80443   8.253   6.298   4.250 -1.3071  1.2005 -1.7791
  596MOL0     H80444   6.524   6.600   4.007  3.0092 -0.0697  0.5634
  596MOL0     H80445   6.309   6.714   3.925  0.4799 -1.4304 -3.0071
  596MOL0     H80446   6.042   6.853   3.811 -0.7639  3.3760 -3.0874
  596MOL0     H80447   5.801   6.854   3.803  0.4121 -2.7695  0.5044
  596MOL0     H80448   5.588   6.855   4.095 -0.6429 -1.7763 -0.1307
  596MOL0     H80449   5.612   6.802   3.927  1.3708 -0.1422  0.7815
  596MOL0     H80450   5.392   6.789   3.924  1.5290 -0.0503 -1.4266
  596MOL0     H80451   5.408   6.945   3.840 -1.6012  1.3362  1.1913
  596MOL0     H80452   5.376   7.075   4.051  3.6013 -1.1484 -0.8919
  596MOL0     H80453   5.338   6.921   4.123  0.6859 -1.2044  0.0994
  596MOL0     H80454   5.138   7.072   4.047  1.5968  2.2652 -1.7468
  596MOL0     H80455   5.172   7.031   3.882  4.8708 -0.9687 -1.6497
  596MOL0     H80456   5.022   6.663   3.972  2.4918 -1.1471 -3.6127
  596MOL0     H80457   5.784   7.145   4.123 -2.8205 -2.2073  0.2424
  596MOL0     H80458   5.979   7.260   4.188  0.5480  2.4199  0.5466
  596MOL0     H80459   6.091   7.118   4.234 -1.7354 -2.2733 -2.0698
  596MOL0     H80460   6.127   7.244   4.106 -1.8540  1.0054 -0.6355
  597MOL0     O80461   1.960   4.911   1.541  0.8833 -0.7050  0.4073
  597MOL0     C80462   1.968   4.961   1.651 -0.0812 -0.2271 -0.8044
  597MOL0     O80463   2.087   4.983   1.710  0.5668  0.2932 -0.4451
  597MOL0     C80464   2.205   4.981   1.648  0.7748  0.4263  0.5697
  597MOL0     C80465   2.312   4.921   1.711 -0.5034 -0.1490  0.7867
  597MOL0     C80466   2.432   4.919   1.650 -0.8853  0.0999  0.0336
  597MOL0     C80467   2.457   4.976   1.524  0.2412 -0.6171  0.0743
  597MOL0     O80468   2.587   4.987   1.471  0.0313  0.3593 -0.3664
  597MOL0     C80469   2.617   5.124   1.432 -0.1917 -0.1622  0.6164
  597MOL0     C80470   2.746   5.174   1.488  0.0764  0.2407 -0.2112
  597MOL0     C80471   2.878   5.144   1.401 -1.1146  0.8413  0.1960
  597MOL0     C80472   2.871   5.197   1.256 -0.2300  0.1361  0.5571
  597MOL0     C80473   3.012   5.211   1.197  0.0428  0.0704 -0.1132
  597MOL0     C80474   3.082   5.327   1.257 -0.9655 -0.7208  0.1166
  597MOL0     C80475   3.232   5.332   1.232 -0.0583 -0.0925  0.3236
  597MOL0     C80476   3.317   5.283   1.347 -0.0256  0.4172 -0.5082
  597MOL0     N80477   3.455   5.333   1.333  0.1385  0.2665 -0.1267
  597MOL0     C80478   3.566   5.259   1.349  0.5337  0.1509  0.6963
  597MOL0     C80479   3.667   5.358   1.356 -0.3984 -0.2303  0.2218
  597MOL0     C80480   3.813   5.334   1.366 -0.8044 -0.1685 -0.3908
  597MOL0     C80481   3.904   5.453   1.407  0.6174  1.0147 -0.1140
  597MOL0     C80482   4.052   5.409   1.449 -0.6085  0.7477 -0.0917
  597MOL0     C80483   4.158   5.523   1.448  0.2527  1.2565 -0.4255
  597MOL0     O80484   4.170   5.556   1.311  0.0806  0.3985 -0.0404
  597MOL0     C80485   4.257   5.663   1.300  0.7665 -0.2616  0.3794
  597MOL0     C80486   4.204   5.778   1.246  0.4923  0.8962 -0.4385
  597MOL0     C80487   4.271   5.893   1.231  0.1968  0.6155  0.0816
  597MOL0     C80488   4.410   5.897   1.274 -0.3025 -0.1042  1.0321
  597MOL0     C80489   4.489   6.023   1.266  0.3472  0.8694 -0.3529
  597MOL0     O80490   4.616   6.023   1.322  0.1095 -0.3360 -0.3723
  597MOL0     C80491   4.689   6.132   1.345 -0.5402 -0.4648 -0.4161
  597MOL0     C80492   4.629   6.236   1.423  0.0013 -0.3417  0.2595
  597MOL0     C80493   4.697   6.363   1.464 -0.2328  0.2943  0.1874
  597MOL0     C80494   4.827   6.373   1.421 -0.9312 -0.2896  0.5701
  597MOL0     O80495   4.913   6.484   1.434 -0.2915 -0.3430 -1.1236
  597MOL0     C80496   4.871   6.604   1.503 -0.4940  0.2898 -0.4073
  597MOL0     C80497   4.985   6.701   1.491 -0.1570  0.1092  0.1674
  597MOL0     C80498   5.110   6.649   1.559 -0.1714 -0.4769 -0.4256
  597MOL0     C80499   5.203   6.769   1.609  0.3129  0.4461  0.2427
  597MOL0     C80500   5.352   6.738   1.603 -0.2204  0.0706 -0.4125
  597MOL0     C80501   5.412   6.648   1.710  0.0845  0.8438 -0.7618
  597MOL0     C80502   5.560   6.597   1.714  0.1187  0.1334  0.1102
  597MOL0     C80503   5.603   6.512   1.595 -0.4340  0.5737 -0.6818
  597MOL0    Cl80504   5.777   6.530   1.593  0.2168  0.1828  0.3280
  597MOL0     C80505   4.891   6.268   1.353 -0.8658 -0.6996 -1.2342
  597MOL0     C80506   4.818   6.154   1.306 -0.9522 -0.7676 -0.2808
  597MOL0     O80507   4.425   6.112   1.214  0.1155 -0.7815 -0.3088
  597MOL0     C80508   4.472   5.773   1.321 -0.3498  0.0241 -0.3577
  597MOL0     C80509   4.384   5.663   1.350 -0.0652 -0.3761  0.4820
  597MOL0     N80510   3.608   5.479   1.344 -0.4412 -0.8045  0.4854
  597MOL0     N80511   3.484   5.465   1.324  0.2398  0.2746  0.2416
  597MOL0     C80512   2.350   5.033   1.460  0.3309 -0.1560 -0.0632
  597MOL0     C80513   2.230   5.034   1.519 -0.3165  0.5175  0.2185
  597MOL0     C80514   1.845   4.955   1.738 -0.6293 -0.2241 -0.4121
  597MOL0     C80515   1.862   4.972   1.882 -0.2812 -0.0799 -0.9644
  597MOL0     C80516   1.751   4.957   1.968  0.5606  0.4343  0.1840
  597MOL0     C80517   1.616   4.949   1.917 -0.4929  0.5535 -0.0381
  597MOL0     O80518   1.517   4.942   2.013 -0.2765 -0.2280 -0.2603
  597MOL0     C80519   1.390   4.999   1.988  0.7831  0.5646  0.1047
  597MOL0     C80520   1.299   4.956   2.110 -0.0402  0.4113  0.5001
  597MOL0     C80521   1.171   5.030   2.122  0.2587 -0.5946  0.0699
  597MOL0     C80522   1.071   4.962   2.208  0.9006 -0.1391 -0.0990
  597MOL0     C80523   0.951   5.050   2.212 -0.1106 -0.3414  0.3367
  597MOL0     C80524   0.860   5.134   2.211 -0.3450  0.1621 -0.2754
  597MOL0     C80525   1.602   4.951   1.778 -0.4658  0.4713  0.6011
  597MOL0     C80526   1.710   4.963   1.691 -0.1104 -0.0654  0.3938
  597MOL0     C80527   1.686   4.976   1.539  0.2376 -0.1709  0.0516
  597MOL0     H80528   2.301   4.872   1.808 -5.0002 -1.6271 -0.2723
  597MOL0     H80529   2.511   4.862   1.698 -2.3782 -4.0663 -1.9553
  597MOL0     H80530   2.617   5.121   1.323  0.9506  0.6043  0.5851
  597MOL0     H80531   2.554   5.202   1.477  1.7823  1.8579  0.0411
  597MOL0     H80532   2.749   5.127   1.587 -1.2331 -1.4629 -0.9200
  597MOL0     H80533   2.743   5.281   1.509  1.7785  0.5549 -1.3714
  597MOL0     H80534   2.898   5.036   1.392  2.4878  1.4181 -0.4279
  597MOL0     H80535   2.967   5.184   1.450 -1.2367  0.3218  0.8583
  597MOL0     H80536   2.803   5.133   1.199  0.6019  0.3338 -0.6912
  597MOL0     H80537   2.831   5.299   1.252  3.3193  1.6992  1.4104
  597MOL0     H80538   3.066   5.119   1.220 -0.7788 -0.5118 -0.4728
  597MOL0     H80539   2.999   5.224   1.089  2.7482 -0.3590 -0.5674
  597MOL0     H80540   3.050   5.412   1.196 -2.3909 -1.6076 -0.4216
  597MOL0     H80541   3.058   5.348   1.362 -1.2843 -0.2647 -0.0450
  597MOL0     H80542   3.252   5.440   1.224 -2.8250  0.7533  2.6922
  597MOL0     H80543   3.265   5.284   1.140  3.8112  0.1841  1.4039
  597MOL0     H80544   3.288   5.320   1.446  0.8268  1.7160 -0.7264
  597MOL0     H80545   3.315   5.175   1.367 -4.2702  0.1500 -1.5402
  597MOL0     H80546   3.580   5.152   1.359 -1.5276 -0.3831 -1.1893
  597MOL0     H80547   3.816   5.258   1.445  4.9097 -0.9573 -0.9639
  597MOL0     H80548   3.841   5.280   1.276 -1.7397 -1.5373  0.1054
  597MOL0     H80549   3.910   5.532   1.331  1.2212  0.1235 -1.0130
  597MOL0     H80550   3.862   5.503   1.495  2.3136  1.6259  0.3978
  597MOL0     H80551   4.088   5.340   1.373  0.9038 -0.7264  1.8570
  597MOL0     H80552   4.046   5.345   1.537  0.6376 -2.1916 -1.9928
  597MOL0     H80553   4.254   5.483   1.481 -0.1696  0.5268 -0.0542
  597MOL0     H80554   4.129   5.608   1.510 -0.4379  1.8749 -1.5486
  597MOL0     H80555   4.106   5.767   1.200  0.1686 -1.2821  0.6191
  597MOL0     H80556   4.216   5.979   1.194 -2.2753 -0.5457  0.8200
  597MOL0     H80557   4.529   6.219   1.461 -0.4537 -0.2869 -0.8812
  597MOL0     H80558   4.645   6.431   1.531  1.1290 -0.1204  1.7122
  597MOL0     H80559   4.776   6.641   1.463 -2.6225 -3.1355  1.1028
  597MOL0     H80560   4.860   6.578   1.609 -0.9451  0.4774 -0.4039
  597MOL0     H80561   5.003   6.722   1.385 -1.2436  1.5321  0.2264
  597MOL0     H80562   4.955   6.800   1.527  0.5632  0.0844  0.8868
  597MOL0     H80563   5.083   6.577   1.636 -4.6439  2.0346  0.7288
  597MOL0     H80564   5.169   6.595   1.485  1.6939  0.0115  0.6476
  597MOL0     H80565   5.177   6.798   1.711 -0.3841  0.6005  0.0296
  597MOL0     H80566   5.189   6.854   1.541  0.0667 -1.1962 -1.8506
  597MOL0     H80567   5.409   6.831   1.600  0.5927 -0.4151 -0.0461
  597MOL0     H80568   5.378   6.684   1.511  0.9175 -2.5669  1.3396
  597MOL0     H80569   5.370   6.680   1.807  0.6106 -1.6682  0.3661
  597MOL0     H80570   5.361   6.554   1.687  0.7454  0.3212 -0.1470
  597MOL0     H80571   5.581   6.544   1.807  1.2699 -1.1084 -0.8245
  597MOL0     H80572   5.625   6.686   1.708  1.1299 -0.5562  0.5699
  597MOL0     H80573   5.577   6.406   1.605  1.4462  0.2192  1.3976
  597MOL0     H80574   5.551   6.539   1.503 -4.7149  3.8852  2.2979
  597MOL0     H80575   4.992   6.301   1.329 -1.3099  2.9389  1.1483
  597MOL0     H80576   4.866   6.076   1.248  2.9219  1.8787 -1.0448
  597MOL0     H80577   4.580   5.775   1.333 -0.4003  3.2043  0.4039
  597MOL0     H80578   4.426   5.576   1.398  2.5251  0.1380 -0.6736
  597MOL0     H80579   2.352   5.091   1.368 -2.1072  0.0743 -0.0391
  597MOL0     H80580   2.145   5.080   1.470  0.3105  0.8302 -0.5857
  597MOL0     H80581   1.958   4.976   1.933 -1.4923 -2.2938  1.8148
  597MOL0     H80582   1.750   4.965   2.076  2.8178  2.4823  0.1402
  597MOL0     H80583   1.352   4.963   1.891  1.1375 -0.0466  0.1922
  597MOL0     H80584   1.377   5.107   1.976 -0.8933  0.6511  2.2301
  597MOL0     H80585   1.347   4.985   2.204 -0.7696 -0.3909  1.1350
  597MOL0     H80586   1.283   4.848   2.119  0.6715  0.3360  0.9553
  597MOL0     H80587   1.134   5.048   2.020 -1.8526  0.8394  1.0233
  597MOL0     H80588   1.195   5.120   2.179  2.4238 -1.3924  0.5276
  597MOL0     H80589   1.058   4.867   2.156 -2.6687  2.0557 -3.7517
  597MOL0     H80590   1.112   4.943   2.308  1.0943  1.9942  0.2739
  597MOL0     H80591   0.781   5.203   2.191  0.4822  0.9024 -1.0492
  597MOL0     H80592   1.500   4.942   1.742  0.1448  1.2308 -1.4524
  597MOL0     H80593   1.706   4.885   1.483 -0.8117 -0.4586  0.1142
  597MOL0     H80594   1.578   4.995   1.528  0.3562  0.5783  0.1379
  597MOL0     H80595   1.735   5.065   1.497 -0.5881  1.6186  2.6148
  598MOL0     O80596   7.129   5.760   1.681 -0.0552 -0.6620 -0.1457
  598MOL0     C80597   7.120   5.645   1.733  0.0109 -0.0253  0.7813
  598MOL0     O80598   7.232   5.566   1.753  0.0225 -0.2315 -0.0914
  598MOL0     C80599   7.351   5.618   1.715 -1.6546  0.4188 -0.5322
  598MOL0     C80600   7.398   5.639   1.580 -1.1210  0.0910 -0.4018
  598MOL0     C80601   7.530   5.684   1.560 -0.1464 -0.5722  0.2886
  598MOL0     C80602   7.618   5.707   1.672 -0.6827 -0.2829  0.5458
  598MOL0     O80603   7.748   5.750   1.655 -0.5461  1.1211  0.2612
  598MOL0     C80604   7.819   5.696   1.541  0.3305  0.8954 -0.2402
  598MOL0     C80605   7.973   5.748   1.545 -0.0297 -0.4537 -0.3316
  598MOL0     C80606   8.070   5.676   1.441  0.5967 -0.4296 -0.0102
  598MOL0     C80607   8.206   5.737   1.447  1.2260  0.4904 -0.3432
  598MOL0     C80608   8.300   5.692   1.343 -0.0840 -0.5175 -0.0484
  598MOL0     C80609   8.432   5.759   1.353  0.2270 -0.1785 -0.1255
  598MOL0     C80610   8.522   5.698   1.244  0.3213 -0.4178  0.5537
  598MOL0     C80611   8.653   5.782   1.242  0.3220 -0.2814  0.0186
  598MOL0     N80612   8.707   5.790   1.107 -0.8152 -0.4644  0.1485
  598MOL0     C80613   8.743   5.678   1.034 -0.7218 -0.0542  0.6976
  598MOL0     C80614   8.811   5.736   0.927  0.6417  0.0097  0.4077
  598MOL0     C80615   8.862   5.657   0.808 -0.0494  0.5159 -0.0329
  598MOL0     C80616   8.834   5.745   0.679  0.8333 -0.5453 -0.8932
  598MOL0     C80617   8.921   5.718   0.562  1.0615 -0.0382 -0.5191
  598MOL0     C80618   9.063   5.771   0.586 -0.1182  0.8507 -1.0695
  598MOL0     O80619   9.136   5.747   0.471 -0.1384  0.3645  0.0763
  598MOL0     C80620   9.267   5.733   0.479  0.5681 -0.2540  0.6075
  598MOL0     C80621   9.329   5.616   0.435 -0.3385  0.4491  0.8272
  598MOL0     C80622   9.467   5.593   0.450 -0.1507 -0.9073  0.3192
  598MOL0     C80623   9.558   5.687   0.506 -0.0223  0.7120  0.7053
  598MOL0     C80624   9.696   5.658   0.529  0.2126 -0.9700 -0.7273
  598MOL0     O80625   9.723   5.535   0.494  0.5804 -0.9338  0.2005
  598MOL0     C80626   9.846   5.469   0.513 -0.2454 -0.1097  0.2588
  598MOL0     C80627   9.851   5.323   0.500  0.2214 -0.1133 -0.6312
  598MOL0     C80628   9.978   5.250   0.514 -0.3911  0.2634  0.7621
  598MOL0     C80629  10.087   5.322   0.548  0.1503 -1.0497 -0.2831
  598MOL0     O80630  10.207   5.261   0.563  0.2511  0.1751  0.2092
  598MOL0     C80631  10.218   5.180   0.684 -0.1746 -0.0898 -0.5704
  598MOL0     C80632  10.357   5.119   0.674 -0.3898  0.4999 -0.5275
  598MOL0     C80633  10.372   4.995   0.770  0.2101 -0.4131 -0.7094
  598MOL0     C80634  10.522   4.960   0.782  0.0413 -0.2912  0.2927
  598MOL0     C80635  10.545   4.832   0.861 -0.3039 -0.5103  0.2316
  598MOL0     C80636  10.700   4.804   0.869  0.6651 -0.8254 -0.1915
  598MOL0     C80637  10.730   4.687   0.967  0.3541 -0.7580 -0.6786
  598MOL0     C80638  10.878   4.668   0.985  0.2188 -0.9892  0.2394
  598MOL0    Cl80639  10.947   4.601   0.825 -0.0405 -0.1119  0.2597
  598MOL0     C80640  10.082   5.459   0.540 -0.0043 -0.2126  0.1444
  598MOL0     C80641   9.969   5.536   0.521  0.4578  0.9289 -0.6506
  598MOL0     O80642   9.769   5.743   0.582  0.0490 -0.3393 -0.6039
  598MOL0     C80643   9.495   5.802   0.552  0.3970  0.1756 -0.2395
  598MOL0     C80644   9.358   5.834   0.522 -0.1045  0.9549  0.2971
  598MOL0     N80645   8.810   5.875   0.937  0.2917 -0.0296 -0.5716
  598MOL0     N80646   8.738   5.905   1.036  0.1414  0.0959 -0.2397
  598MOL0     C80647   7.576   5.677   1.800 -0.6861  0.4081  0.0105
  598MOL0     C80648   7.444   5.633   1.821  0.0105 -0.4031  0.0162
  598MOL0     C80649   6.987   5.590   1.773 -0.7914 -0.3870  0.4878
  598MOL0     C80650   6.988   5.471   1.839 -0.9387  1.1879 -0.6706
  598MOL0     C80651   6.871   5.412   1.885 -0.0651 -0.5845 -0.4683
  598MOL0     C80652   6.749   5.475   1.862  0.5463 -0.4488 -0.0782
  598MOL0     O80653   6.647   5.401   1.911  0.2533 -0.1140 -0.0412
  598MOL0     C80654   6.511   5.450   1.923  1.0885  0.0782 -0.3931
  598MOL0     C80655   6.440   5.461   1.785 -0.1485  0.2750 -0.0254
  598MOL0     C80656   6.424   5.323   1.711  0.2783 -0.8359 -0.5463
  598MOL0     C80657   6.346   5.347   1.583 -0.7656  0.0589 -0.1843
  598MOL0     C80658   6.367   5.239   1.482 -0.0464 -0.3778 -0.6576
  598MOL0     C80659   6.362   5.153   1.396 -0.1894 -0.4924  0.3448
  598MOL0     C80660   6.746   5.601   1.804  0.1960 -0.2724 -0.5966
  598MOL0     C80661   6.865   5.660   1.756 -0.1964  0.7898 -0.9393
  598MOL0     C80662   6.846   5.800   1.692  0.5542  0.3997 -0.5321
  598MOL0     H80663   7.329   5.616   1.499 -0.1260  1.8808 -1.8259
  598MOL0     H80664   7.564   5.695   1.457  1.7045  0.7050  0.9906
  598MOL0     H80665   7.814   5.587   1.541  1.8851  0.7523  1.6749
  598MOL0     H80666   7.773   5.734   1.450 -1.9636 -0.5392  0.2413
  598MOL0     H80667   8.008   5.724   1.645  0.1450  2.6637  0.4548
  598MOL0     H80668   7.970   5.857   1.541 -2.5733 -0.2517  2.8823
  598MOL0     H80669   8.027   5.680   1.340 -2.1191 -0.1610  1.0632
  598MOL0     H80670   8.079   5.577   1.486  0.6268 -0.0788  0.7774
  598MOL0     H80671   8.203   5.847   1.446  0.7021  0.5217  1.4419
  598MOL0     H80672   8.251   5.726   1.546 -1.4513  0.8620  1.0025
  598MOL0     H80673   8.313   5.584   1.347  1.5556 -0.4049 -1.0894
  598MOL0     H80674   8.257   5.712   1.244 -2.1596 -1.7524  0.5421
  598MOL0     H80675   8.425   5.868   1.353  2.9499  0.0747  0.6014
  598MOL0     H80676   8.479   5.759   1.452  0.6341  5.3291 -0.0276
  598MOL0     H80677   8.472   5.722   1.150  1.1123  1.0404  0.4711
  598MOL0     H80678   8.546   5.592   1.250 -0.3650 -0.5340  1.5295
  598MOL0     H80679   8.631   5.887   1.266  0.3180  0.4376 -2.7335
  598MOL0     H80680   8.725   5.739   1.312 -0.4268 -2.6120 -0.5563
  598MOL0     H80681   8.737   5.573   1.057  1.8839 -0.0532  1.7573
  598MOL0     H80682   8.968   5.633   0.822  0.3980  3.1572  1.9681
  598MOL0     H80683   8.804   5.565   0.795  2.5616 -0.9764 -2.1130
  598MOL0     H80684   8.731   5.715   0.655  0.6054  0.2291 -0.8948
  598MOL0     H80685   8.830   5.853   0.695  1.6100 -0.5127 -0.8877
  598MOL0     H80686   8.887   5.767   0.470  1.0300 -1.3616 -1.2362
  598MOL0     H80687   8.917   5.611   0.539  0.8081 -0.0036 -0.6414
  598MOL0     H80688   9.102   5.709   0.667 -4.5306 -0.8466  0.0309
  598MOL0     H80689   9.072   5.875   0.620  2.9127  0.9773 -1.8934
  598MOL0     H80690   9.273   5.543   0.377  0.8392  0.4305 -0.3443
  598MOL0     H80691   9.497   5.496   0.411 -1.8192 -1.2451 -0.1873
  598MOL0     H80692   9.758   5.274   0.475 -0.7069  0.3452  1.7007
  598MOL0     H80693   9.982   5.142   0.502 -1.2142  0.2872  0.1580
  598MOL0     H80694  10.209   5.241   0.774 -0.1604 -0.4770 -0.3072
  598MOL0     H80695  10.148   5.096   0.689  0.1386 -0.2581  2.8072
  598MOL0     H80696  10.377   5.083   0.572  1.1375 -2.0744  0.5638
  598MOL0     H80697  10.427   5.200   0.696 -1.1394  0.6735  1.3601
  598MOL0     H80698  10.334   5.018   0.870 -0.7155 -1.6093 -0.7719
  598MOL0     H80699  10.315   4.909   0.734  1.1752 -2.1556  1.6746
  598MOL0     H80700  10.575   5.044   0.827  2.0414 -1.0779 -0.4893
  598MOL0     H80701  10.562   4.959   0.680  1.3407 -0.3541  0.7936
  598MOL0     H80702  10.484   4.752   0.817 -1.2788  0.4013 -0.1098
  598MOL0     H80703  10.504   4.846   0.961  1.7795  0.4411  1.0167
  598MOL0     H80704  10.730   4.781   0.767 -1.0856 -0.2787 -0.8780
  598MOL0     H80705  10.750   4.894   0.905 -3.2009  1.1074  0.9537
  598MOL0     H80706  10.683   4.599   0.922  0.8763 -0.6829 -1.3930
  598MOL0     H80707  10.679   4.702   1.062  1.5544  1.6934 -0.3459
  598MOL0     H80708  10.937   4.758   1.006 -0.4785 -0.7756  1.3572
  598MOL0     H80709  10.894   4.594   1.064  1.7884  0.0481  0.9347
  598MOL0     H80710  10.170   5.522   0.551 -0.2836  0.2634 -0.2713
  598MOL0     H80711   9.974   5.645   0.530  1.0359  0.7451  2.4795
  598MOL0     H80712   9.553   5.871   0.612 -0.3896 -1.2114  2.3079
  598MOL0     H80713   9.327   5.933   0.556 -0.1383  0.3965  2.0098
  598MOL0     H80714   7.648   5.692   1.879  1.2825 -0.1760 -1.5926
  598MOL0     H80715   7.417   5.606   1.923 -3.6855 -0.4132 -0.8251
  598MOL0     H80716   7.069   5.399   1.839 -1.0886  1.0200 -0.1493
  598MOL0     H80717   6.875   5.318   1.939 -3.5209 -0.9740 -0.6439
  598MOL0     H80718   6.518   5.544   1.978  2.4877 -2.0003  3.3668
  598MOL0     H80719   6.446   5.382   1.980 -1.1562  1.7942 -0.7886
  598MOL0     H80720   6.492   5.530   1.717  0.6638 -1.3353 -1.1262
  598MOL0     H80721   6.343   5.506   1.806 -0.4388 -0.7539  0.9477
  598MOL0     H80722   6.364   5.257   1.775  0.1264  1.6664  2.1067
  598MOL0     H80723   6.523   5.280   1.691 -0.6466 -3.6428  0.3674
  598MOL0     H80724   6.240   5.346   1.609 -0.7991 -0.6564 -0.3186
  598MOL0     H80725   6.371   5.447   1.546 -1.5355  0.6259  0.7546
  598MOL0     H80726   6.366   5.082   1.316 -0.6277  0.0807 -0.1985
  598MOL0     H80727   6.660   5.667   1.792  0.7696  0.6201  0.1152
  598MOL0     H80728   6.924   5.877   1.697  0.9015  0.1187 -1.4576
  598MOL0     H80729   6.828   5.782   1.586  1.5388  2.4085 -1.0745
  598MOL0     H80730   6.761   5.854   1.734  0.5507 -0.1364  0.1830
  599MOL0     O80731   5.825   5.690   8.669 -0.0885 -0.3207  0.1360
  599MOL0     C80732   5.831   5.795   8.729 -0.3434 -0.3244  0.5735
  599MOL0     O80733   5.939   5.871   8.778  0.0898 -0.3573 -0.8638
  599MOL0     C80734   6.065   5.817   8.745  0.4791 -0.0879  0.3333
  599MOL0     C80735   6.162   5.813   8.842  0.5630 -0.1128 -0.2089
  599MOL0     C80736   6.299   5.776   8.814 -0.1869 -0.2333 -0.1722
  599MOL0     C80737   6.355   5.745   8.688  0.2853  0.6288 -0.3326
  599MOL0     O80738   6.490   5.714   8.682 -0.3139 -0.0537 -0.6547
  599MOL0     C80739   6.534   5.659   8.563  0.6203  0.0132  0.7385
  599MOL0     C80740   6.672   5.610   8.576  0.3468 -0.3035  0.2063
  599MOL0     C80741   6.774   5.712   8.597 -0.4795 -0.3422 -0.2209
  599MOL0     C80742   6.915   5.651   8.573 -0.5829 -0.4795  0.3486
  599MOL0     C80743   7.025   5.764   8.581  0.2219 -0.8490  0.2649
  599MOL0     C80744   7.029   5.844   8.721  0.3070 -0.9488 -0.6705
  599MOL0     C80745   7.168   5.913   8.752  0.6569 -0.5453 -0.7555
  599MOL0     C80746   7.232   5.987   8.632 -0.4114  0.6313 -0.8339
  599MOL0     N80747   7.370   6.031   8.672  0.3036  0.2565  0.3911
  599MOL0     C80748   7.386   6.144   8.751 -1.1216 -0.6358 -0.3521
  599MOL0     C80749   7.518   6.171   8.767 -0.2525 -0.6231  0.5123
  599MOL0     C80750   7.579   6.274   8.856 -0.5719  0.4059 -0.3552
  599MOL0     C80751   7.683   6.219   8.960  0.0152 -0.1680 -0.4867
  599MOL0     C80752   7.820   6.200   8.873 -0.0441 -0.4627 -0.7847
  599MOL0     C80753   7.950   6.228   8.952  0.1131  0.3201  0.7463
  599MOL0     O80754   8.050   6.261   8.848  0.2325  0.2481 -0.4944
  599MOL0     C80755   8.180   6.256   8.891 -0.2104  0.4049 -0.9598
  599MOL0     C80756   8.278   6.254   8.788  0.5664  0.8139 -0.4484
  599MOL0     C80757   8.414   6.246   8.812  0.6983 -0.2902 -0.4951
  599MOL0     C80758   8.462   6.251   8.944  0.1550  0.3764 -0.4913
  599MOL0     C80759   8.608   6.256   8.977  0.2932 -0.0972 -1.6594
  599MOL0     O80760   8.687   6.221   8.881 -0.6619  0.0461 -0.0584
  599MOL0     C80761   8.821   6.222   8.896  1.1595  0.4749 -0.0547
  599MOL0     C80762   8.899   6.321   8.957 -0.6425  0.1107  0.2655
  599MOL0     C80763   9.042   6.311   8.964  0.2240  0.5284  0.7219
  599MOL0     C80764   9.113   6.213   8.888  0.3019 -0.1713 -0.5053
  599MOL0     O80765   9.243   6.217   8.899 -0.7258 -0.7441  0.0825
  599MOL0     C80766   9.327   6.107   8.868  0.3899 -0.5090 -0.1791
  599MOL0     C80767   9.474   6.142   8.870  0.2758 -0.6135  0.3541
  599MOL0     C80768   9.575   6.019   8.867 -0.3488  0.3425 -0.1283
  599MOL0     C80769   9.713   6.063   8.898  0.1515 -0.8327 -0.1119
  599MOL0     C80770   9.805   5.946   8.890  0.0066 -0.5040 -0.3264
  599MOL0     C80771   9.943   5.994   8.926 -0.8926 -0.2673 -0.3105
  599MOL0     C80772  10.053   5.890   8.884  0.7450  0.3452 -0.7933
  599MOL0     C80773  10.075   5.889   8.735 -0.6442 -0.2159  0.6299
  599MOL0    Cl80774  10.226   5.792   8.711  0.0218  0.6173 -0.1793
  599MOL0     C80775   9.036   6.122   8.816  0.2614  0.5652  0.3791
  599MOL0     C80776   8.896   6.127   8.819 -0.1547  0.6597 -0.5328
  599MOL0     O80777   8.643   6.285   9.092 -0.2213 -0.2460 -0.3111
  599MOL0     C80778   8.364   6.249   9.045 -0.5293 -0.7790  0.7484
  599MOL0     C80779   8.221   6.252   9.023 -0.8278  0.6368  0.0299
  599MOL0     N80780   7.580   6.076   8.681  0.6974  0.3733  0.3632
  599MOL0     N80781   7.492   5.993   8.631 -0.0644 -0.3299  0.2841
  599MOL0     C80782   6.247   5.736   8.585 -0.6081  0.2401 -0.9943
  599MOL0     C80783   6.108   5.784   8.612 -0.6545  0.2218  0.9190
  599MOL0     C80784   5.700   5.872   8.724  0.3916  0.4462 -0.1350
  599MOL0     C80785   5.700   6.014   8.702 -0.2507 -0.1602  0.4619
  599MOL0     C80786   5.588   6.088   8.689  0.3606  0.4089  0.5989
  599MOL0     C80787   5.461   6.029   8.705 -0.6077 -0.5325  0.3723
  599MOL0     O80788   5.361   6.115   8.676  0.3715 -0.2196  0.3155
  599MOL0     C80789   5.225   6.073   8.664 -0.5863 -0.5471  0.7102
  599MOL0     C80790   5.156   6.144   8.757  1.1823 -0.2502  0.0827
  599MOL0     C80791   5.003   6.116   8.761  0.6234  0.2497 -0.1470
  599MOL0     C80792   4.932   6.217   8.664 -0.0914  0.4493  0.3450
  599MOL0     C80793   4.889   6.340   8.727 -0.4773  0.3349 -0.3517
  599MOL0     C80794   4.876   6.446   8.773  0.3728 -0.6535 -0.3610
  599MOL0     C80795   5.454   5.893   8.739 -0.0316  0.2613 -0.3426
  599MOL0     C80796   5.575   5.810   8.737  0.4688 -0.8957  1.0974
  599MOL0     C80797   5.552   5.661   8.762  0.8557  0.0625  0.3119
  599MOL0     H80798   6.125   5.835   8.942 -1.5550  1.9016 -1.3410
  599MOL0     H80799   6.363   5.789   8.900 -0.3743 -1.3421  0.1442
  599MOL0     H80800   6.484   5.566   8.537  4.1485 -2.3345  1.6816
  599MOL0     H80801   6.531   5.750   8.501  1.8531  0.8825  1.8876
  599MOL0     H80802   6.697   5.552   8.486  0.1745 -1.0048  0.6038
  599MOL0     H80803   6.681   5.533   8.653  0.2975 -1.6643 -1.0893
  599MOL0     H80804   6.767   5.748   8.701 -0.5256  0.2563 -0.4231
  599MOL0     H80805   6.756   5.797   8.530 -2.3151 -1.0636 -0.6925
  599MOL0     H80806   6.937   5.568   8.640  1.7735  0.2527  0.5494
  599MOL0     H80807   6.924   5.610   8.473  1.8617 -5.5679  2.3295
  599MOL0     H80808   7.123   5.718   8.566  1.8817  2.1569  1.1296
  599MOL0     H80809   7.014   5.834   8.498  1.0845 -2.9514 -1.7285
  599MOL0     H80810   6.953   5.923   8.719  0.7009 -0.5150  0.6255
  599MOL0     H80811   6.998   5.789   8.810 -0.2266  3.0026  1.8216
  599MOL0     H80812   7.236   5.831   8.776  0.3341 -0.3722  0.8585
  599MOL0     H80813   7.165   5.982   8.837 -3.5994 -0.3355 -0.8486
  599MOL0     H80814   7.231   5.924   8.542  1.7240 -1.2254  0.3586
  599MOL0     H80815   7.174   6.077   8.609 -3.6602 -1.3755 -1.1955
  599MOL0     H80816   7.303   6.195   8.798  0.1931  2.0965 -0.8435
  599MOL0     H80817   7.629   6.351   8.797  1.9223  0.6398  1.8655
  599MOL0     H80818   7.500   6.324   8.912 -0.2224  0.9456 -0.3311
  599MOL0     H80819   7.685   6.288   9.045 -2.6256 -0.8312  0.2185
  599MOL0     H80820   7.663   6.124   9.012  1.7921 -0.1615  0.3072
  599MOL0     H80821   7.816   6.282   8.800 -0.4401 -1.0625 -1.4456
  599MOL0     H80822   7.836   6.108   8.817  0.4709 -0.7772 -0.1294
  599MOL0     H80823   7.977   6.153   9.027 -1.8855  0.6101  1.8174
  599MOL0     H80824   7.930   6.319   9.009  0.3628  0.9806 -0.2019
  599MOL0     H80825   8.237   6.252   8.688  0.1750 -0.4905 -0.2784
  599MOL0     H80826   8.488   6.228   8.735  0.0346  0.0624 -1.2279
  599MOL0     H80827   8.848   6.401   9.009 -3.4099 -0.4795 -1.3712
  599MOL0     H80828   9.095   6.385   9.023  0.4482 -0.6862  2.0903
  599MOL0     H80829   9.329   6.025   8.940  2.1100 -0.4566 -0.1153
  599MOL0     H80830   9.319   6.066   8.767  1.1004  1.7360 -1.2143
  599MOL0     H80831   9.497   6.206   8.785  4.3195  2.2365  3.2523
  599MOL0     H80832   9.491   6.204   8.958 -2.2238  2.6431 -1.2196
  599MOL0     H80833   9.539   5.936   8.929  0.7775  0.2198  0.3725
  599MOL0     H80834   9.567   5.985   8.763 -2.0096 -0.7796  0.3153
  599MOL0     H80835   9.715   6.116   8.993  1.1797 -1.7489  0.4000
  599MOL0     H80836   9.737   6.138   8.823 -0.8260  0.5857  0.9356
  599MOL0     H80837   9.806   5.905   8.789  0.1179 -2.6534  0.4790
  599MOL0     H80838   9.770   5.863   8.953 -2.4106 -0.7730 -1.8857
  599MOL0     H80839   9.961   6.094   8.886  0.4641 -0.8914 -1.3253
  599MOL0     H80840   9.946   6.013   9.034  0.3639 -0.6828 -0.2461
  599MOL0     H80841  10.024   5.792   8.922 -0.7326  2.1439  3.3780
  599MOL0     H80842  10.146   5.925   8.929  0.1437  1.0893 -0.0831
  599MOL0     H80843   9.991   5.841   8.683 -0.7597  0.8302 -0.1693
  599MOL0     H80844  10.083   5.990   8.696  0.0166  1.3826  4.4619
  599MOL0     H80845   9.076   6.035   8.765 -1.2028 -0.1517  0.3879
  599MOL0     H80846   8.851   6.055   8.751 -0.4047 -0.8781  1.1974
  599MOL0     H80847   8.402   6.250   9.147  1.4906  0.4298  0.0417
  599MOL0     H80848   8.154   6.266   9.108 -1.1782  2.7209 -0.5196
  599MOL0     H80849   6.273   5.703   8.486 -3.3146  1.1707 -2.1064
  599MOL0     H80850   6.040   5.773   8.528 -1.5760 -4.4649  2.0318
  599MOL0     H80851   5.797   6.062   8.702  0.1858 -1.0031  1.2285
  599MOL0     H80852   5.584   6.194   8.667  4.4273  0.6772  0.4298
  599MOL0     H80853   5.208   5.966   8.678  0.3626 -1.3258 -2.9578
  599MOL0     H80854   5.184   6.095   8.565 -0.8039  0.0071  0.9212
  599MOL0     H80855   5.170   6.250   8.735 -0.3653  0.1304  0.7837
  599MOL0     H80856   5.203   6.131   8.855 -0.2701  0.4220  0.8996
  599MOL0     H80857   4.969   6.128   8.864  3.0416  1.9467  0.5340
  599MOL0     H80858   4.977   6.019   8.717  1.1310 -0.4125  0.9785
  599MOL0     H80859   4.992   6.238   8.575 -2.2888  2.1756 -0.8526
  599MOL0     H80860   4.848   6.168   8.612  2.2801 -2.5789 -0.9376
  599MOL0     H80861   4.883   6.541   8.823  2.5973 -1.2256  0.5070
  599MOL0     H80862   5.357   5.853   8.767  1.1517 -1.2925  1.8355
  599MOL0     H80863   5.445   5.649   8.785  0.5601 -2.7677 -1.9610
  599MOL0     H80864   5.575   5.598   8.675 -0.2131  0.7257 -0.4878
  599MOL0     H80865   5.616   5.622   8.841 -3.3741 -1.5366  3.3476
  600MOL0     O80866   6.390  10.531   4.525 -0.1454  0.1988  0.1755
  600MOL0     C80867   6.308  10.488   4.612 -0.2461 -0.8716 -0.4136
  600MOL0     O80868   6.353  10.452   4.741  0.1180  0.7995  0.0386
  600MOL0     C80869   6.484  10.430   4.769  0.3734  0.4788 -0.2781
  600MOL0     C80870   6.566  10.329   4.717 -0.4872  0.3019 -0.2642
  600MOL0     C80871   6.698  10.312   4.766  1.0439 -0.1430 -0.5847
  600MOL0     C80872   6.746  10.388   4.872  0.3358 -0.2832 -0.4276
  600MOL0     O80873   6.874  10.363   4.916 -0.0755  0.7701  0.4306
  600MOL0     C80874   6.960  10.464   4.969  0.1040  0.9616  0.2629
  600MOL0     C80875   7.071  10.396   5.057 -0.0728  0.3662  0.9611
  600MOL0     C80876   7.139  10.515   5.124 -0.7551  1.0144  0.8324
  600MOL0     C80877   7.267  10.450   5.194 -0.3863  0.4026 -0.0632
  600MOL0     C80878   7.343  10.558   5.265  0.1736  0.4266  0.3478
  600MOL0     C80879   7.455  10.496   5.349  0.3299 -0.0847  1.0137
  600MOL0     C80880   7.557  10.423   5.269  0.2684  0.4744  0.3791
  600MOL0     C80881   7.664  10.530   5.219  0.6441  0.4573 -0.2038
  600MOL0     N80882   7.763  10.447   5.147  0.1187 -0.8472  0.9362
  600MOL0     C80883   7.806  10.496   5.027  0.5594 -0.3673 -0.1353
  600MOL0     C80884   7.926  10.426   5.002 -0.8145 -0.4481 -0.0496
  600MOL0     C80885   8.007  10.418   4.869  0.2384  0.2115 -0.1313
  600MOL0     C80886   8.077  10.550   4.837  0.9578 -0.0839 -0.2080
  600MOL0     C80887   8.155  10.536   4.709  0.1162 -0.7578 -0.9623
  600MOL0     C80888   8.201  10.663   4.646 -0.8957 -0.0819 -0.3551
  600MOL0     O80889   8.296  10.721   4.728  0.8519 -0.0220  0.3147
  600MOL0     C80890   8.381  10.818   4.685  0.6989 -0.0044 -0.0294
  600MOL0     C80891   8.373  10.882   4.562  0.5905  1.1835  0.0613
  600MOL0     C80892   8.483  10.972   4.524 -0.5038  0.8242  0.0672
  600MOL0     C80893   8.606  10.975   4.596  0.6130 -0.1517 -0.1693
  600MOL0     C80894   8.726  11.057   4.545  0.1882 -0.5169 -1.2428
  600MOL0     O80895   8.842  11.059   4.620 -0.7175 -0.3299  0.5439
  600MOL0     C80896   8.958  11.112   4.554 -0.0795  0.7356 -0.6265
  600MOL0     C80897   8.982  11.248   4.529  0.1627 -0.1442 -0.4020
  600MOL0     C80898   9.106  11.288   4.477  0.4477 -1.5403 -0.5454
  600MOL0     C80899   9.203  11.189   4.458 -0.7183  1.1339 -0.0522
  600MOL0     O80900   9.324  11.236   4.412  0.0521  0.4040 -0.8668
  600MOL0     C80901   9.444  11.178   4.471  0.4964 -0.3745 -0.4304
  600MOL0     C80902   9.551  11.288   4.472  0.7518  0.3550 -0.4149
  600MOL0     C80903   9.608  11.326   4.335 -0.3739  0.6716 -0.4704
  600MOL0     C80904   9.687  11.207   4.268 -0.2691 -0.9095 -0.1490
  600MOL0     C80905   9.723  11.242   4.120  0.7252 -0.1993 -0.2531
  600MOL0     C80906   9.767  11.134   4.028 -0.2510 -0.3232  0.7297
  600MOL0     C80907   9.783  11.185   3.888 -0.0062 -0.1316  1.5489
  600MOL0     C80908   9.843  11.088   3.790 -0.6950 -0.6044 -0.0646
  600MOL0    Cl80909   9.997  11.040   3.849  0.1860 -0.2570  0.2188
  600MOL0     C80910   9.176  11.057   4.480 -0.5885  0.7364 -0.0524
  600MOL0     C80911   9.057  11.017   4.531  0.0781 -0.9550  0.0090
  600MOL0     O80912   8.708  11.112   4.443  0.6058  0.3411 -0.6377
  600MOL0     C80913   8.608  10.911   4.719  0.7251  0.1413  0.2427
  600MOL0     C80914   8.499  10.825   4.759 -0.4665  0.3647 -0.9652
  600MOL0     N80915   7.938  10.336   5.099 -0.4977  0.2354 -0.0091
  600MOL0     N80916   7.856  10.361   5.192  0.4390  0.1880 -0.6640
  600MOL0     C80917   6.657  10.487   4.930  0.1558 -0.2200  0.6906
  600MOL0     C80918   6.530  10.505   4.880  0.4080  0.1326 -0.2014
  600MOL0     C80919   6.161  10.486   4.593  0.1357 -0.3503 -0.3564
  600MOL0     C80920   6.089  10.401   4.670 -0.1851 -0.3975  0.0965
  600MOL0     C80921   5.951  10.388   4.660 -0.6680  0.1879 -1.0777
  600MOL0     C80922   5.878  10.469   4.568 -0.7014 -0.5529 -0.5885
  600MOL0     O80923   5.742  10.457   4.548  0.7135 -0.3461 -0.0218
  600MOL0     C80924   5.656  10.369   4.614  0.0370  0.0927  0.5883
  600MOL0     C80925   5.509  10.391   4.597  0.6519 -0.4410 -0.0275
  600MOL0     C80926   5.462  10.529   4.652 -0.0837  0.3087 -0.1171
  600MOL0     C80927   5.317  10.562   4.615 -1.3218  0.5709  0.7327
  600MOL0     C80928   5.224  10.476   4.680  1.0854  0.5327 -0.4875
  600MOL0     C80929   5.157  10.391   4.738 -0.3351 -1.1557 -1.5773
  600MOL0     C80930   5.948  10.555   4.489  0.0704  0.4154  0.2326
  600MOL0     C80931   6.087  10.563   4.499 -0.1741 -0.3012  0.1551
  600MOL0     C80932   6.156  10.652   4.402  0.2453  0.2359 -1.2233
  600MOL0     H80933   6.531  10.277   4.629  1.5039 -1.7585  0.0695
  600MOL0     H80934   6.761  10.230   4.734 -0.6665 -1.5317 -0.5972
  600MOL0     H80935   7.002  10.534   4.897 -1.0949  0.6255 -0.8046
  600MOL0     H80936   6.910  10.527   5.043  0.7264  1.2536  0.4328
  600MOL0     H80937   7.134  10.337   4.990 -1.7716 -0.4120  0.0214
  600MOL0     H80938   7.028  10.323   5.126  0.4919  0.7889  1.7856
  600MOL0     H80939   7.076  10.575   5.192 -0.8264  0.3462  1.3715
  600MOL0     H80940   7.172  10.577   5.041  0.5928 -0.5586  0.1550
  600MOL0     H80941   7.237  10.385   5.276  2.1206  1.3971  1.7502
  600MOL0     H80942   7.334  10.395   5.127 -0.1771  0.1888  0.3192
  600MOL0     H80943   7.389  10.628   5.195  1.8944  0.3177  1.3012
  600MOL0     H80944   7.281  10.611   5.337  2.0035  0.9918  1.5638
  600MOL0     H80945   7.498  10.581   5.402 -0.0690  0.5685  0.3185
  600MOL0     H80946   7.405  10.425   5.415  0.1377 -0.2841  0.6592
  600MOL0     H80947   7.509  10.353   5.200 -1.6755  0.1981  1.9074
  600MOL0     H80948   7.608  10.358   5.342  1.6325 -1.4559 -2.1299
  600MOL0     H80949   7.613  10.602   5.155 -0.0981  1.7568  1.7658
  600MOL0     H80950   7.718  10.574   5.304 -0.7544 -0.1771  1.0666
  600MOL0     H80951   7.763  10.578   4.970  1.4582 -0.2148 -0.6140
  600MOL0     H80952   8.093  10.351   4.880 -0.2807 -0.1768  2.0728
  600MOL0     H80953   7.925  10.391   4.802 -0.1670 -0.2976  0.5526
  600MOL0     H80954   8.004  10.631   4.837  0.6115 -0.3800  0.9504
  600MOL0     H80955   8.145  10.573   4.920 -0.1927 -0.5226  0.8826
  600MOL0     H80956   8.095  10.474   4.641  0.7567 -1.9934 -0.4356
  600MOL0     H80957   8.242  10.485   4.751 -1.1254  0.8757  4.3869
  600MOL0     H80958   8.110  10.723   4.636 -1.5289 -1.1284 -1.0497
  600MOL0     H80959   8.246  10.644   4.548 -0.4848 -0.1284 -0.1600
  600MOL0     H80960   8.278  10.874   4.510  1.2764 -1.8881 -0.9120
  600MOL0     H80961   8.489  11.025   4.429  4.3765 -1.2065 -1.0660
  600MOL0     H80962   8.901  11.315   4.558  1.7396  2.3768 -1.5628
  600MOL0     H80963   9.138  11.390   4.459  0.1606 -0.7299  2.9584
  600MOL0     H80964   9.426  11.149   4.575 -2.5781  0.1694 -0.7183
  600MOL0     H80965   9.460  11.088   4.411  0.8231 -1.8192  1.6856
  600MOL0     H80966   9.508  11.378   4.516 -0.6006 -1.2290  1.6885
  600MOL0     H80967   9.633  11.247   4.532  1.7406  2.5636 -0.1680
  600MOL0     H80968   9.527  11.360   4.270  0.0277  2.1430 -0.2490
  600MOL0     H80969   9.673  11.413   4.351 -0.2173  0.9251 -2.2494
  600MOL0     H80970   9.639  11.109   4.277 -0.6814 -0.5038  2.9605
  600MOL0     H80971   9.779  11.202   4.327  1.2547  2.2259 -1.9952
  600MOL0     H80972   9.800  11.318   4.135 -0.3376  0.6039  1.4156
  600MOL0     H80973   9.639  11.289   4.068  3.4981  1.2810 -3.8270
  600MOL0     H80974   9.858  11.093   4.074  0.1531 -0.9745 -0.6058
  600MOL0     H80975   9.685  11.063   4.031 -0.6691  0.1447  0.4991
  600MOL0     H80976   9.846  11.274   3.887 -1.3059  0.8162  0.5211
  600MOL0     H80977   9.681  11.206   3.855  0.5077 -1.1971 -0.9170
  600MOL0     H80978   9.781  11.000   3.766 -0.6157 -0.6462 -0.1177
  600MOL0     H80979   9.847  11.146   3.698  0.5467 -1.5534 -0.6399
  600MOL0     H80980   9.247  10.976   4.464 -1.9641 -0.7479  0.9983
  600MOL0     H80981   9.023  10.920   4.568 -1.3971 -0.5822 -0.3286
  600MOL0     H80982   8.690  10.937   4.785 -0.1968  3.7233  0.1926
  600MOL0     H80983   8.500  10.777   4.857  1.5544 -3.1741 -2.5291
  600MOL0     H80984   6.677  10.553   5.013 -1.9327 -0.2169  1.2588
  600MOL0     H80985   6.463  10.582   4.917 -0.2733  1.1217 -3.2151
  600MOL0     H80986   6.133  10.345   4.752 -2.5288 -1.4587  0.6844
  600MOL0     H80987   5.903  10.321   4.730  0.9555  0.3116  0.2127
  600MOL0     H80988   5.688  10.350   4.717  0.5263 -2.8524  0.0061
  600MOL0     H80989   5.670  10.275   4.559  2.0481  1.5509 -1.6022
  600MOL0     H80990   5.453  10.315   4.652  0.8497 -0.0961  0.6522
  600MOL0     H80991   5.475  10.374   4.494 -0.5348 -0.2014  0.3040
  600MOL0     H80992   5.526  10.611   4.617 -1.1652  2.7273  3.1567
  600MOL0     H80993   5.471  10.525   4.761  3.6060  1.7591 -0.2132
  600MOL0     H80994   5.304  10.663   4.653  1.6391  0.9424  1.0104
  600MOL0     H80995   5.315  10.553   4.506  4.0392 -0.8324  0.4457
  600MOL0     H80996   5.103  10.323   4.801  0.0000  0.8153  0.9763
  600MOL0     H80997   5.895  10.616   4.417  0.3510  2.0890  1.3911
  600MOL0     H80998   6.241  10.706   4.446  1.6110 -2.6304 -0.1025
  600MOL0     H80999   6.197  10.576   4.336  0.0388 -0.0922 -0.9749
  600MOL0     H81000   6.090  10.725   4.354 -0.2204 -0.3346 -1.4596
  601MOL0     O81001   6.008   9.055   0.895 -0.9633  0.3551 -0.1638
  601MOL0     C81002   5.961   9.010   0.792  0.1053 -0.3156  0.3686
  601MOL0     O81003   6.032   8.941   0.696  0.3090 -0.2033 -0.6305
  601MOL0     C81004   6.167   8.941   0.695 -0.1218 -0.3475 -0.3869
  601MOL0     C81005   6.236   8.843   0.763  0.2155  0.0991  0.2469
  601MOL0     C81006   6.375   8.822   0.748 -0.0055  0.7600 -0.3283
  601MOL0     C81007   6.451   8.906   0.676 -1.1810  0.0279 -0.2968
  601MOL0     O81008   6.581   8.873   0.665  0.0648  0.0616 -0.2784
  601MOL0     C81009   6.682   8.980   0.665  0.4093 -0.9977  0.3676
  601MOL0     C81010   6.826   8.930   0.683  0.6728 -0.1237  0.2703
  601MOL0     C81011   6.887   8.874   0.554  0.1778 -0.2416  0.8066
  601MOL0     C81012   6.809   8.751   0.494  0.8472  0.0721  0.3343
  601MOL0     C81013   6.800   8.632   0.588 -0.7710  0.6201 -0.1637
  601MOL0     C81014   6.704   8.523   0.537 -0.3857 -0.0334  0.2426
  601MOL0     C81015   6.785   8.404   0.472  1.1496 -0.0768  0.5091
  601MOL0     C81016   6.867   8.457   0.357 -0.2474 -0.8489  0.2825
  601MOL0     N81017   6.917   8.346   0.271  0.9767 -0.1650  0.5749
  601MOL0     C81018   7.029   8.268   0.295  0.1502 -0.7338 -0.2810
  601MOL0     C81019   7.038   8.181   0.185  0.5050 -0.7581 -0.3366
  601MOL0     C81020   7.139   8.083   0.142 -0.2236 -0.6603  0.0533
  601MOL0     C81021   7.090   7.939   0.125 -0.2722 -0.0574  0.6833
  601MOL0     C81022   7.194   7.842   0.056  0.0917 -0.0443  0.2971
  601MOL0     C81023   7.318   7.806   0.139  0.1413  0.0200 -0.1455
  601MOL0     O81024   7.411   7.766   0.046 -0.1314 -0.4953 -0.8942
  601MOL0     C81025   7.529   7.703   0.093 -0.7553 -0.9000  0.6905
  601MOL0     C81026   7.594   7.608   0.013  0.1750  0.4144 -0.6228
  601MOL0     C81027   7.693   7.528   0.065 -0.6495 -0.5504 -0.2838
  601MOL0     C81028   7.745   7.544   0.202 -0.3646 -0.2697 -0.1684
  601MOL0     C81029   7.851   7.462   0.253 -0.5370  0.4603  0.8344
  601MOL0     O81030   7.885   7.346   0.191 -0.0022  0.3253  0.3764
  601MOL0     C81031   8.011   7.282   0.209  0.3536 -0.3105 -0.2264
  601MOL0     C81032   8.007   7.147   0.211  0.2729  0.0316 -0.8083
  601MOL0     C81033   8.134   7.085   0.209  0.7180 -0.0949  0.3737
  601MOL0     C81034   8.253   7.161   0.188  0.0516  0.6398 -0.0371
  601MOL0     O81035   8.376   7.097   0.186 -0.2842 -0.0759 -0.3278
  601MOL0     C81036   8.441   7.110   0.312 -0.4720  0.3180 -0.4508
  601MOL0     C81037   8.590   7.088   0.302  0.1846 -0.2565 -0.0909
  601MOL0     C81038   8.676   7.094   0.422  0.7215  0.8454 -0.8990
  601MOL0     C81039   8.814   7.120   0.389 -0.4122  0.5112 -0.0228
  601MOL0     C81040   8.903   7.122   0.512 -1.2482 -0.3164 -0.8317
  601MOL0     C81041   9.049   7.162   0.492 -0.4337 -0.8813 -0.6268
  601MOL0     C81042   9.135   7.202   0.611  0.1993 -0.3754 -0.1177
  601MOL0     C81043   9.103   7.352   0.660 -0.1019 -1.1369 -0.1309
  601MOL0    Cl81044   9.197   7.465   0.571  0.3901 -0.2662  0.1016
  601MOL0     C81045   8.250   7.292   0.183 -0.0077  0.1895  0.2971
  601MOL0     C81046   8.133   7.354   0.207  0.5087 -0.4793 -0.1455
  601MOL0     O81047   7.916   7.509   0.344  0.4187  0.5168  0.9996
  601MOL0     C81048   7.676   7.648   0.272  0.9591  0.3842  0.6075
  601MOL0     C81049   7.568   7.719   0.227  0.5145  0.7345  0.4606
  601MOL0     N81050   6.924   8.217   0.104 -0.4708  1.1400  0.6571
  601MOL0     N81051   6.851   8.304   0.158 -0.6011 -0.4482  0.4857
  601MOL0     C81052   6.385   9.016   0.609  0.2126 -0.2900 -0.4917
  601MOL0     C81053   6.247   9.037   0.620 -0.0142  1.1087 -0.2392
  601MOL0     C81054   5.817   9.023   0.770  0.6390 -0.2059 -0.3695
  601MOL0     C81055   5.747   8.941   0.673 -0.3605 -0.7265 -0.5428
  601MOL0     C81056   5.606   8.936   0.669  0.0226 -1.0476  0.1582
  601MOL0     C81057   5.530   9.027   0.744 -0.5449 -0.4064  1.1000
  601MOL0     O81058   5.391   9.033   0.745 -0.3903 -0.1831 -0.8600
  601MOL0     C81059   5.318   8.938   0.661 -0.2388  0.5385 -0.5454
  601MOL0     C81060   5.292   8.810   0.733  0.2863  0.0878 -0.5228
  601MOL0     C81061   5.207   8.838   0.855 -0.5543  0.5970  0.5598
  601MOL0     C81062   5.226   8.721   0.962 -0.1543 -0.1139 -0.6372
  601MOL0     C81063   5.136   8.734   1.076  0.5631  0.4949  0.1010
  601MOL0     C81064   5.079   8.733   1.181  0.1591  0.2835  0.0953
  601MOL0     C81065   5.589   9.115   0.832 -0.8393 -0.2069 -0.1591
  601MOL0     C81066   5.732   9.114   0.842 -0.1070 -0.4719  0.1605
  601MOL0     C81067   5.788   9.226   0.935  0.3343 -0.2256  0.4509
  601MOL0     H81068   6.179   8.765   0.813  0.1221  0.3159  0.4749
  601MOL0     H81069   6.418   8.732   0.789 -0.7221  1.3091  1.7665
  601MOL0     H81070   6.682   9.047   0.578 -1.9674  2.2842  2.6009
  601MOL0     H81071   6.658   9.049   0.746  0.3952 -0.9057  0.2865
  601MOL0     H81072   6.823   8.860   0.767  1.3730  0.2288  0.5977
  601MOL0     H81073   6.886   9.016   0.715  0.3824 -0.2142  1.1088
  601MOL0     H81074   6.985   8.833   0.581 -0.7076 -1.8941  1.6781
  601MOL0     H81075   6.901   8.948   0.474 -0.9211 -0.8323  0.0372
  601MOL0     H81076   6.708   8.781   0.468  0.4898 -1.3931 -0.0741
  601MOL0     H81077   6.852   8.723   0.397 -1.5956 -1.3895 -0.4159
  601MOL0     H81078   6.903   8.599   0.603  0.0147  3.1626  0.5187
  601MOL0     H81079   6.757   8.661   0.685 -1.8509  2.4251 -1.1162
  601MOL0     H81080   6.652   8.483   0.625  0.5367  1.6166  1.6073
  601MOL0     H81081   6.632   8.562   0.465  0.1116  1.9172  0.7398
  601MOL0     H81082   6.719   8.322   0.439  0.4243 -0.4888  2.7821
  601MOL0     H81083   6.846   8.361   0.552  1.6991 -1.6150 -0.6844
  601MOL0     H81084   6.807   8.528   0.299 -2.1682 -0.1110  2.9825
  601MOL0     H81085   6.955   8.509   0.396 -0.7791  3.0124 -2.9589
  601MOL0     H81086   7.109   8.278   0.367  0.9915  1.7462 -1.4530
  601MOL0     H81087   7.161   8.126   0.044  2.5708 -0.3988  0.7165
  601MOL0     H81088   7.228   8.069   0.205  0.1549 -2.5413 -0.8638
  601MOL0     H81089   7.072   7.899   0.225 -1.7094 -0.3568  0.3309
  601MOL0     H81090   6.999   7.948   0.064  1.6546  1.3669 -2.2391
  601MOL0     H81091   7.235   7.891  -0.033  1.5520 -1.6738  0.0266
  601MOL0     H81092   7.146   7.752   0.017  0.2490 -0.7554  1.6816
  601MOL0     H81093   7.296   7.729   0.214 -0.3128 -1.1376 -1.4229
  601MOL0     H81094   7.363   7.887   0.196 -0.4796  1.0865 -1.1185
  601MOL0     H81095   7.540   7.588  -0.078 -0.0153  2.2935 -0.9650
  601MOL0     H81096   7.732   7.444   0.007  0.6136  0.0948 -0.4173
  601MOL0     H81097   7.916   7.091   0.223 -0.3517  0.7695 -1.8570
  601MOL0     H81098   8.143   6.977   0.206  0.3159 -0.1307  0.2959
  601MOL0     H81099   8.420   7.200   0.371  1.7974 -0.5581  1.8776
  601MOL0     H81100   8.410   7.026   0.374  0.3899  1.0114  0.9715
  601MOL0     H81101   8.611   6.995   0.248  2.1507 -0.9230  1.6788
  601MOL0     H81102   8.628   7.167   0.236  0.4495  0.6300  1.0753
  601MOL0     H81103   8.642   7.178   0.483  1.8709 -0.5440  1.8145
  601MOL0     H81104   8.675   7.006   0.487  0.7477  0.7742 -0.9937
  601MOL0     H81105   8.827   7.219   0.344  1.1705  0.2819 -0.1317
  601MOL0     H81106   8.850   7.056   0.307  0.4167  0.2644  0.5215
  601MOL0     H81107   8.892   7.020   0.550 -0.4485 -0.7667 -1.7721
  601MOL0     H81108   8.858   7.181   0.593 -1.2846 -0.5498 -0.6783
  601MOL0     H81109   9.083   7.068   0.449  0.5499  0.4597 -2.9726
  601MOL0     H81110   9.065   7.232   0.409  1.0331  0.9652  1.1289
  601MOL0     H81111   9.240   7.199   0.582  0.3125  0.5419  0.1721
  601MOL0     H81112   9.107   7.128   0.686  0.3245 -1.9595 -1.5675
  601MOL0     H81113   8.999   7.374   0.635  0.1349 -0.7270 -0.7750
  601MOL0     H81114   9.119   7.362   0.767 -1.2978  0.1497 -0.0423
  601MOL0     H81115   8.340   7.352   0.181 -1.4133  2.3925 -1.5880
  601MOL0     H81116   8.136   7.462   0.207  0.3166 -0.4715  0.4634
  601MOL0     H81117   7.715   7.678   0.368 -1.0320  2.3110  0.8811
  601MOL0     H81118   7.521   7.800   0.281  1.5926  2.9853 -1.8025
  601MOL0     H81119   6.451   9.077   0.548  1.7301 -0.8756  0.4994
  601MOL0     H81120   6.192   9.110   0.563 -4.8525 -0.7879  1.4045
  601MOL0     H81121   5.802   8.871   0.612  0.4174  1.3048 -2.3034
  601MOL0     H81122   5.565   8.859   0.604  1.2034 -0.7229 -1.0232
  601MOL0     H81123   5.360   8.922   0.561 -0.8786  0.8804 -0.8792
  601MOL0     H81124   5.219   8.978   0.635 -0.1077  0.6899 -0.8147
  601MOL0     H81125   5.381   8.760   0.773 -0.2069  0.7267  1.4918
  601MOL0     H81126   5.238   8.744   0.665 -1.3769 -1.2332  1.9391
  601MOL0     H81127   5.101   8.854   0.832 -0.0826  2.3862 -0.5581
  601MOL0     H81128   5.244   8.924   0.912  0.3504 -1.1350  2.7132
  601MOL0     H81129   5.215   8.622   0.916  0.8585 -2.4365  3.6005
  601MOL0     H81130   5.329   8.728   0.997 -0.4075 -2.6857  0.8259
  601MOL0     H81131   5.020   8.730   1.271  0.0378 -1.4644 -0.0042
  601MOL0     H81132   5.534   9.191   0.886 -1.1914  0.8184 -1.8907
  601MOL0     H81133   5.781   9.191   1.039  0.6148  0.3718  0.6766
  601MOL0     H81134   5.885   9.254   0.893 -1.4399  0.9115 -3.3785
  601MOL0     H81135   5.738   9.323   0.924  0.6878 -0.0124  0.6828
  602MOL0     O81136  10.859   0.310   4.826 -1.0091  0.2288  0.7504
  602MOL0     C81137  10.820   0.217   4.899  0.6064 -0.0294 -0.3798
  602MOL0     O81138  10.888   0.103   4.917  0.2868  0.4662 -0.0570
  602MOL0     C81139  10.990   0.073   4.833  0.8918  1.1128  0.9172
  602MOL0     C81140  10.963  -0.015   4.726 -0.4562  0.5078 -0.2929
  602MOL0     C81141  11.064  -0.057   4.635  1.0808 -0.6723 -0.4971
  602MOL0     C81142  11.191  -0.007   4.648  0.8331 -0.1850 -0.1887
  602MOL0     O81143  11.296  -0.051   4.568  0.6132  0.0790 -0.7082
  602MOL0     C81144  11.368   0.045   4.492 -0.0621  0.5178  0.2528
  602MOL0     C81145  11.475  -0.030   4.408  0.6336 -0.3037  0.3229
  602MOL0     C81146  11.573   0.065   4.341  0.3052 -0.2352 -0.6592
  602MOL0     C81147  11.663   0.112   4.450 -0.3701  0.0079 -0.9371
  602MOL0     C81148  11.786   0.173   4.384  1.0869 -0.4548  0.8886
  602MOL0     C81149  11.869   0.263   4.481 -0.0919 -0.6243  1.1958
  602MOL0     C81150  11.925   0.381   4.394 -0.2860  0.7135 -1.1232
  602MOL0     C81151  12.028   0.463   4.480  0.4918 -0.6183  0.7788
  602MOL0     N81152  11.977   0.565   4.579 -0.1796  0.4040  0.5703
  602MOL0     C81153  11.847   0.596   4.596  0.5874  0.3616  0.3323
  602MOL0     C81154  11.841   0.699   4.680 -0.5977  0.0838 -0.2582
  602MOL0     C81155  11.702   0.753   4.729  0.0639 -0.4146  0.4125
  602MOL0     C81156  11.723   0.897   4.783  0.0614 -0.0338  0.0603
  602MOL0     C81157  11.754   0.992   4.668  0.1310  0.9321  0.2194
  602MOL0     C81158  11.860   1.102   4.705 -0.3090 -1.4398  0.1377
  602MOL0     O81159  11.862   1.209   4.603  0.3092 -0.2182 -0.5792
  602MOL0     C81160  11.961   1.302   4.612 -0.1286  0.3588  0.1539
  602MOL0     C81161  11.983   1.369   4.495 -0.3481 -0.4320 -0.0569
  602MOL0     C81162  12.088   1.468   4.492 -0.1058  0.3455 -0.6210
  602MOL0     C81163  12.145   1.503   4.616  0.4537 -1.3801  0.5596
  602MOL0     C81164  12.245   1.612   4.598 -0.1115 -0.4808 -0.1115
  602MOL0     O81165  12.287   1.640   4.464 -0.7684 -0.1465 -0.8255
  602MOL0     C81166  12.380   1.730   4.439 -0.5203  0.0865 -0.0002
  602MOL0     C81167  12.499   1.747   4.509  0.1923 -0.2141 -0.3008
  602MOL0     C81168  12.587   1.846   4.468 -0.4049 -0.4304 -0.5496
  602MOL0     C81169  12.575   1.916   4.347  0.0551  0.3530  0.4602
  602MOL0     O81170  12.662   2.011   4.304 -1.3210  0.8250 -0.0482
  602MOL0     C81171  12.775   2.040   4.392  0.1901  0.7282 -0.5022
  602MOL0     C81172  12.861   2.156   4.339 -0.0479 -0.1579  0.3453
  602MOL0     C81173  12.775   2.278   4.329  0.0915 -0.1588 -0.0114
  602MOL0     C81174  12.832   2.397   4.243 -0.2435  0.2017 -0.6826
  602MOL0     C81175  12.786   2.529   4.290 -0.0833 -0.1956 -0.3280
  602MOL0     C81176  12.851   2.582   4.427  0.4997  0.8498 -0.3187
  602MOL0     C81177  12.786   2.719   4.450 -0.4426  0.3383 -0.0060
  602MOL0     C81178  12.812   2.763   4.595  0.0294  0.0437 -0.2306
  602MOL0    Cl81179  12.985   2.793   4.620 -0.3615 -0.0864 -0.0251
  602MOL0     C81180  12.467   1.890   4.266 -0.1719  0.5174 -0.0723
  602MOL0     C81181  12.375   1.793   4.311  0.9256  0.4713 -0.2791
  602MOL0     O81182  12.281   1.674   4.698  0.3497 -0.0312 -0.5994
  602MOL0     C81183  12.123   1.436   4.731  0.0674 -0.8469 -0.0214
  602MOL0     C81184  12.028   1.332   4.731 -0.4777 -0.6518  0.0365
  602MOL0     N81185  11.975   0.717   4.726 -0.1149  0.0085 -0.2384
  602MOL0     N81186  12.052   0.638   4.664 -0.1187 -0.2168 -0.2278
  602MOL0     C81187  11.216   0.075   4.756  0.3218 -0.4963 -1.0862
  602MOL0     C81188  11.116   0.122   4.850 -0.0826  0.1407  0.3343
  602MOL0     C81189  10.711   0.252   5.001 -0.1993 -0.6078  0.2779
  602MOL0     C81190  10.677   0.390   4.994  1.2090  0.2971 -0.4086
  602MOL0     C81191  10.570   0.437   5.073  0.2321 -0.2821  0.6934
  602MOL0     C81192  10.500   0.345   5.162 -0.5328 -1.2208 -0.6178
  602MOL0     O81193  10.389   0.380   5.236 -0.5062 -0.4001 -0.2256
  602MOL0     C81194  10.362   0.519   5.245 -0.1598 -0.1359  0.4794
  602MOL0     C81195  10.285   0.568   5.124  0.2610  0.1898 -0.4098
  602MOL0     C81196  10.261   0.724   5.124 -1.2447  0.7394 -0.5123
  602MOL0     C81197  10.191   0.781   5.247  0.8631 -0.0264  0.2763
  602MOL0     C81198  10.043   0.798   5.228 -0.2390 -0.7265 -0.5904
  602MOL0     C81199   9.926   0.818   5.204  0.0386 -0.8813 -0.1308
  602MOL0     C81200  10.533   0.206   5.159  0.7626 -1.5399  0.2554
  602MOL0     C81201  10.628   0.160   5.068 -0.1459 -0.1402 -0.3413
  602MOL0     C81202  10.651   0.016   5.064  0.2223  0.9551 -0.8484
  602MOL0     H81203  10.864  -0.058   4.712  0.5818 -2.4644  0.7288
  602MOL0     H81204  11.031  -0.115   4.549  0.2138  1.5601 -1.7530
  602MOL0     H81205  11.311   0.096   4.414  0.9443 -0.7752 -1.3886
  602MOL0     H81206  11.403   0.129   4.553 -0.6050  0.2111  1.0119
  602MOL0     H81207  11.430  -0.088   4.327 -2.3402  1.2778  0.7297
  602MOL0     H81208  11.518  -0.103   4.477 -0.6816 -1.1744  0.2388
  602MOL0     H81209  11.513   0.148   4.303 -1.6748 -0.0648  2.4942
  602MOL0     H81210  11.629   0.008   4.267 -0.3611 -0.2139 -1.1945
  602MOL0     H81211  11.611   0.188   4.509  2.5402 -0.2740  2.3218
  602MOL0     H81212  11.691   0.036   4.524  2.4455  0.1788 -1.7038
  602MOL0     H81213  11.853   0.093   4.351  1.5266 -1.0418  3.0221
  602MOL0     H81214  11.758   0.223   4.291  3.1846  1.1811  1.0543
  602MOL0     H81215  11.806   0.311   4.557 -2.4296 -2.0245  0.2342
  602MOL0     H81216  11.955   0.215   4.530  0.1487  0.4792  1.8902
  602MOL0     H81217  11.843   0.449   4.365 -3.0892 -2.8405 -2.2711
  602MOL0     H81218  11.982   0.344   4.308  2.6046  2.5115 -0.1216
  602MOL0     H81219  12.093   0.396   4.538  2.1452  1.7675  1.8654
  602MOL0     H81220  12.093   0.508   4.404  1.0077 -1.8062  0.4879
  602MOL0     H81221  11.761   0.554   4.545  3.0237 -4.9846 -0.1081
  602MOL0     H81222  11.629   0.745   4.648 -0.2698  0.4893  0.6107
  602MOL0     H81223  11.671   0.681   4.805  0.3744 -1.8597 -0.8013
  602MOL0     H81224  11.639   0.942   4.838  0.7260  1.6668 -0.2507
  602MOL0     H81225  11.808   0.898   4.852  0.2396  1.2072 -0.1530
  602MOL0     H81226  11.661   1.043   4.642  0.4972  1.2713 -0.4415
  602MOL0     H81227  11.794   0.937   4.583 -0.7164 -0.0276  0.4193
  602MOL0     H81228  11.956   1.050   4.697  0.2789 -0.2001 -1.2933
  602MOL0     H81229  11.832   1.140   4.803 -0.2428  0.9536 -0.7157
  602MOL0     H81230  11.932   1.331   4.407 -0.0822 -3.6974  1.0529
  602MOL0     H81231  12.100   1.514   4.394 -1.7936 -1.8834 -1.9628
  602MOL0     H81232  12.516   1.687   4.598  0.5385  1.2810  0.6915
  602MOL0     H81233  12.664   1.880   4.536 -0.6551  1.4636 -1.1550
  602MOL0     H81234  12.751   2.070   4.495 -1.7148  2.2375 -1.3316
  602MOL0     H81235  12.835   1.948   4.383  1.3114  1.2834  0.8896
  602MOL0     H81236  12.942   2.179   4.409 -0.1800  1.5107  0.0030
  602MOL0     H81237  12.898   2.127   4.240 -0.8393  1.1292 -0.3558
  602MOL0     H81238  12.674   2.257   4.293  0.5704 -2.1393 -0.3053
  602MOL0     H81239  12.760   2.320   4.429  1.8809  2.1721 -0.6320
  602MOL0     H81240  12.798   2.382   4.141 -0.7104  0.1700 -0.5237
  602MOL0     H81241  12.942   2.395   4.240  0.0297 -5.1859  1.5344
  602MOL0     H81242  12.678   2.529   4.306  0.2786 -0.1106  2.5416
  602MOL0     H81243  12.809   2.602   4.212 -1.1922  0.0489 -0.4518
  602MOL0     H81244  12.838   2.509   4.508  0.4569 -0.1281 -1.1847
  602MOL0     H81245  12.959   2.594   4.418  0.7959 -1.0674  0.1512
  602MOL0     H81246  12.677   2.716   4.439 -0.6516  1.5515  1.3708
  602MOL0     H81247  12.820   2.798   4.383 -1.3647 -0.7552 -1.8361
  602MOL0     H81248  12.757   2.856   4.609 -3.5033 -1.8975  0.0023
  602MOL0     H81249  12.771   2.687   4.662  5.0096 -1.4222  1.6249
  602MOL0     H81250  12.466   1.945   4.172  0.2981  2.2498  0.8885
  602MOL0     H81251  12.301   1.749   4.245  0.7509 -1.5534  1.1812
  602MOL0     H81252  12.162   1.471   4.826  0.8840  1.1472 -1.0389
  602MOL0     H81253  12.012   1.280   4.825 -1.6557  1.3002  0.9895
  602MOL0     H81254  11.318   0.109   4.772 -0.8071  2.3610  1.1255
  602MOL0     H81255  11.146   0.187   4.931 -2.7267  0.0858  1.4427
  602MOL0     H81256  10.722   0.466   4.930  0.2798  1.5244  0.3529
  602MOL0     H81257  10.554   0.544   5.078  1.0666 -0.1979  2.4061
  602MOL0     H81258  10.455   0.573   5.265  0.6878 -2.0161  1.9951
  602MOL0     H81259  10.305   0.535   5.338  0.7576 -0.9140  1.1970
  602MOL0     H81260  10.185   0.525   5.109  0.3568  0.7459 -3.0586
  602MOL0     H81261  10.334   0.553   5.028 -0.2813  2.0051 -1.0068
  602MOL0     H81262  10.210   0.749   5.031 -0.5906 -1.5380 -1.5541
  602MOL0     H81263  10.363   0.762   5.115 -0.8839 -0.0087  0.2434
  602MOL0     H81264  10.199   0.726   5.341  0.9156 -2.1239 -0.8950
  602MOL0     H81265  10.242   0.877   5.260 -0.9929  0.9657  0.6685
  602MOL0     H81266   9.828   0.843   5.169  0.2163 -1.0535 -0.7592
  602MOL0     H81267  10.462   0.147   5.216 -1.4064  0.4384 -0.2585
  602MOL0     H81268  10.668  -0.019   4.962  0.5892  0.5285 -0.6455
  602MOL0     H81269  10.731  -0.009   5.135  1.2874  3.7771 -0.9458
  602MOL0     H81270  10.557  -0.027   5.099  0.6007  0.5762 -0.2751
  603MOL0     O81271   8.398   1.962   0.280  0.6073  0.4314 -0.3372
  603MOL0     C81272   8.321   2.014   0.201 -0.0365  0.0654 -0.1716
  603MOL0     O81273   8.359   2.094   0.088 -0.6192  0.1657 -0.3598
  603MOL0     C81274   8.467   2.066   0.009  0.4175 -0.5213 -0.5820
  603MOL0     C81275   8.510   2.158  -0.094 -0.4263 -0.0410  0.0749
  603MOL0     C81276   8.621   2.130  -0.174  0.0596 -0.1188  0.6610
  603MOL0     C81277   8.685   2.011  -0.165 -0.6655  1.0194 -0.0700
  603MOL0     O81278   8.796   1.977  -0.239 -0.3822  0.2799 -0.3163
  603MOL0     C81279   8.775   1.982  -0.380 -0.4006  1.1028 -0.0134
  603MOL0     C81280   8.888   1.906  -0.454  0.5342 -0.9371  0.9200
  603MOL0     C81281   8.936   1.771  -0.392  0.3935 -1.5397  0.3238
  603MOL0     C81282   9.013   1.688  -0.509  0.5825  0.0439  0.0607
  603MOL0     C81283   9.041   1.546  -0.459  0.3330 -0.7772  0.0156
  603MOL0     C81284   9.157   1.537  -0.353 -0.6673  1.1060  0.5206
  603MOL0     C81285   9.203   1.386  -0.343  0.9950 -0.1164  0.0497
  603MOL0     C81286   9.281   1.347  -0.467 -0.6956  0.0707  0.5999
  603MOL0     N81287   9.402   1.420  -0.503  0.5363 -0.9153  0.6185
  603MOL0     C81288   9.399   1.540  -0.575  0.9058 -0.2728 -0.5404
  603MOL0     C81289   9.526   1.568  -0.590  0.0262  0.4148 -0.8737
  603MOL0     C81290   9.581   1.683  -0.668 -0.0476 -0.7524  0.9074
  603MOL0     C81291   9.717   1.651  -0.731  0.0049 -0.3861  0.2815
  603MOL0     C81292   9.785   1.768  -0.802  0.7653 -0.1011 -0.0540
  603MOL0     C81293   9.887   1.728  -0.908  0.3097 -0.2023 -0.2947
  603MOL0     O81294  10.020   1.768  -0.869 -0.2352  0.6057 -0.4835
  603MOL0     C81295  10.124   1.756  -0.960  0.3356  0.5698 -0.0884
  603MOL0     C81296  10.108   1.727  -1.096 -0.5593 -0.0690 -0.4554
  603MOL0     C81297  10.217   1.705  -1.180  0.0195 -0.5179  0.6161
  603MOL0     C81298  10.345   1.755  -1.147  0.5383  1.3110  0.3373
  603MOL0     C81299  10.460   1.761  -1.245  0.9369  0.3400  0.3492
  603MOL0     O81300  10.436   1.721  -1.375 -0.2370 -0.4751 -0.2286
  603MOL0     C81301  10.537   1.711  -1.461 -0.6064  0.2823  0.1765
  603MOL0     C81302  10.642   1.796  -1.476 -0.9981 -0.3032 -0.6205
  603MOL0     C81303  10.741   1.783  -1.576 -0.6026 -0.3075 -0.5041
  603MOL0     C81304  10.729   1.683  -1.673 -0.1868 -0.2489 -0.0966
  603MOL0     O81305  10.821   1.649  -1.777 -0.4924 -0.1813  0.3753
  603MOL0     C81306  10.961   1.693  -1.756 -1.1897 -0.6656  0.4377
  603MOL0     C81307  11.020   1.620  -1.634  1.0034 -0.2350  0.0777
  603MOL0     C81308  11.169   1.598  -1.644  0.2976 -0.2206  0.8252
  603MOL0     C81309  11.210   1.537  -1.515 -0.2041 -0.1996 -0.2298
  603MOL0     C81310  11.361   1.505  -1.522  0.4548  0.6127  0.6733
  603MOL0     C81311  11.405   1.394  -1.614 -0.4898  0.0382  0.5337
  603MOL0     C81312  11.558   1.369  -1.616  0.1152 -0.2595 -0.7881
  603MOL0     C81313  11.635   1.477  -1.689 -0.2770 -0.4489  0.3696
  603MOL0    Cl81314  11.810   1.425  -1.696  0.3975  0.3606 -0.4174
  603MOL0     C81315  10.606   1.607  -1.668  0.4941  0.1857 -0.0268
  603MOL0     C81316  10.516   1.621  -1.558  0.0657 -0.1744  0.8221
  603MOL0     O81317  10.566   1.817  -1.207 -0.1573  0.0029 -0.0051
  603MOL0     C81318  10.362   1.794  -1.012  0.5552 -0.2054  0.7006
  603MOL0     C81319  10.253   1.804  -0.921  0.1252  0.1263  0.3769
  603MOL0     N81320   9.601   1.475  -0.517 -0.5248 -0.2396  0.2213
  603MOL0     N81321   9.524   1.384  -0.469  0.1797  0.1629  0.1426
  603MOL0     C81322   8.644   1.916  -0.066 -0.2545  0.2825 -0.3550
  603MOL0     C81323   8.534   1.946   0.019  0.0388 -1.0002 -0.3794
  603MOL0     C81324   8.171   2.012   0.225  0.5161  0.1392  0.6346
  603MOL0     C81325   8.087   2.062   0.127  0.5306 -0.3652  0.6233
  603MOL0     C81326   7.949   2.066   0.137 -1.1273 -0.9480 -0.1750
  603MOL0     C81327   7.884   2.014   0.247  1.2020  0.4741  0.3989
  603MOL0     O81328   7.746   2.044   0.234 -0.2219  0.2805  0.0452
  603MOL0     C81329   7.664   1.969   0.327 -0.0367  0.3715 -0.3709
  603MOL0     C81330   7.635   2.036   0.461 -0.3550 -0.0318 -0.1110
  603MOL0     C81331   7.524   2.141   0.455 -0.5637  0.2564 -0.4509
  603MOL0     C81332   7.386   2.075   0.450  0.4300  0.0992  0.3749
  603MOL0     C81333   7.276   2.165   0.487 -0.1478 -0.0887  0.0293
  603MOL0     C81334   7.193   2.253   0.518  0.1818 -0.1291  0.1296
  603MOL0     C81335   7.963   1.963   0.352 -0.7341  0.2597 -0.3346
  603MOL0     C81336   8.104   1.956   0.337 -0.5012  0.0596 -0.4086
  603MOL0     C81337   8.181   1.894   0.456  0.6779 -0.5583  0.0738
  603MOL0     H81338   8.461   2.255  -0.093 -0.3805  0.0010 -1.0844
  603MOL0     H81339   8.652   2.209  -0.242  1.1765 -1.2563 -0.1876
  603MOL0     H81340   8.677   1.942  -0.410 -0.2763  2.6878 -2.9079
  603MOL0     H81341   8.774   2.087  -0.411 -0.9088  0.9243 -0.6362
  603MOL0     H81342   8.974   1.974  -0.457  2.0790 -2.8028  0.4621
  603MOL0     H81343   8.851   1.880  -0.554  2.2235 -0.8049  0.2202
  603MOL0     H81344   8.846   1.727  -0.349 -0.3352 -1.0114 -0.6036
  603MOL0     H81345   9.004   1.789  -0.309  0.9358 -0.2701 -0.3636
  603MOL0     H81346   8.958   1.697  -0.603 -1.4958  4.0534  1.4113
  603MOL0     H81347   9.108   1.739  -0.528  0.0076  1.4385  0.7474
  603MOL0     H81348   8.952   1.498  -0.417 -0.7347  0.5880 -0.6049
  603MOL0     H81349   9.067   1.485  -0.547 -1.9900 -2.4378  0.3865
  603MOL0     H81350   9.240   1.605  -0.372 -1.2885  1.5101 -0.9345
  603MOL0     H81351   9.116   1.561  -0.254 -1.5931  2.3727 -0.1453
  603MOL0     H81352   9.115   1.322  -0.331  1.2217 -0.7082 -1.2925
  603MOL0     H81353   9.258   1.378  -0.249 -1.3402  0.4503  1.5485
  603MOL0     H81354   9.309   1.244  -0.444  2.5404  1.5700  4.4763
  603MOL0     H81355   9.214   1.345  -0.554 -0.7876  1.9407  0.5863
  603MOL0     H81356   9.311   1.594  -0.608 -1.6075 -2.6990  1.6553
  603MOL0     H81357   9.525   1.700  -0.760  1.6941 -3.6625 -0.8663
  603MOL0     H81358   9.578   1.776  -0.611  3.4085 -0.9552  1.6507
  603MOL0     H81359   9.784   1.621  -0.650 -0.8974  1.5757  1.8693
  603MOL0     H81360   9.711   1.567  -0.801 -2.0427  0.3560 -0.5162
  603MOL0     H81361   9.827   1.831  -0.723 -0.5285  0.1421  0.4598
  603MOL0     H81362   9.707   1.826  -0.851  0.0191 -0.0065  1.2233
  603MOL0     H81363   9.860   1.787  -0.995 -1.3405  0.0146  0.3265
  603MOL0     H81364   9.877   1.621  -0.928 -0.9547 -1.6135  5.7006
  603MOL0     H81365  10.005   1.713  -1.128 -3.0961  2.4573  5.2042
  603MOL0     H81366  10.188   1.686  -1.283 -1.0812  0.0411  0.7994
  603MOL0     H81367  10.644   1.877  -1.404  4.5439  0.6443 -1.3892
  603MOL0     H81368  10.830   1.844  -1.575 -1.3164  0.7901  1.8323
  603MOL0     H81369  11.011   1.653  -1.845 -3.7247 -0.3744 -1.2468
  603MOL0     H81370  10.976   1.802  -1.757 -3.5077 -0.2812 -0.3341
  603MOL0     H81371  10.989   1.668  -1.541 -1.0855 -0.6720 -0.3333
  603MOL0     H81372  10.975   1.520  -1.628  1.8161 -0.6867 -0.9673
  603MOL0     H81373  11.172   1.514  -1.714 -2.0328 -1.1119  1.6820
  603MOL0     H81374  11.228   1.685  -1.675  1.5364 -1.2772  0.1200
  603MOL0     H81375  11.159   1.444  -1.487  0.7759 -0.2147  1.6847
  603MOL0     H81376  11.198   1.603  -1.429  0.9483 -1.8437  1.2631
  603MOL0     H81377  11.391   1.488  -1.419 -1.2503  2.4710  1.5456
  603MOL0     H81378  11.410   1.599  -1.549  1.5305 -0.8177 -2.9283
  603MOL0     H81379  11.363   1.305  -1.567 -1.2820  0.2819  0.3087
  603MOL0     H81380  11.362   1.412  -1.713 -0.4172  0.2143  0.5331
  603MOL0     H81381  11.579   1.273  -1.664  3.4549 -0.3854  0.6788
  603MOL0     H81382  11.592   1.352  -1.513 -1.1564 -0.2421 -0.3395
  603MOL0     H81383  11.592   1.485  -1.789 -1.3569  1.9654  0.9441
  603MOL0     H81384  11.610   1.568  -1.634 -0.5173 -0.2953  0.0129
  603MOL0     H81385  10.580   1.533  -1.743  1.0021 -0.7325  0.6916
  603MOL0     H81386  10.416   1.579  -1.566  0.6158 -1.1574 -2.3405
  603MOL0     H81387  10.462   1.828  -0.985  1.2073 -0.7149 -0.9379
  603MOL0     H81388  10.267   1.843  -0.821 -1.8818  1.2219  0.2739
  603MOL0     H81389   8.689   1.817  -0.058 -2.0053 -0.6757 -1.5133
  603MOL0     H81390   8.505   1.860   0.078 -2.0578 -0.5302 -0.6411
  603MOL0     H81391   8.122   2.128   0.048 -1.7058  0.3948  0.1928
  603MOL0     H81392   7.903   2.122   0.056 -0.8451  1.8764  1.4939
  603MOL0     H81393   7.712   1.876   0.358  0.5629  1.3011  1.6700
  603MOL0     H81394   7.571   1.949   0.273  1.0287  2.2790 -3.1872
  603MOL0     H81395   7.723   2.085   0.505  0.3258  0.3007 -1.7333
  603MOL0     H81396   7.605   1.954   0.525 -0.8349 -0.2407 -0.5973
  603MOL0     H81397   7.546   2.204   0.368 -0.7876  0.5811 -0.2764
  603MOL0     H81398   7.523   2.197   0.549  2.5651  0.8603 -0.6894
  603MOL0     H81399   7.369   2.041   0.348  2.2077 -0.4241  0.2224
  603MOL0     H81400   7.390   1.991   0.520  0.6803  1.6555  2.3117
  603MOL0     H81401   7.114   2.315   0.556  1.0047  0.5765  0.7039
  603MOL0     H81402   7.920   1.919   0.442  0.0467 -1.0507 -0.5734
  603MOL0     H81403   8.122   1.837   0.528  0.7514  0.9436  1.3770
  603MOL0     H81404   8.261   1.830   0.420 -0.1388 -2.6315  1.7335
  603MOL0     H81405   8.243   1.961   0.517  2.6341 -1.0903 -1.2354
  604MOL0     O81406   2.621   3.290  11.011  0.3780 -0.1534  0.1471
  604MOL0     C81407   2.559   3.200  11.070  0.0205 -0.7517  0.1809
  604MOL0     O81408   2.616   3.098  11.141  0.3119 -0.2392 -0.1121
  604MOL0     C81409   2.743   3.063  11.130  0.1588 -0.9909  0.1042
  604MOL0     C81410   2.846   3.157  11.120 -0.8138  0.4260  0.1197
  604MOL0     C81411   2.975   3.107  11.118  0.2631 -0.0578 -0.0589
  604MOL0     C81412   3.006   2.971  11.122  1.1781 -0.0397  0.2624
  604MOL0     O81413   3.138   2.933  11.133 -0.6176  0.3631 -0.0080
  604MOL0     C81414   3.168   2.805  11.069 -0.7307 -0.8109 -0.9202
  604MOL0     C81415   3.316   2.813  11.017  0.5127  0.2329 -0.2756
  604MOL0     C81416   3.416   2.801  11.126 -0.3571 -0.0463  0.3170
  604MOL0     C81417   3.559   2.818  11.091 -0.1958 -0.0841  0.1655
  604MOL0     C81418   3.639   2.783  11.215 -0.1921 -0.3767 -0.2754
  604MOL0     C81419   3.783   2.833  11.195  0.2379  0.2178 -0.2402
  604MOL0     C81420   3.863   2.817  11.328  0.2817 -0.1621 -0.3439
  604MOL0     C81421   3.991   2.902  11.324  0.0282  0.6456  0.3581
  604MOL0     N81422   4.093   2.873  11.220  0.2204  0.2488  0.1889
  604MOL0     C81423   4.219   2.836  11.249 -0.0204 -0.2091  0.3281
  604MOL0     C81424   4.275   2.816  11.125  0.0808 -0.4094 -0.2545
  604MOL0     C81425   4.408   2.751  11.089 -0.8699  0.5587  0.0605
  604MOL0     C81426   4.525   2.833  11.143  0.7602 -0.3190 -0.2517
  604MOL0     C81427   4.648   2.743  11.177  0.1258 -0.7544  0.1585
  604MOL0     C81428   4.749   2.831  11.254  0.0988  0.1413  0.5125
  604MOL0     O81429   4.854   2.736  11.281  0.4541 -0.0659 -0.5600
  604MOL0     C81430   4.968   2.777  11.346 -0.0235  0.4475 -0.3707
  604MOL0     C81431   5.072   2.688  11.332  0.1749  0.2475 -0.3391
  604MOL0     C81432   5.199   2.720  11.392  0.2038  0.0482 -0.6636
  604MOL0     C81433   5.220   2.831  11.472  0.1345 -0.0857  0.4779
  604MOL0     C81434   5.353   2.877  11.516 -0.4278 -0.2261  0.5020
  604MOL0     O81435   5.460   2.789  11.489  0.4819 -0.1532  0.5501
  604MOL0     C81436   5.586   2.833  11.504 -0.6812 -0.0866  0.1446
  604MOL0     C81437   5.633   2.962  11.469  0.9263  0.9357 -0.2278
  604MOL0     C81438   5.767   2.988  11.487  0.4713 -0.0627 -0.0873
  604MOL0     C81439   5.867   2.900  11.538 -0.3909  0.6781 -0.7971
  604MOL0     O81440   6.001   2.935  11.541  0.6051 -0.1008  0.1056
  604MOL0     C81441   6.106   2.833  11.531  0.5773  0.0337  0.6796
  604MOL0     C81442   6.106   2.762  11.389  0.4054 -0.4670  0.1283
  604MOL0     C81443   6.224   2.668  11.385 -0.2490  0.3725  0.1781
  604MOL0     C81444   6.359   2.727  11.378 -0.5708  0.4268  0.0790
  604MOL0     C81445   6.465   2.625  11.397 -0.1192 -0.2111 -0.2737
  604MOL0     C81446   6.601   2.684  11.353  0.1327  0.2496  0.8218
  604MOL0     C81447   6.693   2.565  11.347 -0.6470 -0.2169 -0.2019
  604MOL0     C81448   6.819   2.590  11.263  0.5574 -1.0496  0.0457
  604MOL0    Cl81449   6.930   2.714  11.338 -0.2830  0.5342 -0.3330
  604MOL0     C81450   5.814   2.777  11.587  0.0480  0.1673  0.2624
  604MOL0     C81451   5.681   2.735  11.559  1.1391  0.1176  0.4037
  604MOL0     O81452   5.364   2.980  11.581  0.1110 -0.6131  0.5903
  604MOL0     C81453   5.107   2.916  11.481  0.3960  0.0117  0.1372
  604MOL0     C81454   4.984   2.892  11.420  0.0478  0.0332 -0.7130
  604MOL0     N81455   4.188   2.856  11.027  0.4566  1.0319 -0.0088
  604MOL0     N81456   4.075   2.872  11.086 -0.2055 -0.4748 -0.6676
  604MOL0     C81457   2.899   2.882  11.120  0.0976  0.7709 -0.1338
  604MOL0     C81458   2.771   2.925  11.128 -0.0031  0.5474 -0.6473
  604MOL0     C81459   2.409   3.203  11.065 -0.7550  1.0407 -0.8094
  604MOL0     C81460   2.347   3.129  11.166 -0.4080  0.9493 -0.0267
  604MOL0     C81461   2.204   3.136  11.172 -0.4553  0.3309  0.0534
  604MOL0     C81462   2.134   3.197  11.064 -0.4162 -0.2287  0.7791
  604MOL0     O81463   2.004   3.195  11.083 -0.1555  0.4813  0.3884
  604MOL0     C81464   1.914   3.272  11.001  0.0897  0.2024  0.5467
  604MOL0     C81465   1.766   3.247  11.045 -0.2441 -0.5829  0.3615
  604MOL0     C81466   1.679   3.291  10.921  0.6766  1.2063  0.2156
  604MOL0     C81467   1.534   3.287  10.957  0.1951  0.2451 -0.5254
  604MOL0     C81468   1.444   3.313  10.841 -0.4360 -0.2544 -0.1109
  604MOL0     C81469   1.387   3.332  10.737 -0.8998  0.3700 -0.6790
  604MOL0     C81470   2.206   3.272  10.968  0.6237  0.0040  0.7838
  604MOL0     C81471   2.340   3.267  10.964 -0.2654  0.1931  0.4427
  604MOL0     C81472   2.402   3.352  10.849 -0.8293 -0.3316  0.0278
  604MOL0     H81473   2.838   3.265  11.127 -0.1612  0.4004  1.4701
  604MOL0     H81474   3.054   3.182  11.124 -0.0090  0.5272 -2.5832
  604MOL0     H81475   3.152   2.721  11.138 -0.2049  1.1325  1.7519
  604MOL0     H81476   3.109   2.791  10.978 -0.6983  0.5240 -1.1551
  604MOL0     H81477   3.340   2.901  10.956 -2.7906  0.9703 -0.6898
  604MOL0     H81478   3.325   2.722  10.957  1.1693 -2.8227  3.9879
  604MOL0     H81479   3.396   2.708  11.180 -2.0671  1.3145  2.1500
  604MOL0     H81480   3.399   2.885  11.193  2.8209 -0.1160  1.3787
  604MOL0     H81481   3.586   2.765  10.999  2.8993  1.9538 -0.2635
  604MOL0     H81482   3.572   2.924  11.068  1.0085 -0.7619 -2.6256
  604MOL0     H81483   3.589   2.834  11.298  0.4808  0.7217 -0.5175
  604MOL0     H81484   3.649   2.676  11.235 -0.6967 -0.9179 -2.6715
  604MOL0     H81485   3.836   2.775  11.118  1.6666 -2.5511  2.5931
  604MOL0     H81486   3.778   2.938  11.166 -1.6781 -0.3454 -2.3033
  604MOL0     H81487   3.874   2.713  11.362 -0.8646 -0.0457  0.4415
  604MOL0     H81488   3.796   2.851  11.407 -1.7170  1.0339 -2.4156
  604MOL0     H81489   3.961   3.007  11.314  0.2008  1.0045  2.8818
  604MOL0     H81490   4.034   2.904  11.425 -2.3143 -0.4999  1.4576
  604MOL0     H81491   4.263   2.812  11.345  1.0041 -0.0599 -0.0986
  604MOL0     H81492   4.411   2.652  11.135 -1.9841  0.5482  0.1342
  604MOL0     H81493   4.407   2.731  10.981 -2.4403 -0.9347  0.3023
  604MOL0     H81494   4.541   2.922  11.082  0.4508  1.0366  1.5585
  604MOL0     H81495   4.485   2.876  11.235 -0.6717  0.0052 -0.9960
  604MOL0     H81496   4.698   2.700  11.090  0.2906 -0.5995  0.1755
  604MOL0     H81497   4.623   2.656  11.238  1.2816  1.2161  3.7923
  604MOL0     H81498   4.702   2.868  11.346 -0.8060 -2.4304  1.1719
  604MOL0     H81499   4.776   2.914  11.188  1.3574 -0.1117  0.6850
  604MOL0     H81500   5.064   2.594  11.279 -1.6380 -2.5843  4.3331
  604MOL0     H81501   5.276   2.645  11.378  0.3252 -0.3768  1.7741
  604MOL0     H81502   5.564   3.015  11.404 -0.2564 -2.6370 -2.1141
  604MOL0     H81503   5.799   3.082  11.442  0.6947 -0.4425 -0.7389
  604MOL0     H81504   6.198   2.888  11.554 -0.6303  2.1082  0.8514
  604MOL0     H81505   6.088   2.751  11.601  0.4009 -1.6819 -1.3030
  604MOL0     H81506   6.010   2.711  11.372  0.3744  0.3862 -2.6878
  604MOL0     H81507   6.124   2.836  11.311 -0.7720 -0.5915 -0.2880
  604MOL0     H81508   6.217   2.612  11.479  0.0443  2.2955  1.3833
  604MOL0     H81509   6.210   2.605  11.297 -3.2382  1.0642  0.0547
  604MOL0     H81510   6.377   2.805  11.454  0.7297  0.0838  0.1502
  604MOL0     H81511   6.361   2.778  11.281 -2.0528  2.5589  1.0943
  604MOL0     H81512   6.435   2.543  11.332 -1.8822  0.9580 -1.0175
  604MOL0     H81513   6.471   2.595  11.502  2.8603 -0.4321 -0.4410
  604MOL0     H81514   6.601   2.735  11.256 -0.9272 -2.6625 -0.8410
  604MOL0     H81515   6.629   2.751  11.435  2.1432  1.2816 -0.6156
  604MOL0     H81516   6.647   2.473  11.308 -1.0940 -0.1841  0.2434
  604MOL0     H81517   6.722   2.542  11.450 -0.3454  0.3687 -0.1504
  604MOL0     H81518   6.861   2.489  11.261  0.7162 -1.0017 -2.6479
  604MOL0     H81519   6.796   2.619  11.160  0.6681  0.3339  0.3800
  604MOL0     H81520   5.882   2.699  11.620  0.0501 -0.5358 -1.3015
  604MOL0     H81521   5.641   2.635  11.572 -1.2815  1.0712  0.8796
  604MOL0     H81522   5.120   3.013  11.527 -2.9590  0.5877  0.1099
  604MOL0     H81523   4.911   2.972  11.421  0.3092  0.4842 -4.0806
  604MOL0     H81524   2.924   2.778  11.134 -0.5292  0.8277  1.8259
  604MOL0     H81525   2.691   2.854  11.146 -1.4838  2.5738  1.2867
  604MOL0     H81526   2.405   3.091  11.249 -0.3174 -0.5204 -0.7292
  604MOL0     H81527   2.154   3.082  11.252  0.8876  0.5320  1.0547
  604MOL0     H81528   1.921   3.258  10.893  0.9527  4.4627 -0.1424
  604MOL0     H81529   1.940   3.378  11.004 -0.0466  0.3746 -2.0820
  604MOL0     H81530   1.750   3.298  11.141 -1.0005  0.7916 -0.4655
  604MOL0     H81531   1.760   3.139  11.059  0.3652 -0.4538  1.7450
  604MOL0     H81532   1.702   3.212  10.849  0.3130 -0.7130  2.0948
  604MOL0     H81533   1.707   3.392  10.890 -1.3388  1.5185 -0.7599
  604MOL0     H81534   1.511   3.183  10.985  2.1737 -0.4416 -1.2693
  604MOL0     H81535   1.507   3.350  11.043  1.1180 -2.1419  1.6672
  604MOL0     H81536   1.336   3.348  10.644 -1.3320  0.7156 -0.3865
  604MOL0     H81537   2.160   3.341  10.897 -0.1748  0.7194  1.9616
  604MOL0     H81538   2.331   3.401  10.781  1.4570 -2.9159 -4.7321
  604MOL0     H81539   2.469   3.429  10.888 -1.0326  1.1382 -2.3088
  604MOL0     H81540   2.451   3.288  10.775  0.5398 -0.0661  0.6838
  605MOL0     O81541  11.336  10.825   1.725 -0.4523  0.2806  0.3917
  605MOL0     C81542  11.371  10.946   1.709 -0.3439  0.1478 -0.7936
  605MOL0     O81543  11.495  10.993   1.742 -0.2198 -0.1617 -0.4678
  605MOL0     C81544  11.605  10.908   1.742 -0.4072  0.2198  0.1088
  605MOL0     C81545  11.700  10.912   1.842  0.2795 -0.8404  0.0180
  605MOL0     C81546  11.815  10.832   1.842 -0.3165 -0.2311 -0.7809
  605MOL0     C81547  11.828  10.733   1.748 -0.2076  0.7562 -0.7215
  605MOL0     O81548  11.936  10.642   1.752 -0.0654  0.1535 -0.1501
  605MOL0     C81549  12.024  10.634   1.872 -0.1760  0.8051  0.5760
  605MOL0     C81550  12.137  10.534   1.851 -0.8170  0.4232  0.4522
  605MOL0     C81551  12.215  10.522   1.985 -0.3438 -0.2390 -0.0062
  605MOL0     C81552  12.302  10.395   1.978  0.2616  0.5061  0.5116
  605MOL0     C81553  12.410  10.380   2.088  0.0366 -0.5509 -0.3087
  605MOL0     C81554  12.518  10.270   2.071 -0.0210  0.9485 -0.7068
  605MOL0     C81555  12.622  10.270   2.183 -0.6656  0.0908  0.0000
  605MOL0     C81556  12.716  10.158   2.149 -0.0791  0.0365 -0.4964
  605MOL0     N81557  12.823  10.144   2.249 -0.0261  0.7861 -0.6712
  605MOL0     C81558  12.809  10.129   2.386  0.0997  0.0454  0.1292
  605MOL0     C81559  12.935  10.127   2.426 -1.1752  0.3752 -0.1529
  605MOL0     C81560  12.979  10.133   2.568  1.0804  0.1069 -0.4477
  605MOL0     C81561  13.122  10.172   2.595  0.1219  1.2405  0.9913
  605MOL0     C81562  13.131  10.248   2.720 -0.1617 -0.6059 -0.4167
  605MOL0     C81563  13.284  10.273   2.739 -0.3815 -0.2968 -0.6947
  605MOL0     O81564  13.297  10.391   2.825 -0.5282 -0.1454  0.7376
  605MOL0     C81565  13.419  10.418   2.886 -0.5311  0.4980  0.1847
  605MOL0     C81566  13.537  10.352   2.850  0.0886 -0.0518 -0.5724
  605MOL0     C81567  13.657  10.389   2.914  0.4691  0.4539  0.5541
  605MOL0     C81568  13.659  10.494   3.011 -0.3480 -0.0970  0.3604
  605MOL0     C81569  13.783  10.541   3.074  0.2512 -0.1286 -0.6276
  605MOL0     O81570  13.775  10.642   3.168 -0.6912 -0.5032 -0.5675
  605MOL0     C81571  13.883  10.698   3.227 -0.4257  0.6689 -0.5544
  605MOL0     C81572  14.013  10.652   3.225 -0.8447 -0.8989  0.5166
  605MOL0     C81573  14.110  10.731   3.295  0.5367  0.0401 -0.3158
  605MOL0     C81574  14.076  10.850   3.369 -0.2901 -0.4535  0.1133
  605MOL0     O81575  14.168  10.912   3.443  0.3054  0.0193 -0.4235
  605MOL0     C81576  14.191  11.056   3.405 -0.1777  0.6199 -0.1077
  605MOL0     C81577  14.286  11.126   3.503  0.9975 -0.5655  0.4123
  605MOL0     C81578  14.302  11.268   3.456 -0.6539 -0.7329 -0.5329
  605MOL0     C81579  14.336  11.356   3.577 -1.6952  0.7900 -0.2595
  605MOL0     C81580  14.488  11.340   3.608  0.1794 -0.4065  0.4805
  605MOL0     C81581  14.571  11.445   3.525  0.2505 -0.1511 -0.4350
  605MOL0     C81582  14.722  11.425   3.542  0.2184  0.4240  0.1057
  605MOL0     C81583  14.800  11.533   3.459 -0.2521 -0.0349  0.8481
  605MOL0    Cl81584  14.791  11.682   3.559 -0.1367 -0.1959  0.2040
  605MOL0     C81585  13.950  10.898   3.359  0.0568  0.2877  0.2397
  605MOL0     C81586  13.852  10.821   3.293 -0.3949  0.3476 -0.6064
  605MOL0     O81587  13.887  10.485   3.034  0.4619 -0.2120  0.2283
  605MOL0     C81588  13.537  10.549   3.043 -0.2230  0.1643  0.1577
  605MOL0     C81589  13.421  10.513   2.985 -0.7104  0.2197 -0.5336
  605MOL0     N81590  13.030  10.120   2.330  0.0408  0.0537 -0.1997
  605MOL0     N81591  12.958  10.142   2.219 -1.1752  0.6787  0.0125
  605MOL0     C81592  11.737  10.728   1.638 -0.0176  0.2952 -0.0221
  605MOL0     C81593  11.622  10.818   1.636 -0.9615 -0.7264  0.1415
  605MOL0     C81594  11.269  11.046   1.673 -0.5355  0.3915 -0.7952
  605MOL0     C81595  11.164  10.994   1.609  0.1411  0.5876 -0.5797
  605MOL0     C81596  11.055  11.079   1.589  1.1445 -0.5967  0.6066
  605MOL0     C81597  11.059  11.213   1.614  0.7432  0.3281 -0.6109
  605MOL0     O81598  10.954  11.302   1.603 -0.0483  0.1089  1.2663
  605MOL0     C81599  10.858  11.290   1.704 -0.5987 -0.1001 -0.1120
  605MOL0     C81600  10.762  11.411   1.697 -0.1964 -0.3215  0.1744
  605MOL0     C81601  10.640  11.399   1.792 -0.0636  0.4381 -0.6329
  605MOL0     C81602  10.649  11.456   1.928 -1.2087 -0.2276 -0.2247
  605MOL0     C81603  10.754  11.401   2.017  0.8842 -0.0219 -0.2963
  605MOL0     C81604  10.835  11.365   2.100  0.2824  0.0878  0.4041
  605MOL0     C81605  11.168  11.266   1.675 -0.3616  0.4910 -0.4177
  605MOL0     C81606  11.282  11.179   1.708  0.5007 -0.2004  0.3067
  605MOL0     C81607  11.377  11.247   1.794  1.0304 -0.4468 -0.7219
  605MOL0     H81608  11.677  10.987   1.917 -0.9480  0.9474 -2.0206
  605MOL0     H81609  11.887  10.858   1.919  0.6913  3.0192 -2.6365
  605MOL0     H81610  12.078  10.723   1.904  1.2736 -0.3004  1.3037
  605MOL0     H81611  11.965  10.602   1.958  0.2014 -1.7119 -0.0240
  605MOL0     H81612  12.200  10.571   1.770 -1.3953  1.8004  0.6030
  605MOL0     H81613  12.090  10.440   1.820 -0.2259  0.4545 -0.5982
  605MOL0     H81614  12.143  10.515   2.067 -0.5531 -1.9708 -0.3013
  605MOL0     H81615  12.289  10.603   1.992  0.5815 -0.9344 -1.3561
  605MOL0     H81616  12.234  10.310   1.967  0.8605  0.1149 -0.2697
  605MOL0     H81617  12.347  10.399   1.878 -0.4467  1.1385  0.2053
  605MOL0     H81618  12.465  10.473   2.105 -1.3433  0.1692  0.3707
  605MOL0     H81619  12.354  10.372   2.182 -1.0951 -1.4891 -1.0321
  605MOL0     H81620  12.454  10.181   2.073 -2.7745  2.7995  1.7052
  605MOL0     H81621  12.557  10.271   1.969 -0.3701  0.6548 -0.8463
  605MOL0     H81622  12.578  10.238   2.278  1.5170 -1.6658  0.4993
  605MOL0     H81623  12.679  10.363   2.189 -1.9351  1.0815 -2.1741
  605MOL0     H81624  12.656  10.067   2.144  1.3205 -0.8849 -1.3930
  605MOL0     H81625  12.764  10.167   2.051  0.0583 -1.0457 -0.5341
  605MOL0     H81626  12.725  10.123   2.456 -0.6923  1.3613 -0.6565
  605MOL0     H81627  12.913  10.206   2.613  2.2455  0.5665  0.5678
  605MOL0     H81628  12.965  10.032   2.607 -0.0350 -0.2663 -1.7163
  605MOL0     H81629  13.174  10.076   2.600 -0.2566  1.0019  0.4207
  605MOL0     H81630  13.166  10.244   2.526 -1.2049  2.2300  1.1160
  605MOL0     H81631  13.076  10.197   2.801 -0.2537 -0.6166 -0.4852
  605MOL0     H81632  13.090  10.348   2.703  1.0272 -0.2356 -1.2013
  605MOL0     H81633  13.327  10.299   2.642 -2.0279 -1.4838 -1.7927
  605MOL0     H81634  13.346  10.189   2.774  1.3700  0.7935 -1.0502
  605MOL0     H81635  13.538  10.274   2.775 -0.2232  0.9134 -1.6052
  605MOL0     H81636  13.755  10.349   2.895 -0.5605 -2.0954  0.2519
  605MOL0     H81637  14.049  10.560   3.180 -1.0261 -0.1395 -1.2761
  605MOL0     H81638  14.211  10.692   3.301 -0.3147 -2.5776 -1.3702
  605MOL0     H81639  14.252  11.065   3.314  0.0431  2.0098  0.1667
  605MOL0     H81640  14.097  11.110   3.397 -0.5151  0.0991  0.2727
  605MOL0     H81641  14.225  11.136   3.593 -2.3035  1.0061 -1.8106
  605MOL0     H81642  14.378  11.068   3.512  2.0486  1.2679  2.4776
  605MOL0     H81643  14.388  11.265   3.388  1.0256  0.3420  1.4230
  605MOL0     H81644  14.217  11.317   3.406 -0.2386  2.2888  1.4623
  605MOL0     H81645  14.265  11.334   3.658 -2.6821  1.1286 -1.0091
  605MOL0     H81646  14.313  11.462   3.568  0.7065  1.4866  0.8473
  605MOL0     H81647  14.518  11.237   3.587  0.4300 -0.2173 -0.1106
  605MOL0     H81648  14.493  11.370   3.713 -0.6642 -1.8146  0.9522
  605MOL0     H81649  14.543  11.438   3.419  1.9294  1.8292 -1.0568
  605MOL0     H81650  14.550  11.546   3.560 -0.7543 -0.1872 -0.8899
  605MOL0     H81651  14.736  11.322   3.508 -4.1212  0.1426 -1.4913
  605MOL0     H81652  14.755  11.436   3.646  0.1875  0.2267  0.1369
  605MOL0     H81653  14.906  11.509   3.445 -0.5697 -0.6411 -0.7255
  605MOL0     H81654  14.747  11.556   3.367  0.3206  2.2752  1.0393
  605MOL0     H81655  13.927  10.992   3.407 -0.8564 -0.3620  1.1089
  605MOL0     H81656  13.748  10.853   3.290 -1.0836 -1.4490  1.5253
  605MOL0     H81657  13.530  10.616   3.128  0.6826 -0.5039  0.7749
  605MOL0     H81658  13.329  10.553   3.026 -1.5770 -1.6733 -0.5218
  605MOL0     H81659  11.756  10.649   1.567  1.4565 -0.7561  1.4672
  605MOL0     H81660  11.545  10.808   1.561  0.5746 -1.5962 -1.4182
  605MOL0     H81661  11.147  10.891   1.580 -2.7344  0.2105  1.8681
  605MOL0     H81662  10.967  11.033   1.545  2.0710 -1.6994 -0.1497
  605MOL0     H81663  10.908  11.289   1.801  0.5027  0.3209 -0.6656
  605MOL0     H81664  10.800  11.197   1.693  0.7369 -1.0291  0.4620
  605MOL0     H81665  10.730  11.425   1.594 -0.7566 -0.6603  0.2984
  605MOL0     H81666  10.816  11.505   1.716 -1.0799 -0.0248  1.3695
  605MOL0     H81667  10.597  11.299   1.799 -0.3865  0.3365 -3.2621
  605MOL0     H81668  10.563  11.464   1.750 -1.7777  0.1069  1.7969
  605MOL0     H81669  10.667  11.563   1.914 -0.3089 -0.6985 -3.3023
  605MOL0     H81670  10.551  11.445   1.976  0.0936 -0.5439  2.6024
  605MOL0     H81671  10.904  11.343   2.179  0.5797 -1.7860 -0.3195
  605MOL0     H81672  11.157  11.365   1.717  2.4017  0.7894 -0.2734
  605MOL0     H81673  11.445  11.190   1.858  3.2220  2.8773  0.1332
  605MOL0     H81674  11.437  11.313   1.730 -0.0004  0.1474 -1.0976
  605MOL0     H81675  11.323  11.312   1.862 -1.1537 -0.3893 -2.4007
  606MOL0     O81676   2.258   0.234   3.772 -0.2799  0.1955 -0.2147
  606MOL0     C81677   2.190   0.311   3.837 -0.8038  0.1194 -0.0122
  606MOL0     O81678   2.226   0.434   3.869  0.1462 -0.1566  0.0223
  606MOL0     C81679   2.358   0.482   3.852 -0.1508  0.0501 -0.1130
  606MOL0     C81680   2.472   0.408   3.872  0.7253  0.5557 -0.5961
  606MOL0     C81681   2.597   0.463   3.857 -0.2382 -0.5916  0.4779
  606MOL0     C81682   2.618   0.599   3.825 -0.0113  0.7521 -0.1506
  606MOL0     O81683   2.755   0.637   3.804 -0.5109 -0.5228 -0.5100
  606MOL0     C81684   2.780   0.758   3.729  0.9114 -0.0567 -0.3139
  606MOL0     C81685   2.913   0.807   3.780 -0.3398  0.0323 -0.1569
  606MOL0     C81686   3.024   0.703   3.757  0.3213 -0.7233  0.4944
  606MOL0     C81687   3.158   0.751   3.823 -0.9084 -0.1214 -0.3103
  606MOL0     C81688   3.266   0.638   3.819 -0.3917  0.4766 -0.4515
  606MOL0     C81689   3.373   0.670   3.924  0.3166  0.1335  0.5515
  606MOL0     C81690   3.486   0.569   3.900  0.2874 -0.3077  0.3969
  606MOL0     C81691   3.607   0.576   3.985 -0.2479 -0.6202 -0.4050
  606MOL0     N81692   3.706   0.476   3.946  0.0103  0.9625 -0.0565
  606MOL0     C81693   3.769   0.487   3.822  1.2066  0.2881  0.0220
  606MOL0     C81694   3.865   0.391   3.819 -0.1368 -0.8232  0.1188
  606MOL0     C81695   3.951   0.348   3.710 -0.0407 -0.1080  0.4797
  606MOL0     C81696   3.870   0.256   3.617 -0.2072 -0.0937  0.0367
  606MOL0     C81697   3.964   0.192   3.514 -0.3335 -0.3370  0.3350
  606MOL0     C81698   3.893   0.120   3.393 -0.4647  0.4977 -0.2403
  606MOL0     O81699   3.813   0.213   3.326 -0.3480 -0.7557 -0.4482
  606MOL0     C81700   3.720   0.177   3.242  0.6857 -0.2364  0.3964
  606MOL0     C81701   3.686   0.044   3.213 -0.0587 -0.0803 -0.5781
  606MOL0     C81702   3.575   0.013   3.135  0.9575 -0.7392  0.9191
  606MOL0     C81703   3.484   0.107   3.094 -0.1972  1.1196  0.4655
  606MOL0     C81704   3.356   0.075   3.035 -0.2226  0.1761 -0.4711
  606MOL0     O81705   3.326  -0.047   2.992 -0.5378  0.7436  0.2856
  606MOL0     C81706   3.205  -0.070   2.929 -0.0145 -0.0082  0.0544
  606MOL0     C81707   3.108  -0.127   3.011  0.4517  0.1339 -0.5999
  606MOL0     C81708   2.978  -0.128   2.965 -0.1811 -0.2022 -0.5572
  606MOL0     C81709   2.950  -0.077   2.841  0.1573  0.9196  0.8456
  606MOL0     O81710   2.812  -0.079   2.820 -0.3934 -0.4613 -0.4637
  606MOL0     C81711   2.753  -0.041   2.690 -0.1446 -0.2340 -0.2726
  606MOL0     C81712   2.609  -0.090   2.692  0.2182  0.4707  0.2880
  606MOL0     C81713   2.519   0.020   2.636  0.0382  0.5454 -0.2060
  606MOL0     C81714   2.370  -0.019   2.673 -0.0242  0.0637  0.2327
  606MOL0     C81715   2.275   0.090   2.623  1.0338 -0.5332 -0.0981
  606MOL0     C81716   2.130   0.059   2.653 -0.0552 -0.1414 -0.4775
  606MOL0     C81717   2.103   0.097   2.797  0.2656 -1.0320 -0.0201
  606MOL0     C81718   1.959   0.099   2.838 -0.0571 -0.1397  0.5052
  606MOL0    Cl81719   1.892  -0.062   2.859  0.5169  0.4978 -0.4834
  606MOL0     C81720   3.055  -0.043   2.747  0.3970  0.1448  0.7009
  606MOL0     C81721   3.181  -0.049   2.796  0.5427  0.1306  0.7548
  606MOL0     O81722   3.278   0.170   3.036  0.2035 -0.0371 -0.2645
  606MOL0     C81723   3.518   0.244   3.124  1.2287  0.0862 -0.4848
  606MOL0     C81724   3.630   0.274   3.200 -0.0467 -0.1381  0.4283
  606MOL0     N81725   3.857   0.332   3.944  0.6461  0.8623  0.2667
  606MOL0     N81726   3.770   0.382   4.015 -0.4532  0.5659 -0.6695
  606MOL0     C81727   2.506   0.669   3.804  0.5598 -0.6294 -0.3945
  606MOL0     C81728   2.377   0.617   3.823  0.4798  0.0648 -0.0401
  606MOL0     C81729   2.060   0.276   3.891  0.4138 -0.1382  0.0512
  606MOL0     C81730   1.989   0.370   3.977 -0.4266  0.2165  0.0905
  606MOL0     C81731   1.852   0.350   4.015 -0.1370  0.1236  0.1390
  606MOL0     C81732   1.788   0.238   3.971 -0.5448 -0.0262  0.4486
  606MOL0     O81733   1.668   0.201   4.010 -0.3090 -1.3395  0.4414
  606MOL0     C81734   1.577   0.300   4.060 -0.0358 -0.5344 -0.2091
  606MOL0     C81735   1.442   0.230   4.069  0.2580  0.5166  0.0132
  606MOL0     C81736   1.332   0.335   4.099 -0.6626  0.5373  0.1942
  606MOL0     C81737   1.193   0.278   4.084 -0.6320 -0.3463  0.3259
  606MOL0     C81738   1.089   0.379   4.078 -0.4192 -0.1840  1.1678
  606MOL0     C81739   1.001   0.469   4.072 -0.3882  0.7937 -0.3530
  606MOL0     C81740   1.851   0.150   3.885 -0.9086  0.4001  0.7792
  606MOL0     C81741   1.984   0.165   3.838  0.6221 -0.4259 -0.8503
  606MOL0     C81742   2.022   0.056   3.734  0.9965  0.3395 -0.5138
  606MOL0     H81743   2.454   0.307   3.905 -0.3365  1.7904  3.0260
  606MOL0     H81744   2.685   0.405   3.881  0.2522 -0.9056 -1.7845
  606MOL0     H81745   2.794   0.733   3.624  1.1746 -0.6497 -0.1410
  606MOL0     H81746   2.706   0.836   3.750  0.8211 -1.0163  3.8788
  606MOL0     H81747   2.892   0.826   3.886 -0.8873  1.4232 -0.4929
  606MOL0     H81748   2.946   0.905   3.744  0.3699  0.3299  1.2192
  606MOL0     H81749   3.040   0.690   3.650 -0.1283 -0.1889  0.3530
  606MOL0     H81750   3.000   0.604   3.795 -0.4950 -0.7525 -0.0903
  606MOL0     H81751   3.195   0.830   3.757 -3.2750  0.8561 -0.5595
  606MOL0     H81752   3.139   0.800   3.919 -1.8073 -0.6977 -0.1778
  606MOL0     H81753   3.233   0.537   3.846 -2.0224  1.1226  0.1175
  606MOL0     H81754   3.308   0.638   3.718 -0.6603  1.4356 -0.5817
  606MOL0     H81755   3.412   0.771   3.912 -0.0431  0.0943 -1.1039
  606MOL0     H81756   3.328   0.667   4.024 -1.1029  1.8556 -0.0001
  606MOL0     H81757   3.516   0.588   3.796 -0.7387  0.4866  0.2398
  606MOL0     H81758   3.450   0.465   3.901 -0.1104 -0.2035 -0.9897
  606MOL0     H81759   3.648   0.675   3.964  0.4317 -0.8216 -0.0766
  606MOL0     H81760   3.590   0.574   4.093  2.1498  2.2527  0.1741
  606MOL0     H81761   3.729   0.545   3.740 -0.3258 -0.9099 -0.1081
  606MOL0     H81762   4.003   0.429   3.657  1.4524 -0.1301  1.8207
  606MOL0     H81763   4.027   0.294   3.767 -2.7885 -2.4534  2.1746
  606MOL0     H81764   3.826   0.170   3.669  0.7006 -1.0084 -0.6548
  606MOL0     H81765   3.787   0.312   3.574 -1.8339 -1.6086  1.0283
  606MOL0     H81766   4.024   0.109   3.556  0.1358  0.0905  0.5234
  606MOL0     H81767   4.035   0.267   3.479  1.5894 -2.1012  0.2175
  606MOL0     H81768   3.832   0.037   3.429  1.1399 -0.2561  0.8784
  606MOL0     H81769   3.966   0.079   3.323 -0.9440 -3.0374  1.1238
  606MOL0     H81770   3.747  -0.037   3.251  0.8553  0.5666 -0.6417
  606MOL0     H81771   3.556  -0.087   3.098 -1.6873  0.4933 -1.4306
  606MOL0     H81772   3.148  -0.159   3.106  0.6782  3.4548  0.5474
  606MOL0     H81773   2.903  -0.166   3.033 -0.0037 -1.5728 -1.1086
  606MOL0     H81774   2.768   0.064   2.663 -0.2264 -0.9821 -3.7014
  606MOL0     H81775   2.800  -0.098   2.609  0.8291 -1.1383  0.9076
  606MOL0     H81776   2.587  -0.184   2.641 -1.6952  1.1831 -0.2731
  606MOL0     H81777   2.582  -0.114   2.795 -1.7189 -6.3933 -1.3095
  606MOL0     H81778   2.544   0.116   2.681  1.2829 -0.5905  1.6469
  606MOL0     H81779   2.522   0.020   2.526  1.8694  3.0692 -0.2405
  606MOL0     H81780   2.352  -0.011   2.780 -3.0851  0.8893 -0.2559
  606MOL0     H81781   2.345  -0.120   2.639 -1.4314  0.6787 -0.6382
  606MOL0     H81782   2.288   0.097   2.515 -0.9745 -2.4736 -0.5495
  606MOL0     H81783   2.296   0.188   2.666 -1.5751 -0.8236  2.1692
  606MOL0     H81784   2.059   0.119   2.595  0.9607 -1.2908 -3.0566
  606MOL0     H81785   2.116  -0.048   2.637  1.8663 -0.1170 -3.0264
  606MOL0     H81786   2.140   0.199   2.814  0.5492 -0.8949 -1.3455
  606MOL0     H81787   2.156   0.030   2.865  1.9051  1.8889  1.8056
  606MOL0     H81788   1.953   0.150   2.935 -0.4783  0.8155 -0.0105
  606MOL0     H81789   1.903   0.159   2.766  0.9691  1.1206  0.7283
  606MOL0     H81790   3.039   0.001   2.649  2.3085  1.8892  1.1125
  606MOL0     H81791   3.271  -0.024   2.741  1.1696 -1.7312  0.8454
  606MOL0     H81792   3.453   0.321   3.084  1.3304 -0.0222 -0.8626
  606MOL0     H81793   3.645   0.376   3.233 -1.3409  0.5186 -0.8920
  606MOL0     H81794   2.519   0.775   3.781 -2.4736 -0.5723 -2.4335
  606MOL0     H81795   2.299   0.692   3.809  1.1886  0.3267 -3.5279
  606MOL0     H81796   2.050   0.442   4.030 -1.5064  0.3773  1.1462
  606MOL0     H81797   1.807   0.427   4.077  1.6141  1.6374 -0.3819
  606MOL0     H81798   1.577   0.390   3.999 -1.0144  0.4192  1.1337
  606MOL0     H81799   1.602   0.325   4.163 -1.8321 -0.4133  0.2445
  606MOL0     H81800   1.438   0.148   4.141  2.6308  1.6538  1.5556
  606MOL0     H81801   1.427   0.192   3.968  1.3448 -0.2980  0.1421
  606MOL0     H81802   1.348   0.408   4.019  0.2460  1.7143  1.4029
  606MOL0     H81803   1.355   0.369   4.200 -2.1855  0.8941  0.4388
  606MOL0     H81804   1.203   0.208   4.001  0.0929  2.1623 -1.8588
  606MOL0     H81805   1.190   0.228   4.181  3.3314 -0.4723  0.5362
  606MOL0     H81806   0.925   0.543   4.059 -0.9107  0.1832 -0.8976
  606MOL0     H81807   1.795   0.071   3.836 -3.0620  2.3214 -0.0198
  606MOL0     H81808   2.078  -0.019   3.790 -0.7986  0.2685  1.3107
  606MOL0     H81809   1.934   0.008   3.690 -1.0617  3.5246 -0.2213
  606MOL0     H81810   2.082   0.090   3.649 -2.0244  0.0088 -2.9801
  607MOL0     O81811   4.654   3.101   0.124  0.1967 -0.4826  0.5626
  607MOL0     C81812   4.632   3.172   0.022 -0.0808  0.2522 -0.3501
  607MOL0     O81813   4.722   3.236  -0.058 -0.9259 -0.5041  0.5600
  607MOL0     C81814   4.852   3.236  -0.009 -0.6122  0.2188 -0.8299
  607MOL0     C81815   4.911   3.255   0.121  0.0401 -0.5359  0.7121
  607MOL0     C81816   5.049   3.260   0.140 -0.1412 -0.1466  0.2842
  607MOL0     C81817   5.133   3.243   0.034 -0.2496 -0.3975 -0.1327
  607MOL0     O81818   5.270   3.259   0.038 -0.5938 -0.2237 -0.0785
  607MOL0     C81819   5.328   3.316   0.158  0.6137 -1.0627  0.2215
  607MOL0     C81820   5.486   3.332   0.139  0.7930  0.8329 -0.4585
  607MOL0     C81821   5.553   3.322   0.278  0.0027 -0.6094 -0.1907
  607MOL0     C81822   5.701   3.363   0.285  0.1790 -0.6382  0.1962
  607MOL0     C81823   5.748   3.374   0.430  0.8593 -0.0762  0.2097
  607MOL0     C81824   5.762   3.238   0.501  0.4526  0.1005  0.7016
  607MOL0     C81825   5.863   3.246   0.613  0.3691  0.1666  0.0310
  607MOL0     C81826   5.888   3.113   0.693  0.5375  0.0228  0.7890
  607MOL0     N81827   6.001   3.143   0.784 -0.4093  0.2661  0.0716
  607MOL0     C81828   5.990   3.205   0.904  0.0173 -0.3363 -0.0070
  607MOL0     C81829   6.119   3.240   0.939  0.7098  0.0631 -0.1015
  607MOL0     C81830   6.159   3.300   1.072 -0.1927 -0.3178  0.1749
  607MOL0     C81831   6.309   3.325   1.083 -0.2974 -0.1691  0.5698
  607MOL0     C81832   6.342   3.398   1.220  0.7700  0.7204 -0.4373
  607MOL0     C81833   6.486   3.452   1.235 -0.0011  0.1514 -0.2655
  607MOL0     O81834   6.534   3.446   1.372  0.0015 -0.5714 -0.0358
  607MOL0     C81835   6.664   3.483   1.400  0.1654  0.5317 -0.3150
  607MOL0     C81836   6.749   3.384   1.456 -1.0130 -0.3149  1.7583
  607MOL0     C81837   6.875   3.427   1.496  0.1209 -0.3339 -1.2515
  607MOL0     C81838   6.920   3.557   1.479 -0.7864  0.5600 -0.6173
  607MOL0     C81839   7.058   3.604   1.505  0.0529 -0.1247 -0.0549
  607MOL0     O81840   7.141   3.511   1.556  0.0409  0.4981  0.6471
  607MOL0     C81841   7.271   3.541   1.587 -0.0771 -0.1063 -0.2318
  607MOL0     C81842   7.323   3.667   1.635  0.4234  0.0757  0.7609
  607MOL0     C81843   7.451   3.688   1.681 -0.3655 -0.9608  0.7298
  607MOL0     C81844   7.543   3.574   1.671 -0.3246  0.0469  0.4052
  607MOL0     O81845   7.674   3.578   1.727  0.1105 -0.2635 -0.0549
  607MOL0     C81846   7.734   3.707   1.728  1.1931 -1.0199 -0.0282
  607MOL0     C81847   7.888   3.687   1.710  0.2976 -0.6677 -0.3157
  607MOL0     C81848   7.957   3.819   1.733 -1.1448  0.4349 -0.0003
  607MOL0     C81849   8.107   3.804   1.735 -0.6088 -0.6525  0.5523
  607MOL0     C81850   8.174   3.767   1.598  0.5399 -0.9072 -1.5581
  607MOL0     C81851   8.172   3.872   1.486 -0.3921  0.5800 -0.4930
  607MOL0     C81852   8.286   3.854   1.380 -0.1419 -0.5440 -0.3832
  607MOL0     C81853   8.432   3.845   1.429 -0.6638 -0.0901  0.0399
  607MOL0    Cl81854   8.473   3.980   1.536 -0.0837  0.0214  0.2285
  607MOL0     C81855   7.488   3.445   1.631  0.0339 -0.5187 -0.2972
  607MOL0     C81856   7.356   3.438   1.593  0.4886  1.2461  0.7976
  607MOL0     O81857   7.081   3.723   1.482  0.7460  0.3029 -0.4447
  607MOL0     C81858   6.833   3.648   1.419  0.2508  0.4574 -0.4052
  607MOL0     C81859   6.709   3.612   1.379  0.7193  0.0231  0.1831
  607MOL0     N81860   6.198   3.208   0.834 -0.0232  0.1157  0.2207
  607MOL0     N81861   6.135   3.147   0.743 -0.1804 -0.8033 -0.1678
  607MOL0     C81862   5.074   3.205  -0.090 -0.3629 -0.2825  0.6466
  607MOL0     C81863   4.940   3.198  -0.111  0.5348 -0.0758  1.0880
  607MOL0     C81864   4.486   3.178  -0.021 -0.1036  0.8908 -0.5812
  607MOL0     C81865   4.469   3.202  -0.163 -1.0049 -0.2628 -0.7437
  607MOL0     C81866   4.345   3.210  -0.213 -0.1525  0.4238 -0.2164
  607MOL0     C81867   4.233   3.187  -0.137  0.5687 -1.0954  0.0118
  607MOL0     O81868   4.104   3.200  -0.186  0.5973  0.2227 -0.1585
  607MOL0     C81869   4.087   3.192  -0.329 -0.0033  0.2785  0.0941
  607MOL0     C81870   3.936   3.171  -0.345  0.2558 -0.1377  1.0304
  607MOL0     C81871   3.897   3.114  -0.487 -0.0002 -0.1440 -0.1685
  607MOL0     C81872   3.749   3.152  -0.512 -0.4669 -0.2835 -0.2633
  607MOL0     C81873   3.690   3.085  -0.629  1.1232 -0.6161 -0.5173
  607MOL0     C81874   3.636   3.031  -0.722 -0.2720  0.0133 -0.5226
  607MOL0     C81875   4.252   3.155  -0.003 -0.5016 -0.2874  0.1807
  607MOL0     C81876   4.372   3.150   0.055 -0.7619  0.0682 -0.7706
  607MOL0     C81877   4.376   3.114   0.206  0.3570 -0.4398 -0.2098
  607MOL0     H81878   4.838   3.278   0.198 -2.1707 -0.7001 -1.2051
  607MOL0     H81879   5.084   3.289   0.239  0.2514 -0.4668  0.2371
  607MOL0     H81880   5.284   3.415   0.175 -1.4693 -1.7470 -0.8394
  607MOL0     H81881   5.311   3.244   0.239  0.5997 -1.2940  0.0138
  607MOL0     H81882   5.509   3.426   0.088 -4.4497  3.6094  1.4360
  607MOL0     H81883   5.509   3.243   0.080 -0.8633 -0.9961  1.4843
  607MOL0     H81884   5.536   3.225   0.325 -3.9515  0.4573  0.9986
  607MOL0     H81885   5.496   3.390   0.342 -0.6893  0.8595 -2.2605
  607MOL0     H81886   5.764   3.290   0.233  1.2812 -1.9926  3.1427
  607MOL0     H81887   5.716   3.464   0.247  1.7738 -0.5121  1.0308
  607MOL0     H81888   5.846   3.424   0.433  0.8531 -0.1048  0.8488
  607MOL0     H81889   5.684   3.444   0.483  1.4087  1.5677 -1.1878
  607MOL0     H81890   5.663   3.199   0.528 -0.0131 -0.6395 -1.8333
  607MOL0     H81891   5.806   3.170   0.428  4.5743  3.5756 -0.4393
  607MOL0     H81892   5.826   3.322   0.683  1.3057 -0.7133  1.5471
  607MOL0     H81893   5.960   3.268   0.569  0.7584 -3.0219 -1.0073
  607MOL0     H81894   5.800   3.085   0.751 -0.8360  0.2285 -1.1058
  607MOL0     H81895   5.920   3.042   0.616  1.7572  2.3303 -0.9484
  607MOL0     H81896   5.896   3.218   0.957  1.6020  0.1283  2.8795
  607MOL0     H81897   6.094   3.386   1.090 -1.3627 -1.4385  1.6029
  607MOL0     H81898   6.129   3.243   1.161 -2.4666  1.4858  0.6380
  607MOL0     H81899   6.368   3.237   1.057 -1.7663 -1.2652  0.8459
  607MOL0     H81900   6.328   3.401   1.006 -1.2466  0.7380  1.2066
  607MOL0     H81901   6.321   3.345   1.313  2.5833  2.3629  0.9752
  607MOL0     H81902   6.272   3.482   1.226  0.0630  0.1364 -0.2920
  607MOL0     H81903   6.477   3.554   1.197 -2.9627 -0.5642 -1.8458
  607MOL0     H81904   6.559   3.395   1.179  1.6983 -0.3174  2.2431
  607MOL0     H81905   6.726   3.278   1.465  1.9195 -1.0045  2.4340
  607MOL0     H81906   6.943   3.359   1.545 -0.8757 -0.1028  0.5651
  607MOL0     H81907   7.252   3.749   1.637 -1.1560 -1.1963 -0.2931
  607MOL0     H81908   7.486   3.789   1.703  3.8063 -2.5962  2.6947
  607MOL0     H81909   7.681   3.778   1.663  1.5429  1.3232  2.1046
  607MOL0     H81910   7.722   3.743   1.830  0.7688 -1.5925  0.1282
  607MOL0     H81911   7.915   3.623   1.795  0.7955  1.9495  1.6390
  607MOL0     H81912   7.901   3.635   1.615 -0.7406 -1.2948 -0.1279
  607MOL0     H81913   7.932   3.889   1.653 -1.1528  2.7850  1.9353
  607MOL0     H81914   7.928   3.868   1.827 -0.7856  0.9403 -0.1486
  607MOL0     H81915   8.132   3.716   1.796  1.5690 -0.6365 -0.2281
  607MOL0     H81916   8.150   3.893   1.780  0.9517 -0.9538 -0.2823
  607MOL0     H81917   8.127   3.672   1.573  0.1204 -1.7410  1.8252
  607MOL0     H81918   8.272   3.749   1.645 -1.2997 -2.0793  2.2894
  607MOL0     H81919   8.074   3.865   1.439  0.9582  0.0970 -3.4994
  607MOL0     H81920   8.180   3.971   1.531  0.4584 -0.3693  1.5747
  607MOL0     H81921   8.279   3.935   1.306 -1.0839 -1.8698 -1.7965
  607MOL0     H81922   8.264   3.763   1.324  0.1309  0.8156 -2.8644
  607MOL0     H81923   8.455   3.751   1.480  2.2072  0.0223 -0.8890
  607MOL0     H81924   8.495   3.842   1.340 -0.5048  3.2068 -0.1166
  607MOL0     H81925   7.558   3.363   1.616 -2.6236 -2.9127 -0.5491
  607MOL0     H81926   7.310   3.351   1.548  0.7218  1.8072 -0.5632
  607MOL0     H81927   6.873   3.746   1.394  0.8443  0.5205  0.7414
  607MOL0     H81928   6.634   3.678   1.337  1.5797  0.0911 -1.3255
  607MOL0     H81929   5.146   3.175  -0.166  1.3149  1.6010  1.3819
  607MOL0     H81930   4.913   3.157  -0.207  1.6693 -1.8733  1.4799
  607MOL0     H81931   4.556   3.217  -0.227 -1.8599 -0.0607 -1.8819
  607MOL0     H81932   4.348   3.222  -0.321  1.0792 -1.2356 -0.4180
  607MOL0     H81933   4.138   3.101  -0.362 -0.9395 -2.2566  4.7770
  607MOL0     H81934   4.114   3.283  -0.382 -0.0927 -0.4960 -1.3336
  607MOL0     H81935   3.872   3.259  -0.333 -1.3328 -1.2202  0.7929
  607MOL0     H81936   3.901   3.098  -0.271 -1.7121  0.1688  0.4548
  607MOL0     H81937   3.911   3.005  -0.486  2.5519 -0.0038  4.0469
  607MOL0     H81938   3.967   3.158  -0.560 -0.5167  1.5395  0.3158
  607MOL0     H81939   3.688   3.140  -0.422  0.6771 -0.5495  0.4866
  607MOL0     H81940   3.748   3.260  -0.531 -0.1415 -0.4407 -1.2371
  607MOL0     H81941   3.602   2.974  -0.806 -1.1640  1.2057 -0.9945
  607MOL0     H81942   4.164   3.120   0.051 -0.9650  0.2655 -0.2075
  607MOL0     H81943   4.412   3.011   0.210  0.4166 -0.4094  0.0504
  607MOL0     H81944   4.443   3.187   0.254  0.6562 -1.2310  0.6013
  607MOL0     H81945   4.272   3.119   0.240  0.0902 -2.0708 -0.7148
  608MOL0     O81946   9.998   3.649   3.599  0.0607  0.1172 -0.0715
  608MOL0     C81947   9.957   3.615   3.706 -1.0313 -0.7970 -0.7353
  608MOL0     O81948  10.012   3.665   3.823  0.4022  0.6979  0.4831
  608MOL0     C81949  10.150   3.694   3.811  1.0630  0.1765  1.1178
  608MOL0     C81950  10.249   3.601   3.806 -0.2681  0.6069 -1.1022
  608MOL0     C81951  10.384   3.635   3.801 -0.6689 -0.8660 -0.6010
  608MOL0     C81952  10.422   3.777   3.824  0.6866 -0.0197 -0.6962
  608MOL0     O81953  10.539   3.839   3.813 -0.2358  0.2916  0.5562
  608MOL0     C81954  10.635   3.772   3.736  0.7168  1.1115 -0.3600
  608MOL0     C81955  10.766   3.851   3.732  1.2836  0.1823  0.3235
  608MOL0     C81956  10.739   3.995   3.698  0.0556 -0.6718 -0.2116
  608MOL0     C81957  10.872   4.069   3.705 -0.2203 -0.1596 -0.2300
  608MOL0     C81958  10.868   4.217   3.655  0.3382 -0.1021 -0.1336
  608MOL0     C81959  10.792   4.313   3.742  0.0771  0.0295 -0.5718
  608MOL0     C81960  10.641   4.332   3.709  0.3434  0.7148  0.7856
  608MOL0     C81961  10.567   4.423   3.807  0.7247  0.7833 -0.0155
  608MOL0     N81962  10.422   4.436   3.778  0.1859  0.2207 -0.5477
  608MOL0     C81963  10.334   4.335   3.799  0.2537 -0.1516  0.3159
  608MOL0     C81964  10.218   4.393   3.844  0.8107  0.6167 -0.3511
  608MOL0     C81965  10.081   4.323   3.874 -0.0322  0.4263 -0.4192
  608MOL0     C81966  10.079   4.205   3.983 -0.1725 -0.3331 -0.1150
  608MOL0     C81967  10.144   4.245   4.127 -0.4195  0.2022 -0.3358
  608MOL0     C81968  10.298   4.280   4.137  0.4246  0.0366  0.4971
  608MOL0     O81969  10.364   4.173   4.076 -0.3460  0.1110  0.4822
  608MOL0     C81970  10.499   4.178   4.097 -0.3660  0.2601 -0.4611
  608MOL0     C81971  10.572   4.066   4.049  0.5120  0.3845 -0.5192
  608MOL0     C81972  10.708   4.067   4.051  0.0188  0.2908 -0.4308
  608MOL0     C81973  10.785   4.175   4.109  0.0559 -0.4356 -0.7372
  608MOL0     C81974  10.930   4.179   4.106 -0.1636  0.0228  0.0332
  608MOL0     O81975  10.985   4.262   4.200 -0.0628 -0.1895  0.6976
  608MOL0     C81976  11.113   4.311   4.181 -0.4762 -0.2133  0.3123
  608MOL0     C81977  11.171   4.327   4.058  0.2177  0.1182  0.1281
  608MOL0     C81978  11.292   4.400   4.043  0.5389  0.4532 -0.2467
  608MOL0     C81979  11.368   4.435   4.156  1.1432  1.2580 -0.2941
  608MOL0     O81980  11.495   4.486   4.148 -0.2460  0.0067  0.7791
  608MOL0     C81981  11.593   4.424   4.059  0.6876 -0.7895 -0.5685
  608MOL0     C81982  11.613   4.273   4.091 -0.3751 -0.0527 -0.2192
  608MOL0     C81983  11.738   4.258   4.175  0.3754 -0.0202 -0.9898
  608MOL0     C81984  11.858   4.256   4.074  0.0822 -0.0234  0.4158
  608MOL0     C81985  11.993   4.244   4.142  0.1502 -0.8536  0.3167
  608MOL0     C81986  12.044   4.099   4.174  0.0127  0.3529  0.5390
  608MOL0     C81987  12.188   4.132   4.229  0.5814  0.4578  0.0470
  608MOL0     C81988  12.278   4.013   4.267  0.5291 -0.6975  0.4341
  608MOL0    Cl81989  12.427   4.082   4.327  0.2385 -0.2510  0.2156
  608MOL0     C81990  11.312   4.409   4.280  0.3554  0.5250 -0.9924
  608MOL0     C81991  11.188   4.348   4.291 -0.5250 -0.1788  0.5520
  608MOL0     O81992  10.991   4.093   4.050 -0.2203 -0.1112  0.3982
  608MOL0     C81993  10.711   4.285   4.160 -0.7514 -0.2499 -0.3888
  608MOL0     C81994  10.579   4.275   4.157  0.6231  0.0191 -0.1098
  608MOL0     N81995  10.238   4.532   3.844  0.6688  0.5414  0.7068
  608MOL0     N81996  10.354   4.552   3.800 -0.3090 -0.7710  0.8047
  608MOL0     C81997  10.315   3.866   3.833 -0.5143 -0.9049  0.1036
  608MOL0     C81998  10.187   3.831   3.825  1.4874  0.5561 -0.1907
  608MOL0     C81999   9.835   3.542   3.704  0.0075 -0.3977 -0.0784
  608MOL0     C82000   9.787   3.477   3.584  0.3887 -0.8379  0.0432
  608MOL0     C82001   9.668   3.413   3.582 -0.2657  0.3112 -0.3338
  608MOL0     C82002   9.586   3.399   3.694  0.8184 -0.0583  0.0836
  608MOL0     O82003   9.475   3.312   3.684  0.0545 -0.1747  0.7043
  608MOL0     C82004   9.364   3.369   3.741 -0.0174 -0.1721 -0.1744
  608MOL0     C82005   9.229   3.338   3.669 -0.1090  1.1824  0.0727
  608MOL0     C82006   9.241   3.372   3.514 -0.4540  0.0206  0.6971
  608MOL0     C82007   9.265   3.530   3.501  0.8853  0.2968 -0.4159
  608MOL0     C82008   9.215   3.568   3.372  0.0111  0.6755  0.2442
  608MOL0     C82009   9.173   3.591   3.260  1.1514 -0.5653  0.2205
  608MOL0     C82010   9.632   3.451   3.813 -0.3486  0.9749 -0.7135
  608MOL0     C82011   9.755   3.522   3.818  0.1101  1.0041 -0.6893
  608MOL0     C82012   9.781   3.587   3.952 -0.5043 -0.4986 -0.9705
  608MOL0     H82013  10.231   3.494   3.809 -0.2220  0.5876 -1.4667
  608MOL0     H82014  10.456   3.553   3.797  1.6824  1.0130  0.6239
  608MOL0     H82015  10.655   3.676   3.785 -0.8878  0.6602 -0.5442
  608MOL0     H82016  10.604   3.752   3.633 -1.4747 -0.2999  0.5131
  608MOL0     H82017  10.836   3.803   3.663  0.9819 -0.4431  0.4434
  608MOL0     H82018  10.813   3.833   3.829  1.0426 -2.4978  0.0250
  608MOL0     H82019  10.670   4.039   3.771  1.9985  0.8135  0.7994
  608MOL0     H82020  10.695   3.987   3.598  0.9736 -1.6015 -0.5546
  608MOL0     H82021  10.916   4.073   3.804  2.2286 -0.5733 -1.2445
  608MOL0     H82022  10.943   4.021   3.637 -0.7201 -1.6213  0.2484
  608MOL0     H82023  10.973   4.246   3.665  0.0309  1.1936 -0.4737
  608MOL0     H82024  10.850   4.243   3.550  0.5899  4.9131  0.8266
  608MOL0     H82025  10.808   4.283   3.846  2.3182  0.2775 -0.7996
  608MOL0     H82026  10.847   4.407   3.750  0.4560 -0.3070  1.1880
  608MOL0     H82027  10.592   4.235   3.709  3.7119 -1.1371  1.5679
  608MOL0     H82028  10.623   4.386   3.615  1.0530  1.3345  0.9911
  608MOL0     H82029  10.562   4.382   3.909 -1.8449  1.7105  0.2876
  608MOL0     H82030  10.607   4.524   3.793 -0.0993  0.9158 -1.5171
  608MOL0     H82031  10.350   4.231   3.771 -1.0413 -0.6101  1.1806
  608MOL0     H82032  10.008   4.397   3.909 -0.2602  0.7429 -1.4987
  608MOL0     H82033  10.042   4.281   3.780 -2.8082  1.5547  0.1312
  608MOL0     H82034   9.984   4.150   3.987 -0.0717 -1.0246 -3.8400
  608MOL0     H82035  10.144   4.128   3.940 -0.8100 -1.4311  0.8196
  608MOL0     H82036  10.124   4.158   4.190  2.1701 -0.8710 -0.8666
  608MOL0     H82037  10.090   4.327   4.176  0.0857 -0.6243  1.7000
  608MOL0     H82038  10.332   4.295   4.240  1.4163 -0.1416  0.2080
  608MOL0     H82039  10.324   4.367   4.077  1.3214  1.0213  2.2467
  608MOL0     H82040  10.516   3.980   4.014 -0.3370 -0.3722  2.3515
  608MOL0     H82041  10.752   3.981   4.001  0.5191  1.4807 -2.1639
  608MOL0     H82042  11.126   4.301   3.963 -0.3896  2.4707 -0.2813
  608MOL0     H82043  11.338   4.414   3.946  4.4224  1.8741  1.6079
  608MOL0     H82044  11.551   4.435   3.959 -0.3790  1.0856  0.0385
  608MOL0     H82045  11.685   4.484   4.070 -0.1430  0.1944  1.6264
  608MOL0     H82046  11.525   4.245   4.149  0.9142 -0.2972  1.6832
  608MOL0     H82047  11.617   4.206   4.004 -1.3331  2.5118 -2.3680
  608MOL0     H82048  11.743   4.332   4.255 -1.0305 -1.1212  0.1600
  608MOL0     H82049  11.726   4.164   4.230 -0.5704  1.7912  2.1327
  608MOL0     H82050  11.855   4.347   4.014 -1.3802  0.0344  0.5344
  608MOL0     H82051  11.849   4.169   4.008  4.4643 -2.3031  2.3980
  608MOL0     H82052  11.984   4.317   4.223  2.2867 -0.1337 -0.0307
  608MOL0     H82053  12.062   4.278   4.065 -0.0238  0.1313  0.5817
  608MOL0     H82054  11.977   4.048   4.243  2.7669 -1.6549  1.9294
  608MOL0     H82055  12.050   4.036   4.084 -0.2114  0.5979  0.3508
  608MOL0     H82056  12.172   4.190   4.320 -3.3967  0.5199 -0.5284
  608MOL0     H82057  12.250   4.186   4.157  2.4012 -2.1327 -0.4771
  608MOL0     H82058  12.219   3.950   4.334 -0.6226  1.4336  1.5598
  608MOL0     H82059  12.290   3.969   4.168  0.9916  0.3324  0.0221
  608MOL0     H82060  11.379   4.430   4.362  1.3473  2.2692 -2.1923
  608MOL0     H82061  11.139   4.330   4.386 -2.8481 -0.4082 -0.6236
  608MOL0     H82062  10.757   4.371   4.207  0.3251 -1.7121  1.3637
  608MOL0     H82063  10.532   4.370   4.181  0.6411  0.4464 -1.6473
  608MOL0     H82064  10.336   3.973   3.832 -1.2984 -0.7417 -0.8822
  608MOL0     H82065  10.110   3.906   3.837 -0.5978 -1.5570  0.4447
  608MOL0     H82066   9.847   3.473   3.494  1.5980  0.6874  0.7375
  608MOL0     H82067   9.630   3.365   3.493 -2.0056  0.6634  0.1936
  608MOL0     H82068   9.371   3.478   3.748 -3.2518  0.1991 -1.2717
  608MOL0     H82069   9.367   3.329   3.843 -0.3228  0.0506 -0.0753
  608MOL0     H82070   9.141   3.388   3.710 -2.1121 -3.4472  2.1469
  608MOL0     H82071   9.211   3.230   3.669 -1.4866  1.3883 -1.0717
  608MOL0     H82072   9.150   3.343   3.461 -1.0109  1.9162  0.5340
  608MOL0     H82073   9.326   3.320   3.469 -1.5151  0.7307 -2.3362
  608MOL0     H82074   9.204   3.597   3.562  1.7092 -1.0470  2.0308
  608MOL0     H82075   9.371   3.551   3.513  1.7273 -3.8501  1.4501
  608MOL0     H82076   9.129   3.612   3.165  0.3661 -0.1090  0.6609
  608MOL0     H82077   9.571   3.447   3.903  1.8694  0.4940  0.8498
  608MOL0     H82078   9.790   3.696   3.945  3.1867 -0.5269  0.9533
  608MOL0     H82079   9.703   3.569   4.026  0.2405 -0.5575 -0.1787
  608MOL0     H82080   9.877   3.550   3.988  0.5404  3.2320  0.5590
  609MOL0     O82081   1.158   1.679  10.622  0.0721  0.1661  0.2374
  609MOL0     C82082   1.120   1.571  10.555 -0.8922  0.0692 -0.1371
  609MOL0     O82083   1.193   1.513  10.462 -0.1572  0.1593 -0.5909
  609MOL0     C82084   1.323   1.522  10.429 -0.2199 -0.1761  0.2943
  609MOL0     C82085   1.355   1.441  10.315  0.7009  0.1148  0.2363
  609MOL0     C82086   1.474   1.465  10.241 -0.6938  0.3741 -0.7968
  609MOL0     C82087   1.577   1.551  10.298  0.1726  0.3554  0.1108
  609MOL0     O82088   1.706   1.557  10.251  0.1410  0.6971 -0.2935
  609MOL0     C82089   1.754   1.471  10.145  0.5169  0.6107  0.1548
  609MOL0     C82090   1.736   1.538  10.013 -0.2281 -0.0626  0.9906
  609MOL0     C82091   1.814   1.461   9.909 -0.6502  0.2495 -0.3394
  609MOL0     C82092   1.838   1.538   9.775  0.9599  0.2605 -0.1969
  609MOL0     C82093   1.917   1.448   9.686  0.1537  0.1921 -0.1836
  609MOL0     C82094   1.963   1.523   9.573  0.9774 -0.6472 -0.0898
  609MOL0     C82095   2.035   1.433   9.474  0.6130  0.1393  0.4831
  609MOL0     C82096   2.092   1.522   9.355  0.8804  0.2349 -0.3039
  609MOL0     N82097   2.172   1.448   9.265 -0.0313 -0.3136  0.0510
  609MOL0     C82098   2.157   1.434   9.131  0.8959 -0.7375  0.2188
  609MOL0     C82099   2.262   1.366   9.088  0.2614  0.0776 -0.6379
  609MOL0     C82100   2.290   1.323   8.945 -0.0121  0.1379 -0.8817
  609MOL0     C82101   2.338   1.446   8.870 -0.1555  0.7756  0.6755
  609MOL0     C82102   2.484   1.487   8.901  0.5286  1.1174  0.0646
  609MOL0     C82103   2.509   1.639   8.869 -0.6789 -0.0953  0.0626
  609MOL0     O82104   2.542   1.647   8.727 -0.5925 -0.5528  0.3068
  609MOL0     C82105   2.676   1.658   8.680 -0.3241  0.0844 -0.3615
  609MOL0     C82106   2.699   1.618   8.538 -0.0000 -0.4879 -0.4214
  609MOL0     C82107   2.824   1.648   8.479  0.0670  0.8284 -1.1528
  609MOL0     C82108   2.928   1.701   8.559 -1.3788  0.1703 -0.0801
  609MOL0     C82109   3.063   1.733   8.491  0.1959  0.0132 -0.2288
  609MOL0     O82110   3.165   1.763   8.571 -0.0473 -0.1773 -0.6455
  609MOL0     C82111   3.285   1.814   8.525 -0.2221 -0.4022 -0.2272
  609MOL0     C82112   3.406   1.770   8.578  0.3344  0.5608 -0.7479
  609MOL0     C82113   3.524   1.823   8.540  0.1995 -0.3277  0.9022
  609MOL0     C82114   3.526   1.931   8.451 -0.5886 -0.0738 -0.4866
  609MOL0     O82115   3.651   1.971   8.408  0.6450  0.0475 -0.4652
  609MOL0     C82116   3.667   2.083   8.327  0.5407  0.0426  0.1897
  609MOL0     C82117   3.824   2.080   8.285  0.2651 -0.3957 -0.4948
  609MOL0     C82118   3.870   1.950   8.222 -0.4376  0.4739 -0.3190
  609MOL0     C82119   4.019   1.960   8.191 -0.6348  0.8293 -0.3796
  609MOL0     C82120   4.113   1.936   8.308  0.0002 -0.2617  0.1050
  609MOL0     C82121   4.257   1.969   8.263 -0.1603  0.0243 -0.3609
  609MOL0     C82122   4.370   1.959   8.369  1.0167 -0.3327 -0.0286
  609MOL0     C82123   4.514   1.979   8.312  0.3266 -0.7449 -0.0578
  609MOL0    Cl82124   4.577   1.832   8.222 -0.2694  0.2002  0.5308
  609MOL0     C82125   3.403   1.976   8.411 -1.0071  0.2831 -0.7060
  609MOL0     C82126   3.283   1.923   8.438 -0.3352  0.1374 -0.7148
  609MOL0     O82127   3.066   1.745   8.373  0.3893 -0.0056  0.5638
  609MOL0     C82128   2.898   1.746   8.692 -0.8622  0.4818 -0.2085
  609MOL0     C82129   2.776   1.721   8.748  0.1178  0.4831 -0.1149
  609MOL0     N82130   2.342   1.329   9.203  0.6661  0.1757  0.4373
  609MOL0     N82131   2.284   1.379   9.304 -0.6786 -0.2115 -1.4582
  609MOL0     C82132   1.550   1.615  10.423  0.7341  0.2735 -0.6675
  609MOL0     C82133   1.421   1.612  10.474  0.8149  0.0883  0.2509
  609MOL0     C82134   0.983   1.515  10.580 -0.4509  0.7024 -0.2114
  609MOL0     C82135   0.956   1.383  10.529 -0.6117  0.7243  0.2922
  609MOL0     C82136   0.837   1.307  10.563 -0.1854  1.0497 -1.0772
  609MOL0     C82137   0.741   1.362  10.649 -0.0593 -0.6553  0.4887
  609MOL0     O82138   0.647   1.299  10.720 -0.0181  0.1696  0.3504
  609MOL0     C82139   0.625   1.160  10.690  0.4706  0.1152  0.2207
  609MOL0     C82140   0.478   1.136  10.719 -0.4326  0.0507  0.5635
  609MOL0     C82141   0.452   0.993  10.667  0.7745  0.4895  0.2900
  609MOL0     C82142   0.300   0.975  10.680  0.9803  0.3661  0.5588
  609MOL0     C82143   0.275   0.992  10.825  0.1754  0.1162  0.7514
  609MOL0     C82144   0.222   0.998  10.937  1.2908 -0.5786  1.2318
  609MOL0     C82145   0.756   1.496  10.689 -1.1214  0.2129  0.0052
  609MOL0     C82146   0.871   1.576  10.649  0.5720  0.2795  0.2944
  609MOL0     C82147   0.868   1.723  10.696  0.1079  0.4342 -0.3607
  609MOL0     H82148   1.279   1.371  10.280  1.2120  0.9488 -2.8588
  609MOL0     H82149   1.480   1.410  10.147 -0.6458 -4.2074  1.5823
  609MOL0     H82150   1.856   1.443  10.170 -0.1230 -0.8685  1.2760
  609MOL0     H82151   1.704   1.374  10.149  0.9885  0.2926 -1.1551
  609MOL0     H82152   1.776   1.639  10.026  0.6560 -0.2161 -0.4050
  609MOL0     H82153   1.631   1.546   9.982 -0.3616  0.6679  1.5917
  609MOL0     H82154   1.764   1.365   9.890  0.0411 -0.1083 -0.3704
  609MOL0     H82155   1.911   1.439   9.953 -1.0320  2.4126  1.8001
  609MOL0     H82156   1.742   1.553   9.723  0.1559 -3.9035 -0.2338
  609MOL0     H82157   1.880   1.636   9.798 -1.3256  1.5591 -1.1594
  609MOL0     H82158   2.007   1.407   9.733  0.9325  2.3447  0.2999
  609MOL0     H82159   1.859   1.363   9.648  1.6109 -0.8541 -0.1426
  609MOL0     H82160   1.879   1.573   9.524  0.6141 -0.1065  1.0601
  609MOL0     H82161   2.033   1.600   9.605  0.1100  0.1725 -0.1172
  609MOL0     H82162   1.966   1.355   9.438  1.4409 -0.4718  0.1863
  609MOL0     H82163   2.128   1.390   9.512  2.2268 -0.4091 -3.5330
  609MOL0     H82164   2.008   1.572   9.305 -0.4176 -0.5763  1.0025
  609MOL0     H82165   2.151   1.603   9.398 -1.0025  0.4462  2.0869
  609MOL0     H82166   2.087   1.481   9.063  2.5193 -0.9476 -1.6559
  609MOL0     H82167   2.369   1.247   8.942 -0.1747 -0.0036 -3.1276
  609MOL0     H82168   2.199   1.288   8.896  0.0054  0.4943 -1.1678
  609MOL0     H82169   2.338   1.436   8.761  1.7049  4.3633  0.1991
  609MOL0     H82170   2.270   1.526   8.902 -1.4287 -0.1962  0.4576
  609MOL0     H82171   2.550   1.416   8.851 -0.8654 -0.5285  0.4807
  609MOL0     H82172   2.504   1.480   9.008 -2.3423 -1.2156  0.5649
  609MOL0     H82173   2.580   1.675   8.944 -0.3843  0.0047 -0.2612
  609MOL0     H82174   2.423   1.703   8.892  0.1898  0.6574  1.3375
  609MOL0     H82175   2.619   1.570   8.483 -0.6481  0.0730  0.0174
  609MOL0     H82176   2.843   1.623   8.375  0.6723 -0.1901 -0.8115
  609MOL0     H82177   3.412   1.682   8.642  2.6934  1.3645  0.2380
  609MOL0     H82178   3.619   1.775   8.562 -0.4216 -1.1752  1.7966
  609MOL0     H82179   3.610   2.076   8.234 -0.7597  1.7615  0.8273
  609MOL0     H82180   3.628   2.171   8.377 -2.1275 -2.0149  2.0213
  609MOL0     H82181   3.843   2.160   8.214  0.2935 -0.1089 -0.1643
  609MOL0     H82182   3.898   2.104   8.362 -2.5893  0.1680  2.2710
  609MOL0     H82183   3.861   1.856   8.277  4.3356 -0.6636 -1.0142
  609MOL0     H82184   3.808   1.932   8.134  0.4390 -0.6166 -0.7345
  609MOL0     H82185   4.045   2.056   8.146  5.0221  0.7488  1.9351
  609MOL0     H82186   4.037   1.883   8.115 -0.2425  1.7308 -1.2067
  609MOL0     H82187   4.106   1.832   8.341 -0.8445 -1.1481 -2.5768
  609MOL0     H82188   4.082   2.011   8.382 -2.3872 -1.4604  0.4276
  609MOL0     H82189   4.282   1.888   8.195 -0.6319 -1.5073  1.2141
  609MOL0     H82190   4.258   2.065   8.210 -2.8437 -0.5402 -1.5779
  609MOL0     H82191   4.363   1.865   8.424  2.2710 -0.9074 -0.8193
  609MOL0     H82192   4.359   2.030   8.451 -0.3279 -2.0930  1.4011
  609MOL0     H82193   4.510   2.065   8.245 -0.0850 -1.0594 -0.4451
  609MOL0     H82194   4.575   2.010   8.397  0.6240  1.5488 -1.0458
  609MOL0     H82195   3.404   2.061   8.343  1.8390 -0.0293 -1.1749
  609MOL0     H82196   3.187   1.958   8.404  0.9044  3.5037 -1.1028
  609MOL0     H82197   2.972   1.797   8.754 -0.7681  2.0587 -1.5415
  609MOL0     H82198   2.766   1.776   8.841 -0.5341  0.0726  0.0617
  609MOL0     H82199   1.626   1.673  10.474 -0.3659  0.7682  0.4586
  609MOL0     H82200   1.390   1.683  10.550 -0.2012 -0.1256  0.0474
  609MOL0     H82201   1.031   1.340  10.463 -2.2310  0.8007 -1.6981
  609MOL0     H82202   0.828   1.205  10.527  1.3328  1.2152 -2.0075
  609MOL0     H82203   0.683   1.100  10.761 -2.0299  1.3322  3.5783
  609MOL0     H82204   0.649   1.135  10.587  0.3472  0.9206 -0.0110
  609MOL0     H82205   0.417   1.206  10.662  0.9869 -1.3319 -2.9026
  609MOL0     H82206   0.461   1.152  10.826 -3.4587  3.3591 -0.1856
  609MOL0     H82207   0.504   0.925  10.735  0.2260  2.3838  2.7285
  609MOL0     H82208   0.493   0.993  10.565  4.1477  2.1759  1.5041
  609MOL0     H82209   0.234   1.045  10.627 -2.1410 -2.2599  0.6370
  609MOL0     H82210   0.273   0.879  10.635  0.3601 -0.1733  1.9979
  609MOL0     H82211   0.189   0.985  11.038 -2.1361  2.2600  0.6784
  609MOL0     H82212   0.674   1.537  10.748 -1.2866 -1.5917  1.1296
  609MOL0     H82213   0.922   1.734  10.791 -0.7949 -0.3959  0.2667
  609MOL0     H82214   0.909   1.779  10.611  1.0701 -2.0466 -1.6431
  609MOL0     H82215   0.764   1.752  10.709 -0.2070 -0.2995 -1.1247
  610MOL0     O82216   0.986   6.727   7.540 -0.1516  0.0979 -0.6287
  610MOL0     C82217   0.903   6.809   7.496 -0.4187 -0.0144  0.5222
  610MOL0     O82218   0.931   6.906   7.401  0.9116 -0.2997 -0.2693
  610MOL0     C82219   1.056   6.920   7.352 -0.4116  0.5367  0.5368
  610MOL0     C82220   1.168   6.936   7.426 -0.0389  0.0131  0.7967
  610MOL0     C82221   1.294   6.962   7.369 -0.2393 -0.5747  0.6513
  610MOL0     C82222   1.311   6.964   7.225  0.1287 -0.1221 -0.5818
  610MOL0     O82223   1.431   6.979   7.154 -0.0674 -1.0061  0.1878
  610MOL0     C82224   1.556   7.010   7.228  0.1067 -0.0915 -0.4226
  610MOL0     C82225   1.671   7.001   7.128  0.3619 -0.2147 -0.5473
  610MOL0     C82226   1.806   6.972   7.188  0.3404 -0.3733  0.2331
  610MOL0     C82227   1.858   7.091   7.278  0.0858 -0.1007 -0.2524
  610MOL0     C82228   2.012   7.098   7.287 -0.6461  0.4616  0.1272
  610MOL0     C82229   2.068   6.990   7.379 -1.1938  0.8863 -0.1728
  610MOL0     C82230   2.221   7.004   7.412 -0.1035 -0.0841  0.7246
  610MOL0     C82231   2.310   6.962   7.293  0.1413 -0.0660 -0.1328
  610MOL0     N82232   2.442   7.004   7.312 -0.2615 -0.1592  0.3102
  610MOL0     C82233   2.502   7.121   7.286  0.3003  0.1596  0.4049
  610MOL0     C82234   2.619   7.102   7.348  0.7752  0.2700  0.5742
  610MOL0     C82235   2.722   7.206   7.347 -0.2240 -0.0393  0.9682
  610MOL0     C82236   2.737   7.286   7.477  1.0040 -0.5939 -0.3960
  610MOL0     C82237   2.809   7.425   7.464  0.6783  0.0879  1.0379
  610MOL0     C82238   2.940   7.428   7.382  0.4839 -1.0434 -0.4215
  610MOL0     O82239   2.991   7.558   7.384  0.7573  0.0341 -0.0059
  610MOL0     C82240   3.096   7.595   7.461 -0.2925  0.3530  0.4129
  610MOL0     C82241   3.128   7.729   7.448  0.4944  0.0013 -0.8300
  610MOL0     C82242   3.245   7.782   7.494 -0.8591 -0.3450 -0.4586
  610MOL0     C82243   3.334   7.701   7.561 -0.8820  0.0014 -0.4528
  610MOL0     C82244   3.470   7.747   7.605  0.2844  0.6689  0.5817
  610MOL0     O82245   3.551   7.658   7.652  0.7498  0.5431 -0.4945
  610MOL0     C82246   3.686   7.689   7.649  1.8098  0.1512 -0.1172
  610MOL0     C82247   3.736   7.768   7.750  0.0828 -0.7510  0.1521
  610MOL0     C82248   3.873   7.781   7.763 -0.5498  0.1199 -0.3247
  610MOL0     C82249   3.958   7.701   7.677  0.4024  0.4509  0.2911
  610MOL0     O82250   4.089   7.688   7.682 -0.3072  0.0320  0.0267
  610MOL0     C82251   4.169   7.748   7.782 -0.6569 -0.7423 -0.3208
  610MOL0     C82252   4.312   7.766   7.732  0.3577  0.0835 -1.5779
  610MOL0     C82253   4.401   7.790   7.854 -0.9369  0.4535  0.6167
  610MOL0     C82254   4.538   7.823   7.823 -0.3287 -0.5861 -0.2975
  610MOL0     C82255   4.610   7.862   7.959 -0.7513 -0.3187 -0.5279
  610MOL0     C82256   4.738   7.953   7.934  0.6643  0.7451  0.4641
  610MOL0     C82257   4.844   7.889   7.847 -0.0932  1.1296  0.2801
  610MOL0     C82258   4.985   7.937   7.875  0.6813  0.8613  0.1569
  610MOL0    Cl82259   5.095   7.814   7.797  0.2874 -0.1359  0.4409
  610MOL0     C82260   3.903   7.625   7.570 -0.2833  0.5657 -0.8347
  610MOL0     C82261   3.765   7.622   7.563  0.0820  0.0254 -0.2276
  610MOL0     O82262   3.497   7.864   7.582  0.5634  0.0787  0.3995
  610MOL0     C82263   3.286   7.574   7.594  0.1836 -0.5406  0.3760
  610MOL0     C82264   3.167   7.518   7.544 -0.2426 -0.7174  0.2628
  610MOL0     N82265   2.635   6.979   7.401  0.1815  0.6841 -0.0520
  610MOL0     N82266   2.520   6.930   7.393  0.0991 -0.0749 -0.0716
  610MOL0     C82267   1.190   6.957   7.147 -0.0586  0.3411  0.1383
  610MOL0     C82268   1.071   6.929   7.207 -0.0175 -0.2791  0.0450
  610MOL0     C82269   0.767   6.798   7.549  0.0047 -0.3973  0.4991
  610MOL0     C82270   0.672   6.891   7.503 -0.4081  0.1822  0.1398
  610MOL0     C82271   0.550   6.908   7.563  0.4199  0.5103  0.3130
  610MOL0     C82272   0.509   6.826   7.672 -1.0137 -0.3699 -0.0713
  610MOL0     O82273   0.388   6.833   7.742  0.0635 -0.2738  0.5472
  610MOL0     C82274   0.275   6.914   7.679 -0.3656 -0.1659 -0.3330
  610MOL0     C82275   0.150   6.904   7.769  0.7038 -0.5315  0.3149
  610MOL0     C82276   0.173   6.957   7.910  0.3174 -0.1629 -0.1956
  610MOL0     C82277   0.177   6.855   8.020  0.5059  0.8813  0.4030
  610MOL0     C82278   0.049   6.795   8.045  0.0288 -0.2741 -0.6502
  610MOL0     C82279  -0.064   6.742   8.070 -0.0269 -0.4735  0.4213
  610MOL0     C82280   0.607   6.734   7.712  0.2762 -0.4010 -0.4369
  610MOL0     C82281   0.733   6.724   7.655  0.3236  0.2254  0.5146
  610MOL0     C82282   0.813   6.616   7.713 -0.2691  0.1703 -0.2199
  610MOL0     H82283   1.157   6.938   7.534  0.6740 -1.3123  0.9192
  610MOL0     H82284   1.377   6.971   7.440  0.3976  0.8203 -0.2334
  610MOL0     H82285   1.548   7.115   7.256 -3.4100 -0.0309 -1.3029
  610MOL0     H82286   1.563   6.947   7.317 -2.2929  0.7901  0.4759
  610MOL0     H82287   1.661   7.093   7.070 -3.2611  0.4505  0.8366
  610MOL0     H82288   1.651   6.917   7.062  2.1068  0.0383 -1.4474
  610MOL0     H82289   1.871   6.953   7.102 -1.0978  0.6460 -1.1280
  610MOL0     H82290   1.798   6.887   7.257 -1.1231  1.1244  2.0321
  610MOL0     H82291   1.832   7.191   7.241 -2.1694  1.2080  4.2153
  610MOL0     H82292   1.817   7.093   7.379  0.0944 -2.6192 -0.1367
  610MOL0     H82293   2.044   7.083   7.183 -0.0917 -4.4318  0.7525
  610MOL0     H82294   2.041   7.197   7.323 -0.9774  0.7879 -0.4776
  610MOL0     H82295   2.025   6.991   7.479  0.5346 -0.0730  0.6196
  610MOL0     H82296   2.043   6.897   7.328 -0.1754  0.1887  0.5588
  610MOL0     H82297   2.252   6.943   7.497  2.1607 -1.9516 -1.3035
  610MOL0     H82298   2.225   7.110   7.440 -0.7580  0.3191 -0.5936
  610MOL0     H82299   2.309   6.854   7.277 -2.7949 -0.1869  0.2651
  610MOL0     H82300   2.268   7.016   7.208  1.5686 -2.3116 -2.3962
  610MOL0     H82301   2.463   7.215   7.247  1.1144  0.2843 -0.1285
  610MOL0     H82302   2.814   7.149   7.333 -0.0867  1.0680 -5.2039
  610MOL0     H82303   2.717   7.274   7.262  1.8620  0.9984  1.6041
  610MOL0     H82304   2.646   7.305   7.535  1.6130  0.8586  0.1108
  610MOL0     H82305   2.803   7.226   7.540  0.5043 -2.3038 -1.4127
  610MOL0     H82306   2.817   7.458   7.568  2.6707  0.3137  0.8573
  610MOL0     H82307   2.735   7.490   7.415  0.7720  0.8866  1.9234
  610MOL0     H82308   2.923   7.395   7.279  1.1622 -1.5289 -0.3788
  610MOL0     H82309   3.015   7.356   7.415  0.6375  0.2693  2.4634
  610MOL0     H82310   3.080   7.803   7.384  1.8334  0.6437 -1.1339
  610MOL0     H82311   3.283   7.879   7.464  0.4066 -0.0489  1.8914
  610MOL0     H82312   3.679   7.808   7.833  1.7962 -2.2092  2.1276
  610MOL0     H82313   3.920   7.841   7.841  0.8192 -2.8243  1.2619
  610MOL0     H82314   4.129   7.840   7.826 -0.7765 -0.7070 -0.5000
  610MOL0     H82315   4.173   7.675   7.864  2.1967 -0.5355 -0.1999
  610MOL0     H82316   4.345   7.674   7.684 -0.2145 -0.8115 -0.2910
  610MOL0     H82317   4.322   7.847   7.658 -1.6516  1.6054 -0.2838
  610MOL0     H82318   4.347   7.873   7.901 -3.2463 -1.7484  2.0847
  610MOL0     H82319   4.382   7.718   7.934 -1.3948  1.4719  1.4630
  610MOL0     H82320   4.531   7.912   7.760 -1.1311  0.4265  1.1647
  610MOL0     H82321   4.596   7.746   7.771  2.3245  0.0040  1.5843
  610MOL0     H82322   4.641   7.774   8.016  0.6217  0.1147 -0.5794
  610MOL0     H82323   4.538   7.923   8.014 -0.9817  2.4042 -3.5787
  610MOL0     H82324   4.709   8.047   7.885 -0.3677  0.3531  0.2983
  610MOL0     H82325   4.781   7.971   8.033 -0.0227 -1.9007  1.3000
  610MOL0     H82326   4.824   7.922   7.745  1.8316 -0.6424 -0.7469
  610MOL0     H82327   4.844   7.780   7.854 -1.5032  0.9661 -1.5884
  610MOL0     H82328   5.008   8.028   7.819  1.7274 -0.2407 -1.3005
  610MOL0     H82329   5.013   7.947   7.980  0.5760  0.5056  0.2180
  610MOL0     H82330   3.961   7.559   7.507  1.8026  0.3463  1.1693
  610MOL0     H82331   3.724   7.562   7.483  0.3645  1.3228 -1.3951
  610MOL0     H82332   3.343   7.510   7.661  1.6722 -0.9060 -1.1754
  610MOL0     H82333   3.114   7.425   7.560 -2.3280  0.5563  1.3032
  610MOL0     H82334   1.200   6.957   7.039 -0.3861 -3.3515 -0.0176
  610MOL0     H82335   0.984   6.913   7.145 -0.5270  1.6151  0.1936
  610MOL0     H82336   0.694   6.953   7.417  1.7721 -0.8021 -0.0877
  610MOL0     H82337   0.482   6.984   7.526 -0.8146  0.4980  2.3709
  610MOL0     H82338   0.257   6.868   7.581  2.0499 -0.0385 -0.8806
  610MOL0     H82339   0.294   7.021   7.669 -2.9023  0.2340 -1.6813
  610MOL0     H82340   0.098   6.809   7.757  0.5489 -0.5295  0.9344
  610MOL0     H82341   0.080   6.977   7.727  3.0807  3.2494  2.3252
  610MOL0     H82342   0.086   7.012   7.946  1.7487  1.1873  1.4170
  610MOL0     H82343   0.256   7.028   7.898 -1.6105  1.8479 -2.6077
  610MOL0     H82344   0.258   6.782   8.010 -0.7561 -0.5272  0.1635
  610MOL0     H82345   0.199   6.909   8.113 -0.9077 -1.1936  2.0381
  610MOL0     H82346  -0.153   6.694   8.105  1.6149 -2.3732  2.2907
  610MOL0     H82347   0.601   6.669   7.799  2.5666 -3.0706 -2.0787
  610MOL0     H82348   0.764   6.555   7.789 -1.3378  0.1232 -0.9241
  610MOL0     H82349   0.836   6.546   7.631  1.2909  0.8293 -0.3845
  610MOL0     H82350   0.909   6.652   7.751 -0.1600  1.0318 -1.2610
  611MOL0     O82351   8.352   4.179   9.039  0.5578  0.3202 -0.4416
  611MOL0     C82352   8.397   4.150   9.149 -0.4484  0.5772  1.0639
  611MOL0     O82353   8.523   4.188   9.194  0.5554  0.1620  0.9457
  611MOL0     C82354   8.624   4.242   9.120 -0.3496 -1.1861  0.4322
  611MOL0     C82355   8.739   4.264   9.192 -1.0103  0.5052 -0.1009
  611MOL0     C82356   8.858   4.301   9.126  0.2570  0.2209  0.3079
  611MOL0     C82357   8.859   4.330   8.984 -0.5169  0.0367 -0.0092
  611MOL0     O82358   8.975   4.363   8.922  0.3437  0.6224  0.3370
  611MOL0     C82359   8.978   4.454   8.811 -0.6217 -1.1290  0.2658
  611MOL0     C82360   9.114   4.523   8.816 -0.4199  0.1793  0.1098
  611MOL0     C82361   9.107   4.629   8.938  0.5658 -0.4520 -0.1433
  611MOL0     C82362   9.244   4.688   8.971  0.1843 -0.3264  0.0482
  611MOL0     C82363   9.234   4.806   9.066  0.5762  0.4666 -0.1231
  611MOL0     C82364   9.368   4.865   9.118  0.2508  0.6651 -0.9386
  611MOL0     C82365   9.454   4.758   9.187 -0.0760 -0.0252 -0.2425
  611MOL0     C82366   9.544   4.826   9.298  0.5511 -0.3606 -0.1513
  611MOL0     N82367   9.658   4.746   9.352  0.4077  0.2073  0.0542
  611MOL0     C82368   9.645   4.640   9.443  0.2207 -1.4786 -0.1536
  611MOL0     C82369   9.767   4.619   9.492  0.2927 -0.0477 -0.9388
  611MOL0     C82370   9.791   4.535   9.611  0.0851  0.6706 -0.5025
  611MOL0     C82371   9.786   4.615   9.744  0.4827 -0.2257  0.8280
  611MOL0     C82372   9.931   4.641   9.791 -0.1744 -0.7457  0.3952
  611MOL0     C82373   9.930   4.736   9.910  0.7635  0.1933  0.0280
  611MOL0     O82374  10.032   4.827   9.909 -0.0369 -0.3573 -0.6479
  611MOL0     C82375  10.169   4.795   9.912 -0.0227 -0.5420  0.8931
  611MOL0     C82376  10.224   4.665   9.912 -0.5584 -0.7704  0.0282
  611MOL0     C82377  10.360   4.636   9.896  0.1827  0.3925  0.2203
  611MOL0     C82378  10.451   4.741   9.888  0.7855  0.1299 -0.1604
  611MOL0     C82379  10.596   4.717   9.880 -0.4370  0.8990  1.6909
  611MOL0     O82380  10.677   4.822   9.906  0.2129  0.8670 -0.5953
  611MOL0     C82381  10.809   4.812   9.906 -0.1969 -0.6740  0.3667
  611MOL0     C82382  10.868   4.919   9.976  0.6735 -0.2349  0.7477
  611MOL0     C82383  11.002   4.939   9.984  0.2979 -0.4500 -0.6536
  611MOL0     C82384  11.089   4.857   9.906 -0.0081 -0.1717 -0.0673
  611MOL0     O82385  11.224   4.881   9.897  0.4880 -0.0694 -0.1330
  611MOL0     C82386  11.270   4.993   9.979 -0.5764 -0.6138  0.4790
  611MOL0     C82387  11.426   4.983   9.993 -0.7605 -0.2673  0.5134
  611MOL0     C82388  11.503   5.049   9.876  0.2121  0.7873 -0.6597
  611MOL0     C82389  11.658   5.048   9.894 -0.7968 -0.0062 -1.0001
  611MOL0     C82390  11.739   5.030   9.761  0.7799  0.2898 -0.7007
  611MOL0     C82391  11.886   5.057   9.771  0.6906 -0.9350 -0.0340
  611MOL0     C82392  11.968   5.040   9.641 -0.2730  0.3222  0.4178
  611MOL0     C82393  11.902   5.121   9.532 -0.3951 -0.3745 -0.0654
  611MOL0    Cl82394  12.026   5.149   9.415  0.1682 -0.1238 -0.0693
  611MOL0     C82395  11.035   4.752   9.835  0.6802 -0.6738  0.3138
  611MOL0     C82396  10.894   4.732   9.825  0.4861 -0.0905 -0.2128
  611MOL0     O82397  10.638   4.602   9.849  0.7190  0.2782 -0.4899
  611MOL0     C82398  10.397   4.869   9.896  0.4608  0.3947  0.4724
  611MOL0     C82399  10.259   4.895   9.913 -0.4115 -1.0920 -0.4813
  611MOL0     N82400   9.851   4.687   9.413 -0.9154 -0.0291  0.5742
  611MOL0     N82401   9.793   4.763   9.325  0.5211  0.1028  0.1429
  611MOL0     C82402   8.741   4.325   8.921 -0.0244 -0.9209  0.4406
  611MOL0     C82403   8.622   4.279   8.991  1.1670  0.0011 -0.0141
  611MOL0     C82404   8.311   4.073   9.244 -0.1110 -0.1233 -0.0762
  611MOL0     C82405   8.373   4.062   9.371  0.5997 -0.4094  0.5045
  611MOL0     C82406   8.311   3.992   9.473  0.1844 -0.0394  0.1494
  611MOL0     C82407   8.186   3.934   9.448  0.0450 -0.1294 -0.1213
  611MOL0     O82408   8.107   3.877   9.547 -0.3401 -0.2267 -0.3354
  611MOL0     C82409   8.066   3.971   9.648  0.2655 -0.4361 -0.6287
  611MOL0     C82410   7.933   4.038   9.609  0.2351  0.0294  0.7713
  611MOL0     C82411   7.866   4.123   9.724  0.2146 -0.2660 -0.2165
  611MOL0     C82412   7.716   4.133   9.702  0.3250 -1.4443  0.8907
  611MOL0     C82413   7.678   4.209   9.581 -0.2357 -0.9949 -0.7219
  611MOL0     C82414   7.641   4.271   9.482  0.0891 -0.2316 -0.3308
  611MOL0     C82415   8.120   3.953   9.324  0.3372  0.0837  0.5022
  611MOL0     C82416   8.184   4.023   9.226 -0.3839 -0.0764  0.2528
  611MOL0     C82417   8.106   4.054   9.103  0.5548  0.6234  0.1185
  611MOL0     H82418   8.741   4.240   9.298 -0.2151  2.8608  0.4995
  611MOL0     H82419   8.951   4.295   9.181 -1.2031 -0.6082  2.8438
  611MOL0     H82420   8.969   4.408   8.712  0.8669 -0.8018 -0.0343
  611MOL0     H82421   8.898   4.527   8.822 -0.2751 -0.8165  0.7611
  611MOL0     H82422   9.148   4.571   8.723 -0.3065  1.2252  0.6777
  611MOL0     H82423   9.190   4.448   8.838  1.3915  1.0418 -2.5990
  611MOL0     H82424   9.068   4.574   9.024  1.3642 -2.8270 -1.2121
  611MOL0     H82425   9.027   4.699   8.914 -1.3568 -2.1764  0.9791
  611MOL0     H82426   9.314   4.615   9.012  1.2490  1.6188  1.9161
  611MOL0     H82427   9.277   4.730   8.875 -3.2567  1.9030 -0.3174
  611MOL0     H82428   9.198   4.902   9.027  2.2645  1.3168  0.3202
  611MOL0     H82429   9.173   4.783   9.154 -0.7929  2.0084 -0.6026
  611MOL0     H82430   9.424   4.921   9.043  0.5833  0.4407 -0.8602
  611MOL0     H82431   9.337   4.933   9.199  0.1745  0.3033 -0.6594
  611MOL0     H82432   9.510   4.701   9.112 -1.5976 -0.4716 -1.0974
  611MOL0     H82433   9.394   4.689   9.247  0.1825 -0.0008  0.0428
  611MOL0     H82434   9.578   4.921   9.256  0.2374  0.0500  0.4981
  611MOL0     H82435   9.472   4.856   9.375  0.6367  0.7403 -0.4783
  611MOL0     H82436   9.551   4.598   9.478 -0.5077  0.9468  1.0008
  611MOL0     H82437   9.712   4.459   9.612  1.6840 -1.1387  2.5698
  611MOL0     H82438   9.890   4.490   9.598  0.4620  2.0832 -3.2337
  611MOL0     H82439   9.731   4.708   9.728  0.9607 -0.0209  0.3620
  611MOL0     H82440   9.744   4.559   9.828  0.8371 -0.9748  0.5163
  611MOL0     H82441   9.982   4.699   9.713  1.0204  1.4815  2.6722
  611MOL0     H82442   9.988   4.550   9.810  0.7821  0.2481  2.7280
  611MOL0     H82443   9.938   4.669   9.997  0.5028 -0.3268 -0.3413
  611MOL0     H82444   9.831   4.781   9.918  1.3446  1.7995 -1.1673
  611MOL0     H82445  10.163   4.576   9.921 -2.3922  0.6195  3.9445
  611MOL0     H82446  10.403   4.538   9.886  2.7745  1.6365 -2.1780
  611MOL0     H82447  10.803   4.993  10.021 -2.7998 -3.3426  1.2720
  611MOL0     H82448  11.033   5.032  10.031 -0.7315 -0.9727  1.1934
  611MOL0     H82449  11.255   5.093   9.935  2.9547 -0.4536 -0.6969
  611MOL0     H82450  11.230   4.994  10.080 -1.4508  1.8830  0.1728
  611MOL0     H82451  11.473   5.015  10.086  2.1241 -1.6464 -0.3569
  611MOL0     H82452  11.451   4.877   9.981 -0.4677 -0.0672 -0.8472
  611MOL0     H82453  11.477   4.978   9.796  1.1287 -2.6529  1.8439
  611MOL0     H82454  11.464   5.148   9.850  0.3651  0.4028 -2.4935
  611MOL0     H82455  11.687   4.961   9.953 -1.3248 -0.1284 -0.9167
  611MOL0     H82456  11.692   5.142   9.939 -2.6388 -0.4617  1.6052
  611MOL0     H82457  11.695   5.090   9.681 -1.8786 -3.5098 -2.3987
  611MOL0     H82458  11.731   4.924   9.738 -3.7432 -0.2185  1.9298
  611MOL0     H82459  11.899   5.159   9.807  0.3567 -0.4366 -1.2753
  611MOL0     H82460  11.931   4.990   9.846 -0.8337 -1.9203  0.0440
  611MOL0     H82461  11.977   4.935   9.611  1.7037  0.5699  0.0264
  611MOL0     H82462  12.072   5.074   9.649  0.5661 -2.0339  0.2345
  611MOL0     H82463  11.806   5.076   9.503  0.1223 -0.6417 -1.4530
  611MOL0     H82464  11.885   5.218   9.579 -1.2033 -0.6957  0.3373
  611MOL0     H82465  11.097   4.684   9.777 -1.0394 -0.7504 -1.5377
  611MOL0     H82466  10.846   4.654   9.767 -0.1521  1.6171 -2.1114
  611MOL0     H82467  10.473   4.946   9.903 -0.1027  0.8405  2.7036
  611MOL0     H82468  10.211   4.992   9.910 -1.5039 -1.4464  2.4265
  611MOL0     H82469   8.735   4.349   8.816 -0.3981  0.4171  0.7363
  611MOL0     H82470   8.534   4.270   8.928  0.5934 -1.1997  0.9152
  611MOL0     H82471   8.471   4.103   9.394 -0.2631  0.4974  2.8191
  611MOL0     H82472   8.366   3.991   9.566  1.0370 -1.3177 -0.3321
  611MOL0     H82473   8.149   4.042   9.653  0.7026 -0.5472 -3.9653
  611MOL0     H82474   8.047   3.925   9.746 -3.1893  1.1856 -0.4010
  611MOL0     H82475   7.866   3.963   9.566  0.7354  0.5600 -0.9978
  611MOL0     H82476   7.951   4.107   9.526  0.3914  0.2172  0.9574
  611MOL0     H82477   7.901   4.226   9.739  0.2603 -0.3454  0.2340
  611MOL0     H82478   7.881   4.064   9.815  1.1691  0.9627  0.4432
  611MOL0     H82479   7.674   4.032   9.705 -0.1196 -1.2660  0.6639
  611MOL0     H82480   7.673   4.202   9.775 -0.1150  1.0246 -1.5543
  611MOL0     H82481   7.621   4.317   9.388 -0.6781 -1.2457 -0.6869
  611MOL0     H82482   8.019   3.917   9.312  0.5565 -0.7572  1.1264
  611MOL0     H82483   8.111   4.160   9.074 -1.1199  0.2103 -1.9305
  611MOL0     H82484   8.150   3.992   9.025 -1.0978  1.5954 -1.6858
  611MOL0     H82485   7.999   4.033   9.115 -0.0976  1.3445 -3.3171
  612MOL0     O82486  10.276   4.820   7.973 -0.4633 -0.5389  0.6935
  612MOL0     C82487  10.196   4.895   8.030  0.1884 -0.3551 -0.7418
  612MOL0     O82488  10.229   5.016   8.088  0.0577  0.5018 -0.5839
  612MOL0     C82489  10.345   5.005   8.153 -0.1688  0.2639  0.6143
  612MOL0     C82490  10.454   5.065   8.094  0.2187 -0.1963 -0.1515
  612MOL0     C82491  10.576   5.064   8.153  0.4118 -0.9004  0.8180
  612MOL0     C82492  10.606   4.982   8.258  0.7455 -0.2686 -0.3011
  612MOL0     O82493  10.723   4.972   8.331 -0.0372  0.2307 -0.0442
  612MOL0     C82494  10.849   4.982   8.271  0.7307 -0.2688 -0.0985
  612MOL0     C82495  10.909   5.130   8.292  0.3484  0.1407 -0.3334
  612MOL0     C82496  11.053   5.133   8.262  0.0021 -0.4744 -0.7354
  612MOL0     C82497  11.130   5.262   8.305  0.3774  0.6102 -0.0513
  612MOL0     C82498  11.277   5.264   8.250  1.0652 -0.9005 -0.2648
  612MOL0     C82499  11.344   5.399   8.269  0.0001  0.6567 -0.3783
  612MOL0     C82500  11.486   5.409   8.217  0.3435  0.6257 -0.1805
  612MOL0     C82501  11.503   5.421   8.061  0.6290  0.4716  0.1160
  612MOL0     N82502  11.644   5.450   8.050 -0.0095  0.5771 -0.3016
  612MOL0     C82503  11.733   5.357   7.997  0.0038 -0.1028 -0.0300
  612MOL0     C82504  11.853   5.415   8.019  1.1221  0.2195  0.1627
  612MOL0     C82505  11.977   5.347   7.981 -0.5653  0.7951 -0.7547
  612MOL0     C82506  12.012   5.314   7.839 -0.6280 -1.0497  0.4326
  612MOL0     C82507  12.059   5.440   7.768  0.2789  0.2213 -0.2145
  612MOL0     C82508  12.064   5.437   7.617  0.2080 -0.6733 -0.4407
  612MOL0     O82509  12.167   5.513   7.561  0.1594 -0.3595  0.2736
  612MOL0     C82510  12.292   5.473   7.570 -0.4238 -0.2723  0.0520
  612MOL0     C82511  12.337   5.355   7.631  0.5014 -0.3077  0.7043
  612MOL0     C82512  12.469   5.309   7.631  0.1653  0.0504  0.6815
  612MOL0     C82513  12.565   5.385   7.569 -0.0454 -0.4178 -0.1057
  612MOL0     C82514  12.704   5.336   7.573 -0.3959 -0.1707 -0.1257
  612MOL0     O82515  12.729   5.213   7.637 -0.7443 -0.5001  0.5146
  612MOL0     C82516  12.850   5.154   7.649  0.1484  1.0135  0.7221
  612MOL0     C82517  12.954   5.212   7.726  0.7324 -0.2658 -0.2953
  612MOL0     C82518  13.066   5.141   7.753 -0.0730  0.1382 -0.1055
  612MOL0     C82519  13.087   5.021   7.693 -0.1509  0.2997  0.7169
  612MOL0     O82520  13.202   4.945   7.710 -0.2290  0.5721 -0.5484
  612MOL0     C82521  13.319   5.017   7.763 -0.6672  0.5182  1.0713
  612MOL0     C82522  13.424   4.905   7.754  0.5101  0.2232 -0.2725
  612MOL0     C82523  13.407   4.801   7.872 -0.1277  0.2961 -0.3346
  612MOL0     C82524  13.499   4.675   7.831  0.6355  0.8106 -0.0631
  612MOL0     C82525  13.649   4.698   7.862  0.5200  0.0912  0.0160
  612MOL0     C82526  13.715   4.569   7.909 -0.9204 -0.7240  0.3036
  612MOL0     C82527  13.854   4.602   7.955 -0.1910  0.1344 -0.1815
  612MOL0     C82528  13.929   4.470   7.981 -0.5069 -0.2295  0.9069
  612MOL0    Cl82529  13.847   4.368   8.102 -0.8148 -0.1047  0.2085
  612MOL0     C82530  12.985   4.965   7.609 -0.2267  0.3598  0.4855
  612MOL0     C82531  12.873   5.038   7.583 -0.3217  0.0620  0.3607
  612MOL0     O82532  12.789   5.416   7.541 -0.3142 -0.0995  0.0418
  612MOL0     C82533  12.522   5.507   7.505 -0.5138  0.9876 -0.5206
  612MOL0     C82534  12.388   5.546   7.506 -0.6512 -0.2161  0.0146
  612MOL0     N82535  11.840   5.536   8.088 -0.3381  0.3532 -0.5455
  612MOL0     N82536  11.714   5.554   8.105 -0.6010  0.4224  0.3857
  612MOL0     C82537  10.494   4.928   8.322 -0.3886 -0.0986  0.4129
  612MOL0     C82538  10.364   4.934   8.270 -0.1891 -0.9987 -0.5233
  612MOL0     C82539  10.052   4.874   8.037 -0.1480  0.4111 -0.3607
  612MOL0     C82540   9.970   4.964   8.093 -0.3080 -0.3077 -0.7302
  612MOL0     C82541   9.826   4.971   8.079  0.5833  0.9573 -0.3624
  612MOL0     C82542   9.759   4.855   8.041 -0.5705  0.4066  0.1968
  612MOL0     O82543   9.625   4.838   8.071  0.1101 -0.4953 -1.3146
  612MOL0     C82544   9.575   4.700   8.083 -0.2257 -1.2847 -0.0514
  612MOL0     C82545   9.457   4.693   8.176 -0.3079 -0.0155  0.4572
  612MOL0     C82546   9.327   4.740   8.117  0.2548  0.3111  0.5210
  612MOL0     C82547   9.307   4.891   8.096  0.3152 -0.1643 -0.3917
  612MOL0     C82548   9.174   4.908   8.044 -0.2723  0.0957  0.4413
  612MOL0     C82549   9.064   4.920   7.996  0.2946 -0.7638  0.0798
  612MOL0     C82550   9.840   4.749   7.987 -0.3187 -0.0700  0.5018
  612MOL0     C82551   9.989   4.758   7.985  0.9899  0.2717  0.4171
  612MOL0     C82552  10.061   4.638   7.932  0.0962 -0.8034 -0.0477
  612MOL0     H82553  10.432   5.120   8.003 -0.9381  1.5543  1.1238
  612MOL0     H82554  10.654   5.132   8.121 -2.1029  3.5539  3.0495
  612MOL0     H82555  10.907   4.904   8.321 -0.8776 -0.4354  1.6482
  612MOL0     H82556  10.841   4.950   8.167  0.5088 -1.1299  0.1763
  612MOL0     H82557  10.908   5.155   8.399  3.3625 -0.8148  0.0188
  612MOL0     H82558  10.851   5.206   8.239  2.8259  4.6635  2.7873
  612MOL0     H82559  11.055   5.128   8.153 -1.0629 -0.0556 -0.7823
  612MOL0     H82560  11.104   5.046   8.305 -0.8944 -1.4143 -1.5583
  612MOL0     H82561  11.071   5.352   8.283 -0.9465  0.1987  1.5805
  612MOL0     H82562  11.136   5.258   8.414  2.8785 -1.6927 -0.1862
  612MOL0     H82563  11.338   5.187   8.297  4.2010  2.3922  1.5276
  612MOL0     H82564  11.253   5.244   8.145 -0.2854 -0.1113 -0.1319
  612MOL0     H82565  11.288   5.475   8.214 -2.4523 -1.1340 -0.5241
  612MOL0     H82566  11.341   5.413   8.378  1.5732 -1.8873  0.0954
  612MOL0     H82567  11.547   5.327   8.255  2.0217  1.4948 -0.8433
  612MOL0     H82568  11.527   5.500   8.262 -0.8118  1.1551 -0.1602
  612MOL0     H82569  11.477   5.323   8.022  1.4564  0.2848  0.0158
  612MOL0     H82570  11.441   5.499   8.017  1.0776 -0.6277 -2.6234
  612MOL0     H82571  11.703   5.265   7.948  0.2355 -1.0265  1.5242
  612MOL0     H82572  12.060   5.401   8.027 -0.9330 -1.8819  3.6242
  612MOL0     H82573  11.968   5.249   8.027  0.9423  0.0361 -1.9831
  612MOL0     H82574  12.084   5.231   7.841  0.6329 -0.1088  5.0066
  612MOL0     H82575  11.924   5.271   7.792  0.0593 -3.8581  1.5089
  612MOL0     H82576  12.160   5.466   7.802  0.9798 -1.8445 -0.5724
  612MOL0     H82577  11.998   5.527   7.792  0.7423  0.1878  1.1920
  612MOL0     H82578  11.972   5.479   7.575 -0.4739  0.5765  2.1067
  612MOL0     H82579  12.059   5.332   7.588  0.6887 -0.7284 -0.3316
  612MOL0     H82580  12.269   5.288   7.683  2.3991 -1.2127  2.1370
  612MOL0     H82581  12.494   5.217   7.682 -0.8461  0.8878  2.8271
  612MOL0     H82582  12.946   5.316   7.758 -0.3629  0.2264 -2.0262
  612MOL0     H82583  13.142   5.188   7.815  3.5558 -1.6236 -2.8461
  612MOL0     H82584  13.348   5.093   7.690 -0.1096 -0.6992 -0.0099
  612MOL0     H82585  13.305   5.045   7.868 -0.8979 -1.9727  1.7760
  612MOL0     H82586  13.411   4.843   7.665  1.9301  0.1777 -0.4669
  612MOL0     H82587  13.527   4.941   7.761 -0.2158  2.2026  1.3815
  612MOL0     H82588  13.424   4.835   7.974  1.6750 -2.8163  0.5077
  612MOL0     H82589  13.305   4.764   7.860 -1.3437  2.2226  2.8575
  612MOL0     H82590  13.488   4.649   7.725 -0.5660  0.9228  0.0180
  612MOL0     H82591  13.461   4.583   7.877  1.8924 -1.0674 -2.5600
  612MOL0     H82592  13.656   4.786   7.927  2.2545 -0.5840  0.8260
  612MOL0     H82593  13.686   4.728   7.763 -1.1400  1.4690 -0.2356
  612MOL0     H82594  13.662   4.533   7.997  2.6792 -6.2428  0.6897
  612MOL0     H82595  13.720   4.498   7.826  0.3685  2.4070 -2.5397
  612MOL0     H82596  13.854   4.663   8.046  3.2626  0.9096 -0.5510
  612MOL0     H82597  13.915   4.663   7.888  1.6524 -2.6375 -1.2280
  612MOL0     H82598  13.948   4.415   7.888 -1.4930 -0.0524  0.5943
  612MOL0     H82599  14.026   4.497   8.024  1.1489 -1.4415 -1.7829
  612MOL0     H82600  13.010   4.869   7.567  0.8550  1.2169 -0.9085
  612MOL0     H82601  12.798   4.991   7.521  0.1419  1.2039 -1.1111
  612MOL0     H82602  12.599   5.555   7.446  1.0145 -2.4237 -1.5767
  612MOL0     H82603  12.359   5.632   7.447 -0.7974  2.6036  3.7789
  612MOL0     H82604  10.518   4.867   8.409 -4.8944 -1.9703  0.6231
  612MOL0     H82605  10.280   4.886   8.319  0.5653 -0.8564  0.9784
  612MOL0     H82606  10.009   5.055   8.136  1.4373 -1.0105 -0.7450
  612MOL0     H82607   9.769   5.046   8.132  0.5326 -1.3167  3.1566
  612MOL0     H82608   9.659   4.644   8.124  0.8430  1.6040  2.0870
  612MOL0     H82609   9.548   4.660   7.985 -2.7740 -1.6082  0.6958
  612MOL0     H82610   9.472   4.751   8.268 -0.8514  2.2854 -0.8292
  612MOL0     H82611   9.457   4.587   8.201  1.5765 -0.2776 -0.5134
  612MOL0     H82612   9.245   4.698   8.176 -0.0959  2.1029  1.3868
  612MOL0     H82613   9.325   4.696   8.017  0.1016 -2.8424  1.7958
  612MOL0     H82614   9.302   4.934   8.196  0.9079 -2.2667  0.6112
  612MOL0     H82615   9.377   4.953   8.039 -0.0007  0.3123 -0.2665
  612MOL0     H82616   8.962   4.911   7.963  0.2418 -0.3149  0.1189
  612MOL0     H82617   9.783   4.660   7.962 -0.9222  0.0710  1.3215
  612MOL0     H82618  10.000   4.549   7.913  0.7102 -1.7266  2.0469
  612MOL0     H82619  10.097   4.674   7.835  0.1516  0.0711  0.2894
  612MOL0     H82620  10.151   4.609   7.987  0.7002 -0.7071 -0.9564
  613MOL0     O82621   5.417   8.518   8.598  0.5284 -0.4736  0.0526
  613MOL0     C82622   5.376   8.607   8.672 -0.4213  0.0408 -0.1499
  613MOL0     O82623   5.454   8.693   8.737  0.2441 -0.4988  0.2176
  613MOL0     C82624   5.592   8.674   8.750  0.2831  0.0916 -0.7931
  613MOL0     C82625   5.655   8.719   8.871 -0.0577  1.2122  0.4214
  613MOL0     C82626   5.786   8.715   8.892 -1.1133  0.2622 -0.3051
  613MOL0     C82627   5.874   8.683   8.786  0.0303  0.5364  0.1211
  613MOL0     O82628   6.004   8.668   8.786 -0.0827  0.6599 -0.2857
  613MOL0     C82629   6.068   8.755   8.877 -0.8521  0.1131 -0.4166
  613MOL0     C82630   6.220   8.733   8.875 -1.1672 -0.7511 -0.5546
  613MOL0     C82631   6.294   8.835   8.961  0.7862  0.6918  1.0769
  613MOL0     C82632   6.445   8.798   8.955 -0.0746  0.4963 -0.2762
  613MOL0     C82633   6.525   8.864   9.071 -1.2569  0.4180  0.4733
  613MOL0     C82634   6.670   8.809   9.071 -0.7477 -0.4203 -0.3132
  613MOL0     C82635   6.739   8.823   9.208  0.3318 -0.8553 -0.2806
  613MOL0     C82636   6.877   8.758   9.215 -0.2939  0.0517 -0.1995
  613MOL0     N82637   6.987   8.843   9.152 -1.0423  0.2452  0.3648
  613MOL0     C82638   7.026   8.973   9.191  0.2080  0.4618  0.2480
  613MOL0     C82639   7.086   9.020   9.069 -0.2956  0.3571 -0.5290
  613MOL0     C82640   7.150   9.152   9.057  0.7319  0.7840  0.1366
  613MOL0     C82641   7.279   9.168   9.143  0.5996 -0.0108 -0.1269
  613MOL0     C82642   7.392   9.081   9.106 -0.4991  0.2677  0.2057
  613MOL0     C82643   7.518   9.126   9.185 -0.1495  0.0661 -0.6567
  613MOL0     O82644   7.565   9.253   9.132  0.4075  0.2363 -0.0164
  613MOL0     C82645   7.689   9.280   9.181  0.1488  0.2190 -0.4932
  613MOL0     C82646   7.801   9.260   9.110 -0.3604 -0.0426  0.3237
  613MOL0     C82647   7.931   9.252   9.166  0.3322  0.0212 -0.8588
  613MOL0     C82648   7.943   9.295   9.303 -0.3324 -0.4852  0.3663
  613MOL0     C82649   8.074   9.313   9.372  0.1128  0.5782 -0.4356
  613MOL0     O82650   8.064   9.363   9.504  0.0009 -0.1346  0.2824
  613MOL0     C82651   8.163   9.346   9.603 -0.3419 -0.0503  0.7236
  613MOL0     C82652   8.147   9.422   9.725  0.5298 -0.3542  0.5079
  613MOL0     C82653   8.241   9.421   9.831  0.3725 -0.2739  0.5701
  613MOL0     C82654   8.351   9.338   9.815 -0.0447 -0.1528  0.2201
  613MOL0     O82655   8.449   9.315   9.909  0.2946  0.0248 -0.1654
  613MOL0     C82656   8.439   9.388  10.037  0.2801 -0.1214 -0.0189
  613MOL0     C82657   8.551   9.352  10.130  0.3252 -0.0756 -0.2057
  613MOL0     C82658   8.680   9.359  10.047 -0.1777 -0.0382 -0.5236
  613MOL0     C82659   8.801   9.332  10.137 -0.0947  0.8090  0.2487
  613MOL0     C82660   8.933   9.342  10.058 -0.5394  0.1546 -0.2186
  613MOL0     C82661   9.043   9.327  10.158  0.1158 -0.6652  0.4389
  613MOL0     C82662   9.086   9.452  10.239 -0.1050 -0.4884 -0.2184
  613MOL0     C82663   9.215   9.432  10.309  0.7564  0.5980  0.0911
  613MOL0    Cl82664   9.354   9.405  10.188  0.5865  0.3167 -0.2448
  613MOL0     C82665   8.365   9.258   9.699 -0.1399  0.8413  0.9807
  613MOL0     C82666   8.272   9.262   9.593  0.0823  0.0975  0.7516
  613MOL0     O82667   8.177   9.292   9.310  0.4114  0.6492  0.4510
  613MOL0     C82668   7.829   9.350   9.365 -0.2171  0.1398  0.1453
  613MOL0     C82669   7.702   9.323   9.313 -0.6403 -0.7224  0.4060
  613MOL0     N82670   7.097   8.930   8.976  0.6749 -0.3149 -0.2901
  613MOL0     N82671   7.023   8.825   9.021  0.2674 -0.7469 -0.1576
  613MOL0     C82672   5.812   8.648   8.667 -0.1478 -0.4956 -0.0482
  613MOL0     C82673   5.677   8.639   8.652 -0.1625 -0.2387  0.0315
  613MOL0     C82674   5.229   8.614   8.687  0.7754  0.2667 -0.1346
  613MOL0     C82675   5.183   8.720   8.754  1.0509  0.6387 -0.8371
  613MOL0     C82676   5.048   8.746   8.784 -0.2718 -0.3260  0.7289
  613MOL0     C82677   4.952   8.659   8.745  0.4499  0.0740 -0.2932
  613MOL0     O82678   4.825   8.687   8.777 -0.5056 -0.3125 -0.6050
  613MOL0     C82679   4.732   8.568   8.765 -0.0811 -0.3268  0.6414
  613MOL0     C82680   4.676   8.557   8.626  0.0911  0.5123  0.5917
  613MOL0     C82681   4.566   8.450   8.626 -0.2428 -0.2991  0.7822
  613MOL0     C82682   4.471   8.492   8.507 -0.3116 -0.4516  0.0390
  613MOL0     C82683   4.393   8.377   8.473  0.4987 -0.3887  0.4399
  613MOL0     C82684   4.335   8.272   8.451 -0.0925  0.1357 -0.4063
  613MOL0     C82685   4.994   8.547   8.673  0.1508  0.1225  0.3098
  613MOL0     C82686   5.130   8.513   8.650  0.0318  0.5641  1.2385
  613MOL0     C82687   5.170   8.373   8.599 -0.3961  0.0256  0.5705
  613MOL0     H82688   5.585   8.749   8.948 -3.7259 -1.1901 -1.6560
  613MOL0     H82689   5.824   8.742   8.990  1.4939 -0.1723 -1.1298
  613MOL0     H82690   6.045   8.860   8.852 -1.2923  0.3358  0.8537
  613MOL0     H82691   6.034   8.736   8.979  2.1606 -3.0243  0.1498
  613MOL0     H82692   6.259   8.751   8.774  0.8657  0.1257  0.3244
  613MOL0     H82693   6.237   8.631   8.911  0.4304  0.8914  4.1580
  613MOL0     H82694   6.259   8.834   9.065  2.0764 -1.3349  1.5521
  613MOL0     H82695   6.273   8.933   8.918 -0.8987 -0.8271 -1.8496
  613MOL0     H82696   6.457   8.690   8.970 -1.8016  0.3928  0.5934
  613MOL0     H82697   6.476   8.834   8.857  0.2499  0.5834 -0.1445
  613MOL0     H82698   6.533   8.973   9.065  0.6967  0.4643  2.5167
  613MOL0     H82699   6.489   8.827   9.168  0.4063 -0.9300  0.6262
  613MOL0     H82700   6.679   8.701   9.055 -1.4732 -0.5989  0.4526
  613MOL0     H82701   6.732   8.845   8.988 -0.5795 -0.3037 -0.1409
  613MOL0     H82702   6.669   8.772   9.276 -1.8732  3.1258  0.7462
  613MOL0     H82703   6.740   8.926   9.245 -0.5429 -0.5216 -1.1463
  613MOL0     H82704   6.913   8.750   9.318 -1.4088  0.5551  0.2423
  613MOL0     H82705   6.870   8.663   9.162  2.3463  0.8092 -2.1048
  613MOL0     H82706   7.001   9.034   9.278  4.2204  0.1075  1.9063
  613MOL0     H82707   7.169   9.181   8.953 -1.5840  2.9967  0.2339
  613MOL0     H82708   7.074   9.226   9.081  1.8195  2.3331 -0.9952
  613MOL0     H82709   7.318   9.268   9.123  0.4740 -0.6269 -4.4520
  613MOL0     H82710   7.252   9.164   9.249 -2.2452  3.1735 -0.5554
  613MOL0     H82711   7.414   9.080   8.999  1.1665  1.3310  0.4947
  613MOL0     H82712   7.367   8.979   9.136  1.9181 -0.6400 -0.6395
  613MOL0     H82713   7.592   9.046   9.175  1.0043  1.2033 -1.4937
  613MOL0     H82714   7.499   9.139   9.292  0.7883 -0.3065 -0.4390
  613MOL0     H82715   7.773   9.211   9.017 -1.4602  0.2860  0.4650
  613MOL0     H82716   8.013   9.209   9.110  1.2998  0.7551 -0.0296
  613MOL0     H82717   8.055   9.481   9.719  1.9726  1.9992  0.3451
  613MOL0     H82718   8.221   9.495   9.908  0.6889 -0.6061  0.9769
  613MOL0     H82719   8.437   9.495  10.015 -0.6708 -0.3413 -1.0606
  613MOL0     H82720   8.345   9.354  10.081  1.1754 -0.6114  1.6437
  613MOL0     H82721   8.557   9.430  10.207 -0.6763 -1.4953  1.3728
  613MOL0     H82722   8.532   9.250  10.166 -2.1748  0.5671  0.4668
  613MOL0     H82723   8.670   9.292   9.961 -5.2823  0.7000 -0.8345
  613MOL0     H82724   8.682   9.458  10.000 -1.5356  0.8289  1.1357
  613MOL0     H82725   8.796   9.228  10.173  0.2965 -0.0128 -1.9002
  613MOL0     H82726   8.796   9.405  10.218 -0.8267  0.8251  0.1982
  613MOL0     H82727   8.935   9.442  10.014 -1.6906  0.1798 -0.2570
  613MOL0     H82728   8.944   9.273   9.975  1.2988 -0.0569  0.1554
  613MOL0     H82729   9.008   9.254  10.232  0.4341  1.2220  2.5719
  613MOL0     H82730   9.132   9.283  10.113 -1.9633 -3.3446 -1.3280
  613MOL0     H82731   9.015   9.471  10.320 -0.0907 -1.3070 -0.0005
  613MOL0     H82732   9.097   9.547  10.186 -2.6622 -0.1688 -0.2839
  613MOL0     H82733   9.241   9.522  10.366  3.0809 -0.4718  0.8605
  613MOL0     H82734   9.198   9.345  10.374 -0.8127 -0.5763 -1.8067
  613MOL0     H82735   8.448   9.187   9.695  0.1306  1.2047 -0.9579
  613MOL0     H82736   8.298   9.206   9.504  1.8191 -0.5239  1.5971
  613MOL0     H82737   7.833   9.388   9.467  0.4399  1.7602 -0.4550
  613MOL0     H82738   7.612   9.342   9.372  0.0012 -1.5092  1.6822
  613MOL0     H82739   5.877   8.628   8.582  1.9074  1.8820  0.8276
  613MOL0     H82740   5.646   8.624   8.549  1.4371 -0.2904 -0.4695
  613MOL0     H82741   5.246   8.802   8.784 -0.0796  1.2549 -0.0563
  613MOL0     H82742   5.026   8.834   8.844  0.5983 -1.6609  3.1634
  613MOL0     H82743   4.654   8.580   8.840 -2.0594 -0.5720 -1.2536
  613MOL0     H82744   4.791   8.478   8.787  2.0673  0.6528 -0.7255
  613MOL0     H82745   4.744   8.545   8.541 -1.8059 -2.2453 -0.6862
  613MOL0     H82746   4.622   8.651   8.611 -0.9381 -0.5206 -3.2045
  613MOL0     H82747   4.510   8.441   8.720  0.0708 -0.4458  0.9551
  613MOL0     H82748   4.603   8.350   8.602 -2.7951 -0.8786 -1.1991
  613MOL0     H82749   4.401   8.572   8.532 -0.5894 -0.7157  0.1046
  613MOL0     H82750   4.536   8.513   8.421  0.8400 -2.5498  0.3144
  613MOL0     H82751   4.274   8.183   8.456  0.7176 -0.4298 -0.4803
  613MOL0     H82752   4.936   8.459   8.647  1.3047 -0.5369 -0.1346
  613MOL0     H82753   5.089   8.300   8.601  1.7755 -2.5861 -0.8739
  613MOL0     H82754   5.207   8.372   8.496  1.8925  1.8152  1.2843
  613MOL0     H82755   5.252   8.330   8.657  1.7408 -1.4081 -3.1235
  614MOL0     O82756  11.225   4.702  10.721  0.1728  0.4977 -0.3836
  614MOL0     C82757  11.213   4.767  10.824 -0.5991  0.7045 -0.3661
  614MOL0     O82758  11.292   4.874  10.857 -0.8056  0.2945 -0.9189
  614MOL0     C82759  11.378   4.907  10.755  0.4969  0.0858  0.2969
  614MOL0     C82760  11.326   4.990  10.655  0.1456  0.2027 -0.3437
  614MOL0     C82761  11.400   5.029  10.546 -0.0031  0.1320  0.8686
  614MOL0     C82762  11.531   4.974  10.532 -0.9052  0.3706  0.3169
  614MOL0     O82763  11.615   4.993  10.420 -0.5065  0.0507 -0.1315
  614MOL0     C82764  11.585   5.108  10.343 -1.1319 -0.3315  0.6095
  614MOL0     C82765  11.690   5.132  10.241 -0.3989 -0.1143  0.5006
  614MOL0     C82766  11.828   5.165  10.300 -0.5618 -0.8155 -0.5300
  614MOL0     C82767  11.927   5.177  10.188  0.6078 -0.7189  0.3603
  614MOL0     C82768  12.053   5.244  10.244 -0.1096  0.0425  0.4990
  614MOL0     C82769  12.170   5.205  10.151 -0.9294  0.3115 -0.2731
  614MOL0     C82770  12.311   5.251  10.195  0.1089  0.2182 -0.7675
  614MOL0     C82771  12.303   5.402  10.207 -0.6925  0.0406  0.8723
  614MOL0     N82772  12.435   5.464  10.226  0.8429 -0.4023 -0.1909
  614MOL0     C82773  12.507   5.449  10.344  0.4001 -0.1122 -0.6402
  614MOL0     C82774  12.614   5.527  10.324  0.3015 -0.0948  0.1629
  614MOL0     C82775  12.728   5.536  10.421 -0.8814  0.1416  0.8906
  614MOL0     C82776  12.856   5.571  10.338  1.0612  1.0553 -0.2334
  614MOL0     C82777  12.963   5.554  10.441 -0.0380  0.7105 -0.1948
  614MOL0     C82778  13.106   5.586  10.388 -0.8880 -0.5738  0.0898
  614MOL0     O82779  13.163   5.477  10.315 -0.2520  0.1295 -0.9278
  614MOL0     C82780  13.299   5.485  10.295  0.4162  0.2150  0.4106
  614MOL0     C82781  13.366   5.606  10.275  0.3455 -0.0616  1.2659
  614MOL0     C82782  13.503   5.607  10.260 -0.1358  0.2173 -0.6186
  614MOL0     C82783  13.583   5.495  10.241  0.6581  0.0250  1.0664
  614MOL0     C82784  13.727   5.502  10.222 -0.0433 -0.3589  0.1844
  614MOL0     O82785  13.791   5.390  10.190  0.3788  0.5217  0.3540
  614MOL0     C82786  13.930   5.367  10.210  0.5785  1.1049  0.1466
  614MOL0     C82787  13.976   5.260  10.136 -0.3169  0.3104 -0.2123
  614MOL0     C82788  14.108   5.217  10.155  0.3689  0.8197 -0.5167
  614MOL0     C82789  14.192   5.284  10.247  0.2568 -0.1443  0.3610
  614MOL0     O82790  14.321   5.249  10.248 -0.6804  0.9031 -0.5416
  614MOL0     C82791  14.412   5.289  10.350  0.4626 -0.3688 -0.2732
  614MOL0     C82792  14.534   5.195  10.353 -0.4685  0.4075  0.6029
  614MOL0     C82793  14.663   5.265  10.414  0.5585  0.3106  0.1399
  614MOL0     C82794  14.627   5.352  10.532  0.3058 -0.6389 -0.1265
  614MOL0     C82795  14.751   5.424  10.594 -0.0659  0.0518 -0.1170
  614MOL0     C82796  14.860   5.328  10.646 -0.1436 -0.2145 -0.0462
  614MOL0     C82797  14.940   5.378  10.771  0.0618  1.0144  0.0265
  614MOL0     C82798  15.070   5.308  10.786  0.0317  0.0509 -0.0141
  614MOL0    Cl82799  15.180   5.373  10.661 -0.4305 -0.0501  0.0276
  614MOL0     C82800  14.144   5.391  10.322 -0.6115 -0.3000  0.2463
  614MOL0     C82801  14.009   5.433  10.303 -0.4219 -0.1820  0.2055
  614MOL0     O82802  13.781   5.611  10.263  0.2039 -0.0308  0.0481
  614MOL0     C82803  13.517   5.369  10.248  0.0761 -0.1772  0.2732
  614MOL0     C82804  13.382   5.370  10.280  0.2182  0.1818 -0.8661
  614MOL0     N82805  12.607   5.581  10.190  0.1069 -0.5607 -0.3662
  614MOL0     N82806  12.502   5.536  10.131 -0.1438  0.6638  0.1933
  614MOL0     C82807  11.582   4.891  10.637 -0.4725  0.7088 -0.6284
  614MOL0     C82808  11.509   4.859  10.755  0.4770 -0.2341  1.0664
  614MOL0     C82809  11.110   4.738  10.927  0.1010  0.0260 -0.2089
  614MOL0     C82810  11.128   4.795  11.055  0.0400 -0.1572  0.3714
  614MOL0     C82811  11.036   4.788  11.151  0.4619  0.7827  0.1137
  614MOL0     C82812  10.907   4.734  11.131  0.6593 -0.1767  0.9993
  614MOL0     O82813  10.818   4.712  11.232  0.0835  0.0139 -0.5447
  614MOL0     C82814  10.675   4.737  11.216 -0.3224  0.0312  0.1623
  614MOL0     C82815  10.634   4.882  11.246 -0.1759 -0.2339  0.2184
  614MOL0     C82816  10.509   4.912  11.167 -0.4592  0.2543 -0.6410
  614MOL0     C82817  10.377   4.860  11.223 -0.0678 -1.0841 -0.1789
  614MOL0     C82818  10.265   4.921  11.154  0.4544 -0.1272 -0.6391
  614MOL0     C82819  10.171   4.966  11.097 -0.1291 -0.2797 -0.0113
  614MOL0     C82820  10.878   4.677  11.001 -0.1852 -0.3382  0.0751
  614MOL0     C82821  10.980   4.683  10.892 -0.3971 -0.8254  0.1815
  614MOL0     C82822  10.943   4.622  10.767  0.2052 -0.0256 -0.0510
  614MOL0     H82823  11.225   5.029  10.659 -0.3500 -0.7044 -2.4227
  614MOL0     H82824  11.353   5.086  10.466 -1.1093 -0.9379  0.7377
  614MOL0     H82825  11.486   5.100  10.295 -1.7730 -2.3410  2.1371
  614MOL0     H82826  11.575   5.197  10.405 -0.5536  2.8792 -3.4212
  614MOL0     H82827  11.651   5.207  10.172  0.6295 -0.9241 -1.0065
  614MOL0     H82828  11.699   5.037  10.189 -0.4676 -0.1317  0.5195
  614MOL0     H82829  11.864   5.093  10.374 -0.7027 -1.9764 -1.5712
  614MOL0     H82830  11.819   5.263  10.349  3.0814  0.9538 -2.9412
  614MOL0     H82831  11.952   5.091  10.125 -1.7431  0.7443 -2.8614
  614MOL0     H82832  11.886   5.250  10.118  2.6435 -1.7646 -2.0932
  614MOL0     H82833  12.042   5.353  10.249  1.0804  0.3284 -1.7049
  614MOL0     H82834  12.067   5.220  10.350  0.2697  3.0089  1.2104
  614MOL0     H82835  12.172   5.096  10.161  0.1345  0.4640  1.6052
  614MOL0     H82836  12.144   5.236  10.049 -2.7237 -2.8109 -0.8945
  614MOL0     H82837  12.395   5.222  10.131  0.4916  0.1517 -0.2427
  614MOL0     H82838  12.346   5.206  10.289 -0.8784 -1.3936 -1.1349
  614MOL0     H82839  12.264   5.446  10.115 -1.8973 -3.6804 -0.5713
  614MOL0     H82840  12.240   5.428  10.292  0.3316 -1.4729  2.1406
  614MOL0     H82841  12.489   5.389  10.432  0.9113 -0.7204 -0.9421
  614MOL0     H82842  12.718   5.611  10.499  3.3649  1.1112  0.7354
  614MOL0     H82843  12.747   5.440  10.471  0.2065 -0.3424 -0.3824
  614MOL0     H82844  12.852   5.508  10.249 -3.0816  0.5119  0.1211
  614MOL0     H82845  12.855   5.673  10.297 -0.5466  1.1866  0.0703
  614MOL0     H82846  12.956   5.448  10.467  0.6139  0.7253  0.0601
  614MOL0     H82847  12.939   5.607  10.533 -0.9146 -2.9137  1.8600
  614MOL0     H82848  13.174   5.610  10.471 -0.6237 -1.0518  0.0168
  614MOL0     H82849  13.092   5.680  10.334 -0.7734 -0.4433  0.2853
  614MOL0     H82850  13.306   5.696  10.277 -1.9002 -1.4108 -0.4162
  614MOL0     H82851  13.550   5.703  10.246  1.1468 -0.1454  0.9556
  614MOL0     H82852  13.903   5.212  10.073 -0.1352 -0.3151  0.0497
  614MOL0     H82853  14.136   5.131  10.095  1.0159 -0.0385  0.9808
  614MOL0     H82854  14.450   5.386  10.317 -1.0678 -0.5642 -2.9792
  614MOL0     H82855  14.354   5.293  10.443  1.0905  1.1905  0.0797
  614MOL0     H82856  14.494   5.104  10.401 -3.0538  1.2656  0.2444
  614MOL0     H82857  14.561   5.167  10.251  3.1706 -1.0055  1.7945
  614MOL0     H82858  14.737   5.190  10.444  0.5750  0.3463  0.1875
  614MOL0     H82859  14.711   5.334  10.344 -0.9853  1.1591 -0.1318
  614MOL0     H82860  14.571   5.288  10.601  2.3694 -1.4313  0.9146
  614MOL0     H82861  14.556   5.424  10.490 -0.5416 -1.6870 -0.5460
  614MOL0     H82862  14.710   5.472  10.683 -0.3805 -2.1463  1.0062
  614MOL0     H82863  14.802   5.483  10.518 -0.0078 -3.5993 -3.2101
  614MOL0     H82864  14.816   5.229  10.662  0.8831 -0.8476 -1.0220
  614MOL0     H82865  14.924   5.313  10.558  2.2923  3.0735  0.9732
  614MOL0     H82866  14.871   5.360  10.854 -1.9721 -0.9374 -1.9241
  614MOL0     H82867  14.962   5.485  10.773  0.8589  0.8403  1.5867
  614MOL0     H82868  15.119   5.330  10.881  1.9712 -1.4674 -0.6123
  614MOL0     H82869  15.055   5.200  10.778 -0.7555  0.2309 -1.1577
  614MOL0     H82870  14.203   5.436  10.402 -1.2475  0.5998  0.2289
  614MOL0     H82871  13.973   5.507  10.374 -1.2392 -1.3091  0.9965
  614MOL0     H82872  13.572   5.277  10.239 -0.7747 -0.4956 -3.0185
  614MOL0     H82873  13.335   5.273  10.294 -1.2616  0.9718 -0.1498
  614MOL0     H82874  11.687   4.865  10.629 -0.6492 -0.9793  1.7041
  614MOL0     H82875  11.556   4.808  10.839  2.2452  1.2253  1.0134
  614MOL0     H82876  11.218   4.846  11.086 -1.3102  0.0743  4.4144
  614MOL0     H82877  11.057   4.802  11.257 -0.8135  1.5961  0.2829
  614MOL0     H82878  10.633   4.683  11.301 -0.0803 -0.2667  0.0923
  614MOL0     H82879  10.641   4.705  11.117  2.9200 -0.6971 -0.8598
  614MOL0     H82880  10.717   4.951  11.228 -2.5028  2.1843 -2.1638
  614MOL0     H82881  10.606   4.894  11.351 -0.6181  0.1878  0.0546
  614MOL0     H82882  10.525   4.885  11.062 -0.3442  1.4525 -0.9512
  614MOL0     H82883  10.496   5.021  11.162 -1.7191  0.0754 -1.9850
  614MOL0     H82884  10.372   4.753  11.204 -0.1666 -1.1798  0.3814
  614MOL0     H82885  10.365   4.869  11.331 -0.4825 -1.1137 -0.2217
  614MOL0     H82886  10.093   5.018  11.046  0.8060  2.9271  1.6052
  614MOL0     H82887  10.799   4.603  10.993  1.6380 -2.6126  1.6082
  614MOL0     H82888  10.847   4.578  10.794 -0.1757  1.2201  0.7075
  614MOL0     H82889  10.921   4.697  10.690  2.3215 -0.6228 -1.3319
  614MOL0     H82890  11.016   4.545  10.739  0.8010  0.2278  0.7798
  615MOL0     O82891   2.539   4.724   9.494 -0.7756  0.2374 -0.9061
  615MOL0     C82892   2.448   4.766   9.566 -1.2951  0.3992  0.2489
  615MOL0     O82893   2.468   4.843   9.675  0.2153  0.2668 -0.1114
  615MOL0     C82894   2.599   4.875   9.709  0.0661 -0.1098  0.5439
  615MOL0     C82895   2.631   5.009   9.696 -0.7016  0.1955 -0.0453
  615MOL0     C82896   2.761   5.055   9.733  0.6457  0.2795 -0.0580
  615MOL0     C82897   2.841   4.967   9.810 -0.1758  1.1033 -1.0650
  615MOL0     O82898   2.952   5.008   9.876  0.1037 -0.5508  0.0868
  615MOL0     C82899   2.976   5.146   9.895 -0.1960 -0.0903  0.8405
  615MOL0     C82900   3.051   5.207   9.781 -0.6514 -0.2485  0.7600
  615MOL0     C82901   3.188   5.125   9.759 -0.4924  0.5483 -0.0492
  615MOL0     C82902   3.252   5.200   9.649 -0.0609  0.1402 -0.0602
  615MOL0     C82903   3.383   5.138   9.598 -0.3721  0.1006  0.6852
  615MOL0     C82904   3.458   5.225   9.495  0.4895  0.2960  0.3445
  615MOL0     C82905   3.614   5.214   9.493 -0.2965  0.0359  0.0391
  615MOL0     C82906   3.662   5.071   9.484  0.0160  0.1323  0.2303
  615MOL0     N82907   3.641   4.997   9.353  0.1227 -0.5083  0.9925
  615MOL0     C82908   3.519   4.939   9.319 -0.7722  0.1341 -0.5840
  615MOL0     C82909   3.537   4.899   9.196 -0.2096  0.9892 -0.7998
  615MOL0     C82910   3.435   4.828   9.115  0.1367  0.2410  0.8025
  615MOL0     C82911   3.307   4.914   9.087 -0.5701 -0.4509  0.3682
  615MOL0     C82912   3.327   5.024   8.970  0.4416  0.6560 -0.1155
  615MOL0     C82913   3.361   4.955   8.838  0.1825  0.0567  0.3230
  615MOL0     O82914   3.366   5.053   8.735 -0.3264 -0.0545 -0.0536
  615MOL0     C82915   3.484   5.122   8.725  0.9627  0.5417 -0.1909
  615MOL0     C82916   3.484   5.219   8.627 -0.3407  0.8528 -0.4348
  615MOL0     C82917   3.586   5.308   8.624 -0.1007 -0.0326  0.3717
  615MOL0     C82918   3.709   5.289   8.699  0.3036 -0.3474 -0.1934
  615MOL0     C82919   3.816   5.383   8.671 -0.4096  0.9558 -0.4198
  615MOL0     O82920   3.939   5.347   8.709 -0.4668  0.5462 -0.0497
  615MOL0     C82921   4.039   5.433   8.671 -0.7242 -1.0834  0.4471
  615MOL0     C82922   4.092   5.446   8.536  0.4150 -0.0869  0.5280
  615MOL0     C82923   4.201   5.523   8.506 -0.0993 -0.6860  0.2695
  615MOL0     C82924   4.256   5.605   8.609 -0.6239  0.3088  0.3909
  615MOL0     O82925   4.362   5.684   8.590 -0.1408  0.0476 -0.0712
  615MOL0     C82926   4.467   5.614   8.528  0.2951 -0.3650 -0.2631
  615MOL0     C82927   4.596   5.695   8.551 -0.2448 -0.4683 -0.8319
  615MOL0     C82928   4.720   5.636   8.494  0.2269 -0.1551 -0.2380
  615MOL0     C82929   4.842   5.708   8.571 -1.0266 -0.4127  0.1621
  615MOL0     C82930   4.980   5.635   8.558 -0.5195  0.7855 -0.0791
  615MOL0     C82931   5.050   5.643   8.420 -0.0281 -0.1136  0.8094
  615MOL0     C82932   5.181   5.561   8.402  0.3216 -0.0160  0.0886
  615MOL0     C82933   5.283   5.608   8.503  0.0731 -0.0943 -0.7996
  615MOL0    Cl82934   5.323   5.779   8.484 -0.3567 -0.0290 -0.0722
  615MOL0     C82935   4.204   5.605   8.738 -0.7803  0.6826 -0.6715
  615MOL0     C82936   4.095   5.517   8.769 -0.3407  0.3504  0.5718
  615MOL0     O82937   3.791   5.491   8.617 -0.3262  0.1056  0.3692
  615MOL0     C82938   3.714   5.184   8.786 -0.2437  1.3039 -0.1802
  615MOL0     C82939   3.604   5.104   8.809  0.3773  0.3777  1.7051
  615MOL0     N82940   3.656   4.945   9.142 -0.4864 -0.2278  0.2998
  615MOL0     N82941   3.724   5.000   9.237  0.5761 -0.2331  0.5481
  615MOL0     C82942   2.800   4.838   9.830 -0.8111  0.5180  0.9268
  615MOL0     C82943   2.682   4.787   9.775 -0.2271 -0.1609 -0.4600
  615MOL0     C82944   2.317   4.742   9.517  0.7009 -0.4357 -0.4083
  615MOL0     C82945   2.217   4.840   9.538  0.0677 -0.1124  0.0060
  615MOL0     C82946   2.086   4.833   9.501  0.2893  0.6589  0.0347
  615MOL0     C82947   2.043   4.714   9.443 -0.7349 -0.5448 -0.0894
  615MOL0     O82948   1.915   4.696   9.400 -0.1514 -0.6383 -0.0150
  615MOL0     C82949   1.891   4.643   9.269  0.0837 -0.0349 -0.2688
  615MOL0     C82950   1.747   4.645   9.219  0.1108 -0.7138  0.6365
  615MOL0     C82951   1.657   4.540   9.290 -0.4394 -0.0642  0.2056
  615MOL0     C82952   1.506   4.579   9.277  0.0509 -0.5789  0.6398
  615MOL0     C82953   1.460   4.528   9.151 -0.0797  0.2620  0.0650
  615MOL0     C82954   1.402   4.495   9.054  0.0481  0.4299  0.2788
  615MOL0     C82955   2.131   4.612   9.429 -0.2830  0.0530 -0.7037
  615MOL0     C82956   2.271   4.618   9.462  0.4325 -0.5142 -1.1569
  615MOL0     C82957   2.360   4.505   9.431 -0.8108 -0.2573  0.5932
  615MOL0     H82958   2.553   5.074   9.659 -0.1401  1.9176  1.5827
  615MOL0     H82959   2.787   5.160   9.725  1.6861  0.2464  2.0247
  615MOL0     H82960   2.887   5.209   9.905 -0.3638  0.2723 -1.9673
  615MOL0     H82961   3.032   5.156   9.988 -0.8565  0.8654  1.1400
  615MOL0     H82962   3.069   5.312   9.807  1.4463 -0.3730  0.0341
  615MOL0     H82963   2.986   5.204   9.693  1.8526 -0.3272 -1.2067
  615MOL0     H82964   3.165   5.020   9.735  2.9302 -0.6550  1.2652
  615MOL0     H82965   3.247   5.133   9.850 -1.0313  2.0940  0.1752
  615MOL0     H82966   3.184   5.194   9.564 -1.6711  3.0744  0.8811
  615MOL0     H82967   3.261   5.302   9.687 -4.2046  0.9229 -0.7981
  615MOL0     H82968   3.449   5.128   9.685 -1.9992  2.8403  2.4096
  615MOL0     H82969   3.379   5.039   9.552  3.4689  0.4618 -0.7968
  615MOL0     H82970   3.420   5.196   9.397  1.9720  1.0347 -0.4973
  615MOL0     H82971   3.433   5.331   9.510  2.0894  0.4125  2.8956
  615MOL0     H82972   3.659   5.246   9.588  2.5297 -1.8690 -0.5311
  615MOL0     H82973   3.657   5.274   9.412  0.1146  1.6604  1.3922
  615MOL0     H82974   3.770   5.060   9.500 -0.1379 -1.2993  0.4273
  615MOL0     H82975   3.614   5.007   9.558  0.7995 -2.9630 -1.7284
  615MOL0     H82976   3.432   4.940   9.384 -1.0416  0.7285 -0.9449
  615MOL0     H82977   3.489   4.781   9.033  0.3125 -0.0574  1.0837
  615MOL0     H82978   3.393   4.750   9.180 -1.6335  1.8024  1.6444
  615MOL0     H82979   3.224   4.848   9.059  0.2349 -0.6356 -1.7923
  615MOL0     H82980   3.277   4.967   9.178  1.5581  0.7785  0.4316
  615MOL0     H82981   3.405   5.097   8.992  0.1317  2.2144 -3.5589
  615MOL0     H82982   3.233   5.080   8.969  0.7866  1.2254 -0.8531
  615MOL0     H82983   3.291   4.874   8.816 -0.9259  0.8623  0.7924
  615MOL0     H82984   3.456   4.902   8.842  0.1758  0.0385  0.2408
  615MOL0     H82985   3.397   5.235   8.564 -1.3555  0.1828  0.7490
  615MOL0     H82986   3.581   5.388   8.550 -2.1918  0.6072  1.1410
  615MOL0     H82987   4.042   5.390   8.457  2.2745 -2.5647  0.9822
  615MOL0     H82988   4.240   5.527   8.405 -1.8306 -3.1152 -0.5935
  615MOL0     H82989   4.484   5.512   8.564 -0.6703 -0.7588 -0.8771
  615MOL0     H82990   4.449   5.609   8.420  1.3855 -3.0627 -0.3963
  615MOL0     H82991   4.587   5.788   8.495  0.6395 -0.8036 -1.5548
  615MOL0     H82992   4.609   5.699   8.659 -2.7340 -2.7988 -0.3418
  615MOL0     H82993   4.739   5.533   8.527  0.1320  0.4413  1.7944
  615MOL0     H82994   4.733   5.638   8.385 -1.4736  1.4443 -0.4654
  615MOL0     H82995   4.816   5.705   8.677 -1.0657 -3.3993  0.1455
  615MOL0     H82996   4.846   5.813   8.540  0.5166 -1.5474 -4.2746
  615MOL0     H82997   4.972   5.531   8.591  2.6492 -0.5815 -3.1117
  615MOL0     H82998   5.047   5.677   8.634  1.6268  1.6239 -2.3271
  615MOL0     H82999   4.987   5.596   8.344  0.3290 -0.3364  0.6489
  615MOL0     H83000   5.057   5.749   8.394 -3.0655 -0.2700 -1.0772
  615MOL0     H83001   5.215   5.554   8.298  0.7479 -1.6153  0.3105
  615MOL0     H83002   5.156   5.459   8.434 -1.5021 -1.1469 -4.1331
  615MOL0     H83003   5.246   5.590   8.605  1.4306 -2.1968 -0.6083
  615MOL0     H83004   5.372   5.545   8.494 -0.0148 -0.6238  1.3951
  615MOL0     H83005   4.265   5.650   8.816  2.4032 -0.7873 -2.1160
  615MOL0     H83006   4.066   5.497   8.872 -0.1954 -1.8838  0.2259
  615MOL0     H83007   3.805   5.162   8.842 -0.8346 -0.9063  0.0169
  615MOL0     H83008   3.607   5.033   8.891 -0.3970  0.0169  1.4287
  615MOL0     H83009   2.855   4.765   9.888  1.7941  1.1568 -0.5551
  615MOL0     H83010   2.661   4.681   9.776  3.6092 -1.0546  0.4238
  615MOL0     H83011   2.249   4.934   9.582 -0.6010 -0.0890  0.4547
  615MOL0     H83012   2.012   4.910   9.520 -0.6199 -0.2440  0.2202
  615MOL0     H83013   1.932   4.542   9.261  3.3995  1.2559 -1.5556
  615MOL0     H83014   1.955   4.701   9.201 -0.8290  0.4451 -0.7471
  615MOL0     H83015   1.745   4.627   9.111  1.8408 -1.1708  0.6585
  615MOL0     H83016   1.713   4.749   9.224  1.0768 -0.0358 -3.3767
  615MOL0     H83017   1.679   4.533   9.397 -1.2531 -0.7270  0.3363
  615MOL0     H83018   1.675   4.440   9.251 -2.1905 -0.8170  1.1939
  615MOL0     H83019   1.446   4.540   9.360 -2.0303  0.2719 -0.4206
  615MOL0     H83020   1.491   4.687   9.271  0.4966 -0.5561 -0.0776
  615MOL0     H83021   1.346   4.461   8.969 -1.4893  0.6296  1.1727
  615MOL0     H83022   2.105   4.512   9.396  0.9838 -0.0910 -1.3660
  615MOL0     H83023   2.371   4.444   9.521 -0.6457  2.1547  2.3247
  615MOL0     H83024   2.331   4.440   9.349  1.5053 -0.0984 -0.4153
  615MOL0     H83025   2.456   4.546   9.396 -1.9774  0.5463 -1.9352
  616MOL0     O83026   4.160   5.763   2.203  0.0091 -0.3715 -0.8920
  616MOL0     C83027   4.091   5.846   2.264  0.2278 -0.9494 -0.2093
  616MOL0     O83028   4.138   5.938   2.353 -0.4763  0.4907 -0.3499
  616MOL0     C83029   4.257   5.900   2.400  0.3969  0.4541  0.1800
  616MOL0     C83030   4.272   5.800   2.494  0.0797 -0.0390  1.0634
  616MOL0     C83031   4.395   5.781   2.554 -0.4092  0.3399  0.1759
  616MOL0     C83032   4.512   5.849   2.497  0.2600 -0.2897 -1.0798
  616MOL0     O83033   4.631   5.835   2.563  0.9949 -0.3173 -0.2412
  616MOL0     C83034   4.626   5.812   2.714  0.4546  0.6151  0.7220
  616MOL0     C83035   4.774   5.819   2.768 -0.0434  0.2775 -0.5431
  616MOL0     C83036   4.879   5.735   2.699 -0.6328  0.7441  0.2575
  616MOL0     C83037   4.861   5.590   2.732 -0.1368  0.7361  0.3016
  616MOL0     C83038   4.908   5.563   2.873 -0.6524 -0.2067 -0.0810
  616MOL0     C83039   4.946   5.423   2.899 -0.4903 -0.6707 -0.0377
  616MOL0     C83040   4.825   5.329   2.895 -0.2376 -0.1304 -0.6078
  616MOL0     C83041   4.864   5.180   2.926  0.7657  0.2907  0.7857
  616MOL0     N83042   4.750   5.087   2.942 -1.0070 -0.1593 -0.3423
  616MOL0     C83043   4.655   5.055   2.845 -0.2671  0.4256  0.1578
  616MOL0     C83044   4.587   4.947   2.889  0.6700  0.4720  1.2195
  616MOL0     C83045   4.488   4.862   2.810 -0.2467 -0.1445  0.4269
  616MOL0     C83046   4.355   4.910   2.848 -0.7295 -0.1792  0.0630
  616MOL0     C83047   4.255   4.868   2.742  0.6821  1.1124  0.2507
  616MOL0     C83048   4.104   4.889   2.777  0.9346  0.2002 -0.0073
  616MOL0     O83049   4.085   4.837   2.906 -0.3958  0.1818  0.1156
  616MOL0     C83050   3.964   4.786   2.943 -0.0614  1.3480  0.1752
  616MOL0     C83051   3.950   4.652   2.967  0.8261 -0.3246  0.1704
  616MOL0     C83052   3.826   4.596   3.005  0.2151 -0.1075  0.3186
  616MOL0     C83053   3.712   4.679   3.005  0.5308  0.0961 -0.5886
  616MOL0     C83054   3.578   4.615   3.036 -0.6017 -0.3096  0.4877
  616MOL0     O83055   3.587   4.505   3.109 -0.5286  0.2050 -0.9802
  616MOL0     C83056   3.488   4.444   3.167  0.3056  0.5624  0.2903
  616MOL0     C83057   3.500   4.397   3.302  0.4481  0.1950  0.5846
  616MOL0     C83058   3.387   4.348   3.375 -0.1700 -0.0176 -0.0481
  616MOL0     C83059   3.263   4.348   3.311 -0.0124 -0.3559  0.0149
  616MOL0     O83060   3.150   4.317   3.366  0.6210 -0.0680 -0.6814
  616MOL0     C83061   3.150   4.257   3.501 -0.6694 -1.0469  0.9651
  616MOL0     C83062   3.029   4.165   3.516 -0.0183  0.6286  0.4506
  616MOL0     C83063   2.893   4.232   3.523 -0.5086 -0.9274  0.1830
  616MOL0     C83064   2.786   4.123   3.562 -0.0684  1.2564  1.2069
  616MOL0     C83065   2.659   4.203   3.599 -0.3394 -0.5991  0.1187
  616MOL0     C83066   2.533   4.118   3.638 -0.1127  0.6422  0.0270
  616MOL0     C83067   2.407   4.197   3.663 -0.5466 -0.7126  0.6925
  616MOL0     C83068   2.292   4.106   3.697  0.4563  0.0822  0.0155
  616MOL0    Cl83069   2.144   4.203   3.733  0.0011  0.2793 -0.1729
  616MOL0     C83070   3.253   4.386   3.178  0.0881  0.4081 -0.6182
  616MOL0     C83071   3.356   4.434   3.103 -0.6090  0.6827  0.6456
  616MOL0     O83072   3.475   4.667   2.989  0.4413  0.2140  0.1286
  616MOL0     C83073   3.720   4.809   2.966 -0.5793 -0.1329 -0.3811
  616MOL0     C83074   3.847   4.858   2.928 -0.0353 -1.1387 -0.4003
  616MOL0     N83075   4.635   4.905   3.012 -1.1907 -0.0073 -0.4780
  616MOL0     N83076   4.738   4.985   3.039  0.6378  0.9812  0.1373
  616MOL0     C83077   4.493   5.929   2.381  0.0523 -0.1316  0.4719
  616MOL0     C83078   4.364   5.971   2.346  0.1917  0.8708  0.3295
  616MOL0     C83079   3.953   5.862   2.230 -0.1661  0.3376  0.5834
  616MOL0     C83080   3.899   5.768   2.134  0.2333 -0.4798 -0.6559
  616MOL0     C83081   3.769   5.770   2.091  0.2165  0.3986 -0.3341
  616MOL0     C83082   3.682   5.857   2.148 -0.2957 -1.2781  0.3011
  616MOL0     O83083   3.552   5.863   2.112  0.1613  0.1387 -0.2256
  616MOL0     C83084   3.459   5.860   2.222  0.4801  0.3091 -1.0719
  616MOL0     C83085   3.330   5.779   2.196 -0.2807 -0.0647 -0.1118
  616MOL0     C83086   3.352   5.659   2.095  0.1880  0.4110 -0.2404
  616MOL0     C83087   3.219   5.583   2.095  0.9014  0.3069 -0.1631
  616MOL0     C83088   3.114   5.648   2.009 -0.6668 -0.2848 -0.2645
  616MOL0     C83089   3.045   5.707   1.921 -0.3784  0.2528 -0.4736
  616MOL0     C83090   3.721   5.955   2.234 -1.1351  0.0161  0.2990
  616MOL0     C83091   3.857   5.963   2.276  0.2786 -0.6902 -0.0053
  616MOL0     C83092   3.881   6.092   2.353 -0.5152 -0.1362 -0.8251
  616MOL0     H83093   4.180   5.750   2.520  0.8666 -1.0329  2.0306
  616MOL0     H83094   4.398   5.712   2.638  3.3120 -1.8005 -1.4697
  616MOL0     H83095   4.560   5.886   2.760  0.2181  1.6984 -1.2441
  616MOL0     H83096   4.582   5.712   2.726  0.5569  0.1056 -2.3639
  616MOL0     H83097   4.760   5.798   2.874  2.5900 -0.9732 -0.3738
  616MOL0     H83098   4.804   5.925   2.769  0.6902  0.0901  1.2405
  616MOL0     H83099   4.983   5.762   2.714 -0.2757  0.3301 -1.2526
  616MOL0     H83100   4.882   5.769   2.595  0.1490  4.4507  1.3474
  616MOL0     H83101   4.760   5.548   2.730  0.6535 -1.5672  2.5528
  616MOL0     H83102   4.924   5.536   2.661 -0.1343 -0.7927  1.4235
  616MOL0     H83103   4.997   5.625   2.889 -0.7821  0.5889 -2.1622
  616MOL0     H83104   4.843   5.597   2.954  3.0253  4.1902  1.4360
  616MOL0     H83105   5.023   5.393   2.827 -0.8739 -1.3493 -0.1728
  616MOL0     H83106   4.998   5.414   2.995 -1.7801  1.6953  0.9631
  616MOL0     H83107   4.781   5.350   2.797  1.1165  3.0876 -0.6700
  616MOL0     H83108   4.743   5.364   2.959 -0.7533  0.3225 -1.4955
  616MOL0     H83109   4.912   5.141   2.836  0.2059  2.3941 -0.5040
  616MOL0     H83110   4.936   5.178   3.009  3.0770  1.5761 -1.0545
  616MOL0     H83111   4.639   5.102   2.749 -0.1282 -1.3152 -0.7593
  616MOL0     H83112   4.510   4.863   2.702  0.0192 -3.1242  0.3731
  616MOL0     H83113   4.504   4.758   2.839  2.2744 -0.5877 -2.0679
  616MOL0     H83114   4.329   4.883   2.950 -0.0218  2.1038  0.9178
  616MOL0     H83115   4.352   5.020   2.850 -4.0276 -0.2121  1.7527
  616MOL0     H83116   4.265   4.759   2.736  0.0023  1.1257 -2.3084
  616MOL0     H83117   4.284   4.912   2.646 -1.2976 -0.6659 -1.2632
  616MOL0     H83118   4.044   4.832   2.705  1.8119 -1.4869  0.5609
  616MOL0     H83119   4.077   4.995   2.775 -2.5938 -0.5740 -0.8708
  616MOL0     H83120   4.030   4.579   2.964  2.2470  0.8404  3.8737
  616MOL0     H83121   3.824   4.489   3.025 -2.1274  0.1049  1.6500
  616MOL0     H83122   3.600   4.399   3.345  1.4792 -3.7092 -1.2441
  616MOL0     H83123   3.408   4.325   3.479  0.8052  0.9011 -0.0205
  616MOL0     H83124   3.246   4.206   3.515  2.4169  4.3585  2.6443
  616MOL0     H83125   3.155   4.343   3.569  1.3871 -0.4187  0.1249
  616MOL0     H83126   3.030   4.095   3.432  1.3218  3.1031 -1.7241
  616MOL0     H83127   3.038   4.107   3.608  0.0688  0.0556  0.0884
  616MOL0     H83128   2.892   4.309   3.600 -0.8384  1.7741 -2.3449
  616MOL0     H83129   2.868   4.276   3.426 -1.3236  2.6962  1.8997
  616MOL0     H83130   2.824   4.055   3.639  0.0316 -0.0672  0.0442
  616MOL0     H83131   2.759   4.071   3.469 -1.1524  0.9678  1.6775
  616MOL0     H83132   2.627   4.265   3.515  1.5954 -0.6527 -0.7050
  616MOL0     H83133   2.677   4.274   3.680 -5.1314  3.6131 -1.9594
  616MOL0     H83134   2.519   4.048   3.555 -1.5873 -0.7040  1.3541
  616MOL0     H83135   2.560   4.067   3.730 -0.0317 -0.9274 -0.8348
  616MOL0     H83136   2.380   4.261   3.578 -0.9988  0.7900  1.9194
  616MOL0     H83137   2.415   4.268   3.746 -5.0357 -0.5809  1.2428
  616MOL0     H83138   2.261   4.045   3.611  0.9120  0.8464 -0.7018
  616MOL0     H83139   2.321   4.042   3.781  1.2801  0.0137 -0.3147
  616MOL0     H83140   3.150   4.379   3.144  0.4130 -0.6029 -1.4353
  616MOL0     H83141   3.342   4.466   3.000 -0.5673  0.0244  0.4277
  616MOL0     H83142   3.630   4.868   2.952 -1.2576 -0.9804  0.3001
  616MOL0     H83143   3.855   4.957   2.886 -1.3407 -0.0518  1.7547
  616MOL0     H83144   4.580   5.984   2.347 -2.7034  2.6448 -2.8962
  616MOL0     H83145   4.364   6.060   2.285  3.7010  0.4023 -0.6267
  616MOL0     H83146   3.960   5.696   2.080  0.0603 -0.1960 -1.2373
  616MOL0     H83147   3.732   5.698   2.018 -2.2902 -1.2924  2.3888
  616MOL0     H83148   3.424   5.960   2.249  1.8688 -0.0217  2.5406
  616MOL0     H83149   3.509   5.817   2.309 -1.3733 -0.3008 -0.2700
  616MOL0     H83150   3.256   5.844   2.149 -2.3834  0.2305  3.2042
  616MOL0     H83151   3.276   5.742   2.284 -2.7100 -1.9032 -2.2089
  616MOL0     H83152   3.434   5.598   2.134 -0.0264  0.5967  0.5286
  616MOL0     H83153   3.376   5.696   1.995  0.6399  2.3108  0.5368
  616MOL0     H83154   3.258   5.487   2.061  0.7347  0.6555 -1.3762
  616MOL0     H83155   3.179   5.573   2.196  2.3116 -2.0691  0.2459
  616MOL0     H83156   2.975   5.759   1.859 -2.0800 -0.5763  0.6972
  616MOL0     H83157   3.646   6.025   2.269 -2.8483 -1.8446  0.5119
  616MOL0     H83158   3.783   6.139   2.365 -0.8739 -0.5236 -2.0521
  616MOL0     H83159   3.933   6.078   2.448 -1.3907  1.2739 -0.0981
  616MOL0     H83160   3.944   6.155   2.288 -1.0214  0.9406 -0.2965
  617MOL0     O83161   5.110   7.348   6.983 -0.4809 -0.4340  0.0724
  617MOL0     C83162   5.147   7.309   6.875  0.2545 -0.0009 -0.1113
  617MOL0     O83163   5.275   7.312   6.839 -0.7270 -0.2242 -0.8287
  617MOL0     C83164   5.373   7.241   6.909  1.0052  0.3132 -0.1471
  617MOL0     C83165   5.336   7.137   7.003 -0.0140  0.5209  0.1344
  617MOL0     C83166   5.430   7.067   7.075 -0.3991 -0.4801 -0.5488
  617MOL0     C83167   5.569   7.096   7.053  0.5711 -0.0269 -0.3263
  617MOL0     O83168   5.668   7.031   7.115 -0.3619 -0.4887 -0.2932
  617MOL0     C83169   5.638   6.898   7.156  0.8737 -0.4237  0.1767
  617MOL0     C83170   5.767   6.823   7.219  0.1347 -0.5020 -0.8435
  617MOL0     C83171   5.847   6.893   7.315 -0.5169  0.3026 -0.0958
  617MOL0     C83172   5.989   6.828   7.334 -0.3988  0.7624  0.4414
  617MOL0     C83173   6.075   6.888   7.442 -0.0043 -0.4857  0.4707
  617MOL0     C83174   6.033   6.852   7.581 -0.2643  0.4175  0.3243
  617MOL0     C83175   6.139   6.925   7.677 -0.2834  0.0092  0.7231
  617MOL0     C83176   6.131   6.901   7.833 -0.6439  0.0170 -0.2939
  617MOL0     N83177   6.231   6.982   7.902 -0.5240 -0.0847  0.0498
  617MOL0     C83178   6.242   7.115   7.888  0.4070 -0.5950 -0.1355
  617MOL0     C83179   6.366   7.145   7.934  0.7088  0.1323  0.8820
  617MOL0     C83180   6.418   7.284   7.944  0.2190  0.2098  0.3478
  617MOL0     C83181   6.380   7.318   8.089  0.1451  0.0819 -0.1061
  617MOL0     C83182   6.455   7.454   8.125  0.6110  0.3629 -0.3908
  617MOL0     C83183   6.411   7.510   8.261  0.0241  0.6239 -0.2072
  617MOL0     O83184   6.461   7.634   8.305  0.0698 -0.4679  0.2208
  617MOL0     C83185   6.586   7.649   8.343 -0.2794 -0.5408  0.1390
  617MOL0     C83186   6.648   7.572   8.444  1.0050 -0.1642 -0.1504
  617MOL0     C83187   6.786   7.573   8.460 -0.2954  0.8064 -0.0330
  617MOL0     C83188   6.862   7.662   8.391  0.1019 -0.2247 -0.2696
  617MOL0     C83189   7.013   7.664   8.416  0.2136  0.1636 -0.8429
  617MOL0     O83190   7.081   7.740   8.328  0.3903  0.7407  0.2349
  617MOL0     C83191   7.204   7.771   8.368  0.2936  0.6317  0.6435
  617MOL0     C83192   7.220   7.861   8.470 -0.1610 -0.8566  0.5985
  617MOL0     C83193   7.342   7.893   8.530 -0.6315  0.1038  0.6473
  617MOL0     C83194   7.459   7.840   8.474 -0.4836  0.4534 -0.3351
  617MOL0     O83195   7.580   7.867   8.533  0.5581  0.0950  0.6541
  617MOL0     C83196   7.609   8.000   8.575 -0.6881  0.3211 -0.1900
  617MOL0     C83197   7.754   8.019   8.600 -0.2445  0.3146  0.2042
  617MOL0     C83198   7.790   8.169   8.637  0.3014 -0.2545  0.4840
  617MOL0     C83199   7.938   8.217   8.676  0.3000 -0.2725 -0.0117
  617MOL0     C83200   7.948   8.367   8.717  0.0894 -0.9286  0.0338
  617MOL0     C83201   8.058   8.424   8.803 -0.4973  0.3838 -0.0706
  617MOL0     C83202   8.030   8.419   8.947  0.2754  1.0962 -0.1587
  617MOL0     C83203   8.149   8.469   9.016 -0.0806  1.1742  0.1813
  617MOL0    Cl83204   8.284   8.351   8.996 -0.1561 -0.4850 -0.3400
  617MOL0     C83205   7.447   7.760   8.358 -0.1489  0.0857  0.1700
  617MOL0     C83206   7.317   7.720   8.312 -0.2420  0.8988 -0.2846
  617MOL0     O83207   7.053   7.618   8.519 -0.0029  0.0160 -0.1118
  617MOL0     C83208   6.801   7.754   8.302  0.1539 -0.4468  0.5952
  617MOL0     C83209   6.663   7.750   8.279  0.6667 -0.4312 -0.0680
  617MOL0     N83210   6.430   7.034   7.970  0.4479 -0.1698  0.6950
  617MOL0     N83211   6.354   6.934   7.951  0.7059 -0.5144  0.3279
  617MOL0     C83212   5.603   7.202   6.968  0.1515  0.7462  0.3314
  617MOL0     C83213   5.509   7.272   6.887  0.5273 -0.2122 -0.1578
  617MOL0     C83214   5.043   7.283   6.765 -0.2643 -0.4117 -0.9539
  617MOL0     C83215   5.036   7.374   6.659 -0.0467  0.7959  0.4248
  617MOL0     C83216   4.930   7.361   6.569 -0.3367 -0.1831  0.3227
  617MOL0     C83217   4.846   7.250   6.573 -0.4555  0.3950  0.6755
  617MOL0     O83218   4.755   7.237   6.478 -0.2110 -0.4775 -0.1056
  617MOL0     C83219   4.622   7.200   6.521  0.3554 -0.2365 -0.2197
  617MOL0     C83220   4.515   7.242   6.417  0.2330  0.9409 -0.5003
  617MOL0     C83221   4.402   7.140   6.434  0.0261 -0.3009 -0.2841
  617MOL0     C83222   4.271   7.172   6.374 -0.0673  0.2631 -0.0059
  617MOL0     C83223   4.168   7.067   6.411 -0.4202  0.2100  0.3407
  617MOL0     C83224   4.086   6.987   6.439 -0.9800 -0.6748  0.0532
  617MOL0     C83225   4.864   7.157   6.677  0.2553  0.1903 -0.0093
  617MOL0     C83226   4.957   7.176   6.774 -0.5169  0.3720 -0.6367
  617MOL0     C83227   4.972   7.063   6.866 -0.5210  0.0536 -0.4628
  617MOL0     H83228   5.232   7.112   7.022  0.3202  0.5803  2.2160
  617MOL0     H83229   5.390   6.996   7.148  0.3879 -0.7746 -0.3909
  617MOL0     H83230   5.562   6.900   7.235  0.0746  0.7266 -0.5920
  617MOL0     H83231   5.601   6.841   7.070 -4.0612  1.4437  0.7128
  617MOL0     H83232   5.825   6.795   7.131 -0.8123 -1.1139 -1.2903
  617MOL0     H83233   5.737   6.730   7.270 -0.5689  0.3938  0.4523
  617MOL0     H83234   5.806   6.894   7.416 -0.3490 -1.6102  0.0384
  617MOL0     H83235   5.857   6.995   7.277 -1.3772  0.4286  0.0020
  617MOL0     H83236   5.961   6.723   7.352 -1.2844  0.6845 -1.1802
  617MOL0     H83237   6.035   6.828   7.235 -0.2576 -1.2820  0.4484
  617MOL0     H83238   6.177   6.848   7.437  0.6761  0.0869  5.1069
  617MOL0     H83239   6.092   6.995   7.430  4.8527 -0.8709  1.7809
  617MOL0     H83240   5.932   6.881   7.613 -0.8471  0.0141 -1.0559
  617MOL0     H83241   6.041   6.744   7.590  0.4094  0.3566 -0.7895
  617MOL0     H83242   6.130   7.032   7.658  1.0171  0.1471  0.8247
  617MOL0     H83243   6.239   6.886   7.654 -0.7031 -1.5792  1.4621
  617MOL0     H83244   6.027   6.913   7.865 -0.8880  0.0104 -1.0520
  617MOL0     H83245   6.167   6.800   7.850 -0.1729 -0.0818 -1.6988
  617MOL0     H83246   6.166   7.188   7.861 -0.1366 -0.6569  1.1385
  617MOL0     H83247   6.527   7.290   7.931  0.4116 -0.2977  1.6360
  617MOL0     H83248   6.368   7.349   7.870  2.2900  0.2796 -1.0822
  617MOL0     H83249   6.271   7.326   8.094  0.3297  2.0736  2.4563
  617MOL0     H83250   6.412   7.242   8.162  1.7513 -0.8482 -1.7021
  617MOL0     H83251   6.438   7.521   8.041  3.0834 -2.6600 -3.6221
  617MOL0     H83252   6.563   7.437   8.130  0.5727  0.3433  0.6866
  617MOL0     H83253   6.437   7.438   8.340  2.0706  0.6385 -0.8140
  617MOL0     H83254   6.301   7.512   8.263 -0.0241 -0.7303  1.8137
  617MOL0     H83255   6.593   7.498   8.499  1.1402  0.5635  1.0013
  617MOL0     H83256   6.834   7.497   8.522  3.0778  0.0416 -3.2535
  617MOL0     H83257   7.130   7.906   8.510 -0.8399 -1.4082 -0.2711
  617MOL0     H83258   7.331   7.968   8.609 -3.0185  0.4632  0.0687
  617MOL0     H83259   7.574   8.065   8.494 -1.7933  1.2618  0.9936
  617MOL0     H83260   7.556   8.032   8.666  0.7367 -0.4876  0.9640
  617MOL0     H83261   7.782   7.962   8.690 -0.0118 -0.3756 -0.2975
  617MOL0     H83262   7.812   7.983   8.515 -1.2970  0.4125 -0.5739
  617MOL0     H83263   7.736   8.232   8.566 -1.6177 -3.0534 -0.7613
  617MOL0     H83264   7.730   8.173   8.728 -1.3137  2.9377 -0.5820
  617MOL0     H83265   8.018   8.215   8.601  0.6856  1.0622  0.3165
  617MOL0     H83266   7.956   8.160   8.768 -1.0963  0.7399  0.9402
  617MOL0     H83267   7.853   8.391   8.767  0.3157  0.1562 -0.0222
  617MOL0     H83268   7.952   8.420   8.622 -0.2169 -0.7916  0.0966
  617MOL0     H83269   8.154   8.376   8.783 -1.2677 -2.4805  2.3493
  617MOL0     H83270   8.069   8.530   8.776  0.6174  0.3607  0.2377
  617MOL0     H83271   8.007   8.316   8.977 -0.9061  1.8663  1.7593
  617MOL0     H83272   7.952   8.494   8.968  0.5494  1.6194 -0.9590
  617MOL0     H83273   8.191   8.565   8.983  0.9695 -0.1009 -2.5408
  617MOL0     H83274   8.121   8.486   9.120 -1.2633  0.1427  0.0514
  617MOL0     H83275   7.541   7.721   8.319 -0.1885 -1.5528  1.6039
  617MOL0     H83276   7.299   7.658   8.225 -0.9058  0.5837  0.0730
  617MOL0     H83277   6.867   7.822   8.249 -0.0557 -1.7159 -1.4069
  617MOL0     H83278   6.616   7.817   8.208  0.5284 -1.1497 -0.6668
  617MOL0     H83279   5.708   7.225   6.957  0.3428 -0.1234  0.2558
  617MOL0     H83280   5.547   7.333   6.807  1.9272 -0.1298  0.5430
  617MOL0     H83281   5.123   7.438   6.648 -0.8195  1.7762 -0.1696
  617MOL0     H83282   4.909   7.431   6.488  2.2619  1.8165  1.2320
  617MOL0     H83283   4.600   7.241   6.620  0.9468 -2.1580  0.7605
  617MOL0     H83284   4.619   7.091   6.529 -2.3780 -0.3118 -1.2797
  617MOL0     H83285   4.567   7.242   6.321  1.4326 -0.0337  0.1291
  617MOL0     H83286   4.470   7.340   6.439  0.3171  0.9314 -0.2788
  617MOL0     H83287   4.375   7.119   6.538  0.4748 -3.7123 -0.7396
  617MOL0     H83288   4.422   7.042   6.390 -3.6893 -1.2863 -0.1552
  617MOL0     H83289   4.234   7.271   6.402  2.0764  0.8925  0.7931
  617MOL0     H83290   4.297   7.168   6.268  3.6883 -1.6399  0.7994
  617MOL0     H83291   4.026   6.903   6.469 -0.2444 -1.8785 -1.6963
  617MOL0     H83292   4.800   7.069   6.677  0.8853 -0.2798 -0.7756
  617MOL0     H83293   5.078   7.044   6.881 -0.6627  0.9137  2.1509
  617MOL0     H83294   4.936   7.093   6.965 -2.9024  0.9987 -1.5325
  617MOL0     H83295   4.928   6.970   6.831  3.4798 -2.5286  0.7155
  618MOL0     O83296  10.903   2.505   9.413 -0.4876  0.2960 -0.4156
  618MOL0     C83297  10.911   2.477   9.537 -0.1523  0.1553  0.1021
  618MOL0     O83298  11.034   2.453   9.599  0.9102  0.1079 -0.1450
  618MOL0     C83299  11.143   2.433   9.524  0.1212  0.5073 -0.0193
  618MOL0     C83300  11.270   2.466   9.583 -0.5163 -0.7045  0.6572
  618MOL0     C83301  11.390   2.444   9.516 -0.6727 -0.2624  0.4228
  618MOL0     C83302  11.384   2.390   9.386  0.0912  0.2094  0.1460
  618MOL0     O83303  11.505   2.369   9.315  0.0825  0.2015 -0.4762
  618MOL0     C83304  11.505   2.365   9.169 -0.6523 -0.4183 -0.4768
  618MOL0     C83305  11.511   2.217   9.134  1.0928 -0.2808 -0.0565
  618MOL0     C83306  11.646   2.138   9.142  0.2338  0.3820  0.4150
  618MOL0     C83307  11.633   1.984   9.144 -0.2814 -0.1770 -0.0831
  618MOL0     C83308  11.764   1.919   9.124 -1.1247  0.3241  0.7249
  618MOL0     C83309  11.874   1.976   9.203 -0.5779  0.2591 -0.0114
  618MOL0     C83310  11.997   1.889   9.206 -0.6314 -0.3810  0.4519
  618MOL0     C83311  12.068   1.887   9.075 -0.4254  1.3499  0.6012
  618MOL0     N83312  12.140   1.757   9.053 -0.7146  0.0735 -0.5453
  618MOL0     C83313  12.119   1.653   8.962 -0.3955  0.0379 -0.2965
  618MOL0     C83314  12.223   1.574   8.998 -0.8131  0.2607  0.4171
  618MOL0     C83315  12.255   1.444   8.928 -0.0781  0.8494  0.4645
  618MOL0     C83316  12.300   1.329   9.021  0.8422 -0.1176  0.0014
  618MOL0     C83317  12.180   1.245   9.063 -0.0587  0.3691  0.1048
  618MOL0     C83318  12.082   1.313   9.162 -0.4670  0.4373  1.5549
  618MOL0     O83319  11.997   1.379   9.065  0.2555 -0.7212 -0.5831
  618MOL0     C83320  11.879   1.436   9.113 -0.2297  0.6625 -1.0616
  618MOL0     C83321  11.831   1.450   9.249 -0.7031  0.4280  0.2118
  618MOL0     C83322  11.711   1.518   9.266  0.1894  0.1497  0.2089
  618MOL0     C83323  11.634   1.559   9.148 -0.2220  0.1652  0.3327
  618MOL0     C83324  11.505   1.631   9.158 -0.2786 -0.7927  0.7046
  618MOL0     O83325  11.462   1.661   9.286  0.3485  0.0449  0.3931
  618MOL0     C83326  11.348   1.732   9.308  0.2687 -0.0687  0.0616
  618MOL0     C83327  11.341   1.829   9.405  0.0943  0.2001  0.3632
  618MOL0     C83328  11.243   1.922   9.428 -0.0803 -0.3917 -0.2713
  618MOL0     C83329  11.125   1.911   9.350 -0.0920 -0.3288 -0.0040
  618MOL0     O83330  11.022   1.995   9.369  0.4425 -0.3649 -0.6341
  618MOL0     C83331  10.910   2.000   9.279  0.3222 -0.9314 -0.6153
  618MOL0     C83332  10.810   2.110   9.313 -0.0823 -0.0469 -0.0482
  618MOL0     C83333  10.661   2.090   9.293 -0.0124 -0.4238  0.6265
  618MOL0     C83334  10.599   2.044   9.426  0.8019  0.0260 -0.1614
  618MOL0     C83335  10.444   2.037   9.412 -0.1693  0.6036  0.9125
  618MOL0     C83336  10.389   1.934   9.521 -0.5466 -0.6203  0.1332
  618MOL0     C83337  10.239   1.906   9.522 -0.4140 -0.4899  0.8974
  618MOL0     C83338  10.206   1.769   9.579  0.1513  0.5224 -0.5738
  618MOL0    Cl83339  10.249   1.629   9.485 -0.1935  0.0107  0.2202
  618MOL0     C83340  11.123   1.820   9.241 -0.2162  0.3200  0.3565
  618MOL0     C83341  11.231   1.730   9.225 -0.7091  0.4589 -0.1826
  618MOL0     O83342  11.452   1.666   9.051 -0.3187 -1.6712 -0.0569
  618MOL0     C83343  11.683   1.535   9.018 -0.2369 -0.0636  0.3189
  618MOL0     C83344  11.808   1.482   9.008 -0.7657 -0.0352 -0.7419
  618MOL0     N83345  12.289   1.623   9.110 -0.7746  0.1963  0.7778
  618MOL0     N83346  12.242   1.740   9.138 -0.0581  0.5185 -0.1115
  618MOL0     C83347  11.260   2.355   9.323  0.1476  0.3740  0.3290
  618MOL0     C83348  11.143   2.374   9.397  0.1398  0.3491  0.5333
  618MOL0     C83349  10.793   2.494   9.628  0.6748 -0.5822 -0.3002
  618MOL0     C83350  10.813   2.523   9.762 -0.0893 -0.1893 -0.5315
  618MOL0     C83351  10.704   2.562   9.838 -0.2998 -0.3917  0.4297
  618MOL0     C83352  10.573   2.572   9.785 -0.2202  0.1527  0.2256
  618MOL0     O83353  10.454   2.599   9.853 -0.1573  0.0993 -0.2801
  618MOL0     C83354  10.472   2.667   9.984  0.5632  0.1956 -0.4067
  618MOL0     C83355  10.341   2.734  10.014 -0.1448 -0.2677 -0.4766
  618MOL0     C83356  10.221   2.645  10.048  1.0762  0.6232 -0.0034
  618MOL0     C83357  10.090   2.712  10.064 -0.4883  0.4939 -0.8976
  618MOL0     C83358   9.990   2.603  10.089  0.5103 -0.2367 -0.0439
  618MOL0     C83359   9.922   2.525  10.147 -0.4878 -0.0846  0.0034
  618MOL0     C83360  10.551   2.517   9.662 -0.9379  0.3594  0.7862
  618MOL0     C83361  10.661   2.486   9.582 -0.0668 -0.5474 -0.6713
  618MOL0     C83362  10.621   2.413   9.451  0.0824  1.0033 -0.0189
  618MOL0     H83363  11.267   2.512   9.682 -3.0015 -3.0738  1.8137
  618MOL0     H83364  11.484   2.481   9.557  0.5267 -1.9625 -0.6765
  618MOL0     H83365  11.421   2.411   9.115 -0.4402 -1.2491 -1.5465
  618MOL0     H83366  11.595   2.413   9.129 -2.3099  2.8535 -0.6406
  618MOL0     H83367  11.484   2.215   9.028  2.1443 -1.5057 -0.3174
  618MOL0     H83368  11.441   2.154   9.189  1.1953 -2.5285 -2.3271
  618MOL0     H83369  11.684   2.166   9.241  1.9084  2.8972 -0.8285
  618MOL0     H83370  11.701   2.165   9.051  0.5371 -1.7710 -0.0959
  618MOL0     H83371  11.592   1.960   9.243  3.1828  0.4107  1.6404
  618MOL0     H83372  11.556   1.949   9.073 -0.4710 -0.2803  0.1711
  618MOL0     H83373  11.756   1.812   9.145  2.8976  0.0148  1.5399
  618MOL0     H83374  11.789   1.927   9.018  2.5385 -0.9855  1.3339
  618MOL0     H83375  11.903   2.075   9.168 -1.1322  0.2858 -0.4110
  618MOL0     H83376  11.850   1.971   9.309 -0.7113 -3.5117 -0.0666
  618MOL0     H83377  11.962   1.788   9.229 -1.0930 -0.7726 -1.7169
  618MOL0     H83378  12.071   1.915   9.282  0.7294 -4.0243  0.6040
  618MOL0     H83379  11.995   1.902   8.994 -1.0409  0.3356  0.9547
  618MOL0     H83380  12.133   1.973   9.056  2.5677 -0.2384  2.9179
  618MOL0     H83381  12.054   1.648   8.876  0.6518  0.6835 -1.1641
  618MOL0     H83382  12.165   1.408   8.877 -0.7476  2.1225  0.7161
  618MOL0     H83383  12.339   1.473   8.864 -0.4980  1.4628  0.1863
  618MOL0     H83384  12.367   1.258   8.970 -0.4388 -0.7956 -0.7742
  618MOL0     H83385  12.347   1.368   9.112 -1.0241  0.5581  0.7087
  618MOL0     H83386  12.223   1.155   9.109  1.5943  1.0680 -0.0360
  618MOL0     H83387  12.129   1.203   8.975 -1.7339 -0.8940  1.5955
  618MOL0     H83388  12.138   1.386   9.221 -1.1833  1.8538  0.5451
  618MOL0     H83389  12.029   1.236   9.219  0.9230 -0.2790  1.9380
  618MOL0     H83390  11.901   1.416   9.324 -0.4845 -0.7834 -0.5068
  618MOL0     H83391  11.688   1.523   9.372  1.6108 -0.2566  0.5699
  618MOL0     H83392  11.436   1.823   9.457  0.1881  0.8496  0.2765
  618MOL0     H83393  11.249   1.989   9.513 -1.0703  0.9852 -1.2403
  618MOL0     H83394  10.940   2.014   9.175  3.6569  0.0324  0.3385
  618MOL0     H83395  10.862   1.902   9.290 -0.0851 -0.7263 -0.5556
  618MOL0     H83396  10.832   2.123   9.419 -0.7043 -1.0982  0.2147
  618MOL0     H83397  10.836   2.200   9.255  2.0530 -0.5698  0.0093
  618MOL0     H83398  10.611   2.183   9.264  3.0318  0.0346 -4.3848
  618MOL0     H83399  10.650   2.024   9.207 -1.4189 -0.1105  0.5438
  618MOL0     H83400  10.627   2.117   9.502  3.5664 -5.2116  4.6216
  618MOL0     H83401  10.638   1.946   9.457  4.6846  1.1726 -0.9087
  618MOL0     H83402  10.419   1.996   9.314  0.6039  1.6194  0.2695
  618MOL0     H83403  10.394   2.134   9.410  0.3998  0.8924  0.6359
  618MOL0     H83404  10.443   1.841   9.499 -1.5135 -0.7903 -1.7636
  618MOL0     H83405  10.417   1.960   9.623 -2.5662 -1.3967  0.9324
  618MOL0     H83406  10.210   1.920   9.417 -4.2435  1.0008  1.9890
  618MOL0     H83407  10.181   1.986   9.568 -1.6555  1.9006 -4.0721
  618MOL0     H83408  10.251   1.768   9.679 -0.0080  0.2228 -0.5034
  618MOL0     H83409  10.098   1.777   9.593  0.2904  2.4603 -0.3704
  618MOL0     H83410  11.042   1.813   9.169 -3.1325 -1.2906  3.4709
  618MOL0     H83411  11.231   1.664   9.139  1.8264  3.6224 -2.9241
  618MOL0     H83412  11.637   1.569   8.926 -2.1827  1.4583  1.7416
  618MOL0     H83413  11.864   1.482   8.914 -1.3687 -0.7605 -1.1124
  618MOL0     H83414  11.247   2.311   9.224  0.1736  3.3020 -1.0748
  618MOL0     H83415  11.050   2.338   9.355  1.7342 -1.6904 -1.5413
  618MOL0     H83416  10.917   2.528   9.793  0.5566 -4.0616 -1.6059
  618MOL0     H83417  10.723   2.605   9.936  0.1695 -0.6172  0.4416
  618MOL0     H83418  10.558   2.735   9.976 -1.2816  2.4304 -3.1130
  618MOL0     H83419  10.513   2.602  10.061 -1.0374 -0.5860 -0.1855
  618MOL0     H83420  10.323   2.803   9.931  0.5924 -1.2615 -1.4958
  618MOL0     H83421  10.354   2.803  10.097  0.2555 -0.3221 -0.4909
  618MOL0     H83422  10.243   2.585  10.137  2.7504  2.5086  0.9458
  618MOL0     H83423  10.197   2.583   9.961  0.7204  3.8492 -2.3717
  618MOL0     H83424  10.080   2.770  10.156 -1.7021 -2.0560  0.6878
  618MOL0     H83425  10.066   2.759   9.968 -0.2541 -1.1997 -1.8162
  618MOL0     H83426   9.842   2.477  10.200 -0.4224 -0.9351 -0.6564
  618MOL0     H83427  10.448   2.503   9.632 -1.2704 -2.5679  2.8866
  618MOL0     H83428  10.693   2.333   9.432 -1.5911 -0.2987 -1.2842
  618MOL0     H83429  10.524   2.362   9.451  0.8527 -0.7252 -3.4194
  618MOL0     H83430  10.623   2.482   9.366  1.6227  1.0967  0.0766
  619MOL0     O83431   8.617   7.762   9.262  0.3914  0.3477 -0.4958
  619MOL0     C83432   8.546   7.758   9.159 -0.3852 -0.5772  0.4892
  619MOL0     O83433   8.586   7.821   9.042 -0.4948  0.7380  0.2146
  619MOL0     C83434   8.698   7.892   9.051  0.4350 -0.4620 -0.4180
  619MOL0     C83435   8.822   7.852   9.001 -0.1825  0.6907  0.1201
  619MOL0     C83436   8.931   7.944   9.004 -0.3249 -0.1113 -0.3222
  619MOL0     C83437   8.924   8.078   9.037  0.4548  0.7338  0.3615
  619MOL0     O83438   9.030   8.163   9.021  0.3160  0.4501  0.0585
  619MOL0     C83439   9.031   8.297   9.065 -0.4769 -0.1238 -0.0574
  619MOL0     C83440   9.141   8.385   9.007  0.3453 -0.5290 -0.3669
  619MOL0     C83441   9.286   8.360   9.055 -0.4266  0.1591 -0.0103
  619MOL0     C83442   9.365   8.496   9.053  0.9942  0.5527 -0.5705
  619MOL0     C83443   9.517   8.468   9.071 -0.6567 -0.0599 -0.5389
  619MOL0     C83444   9.594   8.603   9.088 -0.0285  0.5482 -0.0426
  619MOL0     C83445   9.735   8.584   9.114 -1.0112 -0.1505 -0.1256
  619MOL0     C83446   9.825   8.701   9.101 -0.1330  0.4188  0.4818
  619MOL0     N83447   9.971   8.662   9.098  0.7545 -0.7412  0.3514
  619MOL0     C83448  10.046   8.631   9.209 -0.1901  0.1897 -0.1554
  619MOL0     C83449  10.172   8.632   9.161 -0.0661 -0.8078  0.0632
  619MOL0     C83450  10.286   8.581   9.250 -0.4259 -0.6768  0.1858
  619MOL0     C83451  10.419   8.573   9.163 -0.2075  0.2640 -0.2502
  619MOL0     C83452  10.532   8.493   9.229 -0.6696 -0.4292  0.1521
  619MOL0     C83453  10.564   8.549   9.365  0.2691 -0.8903  1.0327
  619MOL0     O83454  10.686   8.511   9.419  1.2692  0.5453  0.3701
  619MOL0     C83455  10.805   8.558   9.379  0.9748  0.1190  1.0164
  619MOL0     C83456  10.839   8.639   9.270 -0.0285  0.0225 -0.8813
  619MOL0     C83457  10.972   8.676   9.236  0.3938 -0.1920 -0.2198
  619MOL0     C83458  11.077   8.621   9.313  0.9520  0.2242  0.5119
  619MOL0     C83459  11.215   8.651   9.286 -0.4638  0.4828  0.7283
  619MOL0     O83460  11.254   8.717   9.169 -0.3888  0.3393  1.4190
  619MOL0     C83461  11.385   8.750   9.168  0.3120 -0.2439 -0.8256
  619MOL0     C83462  11.488   8.678   9.119 -0.7750 -0.5459  0.8220
  619MOL0     C83463  11.619   8.720   9.140  0.0300 -0.3575  0.2964
  619MOL0     C83464  11.638   8.843   9.197 -0.4281  0.4447  0.1432
  619MOL0     O83465  11.764   8.889   9.231 -0.1838 -0.1797  0.4135
  619MOL0     C83466  11.785   8.969   9.353  1.0538 -0.3408  0.2842
  619MOL0     C83467  11.934   8.980   9.384  0.2629  0.0761  0.5269
  619MOL0     C83468  12.006   9.061   9.271  0.8470  0.3925 -0.5508
  619MOL0     C83469  12.151   9.087   9.321  0.1466  0.4774  0.6898
  619MOL0     C83470  12.194   9.207   9.236  0.3109 -0.1920  0.0873
  619MOL0     C83471  12.340   9.253   9.262  0.1355 -0.1823  1.2980
  619MOL0     C83472  12.367   9.387   9.187 -0.4143  0.2319 -0.5529
  619MOL0     C83473  12.515   9.431   9.199 -0.3510  0.0803  0.5786
  619MOL0    Cl83474  12.550   9.551   9.064  0.4194  0.4067 -0.0238
  619MOL0     C83475  11.530   8.923   9.230 -0.1798 -0.4046 -0.4915
  619MOL0     C83476  11.405   8.872   9.226  0.4736 -0.4985 -0.8728
  619MOL0     O83477  11.291   8.622   9.381 -0.0038 -0.8269  1.0450
  619MOL0     C83478  11.040   8.543   9.420 -1.2591 -0.0060 -0.6084
  619MOL0     C83479  10.910   8.511   9.456  0.0740  0.4150  0.1205
  619MOL0     N83480  10.170   8.667   9.026  0.4685  0.2946  0.1261
  619MOL0     N83481  10.051   8.683   8.989 -0.2150  0.6331  0.2854
  619MOL0     C83482   8.799   8.114   9.086  0.5074 -0.2671 -0.1459
  619MOL0     C83483   8.687   8.028   9.093  0.0118  0.0836  0.0820
  619MOL0     C83484   8.420   7.670   9.148 -0.4483 -0.0946  0.1787
  619MOL0     C83485   8.335   7.702   9.043 -0.7831 -0.2028 -0.4376
  619MOL0     C83486   8.227   7.628   9.009  0.9945 -1.3277  0.3648
  619MOL0     C83487   8.182   7.525   9.096 -0.0918  0.2973  0.1054
  619MOL0     O83488   8.073   7.446   9.086  0.2528 -0.0107  0.3867
  619MOL0     C83489   8.027   7.427   8.949  0.4704 -0.3065 -0.1273
  619MOL0     C83490   7.927   7.304   8.946 -0.4148 -0.0875 -0.1462
  619MOL0     C83491   7.813   7.327   9.050  0.3907  0.0559 -0.4292
  619MOL0     C83492   7.691   7.244   9.030 -0.1457  0.4252 -0.3821
  619MOL0     C83493   7.620   7.300   8.912 -0.2377  0.7494 -1.0966
  619MOL0     C83494   7.578   7.351   8.812  0.5296  0.1051  0.2112
  619MOL0     C83495   8.259   7.496   9.202  0.9871 -1.1049  0.1624
  619MOL0     C83496   8.379   7.561   9.230 -1.4953 -1.1887 -0.2037
  619MOL0     C83497   8.475   7.509   9.338 -0.4148 -0.1049  0.2042
  619MOL0     H83498   8.832   7.754   8.956  2.4049  2.3567 -3.4852
  619MOL0     H83499   9.033   7.933   8.968 -0.3159  0.3599 -0.4384
  619MOL0     H83500   8.937   8.349   9.044 -1.7734 -0.7061  3.4652
  619MOL0     H83501   9.039   8.291   9.174 -0.2927  0.8541 -0.0115
  619MOL0     H83502   9.105   8.483   9.041  1.9880 -0.9597  3.0721
  619MOL0     H83503   9.142   8.386   8.897  0.6812 -0.5648 -0.3658
  619MOL0     H83504   9.331   8.276   9.002  2.0324  0.9472  0.6745
  619MOL0     H83505   9.283   8.326   9.159 -3.6829  0.0820 -0.0069
  619MOL0     H83506   9.353   8.544   8.955  2.7906  1.1133 -0.5490
  619MOL0     H83507   9.333   8.561   9.135 -0.1910 -1.2874  0.5196
  619MOL0     H83508   9.537   8.417   9.166 -0.4072  0.0433 -0.5354
  619MOL0     H83509   9.556   8.409   8.988  2.6157 -0.6391  1.2525
  619MOL0     H83510   9.574   8.659   8.997 -1.6007 -2.9619 -2.0686
  619MOL0     H83511   9.534   8.650   9.167 -1.9610 -2.0900  0.1982
  619MOL0     H83512   9.777   8.502   9.055 -0.4048  0.8095 -1.0496
  619MOL0     H83513   9.748   8.551   9.218 -0.7352 -1.7733 -0.6510
  619MOL0     H83514   9.796   8.749   9.008 -0.7367 -0.2326  0.3246
  619MOL0     H83515   9.815   8.775   9.181 -1.6853 -0.8235  1.5037
  619MOL0     H83516  10.000   8.625   9.307 -3.4117 -0.7384 -1.5931
  619MOL0     H83517  10.296   8.643   9.339  0.1749  1.0920 -1.0435
  619MOL0     H83518  10.267   8.479   9.286  0.8659 -2.1227 -2.8063
  619MOL0     H83519  10.390   8.527   9.069 -1.6530  1.4687 -0.4308
  619MOL0     H83520  10.447   8.674   9.131 -0.3957 -0.8333 -4.4424
  619MOL0     H83521  10.616   8.486   9.160 -2.2699 -0.6345 -1.8878
  619MOL0     H83522  10.497   8.392   9.252 -3.4678  0.7423  1.6503
  619MOL0     H83523  10.480   8.534   9.433  0.0739  1.1603  1.3120
  619MOL0     H83524  10.575   8.657   9.352 -2.6045 -0.8031 -1.9861
  619MOL0     H83525  10.753   8.683   9.220  1.4243  2.7262 -1.1800
  619MOL0     H83526  10.975   8.747   9.154  0.3124 -2.1863 -2.0436
  619MOL0     H83527  11.460   8.595   9.055 -0.8856  1.5766 -2.0219
  619MOL0     H83528  11.709   8.664   9.113 -1.0782 -2.4747  0.7676
  619MOL0     H83529  11.744   9.069   9.338 -0.8117 -0.5856  2.9987
  619MOL0     H83530  11.729   8.933   9.439  0.6520 -1.3213 -0.3777
  619MOL0     H83531  11.931   9.041   9.474 -3.1372  0.2435  0.4354
  619MOL0     H83532  11.976   8.882   9.407 -2.5553 -0.6435  3.1579
  619MOL0     H83533  12.010   9.006   9.176 -0.1847  0.8977 -0.8949
  619MOL0     H83534  11.950   9.153   9.253 -1.3039 -0.6057  0.6394
  619MOL0     H83535  12.216   8.999   9.310  1.3549  1.6330 -3.5373
  619MOL0     H83536  12.164   9.120   9.424  3.2564 -1.3822  1.0267
  619MOL0     H83537  12.122   9.286   9.257 -0.0072 -0.0916 -1.2880
  619MOL0     H83538  12.194   9.191   9.127 -0.3632  2.6151 -0.3954
  619MOL0     H83539  12.364   9.276   9.366  4.7505 -0.8812  0.5838
  619MOL0     H83540  12.408   9.176   9.225 -1.4777 -1.8149  1.5800
  619MOL0     H83541  12.300   9.462   9.229  0.5734  1.6390 -1.4191
  619MOL0     H83542  12.337   9.374   9.083 -1.2550 -2.6400 -0.0610
  619MOL0     H83543  12.533   9.469   9.300 -1.4161  1.8255  0.1524
  619MOL0     H83544  12.581   9.346   9.181  0.6567  1.1131 -0.7657
  619MOL0     H83545  11.544   9.026   9.261 -1.4471  0.4576 -2.5999
  619MOL0     H83546  11.325   8.926   9.275  1.6890  0.8198 -0.2740
  619MOL0     H83547  11.122   8.496   9.475 -1.8604 -0.4717 -0.1020
  619MOL0     H83548  10.889   8.444   9.538  0.4874 -1.2899 -1.1130
  619MOL0     H83549   8.783   8.218   9.111  0.3026 -0.1873 -0.6046
  619MOL0     H83550   8.584   8.056   9.116 -1.0376 -1.8783 -1.8604
  619MOL0     H83551   8.357   7.793   8.988 -0.7108 -0.2985 -0.5705
  619MOL0     H83552   8.162   7.658   8.928 -0.5830 -0.4707  1.8898
  619MOL0     H83553   8.105   7.402   8.877 -2.5448 -0.0836 -3.7985
  619MOL0     H83554   7.976   7.521   8.926  0.5914 -0.0605  0.5800
  619MOL0     H83555   7.972   7.207   8.970 -1.5260 -0.7300 -0.5923
  619MOL0     H83556   7.879   7.299   8.848 -1.2900  0.5216  0.2444
  619MOL0     H83557   7.790   7.434   9.055  0.1655 -0.0249  0.3649
  619MOL0     H83558   7.856   7.291   9.144  3.0366  0.2855 -1.4670
  619MOL0     H83559   7.733   7.147   9.003  2.6957  1.1071  1.2245
  619MOL0     H83560   7.642   7.246   9.128  1.0041  1.5615  0.1926
  619MOL0     H83561   7.535   7.391   8.722  0.6494 -1.1280 -0.4285
  619MOL0     H83562   8.224   7.407   9.252 -1.2962 -0.4528 -0.1596
  619MOL0     H83563   8.569   7.482   9.290 -1.0379 -0.9118 -0.5929
  619MOL0     H83564   8.507   7.575   9.420  2.8952 -1.2619 -0.0227
  619MOL0     H83565   8.436   7.422   9.391 -2.4136  0.4391 -0.2442
  620MOL0     O83566   5.634  10.020   4.577  0.2584  0.4741 -0.2590
  620MOL0     C83567   5.581  10.037   4.682 -0.1901  0.2102 -0.4626
  620MOL0     O83568   5.641  10.070   4.802  0.5423  0.7215  0.2724
  620MOL0     C83569   5.778  10.086   4.817  0.0051  0.4333 -1.1625
  620MOL0     C83570   5.825  10.127   4.943 -0.0418  0.8893  0.3777
  620MOL0     C83571   5.959  10.135   4.981  0.0885 -0.3713 -0.4941
  620MOL0     C83572   6.056  10.120   4.881  0.6693  0.2338  0.4523
  620MOL0     O83573   6.183  10.141   4.917  0.2213 -0.1085 -0.0512
  620MOL0     C83574   6.293  10.091   4.833 -0.7324  0.5575  0.8797
  620MOL0     C83575   6.357   9.971   4.915  0.4583  1.3083  0.7048
  620MOL0     C83576   6.452   9.883   4.838  0.2624 -0.0220 -0.2650
  620MOL0     C83577   6.585   9.957   4.821  0.3201 -0.2478  0.3925
  620MOL0     C83578   6.697   9.892   4.891 -0.1173 -0.0620 -0.7409
  620MOL0     C83579   6.832   9.977   4.885  0.0425  0.3833 -0.1987
  620MOL0     C83580   6.952   9.941   4.982 -0.0564 -0.2332  0.0735
  620MOL0     C83581   6.909   9.966   5.128 -0.3753 -0.3739 -0.6397
  620MOL0     N83582   7.003   9.902   5.221  0.2319 -0.3108  0.1400
  620MOL0     C83583   7.141   9.913   5.220  0.5804  0.0366 -0.7110
  620MOL0     C83584   7.179   9.854   5.343 -0.1784  0.1709 -0.3948
  620MOL0     C83585   7.322   9.816   5.386  0.4601  0.8926 -0.6004
  620MOL0     C83586   7.377   9.895   5.498  0.8473 -0.3498 -0.2370
  620MOL0     C83587   7.527   9.898   5.504 -0.0387  0.5279  0.8176
  620MOL0     C83588   7.584   9.927   5.641 -0.5293  0.4422 -0.4896
  620MOL0     O83589   7.573  10.059   5.676  0.4950 -0.0434  0.3874
  620MOL0     C83590   7.664  10.152   5.628 -0.0713  0.1738  0.0630
  620MOL0     C83591   7.619  10.279   5.646 -1.4573 -0.5003 -0.5457
  620MOL0     C83592   7.704  10.386   5.616 -0.0757 -0.4288 -0.2919
  620MOL0     C83593   7.827  10.370   5.545  0.5750  0.4151 -0.3462
  620MOL0     C83594   7.918  10.478   5.519 -0.9976  0.0378 -0.2613
  620MOL0     O83595   8.040  10.441   5.466 -0.3062  0.5589  0.1313
  620MOL0     C83596   8.112  10.542   5.408  0.9891 -1.1612 -0.3830
  620MOL0     C83597   8.240  10.563   5.451  0.8560  0.2157  0.1797
  620MOL0     C83598   8.315  10.652   5.389  0.6077  0.0164 -0.2292
  620MOL0     C83599   8.263  10.734   5.283  0.7109  0.3454 -0.8945
  620MOL0     O83600   8.333  10.840   5.223 -0.3432  0.4312  0.2614
  620MOL0     C83601   8.473  10.852   5.246  0.2831  0.3093  0.2274
  620MOL0     C83602   8.536  10.966   5.163 -0.0172  0.4918  0.2575
  620MOL0     C83603   8.679  10.999   5.204  0.1380  0.3334  0.8954
  620MOL0     C83604   8.722  11.132   5.136 -1.1195  0.0752  0.2135
  620MOL0     C83605   8.865  11.154   5.201  0.2228  0.4911 -0.3170
  620MOL0     C83606   8.945  11.262   5.134 -0.3388  0.8165 -0.4582
  620MOL0     C83607   8.873  11.396   5.168 -0.0413 -0.3681 -0.1356
  620MOL0     C83608   8.942  11.515   5.106  0.0478  0.3235  0.0596
  620MOL0    Cl83609   9.118  11.527   5.151 -0.0862 -0.2072 -0.1465
  620MOL0     C83610   8.134  10.708   5.244  0.2409  0.3580  0.2050
  620MOL0     C83611   8.054  10.612   5.303  0.6247  0.4416  1.1757
  620MOL0     O83612   7.893  10.588   5.565  0.0826 -0.1035 -0.1144
  620MOL0     C83613   7.853  10.234   5.500  0.1900 -0.0656 -0.5733
  620MOL0     C83614   7.775  10.127   5.550  0.2023 -0.1152 -0.3679
  620MOL0     N83615   7.068   9.819   5.412  0.0121 -0.6822 -0.2997
  620MOL0     N83616   6.963   9.843   5.346 -0.1108  0.2074  0.7317
  620MOL0     C83617   6.013  10.079   4.750 -0.3005 -0.1986 -0.1873
  620MOL0     C83618   5.877  10.074   4.719  0.3424  0.3179 -0.5543
  620MOL0     C83619   5.431  10.014   4.691 -0.5878 -0.1206  0.1815
  620MOL0     C83620   5.361  10.022   4.819 -0.3687 -0.1768  0.4052
  620MOL0     C83621   5.227   9.993   4.829  0.7677  0.6123  0.7440
  620MOL0     C83622   5.145   9.970   4.719  0.5402  0.1586 -0.1667
  620MOL0     O83623   5.011   9.947   4.744  0.1133 -0.8412 -0.3827
  620MOL0     C83624   4.944   9.825   4.693 -0.4752  0.2886  0.4834
  620MOL0     C83625   4.801   9.850   4.718 -0.0550 -0.8615 -0.0979
  620MOL0     C83626   4.758   9.816   4.857  0.0007 -0.5577 -0.2502
  620MOL0     C83627   4.854   9.865   4.965  0.1034 -0.2753 -0.1596
  620MOL0     C83628   4.809   9.807   5.096  0.5332 -0.5543  0.9595
  620MOL0     C83629   4.764   9.776   5.202  0.1883 -0.9608 -0.9612
  620MOL0     C83630   5.208   9.980   4.590  0.2767  0.4863 -0.1148
  620MOL0     C83631   5.344   9.992   4.575 -0.1380  0.1732 -0.4530
  620MOL0     C83632   5.385   9.981   4.431 -0.8134 -0.6025  0.1474
  620MOL0     H83633   5.751  10.156   5.017  0.9939  1.4994  1.2049
  620MOL0     H83634   5.995  10.179   5.073  2.4325  0.6910 -1.8146
  620MOL0     H83635   6.261  10.048   4.738 -1.4017  1.2583  0.7832
  620MOL0     H83636   6.367  10.169   4.815 -0.2147  0.1647  1.2429
  620MOL0     H83637   6.273   9.904   4.933  1.0789  0.1700 -0.4359
  620MOL0     H83638   6.399  10.012   5.007  0.4250  0.2977  1.1823
  620MOL0     H83639   6.417   9.864   4.736  2.3622  0.3560 -1.1090
  620MOL0     H83640   6.464   9.786   4.888 -1.2605 -0.0125  0.1526
  620MOL0     H83641   6.611   9.966   4.715  1.7249 -1.0769  0.6263
  620MOL0     H83642   6.585  10.059   4.859 -2.0538  0.6763 -1.8288
  620MOL0     H83643   6.673   9.879   4.997  0.5077 -3.0941 -0.8618
  620MOL0     H83644   6.734   9.800   4.843  2.0145  0.6880 -0.6406
  620MOL0     H83645   6.855   9.978   4.778  0.1355 -0.0951 -0.1839
  620MOL0     H83646   6.812  10.082   4.909  2.2615  0.2379  2.8247
  620MOL0     H83647   7.040   9.997   4.949 -2.8351  1.8291 -5.0231
  620MOL0     H83648   6.981   9.836   4.968 -1.6319 -0.9518  1.7098
  620MOL0     H83649   6.924  10.073   5.146  0.0775  0.0010 -3.0118
  620MOL0     H83650   6.805   9.937   5.148  0.3538 -3.0370 -0.2758
  620MOL0     H83651   7.209   9.938   5.140  2.4118 -0.7589  0.5303
  620MOL0     H83652   7.330   9.708   5.403  1.9468  0.9851 -0.6026
  620MOL0     H83653   7.381   9.830   5.295 -2.0509 -0.3276 -2.5422
  620MOL0     H83654   7.349  10.001   5.490  5.0334  1.0997  1.5315
  620MOL0     H83655   7.329   9.854   5.587  2.6481  0.3837  1.1288
  620MOL0     H83656   7.560   9.977   5.437 -1.5763  0.0334 -0.5980
  620MOL0     H83657   7.564   9.803   5.464 -0.0784  1.3909 -1.4315
  620MOL0     H83658   7.686   9.887   5.643  0.6274  3.0786 -1.6179
  620MOL0     H83659   7.536   9.868   5.720 -0.9991  1.6591  0.1513
  620MOL0     H83660   7.523  10.303   5.690 -0.2901  3.2502  0.3731
  620MOL0     H83661   7.663  10.486   5.630  1.6167  0.1332  1.0539
  620MOL0     H83662   8.269  10.509   5.541  3.7144  1.7942  0.3377
  620MOL0     H83663   8.417  10.659   5.425  0.1002  2.8016  0.8495
  620MOL0     H83664   8.488  10.874   5.353  1.2001  0.5313  0.0616
  620MOL0     H83665   8.519  10.757   5.218 -1.0403 -0.1655 -0.4063
  620MOL0     H83666   8.519  10.937   5.059 -1.3508  1.0781  0.2945
  620MOL0     H83667   8.470  11.052   5.175  0.7676  1.1675 -0.2133
  620MOL0     H83668   8.680  10.993   5.313  0.4391 -1.0335  0.8327
  620MOL0     H83669   8.743  10.919   5.166 -0.7019 -1.1607  2.4888
  620MOL0     H83670   8.647  11.209   5.154 -3.1976 -0.1565 -5.5112
  620MOL0     H83671   8.727  11.109   5.029 -2.9709 -2.3786  0.5667
  620MOL0     H83672   8.918  11.058   5.190  0.3230  0.7206 -2.0866
  620MOL0     H83673   8.857  11.175   5.308 -4.1287 -0.4654 -0.2436
  620MOL0     H83674   9.052  11.267   5.154  0.2824 -0.4483 -3.0155
  620MOL0     H83675   8.938  11.255   5.025  0.4058  2.5936 -0.6613
  620MOL0     H83676   8.897  11.397   5.275 -1.2547  2.0450  0.1888
  620MOL0     H83677   8.766  11.409   5.151 -0.2182 -1.2733  0.2316
  620MOL0     H83678   8.928  11.505   4.998  2.1400 -0.5081 -0.1906
  620MOL0     H83679   8.900  11.613   5.130  0.1583  0.5057 -0.4805
  620MOL0     H83680   8.100  10.766   5.159 -1.8693 -0.5233  0.3782
  620MOL0     H83681   7.955  10.588   5.264  1.0053  0.3942  0.2149
  620MOL0     H83682   7.940  10.204   5.442  0.5827  1.0969 -0.6144
  620MOL0     H83683   7.804  10.024   5.533  1.7445  0.0147  1.1582
  620MOL0     H83684   6.090  10.071   4.674  0.2851 -5.6433  0.5716
  620MOL0     H83685   5.851  10.043   4.618 -3.2844 -0.3438  0.4317
  620MOL0     H83686   5.429  10.052   4.898 -1.3027 -5.1268  3.4928
  620MOL0     H83687   5.188   9.990   4.930  1.6765 -2.7651  1.1167
  620MOL0     H83688   4.985   9.740   4.750  0.4421  2.1225  2.7087
  620MOL0     H83689   4.955   9.812   4.585 -1.9013  4.3369 -0.2966
  620MOL0     H83690   4.735   9.786   4.659 -0.5754 -1.4707  1.1011
  620MOL0     H83691   4.779   9.954   4.695  2.8748 -0.1329  0.0017
  620MOL0     H83692   4.755   9.707   4.866 -0.7676 -0.4364  1.6345
  620MOL0     H83693   4.662   9.864   4.882  0.3864 -0.9620  2.3286
  620MOL0     H83694   4.947   9.809   4.955 -0.2854 -0.7246 -1.3674
  620MOL0     H83695   4.875   9.972   4.973  1.1796 -0.4683 -0.2402
  620MOL0     H83696   4.722   9.765   5.300  3.2181  0.3206  0.6059
  620MOL0     H83697   5.146   9.969   4.501 -1.0315 -0.2863  0.8608
  620MOL0     H83698   5.437   9.888   4.406  0.5482  1.0493 -4.1831
  620MOL0     H83699   5.298   9.998   4.366 -1.6166 -1.4613  0.9675
  620MOL0     H83700   5.457  10.063   4.422 -2.7037  1.4459  2.1748
  621MOL0     O83701   7.870   1.781   9.055 -0.3489  1.1548 -0.2247
  621MOL0     C83702   7.796   1.871   9.097  0.2907 -0.3341 -0.2339
  621MOL0     O83703   7.817   1.940   9.214 -0.8466 -0.5208 -0.8416
  621MOL0     C83704   7.947   1.924   9.267 -0.3252  0.3357  0.6561
  621MOL0     C83705   8.031   2.033   9.243 -0.5697  0.0910 -0.5162
  621MOL0     C83706   8.169   2.033   9.291 -0.8456  0.2223 -0.1293
  621MOL0     C83707   8.207   1.921   9.371 -0.2507  0.1047  1.2857
  621MOL0     O83708   8.337   1.917   9.403 -0.4955 -0.5646  0.0278
  621MOL0     C83709   8.365   1.877   9.539  0.6404 -0.3013  0.0999
  621MOL0     C83710   8.407   1.733   9.550  0.3192  0.1728  0.0497
  621MOL0     C83711   8.553   1.716   9.492 -0.1716  0.3614  0.6103
  621MOL0     C83712   8.582   1.567   9.452 -0.1990 -0.2015 -0.3195
  621MOL0     C83713   8.735   1.534   9.454  1.3166 -0.4077 -1.0664
  621MOL0     C83714   8.822   1.647   9.394 -0.4121  0.3208 -0.7816
  621MOL0     C83715   8.971   1.592   9.389  0.3953 -0.1536  0.0030
  621MOL0     C83716   9.070   1.689   9.346 -0.7509  0.7254 -0.3194
  621MOL0     N83717   9.209   1.635   9.321  0.1146 -1.1279 -0.4756
  621MOL0     C83718   9.261   1.510   9.314  0.3483  1.1434 -0.2748
  621MOL0     C83719   9.397   1.520   9.316  0.4089 -0.1795  0.7172
  621MOL0     C83720   9.489   1.406   9.312 -0.3250 -0.0312  0.0159
  621MOL0     C83721   9.495   1.344   9.170  0.2268  0.0611 -0.4027
  621MOL0     C83722   9.612   1.247   9.156  0.0188  0.2224 -0.3497
  621MOL0     C83723   9.653   1.201   9.024 -0.5206 -0.0551  0.3485
  621MOL0     O83724   9.652   1.302   8.917 -0.5150  0.0570 -0.3650
  621MOL0     C83725   9.762   1.312   8.841 -1.8387 -0.1281 -0.0782
  621MOL0     C83726   9.787   1.444   8.793 -0.1747  0.2537 -0.7631
  621MOL0     C83727   9.904   1.481   8.722 -0.4390  0.1846  0.4596
  621MOL0     C83728   9.994   1.381   8.694 -0.9132  0.0765  0.6983
  621MOL0     C83729  10.119   1.421   8.614  0.2610  0.6044 -0.5860
  621MOL0     O83730  10.156   1.558   8.621  0.0488  0.8265  0.0291
  621MOL0     C83731  10.276   1.580   8.563 -0.2665 -0.4856 -0.2680
  621MOL0     C83732  10.281   1.616   8.426  0.2034 -0.6693 -0.6704
  621MOL0     C83733  10.397   1.676   8.375 -0.4918 -0.4648  0.4298
  621MOL0     C83734  10.512   1.697   8.451  0.1095 -0.4464 -0.5489
  621MOL0     O83735  10.623   1.745   8.400  0.1267  0.5058 -0.4480
  621MOL0     C83736  10.613   1.843   8.299  0.4835  0.0558  0.1779
  621MOL0     C83737  10.742   1.925   8.297  0.9729  0.6179 -0.0635
  621MOL0     C83738  10.749   2.003   8.169  0.2697  0.4531  0.2186
  621MOL0     C83739  10.833   2.129   8.187  0.5791 -0.4272  0.3891
  621MOL0     C83740  10.791   2.240   8.093  0.7755  0.0730  0.1085
  621MOL0     C83741  10.839   2.378   8.135  0.5182 -0.0280  0.1900
  621MOL0     C83742  10.989   2.383   8.180  0.8754  1.0354  1.0517
  621MOL0     C83743  11.019   2.508   8.262 -0.1122 -0.0625 -0.1191
  621MOL0    Cl83744  10.976   2.476   8.436  0.3020  0.5471 -0.3108
  621MOL0     C83745  10.512   1.646   8.587  0.3036  1.1678  0.0675
  621MOL0     C83746  10.390   1.598   8.643  1.7057 -0.4891  0.2825
  621MOL0     O83747  10.198   1.331   8.580  0.8510  0.3160  0.8763
  621MOL0     C83748   9.969   1.251   8.739  1.0121 -0.1518 -0.1692
  621MOL0     C83749   9.856   1.208   8.814 -0.1210 -0.2075 -0.7936
  621MOL0     N83750   9.426   1.655   9.317 -0.2287 -0.7079  0.6402
  621MOL0     N83751   9.319   1.722   9.322  0.2470  0.5087  0.0443
  621MOL0     C83752   8.117   1.816   9.411  0.1361  0.1196 -0.1454
  621MOL0     C83753   7.990   1.821   9.351  0.7047 -0.0998  0.1875
  621MOL0     C83754   7.673   1.905   9.020 -1.3279  0.0144  1.1145
  621MOL0     C83755   7.574   1.980   9.091 -1.0317  0.2070 -0.0224
  621MOL0     C83756   7.457   2.007   9.020 -0.1539  0.2702 -0.5759
  621MOL0     C83757   7.435   1.977   8.888  0.5073 -0.5919  0.0209
  621MOL0     O83758   7.311   1.996   8.833  0.1582 -0.0655  0.7176
  621MOL0     C83759   7.286   1.982   8.695 -0.1652  0.6951 -0.6795
  621MOL0     C83760   7.135   1.996   8.663  0.6070 -0.4129  0.1993
  621MOL0     C83761   7.081   2.126   8.729 -0.5200 -0.0192  0.0878
  621MOL0     C83762   6.944   2.164   8.677 -0.9008  0.0497 -0.9420
  621MOL0     C83763   6.853   2.059   8.731  0.6209  0.6606 -0.2012
  621MOL0     C83764   6.786   1.968   8.779 -0.6061  0.6838  0.4628
  621MOL0     C83765   7.541   1.921   8.819 -0.2292 -0.1904 -0.1494
  621MOL0     C83766   7.659   1.876   8.880 -0.1159 -0.2861 -0.0564
  621MOL0     C83767   7.762   1.798   8.797 -0.5561  0.0288 -0.2917
  621MOL0     H83768   7.996   2.115   9.180  2.0187  0.9825 -0.9097
  621MOL0     H83769   8.238   2.113   9.270  0.3452 -0.8301 -0.3636
  621MOL0     H83770   8.454   1.928   9.578  0.2858 -0.1371  0.7137
  621MOL0     H83771   8.288   1.905   9.612  3.7032  1.4521  2.9464
  621MOL0     H83772   8.330   1.674   9.499 -0.1739  0.4387  0.4754
  621MOL0     H83773   8.410   1.708   9.657  1.1606 -0.0542 -0.0251
  621MOL0     H83774   8.626   1.729   9.573  2.5060  0.3186 -1.6536
  621MOL0     H83775   8.567   1.770   9.398  0.3081 -1.8800 -0.6782
  621MOL0     H83776   8.539   1.505   9.530 -1.4046  0.6447 -0.2893
  621MOL0     H83777   8.524   1.549   9.362 -0.2272 -0.3918 -0.2622
  621MOL0     H83778   8.756   1.507   9.557 -1.2554  0.1032 -0.3334
  621MOL0     H83779   8.735   1.444   9.391 -2.5730  0.5174 -2.7016
  621MOL0     H83780   8.794   1.669   9.291  0.7700 -2.6950 -1.8484
  621MOL0     H83781   8.817   1.739   9.454 -1.3106 -1.4639  2.0780
  621MOL0     H83782   8.986   1.501   9.330  0.7651  2.0159 -3.5679
  621MOL0     H83783   8.996   1.561   9.491 -1.7823 -2.2018  0.0041
  621MOL0     H83784   9.037   1.746   9.258 -1.5292 -1.5118 -1.5437
  621MOL0     H83785   9.081   1.747   9.438 -0.5011  0.4410 -0.1694
  621MOL0     H83786   9.206   1.417   9.308 -1.0748  2.0042 -1.7254
  621MOL0     H83787   9.587   1.448   9.338  0.9223 -3.0474  0.6236
  621MOL0     H83788   9.451   1.337   9.388 -0.9910 -0.5399 -0.7695
  621MOL0     H83789   9.400   1.303   9.136 -0.4025  1.2900 -0.1777
  621MOL0     H83790   9.506   1.428   9.101 -0.5447 -0.0718 -0.6936
  621MOL0     H83791   9.602   1.163   9.225  3.3768 -0.1396 -0.1460
  621MOL0     H83792   9.698   1.303   9.195  1.6179 -1.6517 -1.0280
  621MOL0     H83793   9.587   1.122   8.986  0.9013 -0.5354 -1.3011
  621MOL0     H83794   9.748   1.147   9.038 -0.7902 -0.3062  1.2569
  621MOL0     H83795   9.708   1.515   8.813  1.1578  1.6046 -0.1075
  621MOL0     H83796   9.909   1.580   8.677 -1.1890  0.4218  0.8746
  621MOL0     H83797  10.189   1.624   8.368 -1.0322  0.6137  1.3467
  621MOL0     H83798  10.394   1.713   8.273  0.5416 -3.8517 -0.9608
  621MOL0     H83799  10.592   1.803   8.200 -0.4827  0.6071  0.1506
  621MOL0     H83800  10.537   1.909   8.342  1.2782  0.2579  1.3333
  621MOL0     H83801  10.740   1.989   8.386  0.6866  2.1147 -1.0932
  621MOL0     H83802  10.829   1.860   8.305  0.3709 -0.2043 -0.1210
  621MOL0     H83803  10.806   1.949   8.093  3.9063  3.3104  0.6290
  621MOL0     H83804  10.653   2.038   8.130  0.1619  1.9100  1.6750
  621MOL0     H83805  10.939   2.105   8.175  1.1664  0.5557  2.9818
  621MOL0     H83806  10.818   2.165   8.289 -2.0302 -0.5486  0.1258
  621MOL0     H83807  10.683   2.252   8.106  0.9902 -0.2008  2.6280
  621MOL0     H83808  10.809   2.217   7.987  2.4116 -2.7367  0.9054
  621MOL0     H83809  10.831   2.447   8.050  0.9977  0.1849  0.3118
  621MOL0     H83810  10.772   2.405   8.217  2.3448 -0.8613  2.0533
  621MOL0     H83811  11.049   2.380   8.089 -0.1894  1.7973  0.2942
  621MOL0     H83812  11.015   2.300   8.247 -0.2853  0.5054  0.8798
  621MOL0     H83813  11.125   2.532   8.259  0.1740 -1.3826 -1.5837
  621MOL0     H83814  10.957   2.588   8.219  0.2510  0.8512  1.0084
  621MOL0     H83815  10.599   1.668   8.648  0.3369  0.4815  0.2697
  621MOL0     H83816  10.371   1.588   8.749 -0.0088  1.3497  0.2017
  621MOL0     H83817  10.048   1.176   8.734 -0.5813 -1.8213 -2.5895
  621MOL0     H83818   9.853   1.103   8.843 -0.6464 -0.4432 -1.6810
  621MOL0     H83819   8.131   1.717   9.453 -3.6208  0.0258  1.2185
  621MOL0     H83820   7.928   1.733   9.367  0.7682 -0.2944 -0.5887
  621MOL0     H83821   7.589   2.006   9.195 -2.6344 -1.6779  0.7646
  621MOL0     H83822   7.374   2.052   9.073 -0.9341 -3.1403  1.3991
  621MOL0     H83823   7.309   1.879   8.664 -3.3100  0.1274 -1.5033
  621MOL0     H83824   7.356   2.045   8.639  2.2555  1.2367  2.6878
  621MOL0     H83825   7.072   1.911   8.691  1.0567  0.0294  2.8533
  621MOL0     H83826   7.120   2.009   8.556 -3.2816  2.9663  0.8758
  621MOL0     H83827   7.148   2.211   8.717 -0.7524 -0.0338 -1.5740
  621MOL0     H83828   7.077   2.099   8.835  2.5648  0.8414  0.5143
  621MOL0     H83829   6.916   2.266   8.703 -1.1761 -0.4932  1.0254
  621MOL0     H83830   6.953   2.152   8.569  2.5263 -1.2082 -0.6418
  621MOL0     H83831   6.727   1.882   8.805  2.6085 -1.7935  0.2706
  621MOL0     H83832   7.540   1.902   8.712  0.2483  1.4690 -0.4830
  621MOL0     H83833   7.863   1.821   8.831 -0.2691 -1.4104 -0.1312
  621MOL0     H83834   7.761   1.694   8.830  0.6176  1.2499  4.3127
  621MOL0     H83835   7.741   1.801   8.689  0.3256  0.4938 -0.4573
  622MOL0     O83836   2.634  10.561   5.254  0.0525 -0.2268 -0.3304
  622MOL0     C83837   2.649  10.683   5.275 -0.1101  0.7162 -0.4673
  622MOL0     O83838   2.747  10.760   5.226 -0.4720  0.0113 -0.3121
  622MOL0     C83839   2.863  10.713   5.166  0.5627  0.5494 -0.5377
  622MOL0     C83840   2.938  10.808   5.093  0.0317  0.1660  0.3799
  622MOL0     C83841   3.056  10.775   5.034 -0.1404 -0.0738 -0.1423
  622MOL0     C83842   3.104  10.647   5.044  0.3279  0.2046 -0.0731
  622MOL0     O83843   3.219  10.618   4.988 -0.1347  0.0980  0.1052
  622MOL0     C83844   3.287  10.491   5.020  0.3662 -0.3593  0.6656
  622MOL0     C83845   3.427  10.505   4.986  0.1346  0.4449 -0.1994
  622MOL0     C83846   3.487  10.364   4.948 -0.4999 -0.4546 -0.0512
  622MOL0     C83847   3.480  10.268   5.067  0.4538  0.2000  0.1660
  622MOL0     C83848   3.585  10.159   5.085  0.6203 -0.1141  0.0278
  622MOL0     C83849   3.609  10.072   4.951  0.0089  0.3186 -0.3306
  622MOL0     C83850   3.709   9.957   4.972 -0.8868  0.3892  0.5665
  622MOL0     C83851   3.661   9.820   4.905  0.3115 -0.8136  0.1662
  622MOL0     N83852   3.698   9.712   4.992 -0.7776 -0.5221 -0.0136
  622MOL0     C83853   3.830   9.671   5.007  0.1159  0.9427 -0.4685
  622MOL0     C83854   3.821   9.567   5.095 -0.3401  0.9046 -0.7864
  622MOL0     C83855   3.934   9.501   5.169  0.1511 -0.4129  0.2111
  622MOL0     C83856   4.046   9.596   5.183 -0.1547 -0.4816 -0.2036
  622MOL0     C83857   4.141   9.566   5.294  0.7127  0.5523  0.1287
  622MOL0     C83858   4.247   9.457   5.259  1.0809 -0.2489 -0.1051
  622MOL0     O83859   4.356   9.520   5.196 -0.6739 -0.3916 -0.1602
  622MOL0     C83860   4.468   9.441   5.178 -0.2007  1.4804  0.3693
  622MOL0     C83861   4.470   9.299   5.161  0.0323  0.1851  0.1719
  622MOL0     C83862   4.583   9.223   5.116  0.3260 -0.2256  0.3392
  622MOL0     C83863   4.699   9.295   5.075  0.1035  0.4746 -0.8383
  622MOL0     C83864   4.815   9.221   5.030 -0.6497 -0.7080  0.0455
  622MOL0     O83865   4.799   9.096   4.985 -0.8328 -0.1416 -1.0450
  622MOL0     C83866   4.906   9.014   4.962 -0.0843  0.1004  0.2091
  622MOL0     C83867   5.027   9.022   5.034  0.4565 -0.4232 -0.5579
  622MOL0     C83868   5.126   8.925   5.010  0.1714  0.3260 -0.1747
  622MOL0     C83869   5.109   8.824   4.918 -0.0347  0.7611  0.3975
  622MOL0     O83870   5.206   8.731   4.911  0.1724 -0.1335 -0.3477
  622MOL0     C83871   5.211   8.637   4.798 -1.0087 -0.2995  0.8287
  622MOL0     C83872   5.357   8.584   4.796 -0.6451 -0.7523  0.2199
  622MOL0     C83873   5.454   8.693   4.745  0.7433 -0.3400  0.4651
  622MOL0     C83874   5.598   8.658   4.746  0.1809 -0.0851  0.4046
  622MOL0     C83875   5.678   8.776   4.681 -0.3265 -0.5072  0.2309
  622MOL0     C83876   5.818   8.741   4.655 -0.5010  0.3526 -0.9827
  622MOL0     C83877   5.909   8.764   4.776 -0.3922  0.2432 -0.4259
  622MOL0     C83878   6.056   8.792   4.718  0.1634 -0.4309 -1.1702
  622MOL0    Cl83879   6.162   8.805   4.858 -0.4114  0.0175 -0.4625
  622MOL0     C83880   4.988   8.814   4.850  0.6864 -0.3747  0.5021
  622MOL0     C83881   4.889   8.917   4.864 -0.7669 -0.3419  0.3045
  622MOL0     O83882   4.912   9.295   5.017 -0.0966 -0.1777 -0.7884
  622MOL0     C83883   4.697   9.430   5.094 -1.3069 -0.3046  0.2840
  622MOL0     C83884   4.590   9.502   5.150  0.3707 -0.0166  0.8921
  622MOL0     N83885   3.685   9.539   5.116 -0.4573  0.4887 -0.9129
  622MOL0     N83886   3.617   9.627   5.054  0.3067 -0.0967 -0.2251
  622MOL0     C83887   3.027  10.554   5.101  0.4887 -0.3914 -0.2272
  622MOL0     C83888   2.916  10.582   5.169 -0.0918  0.5683 -0.1990
  622MOL0     C83889   2.552  10.752   5.357  0.2094  0.0226  0.0357
  622MOL0     C83890   2.418  10.711   5.342 -0.0365  0.9460  1.0731
  622MOL0     C83891   2.318  10.780   5.415  0.5976 -0.6073 -0.4270
  622MOL0     C83892   2.339  10.894   5.494  0.1560  0.1546  0.2772
  622MOL0     O83893   2.233  10.969   5.542 -0.7681  0.1471  0.3104
  622MOL0     C83894   2.192  10.916   5.673 -0.0957  0.9678  0.0334
  622MOL0     C83895   2.050  10.939   5.692  0.4905 -1.4915 -0.0860
  622MOL0     C83896   1.959  10.896   5.580 -0.8652  0.2872 -0.7752
  622MOL0     C83897   1.809  10.935   5.593 -0.0233 -0.9370 -0.5580
  622MOL0     C83898   1.765  10.927   5.728 -0.0566 -0.1222 -0.0211
  622MOL0     C83899   1.741  10.934   5.842 -0.0456 -0.0214  0.4092
  622MOL0     C83900   2.473  10.926   5.511 -0.4043  0.2107  0.7986
  622MOL0     C83901   2.581  10.849   5.455  0.0864 -0.0915  0.3209
  622MOL0     C83902   2.725  10.897   5.488 -0.3906  0.0859  0.2324
  622MOL0     H83903   2.905  10.911   5.096  1.4443  0.6035  2.5397
  622MOL0     H83904   3.121  10.849   4.989 -2.4613  1.6267 -0.8880
  622MOL0     H83905   3.276  10.472   5.127  1.4889 -0.7428  0.7217
  622MOL0     H83906   3.238  10.404   4.973  2.2984 -2.0095  1.5517
  622MOL0     H83907   3.493  10.544   5.064  0.3233  0.2328 -0.2500
  622MOL0     H83908   3.443  10.571   4.900  0.0768  1.7752  0.7847
  622MOL0     H83909   3.592  10.387   4.928 -1.1079  2.1874 -0.6359
  622MOL0     H83910   3.436  10.323   4.861  0.6938 -0.1238 -0.9265
  622MOL0     H83911   3.499  10.328   5.156 -2.5851  0.8876  0.4846
  622MOL0     H83912   3.380  10.224   5.076 -0.5077  2.1513 -0.4025
  622MOL0     H83913   3.675  10.212   5.118 -1.2664  2.0649  1.9752
  622MOL0     H83914   3.557  10.095   5.169 -0.1340  0.2358  0.0531
  622MOL0     H83915   3.516  10.019   4.929 -0.2961 -1.7729  4.5916
  622MOL0     H83916   3.624  10.147   4.873 -1.7872 -1.9797 -3.0569
  622MOL0     H83917   3.720   9.938   5.079  2.5268 -2.6909 -0.1185
  622MOL0     H83918   3.802   9.990   4.925 -2.9072  3.7384 -1.4148
  622MOL0     H83919   3.554   9.813   4.883  0.4752 -1.4588 -0.4520
  622MOL0     H83920   3.716   9.811   4.811  2.5391  3.1546  0.8698
  622MOL0     H83921   3.917   9.717   4.961  1.6479 -0.5985  0.7448
  622MOL0     H83922   3.902   9.448   5.259 -0.2881  0.3461  0.5100
  622MOL0     H83923   3.975   9.418   5.110 -1.2659 -1.4571  0.6199
  622MOL0     H83924   4.104   9.599   5.091  1.9582 -2.5813  0.9652
  622MOL0     H83925   4.009   9.697   5.201  0.7494 -0.2520  0.4028
  622MOL0     H83926   4.090   9.529   5.383 -1.3602  0.0000 -1.2111
  622MOL0     H83927   4.192   9.658   5.324  0.7788  1.1988 -1.8005
  622MOL0     H83928   4.201   9.389   5.187  1.6645 -1.0517  0.2507
  622MOL0     H83929   4.267   9.391   5.345  0.6646 -0.4649 -0.1739
  622MOL0     H83930   4.381   9.241   5.185 -0.7947  1.2526 -0.2056
  622MOL0     H83931   4.573   9.115   5.118 -1.7361 -0.1839 -1.9761
  622MOL0     H83932   5.039   9.093   5.115  2.5964 -1.4913  0.1429
  622MOL0     H83933   5.210   8.919   5.080  1.5409 -0.2873 -1.7955
  622MOL0     H83934   5.149   8.547   4.807  2.2453 -2.7128  0.5440
  622MOL0     H83935   5.192   8.684   4.701 -0.5504  0.8834  1.3002
  622MOL0     H83936   5.395   8.545   4.891  4.2844  0.7535 -0.8285
  622MOL0     H83937   5.355   8.497   4.730 -0.8318 -0.5931  0.0095
  622MOL0     H83938   5.427   8.702   4.640 -0.8581 -0.0374  0.8680
  622MOL0     H83939   5.435   8.791   4.791  0.1954  0.9135 -2.2337
  622MOL0     H83940   5.607   8.558   4.704  0.8716  0.0057  0.3342
  622MOL0     H83941   5.638   8.668   4.848  1.8796  2.2171 -0.4088
  622MOL0     H83942   5.676   8.858   4.753 -4.2825  1.3117 -1.6009
  622MOL0     H83943   5.643   8.811   4.583  2.5563  2.3153  0.0588
  622MOL0     H83944   5.824   8.636   4.623  0.5627 -0.5089  1.6861
  622MOL0     H83945   5.852   8.803   4.571 -2.3368  0.9326 -1.3304
  622MOL0     H83946   5.909   8.672   4.835 -0.3767 -0.8002 -1.9879
  622MOL0     H83947   5.875   8.842   4.845 -3.5627 -2.1968  1.0322
  622MOL0     H83948   6.097   8.714   4.654 -0.0245 -0.6231 -1.0570
  622MOL0     H83949   6.056   8.887   4.664  0.7300  0.0977 -0.2687
  622MOL0     H83950   4.973   8.729   4.783  0.8020 -0.8879  1.1111
  622MOL0     H83951   4.793   8.934   4.816  0.0722  1.8355 -0.7232
  622MOL0     H83952   4.782   9.493   5.070  1.5966 -2.2649  4.2675
  622MOL0     H83953   4.591   9.609   5.168  0.9739 -0.3691  3.2984
  622MOL0     H83954   3.052  10.449   5.099  1.6615 -0.4140  4.3852
  622MOL0     H83955   2.866  10.496   5.212 -0.9868  0.3518 -1.6310
  622MOL0     H83956   2.390  10.629   5.277  0.2569  0.2240  1.8378
  622MOL0     H83957   2.214  10.748   5.409  0.0564  0.6999  1.3958
  622MOL0     H83958   2.252  10.969   5.748  0.1299  0.0560  0.5178
  622MOL0     H83959   2.220  10.811   5.683 -1.4154  0.5334 -0.7065
  622MOL0     H83960   2.036  11.046   5.712  2.3162 -1.0502 -0.9459
  622MOL0     H83961   2.035  10.870   5.776 -0.2236 -2.5277 -1.0307
  622MOL0     H83962   1.974  10.788   5.569 -3.4342 -0.1974 -0.1750
  622MOL0     H83963   1.997  10.934   5.485 -2.0800 -0.4210 -1.5647
  622MOL0     H83964   1.789  11.037   5.559 -3.0550 -0.6976  1.5983
  622MOL0     H83965   1.751  10.870   5.526  1.2344 -1.5555 -1.0878
  622MOL0     H83966   1.698  10.937   5.940 -0.9654  2.1154  0.0082
  622MOL0     H83967   2.492  11.016   5.568 -1.1142  0.5634  0.4886
  622MOL0     H83968   2.778  10.807   5.519 -1.1501 -1.2704 -2.1777
  622MOL0     H83969   2.781  10.944   5.406 -0.6604 -1.5209 -0.9079
  622MOL0     H83970   2.722  10.961   5.577  1.8242 -0.5177  0.8005
  623MOL0     O83971   9.732   4.613   7.188 -0.4386  1.4017 -0.4421
  623MOL0     C83972   9.710   4.676   7.086  0.4073  0.2969  0.6420
  623MOL0     O83973   9.803   4.746   7.010 -0.2090 -0.1893 -0.3734
  623MOL0     C83974   9.934   4.760   7.056 -0.4170  0.9879  1.1243
  623MOL0     C83975   9.961   4.818   7.182 -1.0709  1.3712  0.1272
  623MOL0     C83976  10.097   4.812   7.228 -0.2222 -0.5216  0.4102
  623MOL0     C83977  10.202   4.762   7.157 -0.8559  0.3355 -0.0505
  623MOL0     O83978  10.335   4.752   7.189  0.4798 -0.1661 -0.2256
  623MOL0     C83979  10.387   4.803   7.316  0.1099  0.5743 -0.2189
  623MOL0     C83980  10.401   4.693   7.428 -0.1897  0.8525 -0.3312
  623MOL0     C83981  10.355   4.734   7.569  0.1507 -0.7228  0.4951
  623MOL0     C83982  10.354   4.616   7.663  0.6383 -0.3830 -0.1038
  623MOL0     C83983  10.486   4.544   7.676 -0.6464  0.6161  0.2073
  623MOL0     C83984  10.595   4.621   7.755  0.1480  0.5800  0.3756
  623MOL0     C83985  10.575   4.614   7.909 -0.3360  0.5166  1.4868
  623MOL0     C83986  10.651   4.716   7.993  0.5829  0.5274 -0.1094
  623MOL0     N83987  10.797   4.698   7.992 -0.5773 -0.2088 -0.1948
  623MOL0     C83988  10.875   4.690   8.108 -1.0172 -1.0804  0.1292
  623MOL0     C83989  10.998   4.665   8.059 -0.6230  0.1790  0.1961
  623MOL0     C83990  11.123   4.637   8.150  0.4189  0.6800 -0.1888
  623MOL0     C83991  11.199   4.757   8.199  0.2901  0.5244  0.4235
  623MOL0     C83992  11.267   4.811   8.077 -0.4429  0.2894  0.1067
  623MOL0     C83993  11.373   4.907   8.122 -0.3872 -0.7506  0.4170
  623MOL0     O83994  11.460   4.842   8.221  0.1799  0.4015 -0.2477
  623MOL0     C83995  11.578   4.906   8.257  0.3532 -0.2263 -0.3561
  623MOL0     C83996  11.664   4.829   8.334  0.0999  0.7428  0.6142
  623MOL0     C83997  11.795   4.872   8.357 -0.2877 -0.3570 -0.2334
  623MOL0     C83998  11.854   4.989   8.303 -0.2531  0.2496  0.1984
  623MOL0     C83999  11.993   5.032   8.338  0.5747  0.7509  0.2307
  623MOL0     O84000  12.059   4.953   8.431  0.7325 -0.2596 -0.2577
  623MOL0     C84001  12.195   4.954   8.447  0.6899 -0.6975  0.6060
  623MOL0     C84002  12.249   4.915   8.574  0.2114 -0.1911 -0.8635
  623MOL0     C84003  12.387   4.905   8.592  0.0561 -0.8055 -0.0383
  623MOL0     C84004  12.462   4.925   8.488 -0.8230  0.0610  0.3665
  623MOL0     O84005  12.599   4.925   8.516  0.1694 -0.3897  0.2709
  623MOL0     C84006  12.652   4.795   8.510  0.2001  0.0137 -0.8229
  623MOL0     C84007  12.679   4.724   8.649 -0.0709 -0.7325  0.0198
  623MOL0     C84008  12.803   4.790   8.715  0.0524 -0.2014 -0.8204
  623MOL0     C84009  12.770   4.827   8.860  0.6586 -0.1667 -0.4407
  623MOL0     C84010  12.896   4.862   8.942  0.3736  0.0455 -0.5670
  623MOL0     C84011  12.959   4.995   8.895 -0.5753  0.0903 -0.3143
  623MOL0     C84012  13.110   4.997   8.922  0.8057  0.0990 -0.5257
  623MOL0     C84013  13.184   5.094   8.838  0.5387 -0.5705 -0.5008
  623MOL0    Cl84014  13.142   5.264   8.892  0.0303 -0.1050 -0.3441
  623MOL0     C84015  12.424   4.963   8.365  1.3795  0.6177  0.0122
  623MOL0     C84016  12.284   4.980   8.346  1.1785 -0.0240  0.4134
  623MOL0     O84017  12.032   5.137   8.278  0.2995  0.2560 -0.2694
  623MOL0     C84018  11.756   5.061   8.222  0.4540 -0.3912  0.0392
  623MOL0     C84019  11.621   5.023   8.206  0.3438 -0.9520 -0.3164
  623MOL0     N84020  10.999   4.665   7.920  0.6396  0.1079  0.0956
  623MOL0     N84021  10.873   4.686   7.880 -0.2776  0.0391  0.3565
  623MOL0     C84022  10.169   4.706   7.033 -0.6186 -0.0537 -0.0877
  623MOL0     C84023  10.043   4.693   6.984  0.7075  0.4772 -0.4458
  623MOL0     C84024   9.559   4.694   7.064 -0.6687 -0.6098 -0.4123
  623MOL0     C84025   9.525   4.793   6.966 -0.3820 -0.0608 -0.3480
  623MOL0     C84026   9.391   4.831   6.945 -0.0118 -0.0350  0.0537
  623MOL0     C84027   9.292   4.763   7.007  0.5967  1.0541 -0.1263
  623MOL0     O84028   9.162   4.789   6.972 -0.6171 -0.5308  0.2993
  623MOL0     C84029   9.051   4.753   7.055 -0.7007 -0.2825  0.7193
  623MOL0     C84030   8.946   4.868   7.065  0.5273  0.2472 -0.3804
  623MOL0     C84031   8.897   4.905   6.923 -0.4293 -0.2121 -0.1118
  623MOL0     C84032   8.777   5.005   6.935 -1.1308 -0.6567  0.7222
  623MOL0     C84033   8.648   4.933   6.944 -0.9125 -0.3936 -0.1664
  623MOL0     C84034   8.542   4.871   6.957 -0.6840  0.9509 -0.8823
  623MOL0     C84035   9.324   4.649   7.088 -0.1180 -0.1772 -0.3311
  623MOL0     C84036   9.458   4.611   7.114  0.7669 -0.3909 -0.4722
  623MOL0     C84037   9.473   4.476   7.193 -0.7019  0.4067 -0.1824
  623MOL0     H84038   9.884   4.861   7.246 -0.5154 -1.0416  2.6043
  623MOL0     H84039  10.116   4.835   7.332 -0.1992  0.2457  0.2424
  623MOL0     H84040  10.485   4.851   7.312  0.2787  0.7809  3.0426
  623MOL0     H84041  10.318   4.879   7.353 -1.9304 -1.5303  0.5866
  623MOL0     H84042  10.505   4.661   7.436  0.7185  3.9197  2.5730
  623MOL0     H84043  10.345   4.602   7.405 -2.4941  1.9334  0.6112
  623MOL0     H84044  10.251   4.763   7.554 -1.1013 -4.4446  0.9501
  623MOL0     H84045  10.420   4.809   7.615 -0.2360 -0.3271  0.3974
  623MOL0     H84046  10.313   4.651   7.759 -0.1129 -0.0837 -0.5264
  623MOL0     H84047  10.278   4.545   7.630  1.1774  0.4873 -3.6588
  623MOL0     H84048  10.472   4.449   7.728 -1.6984  0.1778 -0.8181
  623MOL0     H84049  10.530   4.524   7.577 -1.3874 -1.1570  0.2020
  623MOL0     H84050  10.688   4.570   7.726  1.1187  1.2703  2.1326
  623MOL0     H84051  10.604   4.725   7.723  0.8317  0.4734  0.1964
  623MOL0     H84052  10.598   4.511   7.940 -2.3487  0.3567  2.6964
  623MOL0     H84053  10.471   4.625   7.941 -1.3109 -2.7038 -0.1642
  623MOL0     H84054  10.625   4.815   7.954 -0.2972 -0.3580 -1.9387
  623MOL0     H84055  10.611   4.711   8.094 -0.9794  2.0829 -0.5971
  623MOL0     H84056  10.847   4.702   8.212  2.3097 -3.0695  1.4124
  623MOL0     H84057  11.094   4.584   8.241  2.5242  1.6221  1.1251
  623MOL0     H84058  11.202   4.579   8.100  1.5359 -1.3473  3.5584
  623MOL0     H84059  11.127   4.831   8.237  1.2522  2.0841 -0.6466
  623MOL0     H84060  11.267   4.702   8.266  1.0689  0.4607 -0.4004
  623MOL0     H84061  11.196   4.846   8.001 -2.3118 -0.5549  1.3789
  623MOL0     H84062  11.336   4.740   8.032  3.1237 -0.5965  5.9334
  623MOL0     H84063  11.324   4.999   8.156  0.8601  0.3677 -0.7083
  623MOL0     H84064  11.431   4.940   8.035  0.5542 -0.9456  0.9604
  623MOL0     H84065  11.628   4.730   8.362  0.0079 -0.1899 -2.4792
  623MOL0     H84066  11.852   4.815   8.430 -1.6481  1.8998  2.8540
  623MOL0     H84067  12.187   4.896   8.661 -0.4780  0.3596 -1.2250
  623MOL0     H84068  12.429   4.875   8.687 -1.9599 -2.0841  0.5176
  623MOL0     H84069  12.600   4.728   8.441  0.2357 -0.5677 -0.2932
  623MOL0     H84070  12.750   4.800   8.463  0.9099 -2.3257  0.2315
  623MOL0     H84071  12.591   4.719   8.713 -2.2808  0.3997 -2.7008
  623MOL0     H84072  12.712   4.623   8.621  0.7012 -0.3570 -0.4415
  623MOL0     H84073  12.886   4.720   8.714 -0.8388 -1.3241  0.2906
  623MOL0     H84074  12.831   4.877   8.655  0.2529  0.3167  0.0042
  623MOL0     H84075  12.728   4.739   8.910  1.5930  0.0017  0.6964
  623MOL0     H84076  12.701   4.912   8.863  0.2151 -0.5432  1.2082
  623MOL0     H84077  12.965   4.777   8.944  0.5988  0.2352 -0.2666
  623MOL0     H84078  12.862   4.876   9.045 -0.8624 -1.5177 -0.7103
  623MOL0     H84079  12.945   5.003   8.786  1.8546 -0.8862 -0.7666
  623MOL0     H84080  12.921   5.082   8.949 -0.1687 -1.0582  1.9101
  623MOL0     H84081  13.147   4.899   8.892 -2.1140 -0.5568 -2.5362
  623MOL0     H84082  13.121   5.036   9.023 -0.2598  1.0518 -0.7559
  623MOL0     H84083  13.291   5.074   8.842  0.2630 -2.6548 -1.8525
  623MOL0     H84084  13.155   5.091   8.733 -0.0090  1.3426 -0.4486
  623MOL0     H84085  12.491   4.979   8.282 -0.4478  1.4042 -1.3797
  623MOL0     H84086  12.242   4.986   8.247 -2.5570  1.9551  1.9234
  623MOL0     H84087  11.784   5.158   8.181 -2.9625  0.1607 -1.2735
  623MOL0     H84088  11.562   5.085   8.139 -3.1913 -2.0374  1.5593
  623MOL0     H84089  10.255   4.656   6.989  0.7126 -1.2021  3.4812
  623MOL0     H84090  10.026   4.637   6.893  2.2775  0.8073 -0.9802
  623MOL0     H84091   9.612   4.840   6.920  0.5406 -1.4951 -0.1402
  623MOL0     H84092   9.361   4.898   6.865  1.9520  0.2017 -0.5299
  623MOL0     H84093   9.079   4.734   7.159 -2.6204  0.7323  1.4633
  623MOL0     H84094   9.006   4.670   7.000 -1.3354  1.0749 -0.9196
  623MOL0     H84095   8.996   4.953   7.112  1.5088 -1.0024  0.9188
  623MOL0     H84096   8.861   4.833   7.123 -0.0326  1.3661 -0.5092
  623MOL0     H84097   8.876   4.809   6.875  0.8453 -1.2809  1.3578
  623MOL0     H84098   8.983   4.951   6.873  0.7111 -0.0973  1.8421
  623MOL0     H84099   8.786   5.076   7.018 -0.6508  0.3760 -0.1973
  623MOL0     H84100   8.778   5.063   6.843  0.7681  0.6966  1.5452
  623MOL0     H84101   8.454   4.813   6.974  1.0612 -0.9746  3.0209
  623MOL0     H84102   9.243   4.589   7.129  1.6789  0.3647  4.6947
  623MOL0     H84103   9.561   4.424   7.155 -2.3558 -2.7721  0.0289
  623MOL0     H84104   9.494   4.501   7.297 -1.9999  0.7437  0.0181
  623MOL0     H84105   9.389   4.408   7.174 -0.2591  0.4750 -2.7684
  624MOL0     O84106   2.703   2.252   0.128  0.0313 -0.1944 -0.2139
  624MOL0     C84107   2.697   2.147   0.199  0.3881  0.0554  0.9197
  624MOL0     O84108   2.800   2.097   0.268  0.3647  0.4115 -0.3787
  624MOL0     C84109   2.895   2.174   0.331 -0.0025  0.2688  1.3138
  624MOL0     C84110   3.021   2.115   0.344 -0.0366 -0.9491  0.8983
  624MOL0     C84111   3.124   2.192   0.400  0.4218 -0.3465  0.3278
  624MOL0     C84112   3.103   2.324   0.443  0.1650  0.8510  0.3760
  624MOL0     O84113   3.189   2.397   0.520 -0.5164  0.1191 -0.3630
  624MOL0     C84114   3.331   2.367   0.509  0.4666  0.1470 -1.5210
  624MOL0     C84115   3.389   2.483   0.589 -0.1897  0.0707  0.5629
  624MOL0     C84116   3.409   2.435   0.735 -0.5337 -0.4326  0.0311
  624MOL0     C84117   3.476   2.543   0.825  1.0420  0.3227 -0.4471
  624MOL0     C84118   3.420   2.533   0.969  0.0373  0.2946 -0.2346
  624MOL0     C84119   3.455   2.395   1.027 -0.0103  0.3674  1.0644
  624MOL0     C84120   3.468   2.388   1.190 -0.6709  0.3484 -0.3283
  624MOL0     C84121   3.588   2.470   1.251 -0.5342 -0.2095  0.6193
  624MOL0     N84122   3.724   2.398   1.238 -0.2220 -0.2558 -0.3346
  624MOL0     C84123   3.771   2.292   1.313  0.4060  0.5796 -0.0471
  624MOL0     C84124   3.896   2.265   1.262  0.3675  0.6580 -0.1471
  624MOL0     C84125   3.974   2.137   1.276  0.0794 -0.0883 -0.3200
  624MOL0     C84126   4.123   2.142   1.291  0.5249  0.6288 -0.3880
  624MOL0     C84127   4.170   2.077   1.421  0.6409 -0.4306  0.5456
  624MOL0     C84128   4.316   2.117   1.443 -0.8488  0.1343 -0.0315
  624MOL0     O84129   4.379   2.079   1.571  0.6469  0.1330 -0.8086
  624MOL0     C84130   4.517   2.106   1.588  0.0886 -0.3589 -0.3467
  624MOL0     C84131   4.586   2.190   1.501 -0.1233 -0.0257 -0.0495
  624MOL0     C84132   4.716   2.195   1.526 -0.9630 -0.2471 -0.4339
  624MOL0     C84133   4.782   2.133   1.639 -0.3045 -0.3317 -0.2933
  624MOL0     C84134   4.922   2.155   1.652  0.1025  0.5928 -0.2292
  624MOL0     O84135   4.966   2.164   1.778 -1.2374  0.7235 -0.2915
  624MOL0     C84136   5.103   2.154   1.799  0.0652  0.4474 -0.3940
  624MOL0     C84137   5.155   2.219   1.907 -0.6220 -0.1683  0.0497
  624MOL0     C84138   5.288   2.223   1.937  0.7077 -0.1159  0.2277
  624MOL0     C84139   5.376   2.137   1.861  0.2673  0.2148  0.8697
  624MOL0     O84140   5.511   2.135   1.880  0.9520  0.3431 -0.0220
  624MOL0     C84141   5.571   2.226   1.972 -0.0405 -0.1231  0.0901
  624MOL0     C84142   5.727   2.216   1.962 -0.1961  0.4005 -0.4866
  624MOL0     C84143   5.808   2.290   2.063 -0.6289  0.0715  0.0274
  624MOL0     C84144   5.780   2.437   2.078  0.4810 -0.5301 -0.0682
  624MOL0     C84145   5.905   2.528   2.108 -0.1488 -0.7223  0.1755
  624MOL0     C84146   5.944   2.555   2.256 -0.6919  0.4136 -0.2430
  624MOL0     C84147   6.015   2.422   2.307  0.0251  0.0342 -0.0424
  624MOL0     C84148   6.073   2.434   2.453  0.1740  0.7391 -0.2237
  624MOL0    Cl84149   6.205   2.544   2.483  0.1778 -0.2763 -0.2078
  624MOL0     C84150   5.313   2.052   1.759 -0.5964  0.1706 -0.2633
  624MOL0     C84151   5.180   2.063   1.729 -0.4716 -0.3817 -0.5133
  624MOL0     O84152   4.984   2.154   1.546  0.8993 -0.8992 -0.1454
  624MOL0     C84153   4.710   2.067   1.730  0.7728  0.1592 -0.5854
  624MOL0     C84154   4.575   2.053   1.701 -0.6007 -0.0585 -0.5171
  624MOL0     N84155   3.919   2.349   1.151  0.0932  1.1926 -0.4041
  624MOL0     N84156   3.813   2.430   1.141  0.1281  0.0816 -0.1586
  624MOL0     C84157   2.979   2.380   0.422 -0.4976 -0.2761  0.0424
  624MOL0     C84158   2.875   2.304   0.372 -0.0997  0.3736  0.4740
  624MOL0     C84159   2.594   2.051   0.163 -0.0959  0.3508 -0.7560
  624MOL0     C84160   2.630   1.921   0.180  0.7347 -0.4541 -0.9382
  624MOL0     C84161   2.540   1.823   0.130 -0.2141 -0.5926 -0.4237
  624MOL0     C84162   2.429   1.856   0.057 -0.1078  0.4154 -0.3845
  624MOL0     O84163   2.341   1.760   0.008 -0.5071  0.2572  0.5829
  624MOL0     C84164   2.404   1.649  -0.058  0.3321  0.7601  1.6060
  624MOL0     C84165   2.345   1.518  -0.014  0.2965  0.0231  0.1802
  624MOL0     C84166   2.403   1.457   0.117 -1.3179  0.3940 -0.3972
  624MOL0     C84167   2.330   1.319   0.139  0.7148 -0.4109 -0.1879
  624MOL0     C84168   2.178   1.316   0.122 -0.8640 -0.0088 -0.5021
  624MOL0     C84169   2.064   1.324   0.124 -0.2322  0.1877 -0.4009
  624MOL0     C84170   2.393   1.992   0.044  0.8881  0.9055 -0.0593
  624MOL0     C84171   2.477   2.086   0.093  0.0507 -0.3077 -0.2637
  624MOL0     C84172   2.417   2.220   0.086  0.1782  0.6216  0.7407
  624MOL0     H84173   3.047   2.019   0.301  0.0277  0.6907 -3.1472
  624MOL0     H84174   3.224   2.151   0.412  0.7474  0.4937  0.5658
  624MOL0     H84175   3.346   2.271   0.560  1.0159  0.4948 -1.0137
  624MOL0     H84176   3.377   2.370   0.410 -1.5507  0.5697 -2.5069
  624MOL0     H84177   3.329   2.573   0.576  0.5145  0.6714  1.4174
  624MOL0     H84178   3.488   2.504   0.546 -0.0227 -0.4189  0.6992
  624MOL0     H84179   3.483   2.354   0.732 -1.6831 -1.4941 -1.6018
  624MOL0     H84180   3.326   2.386   0.786  1.2835 -1.6554  2.0201
  624MOL0     H84181   3.584   2.525   0.827  0.5745 -3.1081  0.3573
  624MOL0     H84182   3.459   2.643   0.784 -0.5271 -0.1745 -1.0824
  624MOL0     H84183   3.467   2.615   1.024  3.1350 -2.4859  1.6222
  624MOL0     H84184   3.312   2.549   0.975  0.0539 -0.1304  2.7429
  624MOL0     H84185   3.379   2.323   0.998  1.9969 -0.7591 -1.7979
  624MOL0     H84186   3.552   2.369   0.984 -0.1058  0.9670  0.4651
  624MOL0     H84187   3.480   2.282   1.213  1.2275  0.2265 -1.5986
  624MOL0     H84188   3.381   2.429   1.242  1.5976  1.1453  3.2155
  624MOL0     H84189   3.587   2.571   1.209 -1.8931  0.3055  1.8273
  624MOL0     H84190   3.571   2.472   1.359 -0.8608 -4.6786  0.8490
  624MOL0     H84191   3.720   2.242   1.394 -0.7910 -0.2330 -1.2621
  624MOL0     H84192   3.926   2.086   1.360  0.7773  1.4045  1.0446
  624MOL0     H84193   3.961   2.072   1.189  1.6521  0.0428 -0.6759
  624MOL0     H84194   4.175   2.093   1.207  3.9938  2.2975  0.5731
  624MOL0     H84195   4.147   2.249   1.284  1.5122  0.2975 -3.5398
  624MOL0     H84196   4.158   1.968   1.419  0.3508 -0.4169  1.4697
  624MOL0     H84197   4.108   2.117   1.501 -0.2909  2.2613 -1.3747
  624MOL0     H84198   4.308   2.226   1.453  0.5594  0.5461 -2.5473
  624MOL0     H84199   4.378   2.092   1.356  1.1478 -2.5290  2.0008
  624MOL0     H84200   4.550   2.238   1.411 -3.9618 -2.7768 -0.2283
  624MOL0     H84201   4.766   2.254   1.449 -2.4790  1.9103  0.1615
  624MOL0     H84202   5.081   2.272   1.967 -2.1537 -0.8142 -1.1912
  624MOL0     H84203   5.319   2.290   2.017  1.0619 -2.3549  2.0868
  624MOL0     H84204   5.540   2.324   1.936  0.8022 -0.8724 -3.0210
  624MOL0     H84205   5.538   2.195   2.072 -0.7869 -2.5242 -0.8151
  624MOL0     H84206   5.753   2.111   1.978  2.0667  1.2741  2.7694
  624MOL0     H84207   5.755   2.253   1.863  0.0161  3.5687  0.6292
  624MOL0     H84208   5.805   2.234   2.157 -0.6996  2.0958  1.2891
  624MOL0     H84209   5.911   2.287   2.027 -0.7658  2.3714 -0.6937
  624MOL0     H84210   5.699   2.467   2.145 -0.8269 -0.7203 -1.5254
  624MOL0     H84211   5.737   2.475   1.985  0.1140  0.7894  0.6193
  624MOL0     H84212   5.885   2.622   2.057  1.8880 -0.1357  0.3813
  624MOL0     H84213   5.991   2.488   2.053  0.0625 -1.9183  1.3114
  624MOL0     H84214   6.013   2.639   2.262 -2.3445  2.0953 -2.9684
  624MOL0     H84215   5.856   2.582   2.314 -1.7747 -0.9385 -1.1929
  624MOL0     H84216   6.094   2.390   2.238  1.1981  1.9425  0.3500
  624MOL0     H84217   5.935   2.347   2.315 -1.6363  1.6654 -0.6252
  624MOL0     H84218   5.986   2.457   2.515  0.2747 -1.5900  0.8957
  624MOL0     H84219   6.106   2.338   2.492  1.3974  0.6067 -1.5224
  624MOL0     H84220   5.386   1.990   1.709  2.2150  3.5254 -0.7113
  624MOL0     H84221   5.152   1.990   1.654  1.3003 -0.6149 -0.9884
  624MOL0     H84222   4.739   2.030   1.827 -3.8439  0.1570  1.0217
  624MOL0     H84223   4.517   1.990   1.768  3.9084 -0.7643  3.2067
  624MOL0     H84224   2.950   2.480   0.452  0.4651 -0.8100  3.0694
  624MOL0     H84225   2.771   2.331   0.367 -1.2105 -3.5507 -3.1409
  624MOL0     H84226   2.719   1.877   0.224 -0.9941 -3.3048 -0.0498
  624MOL0     H84227   2.574   1.723   0.152  0.3335 -0.5121 -0.8871
  624MOL0     H84228   2.511   1.650  -0.039  0.9094 -3.5998 -0.3039
  624MOL0     H84229   2.387   1.654  -0.166  1.0397 -1.7431  1.3144
  624MOL0     H84230   2.360   1.442  -0.091 -0.9054  0.1380 -0.1916
  624MOL0     H84231   2.236   1.530  -0.007  0.3801  1.0433 -0.1509
  624MOL0     H84232   2.373   1.523   0.198 -3.7016 -1.2286  0.1469
  624MOL0     H84233   2.511   1.440   0.106 -1.3062  1.6122 -2.7074
  624MOL0     H84234   2.356   1.229   0.084  1.2945 -0.6665  0.4979
  624MOL0     H84235   2.343   1.302   0.246  1.6516 -2.9209 -0.6508
  624MOL0     H84236   1.958   1.336   0.135 -0.1039  2.3000 -1.0217
  624MOL0     H84237   2.291   2.010   0.009 -0.8556  1.5018  4.6229
  624MOL0     H84238   2.446   2.253  -0.015 -3.8339 -2.1907 -1.6415
  624MOL0     H84239   2.308   2.228   0.089 -0.0800 -2.0021  0.9814
  624MOL0     H84240   2.459   2.284   0.164  2.4307  1.0762 -0.7414
  625MOL0     O84241   7.830   3.993  10.493  0.0683 -0.1857  0.2643
  625MOL0     C84242   7.770   3.997  10.602 -0.1013 -0.3954 -0.3457
  625MOL0     O84243   7.650   3.942  10.621 -0.5333  1.2759 -0.4494
  625MOL0     C84244   7.564   3.909  10.517  0.5095  0.5576 -0.3874
  625MOL0     C84245   7.444   3.981  10.505 -0.2121 -0.2833 -1.9950
  625MOL0     C84246   7.341   3.928  10.421 -0.1339 -0.6231  0.2743
  625MOL0     C84247   7.370   3.813  10.352  1.2988 -0.0163  0.4348
  625MOL0     O84248   7.264   3.774  10.271 -0.1923 -0.2628  0.0152
  625MOL0     C84249   7.224   3.636  10.296 -0.1694 -0.9239  0.2418
  625MOL0     C84250   7.107   3.607  10.214  0.4513  0.8275  0.2273
  625MOL0     C84251   7.034   3.472  10.249  0.0484  0.0296 -0.0342
  625MOL0     C84252   7.020   3.388  10.120  0.2995  0.3373 -0.1532
  625MOL0     C84253   7.149   3.329  10.058 -0.6653  1.0653  1.0564
  625MOL0     C84254   7.241   3.233  10.150  0.6649 -0.7151  0.1692
  625MOL0     C84255   7.350   3.163  10.077 -0.2731  1.0607  0.6846
  625MOL0     C84256   7.460   3.255  10.030 -0.2674 -0.1469 -0.1164
  625MOL0     N84257   7.561   3.298  10.129 -0.1928  0.3870  0.3389
  625MOL0     C84258   7.650   3.202  10.179  0.1841 -0.0810 -0.5816
  625MOL0     C84259   7.715   3.259  10.289  0.9133 -0.1524 -0.7264
  625MOL0     C84260   7.816   3.198  10.376 -0.5117  0.1687 -0.2385
  625MOL0     C84261   7.935   3.289  10.353  0.3810  0.2626 -0.2115
  625MOL0     C84262   8.062   3.224  10.423  0.3670  0.5017  0.3162
  625MOL0     C84263   8.130   3.127  10.323  0.5378  0.0393  0.0048
  625MOL0     O84264   8.262   3.100  10.356 -0.0516 -0.0151  0.4221
  625MOL0     C84265   8.355   3.054  10.272 -0.4811  0.1377 -0.0621
  625MOL0     C84266   8.335   3.048  10.130 -0.6181 -0.1168 -0.4091
  625MOL0     C84267   8.443   3.015  10.048  0.0194 -0.4862  0.2050
  625MOL0     C84268   8.564   2.978  10.100 -0.2431 -0.7366  0.0955
  625MOL0     C84269   8.677   2.936  10.017  0.2126  0.0218 -0.6334
  625MOL0     O84270   8.646   2.917   9.883  0.1487 -0.1867  0.0259
  625MOL0     C84271   8.738   2.912   9.780 -0.6419  0.1396  0.6456
  625MOL0     C84272   8.882   2.925   9.803  0.0243  1.3185 -0.0973
  625MOL0     C84273   8.973   2.913   9.698 -0.1620 -0.0779 -0.5639
  625MOL0     C84274   8.929   2.894   9.568  0.0444  0.4430  0.0923
  625MOL0     O84275   9.014   2.894   9.451  0.2948 -0.7999 -1.1193
  625MOL0     C84276   9.150   2.932   9.465 -0.2084 -0.0859  0.7262
  625MOL0     C84277   9.239   2.871   9.360  0.2656 -0.2034  0.4113
  625MOL0     C84278   9.374   2.946   9.376  1.3295 -0.0281  0.4968
  625MOL0     C84279   9.475   2.892   9.278 -0.4469  0.7269 -0.7843
  625MOL0     C84280   9.615   2.900   9.349 -0.0626  0.5114 -0.8228
  625MOL0     C84281   9.728   2.875   9.253  0.1607  0.7527  0.1224
  625MOL0     C84282   9.861   2.911   9.315 -0.0205  0.5856 -0.4097
  625MOL0     C84283   9.972   2.811   9.272 -0.1798 -0.4604  0.0745
  625MOL0    Cl84284  10.128   2.842   9.356  0.2355  0.1351  0.1305
  625MOL0     C84285   8.793   2.879   9.538 -0.1666 -0.2578 -0.5379
  625MOL0     C84286   8.705   2.884   9.648 -0.0929 -0.4351 -0.4267
  625MOL0     O84287   8.786   2.906  10.070 -0.4089  1.0095 -0.0784
  625MOL0     C84288   8.585   2.985  10.243  0.5306  0.4954 -0.2285
  625MOL0     C84289   8.479   3.032  10.319 -0.3620 -0.4544  0.2052
  625MOL0     N84290   7.653   3.379  10.313 -0.5499 -0.5965  0.4206
  625MOL0     N84291   7.558   3.400  10.214  0.4470  0.2121  0.5870
  625MOL0     C84292   7.491   3.750  10.354  0.4560  0.2744  0.6589
  625MOL0     C84293   7.588   3.795  10.447 -0.4870  1.7056 -0.2792
  625MOL0     C84294   7.834   4.054  10.721 -0.8447 -0.4835  0.2656
  625MOL0     C84295   7.755   4.095  10.826  0.1220 -0.8041 -0.3089
  625MOL0     C84296   7.798   4.134  10.951  0.1435 -0.3719  0.2572
  625MOL0     C84297   7.936   4.160  10.967 -0.9552  0.9475  0.2886
  625MOL0     O84298   8.009   4.194  11.081  0.1797  0.7807 -0.2392
  625MOL0     C84299   7.935   4.178  11.205  0.6888  0.1440  0.0960
  625MOL0     C84300   7.936   4.034  11.241  0.1068  0.5708 -0.6939
  625MOL0     C84301   7.895   4.006  11.388  0.0139 -0.3759  0.0122
  625MOL0     C84302   7.755   3.941  11.394 -0.0482 -0.0087 -0.7359
  625MOL0     C84303   7.647   4.032  11.350  0.5259  0.2100 -0.0238
  625MOL0     C84304   7.563   4.117  11.311  0.2335  1.0537  0.7019
  625MOL0     C84305   8.022   4.129  10.860  0.0836  0.2865  0.0184
  625MOL0     C84306   7.976   4.076  10.737  0.5426  0.3689 -0.0797
  625MOL0     C84307   8.081   4.020  10.640  0.1641 -0.0415  0.4012
  625MOL0     H84308   7.415   4.073  10.556 -0.2380 -1.4673  0.2346
  625MOL0     H84309   7.242   3.974  10.415  0.9633  2.0879  1.2261
  625MOL0     H84310   7.300   3.570  10.253  0.5397  0.3416 -0.4950
  625MOL0     H84311   7.213   3.605  10.400 -1.0474 -0.3326  0.3392
  625MOL0     H84312   7.122   3.613  10.106  0.0145  1.3684  0.1854
  625MOL0     H84313   7.029   3.682  10.235 -0.8009  0.0678 -1.4502
  625MOL0     H84314   6.934   3.480  10.292 -1.2735 -2.8864 -2.1790
  625MOL0     H84315   7.086   3.423  10.332 -2.1200 -0.6315  0.9966
  625MOL0     H84316   6.957   3.301  10.142  2.9951 -1.2025  2.1409
  625MOL0     H84317   6.965   3.440  10.041 -0.2349 -2.4468 -1.7502
  625MOL0     H84318   7.114   3.275   9.969 -1.4208  1.8712  0.8511
  625MOL0     H84319   7.213   3.401  10.007 -1.0356 -0.4602 -1.7664
  625MOL0     H84320   7.283   3.302  10.224  0.5732 -0.8879  0.3836
  625MOL0     H84321   7.177   3.170  10.213 -2.0530  2.9340  1.4497
  625MOL0     H84322   7.313   3.116   9.986  1.2380  1.0778  0.0228
  625MOL0     H84323   7.395   3.085  10.139 -1.1951 -0.0251  0.0284
  625MOL0     H84324   7.515   3.202   9.951 -1.3376  1.9801 -2.4109
  625MOL0     H84325   7.421   3.348   9.989  1.6351  1.3214  1.2592
  625MOL0     H84326   7.669   3.102  10.140  2.0292 -0.3385  0.8455
  625MOL0     H84327   7.798   3.193  10.484  2.4889  0.2877  0.3512
  625MOL0     H84328   7.839   3.094  10.354 -0.2321 -0.3377  2.1579
  625MOL0     H84329   7.956   3.308  10.247  1.3658  0.8022  0.0774
  625MOL0     H84330   7.933   3.386  10.402  2.6125 -0.4493  1.4763
  625MOL0     H84331   8.048   3.170  10.518 -0.4081 -1.4787 -0.8696
  625MOL0     H84332   8.130   3.306  10.448 -0.2661  0.8082  1.0712
  625MOL0     H84333   8.113   3.179  10.229 -3.9908  2.5768  1.8818
  625MOL0     H84334   8.078   3.030  10.315 -2.3670  1.6437 -3.4504
  625MOL0     H84335   8.240   3.085  10.090  0.5714  0.1209 -3.2430
  625MOL0     H84336   8.429   3.024   9.940  0.7283  0.2234  0.1600
  625MOL0     H84337   8.922   2.946   9.902  1.5455 -1.8450  0.1134
  625MOL0     H84338   9.073   2.933   9.735 -1.2120  0.2684  2.2967
  625MOL0     H84339   9.170   3.039   9.476  0.6167 -0.2085  0.4135
  625MOL0     H84340   9.185   2.901   9.564  0.7653 -0.1364  0.3782
  625MOL0     H84341   9.230   2.762   9.363 -0.8191 -0.1433 -0.1788
  625MOL0     H84342   9.199   2.878   9.259 -1.3449 -3.1157  0.7251
  625MOL0     H84343   9.357   3.048   9.342 -0.0541 -0.1316  0.8315
  625MOL0     H84344   9.408   2.939   9.479  1.6926  0.6683  0.4272
  625MOL0     H84345   9.475   2.949   9.185  0.2359  2.7336  0.3802
  625MOL0     H84346   9.453   2.787   9.253  3.0234 -0.2295 -0.3148
  625MOL0     H84347   9.617   2.829   9.432 -1.9859  0.3341 -0.8931
  625MOL0     H84348   9.616   2.999   9.396 -1.2608  0.1264  0.0748
  625MOL0     H84349   9.718   2.769   9.231 -0.0519  0.7057  0.4432
  625MOL0     H84350   9.710   2.937   9.164 -1.7210  1.7926  1.1577
  625MOL0     H84351   9.848   2.910   9.424  2.1834 -0.8983 -0.0915
  625MOL0     H84352   9.909   3.005   9.289  1.4614  0.1887  0.7417
  625MOL0     H84353   9.956   2.705   9.297 -1.1477 -0.3973 -0.2220
  625MOL0     H84354   9.992   2.817   9.165  1.0799  2.0477  0.3739
  625MOL0     H84355   8.762   2.868   9.435 -0.4312 -4.9232 -0.1593
  625MOL0     H84356   8.598   2.878   9.625 -0.1240  1.5346 -0.9424
  625MOL0     H84357   8.675   2.975  10.304  0.2401  1.0632  0.3012
  625MOL0     H84358   8.488   3.040  10.427 -0.9121  3.1621  0.1270
  625MOL0     H84359   7.512   3.658  10.300  0.1260  0.6592 -0.1403
  625MOL0     H84360   7.670   3.726  10.464 -0.8124  1.8786  2.3866
  625MOL0     H84361   7.647   4.086  10.814  0.0740 -1.1999  0.3971
  625MOL0     H84362   7.722   4.137  11.028 -4.3273 -3.6676 -3.3926
  625MOL0     H84363   7.831   4.213  11.206  0.4366 -0.6058  0.9372
  625MOL0     H84364   7.988   4.245  11.272 -0.9532  2.9725 -1.2457
  625MOL0     H84365   8.041   4.006  11.243 -0.7149 -3.0172  0.3680
  625MOL0     H84366   7.885   3.965  11.172  2.2558 -0.3284 -1.4544
  625MOL0     H84367   7.888   4.096  11.450  2.3475 -0.8899  1.1447
  625MOL0     H84368   7.973   3.937  11.420  2.3488  0.7307 -2.8979
  625MOL0     H84369   7.759   3.843  11.344  1.0339 -1.4395  1.9107
  625MOL0     H84370   7.713   3.912  11.491 -1.6453 -1.2261 -1.7258
  625MOL0     H84371   7.489   4.184  11.273 -2.3753 -1.8723  0.2645
  625MOL0     H84372   8.126   4.130  10.892 -0.6469  0.6404  2.6031
  625MOL0     H84373   8.086   3.911  10.649 -2.4331 -0.2102  0.4438
  625MOL0     H84374   8.056   4.041  10.535  4.2121 -1.6178 -1.1106
  625MOL0     H84375   8.175   4.072  10.657  0.8669  1.2089 -5.2604
  626MOL0     O84376   2.907   8.307   0.800  0.2737 -0.1728  0.1019
  626MOL0     C84377   2.841   8.200   0.814 -0.6246  0.2262  0.1195
  626MOL0     O84378   2.889   8.081   0.873  0.7691 -0.8881  0.2292
  626MOL0     C84379   3.021   8.078   0.908 -0.6014 -0.0605 -0.3345
  626MOL0     C84380   3.065   8.051   1.036  0.2052 -0.0114  0.6900
  626MOL0     C84381   3.196   8.037   1.072 -0.1862  0.0384 -0.5554
  626MOL0     C84382   3.296   8.062   0.983 -0.7645  0.8803 -0.0134
  626MOL0     O84383   3.437   8.060   1.001 -0.3797  0.1979  0.2428
  626MOL0     C84384   3.491   7.986   1.108 -0.3997  0.7445  0.0401
  626MOL0     C84385   3.646   7.994   1.103  0.2015 -0.9819 -0.0203
  626MOL0     C84386   3.704   8.118   1.171 -0.1969  1.5143  0.2029
  626MOL0     C84387   3.854   8.127   1.181 -0.5055 -0.2359 -0.0207
  626MOL0     C84388   3.887   8.271   1.200 -0.2781  0.6020 -0.0884
  626MOL0     C84389   4.046   8.291   1.194  0.4466 -0.1771  0.4295
  626MOL0     C84390   4.074   8.440   1.202 -0.1863 -0.3533 -0.3337
  626MOL0     C84391   4.214   8.466   1.166 -0.4954  0.0604 -0.2167
  626MOL0     N84392   4.253   8.606   1.147 -0.6370 -0.7159  0.4516
  626MOL0     C84393   4.376   8.650   1.092  0.4826  0.8759 -0.2197
  626MOL0     C84394   4.383   8.782   1.114  0.1813  0.1160  0.4127
  626MOL0     C84395   4.509   8.867   1.103 -0.2864  0.6426  0.5681
  626MOL0     C84396   4.558   8.890   0.960 -0.5290  0.6431 -0.5578
  626MOL0     C84397   4.687   8.967   0.959 -0.1228 -0.0421  0.8144
  626MOL0     C84398   4.673   9.111   1.001 -0.7513 -0.2503 -0.1770
  626MOL0     O84399   4.801   9.179   1.015 -0.7269  0.3452  0.4505
  626MOL0     C84400   4.888   9.143   1.105  0.6542  0.0438  0.0847
  626MOL0     C84401   4.852   9.088   1.228  0.4511  0.2961 -0.2672
  626MOL0     C84402   4.946   9.057   1.326  0.9204 -0.1221  0.3684
  626MOL0     C84403   5.085   9.061   1.290 -0.1302 -0.7250  0.2586
  626MOL0     C84404   5.192   9.024   1.381  0.1384  0.9285 -0.9983
  626MOL0     O84405   5.322   9.019   1.341  0.1075 -0.0222 -0.3761
  626MOL0     C84406   5.425   8.978   1.421 -0.6061  1.2907  0.9238
  626MOL0     C84407   5.526   8.898   1.365 -1.0168 -0.7163 -0.2412
  626MOL0     C84408   5.636   8.859   1.438  0.4199 -0.2656  0.4161
  626MOL0     C84409   5.654   8.909   1.568  0.3950 -0.6614  0.1112
  626MOL0     O84410   5.759   8.876   1.652 -0.1870  0.5658  0.5219
  626MOL0     C84411   5.822   8.754   1.632 -0.3841 -0.4318 -0.3132
  626MOL0     C84412   5.932   8.740   1.733 -0.1666  0.2949 -0.1756
  626MOL0     C84413   6.049   8.649   1.693  0.6380  0.0925 -0.2511
  626MOL0     C84414   6.159   8.659   1.805  0.1826 -1.1307  0.3417
  626MOL0     C84415   6.272   8.560   1.760 -0.3917 -0.4654  0.6098
  626MOL0     C84416   6.364   8.516   1.874  0.2919  0.3039  0.0224
  626MOL0     C84417   6.490   8.453   1.834 -1.0810 -0.6025  0.1598
  626MOL0     C84418   6.475   8.328   1.757  0.3673  0.9707 -0.1665
  626MOL0    Cl84419   6.417   8.353   1.589  0.3175  0.3569 -0.1977
  626MOL0     C84420   5.550   8.986   1.619 -0.3508  0.7590 -0.3071
  626MOL0     C84421   5.436   9.023   1.553 -0.1672 -0.0493  0.2764
  626MOL0     O84422   5.156   8.995   1.499  0.4930  0.4695  0.3918
  626MOL0     C84423   5.119   9.122   1.173 -0.4289  0.1617  0.5570
  626MOL0     C84424   5.022   9.151   1.076  0.9086 -0.0811  0.1367
  626MOL0     N84425   4.264   8.817   1.177  0.3788 -0.0891  0.3368
  626MOL0     N84426   4.197   8.711   1.207 -0.0595 -0.2635 -0.1559
  626MOL0     C84427   3.251   8.089   0.855  0.3545  0.1729 -0.0285
  626MOL0     C84428   3.122   8.098   0.816  0.8837  0.9579 -0.1841
  626MOL0     C84429   2.710   8.194   0.755 -0.5183 -0.1950  0.6924
  626MOL0     C84430   2.654   8.069   0.728  0.4058  0.7207  1.1202
  626MOL0     C84431   2.529   8.059   0.672  0.7622  0.1657  0.3190
  626MOL0     C84432   2.447   8.168   0.628  0.4353 -0.4461  0.1633
  626MOL0     O84433   2.316   8.163   0.585 -0.4724 -0.1641 -0.1644
  626MOL0     C84434   2.289   8.237   0.465  0.5367  0.0507  1.7316
  626MOL0     C84435   2.170   8.179   0.389 -0.0473  0.5727  0.8670
  626MOL0     C84436   2.141   8.259   0.264 -0.0370 -0.6022  0.6389
  626MOL0     C84437   2.254   8.307   0.165 -0.9872 -0.5795 -0.1920
  626MOL0     C84438   2.350   8.209   0.113  0.2412 -0.3293 -0.5443
  626MOL0     C84439   2.412   8.110   0.092  0.6859  0.2404  0.3686
  626MOL0     C84440   2.512   8.296   0.638  0.1693 -0.0844 -0.1441
  626MOL0     C84441   2.638   8.311   0.704  0.1037  0.5594  0.4426
  626MOL0     C84442   2.669   8.452   0.748  0.8277  0.2180 -0.3955
  626MOL0     H84443   2.986   8.035   1.108  0.4680  4.4038  2.2336
  626MOL0     H84444   3.226   8.013   1.174  0.8881 -1.4631 -1.1891
  626MOL0     H84445   3.454   8.024   1.203 -1.4800 -0.6343  0.2022
  626MOL0     H84446   3.468   7.879   1.108 -3.3711  1.3159  0.2526
  626MOL0     H84447   3.673   7.988   0.997 -0.7981  1.1292 -0.4638
  626MOL0     H84448   3.678   7.903   1.153 -0.4678 -0.9274  0.5230
  626MOL0     H84449   3.654   8.133   1.267 -2.6802 -1.6273 -0.4409
  626MOL0     H84450   3.668   8.195   1.102 -2.5557  0.9284  0.6926
  626MOL0     H84451   3.881   8.068   1.270 -0.2867  0.0406  0.0971
  626MOL0     H84452   3.897   8.087   1.089 -2.5789  0.4116 -1.3533
  626MOL0     H84453   3.837   8.323   1.118  0.2382  0.9007 -0.2199
  626MOL0     H84454   3.844   8.308   1.294  0.1075 -0.3595  0.4919
  626MOL0     H84455   4.090   8.246   1.284  0.2659  2.6438  2.0327
  626MOL0     H84456   4.079   8.257   1.095 -0.7674 -0.7814  0.2070
  626MOL0     H84457   4.062   8.474   1.305  0.3891 -0.7661 -0.1265
  626MOL0     H84458   4.005   8.491   1.134  0.8517  2.6143  0.7012
  626MOL0     H84459   4.274   8.423   1.247  1.8564  1.3529 -1.1836
  626MOL0     H84460   4.244   8.406   1.079  0.1006  1.2401 -0.8443
  626MOL0     H84461   4.450   8.591   1.038  0.5417  1.7825 -1.1578
  626MOL0     H84462   4.477   8.965   1.141  1.1146  0.7371  1.5574
  626MOL0     H84463   4.582   8.819   1.168 -0.5035  1.1755  1.2174
  626MOL0     H84464   4.562   8.790   0.919  0.6878 -0.9657  3.0511
  626MOL0     H84465   4.481   8.951   0.912  0.4750  1.6303 -0.9553
  626MOL0     H84466   4.730   8.965   0.858  1.3890  4.8107  1.0966
  626MOL0     H84467   4.758   8.912   1.021  1.6832 -0.4139 -1.4267
  626MOL0     H84468   4.619   9.116   1.096  0.7605 -2.5722  0.8919
  626MOL0     H84469   4.609   9.169   0.933  1.4634  1.7110 -0.7414
  626MOL0     H84470   4.755   9.071   1.274  0.3221 -0.8738 -0.9104
  626MOL0     H84471   4.921   9.026   1.427  3.1218 -1.3502  0.5995
  626MOL0     H84472   5.506   8.862   1.265  0.0196  0.3701 -0.8592
  626MOL0     H84473   5.713   8.799   1.390  0.2827  0.4302 -0.7003
  626MOL0     H84474   5.747   8.675   1.640  0.1321 -0.8296  0.8013
  626MOL0     H84475   5.880   8.750   1.540  0.2126  0.6786 -0.0113
  626MOL0     H84476   5.962   8.843   1.751 -2.6260  1.3728 -1.7697
  626MOL0     H84477   5.893   8.694   1.824  1.6772 -2.2409 -0.5239
  626MOL0     H84478   6.021   8.544   1.693 -1.5474  0.5969  1.2121
  626MOL0     H84479   6.096   8.673   1.597  2.1157  0.4686  0.5347
  626MOL0     H84480   6.118   8.632   1.903  2.2621 -1.0809  1.2838
  626MOL0     H84481   6.210   8.756   1.804  2.3814 -2.1883  2.1574
  626MOL0     H84482   6.326   8.613   1.681  0.1811  0.0163  1.3142
  626MOL0     H84483   6.234   8.467   1.716 -0.8641 -1.8994  3.7936
  626MOL0     H84484   6.388   8.605   1.933 -2.9822  0.6738  1.0018
  626MOL0     H84485   6.318   8.445   1.944  1.6010 -0.9918 -0.3843
  626MOL0     H84486   6.546   8.427   1.924 -0.4324 -0.2877 -0.1441
  626MOL0     H84487   6.552   8.523   1.778 -0.8203 -0.2809  0.8441
  626MOL0     H84488   6.566   8.268   1.754  0.1897  0.6707  0.2353
  626MOL0     H84489   6.398   8.268   1.807  3.2036 -0.7986  2.4076
  626MOL0     H84490   5.544   9.024   1.720  1.9419  2.4296 -0.7058
  626MOL0     H84491   5.374   9.088   1.613  2.5363  1.2091  1.9091
  626MOL0     H84492   5.222   9.138   1.143 -0.8032  0.8404 -0.4328
  626MOL0     H84493   5.064   9.187   0.983  0.4584  0.8499  0.2754
  626MOL0     H84494   3.318   8.099   0.770 -1.6161  0.6934 -1.5852
  626MOL0     H84495   3.106   8.120   0.711 -1.6937  1.1006  0.1901
  626MOL0     H84496   2.700   7.976   0.763  0.4325 -0.3705 -1.5635
  626MOL0     H84497   2.496   7.956   0.658 -1.2015  1.0650 -2.3847
  626MOL0     H84498   2.382   8.239   0.408  1.0772 -0.7575  2.5551
  626MOL0     H84499   2.261   8.341   0.486 -0.1578  0.3045 -0.2285
  626MOL0     H84500   2.083   8.164   0.453 -0.4851 -4.0462 -0.4526
  626MOL0     H84501   2.184   8.075   0.359 -1.2116  0.4778  0.5995
  626MOL0     H84502   2.071   8.342   0.282  1.9449  1.6224 -1.2382
  626MOL0     H84503   2.089   8.186   0.202  1.3232 -0.0193 -1.2577
  626MOL0     H84504   2.202   8.355   0.082  1.2059  1.1317 -0.6955
  626MOL0     H84505   2.320   8.383   0.209 -1.0161 -1.3759  1.2785
  626MOL0     H84506   2.478   8.028   0.076  0.2650 -0.1593  0.6302
  626MOL0     H84507   2.457   8.384   0.607 -1.6157 -0.4657  1.7495
  626MOL0     H84508   2.698   8.447   0.854 -0.6094  1.5401  0.1096
  626MOL0     H84509   2.740   8.503   0.683 -1.0085  1.2125 -1.7006
  626MOL0     H84510   2.580   8.515   0.753  1.6840  1.3880  1.1688
  627MOL0     O84511   4.277   9.027   0.469  0.2953 -0.0592 -0.5703
  627MOL0     C84512   4.365   9.057   0.388  0.0615  0.2064  0.2306
  627MOL0     O84513   4.469   9.130   0.420 -0.3363 -0.0087  0.0900
  627MOL0     C84514   4.478   9.212   0.529 -0.4563  0.6754  0.1257
  627MOL0     C84515   4.395   9.230   0.641 -0.2062  0.4239  0.0457
  627MOL0     C84516   4.437   9.313   0.742  0.0394 -0.3582 -0.8319
  627MOL0     C84517   4.558   9.380   0.734  0.1648  0.2524 -0.7695
  627MOL0     O84518   4.600   9.457   0.844 -0.4247 -0.0712 -0.0905
  627MOL0     C84519   4.746   9.503   0.845 -0.3918  0.3452 -0.0802
  627MOL0     C84520   4.781   9.520   0.999 -0.2407  0.1088  0.0719
  627MOL0     C84521   4.907   9.603   1.019  0.6777  0.1910 -0.1151
  627MOL0     C84522   4.984   9.559   1.147  0.8977 -0.1603 -0.1142
  627MOL0     C84523   5.100   9.661   1.162  0.1371  1.2869  0.1903
  627MOL0     C84524   5.175   9.624   1.292  0.6616  0.9663 -0.7671
  627MOL0     C84525   5.284   9.726   1.315 -0.1412 -0.0213 -0.1701
  627MOL0     C84526   5.331   9.726   1.461  0.4628  0.5392  0.0316
  627MOL0     N84527   5.459   9.798   1.477 -0.1664 -0.2564 -0.9406
  627MOL0     C84528   5.492   9.912   1.551 -0.0220 -0.4160  0.0098
  627MOL0     C84529   5.625   9.933   1.546  0.2971  0.7747 -0.0333
  627MOL0     C84530   5.697  10.058   1.582  0.3019  0.2816 -0.2712
  627MOL0     C84531   5.655  10.121   1.716 -0.9640  0.2515  0.3462
  627MOL0     C84532   5.703  10.264   1.725 -0.1698 -0.1318 -0.4503
  627MOL0     C84533   5.851  10.278   1.777  1.2825 -1.0490 -0.4240
  627MOL0     O84534   5.934  10.208   1.685 -0.0434  0.3921  0.1477
  627MOL0     C84535   6.068  10.233   1.694 -0.3256  0.0378  1.3794
  627MOL0     C84536   6.155  10.179   1.597 -0.0154 -0.8871 -0.3730
  627MOL0     C84537   6.295  10.199   1.596 -0.5253  0.2632  0.1412
  627MOL0     C84538   6.351  10.277   1.703  0.0326  0.4517 -0.7935
  627MOL0     C84539   6.499  10.317   1.709 -0.3383  1.2127  0.4869
  627MOL0     O84540   6.580  10.243   1.627  0.9604  0.3041 -0.4329
  627MOL0     C84541   6.709  10.275   1.603 -0.7788  0.2579  0.2603
  627MOL0     C84542   6.808  10.324   1.693  0.4311  1.1931 -0.2241
  627MOL0     C84543   6.939  10.341   1.653 -0.6751  0.5332  0.0350
  627MOL0     C84544   6.975  10.305   1.525  0.6275  0.6511 -0.4202
  627MOL0     O84545   7.107  10.323   1.481  0.2918  0.2122 -0.2903
  627MOL0     C84546   7.194  10.428   1.545 -0.3974  0.8820  0.6064
  627MOL0     C84547   7.326  10.431   1.462  0.8531  0.4990 -0.6839
  627MOL0     C84548   7.449  10.484   1.539  0.5322  0.2641  0.4891
  627MOL0     C84549   7.495  10.382   1.649  0.4190  0.6207  0.0654
  627MOL0     C84550   7.619  10.419   1.724 -0.2926 -0.6674  0.2414
  627MOL0     C84551   7.688  10.301   1.792  0.4593 -0.0430 -0.1006
  627MOL0     C84552   7.823  10.355   1.851  0.2885 -0.9657 -0.2144
  627MOL0     C84553   7.924  10.251   1.899  0.4214 -0.2325 -0.1191
  627MOL0    Cl84554   8.070  10.331   1.963 -0.0143  0.2668 -0.1313
  627MOL0     C84555   6.876  10.262   1.435  0.6538  0.3210 -0.4830
  627MOL0     C84556   6.745  10.240   1.482 -0.2954 -0.3249 -0.7531
  627MOL0     O84557   6.544  10.398   1.785 -0.5309 -0.6845 -0.6855
  627MOL0     C84558   6.268  10.330   1.804 -0.8529  0.5260 -0.2708
  627MOL0     C84559   6.133  10.306   1.799  0.6946 -0.0041  0.2529
  627MOL0     N84560   5.672   9.816   1.486  0.1912 -0.4863  0.1704
  627MOL0     N84561   5.576   9.734   1.452  0.3496 -0.0384 -0.2332
  627MOL0     C84562   4.638   9.374   0.620  0.8254 -0.5446 -0.0790
  627MOL0     C84563   4.588   9.294   0.516  0.2274  0.7009  1.0402
  627MOL0     C84564   4.347   9.035   0.244  0.2446 -0.4970  0.8547
  627MOL0     C84565   4.412   9.128   0.153 -0.1969  0.1432  0.1444
  627MOL0     C84566   4.406   9.099   0.017  0.3291  0.9259 -0.1802
  627MOL0     C84567   4.331   8.996  -0.037  0.6730  0.2269  0.4599
  627MOL0     O84568   4.338   8.994  -0.171 -0.3797  0.0524  0.1866
  627MOL0     C84569   4.263   8.895  -0.240 -0.4580  0.3188 -0.6325
  627MOL0     C84570   4.127   8.963  -0.281 -0.1107  0.4102  0.1371
  627MOL0     C84571   4.134   9.059  -0.401  0.7303  0.2792  0.8282
  627MOL0     C84572   4.002   9.125  -0.443  1.2263 -0.6077  0.4910
  627MOL0     C84573   3.903   9.047  -0.517 -0.5455  0.6705 -0.6709
  627MOL0     C84574   3.826   8.973  -0.569  0.2089 -0.0219  0.2371
  627MOL0     C84575   4.264   8.913   0.054  0.1368  0.4461  0.0564
  627MOL0     C84576   4.270   8.933   0.192 -0.8180  0.0573  0.0212
  627MOL0     C84577   4.201   8.835   0.282  0.3018 -0.6646 -0.4849
  627MOL0     H84578   4.304   9.172   0.649  1.0561 -1.7318 -0.3391
  627MOL0     H84579   4.378   9.337   0.830  3.1878 -1.1458  1.6678
  627MOL0     H84580   4.816   9.429   0.807 -1.1956  0.0714 -1.0780
  627MOL0     H84581   4.769   9.596   0.793  1.1452 -0.6827 -1.3270
  627MOL0     H84582   4.790   9.419   1.041  0.1033  0.9352  2.0845
  627MOL0     H84583   4.699   9.580   1.037 -1.3145  2.2786 -4.8251
  627MOL0     H84584   4.888   9.711   1.015  1.7738  0.3743 -3.0578
  627MOL0     H84585   4.972   9.578   0.934  1.5302  2.5075 -0.2224
  627MOL0     H84586   4.910   9.560   1.227  1.3772  3.6206  0.4498
  627MOL0     H84587   5.015   9.454   1.147 -0.7343 -0.6922 -1.2160
  627MOL0     H84588   5.166   9.649   1.076  0.9192 -0.8289  1.0140
  627MOL0     H84589   5.059   9.762   1.171 -0.3057  1.2361 -1.1148
  627MOL0     H84590   5.111   9.627   1.381  1.3464 -3.5451  0.1225
  627MOL0     H84591   5.208   9.520   1.291  0.5696  0.7524  3.0060
  627MOL0     H84592   5.248   9.827   1.294 -1.8597 -0.9382 -1.9322
  627MOL0     H84593   5.365   9.727   1.242  0.1288 -1.3939  0.0813
  627MOL0     H84594   5.252   9.765   1.526 -0.9506 -2.4865  0.2828
  627MOL0     H84595   5.343   9.626   1.504 -2.7411  1.1380  2.7663
  627MOL0     H84596   5.412   9.975   1.590  0.1546  1.0988 -1.8779
  627MOL0     H84597   5.804  10.038   1.577  0.9036  2.7694  1.2481
  627MOL0     H84598   5.688  10.133   1.503  1.1700 -0.0715 -0.7209
  627MOL0     H84599   5.546  10.120   1.708 -1.0914  2.4045  1.2644
  627MOL0     H84600   5.673  10.061   1.805 -3.5566 -0.8103  0.2665
  627MOL0     H84601   5.638  10.304   1.803  1.2599  0.2967  0.5723
  627MOL0     H84602   5.675  10.323   1.637 -1.2891 -1.1979 -0.8291
  627MOL0     H84603   5.852  10.237   1.878 -0.4011 -1.2739 -0.4606
  627MOL0     H84604   5.864  10.387   1.779 -1.8575 -0.5825  0.1522
  627MOL0     H84605   6.109  10.116   1.521 -0.1695 -2.1138  0.7073
  627MOL0     H84606   6.353  10.176   1.507 -1.6752  0.0467 -0.5787
  627MOL0     H84607   6.778  10.343   1.796 -0.3494 -0.2745 -0.1481
  627MOL0     H84608   7.001  10.381   1.732  1.0178  1.2563 -1.5685
  627MOL0     H84609   7.138  10.522   1.540  1.7122  2.1313 -2.5151
  627MOL0     H84610   7.209  10.393   1.648 -1.6726 -3.4963 -0.4711
  627MOL0     H84611   7.344  10.329   1.426  1.3158  0.1729  0.4511
  627MOL0     H84612   7.318  10.494   1.372 -3.8305  0.9910 -0.1612
  627MOL0     H84613   7.528  10.483   1.464 -2.4156  1.3263 -2.8943
  627MOL0     H84614   7.433  10.585   1.578  1.6077  0.0571  1.4955
  627MOL0     H84615   7.510  10.284   1.602 -0.4327  0.6835 -0.3641
  627MOL0     H84616   7.414  10.384   1.723 -0.8731  1.1107 -1.3284
  627MOL0     H84617   7.592  10.494   1.800  0.1398 -1.6285  1.3701
  627MOL0     H84618   7.686  10.470   1.655 -2.1028  1.0171 -0.3711
  627MOL0     H84619   7.622  10.244   1.859 -0.2948  1.2360  0.2658
  627MOL0     H84620   7.716  10.225   1.718 -0.6216 -2.4624  1.8135
  627MOL0     H84621   7.804  10.424   1.934  0.6641 -1.0335 -0.0694
  627MOL0     H84622   7.863  10.413   1.768 -0.7146 -1.9115 -1.4046
  627MOL0     H84623   7.885  10.186   1.978  2.3488 -1.4079 -0.0491
  627MOL0     H84624   7.950  10.184   1.817 -2.0678  0.4767 -1.5905
  627MOL0     H84625   6.902  10.224   1.336  1.2809 -1.5762  0.3714
  627MOL0     H84626   6.669  10.192   1.421  0.3526 -1.5308 -0.6446
  627MOL0     H84627   6.306  10.389   1.887  1.7416 -1.6182  0.2207
  627MOL0     H84628   6.081  10.359   1.878 -2.3913 -0.9270 -0.9854
  627MOL0     H84629   4.734   9.420   0.600  0.8685 -0.4554  0.3301
  627MOL0     H84630   4.647   9.287   0.425 -1.5236 -0.7552 -0.0364
  627MOL0     H84631   4.465   9.215   0.190 -1.3547  0.6264  0.7278
  627MOL0     H84632   4.462   9.162  -0.051 -0.0220 -0.4695 -1.8131
  627MOL0     H84633   4.243   8.804  -0.183  3.1077 -1.5134 -1.9922
  627MOL0     H84634   4.327   8.856  -0.319  1.5978  1.6606  0.2808
  627MOL0     H84635   4.095   9.018  -0.192  0.0851 -0.1722  0.5720
  627MOL0     H84636   4.054   8.883  -0.288 -0.3450  0.5589  0.8609
  627MOL0     H84637   4.159   8.999  -0.489 -1.1271 -0.9270  1.0699
  627MOL0     H84638   4.215   9.130  -0.383  0.1483  1.6012 -1.3039
  627MOL0     H84639   3.952   9.171  -0.357 -1.6797 -1.0417 -0.8294
  627MOL0     H84640   4.036   9.206  -0.509 -1.6014 -0.5622 -1.0588
  627MOL0     H84641   3.770   8.910  -0.635  1.7381  1.3170 -2.5385
  627MOL0     H84642   4.206   8.826   0.021 -0.5376  0.5320  0.9826
  627MOL0     H84643   4.155   8.747   0.237 -2.3734 -0.2404  1.1812
  627MOL0     H84644   4.275   8.795   0.352 -1.1821 -1.9646  0.4096
  627MOL0     H84645   4.113   8.875   0.334 -0.0415 -2.4520  0.3822
  628MOL0     O84646   9.413   0.266   1.878 -0.2300 -0.5614  0.5529
  628MOL0     C84647   9.481   0.372   1.897  0.4533 -0.1127  0.0354
  628MOL0     O84648   9.428   0.496   1.925 -0.2245 -0.0634  0.2257
  628MOL0     C84649   9.295   0.528   1.923 -0.1600 -0.2306 -0.6266
  628MOL0     C84650   9.188   0.440   1.883  0.0746  0.7545  0.5049
  628MOL0     C84651   9.061   0.495   1.876  0.0998  0.3342 -0.0337
  628MOL0     C84652   9.035   0.621   1.926 -0.2288 -0.3542  0.1144
  628MOL0     O84653   8.914   0.683   1.911 -0.8622  0.1456  0.5350
  628MOL0     C84654   8.849   0.768   2.007 -1.0750  0.6454  0.1362
  628MOL0     C84655   8.854   0.899   1.924 -0.3604 -0.1001 -0.1714
  628MOL0     C84656   8.786   1.010   1.999 -0.0269 -0.1832  0.5887
  628MOL0     C84657   8.819   1.144   1.935  0.5430 -0.0962  0.0393
  628MOL0     C84658   8.945   1.208   1.996  0.0996 -0.6648  0.3837
  628MOL0     C84659   8.980   1.350   1.934 -0.1688  0.6458  0.7639
  628MOL0     C84660   9.095   1.414   2.021  0.7505 -0.2170  0.1895
  628MOL0     C84661   9.175   1.518   1.939  0.9271 -0.7071  0.2565
  628MOL0     N84662   9.268   1.600   2.012  0.3803 -0.3518 -0.0582
  628MOL0     C84663   9.385   1.548   2.059 -0.4282  0.0092 -0.0234
  628MOL0     C84664   9.441   1.656   2.135 -0.2692 -0.0582  0.2561
  628MOL0     C84665   9.563   1.670   2.222 -0.1113  0.9564  0.2355
  628MOL0     C84666   9.658   1.779   2.170  0.0644 -0.0467  0.1656
  628MOL0     C84667   9.751   1.719   2.068  0.7821  0.0788 -0.7576
  628MOL0     C84668   9.858   1.818   2.019  0.8634 -0.3816  0.2277
  628MOL0     O84669   9.945   1.859   2.125 -0.2694 -0.4364  0.0863
  628MOL0     C84670  10.072   1.907   2.089 -0.3873 -0.3332 -0.1285
  628MOL0     C84671  10.141   1.958   2.199 -0.0633  0.0730  0.7672
  628MOL0     C84672  10.274   2.002   2.194  0.4299 -0.2132 -0.3141
  628MOL0     C84673  10.335   2.010   2.071  0.1943  0.1804  0.0281
  628MOL0     C84674  10.480   2.043   2.064  0.1986 -0.2023  0.2190
  628MOL0     O84675  10.519   2.091   1.946 -0.5847 -0.1088  0.9021
  628MOL0     C84676  10.654   2.078   1.916 -0.9826 -0.3568  0.3819
  628MOL0     C84677  10.694   1.970   1.830  0.1119 -1.4220  0.8794
  628MOL0     C84678  10.821   1.955   1.782  0.0573 -0.6780  0.0851
  628MOL0     C84679  10.918   2.054   1.806 -0.4800 -0.1057  1.1519
  628MOL0     O84680  11.047   2.026   1.753  0.2285  0.7681  0.0948
  628MOL0     C84681  11.149   2.126   1.751 -0.4745 -0.8750  0.0319
  628MOL0     C84682  11.131   2.210   1.616  0.0584  0.4390 -0.3224
  628MOL0     C84683  11.248   2.300   1.589  0.4913 -0.8754  0.0740
  628MOL0     C84684  11.219   2.393   1.472 -0.6532 -0.7286 -0.1033
  628MOL0     C84685  11.329   2.494   1.450 -0.3032  0.2247  0.1547
  628MOL0     C84686  11.461   2.441   1.403  0.3073  0.1638 -0.2498
  628MOL0     C84687  11.469   2.432   1.249  0.1189 -0.4327 -0.4660
  628MOL0     C84688  11.596   2.371   1.197  0.1067 -0.0325  0.3397
  628MOL0    Cl84689  11.734   2.484   1.207 -0.0598 -0.0292 -0.1081
  628MOL0     C84690  10.882   2.174   1.875  0.7214 -0.5783  0.8707
  628MOL0     C84691  10.753   2.182   1.927 -0.7331  0.0337 -0.9894
  628MOL0     O84692  10.552   2.036   2.162  0.5194 -0.4909  0.3908
  628MOL0     C84693  10.272   1.953   1.960  0.7259  0.1947 -0.0638
  628MOL0     C84694  10.138   1.904   1.968 -0.2079  0.1775 -0.0081
  628MOL0     N84695   9.358   1.766   2.108 -0.1634 -0.4740 -0.5005
  628MOL0     N84696   9.259   1.733   2.043  0.7075 -0.4871 -0.6944
  628MOL0     C84697   9.141   0.697   1.976  1.1512  0.2998  0.0032
  628MOL0     C84698   9.274   0.654   1.969  0.4310  0.1290 -0.3955
  628MOL0     C84699   9.623   0.354   1.888  0.1380 -0.1626  0.9036
  628MOL0     C84700   9.691   0.468   1.836  1.1666 -0.2129  0.0145
  628MOL0     C84701   9.828   0.464   1.805  0.1889 -0.0888 -0.0913
  628MOL0     C84702   9.899   0.351   1.833 -0.0223 -0.1672 -0.2065
  628MOL0     O84703  10.032   0.355   1.807 -0.5198  0.4228 -0.6879
  628MOL0     C84704  10.092   0.223   1.769 -0.4391 -0.2556 -1.0231
  628MOL0     C84705  10.179   0.173   1.876  0.3825  0.2530 -0.3578
  628MOL0     C84706  10.245   0.032   1.844 -0.3805 -0.4430 -0.0682
  628MOL0     C84707  10.193  -0.087   1.934  0.1024 -0.4659 -0.6720
  628MOL0     C84708  10.050  -0.100   1.912  0.3957  0.0489 -0.2865
  628MOL0     C84709   9.939  -0.131   1.910  0.5235 -0.0158  0.6581
  628MOL0     C84710   9.829   0.247   1.898 -1.1926  0.8470 -0.6101
  628MOL0     C84711   9.696   0.246   1.925  0.3291  0.1506 -0.1317
  628MOL0     C84712   9.645   0.120   1.994 -0.1690  0.2341 -0.0123
  628MOL0     H84713   9.206   0.342   1.840 -0.4566  0.3609  1.1499
  628MOL0     H84714   8.974   0.444   1.836 -1.6398  0.2622  3.4312
  628MOL0     H84715   8.746   0.738   2.031 -1.0618 -0.4808 -1.1309
  628MOL0     H84716   8.906   0.780   2.100  2.1698  1.5183 -1.8104
  628MOL0     H84717   8.808   0.896   1.825 -0.7124  2.0768 -0.1160
  628MOL0     H84718   8.958   0.924   1.897 -1.1082  4.9776  0.6649
  628MOL0     H84719   8.817   1.019   2.104 -0.2022  1.0637  0.5442
  628MOL0     H84720   8.678   0.997   1.989  0.1738 -1.6411  0.0634
  628MOL0     H84721   8.842   1.127   1.830  3.0676  1.0013  0.3279
  628MOL0     H84722   8.731   1.205   1.959 -1.2059 -1.9054 -1.4739
  628MOL0     H84723   8.914   1.230   2.099 -0.8720  3.0455 -0.5523
  628MOL0     H84724   9.028   1.137   1.993  0.5960 -0.1250  1.0300
  628MOL0     H84725   9.007   1.337   1.829  0.7223  1.8598  0.8296
  628MOL0     H84726   8.890   1.412   1.941 -0.5582  0.0188  1.6161
  628MOL0     H84727   9.161   1.340   2.067  3.0513  1.1922 -0.6650
  628MOL0     H84728   9.040   1.465   2.100 -1.5731 -1.7678 -0.3161
  628MOL0     H84729   9.223   1.475   1.850  0.1973 -1.9426  0.4344
  628MOL0     H84730   9.102   1.585   1.893  1.9984  0.2999 -0.0363
  628MOL0     H84731   9.423   1.447   2.048  1.4538  0.6623 -0.0185
  628MOL0     H84732   9.541   1.699   2.325  1.3552  1.4836  0.4263
  628MOL0     H84733   9.611   1.572   2.233 -0.5400  0.7378  0.2054
  628MOL0     H84734   9.605   1.864   2.126  3.2694  2.1575  0.2048
  628MOL0     H84735   9.723   1.823   2.246  0.5940  1.0810 -0.8950
  628MOL0     H84736   9.691   1.696   1.979  1.5337 -1.1357 -0.9686
  628MOL0     H84737   9.796   1.626   2.104  0.1501  0.4157  0.9968
  628MOL0     H84738   9.817   1.915   1.990 -2.2278 -2.1689 -1.9042
  628MOL0     H84739   9.908   1.773   1.933 -0.5204  1.8990 -1.9097
  628MOL0     H84740  10.093   1.952   2.296 -2.2378 -0.6316 -0.2802
  628MOL0     H84741  10.324   2.020   2.289 -3.1655 -0.5854  1.8047
  628MOL0     H84742  10.623   1.892   1.807 -1.4925  0.4576 -0.8350
  628MOL0     H84743  10.840   1.876   1.710  1.1387  1.3820 -2.0639
  628MOL0     H84744  11.140   2.185   1.843 -0.0437 -0.9346  0.1185
  628MOL0     H84745  11.244   2.072   1.742 -0.5053 -0.6666 -2.0030
  628MOL0     H84746  11.113   2.143   1.531 -0.9189 -0.0812  0.2845
  628MOL0     H84747  11.047   2.280   1.625  1.1585  1.9011 -0.9295
  628MOL0     H84748  11.263   2.358   1.680  3.0514  2.8270 -2.4238
  628MOL0     H84749  11.343   2.247   1.580  0.8907 -0.0728 -0.6022
  628MOL0     H84750  11.120   2.437   1.487  0.1095  0.4259  2.1307
  628MOL0     H84751  11.194   2.329   1.387 -2.9072 -0.8428  0.5838
  628MOL0     H84752  11.346   2.550   1.543  0.5955  0.9904 -0.4581
  628MOL0     H84753  11.307   2.572   1.376  2.1901  0.6750 -0.1969
  628MOL0     H84754  11.539   2.512   1.431  0.6172 -0.9261  1.8109
  628MOL0     H84755  11.485   2.349   1.458  0.7687  0.2870 -0.2382
  628MOL0     H84756  11.453   2.525   1.194  0.5517 -0.1866 -0.1844
  628MOL0     H84757  11.394   2.358   1.220  0.8567 -1.7452  0.8160
  628MOL0     H84758  11.621   2.280   1.252 -1.1142  0.0390  1.0592
  628MOL0     H84759  11.580   2.349   1.091  0.3328  0.4348  0.2031
  628MOL0     H84760  10.953   2.255   1.880  0.6326 -0.2838 -1.4194
  628MOL0     H84761  10.716   2.271   1.977 -0.1569  0.2451 -0.9251
  628MOL0     H84762  10.337   1.948   1.873  2.9035  3.4703  1.1685
  628MOL0     H84763  10.093   1.867   1.876 -0.0055 -1.0234  0.3502
  628MOL0     H84764   9.121   0.799   2.007  3.0839  0.2298  1.7749
  628MOL0     H84765   9.352   0.726   1.990 -1.2707  2.5736 -1.8678
  628MOL0     H84766   9.633   0.556   1.811  1.7784  0.6548  1.5228
  628MOL0     H84767   9.872   0.551   1.759  2.1254 -1.8086 -1.6385
  628MOL0     H84768  10.154   0.234   1.679  1.4840  0.0411  0.2657
  628MOL0     H84769  10.013   0.158   1.732  1.1812 -0.8672 -3.7015
  628MOL0     H84770  10.123   0.163   1.969  2.2071  1.3381  0.9131
  628MOL0     H84771  10.260   0.243   1.899 -0.4505  0.7780  1.0591
  628MOL0     H84772  10.352   0.040   1.859  0.0415 -2.0655 -1.7859
  628MOL0     H84773  10.237   0.008   1.737  1.6941 -0.8494 -0.1747
  628MOL0     H84774  10.244  -0.179   1.905 -0.4838  0.0676 -3.7540
  628MOL0     H84775  10.206  -0.064   2.040 -2.9691 -0.6490 -0.1512
  628MOL0     H84776   9.836  -0.159   1.910  0.0579  1.6253 -0.1195
  628MOL0     H84777   9.880   0.157   1.929  0.3231  1.2181 -1.9054
  628MOL0     H84778   9.603   0.135   2.094  0.8474 -1.4085  0.7009
  628MOL0     H84779   9.563   0.071   1.940 -1.8016  1.6080  1.0993
  628MOL0     H84780   9.720   0.042   2.007  1.1110  1.4082 -0.0460
  629MOL0     O84781   6.400   1.040   9.316 -0.7816  0.0218 -0.2630
  629MOL0     C84782   6.464   1.018   9.212 -0.3017 -0.9180 -0.1817
  629MOL0     O84783   6.441   0.903   9.138  1.0809 -0.1795  0.2924
  629MOL0     C84784   6.338   0.821   9.178  0.6542 -0.5650 -0.2445
  629MOL0     C84785   6.212   0.872   9.207 -0.1792  0.1803 -0.2308
  629MOL0     C84786   6.107   0.792   9.258 -0.0212  0.2026  0.2004
  629MOL0     C84787   6.117   0.657   9.265 -0.5330  0.0483  0.0731
  629MOL0     O84788   6.014   0.574   9.293  0.7501  0.0173 -0.6361
  629MOL0     C84789   5.880   0.620   9.269  0.4522  0.9765  1.4386
  629MOL0     C84790   5.791   0.501   9.237 -0.3157  0.1686 -0.6153
  629MOL0     C84791   5.833   0.414   9.124 -0.4853  0.5043  0.5375
  629MOL0     C84792   5.785   0.461   8.982  0.2714  0.4922 -1.0732
  629MOL0     C84793   5.842   0.594   8.928  0.5545 -0.4289  0.7278
  629MOL0     C84794   5.992   0.583   8.918  0.5171 -0.7054 -0.2918
  629MOL0     C84795   6.058   0.697   8.841 -0.6495  0.9465 -0.4780
  629MOL0     C84796   6.210   0.668   8.824  0.4852  0.2723 -0.6113
  629MOL0     N84797   6.263   0.787   8.760  0.3376 -0.5815  1.4191
  629MOL0     C84798   6.292   0.904   8.831  0.0377 -0.3790  0.3522
  629MOL0     C84799   6.318   0.994   8.731 -0.2336 -0.5584  0.1811
  629MOL0     C84800   6.353   1.145   8.758  0.2705  0.4419  0.4648
  629MOL0     C84801   6.507   1.169   8.756  0.7971  0.1188 -0.3733
  629MOL0     C84802   6.589   1.125   8.624  0.3876  0.1310  0.7007
  629MOL0     C84803   6.739   1.143   8.628  0.4436 -0.1134  0.2887
  629MOL0     O84804   6.766   1.284   8.664 -0.0398  0.1309  0.2637
  629MOL0     C84805   6.892   1.333   8.638  0.2140 -0.1291 -0.3285
  629MOL0     C84806   6.911   1.467   8.658 -0.0330  0.4031 -0.8400
  629MOL0     C84807   7.030   1.534   8.642 -0.1524  0.4210 -0.7821
  629MOL0     C84808   7.141   1.468   8.589 -0.6339  0.0734 -0.0879
  629MOL0     C84809   7.282   1.525   8.592  0.3514  0.6145  0.2484
  629MOL0     O84810   7.358   1.500   8.484 -0.9505 -0.4363  0.1439
  629MOL0     C84811   7.499   1.515   8.483  0.2366 -0.4927  0.4882
  629MOL0     C84812   7.561   1.505   8.356  1.0459  0.7710 -0.6500
  629MOL0     C84813   7.704   1.522   8.347  0.3942  0.1471 -0.9849
  629MOL0     C84814   7.779   1.544   8.460  0.4253 -0.4637  1.2551
  629MOL0     O84815   7.912   1.567   8.441 -0.4291  0.0448 -0.6159
  629MOL0     C84816   7.961   1.670   8.530  1.0112  0.7091  0.6054
  629MOL0     C84817   8.113   1.667   8.539 -0.3290 -0.8761 -0.8130
  629MOL0     C84818   8.163   1.770   8.634  0.0998  0.4182 -0.5356
  629MOL0     C84819   8.316   1.753   8.650  0.0473  0.1205 -0.8913
  629MOL0     C84820   8.362   1.847   8.771 -0.8542 -0.2226 -0.6064
  629MOL0     C84821   8.319   2.002   8.761  0.0148  0.4612  0.3102
  629MOL0     C84822   8.323   2.068   8.895 -0.4322 -0.2508 -0.2103
  629MOL0     C84823   8.303   2.221   8.875  0.0579 -0.5412  0.1706
  629MOL0    Cl84824   8.282   2.297   9.034 -0.3684  0.1543 -0.5276
  629MOL0     C84825   7.718   1.531   8.586  0.1472  0.2325 -0.3033
  629MOL0     C84826   7.580   1.525   8.597  0.0772 -0.2666  0.2419
  629MOL0     O84827   7.314   1.588   8.692  0.0202 -0.6829  0.0765
  629MOL0     C84828   7.124   1.329   8.563  0.3066 -0.1011 -0.2825
  629MOL0     C84829   7.004   1.261   8.584 -0.9956 -0.3626 -0.5282
  629MOL0     N84830   6.301   0.934   8.609 -1.7080  0.6373 -0.4923
  629MOL0     N84831   6.273   0.810   8.625 -0.7124 -0.5455 -0.2126
  629MOL0     C84832   6.244   0.600   9.235  0.0158 -0.2411 -0.3366
  629MOL0     C84833   6.350   0.681   9.203  0.3845 -0.2239 -0.1093
  629MOL0     C84834   6.567   1.115   9.170 -0.8149 -0.7557 -0.7083
  629MOL0     C84835   6.553   1.246   9.217 -0.4457 -0.0283  0.6174
  629MOL0     C84836   6.640   1.344   9.161  0.6333  0.2291  0.6045
  629MOL0     C84837   6.748   1.310   9.074  0.7394 -0.4973  0.4307
  629MOL0     O84838   6.834   1.399   9.019 -0.2390  0.8321 -0.0165
  629MOL0     C84839   6.823   1.534   9.057  0.7153  0.3629 -0.4304
  629MOL0     C84840   6.935   1.621   8.995  0.1017  0.2609 -0.3808
  629MOL0     C84841   6.934   1.760   9.062  0.4351 -0.2981 -0.0664
  629MOL0     C84842   7.070   1.838   9.021 -0.3884  0.1289 -0.2185
  629MOL0     C84843   7.190   1.777   9.088 -0.0189 -0.5099 -0.3172
  629MOL0     C84844   7.293   1.728   9.128 -0.3383  0.0154  0.8279
  629MOL0     C84845   6.766   1.173   9.056 -0.3110  0.5816 -0.0951
  629MOL0     C84846   6.680   1.075   9.097 -0.3118  0.0735 -0.7686
  629MOL0     C84847   6.712   0.934   9.045 -0.3036 -0.2266 -1.2163
  629MOL0     H84848   6.183   0.977   9.209 -1.0747 -0.0459 -0.7197
  629MOL0     H84849   6.014   0.838   9.289 -1.2532 -0.9292 -1.6587
  629MOL0     H84850   5.836   0.660   9.361 -0.8313 -0.2021  1.3616
  629MOL0     H84851   5.872   0.701   9.195 -3.8956  0.5370  1.1799
  629MOL0     H84852   5.689   0.543   9.242  1.1779  4.1376  2.0821
  629MOL0     H84853   5.810   0.438   9.324  1.1976 -1.1989 -1.8810
  629MOL0     H84854   5.785   0.317   9.142 -0.4033  0.8856  3.2002
  629MOL0     H84855   5.941   0.398   9.126 -0.4975  0.4517  2.3835
  629MOL0     H84856   5.798   0.385   8.904 -2.4247  0.0275 -1.1824
  629MOL0     H84857   5.677   0.480   8.983  0.1055 -0.4139 -1.2709
  629MOL0     H84858   5.801   0.617   8.829 -2.8263 -2.4608  1.4652
  629MOL0     H84859   5.814   0.673   8.998  1.5624 -2.0904  3.1524
  629MOL0     H84860   6.044   0.590   9.014  0.7092 -0.5933 -0.4020
  629MOL0     H84861   6.026   0.482   8.889 -0.4055 -1.8838  2.3916
  629MOL0     H84862   6.049   0.790   8.897 -0.0023  0.7647 -0.0629
  629MOL0     H84863   6.006   0.698   8.744 -0.9364 -1.9943 -0.4640
  629MOL0     H84864   6.260   0.655   8.920 -1.2787 -1.5348  0.1130
  629MOL0     H84865   6.228   0.583   8.757  0.3078  0.4175 -0.8473
  629MOL0     H84866   6.267   0.927   8.934 -3.5203  3.2813 -1.0643
  629MOL0     H84867   6.298   1.210   8.689  1.1490  0.7495  0.0536
  629MOL0     H84868   6.323   1.182   8.856  0.0351 -0.2131  0.6479
  629MOL0     H84869   6.528   1.276   8.756  1.5391 -0.0070 -1.1453
  629MOL0     H84870   6.547   1.129   8.849 -0.0902 -2.1072 -0.8870
  629MOL0     H84871   6.558   1.162   8.526  0.9894  0.1684  0.5214
  629MOL0     H84872   6.565   1.019   8.623 -1.7121  0.5479 -0.8133
  629MOL0     H84873   6.771   1.114   8.528 -1.8261 -2.5000  0.1583
  629MOL0     H84874   6.776   1.089   8.715 -0.0269  0.5259  0.9001
  629MOL0     H84875   6.828   1.520   8.704  1.1218  2.5922 -1.1305
  629MOL0     H84876   7.038   1.632   8.687 -0.2724 -1.0061  2.6438
  629MOL0     H84877   7.498   1.470   8.275 -0.3459 -1.5601  1.2786
  629MOL0     H84878   7.759   1.532   8.253  2.0670  3.4561  0.1854
  629MOL0     H84879   7.935   1.771   8.498 -0.1136 -0.2584 -1.8271
  629MOL0     H84880   7.925   1.649   8.631 -0.1431 -0.1956  0.0343
  629MOL0     H84881   8.140   1.567   8.573 -1.6387 -1.4064 -1.2695
  629MOL0     H84882   8.160   1.674   8.440  1.0073 -1.3529 -0.2310
  629MOL0     H84883   8.129   1.869   8.603  0.5457  0.6040 -0.4484
  629MOL0     H84884   8.121   1.752   8.733  0.0618  1.9397 -0.2408
  629MOL0     H84885   8.362   1.792   8.559 -2.0704 -0.0075 -2.0802
  629MOL0     H84886   8.335   1.649   8.677  0.3033  0.6685  1.2142
  629MOL0     H84887   8.469   1.838   8.789 -1.1813 -0.8066  1.3469
  629MOL0     H84888   8.308   1.802   8.855 -2.0548  0.3129 -1.0598
  629MOL0     H84889   8.380   2.061   8.693 -0.9753 -1.3458 -2.2898
  629MOL0     H84890   8.223   2.027   8.716  0.7986  1.0559 -1.0976
  629MOL0     H84891   8.418   2.048   8.946 -0.5312 -1.6921 -0.5558
  629MOL0     H84892   8.253   2.022   8.965  1.2691 -0.6893  1.2804
  629MOL0     H84893   8.386   2.266   8.820  3.2901 -2.5585  3.0377
  629MOL0     H84894   8.204   2.237   8.831  1.1360  0.8878 -1.9249
  629MOL0     H84895   7.779   1.523   8.675 -0.4167  0.1214  0.0848
  629MOL0     H84896   7.541   1.507   8.697 -1.4213 -1.5152 -0.5170
  629MOL0     H84897   7.209   1.278   8.519  0.9515  3.0776 -3.0710
  629MOL0     H84898   7.007   1.157   8.553  2.0638 -0.5862  0.1492
  629MOL0     H84899   6.254   0.493   9.252  1.5861  0.2304  2.1906
  629MOL0     H84900   6.445   0.632   9.183 -0.7586 -1.8815 -1.8684
  629MOL0     H84901   6.474   1.286   9.279 -1.2295  1.4037 -1.1869
  629MOL0     H84902   6.610   1.444   9.192  0.0289  0.5837 -0.9976
  629MOL0     H84903   6.838   1.539   9.165 -1.5818  0.7850 -0.0793
  629MOL0     H84904   6.725   1.574   9.032  0.0365 -1.3382 -0.6337
  629MOL0     H84905   6.925   1.615   8.886  0.9808 -2.6135 -0.3914
  629MOL0     H84906   7.023   1.561   9.020 -1.7467 -2.8494 -0.7057
  629MOL0     H84907   6.925   1.752   9.170  0.0064  1.7457  0.0895
  629MOL0     H84908   6.849   1.815   9.020  0.0442 -0.7783  0.0828
  629MOL0     H84909   7.089   1.828   8.914 -1.2342  0.0145 -0.3597
  629MOL0     H84910   7.060   1.944   9.046 -1.5969 -0.1284  0.4476
  629MOL0     H84911   7.390   1.697   9.161  0.6115  1.8362 -0.0989
  629MOL0     H84912   6.856   1.149   9.001  0.3958 -1.2209  1.7205
  629MOL0     H84913   6.642   0.910   8.964  0.7364 -0.9115 -1.9514
  629MOL0     H84914   6.817   0.927   9.012  0.1717 -2.0216  0.4977
  629MOL0     H84915   6.701   0.856   9.121 -2.2288  2.2900  1.2792
  630MOL0     O84916   6.407   5.464   7.212  0.3853 -0.1138  0.3370
  630MOL0     C84917   6.386   5.360   7.278 -0.3647  0.8463 -0.1090
  630MOL0     O84918   6.468   5.249   7.287  0.0150 -0.4009 -0.4683
  630MOL0     C84919   6.577   5.232   7.203  0.9129  0.2493  0.8294
  630MOL0     C84920   6.671   5.331   7.178  0.7462  0.3068  0.1115
  630MOL0     C84921   6.785   5.308   7.100  0.1575 -0.0171  0.0331
  630MOL0     C84922   6.800   5.169   7.056 -0.5395  0.0387 -0.0687
  630MOL0     O84923   6.914   5.125   6.989 -0.1196  0.2550 -0.1023
  630MOL0     C84924   6.935   5.185   6.860 -0.8770  0.4243 -0.3176
  630MOL0     C84925   7.074   5.154   6.805  0.2163 -0.4597  0.1054
  630MOL0     C84926   7.067   5.024   6.735  0.9079  0.3102  0.2551
  630MOL0     C84927   7.202   4.977   6.707 -0.3701 -0.2625 -0.0736
  630MOL0     C84928   7.183   4.856   6.627  0.0483  0.2249  0.1638
  630MOL0     C84929   7.312   4.784   6.598 -0.6760 -0.3528  0.3316
  630MOL0     C84930   7.308   4.685   6.493  0.5408 -0.0256  0.1173
  630MOL0     C84931   7.441   4.655   6.436  0.4057  0.5670  0.0426
  630MOL0     N84932   7.561   4.655   6.527  0.2094  0.3192 -0.6889
  630MOL0     C84933   7.594   4.569   6.622 -0.2818  0.3834 -0.0866
  630MOL0     C84934   7.696   4.611   6.695 -0.1405  0.5480  0.1556
  630MOL0     C84935   7.771   4.554   6.807 -0.1353  1.0772  0.1751
  630MOL0     C84936   7.844   4.666   6.893 -0.0357  0.1046 -1.2960
  630MOL0     C84937   7.944   4.624   7.004  0.7507  0.5266 -0.2246
  630MOL0     C84938   8.071   4.554   6.959  0.3231  0.0692  0.5358
  630MOL0     O84939   8.160   4.528   7.062 -0.4785 -0.4681  0.2548
  630MOL0     C84940   8.284   4.483   7.031 -0.5374 -0.4314 -0.2992
  630MOL0     C84941   8.321   4.468   6.895 -1.1905 -1.0116  0.0381
  630MOL0     C84942   8.458   4.447   6.859  0.0449  0.4618  0.4299
  630MOL0     C84943   8.559   4.429   6.956 -0.2934 -0.6552 -0.1468
  630MOL0     C84944   8.703   4.413   6.927  0.0900 -0.5782 -0.3906
  630MOL0     O84945   8.744   4.399   6.798 -0.6482 -0.0895 -0.0115
  630MOL0     C84946   8.875   4.399   6.779  0.5455 -0.5458 -0.0582
  630MOL0     C84947   8.942   4.519   6.748  0.5628 -0.4778  0.8500
  630MOL0     C84948   9.077   4.534   6.755  0.2615  1.0580 -0.2020
  630MOL0     C84949   9.158   4.420   6.778 -0.1738 -0.1564  0.1343
  630MOL0     O84950   9.293   4.450   6.793  0.1123 -1.0761 -0.3044
  630MOL0     C84951   9.386   4.344   6.793 -1.0264 -0.1381  0.6474
  630MOL0     C84952   9.530   4.397   6.792  0.7582 -0.2570  0.3375
  630MOL0     C84953   9.578   4.440   6.650  0.5566  0.7695  0.6499
  630MOL0     C84954   9.719   4.489   6.652 -0.1707  0.1775 -0.6210
  630MOL0     C84955   9.774   4.562   6.527  0.7149  0.0262 -0.1464
  630MOL0     C84956   9.909   4.631   6.540 -1.0738 -0.5733 -0.2715
  630MOL0     C84957  10.035   4.549   6.502  0.3354 -0.1590 -0.5336
  630MOL0     C84958  10.046   4.412   6.570 -0.1197 -0.0954 -0.2704
  630MOL0    Cl84959  10.205   4.346   6.517 -0.3686  0.1716 -0.2803
  630MOL0     C84960   9.097   4.295   6.800  0.0923  0.4509 -0.6499
  630MOL0     C84961   8.957   4.287   6.800 -0.0496 -0.7786 -0.0701
  630MOL0     O84962   8.780   4.414   7.026 -0.2464 -0.0619  0.5045
  630MOL0     C84963   8.510   4.428   7.089 -0.2003  0.3978  0.4881
  630MOL0     C84964   8.381   4.454   7.124 -0.9974 -1.0231 -0.2039
  630MOL0     N84965   7.728   4.725   6.634 -0.4710  0.2105 -1.1710
  630MOL0     N84966   7.649   4.759   6.531 -0.5579  0.4113 -0.4886
  630MOL0     C84967   6.696   5.067   7.071  0.1072 -0.3854 -0.4767
  630MOL0     C84968   6.582   5.102   7.148  0.0900 -0.5264 -0.1145
  630MOL0     C84969   6.265   5.358   7.369 -0.3342  0.5926  0.5790
  630MOL0     C84970   6.281   5.281   7.481 -0.1996 -0.9183 -0.8481
  630MOL0     C84971   6.176   5.257   7.569 -0.4040 -0.4255  0.0014
  630MOL0     C84972   6.047   5.307   7.548  1.1514 -0.2011 -0.2315
  630MOL0     O84973   5.947   5.283   7.634  0.1237  0.5058 -0.3282
  630MOL0     C84974   5.833   5.360   7.648  0.5065  0.6687 -0.0022
  630MOL0     C84975   5.873   5.488   7.719 -0.3128 -0.3769 -0.1101
  630MOL0     C84976   5.931   5.612   7.646  0.1054 -0.1476  0.0897
  630MOL0     C84977   5.843   5.678   7.535 -0.3695 -0.5687 -0.2051
  630MOL0     C84978   5.925   5.771   7.457  0.2839 -0.2610  0.1807
  630MOL0     C84979   5.994   5.838   7.380 -0.4099  0.1081 -0.3840
  630MOL0     C84980   6.033   5.395   7.438  0.5996 -0.0610  0.3007
  630MOL0     C84981   6.141   5.418   7.347 -0.0608 -0.0804 -0.1697
  630MOL0     C84982   6.112   5.504   7.227 -0.3254 -1.1748 -0.6108
  630MOL0     H84983   6.657   5.431   7.218  2.4699  0.9917 -0.8749
  630MOL0     H84984   6.854   5.387   7.073  0.8213 -1.5888 -3.3174
  630MOL0     H84985   6.861   5.138   6.795 -0.7527 -0.8734  0.4262
  630MOL0     H84986   6.921   5.293   6.867 -0.4945  0.3957  2.0470
  630MOL0     H84987   7.144   5.154   6.888  0.4405 -2.4424 -0.0294
  630MOL0     H84988   7.103   5.232   6.734 -1.8724 -0.3542 -0.7027
  630MOL0     H84989   7.016   5.040   6.639 -1.0176  0.7408  1.2883
  630MOL0     H84990   7.000   4.952   6.783  1.0193  0.3587  0.4851
  630MOL0     H84991   7.270   5.048   6.657  1.8410 -0.7902  1.9928
  630MOL0     H84992   7.261   4.950   6.794  0.8274  1.9714 -0.0905
  630MOL0     H84993   7.110   4.779   6.657  0.8549 -0.0781  1.4297
  630MOL0     H84994   7.146   4.890   6.530  1.0881 -1.4037 -0.8547
  630MOL0     H84995   7.381   4.866   6.579  0.1973 -1.1385  0.0519
  630MOL0     H84996   7.358   4.744   6.689  1.4199  3.4195  1.1359
  630MOL0     H84997   7.244   4.707   6.407  2.3226 -0.9928 -1.5497
  630MOL0     H84998   7.272   4.590   6.534  0.7907 -0.3611 -0.4189
  630MOL0     H84999   7.447   4.557   6.387  1.1542 -0.0783  1.3605
  630MOL0     H85000   7.460   4.724   6.353 -1.8892 -0.0146 -1.0349
  630MOL0     H85001   7.533   4.479   6.632  0.4410 -0.5291 -2.8843
  630MOL0     H85002   7.701   4.501   6.872 -0.8526  0.7006 -0.8840
  630MOL0     H85003   7.849   4.485   6.774 -1.8597  0.0347 -1.9200
  630MOL0     H85004   7.890   4.735   6.822  0.7682  2.5197  1.3976
  630MOL0     H85005   7.776   4.727   6.954 -0.3099 -1.5435  0.1540
  630MOL0     H85006   7.891   4.570   7.083 -0.6629  0.8436 -0.9360
  630MOL0     H85007   7.986   4.718   7.042  0.7461 -0.4229  2.3575
  630MOL0     H85008   8.109   4.609   6.873 -2.0863  1.3811  0.2297
  630MOL0     H85009   8.043   4.458   6.914  1.6277 -0.1356  0.1462
  630MOL0     H85010   8.257   4.482   6.809 -0.4971  0.3236 -0.2873
  630MOL0     H85011   8.483   4.462   6.754  0.1401  2.9328  0.7258
  630MOL0     H85012   8.899   4.618   6.733 -0.1569 -0.2160  3.9464
  630MOL0     H85013   9.116   4.634   6.736 -0.1527  1.2455 -0.0783
  630MOL0     H85014   9.376   4.286   6.885  1.1505  0.1692  1.1213
  630MOL0     H85015   9.370   4.276   6.708 -2.8090 -0.6770  1.3620
  630MOL0     H85016   9.531   4.482   6.861 -1.3092  0.0813  0.0088
  630MOL0     H85017   9.589   4.310   6.821  0.1233  0.3017  3.7291
  630MOL0     H85018   9.572   4.350   6.588  2.5632  1.5607 -0.7920
  630MOL0     H85019   9.517   4.518   6.604  1.4200 -0.0867 -2.1636
  630MOL0     H85020   9.786   4.414   6.696  1.8689  2.9520  1.3515
  630MOL0     H85021   9.707   4.569   6.725 -2.3245 -2.1456  1.7740
  630MOL0     H85022   9.704   4.641   6.498  1.4434 -0.2026 -2.7217
  630MOL0     H85023   9.772   4.496   6.440 -2.8969 -2.5184  1.5994
  630MOL0     H85024   9.893   4.709   6.465  1.1467 -1.3924 -1.6817
  630MOL0     H85025   9.927   4.685   6.634  1.2407  2.6257 -2.3506
  630MOL0     H85026  10.120   4.607   6.541 -0.2539  2.5783 -2.9487
  630MOL0     H85027  10.054   4.545   6.394 -1.0061  1.9151 -0.9094
  630MOL0     H85028  10.034   4.421   6.679 -2.2796 -0.4903 -0.4316
  630MOL0     H85029   9.964   4.351   6.531  0.4609  0.4557 -2.4857
  630MOL0     H85030   9.149   4.203   6.822  0.0458  0.8725  1.4042
  630MOL0     H85031   8.901   4.195   6.817 -1.0652 -0.0650  0.6030
  630MOL0     H85032   8.583   4.407   7.167  1.5915  0.1272 -1.1713
  630MOL0     H85033   8.363   4.453   7.231 -2.3940 -0.2775 -0.4124
  630MOL0     H85034   6.688   4.966   7.033 -1.9677 -1.1195  1.6097
  630MOL0     H85035   6.503   5.030   7.166 -1.0109  0.2272 -1.6855
  630MOL0     H85036   6.380   5.249   7.513 -0.4227  0.0357  0.8749
  630MOL0     H85037   6.194   5.209   7.665 -2.8557  2.0547  1.8977
  630MOL0     H85038   5.769   5.295   7.708 -0.9752 -0.0821 -2.2439
  630MOL0     H85039   5.779   5.374   7.553  0.4555 -0.6464 -0.1878
  630MOL0     H85040   5.944   5.469   7.800  2.9516  2.6734 -2.0090
  630MOL0     H85041   5.784   5.528   7.769  0.1639  1.6762 -0.8236
  630MOL0     H85042   6.030   5.589   7.606  0.4237 -0.5106  1.0351
  630MOL0     H85043   5.946   5.694   7.717  0.2088  1.3518 -1.5992
  630MOL0     H85044   5.799   5.602   7.470 -1.9007 -2.4824  2.7822
  630MOL0     H85045   5.767   5.732   7.593  1.1530  2.2049 -0.6347
  630MOL0     H85046   6.048   5.895   7.307 -0.2281  0.9165  0.3647
  630MOL0     H85047   5.935   5.435   7.414  1.3736  0.7009 -1.7395
  630MOL0     H85048   6.005   5.518   7.211 -0.7767 -2.2652  1.1996
  630MOL0     H85049   6.163   5.601   7.234 -3.7369  0.8462 -1.4854
  630MOL0     H85050   6.149   5.454   7.137  0.0910 -0.3105 -0.9352
  631MOL0     O85051   0.540  11.316   1.254  0.2380 -0.6282  0.5080
  631MOL0     C85052   0.544  11.408   1.339  0.2702  0.2914  0.2578
  631MOL0     O85053   0.659  11.467   1.390  0.1753  0.1660  0.3049
  631MOL0     C85054   0.775  11.403   1.364 -0.4037  1.0484 -0.0023
  631MOL0     C85055   0.838  11.337   1.471  0.8454  0.1404  0.7503
  631MOL0     C85056   0.949  11.268   1.456 -0.9181 -0.0322  0.9276
  631MOL0     C85057   1.000  11.237   1.320 -0.1565  0.0081 -0.2831
  631MOL0     O85058   1.109  11.159   1.284 -0.3356 -0.2124  0.0158
  631MOL0     C85059   1.192  11.077   1.366  0.3559  0.3910 -0.0043
  631MOL0     C85060   1.321  11.140   1.413  0.7840  1.1722 -0.6465
  631MOL0     C85061   1.426  11.037   1.468  0.7107 -0.0290  0.6069
  631MOL0     C85062   1.515  11.095   1.580  0.3592  0.7212  0.2807
  631MOL0     C85063   1.651  11.018   1.588  0.6648  0.0805  0.5799
  631MOL0     C85064   1.747  11.086   1.699  0.2937  0.5465 -0.5649
  631MOL0     C85065   1.784  10.996   1.817  0.6198  0.3404 -0.2824
  631MOL0     C85066   1.875  10.884   1.779  0.2253 -0.1247  0.2679
  631MOL0     N85067   1.934  10.842   1.909 -0.5611  0.5127 -0.3482
  631MOL0     C85068   2.035  10.901   1.981  0.4630 -0.8843  0.6220
  631MOL0     C85069   2.021  10.864   2.111 -0.5292 -0.2812  0.3391
  631MOL0     C85070   2.104  10.932   2.220 -0.0570 -0.0955  0.1158
  631MOL0     C85071   2.055  11.077   2.236 -0.6071  0.1411 -0.4475
  631MOL0     C85072   2.116  11.144   2.355 -0.0299 -0.2921  0.3385
  631MOL0     C85073   2.260  11.175   2.326 -0.5574  0.4648  0.2859
  631MOL0     O85074   2.343  11.064   2.362  0.5926 -0.1711 -0.6399
  631MOL0     C85075   2.478  11.089   2.357 -0.5795  0.0885  0.4169
  631MOL0     C85076   2.548  11.191   2.285 -0.6676 -0.2420 -1.0796
  631MOL0     C85077   2.686  11.203   2.289 -0.5952  0.1572 -0.5098
  631MOL0     C85078   2.768  11.113   2.356 -0.4811  0.2011 -0.4792
  631MOL0     C85079   2.913  11.130   2.368  0.0949 -0.2660 -0.9818
  631MOL0     O85080   2.973  11.073   2.481 -0.2766 -0.8372  0.8472
  631MOL0     C85081   3.109  11.079   2.487 -0.1097 -0.8057 -0.3881
  631MOL0     C85082   3.205  11.096   2.384  0.3114  0.9325 -1.0324
  631MOL0     C85083   3.345  11.089   2.409  0.7194  0.7978  0.4849
  631MOL0     C85084   3.389  11.057   2.536  0.3582  0.1499 -0.1676
  631MOL0     O85085   3.525  11.063   2.554 -0.5065  0.3332  0.3833
  631MOL0     C85086   3.570  11.125   2.677 -0.2159 -0.1747 -0.4867
  631MOL0     C85087   3.717  11.099   2.701  0.3325  0.1060 -0.1455
  631MOL0     C85088   3.764  11.138   2.839 -0.1197  0.0707 -0.1664
  631MOL0     C85089   3.921  11.145   2.846 -0.6308  0.1318 -0.6540
  631MOL0     C85090   3.962  11.190   2.990 -0.8473  0.1549  0.5095
  631MOL0     C85091   4.116  11.205   3.000  0.1372  0.0256  0.4010
  631MOL0     C85092   4.153  11.273   3.135 -0.5864  0.2350  0.5182
  631MOL0     C85093   4.302  11.283   3.145 -0.5929 -0.5622 -0.5975
  631MOL0    Cl85094   4.347  11.371   3.292 -0.0705 -0.3902 -0.0227
  631MOL0     C85095   3.297  11.044   2.636  0.3746  0.3054 -0.3338
  631MOL0     C85096   3.160  11.048   2.614  0.8833 -0.1210  0.6254
  631MOL0     O85097   2.969  11.202   2.285  0.0034 -0.4001 -0.2186
  631MOL0     C85098   2.704  11.008   2.431 -0.5308 -1.0698 -0.6283
  631MOL0     C85099   2.563  10.999   2.426  0.8297  0.4869  0.0792
  631MOL0     N85100   1.920  10.774   2.120 -0.1445 -0.0737  0.5362
  631MOL0     N85101   1.871  10.751   2.000  0.2899  0.2413  0.5510
  631MOL0     C85102   0.937  11.296   1.217  0.6173 -0.7009  0.3033
  631MOL0     C85103   0.825  11.378   1.236 -1.2901  0.5589  0.1236
  631MOL0     C85104   0.415  11.451   1.393 -0.0647 -0.1839 -1.0564
  631MOL0     C85105   0.307  11.364   1.381 -0.0637  0.7723 -0.1378
  631MOL0     C85106   0.186  11.385   1.442  0.2168 -0.5644  0.5654
  631MOL0     C85107   0.163  11.508   1.509 -0.7285  0.5161  0.0819
  631MOL0     O85108   0.044  11.523   1.568  0.0215  0.1340 -0.6415
  631MOL0     C85109   0.018  11.646   1.634  0.5523 -0.4382  0.4030
  631MOL0     C85110  -0.109  11.664   1.719  1.4632  0.2299  0.0508
  631MOL0     C85111  -0.105  11.801   1.796 -0.4462  1.0049  0.4786
  631MOL0     C85112  -0.139  11.923   1.718  0.3742 -0.3292  0.3139
  631MOL0     C85113  -0.112  12.045   1.791 -0.6445  0.2082  0.1264
  631MOL0     C85114  -0.086  12.152   1.835 -0.1083  0.2253 -0.0196
  631MOL0     C85115   0.268  11.596   1.527  0.0308  1.0012 -0.5804
  631MOL0     C85116   0.394  11.574   1.463 -0.1839  0.0646  0.1479
  631MOL0     C85117   0.503  11.683   1.478 -0.5035  0.2652  0.2325
  631MOL0     H85118   0.788  11.352   1.566  1.5460  0.5390  1.0648
  631MOL0     H85119   0.997  11.220   1.540 -1.0254  1.4003  1.8433
  631MOL0     H85120   1.132  11.038   1.449 -1.2394  0.5312 -1.0524
  631MOL0     H85121   1.222  10.990   1.306  1.1960  0.2285  0.6257
  631MOL0     H85122   1.296  11.213   1.491  0.2063 -1.9219  2.3227
  631MOL0     H85123   1.364  11.195   1.329  1.5133  1.1768 -0.2736
  631MOL0     H85124   1.483  10.993   1.386 -2.1257 -1.4171 -0.7621
  631MOL0     H85125   1.368  10.953   1.507 -0.1697  1.6947  3.3261
  631MOL0     H85126   1.538  11.200   1.557  2.8099 -0.0720 -1.3186
  631MOL0     H85127   1.461  11.084   1.674 -0.7233 -1.2143 -0.5158
  631MOL0     H85128   1.635  10.912   1.608  0.1639  0.2614  1.1651
  631MOL0     H85129   1.695  11.031   1.488 -2.1627  4.2387 -0.3923
  631MOL0     H85130   1.841  11.122   1.655  1.7289 -0.5585  1.4304
  631MOL0     H85131   1.695  11.173   1.740 -0.1119  0.5371 -1.0520
  631MOL0     H85132   1.690  10.961   1.858 -0.2946  2.4169 -0.4849
  631MOL0     H85133   1.829  11.067   1.887  1.0066  0.9249 -1.1097
  631MOL0     H85134   1.823  10.803   1.727  1.7407 -0.8045 -0.2508
  631MOL0     H85135   1.953  10.920   1.711  0.2128  3.3778  1.8697
  631MOL0     H85136   2.104  10.978   1.948  0.5153 -0.6929  1.1586
  631MOL0     H85137   2.096  10.880   2.316 -2.7971  1.6718  0.9586
  631MOL0     H85138   2.208  10.930   2.185  0.6758 -0.5433  2.2033
  631MOL0     H85139   2.078  11.133   2.145 -0.5164 -1.4212 -1.4372
  631MOL0     H85140   1.946  11.072   2.249 -0.5650 -1.1042 -0.4116
  631MOL0     H85141   2.099  11.082   2.444 -1.3970 -2.1269 -1.1138
  631MOL0     H85142   2.062  11.237   2.371 -0.2069 -0.2073 -0.7127
  631MOL0     H85143   2.286  11.258   2.392 -1.0351 -0.2580  1.4162
  631MOL0     H85144   2.286  11.186   2.221  0.5618 -0.0055  0.5038
  631MOL0     H85145   2.487  11.265   2.236 -0.4156  0.6199 -0.1200
  631MOL0     H85146   2.719  11.288   2.230 -4.5105  2.5731  0.3770
  631MOL0     H85147   3.164  11.093   2.284 -1.9699 -1.4130 -0.1412
  631MOL0     H85148   3.408  11.093   2.322 -2.1686 -2.6848 -2.0622
  631MOL0     H85149   3.565  11.234   2.668  0.1208 -0.0955  0.1797
  631MOL0     H85150   3.511  11.094   2.763 -1.0544 -1.8743 -1.6212
  631MOL0     H85151   3.739  10.994   2.676 -2.2448 -0.3692 -0.7474
  631MOL0     H85152   3.772  11.155   2.625 -0.7186  1.3691 -0.0015
  631MOL0     H85153   3.721  11.236   2.863 -0.4840  0.1845 -1.2412
  631MOL0     H85154   3.720  11.065   2.908  0.8087 -0.2650  0.0740
  631MOL0     H85155   3.962  11.219   2.777 -0.3886  0.4787 -0.1417
  631MOL0     H85156   3.950  11.045   2.813 -0.6661 -0.1388  0.1274
  631MOL0     H85157   3.942  11.113   3.065 -0.6791 -0.7980 -0.3982
  631MOL0     H85158   3.921  11.287   3.017  1.1015  1.0033  0.6145
  631MOL0     H85159   4.169  11.109   3.003  0.9224  0.4742  1.9411
  631MOL0     H85160   4.153  11.260   2.913 -1.4975  0.4171 -0.0775
  631MOL0     H85161   4.121  11.220   3.225  0.4879 -0.8862  0.2654
  631MOL0     H85162   4.125  11.379   3.135  1.1013  0.7459 -1.2655
  631MOL0     H85163   4.342  11.181   3.149  0.0785 -0.3247 -1.0650
  631MOL0     H85164   4.344  11.342   3.064  0.2447  2.0264  1.6029
  631MOL0     H85165   3.333  11.027   2.737  0.6112  3.9845  0.3498
  631MOL0     H85166   3.082  11.033   2.688 -0.0950  0.7392 -0.1996
  631MOL0     H85167   2.761  10.950   2.502  0.5049 -0.1080 -0.6500
  631MOL0     H85168   2.520  10.908   2.467 -0.5973  1.3737  0.6425
  631MOL0     H85169   0.979  11.299   1.116  0.8662 -0.8080  0.4019
  631MOL0     H85170   0.785  11.429   1.149  1.4425  2.0354 -0.3766
  631MOL0     H85171   0.325  11.264   1.343  2.0962  0.7379  0.8452
  631MOL0     H85172   0.107  11.310   1.439  0.3824 -0.7551  0.8362
  631MOL0     H85173   0.021  11.724   1.557  0.4559 -2.7738 -2.1476
  631MOL0     H85174   0.102  11.657   1.702  0.8240  1.1699 -0.1432
  631MOL0     H85175  -0.122  11.594   1.802  0.1483  1.2445  0.7364
  631MOL0     H85176  -0.196  11.663   1.653  0.8872  4.3309  0.4848
  631MOL0     H85177  -0.005  11.816   1.836 -0.2342  0.6681  0.0770
  631MOL0     H85178  -0.174  11.810   1.881 -3.5448 -1.2963 -1.5803
  631MOL0     H85179  -0.083  11.920   1.624 -1.5601  0.1658 -0.9126
  631MOL0     H85180  -0.246  11.929   1.699  0.7245  0.2043 -1.6641
  631MOL0     H85181  -0.061  12.247   1.880 -2.1383  0.2956  1.0780
  631MOL0     H85182   0.261  11.683   1.591 -1.1821  0.4062  0.1224
  631MOL0     H85183   0.545  11.721   1.385  1.4473 -1.7489  0.2166
  631MOL0     H85184   0.455  11.771   1.523 -1.3844  0.3845 -0.8952
  631MOL0     H85185   0.577  11.670   1.557  0.4145  2.9890 -0.0733
  632MOL0     O85186   1.090  10.328   7.524  0.7065  0.6566 -0.4693
  632MOL0     C85187   0.997  10.255   7.498  1.3847  0.4523 -0.2941
  632MOL0     O85188   1.002  10.130   7.477 -0.0699  0.3210 -0.7148
  632MOL0     C85189   1.104  10.045   7.469 -0.4131  0.4314  0.4766
  632MOL0     C85190   1.238  10.067   7.507  0.1183  0.3783  0.2436
  632MOL0     C85191   1.340   9.972   7.491 -0.4621 -0.4143  0.6840
  632MOL0     C85192   1.301   9.845   7.446  0.3486 -0.5941  0.2465
  632MOL0     O85193   1.393   9.745   7.440 -0.9084 -0.2388 -0.2129
  632MOL0     C85194   1.537   9.769   7.443  0.0774  0.3414  0.0901
  632MOL0     C85195   1.581   9.632   7.392 -0.3884  0.1979  0.1141
  632MOL0     C85196   1.733   9.627   7.365  0.6762 -0.2699 -0.4616
  632MOL0     C85197   1.766   9.568   7.229 -0.3915 -0.1929  0.3298
  632MOL0     C85198   1.921   9.581   7.210 -0.4104  0.5129 -0.9080
  632MOL0     C85199   1.979   9.562   7.071  1.0770 -0.0298 -0.2743
  632MOL0     C85200   2.125   9.598   7.057  0.1555 -0.3284  0.0913
  632MOL0     C85201   2.162   9.602   6.904  0.0201 -0.1095 -0.4812
  632MOL0     N85202   2.304   9.603   6.868 -0.7493 -0.5027  0.6029
  632MOL0     C85203   2.401   9.703   6.886 -0.5322  0.1328  0.5772
  632MOL0     C85204   2.525   9.649   6.867 -0.4886  0.0215 -0.2556
  632MOL0     C85205   2.657   9.720   6.876  0.1663  0.9087  0.4196
  632MOL0     C85206   2.694   9.718   7.029  0.2606 -0.9317 -0.1058
  632MOL0     C85207   2.786   9.839   7.052  0.1341  0.0361 -0.7824
  632MOL0     C85208   2.888   9.810   7.169  0.6927  0.6930  0.5803
  632MOL0     O85209   2.966   9.926   7.191  0.0942  0.0951 -0.1433
  632MOL0     C85210   3.091   9.930   7.130  0.8276  0.3795  0.0113
  632MOL0     C85211   3.176  10.020   7.185 -0.1596  0.1465  0.4476
  632MOL0     C85212   3.296  10.049   7.124 -0.1059  0.0048 -1.2654
  632MOL0     C85213   3.342   9.959   7.030  0.3583 -0.4229  0.7709
  632MOL0     C85214   3.481   9.973   6.983  0.2600 -0.2961  0.6495
  632MOL0     O85215   3.562  10.026   7.076  0.8695 -0.4252  0.4585
  632MOL0     C85216   3.692  10.033   7.075 -0.0069  0.5653  0.1075
  632MOL0     C85217   3.752  10.144   7.134  0.3080 -0.2302  0.5507
  632MOL0     C85218   3.889  10.144   7.147  0.2449  0.3956 -1.2594
  632MOL0     C85219   3.973  10.041   7.099  1.0450  0.3871 -0.4332
  632MOL0     O85220   4.105  10.069   7.109 -0.1426 -0.0516  0.3305
  632MOL0     C85221   4.197   9.969   7.058  0.0631 -0.5077  0.3864
  632MOL0     C85222   4.332  10.028   7.044 -0.1391  0.7357  0.3229
  632MOL0     C85223   4.433   9.922   6.992  0.2047 -0.1631  0.2989
  632MOL0     C85224   4.574   9.985   6.994 -0.8657 -0.3085  0.0082
  632MOL0     C85225   4.681   9.890   6.988  0.2035  0.4611 -0.4094
  632MOL0     C85226   4.691   9.825   6.854  1.1483  0.0342  0.2200
  632MOL0     C85227   4.790   9.707   6.862 -0.7280  0.0344 -1.0006
  632MOL0     C85228   4.832   9.666   6.722  1.1910 -0.4728  0.5561
  632MOL0    Cl85229   4.714   9.562   6.638 -0.4680 -0.4388  0.2316
  632MOL0     C85230   3.907   9.928   7.054  0.0505 -0.1649  0.3896
  632MOL0     C85231   3.770   9.921   7.040  0.2674 -0.2410 -0.5609
  632MOL0     O85232   3.519   9.933   6.875 -0.6314 -0.0934 -0.7669
  632MOL0     C85233   3.262   9.857   6.979 -0.6333  0.1501 -0.6304
  632MOL0     C85234   3.129   9.848   7.024  0.1450  0.2024 -0.5365
  632MOL0     N85235   2.501   9.513   6.852  0.0974  0.6717  0.5493
  632MOL0     N85236   2.371   9.482   6.852 -0.9711  0.9277  0.8303
  632MOL0     C85237   1.171   9.814   7.418 -0.0104  0.3248 -0.4788
  632MOL0     C85238   1.072   9.911   7.439 -0.0521 -1.0065  0.3092
  632MOL0     C85239   0.857  10.316   7.509 -0.0998 -0.1149  0.3013
  632MOL0     C85240   0.753  10.225   7.545  0.0181 -0.5876 -0.8817
  632MOL0     C85241   0.622  10.265   7.566 -0.8813  0.1740  0.1247
  632MOL0     C85242   0.589  10.405   7.554 -0.0613 -0.9549 -0.4307
  632MOL0     O85243   0.465  10.454   7.566  0.8128  0.8179 -0.2085
  632MOL0     C85244   0.374  10.402   7.475 -0.1491  0.2552  0.2021
  632MOL0     C85245   0.243  10.377   7.543 -0.1293 -0.3469  0.0210
  632MOL0     C85246   0.253  10.293   7.665  0.1534 -0.0697 -0.1834
  632MOL0     C85247   0.115  10.266   7.722 -0.0920 -0.2510  0.4243
  632MOL0     C85248   0.120  10.179   7.836  0.0587 -0.5095  0.1890
  632MOL0     C85249   0.132  10.094   7.916 -0.1928  0.4593  0.2416
  632MOL0     C85250   0.688  10.497   7.509 -0.1472  0.2105 -0.6374
  632MOL0     C85251   0.826  10.456   7.498 -0.5045 -0.1625 -0.4386
  632MOL0     C85252   0.939  10.560   7.463 -0.6598 -0.1956 -0.4651
  632MOL0     H85253   1.265  10.161   7.553 -4.7223  0.4647  3.6123
  632MOL0     H85254   1.442  10.006   7.506 -0.7735  1.9612 -1.7898
  632MOL0     H85255   1.563   9.848   7.372  1.4005 -0.7621 -0.7070
  632MOL0     H85256   1.593   9.787   7.535  0.3726  0.1231 -0.0461
  632MOL0     H85257   1.531   9.617   7.296 -2.1020  2.1648  0.6408
  632MOL0     H85258   1.553   9.559   7.468 -2.5800 -0.8827 -1.5918
  632MOL0     H85259   1.791   9.577   7.443  0.0160  3.6659  2.9075
  632MOL0     H85260   1.761   9.733   7.360 -1.4156  0.4364  1.4019
  632MOL0     H85261   1.729   9.466   7.212 -3.0565  1.1312 -2.9286
  632MOL0     H85262   1.718   9.623   7.148 -0.2021 -0.1159  0.2695
  632MOL0     H85263   1.948   9.682   7.243  0.7423 -0.4346  1.2901
  632MOL0     H85264   1.964   9.507   7.278 -1.0864 -0.8293 -1.9045
  632MOL0     H85265   1.969   9.457   7.043  1.9173  0.4814 -2.7936
  632MOL0     H85266   1.922   9.613   6.992  2.1042 -0.7200 -1.5060
  632MOL0     H85267   2.172   9.522   7.122 -0.0451 -0.2509  0.3286
  632MOL0     H85268   2.145   9.696   7.101 -0.9843 -1.6220  3.9148
  632MOL0     H85269   2.125   9.516   6.848  1.9512 -0.5049 -1.2046
  632MOL0     H85270   2.114   9.693   6.866  0.9402  0.7405  0.3501
  632MOL0     H85271   2.381   9.809   6.896  0.1500  0.1769  1.6386
  632MOL0     H85272   2.733   9.666   6.819 -0.0424 -0.2388  1.1946
  632MOL0     H85273   2.643   9.823   6.841 -0.1198  0.9924  0.7798
  632MOL0     H85274   2.613   9.713   7.102  0.6173 -0.3130  0.3404
  632MOL0     H85275   2.752   9.626   7.042  0.4601 -0.7935 -0.0212
  632MOL0     H85276   2.723   9.921   7.086 -0.2944 -1.3752  2.1974
  632MOL0     H85277   2.831   9.868   6.957  1.3620 -0.9027 -0.5148
  632MOL0     H85278   2.950   9.725   7.141 -1.8476 -0.0667 -3.6029
  632MOL0     H85279   2.847   9.789   7.268 -2.6511  1.7606 -0.4166
  632MOL0     H85280   3.146  10.069   7.277  0.9949 -1.7798  1.9489
  632MOL0     H85281   3.354  10.136   7.155 -2.4883  0.9898  0.7775
  632MOL0     H85282   3.693  10.232   7.158  0.3001  1.3739 -4.3236
  632MOL0     H85283   3.935  10.232   7.191 -0.4828  0.0808  0.2189
  632MOL0     H85284   4.202   9.882   7.125 -0.8099  0.8210  2.2874
  632MOL0     H85285   4.156   9.928   6.965 -0.9039  1.9480 -0.3479
  632MOL0     H85286   4.329  10.107   6.968  0.2120  2.1978  1.7785
  632MOL0     H85287   4.361  10.076   7.138 -3.2508 -0.7932  2.2348
  632MOL0     H85288   4.419   9.829   7.047 -0.3808  0.5433  1.3852
  632MOL0     H85289   4.398   9.901   6.890 -1.3092 -1.4256  1.0406
  632MOL0     H85290   4.580  10.034   7.091 -1.9235  0.6944 -0.4198
  632MOL0     H85291   4.585  10.060   6.915  1.2489  0.5966  1.0965
  632MOL0     H85292   4.660   9.814   7.064  0.9342 -1.2530 -1.8473
  632MOL0     H85293   4.777   9.941   7.003  2.0187 -3.1601  1.5942
  632MOL0     H85294   4.595   9.784   6.822  0.8963  0.5284  0.3222
  632MOL0     H85295   4.730   9.893   6.778  0.4787 -2.3614 -2.4312
  632MOL0     H85296   4.747   9.623   6.917  1.6081 -0.4012  0.3159
  632MOL0     H85297   4.879   9.739   6.916 -0.9080 -2.6569  1.1156
  632MOL0     H85298   4.860   9.748   6.655  0.6323 -1.5670 -1.0859
  632MOL0     H85299   4.930   9.618   6.737  1.7894  0.4933 -0.1282
  632MOL0     H85300   3.968   9.843   7.025 -3.7420 -2.9687 -0.1116
  632MOL0     H85301   3.712   9.836   7.005 -0.0723  0.7754 -2.6007
  632MOL0     H85302   3.300   9.788   6.904  0.0242  0.5718 -0.6900
  632MOL0     H85303   3.071   9.775   6.968 -0.9427 -1.6029  2.7147
  632MOL0     H85304   1.147   9.710   7.398 -2.7410 -0.1226  3.8391
  632MOL0     H85305   0.970   9.906   7.405 -0.4204 -1.3062  1.4296
  632MOL0     H85306   0.766  10.118   7.557 -0.5558 -0.3352  3.6126
  632MOL0     H85307   0.560  10.182   7.598  1.6654 -1.4855  1.0821
  632MOL0     H85308   0.407  10.312   7.421 -1.8121  1.6271 -3.4595
  632MOL0     H85309   0.352  10.471   7.393  0.3986 -1.1324 -1.1707
  632MOL0     H85310   0.180  10.322   7.472 -2.0787 -0.3302  1.6368
  632MOL0     H85311   0.193  10.473   7.560 -1.7564 -0.7497 -2.0029
  632MOL0     H85312   0.314  10.345   7.740  0.2331 -0.3025 -0.0868
  632MOL0     H85313   0.302  10.200   7.636  1.6600  1.3978 -2.6480
  632MOL0     H85314   0.062  10.355   7.756  0.2545  0.0851  0.0943
  632MOL0     H85315   0.048  10.219   7.650  0.7114  0.4894 -0.8395
  632MOL0     H85316   0.134  10.011   7.985 -1.3806 -0.0881 -0.3423
  632MOL0     H85317   0.658  10.599   7.491  0.4428  0.9121  2.0115
  632MOL0     H85318   0.906  10.661   7.439  3.2063  1.0618 -1.0584
  632MOL0     H85319   1.001  10.582   7.550 -2.2898  1.7048  0.3035
  632MOL0     H85320   0.994  10.532   7.373 -2.0604 -0.7796 -1.1737
  633MOL0     O85321   1.736   3.084   7.790  0.3630 -0.9508 -0.3997
  633MOL0     C85322   1.814   2.993   7.783  0.5951  1.1424 -0.4212
  633MOL0     O85323   1.949   3.005   7.766 -0.2681  0.3630 -0.6227
  633MOL0     C85324   1.999   3.133   7.771 -0.2929 -0.6422 -0.6561
  633MOL0     C85325   2.024   3.200   7.649 -0.3781  0.4404  0.1558
  633MOL0     C85326   2.094   3.326   7.641  0.0265  0.1725  0.1767
  633MOL0     C85327   2.120   3.396   7.761  0.9113  0.0177 -0.0924
  633MOL0     O85328   2.204   3.507   7.750 -0.2025 -0.6643  0.4978
  633MOL0     C85329   2.339   3.456   7.743  0.2021  0.1258  0.1655
  633MOL0     C85330   2.437   3.578   7.751  0.1244 -0.0903 -0.0022
  633MOL0     C85331   2.583   3.539   7.770  0.0969  0.2959  0.3025
  633MOL0     C85332   2.674   3.660   7.744 -1.3685  0.0539  0.0805
  633MOL0     C85333   2.812   3.619   7.703 -0.4620 -0.2185 -0.4339
  633MOL0     C85334   2.823   3.572   7.555  0.8041 -0.4922 -0.4461
  633MOL0     C85335   2.967   3.533   7.533  0.6923 -0.2211 -0.8453
  633MOL0     C85336   3.032   3.415   7.614 -0.5662 -0.1950  0.2482
  633MOL0     N85337   3.159   3.368   7.552 -0.0140 -0.2691  0.0188
  633MOL0     C85338   3.151   3.289   7.440 -0.4210  0.4511 -1.2207
  633MOL0     C85339   3.276   3.287   7.381  0.3295  0.4064  0.4607
  633MOL0     C85340   3.297   3.222   7.243 -1.2958  0.0251  0.7409
  633MOL0     C85341   3.216   3.093   7.231  0.7277  0.1243 -1.3056
  633MOL0     C85342   3.265   3.011   7.109  0.4599 -0.0947  0.4539
  633MOL0     C85343   3.417   2.997   7.073  0.1266 -0.8628  0.5013
  633MOL0     O85344   3.443   2.860   7.026  0.5234 -0.8538  0.2986
  633MOL0     C85345   3.575   2.827   6.995 -0.3252  0.4352 -0.4898
  633MOL0     C85346   3.595   2.699   6.935  0.0774 -0.9447 -0.5017
  633MOL0     C85347   3.719   2.671   6.871 -0.6690  1.2485  0.0197
  633MOL0     C85348   3.830   2.756   6.874 -0.4297 -0.3105 -0.0381
  633MOL0     C85349   3.972   2.722   6.817 -0.1125  0.1349  1.3527
  633MOL0     O85350   4.075   2.809   6.845 -0.0952 -0.1572 -0.2990
  633MOL0     C85351   4.209   2.775   6.821  1.1253 -0.3469  0.2011
  633MOL0     C85352   4.277   2.677   6.891 -0.6319  1.0411  0.3608
  633MOL0     C85353   4.416   2.651   6.863  0.4690 -0.3482 -0.6655
  633MOL0     C85354   4.486   2.732   6.771  0.9287  0.4143  0.2971
  633MOL0     O85355   4.618   2.724   6.773 -0.0958 -0.2789 -0.2750
  633MOL0     C85356   4.692   2.775   6.659 -0.5849 -0.3889 -0.4344
  633MOL0     C85357   4.848   2.761   6.686  0.1555  0.5536  0.0098
  633MOL0     C85358   4.928   2.838   6.581  0.2206  0.1835 -0.1672
  633MOL0     C85359   5.082   2.840   6.595  0.3268 -0.5564 -0.1004
  633MOL0     C85360   5.183   2.950   6.542  0.2658  0.2333 -0.9590
  633MOL0     C85361   5.301   2.948   6.628 -0.2663  0.4613 -0.1282
  633MOL0     C85362   5.409   2.844   6.597 -0.7360  0.0634 -0.3263
  633MOL0     C85363   5.511   2.814   6.702  0.2308  0.6105  0.6247
  633MOL0    Cl85364   5.602   2.956   6.774 -0.0838  0.0598  0.4149
  633MOL0     C85365   4.411   2.817   6.692 -0.4456  0.3575  0.0226
  633MOL0     C85366   4.273   2.841   6.717 -0.2845 -0.3540  0.0986
  633MOL0     O85367   3.980   2.624   6.746  0.5063 -0.3400 -0.0532
  633MOL0     C85368   3.808   2.883   6.948 -0.0817  0.1318 -0.1060
  633MOL0     C85369   3.684   2.917   6.995  0.3038  0.2165 -1.0256
  633MOL0     N85370   3.353   3.376   7.447  0.2025  0.3355  0.0175
  633MOL0     N85371   3.281   3.424   7.545 -0.4937 -0.3303 -0.2558
  633MOL0     C85372   2.088   3.325   7.880 -0.2986 -0.0157  0.0750
  633MOL0     C85373   2.033   3.199   7.885  0.2572  0.7961  0.1523
  633MOL0     C85374   1.756   2.853   7.782  0.0851  0.4841  0.1974
  633MOL0     C85375   1.613   2.846   7.762 -0.1456 -0.5512  0.2001
  633MOL0     C85376   1.542   2.722   7.762  0.2453  0.3380 -0.3836
  633MOL0     C85377   1.610   2.606   7.786  0.4076  0.0124  0.6581
  633MOL0     O85378   1.558   2.479   7.771  0.3056 -0.4093  0.3459
  633MOL0     C85379   1.423   2.471   7.726  0.3890 -0.1349 -0.5063
  633MOL0     C85380   1.364   2.331   7.772 -0.7005 -0.1971  0.1069
  633MOL0     C85381   1.213   2.328   7.767 -0.5223 -0.4729 -0.2017
  633MOL0     C85382   1.147   2.204   7.835  0.7122  0.3514  0.6092
  633MOL0     C85383   1.177   2.083   7.752 -0.3117 -0.8488  0.5204
  633MOL0     C85384   1.200   1.983   7.689  0.2148 -0.2728  0.3632
  633MOL0     C85385   1.748   2.610   7.805 -0.2145  1.0811 -0.5497
  633MOL0     C85386   1.821   2.729   7.808  0.3975 -0.6140 -0.4396
  633MOL0     C85387   1.964   2.712   7.846  0.3942 -0.3416 -0.2292
  633MOL0     H85388   1.967   3.156   7.567  3.6447 -2.9481 -1.1795
  633MOL0     H85389   2.111   3.367   7.542  2.0324  0.4946  0.6011
  633MOL0     H85390   2.361   3.389   7.827  0.1624 -1.2634 -0.8901
  633MOL0     H85391   2.344   3.394   7.653 -0.5508  0.5577 -0.1817
  633MOL0     H85392   2.398   3.632   7.838  0.7467 -0.3168  0.4265
  633MOL0     H85393   2.423   3.635   7.659  2.0730 -2.9408 -2.2529
  633MOL0     H85394   2.589   3.451   7.704 -0.9096  1.0360 -0.8147
  633MOL0     H85395   2.595   3.508   7.875 -1.6319 -1.2196  0.1036
  633MOL0     H85396   2.632   3.721   7.663 -1.0612 -2.8348 -2.4416
  633MOL0     H85397   2.691   3.719   7.834  3.3010 -4.3055  2.6109
  633MOL0     H85398   2.876   3.707   7.704 -1.9578  0.9005  0.0960
  633MOL0     H85399   2.837   3.539   7.774  0.3302  0.6327  0.2571
  633MOL0     H85400   2.764   3.481   7.542  1.8005 -1.0516 -1.1511
  633MOL0     H85401   2.788   3.643   7.480 -2.9238 -1.3861  0.2168
  633MOL0     H85402   3.028   3.623   7.547 -1.0582  1.6203 -3.8613
  633MOL0     H85403   2.975   3.523   7.424  3.7508  3.9992 -1.2761
  633MOL0     H85404   3.057   3.440   7.718  1.5116  1.5752 -0.5886
  633MOL0     H85405   2.960   3.333   7.612  1.2693 -1.8543 -0.7255
  633MOL0     H85406   3.060   3.231   7.430  0.4199 -1.2263  0.2782
  633MOL0     H85407   3.269   3.300   7.172  1.0979  0.3763  0.0833
  633MOL0     H85408   3.405   3.203   7.237 -0.9137  1.2048  2.7320
  633MOL0     H85409   3.218   3.025   7.317 -0.2498  0.9027 -0.6316
  633MOL0     H85410   3.116   3.137   7.219  0.2501  0.7778  3.2904
  633MOL0     H85411   3.218   3.054   7.019 -0.2649  0.0156  0.8785
  633MOL0     H85412   3.229   2.908   7.115 -0.4597  0.0191 -1.9170
  633MOL0     H85413   3.481   3.005   7.162 -1.0443 -0.3269  1.3307
  633MOL0     H85414   3.454   3.059   6.992  0.5269 -2.1356 -0.3263
  633MOL0     H85415   3.514   2.628   6.931  0.9086 -1.8898 -1.1734
  633MOL0     H85416   3.731   2.580   6.813  0.8310  0.6117  1.2648
  633MOL0     H85417   4.225   2.614   6.963 -0.1256 -1.3258 -1.2142
  633MOL0     H85418   4.468   2.581   6.927 -1.7299 -2.0422 -0.6067
  633MOL0     H85419   4.662   2.734   6.562  1.7401  0.6899 -1.7248
  633MOL0     H85420   4.677   2.883   6.649 -1.7837 -0.3624  1.2780
  633MOL0     H85421   4.862   2.796   6.788 -1.5898 -1.2913  0.9606
  633MOL0     H85422   4.867   2.653   6.688 -0.8085  0.2635 -2.3006
  633MOL0     H85423   4.910   2.814   6.475 -1.8559  0.1818  0.1463
  633MOL0     H85424   4.893   2.940   6.593 -1.1789 -0.5554  2.8576
  633MOL0     H85425   5.117   2.751   6.542 -1.6276 -1.6833  0.3830
  633MOL0     H85426   5.092   2.822   6.702  1.3639  0.7758  0.0560
  633MOL0     H85427   5.140   3.050   6.528  2.6752  1.4587 -0.0175
  633MOL0     H85428   5.211   2.912   6.443  0.0320 -1.5718 -0.3645
  633MOL0     H85429   5.347   3.046   6.615 -0.1176  1.1198  3.9876
  633MOL0     H85430   5.273   2.940   6.734 -0.9708  2.1927 -0.1444
  633MOL0     H85431   5.467   2.889   6.516 -0.1484 -0.1895 -0.0489
  633MOL0     H85432   5.378   2.741   6.575  0.1925 -0.9566  2.6450
  633MOL0     H85433   5.461   2.744   6.770  1.3127 -3.1957 -2.1305
  633MOL0     H85434   5.581   2.754   6.643 -1.5072  0.6541 -1.6076
  633MOL0     H85435   4.451   2.862   6.602 -2.0221  0.7973 -0.5013
  633MOL0     H85436   4.227   2.910   6.646  1.7133  0.4260 -0.5310
  633MOL0     H85437   3.889   2.955   6.958 -0.0803  0.4149 -1.8248
  633MOL0     H85438   3.671   3.012   7.045  0.5812 -1.4561  2.5462
  633MOL0     H85439   2.108   3.369   7.977 -0.5923 -0.2698  0.2512
  633MOL0     H85440   2.009   3.151   7.979  3.7174  3.1096  2.4985
  633MOL0     H85441   1.558   2.939   7.755 -1.7116 -1.0839  3.4831
  633MOL0     H85442   1.435   2.740   7.762  0.1690  0.0128  1.2024
  633MOL0     H85443   1.417   2.478   7.617 -2.4563  0.5515 -0.4035
  633MOL0     H85444   1.359   2.551   7.765  0.1353  0.5006 -2.1417
  633MOL0     H85445   1.391   2.304   7.874 -3.9160 -1.9612  0.6391
  633MOL0     H85446   1.405   2.247   7.715 -3.2365 -0.9220 -0.7538
  633MOL0     H85447   1.195   2.347   7.661  1.9176  2.0188 -0.3078
  633MOL0     H85448   1.165   2.414   7.816 -0.9563 -1.0113  0.3319
  633MOL0     H85449   1.176   2.185   7.939 -2.1567  1.9806  1.8293
  633MOL0     H85450   1.040   2.227   7.830  0.3095 -1.5698 -2.5078
  633MOL0     H85451   1.231   1.892   7.642  0.0970 -0.3022  0.3406
  633MOL0     H85452   1.794   2.513   7.823 -0.9904  0.6907 -0.6160
  633MOL0     H85453   1.994   2.610   7.821 -1.2508 -1.2412  1.3084
  633MOL0     H85454   2.021   2.788   7.791 -1.2492  0.8013 -0.4284
  633MOL0     H85455   1.987   2.716   7.953  1.1745 -0.8681 -0.3677
  634MOL0     O85456   3.085   6.785   3.074 -0.5038 -0.1012  0.0263
  634MOL0     C85457   3.029   6.889   3.110 -0.3139 -0.1583 -0.3096
  634MOL0     O85458   3.082   6.995   3.173  0.0692 -0.6732 -0.7219
  634MOL0     C85459   3.195   6.977   3.241  0.4978 -0.6189 -0.3337
  634MOL0     C85460   3.194   6.964   3.379  0.4857  0.0373 -0.6384
  634MOL0     C85461   3.313   6.943   3.452  0.7809 -0.2923  0.3879
  634MOL0     C85462   3.431   6.933   3.384  0.2111 -0.0472  0.4700
  634MOL0     O85463   3.539   6.901   3.463  0.4725  0.9377 -0.1924
  634MOL0     C85464   3.664   6.950   3.405  0.5386 -0.1711 -0.4511
  634MOL0     C85465   3.768   6.951   3.515  0.9436  0.3243 -0.6551
  634MOL0     C85466   3.904   6.997   3.455 -0.5357 -0.6939 -0.3141
  634MOL0     C85467   4.017   6.988   3.562 -0.4240  0.0006  0.7656
  634MOL0     C85468   4.163   7.008   3.520  1.3241  0.1292  0.6530
  634MOL0     C85469   4.205   6.896   3.425 -0.5307 -1.0947  0.0986
  634MOL0     C85470   4.353   6.910   3.417 -0.3002 -0.6292 -0.0170
  634MOL0     C85471   4.396   6.797   3.336 -0.5458 -0.3264  0.3206
  634MOL0     N85472   4.541   6.801   3.329  0.0185  0.6139 -0.3201
  634MOL0     C85473   4.613   6.683   3.358  0.5507 -0.5665 -0.5388
  634MOL0     C85474   4.732   6.704   3.296  0.0233  0.6065  0.3063
  634MOL0     C85475   4.855   6.614   3.296 -0.5702 -0.0111  0.0690
  634MOL0     C85476   4.955   6.618   3.415  0.3312 -0.3300 -0.0330
  634MOL0     C85477   4.888   6.563   3.543 -0.0860  0.5436 -0.5058
  634MOL0     C85478   4.974   6.595   3.667  0.7401 -0.4716  0.0687
  634MOL0     O85479   5.073   6.491   3.683  0.3589  0.4009  0.4584
  634MOL0     C85480   5.203   6.522   3.664 -0.4810  0.1818 -0.5964
  634MOL0     C85481   5.275   6.430   3.590  0.5089 -1.3460  0.3294
  634MOL0     C85482   5.409   6.461   3.558 -0.1303 -0.2164 -0.4235
  634MOL0     C85483   5.471   6.580   3.596 -0.0197  0.2798 -0.8592
  634MOL0     C85484   5.618   6.619   3.559  0.3764  0.7055 -0.2030
  634MOL0     O85485   5.674   6.561   3.446  0.1592 -0.1003  0.8116
  634MOL0     C85486   5.809   6.575   3.432  0.1540 -0.1703 -0.4123
  634MOL0     C85487   5.854   6.629   3.317 -0.8673  1.7064  0.2607
  634MOL0     C85488   5.993   6.639   3.294 -0.0162 -0.7833 -0.0532
  634MOL0     C85489   6.086   6.591   3.389 -0.3786  0.4455 -0.2115
  634MOL0     O85490   6.222   6.593   3.371  0.3569  0.5808  0.6449
  634MOL0     C85491   6.272   6.582   3.235  0.0351 -0.2819  0.2921
  634MOL0     C85492   6.422   6.557   3.230 -0.0345  0.7763 -0.3532
  634MOL0     C85493   6.499   6.650   3.323 -0.2626 -0.5768 -0.3619
  634MOL0     C85494   6.552   6.570   3.440 -0.0903 -0.1467 -0.3704
  634MOL0     C85495   6.616   6.655   3.548 -0.5801  0.1005 -0.0266
  634MOL0     C85496   6.728   6.573   3.623 -0.0078 -0.1301  0.2760
  634MOL0     C85497   6.665   6.452   3.689 -0.3547  0.0569  0.8782
  634MOL0     C85498   6.768   6.354   3.748 -0.0677  0.3046  0.2250
  634MOL0    Cl85499   6.856   6.247   3.639 -0.1062  0.2149 -0.2635
  634MOL0     C85500   6.034   6.544   3.511 -0.3722 -0.3773 -0.3826
  634MOL0     C85501   5.901   6.541   3.531  0.1241  0.1696 -0.7315
  634MOL0     O85502   5.676   6.699   3.626  0.1143 -0.4245  0.5302
  634MOL0     C85503   5.405   6.658   3.691  0.3238  0.0974 -0.5749
  634MOL0     C85504   5.270   6.633   3.718 -0.5968 -0.2464  0.7135
  634MOL0     N85505   4.735   6.828   3.242 -0.1947  0.1533 -0.2863
  634MOL0     N85506   4.625   6.889   3.263  0.1452  0.2375  0.4673
  634MOL0     C85507   3.429   6.941   3.242 -0.7613 -1.0281  0.3737
  634MOL0     C85508   3.312   6.960   3.174 -0.9171 -0.1250  0.6424
  634MOL0     C85509   2.884   6.891   3.071 -0.3918 -0.4886  0.0770
  634MOL0     C85510   2.836   6.820   2.964 -1.1371  0.0862  0.6331
  634MOL0     C85511   2.706   6.820   2.928  0.2776  0.2599 -0.1419
  634MOL0     C85512   2.612   6.895   3.001 -0.8419  0.1500 -0.1984
  634MOL0     O85513   2.475   6.891   2.990  0.5186 -0.3883  0.1615
  634MOL0     C85514   2.426   6.837   2.866 -0.0489  0.6199  0.6495
  634MOL0     C85515   2.286   6.872   2.836  0.7249  1.1549 -0.3285
  634MOL0     C85516   2.202   6.774   2.922 -0.2167 -0.0761 -0.1356
  634MOL0     C85517   2.055   6.758   2.874 -0.6783 -0.2102 -0.0517
  634MOL0     C85518   1.969   6.674   2.958 -0.1783 -0.5444  0.3258
  634MOL0     C85519   1.913   6.595   3.034 -0.1251 -0.0859 -0.6309
  634MOL0     C85520   2.657   6.977   3.097  0.4791 -0.0549  0.2516
  634MOL0     C85521   2.797   6.980   3.133  1.2656 -0.5319  0.7913
  634MOL0     C85522   2.829   7.060   3.244  0.4283 -0.2869  0.2322
  634MOL0     H85523   3.101   6.978   3.433  1.8233  4.3968  0.9000
  634MOL0     H85524   3.304   6.937   3.560 -0.0367 -1.2280  0.2864
  634MOL0     H85525   3.682   6.881   3.322 -0.5034 -2.0856  0.8430
  634MOL0     H85526   3.656   7.052   3.366  1.1068 -0.1360 -0.4852
  634MOL0     H85527   3.769   6.849   3.554 -0.1439  0.3823 -0.4458
  634MOL0     H85528   3.737   7.014   3.599  0.7931 -1.0532  0.3531
  634MOL0     H85529   3.903   7.100   3.420  0.5450  0.6833  3.2077
  634MOL0     H85530   3.940   6.933   3.374  1.7703 -0.5945  0.5452
  634MOL0     H85531   4.001   7.058   3.644  0.9192 -0.1879  1.2187
  634MOL0     H85532   4.008   6.890   3.611  2.4929 -0.1297  1.2231
  634MOL0     H85533   4.171   7.102   3.465 -1.5439 -0.4048 -0.8452
  634MOL0     H85534   4.228   7.000   3.608  2.8943 -2.5294 -0.5933
  634MOL0     H85535   4.181   6.799   3.468 -0.1252 -1.4044 -0.3756
  634MOL0     H85536   4.144   6.911   3.335 -1.7803 -1.7632  0.7937
  634MOL0     H85537   4.409   6.894   3.510  3.0732  0.2941 -1.7279
  634MOL0     H85538   4.377   7.010   3.380 -0.5978  0.0928  1.6508
  634MOL0     H85539   4.368   6.705   3.387 -0.0709 -0.4868  0.2902
  634MOL0     H85540   4.354   6.802   3.235 -0.0347 -0.8327  0.0815
  634MOL0     H85541   4.585   6.591   3.407  2.6074 -0.3473  1.1440
  634MOL0     H85542   4.826   6.511   3.274  4.0061 -1.1261 -1.8968
  634MOL0     H85543   4.917   6.648   3.212 -0.5969 -1.1443 -0.4210
  634MOL0     H85544   5.050   6.574   3.384  1.0733  0.3229  1.2319
  634MOL0     H85545   4.992   6.720   3.429 -0.3882 -0.2717  1.7270
  634MOL0     H85546   4.892   6.454   3.544  1.0901  0.5793  0.3562
  634MOL0     H85547   4.792   6.612   3.559 -0.2111  0.0074  0.4825
  634MOL0     H85548   4.906   6.613   3.751  0.8498  0.9954 -0.1419
  634MOL0     H85549   5.016   6.696   3.659  0.0035  0.0540  2.2040
  634MOL0     H85550   5.227   6.339   3.555 -2.0793 -0.3139  0.9555
  634MOL0     H85551   5.457   6.390   3.491  1.3693  1.1262 -0.8289
  634MOL0     H85552   5.778   6.651   3.242 -1.5404 -0.4995  0.2172
  634MOL0     H85553   6.017   6.681   3.197  0.0797 -2.3001 -0.7133
  634MOL0     H85554   6.222   6.496   3.190 -0.3317 -1.3402  2.5786
  634MOL0     H85555   6.244   6.675   3.185 -2.1751 -0.8504  0.3490
  634MOL0     H85556   6.458   6.456   3.254  3.3163  1.6074 -1.4162
  634MOL0     H85557   6.439   6.570   3.123  1.3784 -1.8589 -0.5443
  634MOL0     H85558   6.585   6.691   3.269  2.0621 -2.7998  1.4159
  634MOL0     H85559   6.435   6.733   3.353  0.0927 -0.8008  1.1033
  634MOL0     H85560   6.626   6.502   3.397  0.4872  1.1669 -1.5105
  634MOL0     H85561   6.470   6.506   3.474  1.9513 -1.2239  3.0534
  634MOL0     H85562   6.533   6.684   3.613 -0.7376  0.0049 -0.1841
  634MOL0     H85563   6.668   6.742   3.508  0.1779 -0.3200  0.0377
  634MOL0     H85564   6.810   6.536   3.560  0.0487 -1.1577  0.9280
  634MOL0     H85565   6.765   6.634   3.705 -0.2771  0.7318 -0.2342
  634MOL0     H85566   6.618   6.396   3.608 -0.5337  1.1778  0.1761
  634MOL0     H85567   6.591   6.475   3.766 -1.7201  0.9853 -0.6274
  634MOL0     H85568   6.841   6.419   3.797 -0.9548  1.8753 -0.4935
  634MOL0     H85569   6.718   6.281   3.813 -3.7711  1.9881 -0.4638
  634MOL0     H85570   6.104   6.518   3.589 -1.2933  0.7767  0.8822
  634MOL0     H85571   5.863   6.493   3.621 -1.0539  1.1201 -0.7030
  634MOL0     H85572   5.466   6.742   3.722 -0.7911  1.1384 -1.1100
  634MOL0     H85573   5.221   6.703   3.785  0.7034  0.2537  1.1695
  634MOL0     H85574   3.517   6.920   3.182 -1.8867 -2.7211 -0.7608
  634MOL0     H85575   3.305   6.975   3.067  2.5425  1.5228  0.5094
  634MOL0     H85576   2.909   6.773   2.898  1.7049  2.3682  1.9515
  634MOL0     H85577   2.665   6.772   2.840  0.1755  1.7064 -0.9219
  634MOL0     H85578   2.441   6.729   2.856 -1.0031  0.2425  2.7572
  634MOL0     H85579   2.487   6.868   2.781 -0.8564 -0.3315 -0.3140
  634MOL0     H85580   2.268   6.861   2.729 -1.1154  4.3955 -0.4929
  634MOL0     H85581   2.270   6.976   2.868 -0.2208  1.6235 -2.1790
  634MOL0     H85582   2.210   6.797   3.029  0.9428  1.6726 -0.5501
  634MOL0     H85583   2.244   6.675   2.904  0.3509  0.4663 -1.9953
  634MOL0     H85584   2.011   6.858   2.869  1.6840  0.8893 -0.0328
  634MOL0     H85585   2.049   6.708   2.777  2.3966 -2.8887  0.9463
  634MOL0     H85586   1.872   6.524   3.103  1.1924 -0.0728  0.2034
  634MOL0     H85587   2.584   7.041   3.145  1.5635  1.4251  0.0305
  634MOL0     H85588   2.887   7.150   3.222 -2.0440  1.3510  0.1586
  634MOL0     H85589   2.737   7.104   3.282  0.4909 -0.2335  0.3224
  634MOL0     H85590   2.879   6.993   3.315  1.9793  0.0146 -0.5350
  635MOL0     O85591   3.965   7.713   4.362 -0.2515  0.2443  0.8063
  635MOL0     C85592   3.918   7.767   4.460 -0.0633  0.1897 -0.2396
  635MOL0     O85593   3.985   7.849   4.543 -0.5155  0.1707 -0.1125
  635MOL0     C85594   4.122   7.856   4.535  0.5892  0.3517 -0.6356
  635MOL0     C85595   4.206   7.742   4.528 -0.4593 -0.6793 -0.5111
  635MOL0     C85596   4.345   7.756   4.510  0.3748 -0.1355  1.0457
  635MOL0     C85597   4.407   7.885   4.509 -0.0033 -0.5369  0.8083
  635MOL0     O85598   4.540   7.906   4.497 -0.8625  0.3332 -0.1137
  635MOL0     C85599   4.616   7.790   4.454  0.0071  0.1094  0.6500
  635MOL0     C85600   4.763   7.839   4.458  0.0976  0.3332 -0.1878
  635MOL0     C85601   4.858   7.743   4.380 -0.0780 -0.1476 -0.6591
  635MOL0     C85602   4.992   7.809   4.339  0.3647 -0.1436  0.3462
  635MOL0     C85603   5.064   7.855   4.469 -0.5578  0.3795 -0.0668
  635MOL0     C85604   5.207   7.904   4.442  0.6488  0.3945  0.0078
  635MOL0     C85605   5.299   7.783   4.430 -0.1834 -0.0152 -0.3075
  635MOL0     C85606   5.446   7.832   4.434 -0.9195  0.3843 -0.2902
  635MOL0     N85607   5.509   7.877   4.305  0.2053 -0.0349  0.3463
  635MOL0     C85608   5.499   7.998   4.256  0.4058 -0.4045  0.7128
  635MOL0     C85609   5.557   7.996   4.133 -0.1768 -0.1773 -0.1011
  635MOL0     C85610   5.571   8.117   4.038 -0.4244  0.0687 -0.1010
  635MOL0     C85611   5.713   8.180   4.033 -0.0363  0.3675 -0.2634
  635MOL0     C85612   5.770   8.218   4.172  0.6642 -0.5774 -0.4068
  635MOL0     C85613   5.909   8.278   4.161 -0.8113  0.5603 -0.5005
  635MOL0     O85614   5.996   8.164   4.111  0.1442 -0.9923  1.0244
  635MOL0     C85615   6.123   8.204   4.063  0.4139  0.8574  0.2143
  635MOL0     C85616   6.212   8.102   4.026  0.6166  0.3919  0.3164
  635MOL0     C85617   6.333   8.133   3.978  0.0758 -0.2971  0.0476
  635MOL0     C85618   6.384   8.256   3.969  0.3710  0.2488 -1.4900
  635MOL0     C85619   6.520   8.278   3.924 -0.5795  0.6482  1.2317
  635MOL0     O85620   6.554   8.399   3.878 -0.6153  1.0641  0.1293
  635MOL0     C85621   6.685   8.427   3.864 -0.9480 -0.1934  0.1301
  635MOL0     C85622   6.722   8.515   3.761 -0.0025  0.2288 -0.6542
  635MOL0     C85623   6.851   8.563   3.738  0.5773 -0.1089  0.1833
  635MOL0     C85624   6.958   8.527   3.826  0.1520  0.2819 -1.4006
  635MOL0     O85625   7.086   8.584   3.806  0.2135 -0.2674 -0.3576
  635MOL0     C85626   7.195   8.527   3.880 -0.3510 -0.4605 -0.7696
  635MOL0     C85627   7.311   8.616   3.881 -0.3288 -0.0343  0.5687
  635MOL0     C85628   7.400   8.604   4.006  0.4012  0.6230 -0.1285
  635MOL0     C85629   7.535   8.676   3.998 -1.2578 -0.4780 -0.2278
  635MOL0     C85630   7.621   8.662   4.122 -0.5769 -0.0227  0.2970
  635MOL0     C85631   7.729   8.761   4.127 -0.0311 -0.4692 -0.0293
  635MOL0     C85632   7.817   8.759   4.250  0.2479  0.3653 -0.1388
  635MOL0     C85633   7.904   8.883   4.259 -0.2596  0.3264 -0.3003
  635MOL0    Cl85634   7.804   9.037   4.270  0.0633  0.4888 -0.0424
  635MOL0     C85635   6.919   8.431   3.931  0.0586 -0.1348  0.2584
  635MOL0     C85636   6.786   8.394   3.947 -0.2014  0.1366 -0.5148
  635MOL0     O85637   6.590   8.176   3.920 -0.2654 -0.8358 -0.3126
  635MOL0     C85638   6.295   8.364   3.995 -0.0832 -1.0665  0.9044
  635MOL0     C85639   6.166   8.338   4.043 -0.2874  0.1608  0.6589
  635MOL0     N85640   5.569   7.860   4.107  0.1249 -0.0480  0.1391
  635MOL0     N85641   5.548   7.793   4.210 -0.3497  0.3732 -0.3302
  635MOL0     C85642   4.327   7.997   4.542 -0.0487 -0.0518 -0.3386
  635MOL0     C85643   4.188   7.975   4.554 -0.0533  0.1720  0.3831
  635MOL0     C85644   3.773   7.722   4.485 -0.1093  0.4524 -0.1507
  635MOL0     C85645   3.679   7.823   4.482  0.4828 -0.6142 -0.5238
  635MOL0     C85646   3.548   7.789   4.515 -0.4064  0.2700  0.4510
  635MOL0     C85647   3.506   7.647   4.528 -0.4094 -0.9430 -0.0309
  635MOL0     O85648   3.376   7.617   4.558 -0.1799  0.3269  0.0195
  635MOL0     C85649   3.281   7.721   4.569 -0.1136 -0.0581  0.1057
  635MOL0     C85650   3.148   7.668   4.618  0.3549 -0.1533 -0.1502
  635MOL0     C85651   3.078   7.570   4.515 -0.1972 -0.3169 -1.1182
  635MOL0     C85652   2.933   7.535   4.561 -0.5264  0.2966  0.7029
  635MOL0     C85653   2.869   7.490   4.439  0.4528  0.3663  0.3466
  635MOL0     C85654   2.816   7.456   4.335 -0.2897 -0.4022 -0.4541
  635MOL0     C85655   3.609   7.556   4.527 -0.5958 -0.5984  0.3147
  635MOL0     C85656   3.743   7.588   4.502  0.3064  0.0601 -0.7718
  635MOL0     C85657   3.848   7.483   4.521 -0.0882  0.0074 -0.6816
  635MOL0     H85658   4.160   7.644   4.524 -1.4472 -0.2041 -1.2254
  635MOL0     H85659   4.399   7.662   4.505  2.4698  1.0313  0.5545
  635MOL0     H85660   4.606   7.697   4.510  1.5900 -2.7941 -3.3582
  635MOL0     H85661   4.590   7.767   4.350 -2.9263  0.2231  1.2854
  635MOL0     H85662   4.797   7.824   4.561  0.0797 -0.9340 -0.3502
  635MOL0     H85663   4.778   7.941   4.423 -2.6143  0.7378 -0.3966
  635MOL0     H85664   4.798   7.715   4.293  0.3781  1.8396 -1.6793
  635MOL0     H85665   4.873   7.652   4.438  0.6224  0.0966 -0.4332
  635MOL0     H85666   5.052   7.739   4.280  2.2662  1.7214 -0.0707
  635MOL0     H85667   4.980   7.898   4.276  2.4753 -0.8318 -1.1818
  635MOL0     H85668   5.019   7.945   4.511 -0.4839  2.7097 -4.4671
  635MOL0     H85669   5.065   7.780   4.549  1.9812 -0.9463 -1.2285
  635MOL0     H85670   5.206   7.955   4.345  0.2266  3.2249  1.3777
  635MOL0     H85671   5.234   7.979   4.517  0.4389  0.3281  0.1501
  635MOL0     H85672   5.289   7.716   4.344 -0.5550  0.2880 -0.5052
  635MOL0     H85673   5.284   7.725   4.521 -0.7660  1.3157  0.4729
  635MOL0     H85674   5.466   7.908   4.510  1.3444 -1.3513  0.9921
  635MOL0     H85675   5.506   7.752   4.479 -0.6919  0.4644 -0.4500
  635MOL0     H85676   5.466   8.092   4.299 -0.1112  0.6818 -1.8884
  635MOL0     H85677   5.547   8.080   3.938 -1.0910 -1.1022  0.4665
  635MOL0     H85678   5.504   8.199   4.064 -1.5747 -1.1189  0.8098
  635MOL0     H85679   5.775   8.104   3.985 -2.0386 -0.6985 -1.2958
  635MOL0     H85680   5.700   8.270   3.973  1.7391  0.3825 -0.6657
  635MOL0     H85681   5.769   8.129   4.235 -0.2469 -0.4236 -0.1834
  635MOL0     H85682   5.701   8.289   4.220 -0.4800 -1.3237 -0.9016
  635MOL0     H85683   5.947   8.312   4.258  0.3151  0.5586 -0.9203
  635MOL0     H85684   5.903   8.362   4.091  0.7481  1.5140  0.4332
  635MOL0     H85685   6.194   7.997   4.046 -0.3540  0.0329 -2.1137
  635MOL0     H85686   6.402   8.052   3.957  2.3851  1.6262 -0.3035
  635MOL0     H85687   6.640   8.555   3.702  0.3092  2.2085  0.1922
  635MOL0     H85688   6.856   8.626   3.650 -0.7900 -0.9445 -0.5265
  635MOL0     H85689   7.171   8.494   3.982  1.1204 -3.3819 -1.2632
  635MOL0     H85690   7.227   8.440   3.822 -0.1870 -1.0550  0.1902
  635MOL0     H85691   7.374   8.588   3.796  0.2745 -1.2173  1.3725
  635MOL0     H85692   7.274   8.719   3.873  0.8716  0.3779  0.1561
  635MOL0     H85693   7.344   8.632   4.097 -0.2048  1.3592 -0.7122
  635MOL0     H85694   7.429   8.500   4.022 -2.9479 -0.7090 -1.6608
  635MOL0     H85695   7.505   8.780   3.980 -3.3003 -0.7585  1.2876
  635MOL0     H85696   7.587   8.647   3.906  0.6829  1.7908  0.0537
  635MOL0     H85697   7.657   8.559   4.133 -0.7886 -0.3893 -1.9657
  635MOL0     H85698   7.563   8.687   4.212 -0.2601 -2.6975  1.3256
  635MOL0     H85699   7.797   8.748   4.043  0.6992 -0.0749  0.4891
  635MOL0     H85700   7.695   8.864   4.116 -0.7060 -0.4554  1.6967
  635MOL0     H85701   7.878   8.668   4.246  0.6128  0.5903  0.1647
  635MOL0     H85702   7.758   8.756   4.342  1.0538  1.9117  0.4787
  635MOL0     H85703   7.977   8.871   4.340  0.6199  1.4222 -0.8945
  635MOL0     H85704   7.960   8.887   4.165  0.1091  1.2583 -0.0470
  635MOL0     H85705   6.999   8.385   3.987 -1.7690 -2.1534  1.3583
  635MOL0     H85706   6.771   8.323   4.029 -1.9419 -0.9851 -1.7282
  635MOL0     H85707   6.326   8.467   3.978 -2.3547 -0.6131 -1.0243
  635MOL0     H85708   6.097   8.416   4.074 -1.7380 -0.4495 -0.8446
  635MOL0     H85709   4.366   8.098   4.544  1.1167 -0.4833 -0.5015
  635MOL0     H85710   4.119   8.058   4.564  2.5194  2.1568  4.7764
  635MOL0     H85711   3.710   7.924   4.461  0.0913 -0.9127 -2.8318
  635MOL0     H85712   3.471   7.866   4.522 -1.2165 -0.5718  0.9268
  635MOL0     H85713   3.269   7.774   4.474  2.5892  1.9107  0.7375
  635MOL0     H85714   3.314   7.793   4.645  3.2738  0.0464 -1.3051
  635MOL0     H85715   3.088   7.753   4.651  2.0754  1.1302 -0.2120
  635MOL0     H85716   3.159   7.616   4.713  2.8457 -0.2640 -0.4350
  635MOL0     H85717   3.146   7.485   4.508 -1.2729 -1.2686 -0.3978
  635MOL0     H85718   3.077   7.619   4.417 -0.3210 -0.5584 -1.2388
  635MOL0     H85719   2.925   7.454   4.634 -2.6559 -0.1076  0.0972
  635MOL0     H85720   2.888   7.620   4.615 -0.6494  0.0649  0.9671
  635MOL0     H85721   2.765   7.440   4.242 -1.4429 -2.5019  0.4702
  635MOL0     H85722   3.598   7.453   4.559 -0.9718 -0.7052 -0.1365
  635MOL0     H85723   3.895   7.490   4.619  1.0571  3.1724 -1.3201
  635MOL0     H85724   3.802   7.384   4.513  0.6557 -0.7479  2.9252
  635MOL0     H85725   3.930   7.489   4.449 -0.6292 -1.9784 -1.5281
  636MOL0     O85726   0.823  10.584  10.614 -0.1227  0.2078  0.1684
  636MOL0     C85727   0.747  10.630  10.529 -0.2824  0.5738  0.6194
  636MOL0     O85728   0.787  10.668  10.401  0.3648  0.0745 -0.2967
  636MOL0     C85729   0.917  10.652  10.360  0.5945  0.0832  0.5824
  636MOL0     C85730   0.958  10.571  10.262 -0.6354  0.9969  0.2668
  636MOL0     C85731   1.093  10.563  10.222 -0.0062  0.8931  0.6928
  636MOL0     C85732   1.189  10.635  10.288 -0.7769 -0.1288 -0.0582
  636MOL0     O85733   1.322  10.628  10.251 -0.4855  0.8682  0.1886
  636MOL0     C85734   1.410  10.736  10.290  0.7582  0.0132  0.2552
  636MOL0     C85735   1.541  10.707  10.223  0.6905  0.6163 -0.1642
  636MOL0     C85736   1.648  10.816  10.216  0.0755 -0.1428  0.2227
  636MOL0     C85737   1.697  10.840  10.353  0.0680  0.0107 -0.9585
  636MOL0     C85738   1.820  10.929  10.350  0.2748  0.3139 -0.7170
  636MOL0     C85739   1.858  10.983  10.487 -0.1436 -1.2217  0.7505
  636MOL0     C85740   1.903  10.880  10.595 -0.1015  0.5315 -0.0281
  636MOL0     C85741   1.931  10.949  10.731  0.0794 -1.0087 -0.1881
  636MOL0     N85742   2.062  11.012  10.735  0.0101 -0.3274 -0.0612
  636MOL0     C85743   2.187  10.948  10.731  0.8727 -0.3290 -0.2639
  636MOL0     C85744   2.280  11.044  10.707  1.1381  0.1554  1.3978
  636MOL0     C85745   2.432  11.032  10.705  0.3278  0.4683  0.6256
  636MOL0     C85746   2.490  11.062  10.841  1.0803  0.4105 -0.4035
  636MOL0     C85747   2.624  10.996  10.852 -0.2611  0.1216 -0.5711
  636MOL0     C85748   2.683  11.019  10.998  0.4002  0.3925 -0.0998
  636MOL0     O85749   2.732  10.887  11.047 -0.2348 -0.8981  0.1118
  636MOL0     C85750   2.869  10.858  11.037 -0.2779 -0.9075 -0.9675
  636MOL0     C85751   2.919  10.749  11.115 -0.8107  0.3696 -0.0332
  636MOL0     C85752   3.040  10.696  11.079  0.5684  0.4134 -0.2998
  636MOL0     C85753   3.125  10.758  10.993 -0.1427 -0.4449  0.7475
  636MOL0     C85754   3.261  10.718  10.971 -0.3695  0.7432 -0.5369
  636MOL0     O85755   3.361  10.815  10.961 -0.3039 -0.1376 -0.1488
  636MOL0     C85756   3.495  10.781  10.959 -0.3092  0.2472 -0.0905
  636MOL0     C85757   3.571  10.769  11.070  0.2632  0.4209 -0.1968
  636MOL0     C85758   3.701  10.718  11.051 -0.8287 -0.2703  0.3629
  636MOL0     C85759   3.755  10.675  10.931 -0.5177 -0.9753 -0.1208
  636MOL0     O85760   3.877  10.613  10.907  1.0009  0.0151  0.7807
  636MOL0     C85761   3.975  10.615  11.008 -0.1502  0.0873  0.1592
  636MOL0     C85762   4.098  10.528  10.968  0.1136 -0.5510 -0.3854
  636MOL0     C85763   4.168  10.583  10.852 -0.9378 -1.0144  0.0738
  636MOL0     C85764   4.301  10.531  10.820  0.0619 -0.6512  0.0882
  636MOL0     C85765   4.307  10.382  10.787 -0.2176 -0.1647  0.1356
  636MOL0     C85766   4.457  10.341  10.770 -0.1020 -1.0128  0.4739
  636MOL0     C85767   4.483  10.198  10.724  0.6717 -0.4859 -0.8278
  636MOL0     C85768   4.640  10.177  10.732  0.0252  0.4887 -0.4001
  636MOL0    Cl85769   4.684  10.162  10.900 -0.0187 -0.1528 -0.3153
  636MOL0     C85770   3.681  10.713  10.818  0.7576  0.2936 -0.1341
  636MOL0     C85771   3.550  10.765  10.827 -0.5905 -0.1575  0.1355
  636MOL0     O85772   3.278  10.597  10.957 -0.0937  0.7143 -0.0963
  636MOL0     C85773   3.077  10.864  10.916 -0.2310  0.1272 -0.0632
  636MOL0     C85774   2.948  10.916  10.931 -0.1057 -0.2073  0.2798
  636MOL0     N85775   2.208  11.165  10.687 -0.9279  1.0366 -0.3904
  636MOL0     N85776   2.080  11.143  10.704 -0.3385  0.6315 -0.6261
  636MOL0     C85777   1.149  10.714  10.396 -0.5826 -0.3244 -0.7509
  636MOL0     C85778   1.013  10.725  10.428 -0.8790 -0.2789 -0.2708
  636MOL0     C85779   0.606  10.620  10.569 -0.0533  0.5132 -0.0446
  636MOL0     C85780   0.514  10.613  10.456  0.4658  0.6318  0.3689
  636MOL0     C85781   0.377  10.608  10.486 -0.1862 -0.3261  0.8383
  636MOL0     C85782   0.337  10.589  10.618  0.4476  1.0450 -0.3591
  636MOL0     O85783   0.209  10.557  10.662 -0.4555  0.4567 -0.0997
  636MOL0     C85784   0.096  10.546  10.565 -0.2064 -0.1776 -0.5952
  636MOL0     C85785   0.066  10.685  10.506  0.1858 -0.4803 -0.0623
  636MOL0     C85786  -0.043  10.666  10.396  0.5666 -0.3826  0.3541
  636MOL0     C85787  -0.007  10.576  10.279 -0.1741  0.5153  0.7166
  636MOL0     C85788   0.105  10.631  10.207  0.6149 -0.1746  0.3298
  636MOL0     C85789   0.195  10.670  10.137  0.9038  0.1773  0.6800
  636MOL0     C85790   0.422  10.618  10.720  0.7550  0.0122 -1.2569
  636MOL0     C85791   0.559  10.622  10.700 -0.6801 -0.3006 -0.6866
  636MOL0     C85792   0.647  10.627  10.822  0.1096  0.0648 -0.2203
  636MOL0     H85793   0.880  10.515  10.212 -0.1450 -2.0293  2.6136
  636MOL0     H85794   1.131  10.497  10.144 -1.0717 -1.2463  1.8917
  636MOL0     H85795   1.373  10.836  10.266 -1.8436 -0.8582  0.3718
  636MOL0     H85796   1.426  10.720  10.397 -3.2453  0.0551  1.0030
  636MOL0     H85797   1.513  10.694  10.118 -2.4776  0.5071  0.5821
  636MOL0     H85798   1.563  10.608  10.264  2.6019  0.7707 -0.7597
  636MOL0     H85799   1.594  10.906  10.186 -0.5295 -0.9236 -1.1109
  636MOL0     H85800   1.725  10.793  10.143  1.1114 -1.1832  1.5787
  636MOL0     H85801   1.619  10.880  10.418  0.7074  0.4359 -0.4304
  636MOL0     H85802   1.729  10.747  10.401  1.7758  2.2875  2.8216
  636MOL0     H85803   1.902  10.861  10.325 -1.3769 -1.9487 -0.3703
  636MOL0     H85804   1.808  11.009  10.277  1.6582  2.4426  1.2606
  636MOL0     H85805   1.943  11.050  10.472  0.0865 -1.5123  0.7598
  636MOL0     H85806   1.772  11.042  10.520 -1.1706 -2.4685  0.3738
  636MOL0     H85807   1.987  10.819  10.562 -0.5670 -0.3781  0.4288
  636MOL0     H85808   1.822  10.807  10.605 -0.5751  0.5800 -2.6538
  636MOL0     H85809   1.855  11.027  10.738  0.1716 -0.7903 -1.3885
  636MOL0     H85810   1.925  10.887  10.821 -0.0476 -0.9651 -0.1667
  636MOL0     H85811   2.218  10.844  10.734  3.4858  0.4109  1.0323
  636MOL0     H85812   2.470  10.934  10.674 -0.5372  0.0005  1.0225
  636MOL0     H85813   2.481  11.092  10.627 -1.1488  1.1557  0.2051
  636MOL0     H85814   2.508  11.170  10.846  1.0061  0.4018  0.0993
  636MOL0     H85815   2.427  11.024  10.922  1.3514 -0.1134 -0.4404
  636MOL0     H85816   2.691  11.058  10.791 -0.5150 -0.4726 -1.4795
  636MOL0     H85817   2.613  10.892  10.819 -0.2188  0.4246 -1.5752
  636MOL0     H85818   2.613  11.057  11.072 -1.0915 -0.4702 -1.0190
  636MOL0     H85819   2.758  11.098  10.989 -0.1374  0.6653 -3.2615
  636MOL0     H85820   2.865  10.696  11.193  0.7326 -2.1159 -0.5423
  636MOL0     H85821   3.061  10.601  11.127  0.2396 -0.7036 -2.2529
  636MOL0     H85822   3.525  10.787  11.167  1.4312 -0.3255  0.5148
  636MOL0     H85823   3.757  10.708  11.143 -1.1474  1.5063  0.7941
  636MOL0     H85824   4.004  10.719  11.027  0.1117 -0.1792  1.2933
  636MOL0     H85825   3.931  10.575  11.100  0.3537 -0.6100  0.0973
  636MOL0     H85826   4.167  10.524  11.053  1.2198  3.5250 -0.8655
  636MOL0     H85827   4.075  10.424  10.940  2.2508 -0.3202 -3.7059
  636MOL0     H85828   4.112  10.578  10.758 -1.8171 -0.2328  0.5391
  636MOL0     H85829   4.172  10.691  10.868 -2.4888 -1.2489  2.5639
  636MOL0     H85830   4.364  10.552  10.908 -0.4972 -1.8882  0.7977
  636MOL0     H85831   4.340  10.580  10.730 -1.6242  0.7218  0.0479
  636MOL0     H85832   4.251  10.378  10.693 -0.3008  2.6404 -0.0191
  636MOL0     H85833   4.268  10.316  10.865  0.9006 -0.5967  0.3481
  636MOL0     H85834   4.508  10.409  10.701  2.1158 -2.8412  0.1784
  636MOL0     H85835   4.512  10.353  10.864 -2.0170 -0.5720  1.6006
  636MOL0     H85836   4.440  10.178  10.625 -1.7060  1.4987 -0.3090
  636MOL0     H85837   4.437  10.135  10.801  2.1007  0.6255  1.0293
  636MOL0     H85838   4.654  10.076  10.694 -0.4517 -1.4454  3.9293
  636MOL0     H85839   4.693  10.250  10.669 -0.2330  1.6155  0.6338
  636MOL0     H85840   3.710  10.689  10.716 -0.3934 -1.3930 -0.0923
  636MOL0     H85841   3.498  10.775  10.732 -1.6448 -0.5693  0.6595
  636MOL0     H85842   3.150  10.915  10.855 -0.1622  1.8689  1.4001
  636MOL0     H85843   2.921  11.000  10.867  1.6849  1.6216  1.8000
  636MOL0     H85844   1.225  10.778  10.441  0.2625 -2.9818  1.9130
  636MOL0     H85845   0.973  10.794  10.501 -3.1979 -1.4340 -0.3494
  636MOL0     H85846   0.556  10.618  10.356  1.5399  0.9527  0.8200
  636MOL0     H85847   0.315  10.598  10.397  0.2146  4.1247 -0.2198
  636MOL0     H85848   0.014  10.499  10.620  0.3217 -0.0696  0.3110
  636MOL0     H85849   0.113  10.471  10.488  2.4539  0.1320 -0.4171
  636MOL0     H85850   0.142  10.745  10.455  0.5180  0.8304  1.8703
  636MOL0     H85851   0.036  10.757  10.583  1.5106  1.7634 -1.5274
  636MOL0     H85852  -0.066  10.767  10.362  0.4492 -0.5408 -0.0451
  636MOL0     H85853  -0.134  10.625  10.441  1.1869 -1.8315  0.3361
  636MOL0     H85854   0.002  10.481  10.333 -0.1663  0.6686  0.9868
  636MOL0     H85855  -0.097  10.556  10.220  0.7228 -0.2683 -0.4300
  636MOL0     H85856   0.272  10.696  10.067 -2.0122  1.5143 -2.2781
  636MOL0     H85857   0.393  10.623  10.825  4.6410 -1.6035  0.0631
  636MOL0     H85858   0.588  10.615  10.913 -0.0682 -1.4709 -0.5100
  636MOL0     H85859   0.716  10.543  10.818 -1.2876 -1.2003  1.1555
  636MOL0     H85860   0.696  10.725  10.824 -1.2302  0.7793 -0.7240
  637MOL0     O85861   5.329   9.429   0.006 -0.5816 -0.2177 -0.4611
  637MOL0     C85862   5.232   9.453   0.077  0.0402  0.0098 -0.7866
  637MOL0     O85863   5.232   9.451   0.215  0.1757  0.6274 -0.0765
  637MOL0     C85864   5.351   9.431   0.277 -0.2678 -0.2794 -0.7580
  637MOL0     C85865   5.388   9.306   0.302 -0.4462  0.4596 -0.4844
  637MOL0     C85866   5.510   9.271   0.364  0.2705  0.6431  0.3773
  637MOL0     C85867   5.600   9.372   0.402  0.1619  0.0730 -0.0506
  637MOL0     O85868   5.722   9.350   0.456  0.1267 -0.4953  0.1525
  637MOL0     C85869   5.783   9.225   0.440 -0.7329 -0.2206 -1.3685
  637MOL0     C85870   5.930   9.244   0.477 -0.4515 -0.1008  0.3176
  637MOL0     C85871   6.002   9.327   0.374  0.7659 -0.4395  0.4085
  637MOL0     C85872   6.153   9.321   0.397 -0.2638  0.1429  0.1314
  637MOL0     C85873   6.238   9.392   0.287 -0.1483  0.2695 -0.8071
  637MOL0     C85874   6.231   9.541   0.313  0.0021 -0.3753  0.1340
  637MOL0     C85875   6.329   9.597   0.417 -1.0588 -0.4516 -0.3826
  637MOL0     C85876   6.477   9.612   0.377 -0.5405 -0.1639  0.3437
  637MOL0     N85877   6.559   9.497   0.409 -0.1026 -0.0359 -0.5506
  637MOL0     C85878   6.648   9.439   0.319  0.9806  0.1026  0.3192
  637MOL0     C85879   6.705   9.332   0.381  0.0649 -0.2263  0.3850
  637MOL0     C85880   6.788   9.220   0.322 -0.2355  0.4263  0.0498
  637MOL0     C85881   6.912   9.279   0.261 -0.3466 -0.0082 -0.0591
  637MOL0     C85882   6.987   9.167   0.181  0.6780 -0.3453 -0.3481
  637MOL0     C85883   7.145   9.187   0.185 -0.8526 -0.1754  0.1116
  637MOL0     O85884   7.196   9.168   0.314 -0.3769 -0.0506 -0.9735
  637MOL0     C85885   7.325   9.135   0.325 -0.4021 -0.3174  1.1706
  637MOL0     C85886   7.423   9.169   0.227 -0.5186  0.8055  0.2601
  637MOL0     C85887   7.550   9.108   0.234 -0.1062 -0.1378 -0.5194
  637MOL0     C85888   7.576   9.008   0.327 -0.0943  0.9397  0.6633
  637MOL0     C85889   7.708   8.932   0.319 -0.2712 -0.1735 -0.8466
  637MOL0     O85890   7.796   8.963   0.217 -0.5773  0.4604 -0.1058
  637MOL0     C85891   7.922   8.915   0.231 -0.1094  0.3177 -0.2065
  637MOL0     C85892   7.996   8.857   0.124 -0.5374  0.3355 -0.5391
  637MOL0     C85893   8.134   8.843   0.130 -0.4615  0.1036  0.2700
  637MOL0     C85894   8.203   8.873   0.247 -0.0511 -0.0158 -0.2663
  637MOL0     O85895   8.341   8.853   0.236  0.8920  0.4096  0.2150
  637MOL0     C85896   8.410   8.855   0.361 -0.0720 -0.3796 -0.5954
  637MOL0     C85897   8.562   8.830   0.336 -0.0703 -1.2515 -0.1631
  637MOL0     C85898   8.646   8.830   0.464  0.1569  0.2080  0.0630
  637MOL0     C85899   8.800   8.822   0.442  0.4345 -0.0971 -0.5681
  637MOL0     C85900   8.861   8.680   0.445  0.0823 -0.4310 -0.1994
  637MOL0     C85901   8.846   8.610   0.580 -0.8168  0.8786 -0.4341
  637MOL0     C85902   8.876   8.461   0.571 -0.2717  0.4272 -0.3120
  637MOL0     C85903   9.021   8.422   0.551 -0.2921 -0.1101 -1.0733
  637MOL0    Cl85904   9.048   8.258   0.603 -0.0343 -0.0497  0.0098
  637MOL0     C85905   8.129   8.906   0.359 -0.3152  0.1732  0.5250
  637MOL0     C85906   7.988   8.935   0.351 -0.5836  0.0546 -0.1396
  637MOL0     O85907   7.712   8.840   0.403 -0.2487 -0.0418  0.7979
  637MOL0     C85908   7.474   8.973   0.422  0.3496  0.9188  0.3536
  637MOL0     C85909   7.354   9.038   0.418  0.2137  1.1123 -0.1871
  637MOL0     N85910   6.649   9.326   0.507 -0.5383  0.1939 -0.4922
  637MOL0     N85911   6.570   9.420   0.529 -0.6232 -0.1903 -0.2864
  637MOL0     C85912   5.556   9.505   0.383  0.1882  0.5078  0.4496
  637MOL0     C85913   5.432   9.534   0.335 -0.3455  0.3036 -0.3268
  637MOL0     C85914   5.100   9.467   0.018  0.0500  0.1128 -0.5576
  637MOL0     C85915   4.983   9.448   0.109  0.7618 -0.2151 -1.0237
  637MOL0     C85916   4.853   9.447   0.057 -0.4958  0.6827  0.0429
  637MOL0     C85917   4.825   9.485  -0.072 -0.1727  0.2838  0.5645
  637MOL0     O85918   4.688   9.498  -0.099  0.2537  0.1829  0.0699
  637MOL0     C85919   4.654   9.433  -0.224  0.2982 -0.2842  0.5620
  637MOL0     C85920   4.676   9.279  -0.228 -0.5509 -0.0125 -0.2605
  637MOL0     C85921   4.594   9.196  -0.326 -0.4510  0.0583  0.6138
  637MOL0     C85922   4.618   9.247  -0.469 -0.8523 -0.3979 -0.1453
  637MOL0     C85923   4.522   9.183  -0.556 -0.2511  0.0528  0.1346
  637MOL0     C85924   4.439   9.145  -0.633 -0.1119  0.4601  0.4346
  637MOL0     C85925   4.942   9.503  -0.162 -0.0806  0.6770  0.3222
  637MOL0     C85926   5.079   9.491  -0.119 -0.2950 -0.3191  1.3208
  637MOL0     C85927   5.197   9.531  -0.200  0.4531  0.2093  0.0997
  637MOL0     H85928   5.325   9.228   0.261 -0.1326  0.1859 -0.4542
  637MOL0     H85929   5.531   9.166   0.384 -1.0698 -0.2483 -2.3691
  637MOL0     H85930   5.730   9.167   0.515  1.0025  2.5206  2.3475
  637MOL0     H85931   5.770   9.191   0.337  2.5129 -1.7495 -1.3797
  637MOL0     H85932   5.964   9.140   0.479 -1.4824 -0.5354 -1.9129
  637MOL0     H85933   5.927   9.294   0.575 -0.2025 -1.6004  1.1141
  637MOL0     H85934   5.961   9.427   0.385 -0.7230 -1.0659  0.8454
  637MOL0     H85935   5.964   9.291   0.278 -1.2078  0.8839  0.6446
  637MOL0     H85936   6.187   9.361   0.493  0.5003  0.8599 -0.4214
  637MOL0     H85937   6.185   9.217   0.382  2.4186  0.9877 -0.7019
  637MOL0     H85938   6.344   9.369   0.279  0.4345  2.7538 -1.1563
  637MOL0     H85939   6.190   9.372   0.191 -0.7911  1.3620 -0.7391
  637MOL0     H85940   6.251   9.601   0.224 -1.2367  0.3660  0.3341
  637MOL0     H85941   6.134   9.578   0.348  0.9985  3.4691 -0.7141
  637MOL0     H85942   6.317   9.546   0.513 -2.0780  3.0486  1.5320
  637MOL0     H85943   6.291   9.695   0.445  1.1978 -0.1942  2.2162
  637MOL0     H85944   6.488   9.635   0.271  0.1913  0.2436  0.4948
  637MOL0     H85945   6.527   9.692   0.433  0.0106 -1.6685  2.1021
  637MOL0     H85946   6.668   9.467   0.216  1.6432 -0.7452  0.2114
  637MOL0     H85947   6.820   9.139   0.388 -2.4716 -3.0754 -2.7659
  637MOL0     H85948   6.737   9.167   0.241  0.5198 -0.5365  0.1865
  637MOL0     H85949   6.898   9.365   0.195 -2.5285 -0.0177  0.3236
  637MOL0     H85950   6.974   9.314   0.344  2.0252 -0.9225 -1.3409
  637MOL0     H85951   6.954   9.173   0.077  2.7731 -0.8557 -1.0919
  637MOL0     H85952   6.960   9.072   0.229  1.0792 -1.2270 -1.8161
  637MOL0     H85953   7.174   9.288   0.153  2.6879 -1.3048 -0.6307
  637MOL0     H85954   7.200   9.120   0.118  0.8216  0.9294  0.3251
  637MOL0     H85955   7.408   9.241   0.147 -0.4280  0.5280 -0.0106
  637MOL0     H85956   7.631   9.144   0.171  1.1843 -2.6986 -0.4685
  637MOL0     H85957   7.955   8.844   0.024 -0.1132  1.4330 -0.8640
  637MOL0     H85958   8.189   8.812   0.042  0.0997 -1.2492  1.0659
  637MOL0     H85959   8.398   8.956   0.402  0.5444  0.3862 -2.1955
  637MOL0     H85960   8.366   8.779   0.426  1.9253 -1.1149 -0.0149
  637MOL0     H85961   8.583   8.737   0.282  0.7981  0.2539 -2.5558
  637MOL0     H85962   8.600   8.905   0.267  3.4954 -1.8914  0.9163
  637MOL0     H85963   8.621   8.926   0.512 -1.7736 -0.8714  1.3759
  637MOL0     H85964   8.612   8.751   0.532 -1.9556  0.0411 -1.0880
  637MOL0     H85965   8.853   8.872   0.524  0.8677 -0.2203 -0.7681
  637MOL0     H85966   8.839   8.864   0.349  0.7487 -1.2984 -1.0009
  637MOL0     H85967   8.970   8.691   0.435  0.0379  0.2756  0.0119
  637MOL0     H85968   8.820   8.612   0.370  0.0626 -2.2972  1.4180
  637MOL0     H85969   8.907   8.658   0.657 -2.2304 -0.7184  1.7864
  637MOL0     H85970   8.746   8.628   0.619  0.3108  1.6834  2.3216
  637MOL0     H85971   8.824   8.424   0.483  1.7460 -0.1513 -1.3220
  637MOL0     H85972   8.840   8.427   0.669  0.3164  0.6441 -0.0134
  637MOL0     H85973   9.050   8.431   0.446  0.2705  0.7650 -0.8571
  637MOL0     H85974   9.090   8.490   0.603  0.9648 -0.6993 -1.9039
  637MOL0     H85975   8.176   8.919   0.456  0.0876 -0.6933  0.4580
  637MOL0     H85976   7.934   8.977   0.435 -0.8345  0.1194 -0.3339
  637MOL0     H85977   7.498   8.887   0.484  2.4244  0.5338 -0.8895
  637MOL0     H85978   7.264   9.018   0.476 -0.6616  1.4063 -1.3936
  637MOL0     H85979   5.614   9.586   0.426 -0.2044  0.2040  1.5697
  637MOL0     H85980   5.393   9.635   0.331 -0.5934  0.2788  0.8699
  637MOL0     H85981   4.990   9.420   0.214 -0.0543 -1.2182 -1.2175
  637MOL0     H85982   4.776   9.421   0.129  1.2861 -2.8539  0.9304
  637MOL0     H85983   4.715   9.476  -0.305 -0.9787 -1.4418 -1.0824
  637MOL0     H85984   4.548   9.442  -0.247  0.2597  0.8340  1.1158
  637MOL0     H85985   4.655   9.247  -0.125  1.9372 -0.1222  0.2620
  637MOL0     H85986   4.779   9.247  -0.245  0.6870  3.0682  0.6553
  637MOL0     H85987   4.487   9.207  -0.309 -0.4774  0.2978  0.2878
  637MOL0     H85988   4.614   9.088  -0.325 -2.9401 -0.4446  0.6896
  637MOL0     H85989   4.613   9.356  -0.474  1.7433 -0.2554 -1.5221
  637MOL0     H85990   4.716   9.213  -0.505 -0.0901 -0.7434  2.0884
  637MOL0     H85991   4.354   9.103  -0.682  0.7138 -0.2039 -0.4750
  637MOL0     H85992   4.923   9.542  -0.261 -1.7885  1.6159  0.9763
  637MOL0     H85993   5.260   9.612  -0.162  0.9746  0.2891 -0.9194
  637MOL0     H85994   5.259   9.447  -0.235 -1.6349 -1.0823 -0.7054
  637MOL0     H85995   5.170   9.586  -0.290  0.2701  1.4669  0.8966
  638MOL0     O85996  10.254   4.299   0.726 -0.3620 -0.6443 -0.2303
  638MOL0     C85997  10.232   4.419   0.745 -1.3735  0.5055  0.3978
  638MOL0     O85998  10.339   4.514   0.758  0.2904  0.2286 -0.0034
  638MOL0     C85999  10.470   4.473   0.742 -0.2281  0.6318 -0.2251
  638MOL0     C86000  10.528   4.384   0.830  0.4788  0.7464  1.0988
  638MOL0     C86001  10.656   4.333   0.810 -0.5847 -0.0915 -0.2867
  638MOL0     C86002  10.727   4.367   0.700  0.6777 -0.1589  0.2616
  638MOL0     O86003  10.850   4.316   0.665  0.8425 -0.5101 -0.0652
  638MOL0     C86004  10.927   4.251   0.764 -0.6277 -0.1193  0.5336
  638MOL0     C86005  11.041   4.172   0.711 -0.6853  0.0875 -0.2171
  638MOL0     C86006  11.141   4.266   0.658  1.0046  0.1447  0.3100
  638MOL0     C86007  11.226   4.195   0.563 -0.1091  0.2294  1.0131
  638MOL0     C86008  11.332   4.281   0.505  0.8844  0.5235 -0.1046
  638MOL0     C86009  11.444   4.210   0.433 -0.2494  0.6512  0.2378
  638MOL0     C86010  11.551   4.323   0.405  0.8443  0.1296  0.0063
  638MOL0     C86011  11.685   4.273   0.357  0.6904  0.0476 -0.0092
  638MOL0     N86012  11.775   4.377   0.304  0.7592  0.5903  0.4663
  638MOL0     C86013  11.795   4.499   0.360 -0.0238 -0.4485  0.9271
  638MOL0     C86014  11.894   4.554   0.292 -0.2524 -0.4271  0.5309
  638MOL0     C86015  11.962   4.689   0.318  0.2664 -0.7176  0.0729
  638MOL0     C86016  12.071   4.689   0.427 -0.2473  0.2612 -0.3717
  638MOL0     C86017  12.133   4.823   0.456  0.1105 -1.1204  0.2888
  638MOL0     C86018  12.272   4.826   0.518 -1.5197  0.1433 -0.0628
  638MOL0     O86019  12.371   4.748   0.459 -0.3901  0.4577 -0.4404
  638MOL0     C86020  12.499   4.791   0.465  0.0497  0.2564  0.2348
  638MOL0     C86021  12.581   4.808   0.357 -0.6423  0.0289 -0.5541
  638MOL0     C86022  12.727   4.843   0.373  0.4174 -0.0939 -0.4016
  638MOL0     C86023  12.772   4.886   0.495 -0.2261 -0.4695 -0.6229
  638MOL0     C86024  12.909   4.950   0.509  0.4158  0.3635 -0.5107
  638MOL0     O86025  12.936   5.022   0.620 -0.3240 -0.3144  0.2351
  638MOL0     C86026  13.058   5.093   0.640 -0.3070  0.2533  0.7456
  638MOL0     C86027  13.182   5.068   0.582 -0.8370 -0.3381  0.1096
  638MOL0     C86028  13.303   5.125   0.647 -0.2717  0.5121 -0.4766
  638MOL0     C86029  13.295   5.206   0.765  0.4427  0.2287  0.1101
  638MOL0     O86030  13.396   5.260   0.832  0.6831 -0.4506 -0.5085
  638MOL0     C86031  13.501   5.299   0.744 -0.8717 -1.1924 -0.1934
  638MOL0     C86032  13.603   5.395   0.829  0.2802 -0.1911  0.2164
  638MOL0     C86033  13.744   5.370   0.773 -0.6082  0.0832 -0.0110
  638MOL0     C86034  13.853   5.462   0.834  0.5388 -0.2249 -0.0691
  638MOL0     C86035  13.988   5.393   0.829 -0.8986  0.3146  0.0606
  638MOL0     C86036  14.100   5.496   0.866 -0.2012 -0.1862  0.8279
  638MOL0     C86037  14.233   5.441   0.814  0.4775 -0.2490 -1.2441
  638MOL0     C86038  14.346   5.522   0.863 -0.1757 -0.3624 -0.6839
  638MOL0    Cl86039  14.493   5.457   0.802 -0.0806 -0.0118  0.3838
  638MOL0     C86040  13.169   5.230   0.810 -0.5969  0.7686  0.2356
  638MOL0     C86041  13.052   5.174   0.755 -0.0078 -0.2595 -0.2603
  638MOL0     O86042  12.972   4.948   0.409  1.2215  0.2730 -0.3351
  638MOL0     C86043  12.694   4.854   0.611  0.2473 -0.2165  0.3326
  638MOL0     C86044  12.562   4.808   0.587 -0.6698 -0.1176 -0.5609
  638MOL0     N86045  11.913   4.490   0.172 -0.4891  0.1219 -0.3353
  638MOL0     N86046  11.841   4.376   0.185 -0.1867  0.3592 -0.2630
  638MOL0     C86047  10.676   4.467   0.613 -0.2145  0.3267  0.1743
  638MOL0     C86048  10.546   4.515   0.628 -0.1098  0.1329  0.0022
  638MOL0     C86049  10.094   4.466   0.762 -0.0964  0.3066 -0.0343
  638MOL0     C86050   9.992   4.374   0.747  0.7124  1.1573  0.4026
  638MOL0     C86051   9.857   4.395   0.781 -1.2932 -0.3292  1.0574
  638MOL0     C86052   9.818   4.526   0.818  0.0136  0.7178  0.3180
  638MOL0     O86053   9.685   4.555   0.842  0.4844 -0.1012 -1.0480
  638MOL0     C86054   9.580   4.455   0.824 -0.7662 -0.2892  0.1646
  638MOL0     C86055   9.460   4.529   0.842 -0.0800 -0.5544 -0.7749
  638MOL0     C86056   9.445   4.578   0.987  0.7127 -0.9317  0.8592
  638MOL0     C86057   9.312   4.662   0.990  0.5000  0.4036 -0.7699
  638MOL0     C86058   9.198   4.568   0.975 -0.5293  0.1764 -0.1839
  638MOL0     C86059   9.118   4.469   0.975 -0.1872 -0.5913 -0.7450
  638MOL0     C86060   9.919   4.620   0.828 -0.4506  0.1423 -0.1626
  638MOL0     C86061  10.053   4.590   0.789 -0.5789 -0.4925 -0.3272
  638MOL0     C86062  10.141   4.721   0.780  0.1047  0.1072 -0.6066
  638MOL0     H86063  10.465   4.354   0.913  0.9731 -0.5435  1.0338
  638MOL0     H86064  10.692   4.257   0.878  1.8175  1.6292  0.5305
  638MOL0     H86065  10.958   4.316   0.847 -3.7807 -0.7935  2.4342
  638MOL0     H86066  10.860   4.176   0.807  0.9732 -0.4948  2.5351
  638MOL0     H86067  11.013   4.098   0.634  0.0163 -2.4674  1.8392
  638MOL0     H86068  11.093   4.121   0.792 -0.4775  3.1472  1.7046
  638MOL0     H86069  11.206   4.318   0.729  1.5366  0.8884 -0.6874
  638MOL0     H86070  11.089   4.345   0.604  1.2722  0.8172  1.0211
  638MOL0     H86071  11.270   4.110   0.616  1.5009  1.2410  1.3713
  638MOL0     H86072  11.164   4.157   0.481  0.8948 -1.6428  1.0771
  638MOL0     H86073  11.287   4.359   0.444  1.9812 -0.2876 -2.0319
  638MOL0     H86074  11.376   4.339   0.587  1.5606  0.3260 -0.3139
  638MOL0     H86075  11.490   4.126   0.487  0.6715  1.3334  0.5325
  638MOL0     H86076  11.409   4.167   0.339 -0.7756  2.5233 -0.4670
  638MOL0     H86077  11.564   4.384   0.495 -6.1698 -2.2858  3.4252
  638MOL0     H86078  11.512   4.386   0.324 -0.8039  0.3910  0.9613
  638MOL0     H86079  11.734   4.231   0.445 -1.9871  1.8869  2.5670
  638MOL0     H86080  11.655   4.199   0.282  0.9429  0.4493 -0.5145
  638MOL0     H86081  11.749   4.539   0.451 -4.0253 -0.0335 -1.0660
  638MOL0     H86082  12.008   4.736   0.230  2.5998 -0.4394  1.3608
  638MOL0     H86083  11.876   4.754   0.335 -0.8687 -0.5568 -4.7386
  638MOL0     H86084  12.031   4.662   0.525 -1.6479  3.1718 -0.0318
  638MOL0     H86085  12.146   4.615   0.399 -0.1870 -0.4049  1.4403
  638MOL0     H86086  12.061   4.882   0.513 -2.3421 -3.9580  0.3274
  638MOL0     H86087  12.147   4.874   0.359 -0.9354 -1.2510  0.0583
  638MOL0     H86088  12.268   4.789   0.621 -0.3230  0.3241  0.0697
  638MOL0     H86089  12.316   4.926   0.532  1.1868 -0.9955  0.2335
  638MOL0     H86090  12.544   4.802   0.255 -3.5060  1.1647  0.3212
  638MOL0     H86091  12.784   4.851   0.281  2.5705  1.1890  0.9726
  638MOL0     H86092  13.207   5.005   0.497 -2.5715 -0.8853 -0.0281
  638MOL0     H86093  13.396   5.093   0.601  0.9106  2.8408  0.1386
  638MOL0     H86094  13.553   5.210   0.708  1.0743  0.6928 -2.3557
  638MOL0     H86095  13.471   5.344   0.649 -2.0614 -2.3777 -0.4133
  638MOL0     H86096  13.567   5.498   0.824  2.6378  0.7212  0.7381
  638MOL0     H86097  13.603   5.362   0.933 -1.0332  1.8226  0.9289
  638MOL0     H86098  13.771   5.267   0.795 -2.3532 -0.2517  0.7102
  638MOL0     H86099  13.755   5.379   0.664  0.7675 -1.0181  0.0054
  638MOL0     H86100  13.834   5.483   0.940  2.6915  0.8837  0.1655
  638MOL0     H86101  13.849   5.555   0.777 -0.5446 -0.3311 -0.1920
  638MOL0     H86102  14.011   5.366   0.725 -0.2465 -0.1699  0.3194
  638MOL0     H86103  14.002   5.305   0.894  0.3709  0.3399 -0.1512
  638MOL0     H86104  14.083   5.584   0.803 -1.2480 -2.3886 -2.2468
  638MOL0     H86105  14.117   5.525   0.970  3.9404 -0.7339  0.4892
  638MOL0     H86106  14.234   5.437   0.705 -0.9299  1.5650 -1.3711
  638MOL0     H86107  14.249   5.341   0.856  2.3213  1.2093  1.8961
  638MOL0     H86108  14.321   5.625   0.834  0.8418 -0.4820 -2.1110
  638MOL0     H86109  14.349   5.521   0.972  2.0708  0.2740 -0.6930
  638MOL0     H86110  13.162   5.294   0.898  0.4296  0.5871  0.4660
  638MOL0     H86111  12.959   5.184   0.810  1.7189  1.6559  2.5815
  638MOL0     H86112  12.731   4.856   0.713 -0.3032 -1.9920  0.5949
  638MOL0     H86113  12.497   4.779   0.669  1.4543 -0.1539  1.2098
  638MOL0     H86114  10.735   4.492   0.525  0.3708 -1.7737 -0.0853
  638MOL0     H86115  10.507   4.583   0.553  1.1257  1.8258  0.8271
  638MOL0     H86116  10.021   4.273   0.722 -0.4715  0.2356  2.4331
  638MOL0     H86117   9.795   4.306   0.773 -2.5585  0.6489 -0.7650
  638MOL0     H86118   9.591   4.376   0.899 -0.1209  1.3407  1.8698
  638MOL0     H86119   9.589   4.424   0.720  2.4548 -1.5981  0.7108
  638MOL0     H86120   9.383   4.456   0.813 -0.4445  0.6791 -3.2621
  638MOL0     H86121   9.456   4.621   0.782  0.4237 -0.9910 -1.4919
  638MOL0     H86122   9.524   4.650   1.011  1.6492 -1.6112 -0.1475
  638MOL0     H86123   9.452   4.505   1.069 -0.6073 -0.9782  0.9520
  638MOL0     H86124   9.310   4.704   1.091 -1.9392  1.0131 -1.0060
  638MOL0     H86125   9.304   4.744   0.919  3.3916  1.3910 -0.0794
  638MOL0     H86126   9.027   4.412   0.971 -0.6402  0.1872 -1.9949
  638MOL0     H86127   9.905   4.725   0.854  2.6165  0.5204  0.2871
  638MOL0     H86128  10.176   4.729   0.676 -2.5112  3.5444 -1.4032
  638MOL0     H86129  10.086   4.813   0.798  2.0410  2.0130 -3.5164
  638MOL0     H86130  10.224   4.708   0.850 -0.1083  3.0770  0.3322
  639MOL0     O86131   1.215   4.169   1.541  0.4300  0.1756  0.0902
  639MOL0     C86132   1.175   4.157   1.655  0.7502 -1.1589  0.2009
  639MOL0     O86133   1.245   4.100   1.756 -0.1501  0.0539  0.2519
  639MOL0     C86134   1.384   4.081   1.739 -0.0310 -0.5830 -0.7290
  639MOL0     C86135   1.440   3.977   1.809 -0.3188  0.3365 -0.3692
  639MOL0     C86136   1.580   3.958   1.803  0.5705 -0.8101  0.2039
  639MOL0     C86137   1.660   4.038   1.704 -0.0357  0.3383  0.1114
  639MOL0     O86138   1.791   4.010   1.676 -0.1653 -0.2143  0.0230
  639MOL0     C86139   1.855   3.900   1.746  0.0547 -0.1756  0.1301
  639MOL0     C86140   1.996   3.931   1.741 -0.6083  0.6064  0.3974
  639MOL0     C86141   2.038   4.058   1.812  0.6340  0.3714 -0.1719
  639MOL0     C86142   2.116   4.052   1.948 -0.7105  0.0673  0.2302
  639MOL0     C86143   2.262   4.006   1.917  0.5359  0.1776  0.0312
  639MOL0     C86144   2.330   3.964   2.050  0.2846  0.4114  0.0245
  639MOL0     C86145   2.475   3.945   2.047 -0.3150  0.2537 -0.4520
  639MOL0     C86146   2.514   3.807   2.000 -0.3548  0.2724 -0.3494
  639MOL0     N86147   2.658   3.783   2.013 -0.0255 -0.7705  1.2372
  639MOL0     C86148   2.728   3.816   2.123 -0.6299 -0.0792 -0.2197
  639MOL0     C86149   2.844   3.753   2.111  0.3147 -0.0017  0.0039
  639MOL0     C86150   2.964   3.756   2.199  0.0222 -0.7127 -0.3112
  639MOL0     C86151   3.039   3.885   2.168 -0.2602  0.8555 -0.6408
  639MOL0     C86152   3.076   3.898   2.017  0.7633  0.2920  0.0745
  639MOL0     C86153   3.183   4.001   2.000 -0.7203 -0.3082 -0.3979
  639MOL0     O86154   3.204   4.009   1.857  0.4919 -0.1559 -0.2676
  639MOL0     C86155   3.334   4.024   1.809  0.5203  0.6326  0.4650
  639MOL0     C86156   3.351   4.000   1.671 -0.4642 -1.6386 -0.7142
  639MOL0     C86157   3.484   4.006   1.615  0.8414 -0.1763  0.1209
  639MOL0     C86158   3.594   4.039   1.697 -0.0164  0.3639  0.2124
  639MOL0     C86159   3.736   4.049   1.634 -0.3519  0.1117 -0.1734
  639MOL0     O86160   3.844   4.099   1.710 -0.5240 -0.3279 -0.5865
  639MOL0     C86161   3.967   4.109   1.652 -0.3782 -0.1978  0.8876
  639MOL0     C86162   4.009   4.192   1.543 -0.0272 -0.4193  0.0119
  639MOL0     C86163   4.143   4.220   1.516  0.0304 -0.5898 -0.2702
  639MOL0     C86164   4.243   4.153   1.593 -0.5213 -0.5495  0.6441
  639MOL0     O86165   4.371   4.188   1.554 -0.2141 -0.2435  0.4575
  639MOL0     C86166   4.476   4.101   1.600 -0.0964  0.3836 -0.3568
  639MOL0     C86167   4.613   4.147   1.543  0.3940  0.3943  0.0677
  639MOL0     C86168   4.711   4.149   1.665 -0.2560 -0.1641  0.2468
  639MOL0     C86169   4.841   4.225   1.618 -0.3925 -0.4802  0.3823
  639MOL0     C86170   4.929   4.253   1.732  0.0276  0.7762  0.1527
  639MOL0     C86171   5.049   4.339   1.686 -0.5878 -0.6406  0.2272
  639MOL0     C86172   5.141   4.371   1.812  0.7670  0.8362  0.5874
  639MOL0     C86173   5.286   4.401   1.775  0.6789  0.1915  0.6285
  639MOL0    Cl86174   5.350   4.263   1.669  0.1521 -0.1684  0.3642
  639MOL0     C86175   4.207   4.064   1.694  0.4786 -0.6939  0.8221
  639MOL0     C86176   4.068   4.042   1.720  0.0941 -0.4532  0.3962
  639MOL0     O86177   3.740   3.995   1.523 -0.2264  0.2776 -0.1809
  639MOL0     C86178   3.575   4.073   1.828  1.0911 -0.4293 -0.5732
  639MOL0     C86179   3.446   4.068   1.885  0.3644 -0.0857  0.5196
  639MOL0     N86180   2.846   3.670   2.000  0.1197 -0.4163  0.6971
  639MOL0     N86181   2.730   3.684   1.950  0.0630  0.0481 -0.3695
  639MOL0     C86182   1.601   4.145   1.643  0.3188 -0.0753 -0.3161
  639MOL0     C86183   1.468   4.171   1.667 -0.1398  0.0190  0.4757
  639MOL0     C86184   1.042   4.204   1.697  0.8615  0.5750 -0.2277
  639MOL0     C86185   0.973   4.138   1.803  0.5175  0.5987 -0.6887
  639MOL0     C86186   0.845   4.174   1.842  0.5495  1.0802 -1.0203
  639MOL0     C86187   0.783   4.282   1.776  0.7672 -0.5686  0.5984
  639MOL0     O86188   0.665   4.334   1.814 -0.2903 -0.3457  0.0523
  639MOL0     C86189   0.560   4.243   1.819 -0.1785 -0.5042 -0.3151
  639MOL0     C86190   0.502   4.209   1.680 -0.4095  0.2562 -0.0093
  639MOL0     C86191   0.444   4.337   1.614  0.3257  0.6652 -0.7574
  639MOL0     C86192   0.334   4.306   1.510  0.1411 -0.7570  0.8767
  639MOL0     C86193   0.277   4.422   1.440  0.2339  0.2890  0.1228
  639MOL0     C86194   0.226   4.525   1.387 -0.0296 -0.4023  0.5198
  639MOL0     C86195   0.847   4.350   1.675  0.2871  0.1111  0.4732
  639MOL0     C86196   0.980   4.312   1.635  0.0335  0.2283  0.2066
  639MOL0     C86197   1.040   4.413   1.533  0.4365  0.0286  0.6907
  639MOL0     H86198   1.377   3.917   1.873 -0.3811  1.2187  0.4138
  639MOL0     H86199   1.612   3.866   1.851 -0.1723 -1.5800 -0.7139
  639MOL0     H86200   1.824   3.904   1.851 -1.8281  1.7566 -0.4257
  639MOL0     H86201   1.843   3.807   1.690 -0.1249  1.7326 -3.2648
  639MOL0     H86202   2.018   3.943   1.635 -1.1768 -1.0870  0.0660
  639MOL0     H86203   2.068   3.853   1.766  0.6259  1.9180  1.1021
  639MOL0     H86204   1.945   4.108   1.840  0.6000  0.6650 -0.8008
  639MOL0     H86205   2.099   4.119   1.745  0.8712 -2.2938 -2.5872
  639MOL0     H86206   2.129   4.148   1.999  3.2700 -0.4660  0.5529
  639MOL0     H86207   2.065   3.982   2.016 -1.7703 -0.8480 -1.4313
  639MOL0     H86208   2.267   3.917   1.854  0.5089 -1.0463  1.6716
  639MOL0     H86209   2.319   4.090   1.878  0.7997  0.5260  1.1166
  639MOL0     H86210   2.312   4.050   2.116  2.4024  1.3251 -0.5012
  639MOL0     H86211   2.275   3.877   2.086 -1.4169  0.8150 -1.4422
  639MOL0     H86212   2.499   3.962   2.152  2.5304 -2.1182 -0.5910
  639MOL0     H86213   2.531   4.019   1.989  0.9498 -0.4859 -0.2108
  639MOL0     H86214   2.450   3.731   2.048 -2.1230 -0.0821 -3.0657
  639MOL0     H86215   2.488   3.810   1.894  0.7236  1.3920 -0.6027
  639MOL0     H86216   2.705   3.891   2.198 -0.5154  0.9168 -1.1483
  639MOL0     H86217   2.942   3.763   2.306  1.2794  0.0682 -0.0851
  639MOL0     H86218   3.029   3.669   2.187  0.7052 -0.8031  3.1203
  639MOL0     H86219   2.974   3.966   2.201 -2.5135 -1.7368  1.7710
  639MOL0     H86220   3.133   3.883   2.224  0.8088  1.7729 -2.3149
  639MOL0     H86221   2.985   3.921   1.961  0.4640  0.0736  0.4626
  639MOL0     H86222   3.115   3.804   1.976 -1.5930  0.6182 -3.3613
  639MOL0     H86223   3.272   3.977   2.058 -0.7257 -0.8078 -0.5936
  639MOL0     H86224   3.147   4.097   2.038  2.5572  0.4524  1.1236
  639MOL0     H86225   3.269   3.983   1.602 -0.6442 -0.3335 -0.8502
  639MOL0     H86226   3.493   3.974   1.512 -3.6497 -0.7599 -0.2975
  639MOL0     H86227   3.930   4.242   1.489 -0.3326 -0.5736  0.3082
  639MOL0     H86228   4.171   4.290   1.438  0.8910  0.4636  0.9431
  639MOL0     H86229   4.482   4.116   1.708  2.0602  3.7122 -0.7726
  639MOL0     H86230   4.459   4.000   1.564 -0.1167  0.4006 -0.3944
  639MOL0     H86231   4.652   4.085   1.463  2.8399  2.8611 -0.8002
  639MOL0     H86232   4.598   4.245   1.496  0.9981  0.9462  1.0039
  639MOL0     H86233   4.657   4.200   1.745 -2.4940 -2.2348  0.1651
  639MOL0     H86234   4.744   4.052   1.703 -1.0533 -0.9826 -1.0561
  639MOL0     H86235   4.830   4.321   1.567 -0.4567 -1.6790 -1.9958
  639MOL0     H86236   4.897   4.161   1.549 -0.6074 -1.4747  1.1139
  639MOL0     H86237   4.960   4.155   1.770  1.2124  1.0982  0.0563
  639MOL0     H86238   4.888   4.312   1.814  2.8607  1.3724  1.2643
  639MOL0     H86239   5.105   4.278   1.614  1.5886 -1.2852  2.3340
  639MOL0     H86240   5.010   4.429   1.639  0.6350 -0.3861 -0.3556
  639MOL0     H86241   5.145   4.293   1.888  2.2264  0.9447  0.6601
  639MOL0     H86242   5.093   4.452   1.868 -1.6004 -0.9034  1.1862
  639MOL0     H86243   5.281   4.498   1.724 -1.7919 -0.0961  0.2124
  639MOL0     H86244   5.348   4.409   1.864  1.9631  0.7073 -0.2714
  639MOL0     H86245   4.289   4.014   1.744  1.3666 -2.1251 -1.8787
  639MOL0     H86246   4.050   3.975   1.803  0.1348 -0.9321  0.0227
  639MOL0     H86247   3.657   4.106   1.890 -1.0413  1.7806  1.2970
  639MOL0     H86248   3.425   4.100   1.987 -0.9970 -1.0834  0.5778
  639MOL0     H86249   1.666   4.206   1.581  2.3463 -2.3738 -0.5853
  639MOL0     H86250   1.424   4.266   1.638 -0.3170  0.0958  0.9835
  639MOL0     H86251   1.022   4.052   1.849 -1.5903 -0.0061  0.5702
  639MOL0     H86252   0.801   4.115   1.922  0.2137  1.5666 -0.8457
  639MOL0     H86253   0.476   4.288   1.872  1.9023  1.9746  1.1181
  639MOL0     H86254   0.580   4.152   1.877 -1.1215 -0.0158  0.8032
  639MOL0     H86255   0.430   4.127   1.680 -0.0406 -0.4491 -5.2381
  639MOL0     H86256   0.585   4.166   1.623  1.5551  1.0596  2.0746
  639MOL0     H86257   0.526   4.402   1.581  0.6732  0.1967 -0.8241
  639MOL0     H86258   0.384   4.390   1.688  0.2603  2.2257 -1.8746
  639MOL0     H86259   0.370   4.240   1.430 -0.0501  0.2038 -0.0203
  639MOL0     H86260   0.248   4.260   1.560 -1.5329 -0.3091 -1.4269
  639MOL0     H86261   0.178   4.615   1.353  0.8258 -0.0220  0.2669
  639MOL0     H86262   0.790   4.431   1.631 -0.7281 -0.7820  0.0826
  639MOL0     H86263   1.011   4.517   1.550  3.6711  1.0773  0.4264
  639MOL0     H86264   1.148   4.417   1.548  0.2245  1.2942  1.9891
  639MOL0     H86265   1.028   4.396   1.425  3.0315  3.6516 -0.3767
  640MOL0     O86266   2.111   0.395   2.499  0.4804  0.3504 -0.1172
  640MOL0     C86267   2.034   0.326   2.431  0.3816  0.3351 -0.0195
  640MOL0     O86268   2.075   0.255   2.321 -0.2066 -0.0157 -0.0251
  640MOL0     C86269   2.206   0.247   2.276  0.5033 -0.2568  0.8478
  640MOL0     C86270   2.211   0.181   2.150  0.7673 -0.2482 -0.1749
  640MOL0     C86271   2.327   0.165   2.091  0.2650  0.4038 -0.0981
  640MOL0     C86272   2.440   0.224   2.138 -0.1089 -0.4495 -0.6475
  640MOL0     O86273   2.551   0.193   2.063 -0.1471 -0.1717 -0.1592
  640MOL0     C86274   2.662   0.286   2.065  0.2830  0.5687  0.4971
  640MOL0     C86275   2.691   0.328   1.921  0.6186 -0.5835 -0.1784
  640MOL0     C86276   2.817   0.411   1.918  0.3029  0.0196  0.4949
  640MOL0     C86277   2.856   0.469   1.785 -0.1728  0.6926  0.2836
  640MOL0     C86278   2.966   0.573   1.779 -0.1652 -0.5265 -0.2834
  640MOL0     C86279   3.105   0.511   1.805  1.0012  0.4728  0.7551
  640MOL0     C86280   3.219   0.611   1.821  0.2022 -0.3490 -0.0271
  640MOL0     C86281   3.350   0.530   1.827  0.0769  0.5894 -0.6626
  640MOL0     N86282   3.471   0.610   1.860 -0.5065 -0.5748  0.7558
  640MOL0     C86283   3.544   0.698   1.782 -0.2457 -0.1795 -0.2298
  640MOL0     C86284   3.661   0.703   1.841 -0.9932  0.2773  0.5556
  640MOL0     C86285   3.774   0.800   1.793  0.5705 -0.0613  0.1812
  640MOL0     C86286   3.879   0.818   1.901 -0.4004  0.7983 -0.1446
  640MOL0     C86287   3.991   0.904   1.849  0.3853 -0.5071  0.5495
  640MOL0     C86288   4.084   0.961   1.950  0.1568  0.0066  0.5386
  640MOL0     O86289   4.150   0.854   2.014 -0.8388  0.1384  0.6197
  640MOL0     C86290   4.274   0.878   2.068 -0.2774  0.1557  0.6767
  640MOL0     C86291   4.321   0.776   2.149  1.2781  0.0965  0.1431
  640MOL0     C86292   4.444   0.795   2.210 -0.2056  0.3559  0.5035
  640MOL0     C86293   4.522   0.912   2.195 -0.3897 -0.0420 -0.1848
  640MOL0     C86294   4.644   0.944   2.270 -0.2722 -1.0501  0.3725
  640MOL0     O86295   4.691   1.068   2.277 -0.7016 -0.3922 -0.4451
  640MOL0     C86296   4.777   1.093   2.390 -0.2470 -0.1361 -0.1626
  640MOL0     C86297   4.914   1.136   2.374  0.3536 -0.2353  0.1371
  640MOL0     C86298   4.994   1.155   2.489  0.0435  0.5122 -0.3837
  640MOL0     C86299   4.938   1.128   2.614  0.2860  0.7423 -0.1128
  640MOL0     O86300   5.032   1.133   2.714 -0.7968  0.5967 -0.6707
  640MOL0     C86301   5.002   1.056   2.836  0.7219 -0.4866  0.8712
  640MOL0     C86302   5.111   1.087   2.942  0.2308 -0.0507  0.1511
  640MOL0     C86303   5.256   1.035   2.903 -0.6025 -0.2889  0.3046
  640MOL0     C86304   5.341   1.008   3.026 -0.5511 -0.2098 -0.1343
  640MOL0     C86305   5.483   0.965   2.983  0.4463 -0.3678  0.1477
  640MOL0     C86306   5.560   0.913   3.102 -0.5054 -0.4231 -0.2051
  640MOL0     C86307   5.696   0.850   3.063  0.5763  0.6458  0.8751
  640MOL0     C86308   5.740   0.750   3.175  0.2919  0.0049 -0.9064
  640MOL0    Cl86309   5.911   0.709   3.132  0.1898  0.2578 -0.0576
  640MOL0     C86310   4.803   1.094   2.635  0.2482 -0.1488  0.1223
  640MOL0     C86311   4.732   1.074   2.520  0.6595  0.7395  0.2421
  640MOL0     O86312   4.677   0.849   2.342 -0.7390 -0.3120  0.4043
  640MOL0     C86313   4.476   1.011   2.110 -0.5934  0.2631 -0.1916
  640MOL0     C86314   4.350   0.996   2.053  0.1885  0.3101 -0.0883
  640MOL0     N86315   3.674   0.612   1.946 -0.0796  0.0563 -0.1118
  640MOL0     N86316   3.555   0.565   1.960 -0.0964  0.0095 -0.1944
  640MOL0     C86317   2.442   0.281   2.264 -1.0754 -0.6319 -0.8211
  640MOL0     C86318   2.324   0.292   2.334 -0.8020  0.2144 -0.0634
  640MOL0     C86319   1.883   0.315   2.475 -0.8288  0.4312  0.3339
  640MOL0     C86320   1.804   0.236   2.394 -0.3172 -0.1217  0.3237
  640MOL0     C86321   1.672   0.225   2.420  0.1205 -0.7867 -1.0027
  640MOL0     C86322   1.616   0.278   2.536 -0.0436  0.8054 -0.1094
  640MOL0     O86323   1.487   0.254   2.558  0.2669 -0.5001 -0.2880
  640MOL0     C86324   1.408   0.371   2.577 -0.0168  0.7192  0.2960
  640MOL0     C86325   1.261   0.344   2.531  0.5043 -1.0233 -0.0152
  640MOL0     C86326   1.230   0.325   2.378 -0.2576 -0.1876  0.7877
  640MOL0     C86327   1.283   0.209   2.299  0.5786  0.2663  0.3686
  640MOL0     C86328   1.270   0.241   2.156 -0.5978 -0.3826  0.0862
  640MOL0     C86329   1.258   0.264   2.033  0.0855 -1.1474 -0.4654
  640MOL0     C86330   1.699   0.345   2.630  0.6471  0.0720  0.7388
  640MOL0     C86331   1.832   0.370   2.597 -0.1529 -0.0315 -0.6616
  640MOL0     C86332   1.900   0.458   2.695  0.1462 -0.3041 -0.0527
  640MOL0     H86333   2.125   0.133   2.104  2.0413 -0.9477 -1.9525
  640MOL0     H86334   2.325   0.105   2.000  1.1382  3.1080 -2.0166
  640MOL0     H86335   2.662   0.372   2.131  1.8592 -1.1385  2.8804
  640MOL0     H86336   2.757   0.242   2.096  1.4379  1.2178 -1.8694
  640MOL0     H86337   2.607   0.389   1.885 -1.2546 -2.2629  1.1237
  640MOL0     H86338   2.695   0.245   1.850 -0.7044  0.1901 -1.2064
  640MOL0     H86339   2.900   0.350   1.954  0.1339  0.0310  0.9189
  640MOL0     H86340   2.804   0.501   1.980 -1.3256 -0.2949  0.6540
  640MOL0     H86341   2.861   0.395   1.705 -0.4008 -0.1910  1.0722
  640MOL0     H86342   2.770   0.529   1.754 -0.4844  0.3160  0.4170
  640MOL0     H86343   2.956   0.624   1.683 -0.3383 -0.2886 -0.1400
  640MOL0     H86344   2.945   0.649   1.855  0.2565  0.0358 -0.7214
  640MOL0     H86345   3.106   0.460   1.902 -0.3181  0.8014  0.9552
  640MOL0     H86346   3.126   0.443   1.723 -1.2540  0.8026 -0.1546
  640MOL0     H86347   3.205   0.670   1.912 -2.6458 -3.1349  1.5750
  640MOL0     H86348   3.216   0.681   1.737 -3.3509 -1.5597 -1.0883
  640MOL0     H86349   3.335   0.448   1.898 -0.7060  0.5243 -0.8895
  640MOL0     H86350   3.363   0.494   1.724 -0.8025  1.2866 -1.0330
  640MOL0     H86351   3.497   0.763   1.708 -0.1870 -1.1798 -1.1699
  640MOL0     H86352   3.809   0.773   1.692 -0.9756  1.8981 -0.9477
  640MOL0     H86353   3.725   0.896   1.779 -0.2715 -0.7311 -1.9592
  640MOL0     H86354   3.830   0.865   1.986  2.8012  1.9544  1.2307
  640MOL0     H86355   3.930   0.734   1.948  0.8263  2.3140  1.3353
  640MOL0     H86356   3.952   0.988   1.791  4.2532  0.6213 -0.7037
  640MOL0     H86357   4.065   0.850   1.790  2.8434 -0.5111  3.4026
  640MOL0     H86358   4.027   1.019   2.024 -0.0289 -0.3461  0.6768
  640MOL0     H86359   4.142   1.035   1.894  0.2939 -0.5099 -0.0091
  640MOL0     H86360   4.256   0.696   2.182  0.3577  0.7931  0.0818
  640MOL0     H86361   4.456   0.722   2.290 -2.3581 -2.8395 -1.8441
  640MOL0     H86362   4.932   1.161   2.270 -1.0631 -2.4130 -0.6927
  640MOL0     H86363   5.098   1.174   2.469  0.7393 -2.0619  0.3714
  640MOL0     H86364   4.911   1.091   2.885  0.9763  0.5683  0.6186
  640MOL0     H86365   4.997   0.949   2.816  0.8709 -0.2998 -0.2868
  640MOL0     H86366   5.119   1.195   2.961  2.9657 -0.3397  1.1203
  640MOL0     H86367   5.077   1.044   3.037 -0.2743  1.2213  0.5644
  640MOL0     H86368   5.255   0.938   2.853 -1.0875  0.3511 -0.9693
  640MOL0     H86369   5.301   1.099   2.827 -1.3309 -1.0390 -0.7762
  640MOL0     H86370   5.288   0.930   3.080 -0.1957  0.1384  0.7336
  640MOL0     H86371   5.329   1.101   3.082 -2.6814 -0.4672 -0.0935
  640MOL0     H86372   5.536   1.048   2.934  1.2315 -0.7286  0.3699
  640MOL0     H86373   5.473   0.882   2.912 -0.2814 -0.9090  0.8685
  640MOL0     H86374   5.569   0.992   3.177 -0.5372  0.5673 -1.2132
  640MOL0     H86375   5.505   0.830   3.149  0.1789 -0.8926 -0.2247
  640MOL0     H86376   5.769   0.931   3.062  0.8271  0.4167  0.6824
  640MOL0     H86377   5.678   0.805   2.965 -0.5381  1.6931  0.5854
  640MOL0     H86378   5.736   0.804   3.270 -5.8332  1.6697 -1.6902
  640MOL0     H86379   5.690   0.653   3.181 -3.0763  1.6390 -0.5932
  640MOL0     H86380   4.760   1.068   2.731  0.6384  1.8267  0.8765
  640MOL0     H86381   4.632   1.030   2.521  1.6179 -1.7833 -2.2991
  640MOL0     H86382   4.532   1.103   2.096  0.9386 -0.8610 -1.7737
  640MOL0     H86383   4.312   1.087   2.009 -1.8187  1.0600  2.8928
  640MOL0     H86384   2.536   0.311   2.310 -1.6123 -2.3005  1.5498
  640MOL0     H86385   2.333   0.321   2.439 -0.8883 -0.7772  0.2232
  640MOL0     H86386   1.840   0.202   2.298 -3.4613 -1.4283 -0.5221
  640MOL0     H86387   1.604   0.167   2.358 -0.7481 -1.9018  0.9046
  640MOL0     H86388   1.443   0.455   2.517  0.9426  0.5864  0.6534
  640MOL0     H86389   1.398   0.388   2.685  0.2742 -0.1208  0.4630
  640MOL0     H86390   1.203   0.433   2.554  1.2339  0.7919 -4.2216
  640MOL0     H86391   1.216   0.256   2.577  0.9522 -2.7593 -2.6276
  640MOL0     H86392   1.272   0.419   2.340 -1.5262 -0.5717 -1.7457
  640MOL0     H86393   1.121   0.332   2.373 -0.1542  0.3741 -1.4554
  640MOL0     H86394   1.389   0.181   2.301 -0.5705 -5.0775  0.4717
  640MOL0     H86395   1.235   0.119   2.337  0.4108 -0.5423 -1.6818
  640MOL0     H86396   1.249   0.259   1.926  0.1527 -1.1993 -0.4685
  640MOL0     H86397   1.637   0.385   2.709 -1.0772 -0.3569 -0.3521
  640MOL0     H86398   1.925   0.554   2.650  4.4568 -1.0636  0.2759
  640MOL0     H86399   1.832   0.495   2.773  0.8747  3.4765 -1.0148
  640MOL0     H86400   1.983   0.402   2.739  1.2018  1.4636  0.2581
  641MOL0     O86401   7.518   7.302   6.654  0.2327 -0.2701  0.6124
  641MOL0     C86402   7.588   7.257   6.565  0.8449  0.3088 -0.7029
  641MOL0     O86403   7.718   7.285   6.534 -0.8237 -0.8494  0.4120
  641MOL0     C86404   7.759   7.398   6.597 -0.3923 -0.0247  0.8538
  641MOL0     C86405   7.733   7.529   6.534  0.5601  0.0385 -0.2074
  641MOL0     C86406   7.750   7.642   6.603 -0.4406 -0.4357  0.7392
  641MOL0     C86407   7.817   7.637   6.724  0.1390 -0.7899  0.3824
  641MOL0     O86408   7.836   7.755   6.799  0.5922 -0.2077  0.0949
  641MOL0     C86409   7.968   7.769   6.864 -0.3635  0.2659  0.2548
  641MOL0     C86410   7.991   7.902   6.927  0.3471 -1.0430  0.4309
  641MOL0     C86411   8.135   7.920   6.980 -0.8841  0.0553  0.0988
  641MOL0     C86412   8.162   8.068   7.018 -0.0860 -0.6503 -0.1219
  641MOL0     C86413   8.314   8.095   7.037  0.3224 -0.3084  0.2828
  641MOL0     C86414   8.338   8.230   7.103  0.7558 -0.5836 -0.6125
  641MOL0     C86415   8.490   8.243   7.114 -0.6708 -0.7618  0.7689
  641MOL0     C86416   8.524   8.377   7.183 -0.9051 -0.0405  0.0488
  641MOL0     N86417   8.674   8.378   7.178  0.4232 -1.0355 -0.7608
  641MOL0     C86418   8.756   8.312   7.264 -0.0740  0.1916  0.6957
  641MOL0     C86419   8.881   8.327   7.207 -0.0698 -0.4459  0.5566
  641MOL0     C86420   9.013   8.300   7.259  0.6727 -0.5639  1.0563
  641MOL0     C86421   9.033   8.157   7.312  0.3552 -0.7321 -0.6222
  641MOL0     C86422   9.167   8.133   7.381  0.0070  1.6826 -0.1137
  641MOL0     C86423   9.203   8.229   7.492  0.3557  0.0467  0.3449
  641MOL0     O86424   9.306   8.170   7.574 -0.1484  0.1513  0.1011
  641MOL0     C86425   9.432   8.170   7.540  0.4920 -0.7350  0.6186
  641MOL0     C86426   9.505   8.118   7.638 -0.3664 -0.2317  0.2977
  641MOL0     C86427   9.647   8.115   7.630  0.0937 -0.0870 -0.3273
  641MOL0     C86428   9.711   8.162   7.521 -0.3498  0.3029 -1.1431
  641MOL0     C86429   9.862   8.146   7.513  0.2157  0.2031  0.6492
  641MOL0     O86430   9.909   8.162   7.380 -0.1426  0.1291 -0.3146
  641MOL0     C86431  10.039   8.136   7.341 -0.8888 -0.0480 -0.1284
  641MOL0     C86432  10.151   8.167   7.424  0.2520  0.3469  0.8853
  641MOL0     C86433  10.277   8.143   7.386  0.3765  0.3043  0.7073
  641MOL0     C86434  10.300   8.071   7.269  0.5088 -0.1374  0.2898
  641MOL0     O86435  10.431   8.039   7.241 -0.5298  0.2772  0.0828
  641MOL0     C86436  10.462   8.062   7.094  0.2350 -0.3762 -0.6406
  641MOL0     C86437  10.607   8.018   7.083  0.5362 -0.2808 -0.0546
  641MOL0     C86438  10.629   7.994   6.928  0.6831 -0.0903  0.2661
  641MOL0     C86439  10.777   7.939   6.908  0.4639 -0.1821 -0.6202
  641MOL0     C86440  10.829   7.935   6.765 -0.9290 -0.2805  0.3728
  641MOL0     C86441  10.973   7.875   6.749  0.3327 -0.1864  0.0612
  641MOL0     C86442  11.092   7.961   6.816  0.8370 -0.2707  0.8814
  641MOL0     C86443  11.229   7.914   6.766  0.6828  0.5534  0.4978
  641MOL0    Cl86444  11.261   7.759   6.846  0.2658  0.0148 -0.3442
  641MOL0     C86445  10.193   8.041   7.178  0.3691 -0.7654 -0.6991
  641MOL0     C86446  10.065   8.068   7.212  0.1424 -0.9959  0.2981
  641MOL0     O86447   9.928   8.108   7.612  0.0995  0.2282 -0.3993
  641MOL0     C86448   9.635   8.229   7.428  0.6247 -0.9219  1.9146
  641MOL0     C86449   9.494   8.232   7.440 -0.3043 -0.0176  0.3692
  641MOL0     N86450   8.860   8.399   7.084  0.0978 -0.5236 -0.2774
  641MOL0     N86451   8.732   8.428   7.069 -0.2438 -0.0446  0.4982
  641MOL0     C86452   7.852   7.513   6.779 -0.0665  0.1556 -0.2726
  641MOL0     C86453   7.813   7.391   6.718 -0.4275  0.8323  0.8417
  641MOL0     C86454   7.524   7.143   6.482 -0.1112 -0.1848  0.1713
  641MOL0     C86455   7.625   7.066   6.413  0.1803  0.3895  0.5372
  641MOL0     C86456   7.585   6.958   6.331 -0.4551  0.0918 -0.3387
  641MOL0     C86457   7.450   6.926   6.304 -0.8008 -1.4093  0.4333
  641MOL0     O86458   7.432   6.823   6.211 -0.1436 -0.0267 -0.3873
  641MOL0     C86459   7.297   6.805   6.165  0.1083  0.4045 -0.4900
  641MOL0     C86460   7.264   6.916   6.064 -0.3109 -1.0430  0.0949
  641MOL0     C86461   7.367   6.922   5.950 -0.1517 -0.7687 -0.7674
  641MOL0     C86462   7.327   6.976   5.812 -1.5310  0.8476  0.5739
  641MOL0     C86463   7.374   7.115   5.806  0.1790  0.5368  0.9087
  641MOL0     C86464   7.406   7.229   5.819  0.0365 -0.3936 -0.3555
  641MOL0     C86465   7.357   7.002   6.368 -0.4999 -0.5699 -0.9684
  641MOL0     C86466   7.385   7.111   6.453  0.5908  0.4864  1.3821
  641MOL0     C86467   7.262   7.179   6.512  0.3067 -0.5729  0.9321
  641MOL0     H86468   7.680   7.521   6.440 -0.3467  0.4387  0.2612
  641MOL0     H86469   7.711   7.729   6.551 -0.8503 -1.4796 -0.7772
  641MOL0     H86470   7.978   7.692   6.941 -2.3020 -1.8557 -1.4849
  641MOL0     H86471   8.051   7.743   6.796  0.7621  0.7107  1.4161
  641MOL0     H86472   7.919   7.925   7.006 -0.7475  0.5672 -0.9681
  641MOL0     H86473   7.976   7.977   6.850 -0.3353 -1.1812  0.4252
  641MOL0     H86474   8.204   7.899   6.898 -1.1431  1.0315 -0.3834
  641MOL0     H86475   8.162   7.865   7.071  1.0681  2.6102  1.2067
  641MOL0     H86476   8.119   8.133   6.941  0.1392  2.0254  1.8454
  641MOL0     H86477   8.113   8.087   7.114  2.3372 -1.7648  1.4165
  641MOL0     H86478   8.360   8.018   7.099 -1.4044 -2.2254 -0.7115
  641MOL0     H86479   8.365   8.078   6.942  0.2028 -0.2676  0.2095
  641MOL0     H86480   8.286   8.308   7.047  1.2893 -1.3017 -2.1681
  641MOL0     H86481   8.281   8.231   7.196 -1.6779  0.2997 -2.0290
  641MOL0     H86482   8.534   8.246   7.014  0.7555  1.8191  1.3815
  641MOL0     H86483   8.542   8.165   7.171  0.1719  0.0928  1.1989
  641MOL0     H86484   8.494   8.460   7.118  0.2504 -0.2400 -0.7685
  641MOL0     H86485   8.479   8.387   7.282 -2.4021  2.5032 -0.7952
  641MOL0     H86486   8.727   8.282   7.364 -1.1459  2.1378  1.0310
  641MOL0     H86487   9.085   8.334   7.185 -1.5448  3.3293  0.4063
  641MOL0     H86488   9.027   8.371   7.341 -0.6467 -1.5821  2.2180
  641MOL0     H86489   8.951   8.137   7.381 -1.3121  0.2669 -2.2396
  641MOL0     H86490   9.034   8.086   7.229  2.6861  0.5023 -1.7304
  641MOL0     H86491   9.236   8.133   7.296  1.1020  1.5589  0.7581
  641MOL0     H86492   9.160   8.033   7.425 -0.0036  2.0472  0.7253
  641MOL0     H86493   9.117   8.249   7.556  0.3714  1.9405 -0.1768
  641MOL0     H86494   9.231   8.329   7.457  1.3716 -0.4915 -0.4316
  641MOL0     H86495   9.445   8.090   7.724  1.3203  0.4803  1.7511
  641MOL0     H86496   9.689   8.060   7.713 -1.4596  1.3967  1.5600
  641MOL0     H86497  10.124   8.217   7.517  0.4406  3.4184 -0.6020
  641MOL0     H86498  10.364   8.169   7.445 -0.8702 -0.7137  3.0895
  641MOL0     H86499  10.398   7.995   7.036 -2.9465  0.4694  1.5957
  641MOL0     H86500  10.435   8.165   7.071  0.9816  0.8611  3.2201
  641MOL0     H86501  10.670   8.103   7.112  0.9695  0.1838 -2.1936
  641MOL0     H86502  10.630   7.931   7.146  2.6818  0.9020  0.9183
  641MOL0     H86503  10.568   7.915   6.884  0.3098 -0.0620  0.7183
  641MOL0     H86504  10.608   8.085   6.872 -2.4070 -2.0054 -1.9936
  641MOL0     H86505  10.772   7.838   6.951  1.3589  0.0019 -0.0428
  641MOL0     H86506  10.840   8.001   6.973  0.8963 -0.6930 -0.5350
  641MOL0     H86507  10.837   8.035   6.719 -0.5727  0.3851  1.8390
  641MOL0     H86508  10.765   7.864   6.712 -2.8285 -1.1615  3.6106
  641MOL0     H86509  10.958   7.779   6.798 -1.1502 -0.5819 -1.0996
  641MOL0     H86510  10.993   7.856   6.643  1.8446 -2.1552  0.6348
  641MOL0     H86511  11.083   7.968   6.924  4.5351  2.0132  1.2315
  641MOL0     H86512  11.084   8.058   6.767  1.6878 -1.2891 -1.4611
  641MOL0     H86513  11.219   7.909   6.657 -0.9160  0.1413  0.6327
  641MOL0     H86514  11.316   7.976   6.787  3.1138 -1.1928 -3.3799
  641MOL0     H86515  10.216   7.990   7.085 -0.7928  1.1008 -2.0824
  641MOL0     H86516   9.979   8.029   7.159  0.8658 -1.2737 -0.6831
  641MOL0     H86517   9.678   8.282   7.344  0.8777 -1.4655  1.6960
  641MOL0     H86518   9.441   8.295   7.369  1.5235 -1.5236 -2.5227
  641MOL0     H86519   7.887   7.520   6.881  1.6363  2.4027 -0.9296
  641MOL0     H86520   7.837   7.297   6.767  0.9620  0.9934  0.4983
  641MOL0     H86521   7.729   7.095   6.419  0.7675 -1.4067 -0.0397
  641MOL0     H86522   7.652   6.894   6.275 -0.2711 -2.2938  2.3417
  641MOL0     H86523   7.229   6.799   6.251 -0.0488  0.0472 -0.6402
  641MOL0     H86524   7.286   6.709   6.115 -1.1718  0.2771 -0.0116
  641MOL0     H86525   7.256   7.008   6.124 -2.2858 -2.6062  2.4286
  641MOL0     H86526   7.163   6.886   6.035 -0.5930  0.4721 -0.6198
  641MOL0     H86527   7.407   6.823   5.927 -0.7530 -0.7264 -2.0401
  641MOL0     H86528   7.455   6.972   5.994 -1.5405 -0.1043  1.4249
  641MOL0     H86529   7.377   6.922   5.731 -1.2855  0.6891  0.8296
  641MOL0     H86530   7.218   6.973   5.799 -1.4361  2.6424 -1.1490
  641MOL0     H86531   7.438   7.330   5.831 -1.2142 -0.1010  0.7432
  641MOL0     H86532   7.253   6.973   6.361 -1.6791  1.9294  3.0258
  641MOL0     H86533   7.251   7.155   6.619  1.0501  3.0160  1.9375
  641MOL0     H86534   7.253   7.288   6.505 -2.5609 -0.8005 -0.1281
  641MOL0     H86535   7.165   7.147   6.474 -0.1409  0.3902  1.2287
  642MOL0     O86536   1.024  10.934   0.903 -0.3868 -0.4914 -0.1046
  642MOL0     C86537   1.062  10.876   1.004  0.0239 -0.0840  0.3776
  642MOL0     O86538   0.982  10.809   1.092 -0.7451  0.3701 -0.1325
  642MOL0     C86539   0.854  10.845   1.089  0.1532 -0.9184 -0.0146
  642MOL0     C86540   0.763  10.738   1.091 -0.0732 -0.0166 -0.6414
  642MOL0     C86541   0.628  10.766   1.102  0.2720 -0.5517 -1.0143
  642MOL0     C86542   0.582  10.892   1.118 -0.2029  0.0859  0.7598
  642MOL0     O86543   0.441  10.908   1.136 -0.3689 -0.3895 -0.1903
  642MOL0     C86544   0.402  10.919   1.278 -0.0486 -0.8221  0.4505
  642MOL0     C86545   0.269  10.994   1.283  1.6171 -0.5194  0.9783
  642MOL0     C86546   0.158  10.901   1.246  0.4406  1.2968 -0.9822
  642MOL0     C86547   0.024  10.972   1.277 -0.6073 -1.1162  0.0338
  642MOL0     C86548  -0.100  10.919   1.214 -0.1286 -0.7715 -0.5631
  642MOL0     C86549  -0.154  11.009   1.104  0.9467 -0.1748  0.6066
  642MOL0     C86550  -0.071  11.017   0.974 -0.0219  1.2067  0.4121
  642MOL0     C86551  -0.142  11.105   0.869  0.1169 -0.1011 -0.4040
  642MOL0     N86552  -0.054  11.131   0.758 -0.3430  0.7289 -0.6368
  642MOL0     C86553  -0.072  11.242   0.678  0.4290 -0.0146  0.0827
  642MOL0     C86554   0.021  11.224   0.588 -0.6576 -0.3683 -0.3156
  642MOL0     C86555   0.051  11.310   0.468  0.0762 -0.2753 -0.1352
  642MOL0     C86556   0.182  11.383   0.491 -0.6789 -0.1900  0.4450
  642MOL0     C86557   0.310  11.310   0.427 -0.3939  0.3754  1.2756
  642MOL0     C86558   0.434  11.394   0.430  0.4866  0.2411 -0.8913
  642MOL0     O86559   0.416  11.507   0.343 -0.3484  0.1189  0.1047
  642MOL0     C86560   0.523  11.590   0.310  0.1318 -0.5372 -0.4572
  642MOL0     C86561   0.651  11.579   0.363 -0.8964 -0.4688  0.1070
  642MOL0     C86562   0.758  11.664   0.325 -0.4646  0.9265 -0.3801
  642MOL0     C86563   0.725  11.763   0.238 -0.0040  0.5397  0.7585
  642MOL0     C86564   0.831  11.857   0.196 -0.3439  0.1758  0.4108
  642MOL0     O86565   0.954  11.855   0.255  0.2056  0.1983 -0.4152
  642MOL0     C86566   1.036  11.949   0.187 -0.1179  0.7159  0.6301
  642MOL0     C86567   1.128  11.903   0.086 -0.1210 -1.1108  0.1425
  642MOL0     C86568   1.210  11.996   0.024  0.1905  0.2282 -0.0455
  642MOL0     C86569   1.214  12.129   0.075  0.4066 -0.0935  0.2143
  642MOL0     O86570   1.300  12.226   0.028 -0.4925  0.1330  0.2543
  642MOL0     C86571   1.300  12.232  -0.112  0.0377 -0.2311  0.2849
  642MOL0     C86572   1.439  12.195  -0.158  0.1045 -0.0701 -0.8292
  642MOL0     C86573   1.545  12.287  -0.089 -0.0071 -0.5089 -0.6537
  642MOL0     C86574   1.673  12.231  -0.160 -0.4514  0.1582 -0.2378
  642MOL0     C86575   1.801  12.303  -0.131  1.1442 -0.6698  0.5611
  642MOL0     C86576   1.901  12.252  -0.226 -0.1564  0.2492  1.1690
  642MOL0     C86577   2.019  12.349  -0.220 -0.0872  0.2019 -0.0292
  642MOL0     C86578   2.127  12.337  -0.328 -0.6847 -0.4579 -0.7629
  642MOL0    Cl86579   2.257  12.429  -0.251 -0.2830  0.2895 -0.3043
  642MOL0     C86580   1.129  12.173   0.177 -0.5447  0.0381  0.3056
  642MOL0     C86581   1.047  12.080   0.231  0.4148  0.0859 -0.5418
  642MOL0     O86582   0.803  11.929   0.096 -0.0742  0.0400 -0.4096
  642MOL0     C86583   0.601  11.784   0.187  0.0898  0.6998 -0.4351
  642MOL0     C86584   0.497  11.694   0.230  0.4541  0.2228 -0.3161
  642MOL0     N86585   0.100  11.114   0.619  0.5037  0.2122 -0.4502
  642MOL0     N86586   0.053  11.055   0.719 -0.3430 -0.0428  0.1820
  642MOL0     C86587   0.667  11.001   1.120 -0.7513 -0.1392  0.2594
  642MOL0     C86588   0.810  10.983   1.108  0.8305  0.1937  0.6468
  642MOL0     C86589   1.211  10.858   1.031  0.1170 -0.7381 -0.3543
  642MOL0     C86590   1.248  10.737   1.078 -0.4877 -0.2623 -0.6135
  642MOL0     C86591   1.379  10.699   1.103  0.4719  0.3062  0.3287
  642MOL0     C86592   1.477  10.798   1.086  0.7353  0.2466 -0.0970
  642MOL0     O86593   1.605  10.759   1.112 -0.1258  0.2971 -0.8123
  642MOL0     C86594   1.693  10.863   1.150  1.0591 -0.3777  0.4610
  642MOL0     C86595   1.814  10.793   1.224  0.4405 -0.3176  0.0153
  642MOL0     C86596   1.900  10.897   1.307  0.5840  0.6517 -0.6070
  642MOL0     C86597   2.015  10.838   1.389 -1.0299 -0.1150  0.4535
  642MOL0     C86598   1.970  10.724   1.474  0.2560 -0.5242  0.2290
  642MOL0     C86599   1.942  10.636   1.554 -0.8550 -0.1835 -0.5875
  642MOL0     C86600   1.449  10.917   1.019  1.1905 -0.3111  0.1357
  642MOL0     C86601   1.313  10.949   0.996  0.2974 -1.0912 -0.4802
  642MOL0     C86602   1.284  11.091   0.956  0.2287 -0.8240  0.0011
  642MOL0     H86603   0.783  10.632   1.076 -1.6082 -0.9747  2.8103
  642MOL0     H86604   0.554  10.688   1.091 -1.1475  0.5249  0.5412
  642MOL0     H86605   0.380  10.815   1.305 -1.9306 -0.5732 -0.0164
  642MOL0     H86606   0.482  10.963   1.339 -1.4798  2.6429  0.0305
  642MOL0     H86607   0.255  11.071   1.206 -1.9556 -1.7751  0.2069
  642MOL0     H86608   0.261  11.042   1.381  0.4423  0.3601  0.4742
  642MOL0     H86609   0.168  10.815   1.314 -1.8654  2.9020  1.6238
  642MOL0     H86610   0.162  10.868   1.142 -1.7418 -2.5490 -0.0592
  642MOL0     H86611   0.014  10.976   1.386 -1.1486 -1.1256 -0.0118
  642MOL0     H86612   0.038  11.076   1.246 -0.8689 -0.3647  2.2726
  642MOL0     H86613  -0.081  10.819   1.173 -0.3011 -0.6906 -0.8401
  642MOL0     H86614  -0.164  10.902   1.301  0.4234 -0.4739 -0.0900
  642MOL0     H86615  -0.253  10.972   1.080 -0.4146  3.0382  0.7696
  642MOL0     H86616  -0.175  11.103   1.156  2.8779 -1.3723  3.8984
  642MOL0     H86617  -0.050  10.916   0.938 -3.4146 -0.4335  2.5351
  642MOL0     H86618   0.026  11.060   1.001  0.5331 -0.8711  1.9756
  642MOL0     H86619  -0.236  11.056   0.838  1.8938 -3.0410 -1.6398
  642MOL0     H86620  -0.163  11.199   0.919  2.5251  0.0549  0.4477
  642MOL0     H86621  -0.151  11.316   0.686  0.4459  0.0433 -0.3031
  642MOL0     H86622   0.041  11.258   0.372 -2.2759  1.3744 -0.8657
  642MOL0     H86623  -0.020  11.393   0.465 -0.6867 -0.8805  0.7730
  642MOL0     H86624   0.181  11.479   0.439  0.0473 -1.4623 -2.0530
  642MOL0     H86625   0.201  11.405   0.597 -0.7680 -1.7120  0.8023
  642MOL0     H86626   0.281  11.283   0.324 -1.8037 -0.6034  1.8963
  642MOL0     H86627   0.332  11.222   0.487 -2.1188 -1.0642 -0.0850
  642MOL0     H86628   0.521  11.335   0.399  0.5770  1.1313 -2.3745
  642MOL0     H86629   0.440  11.431   0.533  1.8720 -1.2858 -0.3708
  642MOL0     H86630   0.677  11.493   0.424  5.4687  0.7458 -0.2173
  642MOL0     H86631   0.856  11.654   0.371 -1.2081 -0.0200  1.0745
  642MOL0     H86632   1.132  11.795   0.069 -0.4631 -1.0101 -0.6338
  642MOL0     H86633   1.275  11.959  -0.055  1.5713  2.9150 -0.2962
  642MOL0     H86634   1.217  12.176  -0.155 -1.7253  1.8175  0.8822
  642MOL0     H86635   1.286  12.336  -0.144 -2.1907 -0.1059  1.4857
  642MOL0     H86636   1.453  12.091  -0.128 -3.1692 -1.4314 -3.4277
  642MOL0     H86637   1.433  12.199  -0.267 -1.7645 -1.3604 -0.8141
  642MOL0     H86638   1.517  12.390  -0.113 -1.4529 -1.0982 -1.6181
  642MOL0     H86639   1.554  12.266   0.018  2.2596 -1.2624 -0.9249
  642MOL0     H86640   1.662  12.259  -0.266  2.6032  0.2214 -0.6280
  642MOL0     H86641   1.690  12.124  -0.149  1.0311  0.5407  1.6086
  642MOL0     H86642   1.837  12.291  -0.028  0.8247  1.1155  0.9008
  642MOL0     H86643   1.785  12.411  -0.139 -2.3401 -0.9980  1.5344
  642MOL0     H86644   1.932  12.153  -0.192 -2.4802 -1.6504 -1.7737
  642MOL0     H86645   1.865  12.245  -0.329 -1.5039 -2.0202  1.7341
  642MOL0     H86646   2.063  12.333  -0.121 -2.4346 -5.4534  0.4428
  642MOL0     H86647   1.985  12.452  -0.235  1.0543  0.8248  1.4374
  642MOL0     H86648   2.163  12.236  -0.349  0.7574  0.2637 -1.9114
  642MOL0     H86649   2.099  12.376  -0.426  2.1214  1.5350 -0.8801
  642MOL0     H86650   1.120  12.279   0.198 -1.2287  0.6647 -2.6919
  642MOL0     H86651   0.977  12.110   0.308 -1.2908 -0.0303 -1.9976
  642MOL0     H86652   0.560  11.851   0.111 -0.9311  2.0433  1.2341
  642MOL0     H86653   0.398  11.710   0.188 -0.7086 -3.5266  0.6007
  642MOL0     H86654   0.625  11.100   1.126  0.5042  0.3329  1.7021
  642MOL0     H86655   0.881  11.065   1.109 -1.1153  1.9818  0.0472
  642MOL0     H86656   1.168  10.665   1.097 -0.0213 -0.5407  0.3602
  642MOL0     H86657   1.401  10.599   1.140  2.7047  1.0547  1.1935
  642MOL0     H86658   1.649  10.931   1.224  2.3411 -1.0069  1.8454
  642MOL0     H86659   1.727  10.916   1.061 -0.8050  1.3198  0.6746
  642MOL0     H86660   1.882  10.744   1.153  1.7244 -1.2154  1.7588
  642MOL0     H86661   1.782  10.704   1.279  1.8374 -1.7033 -1.2844
  642MOL0     H86662   1.843  10.961   1.375  1.0920  0.6884 -0.2073
  642MOL0     H86663   1.952  10.969   1.244 -0.9805  0.6655 -1.9379
  642MOL0     H86664   2.082  10.810   1.307 -1.3843  1.9856 -0.6325
  642MOL0     H86665   2.049  10.917   1.456 -4.7804  1.0822  1.1894
  642MOL0     H86666   1.931  10.552   1.619 -0.6816  0.6246  0.5207
  642MOL0     H86667   1.529  10.969   0.967  1.4304 -1.8799 -1.1673
  642MOL0     H86668   1.370  11.153   0.933 -0.8071  0.5984 -0.1979
  642MOL0     H86669   1.220  11.084   0.868  1.5125  1.3348 -1.1824
  642MOL0     H86670   1.220  11.152   1.021  1.3202 -0.2862  0.5961
  643MOL0     O86671  10.710  10.038   1.645  0.3066  0.0411 -0.3650
  643MOL0     C86672  10.833  10.038   1.623  0.6335 -0.4073 -0.7221
  643MOL0     O86673  10.892  10.121   1.525 -0.0489  0.1696 -0.4919
  643MOL0     C86674  10.817  10.202   1.444 -0.1020  0.1171 -0.1676
  643MOL0     C86675  10.697  10.276   1.463  0.0968  0.5098  0.1807
  643MOL0     C86676  10.633  10.339   1.360 -1.5964  0.2380  0.7006
  643MOL0     C86677  10.701  10.341   1.233 -0.5205 -0.8973 -0.4503
  643MOL0     O86678  10.648  10.399   1.122 -0.0841  0.7757 -0.9872
  643MOL0     C86679  10.554  10.318   1.057  0.1550  1.1720  0.7354
  643MOL0     C86680  10.628  10.236   0.948  0.0832  0.0094  0.9833
  643MOL0     C86681  10.684  10.313   0.820 -0.2917 -0.4186 -0.5623
  643MOL0     C86682  10.766  10.235   0.718 -0.2427  0.2645 -0.3542
  643MOL0     C86683  10.866  10.325   0.638  0.0314 -0.2918  0.5131
  643MOL0     C86684  10.786  10.412   0.539 -0.2870  0.2943  0.0256
  643MOL0     C86685  10.876  10.520   0.473 -0.5580 -0.2586  0.5439
  643MOL0     C86686  11.004  10.479   0.394 -0.1035 -1.0207 -0.1893
  643MOL0     N86687  11.071  10.598   0.337 -0.1290  0.0847 -0.3794
  643MOL0     C86688  11.102  10.705   0.413 -0.0272  0.7555 -0.2283
  643MOL0     C86689  11.195  10.765   0.338  0.8733  0.3314 -0.1023
  643MOL0     C86690  11.261  10.897   0.384  0.5736  0.0388  0.0657
  643MOL0     C86691  11.328  10.972   0.275 -0.1102 -0.0936  0.0982
  643MOL0     C86692  11.220  11.053   0.198 -0.0802  0.4050  0.3627
  643MOL0     C86693  11.273  11.108   0.068  0.6563  0.2224 -1.1674
  643MOL0     O86694  11.367  11.208   0.109  0.4437 -0.1775  0.4937
  643MOL0     C86695  11.466  11.262   0.027  0.6116 -0.4701  0.7736
  643MOL0     C86696  11.567  11.359   0.072  0.4747  0.6013  0.4698
  643MOL0     C86697  11.659  11.411  -0.019  0.1653  0.0433  0.3875
  643MOL0     C86698  11.666  11.359  -0.149  0.2974 -0.2595 -0.2096
  643MOL0     C86699  11.777  11.397  -0.236  0.3457 -0.3154  0.1685
  643MOL0     O86700  11.793  11.332  -0.363 -0.1156 -0.0040 -0.1903
  643MOL0     C86701  11.891  11.384  -0.439 -0.0856  0.1442  0.7343
  643MOL0     C86702  11.851  11.434  -0.565 -0.0779 -0.3806 -0.1500
  643MOL0     C86703  11.955  11.486  -0.648 -0.8000 -0.0555 -0.4920
  643MOL0     C86704  12.086  11.496  -0.603 -0.4769  0.0630 -0.7877
  643MOL0     O86705  12.182  11.558  -0.681 -0.4187 -0.2486  0.5753
  643MOL0     C86706  12.252  11.673  -0.621 -0.2015  0.5005 -0.2771
  643MOL0     C86707  12.396  11.682  -0.660 -0.4981  0.7473  1.3415
  643MOL0     C86708  12.487  11.595  -0.581 -0.3069  0.8005 -0.4624
  643MOL0     C86709  12.480  11.448  -0.631 -0.3836  0.0342 -1.0635
  643MOL0     C86710  12.580  11.348  -0.570 -0.2899 -0.4173  0.7101
  643MOL0     C86711  12.547  11.302  -0.432 -0.4235 -0.6924 -0.6743
  643MOL0     C86712  12.624  11.183  -0.363  0.5197 -1.3919 -0.0725
  643MOL0     C86713  12.647  11.210  -0.213  0.0638  0.0732  0.1783
  643MOL0    Cl86714  12.505  11.170  -0.118 -0.2863 -1.0718  0.0728
  643MOL0     C86715  12.123  11.448  -0.474 -0.1548  1.5103  0.3582
  643MOL0     C86716  12.022  11.394  -0.392  0.8408  0.7376  1.3019
  643MOL0     O86717  11.849  11.482  -0.190 -0.3803 -0.1924  0.2733
  643MOL0     C86718  11.574  11.266  -0.194 -0.0291  0.4078  0.4214
  643MOL0     C86719  11.477  11.224  -0.111 -0.1242  0.1191 -0.4342
  643MOL0     N86720  11.216  10.701   0.223  0.2745 -0.5146  0.1537
  643MOL0     N86721  11.139  10.602   0.218  0.3371  0.7135 -0.8155
  643MOL0     C86722  10.823  10.278   1.211 -0.0228  0.0411 -0.7208
  643MOL0     C86723  10.882  10.206   1.318 -0.1378 -0.3641 -0.1986
  643MOL0     C86724  10.933   9.985   1.716 -1.0580 -0.0267  0.3669
  643MOL0     C86725  11.053  10.056   1.753  0.4751  0.5837 -0.2998
  643MOL0     C86726  11.154  10.003   1.832 -0.3028  0.1699  0.0079
  643MOL0     C86727  11.138   9.867   1.871 -0.3773 -0.8825  0.2298
  643MOL0     O86728  11.223   9.790   1.951 -0.0925 -0.0604 -0.4869
  643MOL0     C86729  11.341   9.855   1.999 -0.8872 -0.5634  0.0889
  643MOL0     C86730  11.449   9.821   1.899 -0.1455 -0.1803  0.1314
  643MOL0     C86731  11.581   9.887   1.918  0.4497  0.6269  0.6877
  643MOL0     C86732  11.637   9.923   2.048  0.2087  0.1023  0.0173
  643MOL0     C86733  11.576  10.052   2.092 -0.3879  0.6333 -0.0727
  643MOL0     C86734  11.537  10.160   2.131 -0.4206 -1.0157 -0.2652
  643MOL0     C86735  11.027   9.794   1.834 -0.5843 -0.1828 -0.7555
  643MOL0     C86736  10.927   9.851   1.757 -0.0657  0.0653  0.2113
  643MOL0     C86737  10.824   9.766   1.698  0.1471 -0.0247  1.2284
  643MOL0     H86738  10.643  10.256   1.555 -1.9018 -1.7152 -1.3522
  643MOL0     H86739  10.531  10.376   1.363 -1.7691 -0.1839  0.1011
  643MOL0     H86740  10.503  10.252   1.128  0.1051  1.3920  0.9046
  643MOL0     H86741  10.489  10.383   0.998  2.3970  1.8269 -1.1947
  643MOL0     H86742  10.551  10.164   0.917  1.1616  0.2063 -2.5166
  643MOL0     H86743  10.711  10.181   0.993 -0.9352 -1.2460  1.4216
  643MOL0     H86744  10.740  10.399   0.857 -0.1723 -0.2447 -1.1233
  643MOL0     H86745  10.603  10.361   0.763  1.4103  2.2000 -0.9176
  643MOL0     H86746  10.816  10.149   0.763 -1.4406 -0.0917  0.3521
  643MOL0     H86747  10.706  10.177   0.647  2.9488 -2.2785 -1.1998
  643MOL0     H86748  10.916  10.393   0.708 -1.5817  2.3982 -0.7715
  643MOL0     H86749  10.944  10.276   0.580  0.7136  2.3915 -1.0078
  643MOL0     H86750  10.749  10.337   0.468  0.3233 -0.5902  0.6224
  643MOL0     H86751  10.690  10.453   0.574 -0.4826 -0.4432  0.3713
  643MOL0     H86752  10.906  10.581   0.559  2.1631 -3.4641  2.0857
  643MOL0     H86753  10.816  10.573   0.399 -1.0110  0.8342  1.6491
  643MOL0     H86754  11.074  10.429   0.461  0.1527 -1.4828 -0.7955
  643MOL0     H86755  10.987  10.410   0.311 -1.1205 -0.7903 -0.1890
  643MOL0     H86756  11.057  10.741   0.505  1.2597  0.9854  0.3328
  643MOL0     H86757  11.184  10.951   0.439  0.8410 -0.9714  1.4950
  643MOL0     H86758  11.342  10.888   0.457  1.9191  1.0705 -1.2212
  643MOL0     H86759  11.410  11.037   0.307  0.7769 -1.1250 -0.0286
  643MOL0     H86760  11.375  10.895   0.213 -1.9927 -2.1484  1.0801
  643MOL0     H86761  11.189  11.134   0.264  1.7371  1.2111  0.2804
  643MOL0     H86762  11.126  11.002   0.172 -1.1558  2.1672  0.6915
  643MOL0     H86763  11.191  11.146   0.007 -0.9781  0.1021  0.8260
  643MOL0     H86764  11.321  11.022   0.021  1.0254 -0.3379  0.1978
  643MOL0     H86765  11.551  11.398   0.172  1.3116  2.4834 -0.0926
  643MOL0     H86766  11.728  11.490   0.008 -0.8117  1.0471 -0.0197
  643MOL0     H86767  11.752  11.419  -0.606 -1.2528  0.2712  2.2944
  643MOL0     H86768  11.917  11.518  -0.744  0.1163 -4.1940 -2.4370
  643MOL0     H86769  12.203  11.766  -0.654  2.4048  1.9697 -0.2211
  643MOL0     H86770  12.252  11.670  -0.512  1.0198  0.6676 -0.2606
  643MOL0     H86771  12.407  11.666  -0.767  0.1404 -4.2213  1.8749
  643MOL0     H86772  12.420  11.785  -0.634  0.8225  0.0131  3.3598
  643MOL0     H86773  12.593  11.619  -0.596  0.6880 -0.8428  2.7779
  643MOL0     H86774  12.463  11.598  -0.474  4.8631 -0.2420  1.0000
  643MOL0     H86775  12.511  11.450  -0.736  1.6899  1.4246 -0.4805
  643MOL0     H86776  12.381  11.402  -0.624 -1.2031  1.8573 -0.0909
  643MOL0     H86777  12.681  11.385  -0.586 -1.0319  1.6677  0.4941
  643MOL0     H86778  12.569  11.258  -0.631 -0.4589 -1.0121  1.6110
  643MOL0     H86779  12.564  11.390  -0.369  0.3942 -1.6389  0.4819
  643MOL0     H86780  12.440  11.282  -0.430 -0.8287  1.3265  0.1977
  643MOL0     H86781  12.720  11.175  -0.416  1.5895 -1.1560  1.7637
  643MOL0     H86782  12.568  11.089  -0.370 -0.5442 -0.7992  0.3212
  643MOL0     H86783  12.724  11.136  -0.190  1.0855  0.8834 -0.5460
  643MOL0     H86784  12.687  11.308  -0.186 -2.4429  0.3626  3.5938
  643MOL0     H86785  12.225  11.464  -0.440 -0.5853  0.5543  2.1906
  643MOL0     H86786  12.050  11.344  -0.299  1.3071 -2.2033 -0.2861
  643MOL0     H86787  11.566  11.230  -0.296  0.7284  1.9178 -0.1950
  643MOL0     H86788  11.402  11.158  -0.154 -0.4267 -1.5924  2.4076
  643MOL0     H86789  10.866  10.272   1.112  2.1584  1.5388  0.0617
  643MOL0     H86790  10.971  10.149   1.295  0.0628  0.2358 -0.9488
  643MOL0     H86791  11.062  10.155   1.710  0.2269  0.6835 -0.1268
  643MOL0     H86792  11.243  10.059   1.857 -0.7851  0.1035  2.0302
  643MOL0     H86793  11.371   9.813   2.096  2.4658 -3.2677 -1.8720
  643MOL0     H86794  11.338   9.964   2.009  1.1278 -0.6517  3.8172
  643MOL0     H86795  11.424   9.848   1.796  0.6353 -2.2492 -0.6453
  643MOL0     H86796  11.464   9.713   1.894 -4.4641 -0.8867 -1.8767
  643MOL0     H86797  11.575   9.978   1.858  0.7744  0.5452  0.5265
  643MOL0     H86798  11.651   9.826   1.859  1.3902  0.1506  2.2360
  643MOL0     H86799  11.618   9.848   2.126 -0.0638  0.6238  0.4622
  643MOL0     H86800  11.745   9.929   2.036  0.1642 -2.4570 -2.8317
  643MOL0     H86801  11.503  10.256   2.164 -2.0914 -1.4743 -0.5849
  643MOL0     H86802  11.027   9.686   1.848  1.7167 -0.2223 -0.5691
  643MOL0     H86803  10.734   9.784   1.757  0.7233  0.8099  1.8812
  643MOL0     H86804  10.814   9.789   1.592  0.9875 -3.4706  0.2777
  643MOL0     H86805  10.854   9.661   1.711  0.1265 -0.0718  0.8952
  644MOL0     O86806   7.449   8.889   6.876 -0.3433  0.2544 -0.5461
  644MOL0     C86807   7.376   8.900   6.977  0.7201 -0.5113 -0.3197
  644MOL0     O86808   7.411   8.939   7.102 -1.1393 -0.1721 -0.1570
  644MOL0     C86809   7.537   8.965   7.146 -1.0799 -0.0360  0.3442
  644MOL0     C86810   7.567   9.085   7.199  0.4466  0.5731  0.1295
  644MOL0     C86811   7.703   9.123   7.234  0.9627 -0.3276 -0.3705
  644MOL0     C86812   7.811   9.043   7.209  0.1598 -0.4037 -0.0398
  644MOL0     O86813   7.934   9.090   7.226  0.5669 -0.9616 -0.0443
  644MOL0     C86814   8.033   8.999   7.281 -0.4227  0.4014  0.1041
  644MOL0     C86815   8.177   9.030   7.252  0.4413  0.2212  0.0852
  644MOL0     C86816   8.240   9.148   7.330 -0.0387 -0.2594  0.5608
  644MOL0     C86817   8.297   9.110   7.470 -0.2010  0.7506  0.5716
  644MOL0     C86818   8.408   9.203   7.524 -0.2020  0.9774 -0.3531
  644MOL0     C86819   8.430   9.166   7.668 -0.0160 -0.7298 -0.8590
  644MOL0     C86820   8.523   9.038   7.696  0.3750  0.3488 -0.3617
  644MOL0     C86821   8.604   9.044   7.829 -0.1269 -0.4040  0.6283
  644MOL0     N86822   8.739   9.092   7.789  0.3837  0.4958 -0.4997
  644MOL0     C86823   8.760   9.230   7.776 -0.4434  0.2170  0.3626
  644MOL0     C86824   8.894   9.239   7.744 -0.8143  0.6415  0.1332
  644MOL0     C86825   8.979   9.356   7.698 -0.1954 -0.2634 -0.2470
  644MOL0     C86826   9.119   9.353   7.772  0.5097  0.2506 -0.0935
  644MOL0     C86827   9.111   9.394   7.918 -0.7366 -0.5848  0.6444
  644MOL0     C86828   9.254   9.398   7.976  0.3249 -0.4777  0.0863
  644MOL0     O86829   9.336   9.492   7.909 -0.6149  0.3628 -0.5320
  644MOL0     C86830   9.472   9.476   7.925  0.0159 -0.8740 -0.1553
  644MOL0     C86831   9.545   9.355   7.906  0.0355  0.3828 -0.1188
  644MOL0     C86832   9.686   9.357   7.926 -0.0636  0.0769  0.5770
  644MOL0     C86833   9.748   9.480   7.954 -0.0646 -0.3462 -0.7279
  644MOL0     C86834   9.897   9.484   7.993 -0.4100  0.3684 -0.8293
  644MOL0     O86835   9.970   9.598   7.975  0.4146 -0.1010 -0.3199
  644MOL0     C86836  10.108   9.606   7.990  0.7322  0.4448  0.0852
  644MOL0     C86837  10.196   9.497   7.984  0.3038  0.5606  0.4264
  644MOL0     C86838  10.329   9.519   7.986 -0.3799 -0.2029 -0.1442
  644MOL0     C86839  10.381   9.653   7.986 -0.1435 -0.5000  0.1208
  644MOL0     O86840  10.518   9.676   7.976  0.1473  0.2302  0.1798
  644MOL0     C86841  10.582   9.779   8.045  0.8988  0.4304 -1.0665
  644MOL0     C86842  10.741   9.769   8.052  0.6833 -0.1470 -0.5522
  644MOL0     C86843  10.783   9.642   8.128  1.2802  0.1987  0.0621
  644MOL0     C86844  10.907   9.663   8.229  0.0023  0.1791 -0.0330
  644MOL0     C86845  11.031   9.701   8.149 -0.0106  0.5049 -0.4849
  644MOL0     C86846  11.163   9.681   8.240 -0.1393 -0.4450  0.6831
  644MOL0     C86847  11.282   9.753   8.168 -0.6119 -0.7467 -0.5476
  644MOL0     C86848  11.403   9.751   8.251 -0.7377 -0.9413  0.9068
  644MOL0    Cl86849  11.536   9.735   8.133  0.0710 -0.1639 -0.1928
  644MOL0     C86850  10.300   9.762   7.996  0.7458  0.8911  0.4502
  644MOL0     C86851  10.163   9.736   8.003 -0.0834  0.7117 -0.8697
  644MOL0     O86852   9.936   9.382   8.054 -0.1199 -0.4658 -0.0795
  644MOL0     C86853   9.679   9.601   7.952 -0.9842 -0.5135  0.0945
  644MOL0     C86854   9.543   9.592   7.943  0.2432 -0.5270  0.2749
  644MOL0     N86855   8.936   9.105   7.742 -0.9244 -0.0073  1.0216
  644MOL0     N86856   8.853   9.013   7.772  0.4328 -0.7657  0.4000
  644MOL0     C86857   7.773   8.921   7.147  0.6220 -0.2288  0.1349
  644MOL0     C86858   7.643   8.877   7.127 -0.1293 -0.0386 -0.2294
  644MOL0     C86859   7.228   8.878   6.955 -0.0288  0.3907  0.3038
  644MOL0     C86860   7.183   8.780   6.861 -0.1529  0.7195 -0.0776
  644MOL0     C86861   7.046   8.781   6.827 -0.6811 -0.0263  0.7183
  644MOL0     C86862   6.948   8.849   6.906  0.0342 -0.0796  0.3272
  644MOL0     O86863   6.813   8.835   6.886  0.6128 -0.1207 -1.3340
  644MOL0     C86864   6.750   8.732   6.810 -0.2164  0.4897  0.2598
  644MOL0     C86865   6.594   8.746   6.827  1.0835 -0.1688 -0.1610
  644MOL0     C86866   6.526   8.626   6.753 -0.1496  0.0486 -0.0305
  644MOL0     C86867   6.367   8.633   6.759 -0.1923 -0.3618 -0.2752
  644MOL0     C86868   6.320   8.638   6.899  0.2461  0.3648  0.7802
  644MOL0     C86869   6.273   8.646   7.008 -1.0069 -0.5590 -1.0581
  644MOL0     C86870   6.997   8.913   7.014  0.1548 -0.2203  0.4947
  644MOL0     C86871   7.128   8.934   7.041  0.5765  0.7425  0.1895
  644MOL0     C86872   7.159   9.014   7.171 -0.4564 -0.2017  1.6136
  644MOL0     H86873   7.483   9.151   7.216 -3.3281 -3.5093 -0.9534
  644MOL0     H86874   7.719   9.217   7.286  0.8032 -1.7549  2.4820
  644MOL0     H86875   8.022   8.990   7.390 -2.3809  0.1828 -0.0704
  644MOL0     H86876   8.014   8.900   7.237  0.8081  1.0970 -2.1372
  644MOL0     H86877   8.180   9.053   7.145 -0.9859  2.9828  0.5409
  644MOL0     H86878   8.236   8.942   7.279 -2.1768 -0.6113  3.8107
  644MOL0     H86879   8.171   9.233   7.333  1.2283  0.9124 -1.2373
  644MOL0     H86880   8.330   9.161   7.269 -1.9728 -2.3938 -3.0621
  644MOL0     H86881   8.214   9.122   7.541 -2.2575 -0.0481 -1.5469
  644MOL0     H86882   8.320   9.003   7.464 -0.4126  0.7539 -0.4958
  644MOL0     H86883   8.502   9.190   7.469 -1.0213  2.7898 -2.3148
  644MOL0     H86884   8.389   9.311   7.527  0.3098  1.1377 -1.9401
  644MOL0     H86885   8.483   9.248   7.716  0.0964 -1.1696 -0.2060
  644MOL0     H86886   8.338   9.162   7.727 -0.8033  1.3855 -1.8426
  644MOL0     H86887   8.599   9.034   7.617 -0.0133  0.0237 -0.7219
  644MOL0     H86888   8.463   8.947   7.689  3.5273 -2.0251  0.8120
  644MOL0     H86889   8.550   9.116   7.890 -1.3853 -1.4807  0.8310
  644MOL0     H86890   8.612   8.944   7.873  0.7409 -0.1181  1.1478
  644MOL0     H86891   8.692   9.315   7.780  0.2045  0.8858 -1.6616
  644MOL0     H86892   8.993   9.349   7.590  2.8957 -0.1093  0.0619
  644MOL0     H86893   8.934   9.452   7.725  1.9237  0.2462  1.8956
  644MOL0     H86894   9.162   9.254   7.759 -1.8542 -1.0517  1.2704
  644MOL0     H86895   9.192   9.418   7.722  1.6053 -0.8617  0.0154
  644MOL0     H86896   9.051   9.321   7.974 -0.2512  0.4658  2.6254
  644MOL0     H86897   9.055   9.486   7.941 -0.4545 -0.7200  1.9604
  644MOL0     H86898   9.292   9.297   7.955  1.8379  0.0921 -0.0166
  644MOL0     H86899   9.228   9.425   8.078 -1.7416  0.6413 -0.6720
  644MOL0     H86900   9.505   9.259   7.875 -0.1967  1.0944 -2.1269
  644MOL0     H86901   9.742   9.264   7.930 -1.2795 -0.8267 -1.8998
  644MOL0     H86902  10.158   9.395   7.980 -3.1734  1.6340  1.8048
  644MOL0     H86903  10.409   9.445   7.983 -0.7716 -0.7338  1.6400
  644MOL0     H86904  10.554   9.875   8.001  1.4521  1.0190 -0.1567
  644MOL0     H86905  10.550   9.787   8.149  3.2800  4.0166 -0.4280
  644MOL0     H86906  10.774   9.784   7.949 -0.1980  2.3745 -0.5423
  644MOL0     H86907  10.777   9.851   8.115  0.6162  0.9395 -1.8859
  644MOL0     H86908  10.699   9.610   8.191 -0.1383 -1.6043 -2.5835
  644MOL0     H86909  10.804   9.563   8.056 -1.6176 -0.6944  0.0710
  644MOL0     H86910  10.922   9.574   8.291 -2.3209 -0.4612 -0.3092
  644MOL0     H86911  10.889   9.742   8.302 -0.8279  1.8004 -1.9053
  644MOL0     H86912  11.009   9.806   8.129  1.0407  0.8630  0.1693
  644MOL0     H86913  11.039   9.639   8.059 -0.3919 -3.9396  2.2594
  644MOL0     H86914  11.145   9.718   8.342  1.6344  0.2346  0.7863
  644MOL0     H86915  11.188   9.576   8.252 -0.9058 -0.6325  0.7201
  644MOL0     H86916  11.264   9.860   8.149  1.9664  0.2501  1.9116
  644MOL0     H86917  11.308   9.707   8.072  3.5136  0.4084 -0.1976
  644MOL0     H86918  11.421   9.837   8.317 -1.0490 -1.7904  2.1280
  644MOL0     H86919  11.415   9.656   8.304 -1.3743 -2.3331 -1.3198
  644MOL0     H86920  10.337   9.863   7.982  5.2375 -0.8391 -2.4318
  644MOL0     H86921  10.102   9.825   8.008  1.1422  1.5186  3.0854
  644MOL0     H86922   9.719   9.701   7.963 -1.5103 -0.4403  1.4495
  644MOL0     H86923   9.492   9.688   7.947  1.5942  0.1931  0.6289
  644MOL0     H86924   7.845   8.843   7.127 -0.0412 -0.8452  0.1258
  644MOL0     H86925   7.638   8.785   7.070 -1.3334 -0.7376  0.9404
  644MOL0     H86926   7.258   8.728   6.803  0.3533  2.4933 -1.0734
  644MOL0     H86927   7.016   8.723   6.740 -2.8457  0.7833  0.8527
  644MOL0     H86928   6.784   8.638   6.854  2.9839  1.8203  0.8602
  644MOL0     H86929   6.771   8.736   6.703 -3.9063  1.8836 -0.5769
  644MOL0     H86930   6.555   8.842   6.794 -0.5180  0.0783  2.2077
  644MOL0     H86931   6.576   8.737   6.935 -0.4616 -1.9113 -0.5165
  644MOL0     H86932   6.568   8.532   6.791 -0.7407 -0.8128 -1.4058
  644MOL0     H86933   6.543   8.639   6.646  2.5978 -0.4109  0.2760
  644MOL0     H86934   6.328   8.724   6.713  1.5494  0.7636  0.3709
  644MOL0     H86935   6.333   8.546   6.702 -2.3290 -0.1182  0.5272
  644MOL0     H86936   6.234   8.631   7.107  4.3047  1.7896  1.8197
  644MOL0     H86937   6.917   8.948   7.077  0.1676  1.7974 -0.5247
  644MOL0     H86938   7.236   9.085   7.141 -0.0378 -1.9494 -1.9399
  644MOL0     H86939   7.069   9.060   7.213 -0.7303 -0.3117  1.1442
  644MOL0     H86940   7.209   8.946   7.241  1.6451  0.9005  1.2734
  645MOL0     O86941   0.334   9.071   6.771  0.2312 -0.3154  0.0991
  645MOL0     C86942   0.250   9.129   6.844  0.0577 -0.6188  0.1918
  645MOL0     O86943   0.270   9.172   6.972 -0.1725 -0.0361  0.6940
  645MOL0     C86944   0.404   9.168   7.020 -0.3780  0.2459 -0.0907
  645MOL0     C86945   0.502   9.241   6.950  0.2419 -0.2026 -0.2757
  645MOL0     C86946   0.633   9.237   6.994 -0.0423 -0.6184 -0.9975
  645MOL0     C86947   0.664   9.176   7.112  0.2056  0.4226  0.9609
  645MOL0     O86948   0.795   9.166   7.156  0.1069 -0.3022 -0.0361
  645MOL0     C86949   0.900   9.099   7.079  0.3040 -0.4713  0.0737
  645MOL0     C86950   1.030   9.122   7.155  0.9998  0.6565 -0.1498
  645MOL0     C86951   1.135   9.163   7.055  0.0839 -0.1744 -0.5772
  645MOL0     C86952   1.279   9.158   7.105 -0.0548  0.8370 -1.2084
  645MOL0     C86953   1.372   9.240   7.007 -0.2743  0.2350 -0.3923
  645MOL0     C86954   1.509   9.267   7.069  0.5712 -0.4693 -0.4971
  645MOL0     C86955   1.588   9.352   6.965  0.5856  0.7910  0.4509
  645MOL0     C86956   1.651   9.247   6.867 -0.3810 -0.4583 -0.4419
  645MOL0     N86957   1.743   9.293   6.774 -0.3027 -0.0137 -0.2870
  645MOL0     C86958   1.710   9.323   6.643 -0.7115 -0.2790 -0.3740
  645MOL0     C86959   1.837   9.352   6.590  0.3324  0.4563 -0.4928
  645MOL0     C86960   1.860   9.414   6.452  0.2064  0.8795  0.1524
  645MOL0     C86961   2.009   9.419   6.410  0.0667 -0.0792  0.0545
  645MOL0     C86962   2.038   9.485   6.278  1.2145 -0.0018  0.3314
  645MOL0     C86963   2.191   9.521   6.247 -0.2844 -0.4929  0.6910
  645MOL0     O86964   2.268   9.399   6.232 -0.5442  0.5139  0.2819
  645MOL0     C86965   2.407   9.412   6.237  0.4776  0.5153 -0.9012
  645MOL0     C86966   2.481   9.527   6.206 -1.1092  0.1622 -0.3593
  645MOL0     C86967   2.620   9.542   6.218  0.9425 -0.6848  0.6002
  645MOL0     C86968   2.694   9.433   6.251 -0.0318 -0.8630 -0.8826
  645MOL0     C86969   2.836   9.455   6.242 -0.1040  0.6510 -0.0472
  645MOL0     O86970   2.881   9.581   6.217  0.4092  0.1282  0.3890
  645MOL0     C86971   3.014   9.606   6.172  0.6786  0.0170  1.4991
  645MOL0     C86972   3.049   9.740   6.170  0.2071  0.1263  0.3152
  645MOL0     C86973   3.183   9.783   6.153  0.6534  0.8493  0.5484
  645MOL0     C86974   3.283   9.684   6.126  0.6646  0.7503 -0.0598
  645MOL0     O86975   3.407   9.737   6.123  0.5596  0.0708  0.7128
  645MOL0     C86976   3.518   9.644   6.111  1.3019  0.1277  0.2136
  645MOL0     C86977   3.544   9.577   5.969  0.4822 -0.2199 -1.1814
  645MOL0     C86978   3.593   9.679   5.870  0.2239  0.5673  0.5719
  645MOL0     C86979   3.672   9.605   5.756  0.9451 -0.2157  0.6048
  645MOL0     C86980   3.739   9.713   5.669  0.4350 -0.3144  0.0072
  645MOL0     C86981   3.765   9.667   5.525  0.0804  0.3606 -0.3732
  645MOL0     C86982   3.644   9.670   5.435  0.0670  0.2526  0.3331
  645MOL0     C86983   3.617   9.821   5.380  0.2569 -0.1166  0.4618
  645MOL0    Cl86984   3.476   9.848   5.282 -0.1293 -0.0448 -0.0877
  645MOL0     C86985   3.247   9.545   6.127  0.2747  0.0136  0.0876
  645MOL0     C86986   3.119   9.510   6.143  0.7848 -0.5923 -0.3917
  645MOL0     O86987   2.902   9.356   6.242  0.0137 -0.0983 -0.1671
  645MOL0     C86988   2.633   9.314   6.285 -0.4744  0.6135 -0.0228
  645MOL0     C86989   2.488   9.306   6.273 -0.0555  0.1260 -0.3423
  645MOL0     N86990   1.930   9.362   6.687  0.7286  0.5765 -0.8786
  645MOL0     N86991   1.877   9.320   6.794  0.0087  0.1817 -0.4238
  645MOL0     C86992   0.565   9.099   7.169  0.1016 -0.2846  0.0313
  645MOL0     C86993   0.433   9.088   7.125 -0.5427  0.1199  0.0225
  645MOL0     C86994   0.107   9.129   6.798  0.0844  0.4826  0.6646
  645MOL0     C86995   0.000   9.118   6.891 -0.0384 -0.0427 -1.1132
  645MOL0     C86996  -0.133   9.108   6.846  0.4845  0.1160  1.0345
  645MOL0     C86997  -0.163   9.121   6.708 -0.2112 -0.2252  0.5309
  645MOL0     O86998  -0.294   9.119   6.652  0.0720 -0.0463 -0.2928
  645MOL0     C86999  -0.394   9.079   6.741  0.1670 -0.3802 -0.1424
  645MOL0     C87000  -0.535   9.075   6.689 -0.0583  0.3588 -0.0175
  645MOL0     C87001  -0.593   9.201   6.614  0.0594  0.6337  0.1511
  645MOL0     C87002  -0.722   9.159   6.535  0.6131 -0.2788 -0.6177
  645MOL0     C87003  -0.687   9.116   6.402 -0.1568  0.3231 -0.2388
  645MOL0     C87004  -0.689   9.080   6.284  0.3120  0.7458 -0.2900
  645MOL0     C87005  -0.058   9.121   6.617 -0.9941  0.0160 -0.4616
  645MOL0     C87006   0.076   9.131   6.659 -0.8387 -0.7018 -0.3038
  645MOL0     C87007   0.183   9.143   6.549 -0.3149  0.8795  0.2125
  645MOL0     H87008   0.476   9.300   6.863  1.9713 -0.4759 -0.9984
  645MOL0     H87009   0.701   9.302   6.940 -1.3598  2.6724  0.9602
  645MOL0     H87010   0.868   8.995   7.063 -1.2427  0.1006 -0.7667
  645MOL0     H87011   0.907   9.154   6.985  0.5253 -0.4900  0.0789
  645MOL0     H87012   1.065   9.034   7.211 -0.0245  1.6944  2.2423
  645MOL0     H87013   1.024   9.208   7.222 -3.3935 -0.5504  1.3205
  645MOL0     H87014   1.105   9.259   7.012 -0.2299 -1.1636 -2.7228
  645MOL0     H87015   1.129   9.109   6.960 -0.9330  1.0972 -1.2735
  645MOL0     H87016   1.278   9.207   7.203 -3.5928 -0.0116 -0.6703
  645MOL0     H87017   1.314   9.057   7.127  0.4555  1.5774  1.9711
  645MOL0     H87018   1.381   9.182   6.915 -2.3683  2.0793 -1.8489
  645MOL0     H87019   1.318   9.332   6.981  0.5534  0.1675 -2.4761
  645MOL0     H87020   1.492   9.332   7.156 -0.9765 -0.4684 -0.7756
  645MOL0     H87021   1.559   9.179   7.109  2.9718  1.7157  1.6800
  645MOL0     H87022   1.676   9.395   7.014  0.3754 -0.0787  1.6217
  645MOL0     H87023   1.533   9.430   6.911 -0.1855 -0.0237  0.0239
  645MOL0     H87024   1.711   9.179   6.929  2.0568  1.3498 -0.6541
  645MOL0     H87025   1.571   9.193   6.816  1.6801 -2.5371 -1.6697
  645MOL0     H87026   1.611   9.309   6.600 -2.3395 -0.0508  2.9919
  645MOL0     H87027   1.806   9.351   6.380 -0.5909  0.0591  1.4293
  645MOL0     H87028   1.807   9.509   6.450 -1.9680 -0.2533 -1.7698
  645MOL0     H87029   2.057   9.478   6.489 -0.3226  0.0492  0.1944
  645MOL0     H87030   2.055   9.320   6.417 -0.2189 -0.2966 -1.0327
  645MOL0     H87031   1.978   9.576   6.269  0.9544 -0.3616 -2.3173
  645MOL0     H87032   1.995   9.425   6.198  0.8483  0.1556  0.4080
  645MOL0     H87033   2.229   9.576   6.334  0.3913  3.1191 -1.6833
  645MOL0     H87034   2.199   9.582   6.157  1.9357 -1.4375  0.1857
  645MOL0     H87035   2.427   9.616   6.173  0.0359  1.0670  0.1489
  645MOL0     H87036   2.655   9.633   6.170  0.3415  0.1257  1.6329
  645MOL0     H87037   2.972   9.815   6.182  0.9175  1.2631 -1.7987
  645MOL0     H87038   3.201   9.889   6.167 -0.3798  0.7359  3.4058
  645MOL0     H87039   3.611   9.690   6.148 -0.2155  1.7382  2.2700
  645MOL0     H87040   3.515   9.559   6.180  1.2715 -1.0455 -1.1915
  645MOL0     H87041   3.617   9.495   5.975 -1.6612 -2.1257  1.1678
  645MOL0     H87042   3.457   9.525   5.927  0.9816 -0.6820 -1.6626
  645MOL0     H87043   3.507   9.730   5.824  0.0728 -1.3132 -1.4228
  645MOL0     H87044   3.652   9.750   5.928 -0.2165 -0.4107  2.3031
  645MOL0     H87045   3.605   9.544   5.694  0.8624  0.9861 -0.5544
  645MOL0     H87046   3.748   9.538   5.797  0.4883 -1.5828 -0.6693
  645MOL0     H87047   3.825   9.752   5.724 -0.3609  1.8078 -0.1844
  645MOL0     H87048   3.677   9.803   5.663  4.4306  2.8250  1.1597
  645MOL0     H87049   3.840   9.731   5.477 -1.2895  2.0450 -0.3790
  645MOL0     H87050   3.800   9.563   5.527 -0.4504  0.1797 -0.1908
  645MOL0     H87051   3.564   9.641   5.504  0.9287 -0.1836  1.1742
  645MOL0     H87052   3.649   9.602   5.350 -5.7913 -0.6302  0.3237
  645MOL0     H87053   3.608   9.891   5.464  0.5247  0.3771  0.0784
  645MOL0     H87054   3.706   9.841   5.320  0.9522  1.9370  2.0478
  645MOL0     H87055   3.314   9.460   6.117  0.8094  0.3721  0.5785
  645MOL0     H87056   3.089   9.407   6.159 -1.1428 -0.0459 -0.2503
  645MOL0     H87057   2.685   9.229   6.326 -1.9738  0.0335  0.7664
  645MOL0     H87058   2.436   9.221   6.317 -2.3716  2.0950  0.9421
  645MOL0     H87059   0.589   9.053   7.264 -3.0192  0.7961  1.4801
  645MOL0     H87060   0.349   9.039   7.174  2.3544 -0.9987  4.4095
  645MOL0     H87061   0.030   9.105   6.995  1.1117 -0.5954 -1.5000
  645MOL0     H87062  -0.213   9.105   6.919  0.1241 -2.0867  0.6200
  645MOL0     H87063  -0.399   9.141   6.831 -0.6203 -1.4699  0.5988
  645MOL0     H87064  -0.368   8.976   6.767 -0.7061 -1.1463 -2.0843
  645MOL0     H87065  -0.605   9.045   6.768 -0.6278  2.7525  0.4574
  645MOL0     H87066  -0.529   8.999   6.611  2.3278  1.0456 -0.5785
  645MOL0     H87067  -0.514   9.247   6.554  1.6375 -2.8423 -0.6923
  645MOL0     H87068  -0.615   9.278   6.688  1.5127  1.8274 -0.6068
  645MOL0     H87069  -0.764   9.075   6.591  0.4111  0.0981 -0.2085
  645MOL0     H87070  -0.798   9.237   6.540  2.1696  1.2326  0.3914
  645MOL0     H87071  -0.687   9.051   6.181  0.0866  2.4865 -0.8261
  645MOL0     H87072  -0.080   9.113   6.511  1.1498  1.1265 -1.0582
  645MOL0     H87073   0.256   9.221   6.573 -0.1629  1.7503 -2.7806
  645MOL0     H87074   0.225   9.044   6.529  0.5384  1.0087  1.2304
  645MOL0     H87075   0.123   9.172   6.463 -2.7444  1.0731  1.8668
  646MOL0     O87076   8.228  10.881   0.387  0.8476 -0.2150  0.6711
  646MOL0     C87077   8.204  10.935   0.492  0.3061 -1.4059 -0.1102
  646MOL0     O87078   8.291  10.948   0.591 -0.1176  0.6031 -0.3671
  646MOL0     C87079   8.423  10.951   0.567 -0.0682 -0.1922  0.6105
  646MOL0     C87080   8.489  10.851   0.486  0.9580  0.9437  0.6702
  646MOL0     C87081   8.628  10.855   0.468 -0.0268  0.4265  0.4075
  646MOL0     C87082   8.700  10.955   0.531  0.1963  0.1135  0.0150
  646MOL0     O87083   8.832  10.956   0.496  0.1623 -0.2065  0.5919
  646MOL0     C87084   8.929  11.025   0.576 -0.0236 -0.7797  0.1968
  646MOL0     C87085   9.061  11.014   0.502  0.1020 -0.6500 -0.0521
  646MOL0     C87086   9.172  11.045   0.616  0.2394 -0.0957  0.6875
  646MOL0     C87087   9.289  11.107   0.537 -1.1355 -0.4763  0.3298
  646MOL0     C87088   9.378  11.171   0.641 -0.5870 -0.3584 -0.9058
  646MOL0     C87089   9.513  11.214   0.570 -0.2525 -0.3392 -0.8053
  646MOL0     C87090   9.596  11.300   0.661 -0.1749 -0.6265 -0.3336
  646MOL0     C87091   9.737  11.300   0.600 -0.2986 -0.2941 -0.1922
  646MOL0     N87092   9.813  11.403   0.677 -0.4415  0.0538 -0.1313
  646MOL0     C87093   9.803  11.538   0.651  0.4840  0.1079 -0.0274
  646MOL0     C87094   9.887  11.588   0.742 -1.2160 -0.4256  0.1802
  646MOL0     C87095   9.937  11.732   0.758 -0.3924 -0.7808 -0.0271
  646MOL0     C87096  10.098  11.752   0.774 -0.2007 -0.1904  0.0832
  646MOL0     C87097  10.163  11.774   0.632 -0.3085 -1.1622  0.0667
  646MOL0     C87098  10.152  11.919   0.569 -0.1207 -0.7323 -0.5600
  646MOL0     O87099  10.179  12.028   0.661 -0.5546  0.1811 -0.0488
  646MOL0     C87100  10.309  12.057   0.703 -1.2073  0.1906 -0.3496
  646MOL0     C87101  10.314  12.155   0.805  0.1985  0.4743 -0.1628
  646MOL0     C87102  10.435  12.205   0.843  0.4928 -0.5170  0.2583
  646MOL0     C87103  10.554  12.160   0.780  0.0032  0.1916 -0.3050
  646MOL0     C87104  10.682  12.234   0.806  0.2789  0.3149 -0.1125
  646MOL0     O87105  10.678  12.352   0.877 -0.2080  0.6229 -0.0124
  646MOL0     C87106  10.792  12.426   0.916 -0.2506 -0.1195 -0.3206
  646MOL0     C87107  10.766  12.529   1.005 -1.1372  0.1323  0.3649
  646MOL0     C87108  10.863  12.603   1.071  0.1790  0.7331 -0.7882
  646MOL0     C87109  10.994  12.584   1.043 -0.4225 -0.0646 -0.2504
  646MOL0     O87110  11.084  12.633   1.145 -0.5354  0.2529  0.5845
  646MOL0     C87111  11.225  12.653   1.104  0.1660 -0.0570  0.3841
  646MOL0     C87112  11.292  12.722   1.219  0.6388 -0.0085 -0.1441
  646MOL0     C87113  11.438  12.741   1.189  0.4391 -0.3592  0.0770
  646MOL0     C87114  11.495  12.844   1.279 -0.0150 -0.7726 -1.3510
  646MOL0     C87115  11.643  12.875   1.264 -0.1614  0.8483  0.4823
  646MOL0     C87116  11.693  12.938   1.392 -0.0941 -0.1444 -0.0504
  646MOL0     C87117  11.841  12.968   1.364 -0.4379  0.2528  0.3867
  646MOL0     C87118  11.912  12.959   1.493 -0.3601  0.3004  0.1006
  646MOL0    Cl87119  12.092  12.942   1.488  0.0881  0.3025 -0.0481
  646MOL0     C87120  11.031  12.482   0.954 -0.8093  0.0670 -0.2309
  646MOL0     C87121  10.931  12.398   0.896 -0.3118  0.0819 -0.4145
  646MOL0     O87122  10.784  12.173   0.772 -0.4333 -0.0738  0.2685
  646MOL0     C87123  10.550  12.059   0.680  0.4716  1.3314  0.4581
  646MOL0     C87124  10.426  12.018   0.635  0.0204 -0.3793 -0.7540
  646MOL0     N87125   9.960  11.483   0.805 -0.4280 -0.2963  0.1059
  646MOL0     N87126   9.912  11.373   0.771 -0.8539 -0.5505  1.0622
  646MOL0     C87127   8.641  11.046   0.619  1.2872 -0.3386  0.3777
  646MOL0     C87128   8.505  11.045   0.637  0.1223 -0.0433  0.0887
  646MOL0     C87129   8.068  10.999   0.515 -1.2351 -0.2233  0.3102
  646MOL0     C87130   8.020  11.009   0.654  0.0990  0.1770  0.3624
  646MOL0     C87131   7.888  11.069   0.683 -0.0455 -0.9237  0.8289
  646MOL0     C87132   7.798  11.106   0.575  0.4492 -0.0365 -0.1897
  646MOL0     O87133   7.674  11.160   0.602  0.0661 -0.3289  0.2861
  646MOL0     C87134   7.612  11.111   0.721 -0.5788 -0.6482  0.0450
  646MOL0     C87135   7.466  11.152   0.730 -0.4647  0.0853  0.8492
  646MOL0     C87136   7.412  11.086   0.860 -0.2381 -0.1898 -0.4467
  646MOL0     C87137   7.279  11.157   0.898 -0.9944  0.6453 -0.0382
  646MOL0     C87138   7.172  11.118   0.799 -0.1681  0.7396 -0.8256
  646MOL0     C87139   7.081  11.081   0.721 -0.3200  0.1775 -0.4612
  646MOL0     C87140   7.849  11.095   0.445  0.0498 -0.3328  0.3703
  646MOL0     C87141   7.984  11.050   0.413  0.5589 -0.4962 -0.4914
  646MOL0     C87142   8.025  11.068   0.270  0.3438 -0.3848  0.0815
  646MOL0     H87143   8.427  10.767   0.456 -1.3658  3.3357 -1.8601
  646MOL0     H87144   8.676  10.773   0.415  0.3522  0.5949  0.4837
  646MOL0     H87145   8.906  11.131   0.588  2.8589  0.0830 -0.8948
  646MOL0     H87146   8.927  10.982   0.676  0.1854 -1.5249 -0.1116
  646MOL0     H87147   9.059  11.084   0.418  0.1640  0.3203  0.7377
  646MOL0     H87148   9.074  10.913   0.461 -1.1194 -0.3317 -1.3177
  646MOL0     H87149   9.212  10.953   0.661  0.3070 -0.8317 -0.8141
  646MOL0     H87150   9.132  11.113   0.691  0.2717  1.4274 -0.6304
  646MOL0     H87151   9.354  11.044   0.476  1.3387  0.2533  2.0306
  646MOL0     H87152   9.259  11.190   0.472  1.4312  2.7734  2.9126
  646MOL0     H87153   9.330  11.260   0.683  3.7375  2.0348 -0.4442
  646MOL0     H87154   9.387  11.104   0.728 -1.4378  1.5984  0.7623
  646MOL0     H87155   9.569  11.128   0.534  0.5904 -0.8430  1.5006
  646MOL0     H87156   9.484  11.270   0.481 -2.9272 -2.6907 -1.5600
  646MOL0     H87157   9.603  11.259   0.762  0.5698  1.3885  0.4897
  646MOL0     H87158   9.554  11.400   0.670 -0.0504 -0.3540 -2.3393
  646MOL0     H87159   9.777  11.201   0.621 -0.1710 -0.4709 -1.1953
  646MOL0     H87160   9.736  11.320   0.492 -1.6870 -0.2778 -0.1945
  646MOL0     H87161   9.735  11.586   0.582  0.5817  0.5369  0.1665
  646MOL0     H87162   9.895  11.790   0.675 -1.2844 -0.6437  0.5074
  646MOL0     H87163   9.885  11.756   0.851 -2.7025  0.8293 -1.6225
  646MOL0     H87164  10.111  11.846   0.829  1.0850 -0.7782  0.8497
  646MOL0     H87165  10.141  11.667   0.829  1.5935  0.3168 -0.4555
  646MOL0     H87166  10.124  11.701   0.560 -0.7137 -1.0959  0.2154
  646MOL0     H87167  10.267  11.747   0.652  0.4817  1.2097 -0.5622
  646MOL0     H87168  10.053  11.924   0.524  0.2474 -0.0883 -1.3132
  646MOL0     H87169  10.219  11.936   0.484 -0.4833  3.5100 -0.2084
  646MOL0     H87170  10.222  12.193   0.847  1.4225  0.5412  2.6954
  646MOL0     H87171  10.430  12.281   0.922  2.0195  0.5597 -0.6324
  646MOL0     H87172  10.660  12.552   1.015 -1.0594 -0.1626  2.2817
  646MOL0     H87173  10.843  12.676   1.149  1.9086  0.1504  0.2493
  646MOL0     H87174  11.283  12.561   1.090  0.8040  0.4650 -0.4804
  646MOL0     H87175  11.227  12.702   1.006  1.5467  0.8256  0.8210
  646MOL0     H87176  11.258  12.826   1.223  2.0021  0.7174 -3.6757
  646MOL0     H87177  11.274  12.680   1.318 -1.2371  2.0082  0.4576
  646MOL0     H87178  11.486  12.644   1.205 -2.5175 -1.7879  0.9916
  646MOL0     H87179  11.449  12.777   1.086  3.1255 -3.1192 -0.7372
  646MOL0     H87180  11.464  12.836   1.384  3.6023  2.6978  0.2661
  646MOL0     H87181  11.446  12.933   1.239 -0.1019 -0.8108 -1.3284
  646MOL0     H87182  11.661  12.942   1.178  3.5232 -1.8469 -1.1188
  646MOL0     H87183  11.692  12.783   1.231  0.4661  1.3041  0.0931
  646MOL0     H87184  11.636  13.030   1.409 -0.6536 -0.7330  1.3631
  646MOL0     H87185  11.679  12.859   1.466  0.5945  0.2634  0.5242
  646MOL0     H87186  11.848  13.070   1.326  0.2302  0.5775  1.3333
  646MOL0     H87187  11.874  12.892   1.293 -1.2063  0.0530  0.2344
  646MOL0     H87188  11.893  13.053   1.547 -0.8184 -0.8876  2.1007
  646MOL0     H87189  11.874  12.881   1.560 -0.1725 -2.9195 -3.2416
  646MOL0     H87190  11.139  12.470   0.951 -0.9958 -1.9394 -0.0884
  646MOL0     H87191  10.963  12.314   0.836 -2.4788 -2.7513  2.0541
  646MOL0     H87192  10.642  12.022   0.635  0.9884 -0.2459  2.6657
  646MOL0     H87193  10.419  11.960   0.543 -2.4470 -0.2650 -0.7063
  646MOL0     H87194   8.701  11.122   0.666  0.4220  2.2486 -2.4002
  646MOL0     H87195   8.456  11.125   0.692 -0.9654  1.2383 -2.5810
  646MOL0     H87196   8.083  10.975   0.735  2.3550  1.7000 -0.6405
  646MOL0     H87197   7.871  11.080   0.790  0.3483  2.4666  0.6472
  646MOL0     H87198   7.668  11.141   0.810 -1.8319  0.8666  0.3668
  646MOL0     H87199   7.606  11.002   0.714  0.1219 -0.8725  2.2670
  646MOL0     H87200   7.423  11.109   0.639 -0.1278 -0.9603  1.1757
  646MOL0     H87201   7.447  11.260   0.736  1.5523  0.4299  2.0715
  646MOL0     H87202   7.482  11.110   0.940  1.1139 -0.5896 -1.4690
  646MOL0     H87203   7.408  10.977   0.845 -1.4486 -0.5234  1.8175
  646MOL0     H87204   7.251  11.143   1.003  1.4051  0.3115  0.6209
  646MOL0     H87205   7.295  11.265   0.905  0.9477  0.3322  1.1790
  646MOL0     H87206   7.016  11.067   0.637 -0.6275 -0.5929 -0.1104
  646MOL0     H87207   7.784  11.131   0.366 -0.1576  1.2857  1.2441
  646MOL0     H87208   8.112  11.130   0.250 -0.5315  0.6463 -0.5977
  646MOL0     H87209   8.044  10.970   0.225 -0.8495 -0.8678  0.5890
  646MOL0     H87210   7.946  11.101   0.202  1.3340 -2.7202 -2.3970
  647MOL0     O87211   2.125   1.362   2.251 -0.5634 -0.2646 -0.1950
  647MOL0     C87212   2.128   1.239   2.233  0.1627  0.1871 -1.1161
  647MOL0     O87213   2.218   1.153   2.286 -0.5869  0.1302  0.5197
  647MOL0     C87214   2.279   1.181   2.407 -0.0903 -0.5470  0.2489
  647MOL0     C87215   2.216   1.215   2.526  1.0143 -0.4538  0.5557
  647MOL0     C87216   2.292   1.270   2.625  0.4357  0.4232 -0.1665
  647MOL0     C87217   2.431   1.278   2.620 -0.2140  0.6027  0.3111
  647MOL0     O87218   2.490   1.322   2.736 -0.6176  0.0253 -0.1681
  647MOL0     C87219   2.574   1.219   2.793 -0.0717  0.0934  0.1691
  647MOL0     C87220   2.715   1.263   2.782  0.7768 -0.4930 -0.0429
  647MOL0     C87221   2.765   1.358   2.894 -0.7829  0.0704 -0.0536
  647MOL0     C87222   2.919   1.326   2.924  1.6870 -0.0469 -1.4446
  647MOL0     C87223   2.973   1.437   3.013 -0.4922  0.3629 -0.8532
  647MOL0     C87224   3.114   1.397   3.071  0.4088 -0.6096  0.4885
  647MOL0     C87225   3.171   1.523   3.136  0.8802 -0.2364  0.4585
  647MOL0     C87226   3.279   1.492   3.240 -0.5170 -0.1169 -0.6206
  647MOL0     N87227   3.389   1.408   3.194  0.2711 -0.5841 -0.0940
  647MOL0     C87228   3.497   1.460   3.125 -0.2901  0.3572  0.1317
  647MOL0     C87229   3.588   1.353   3.116  0.4159  0.6804  0.9902
  647MOL0     C87230   3.734   1.342   3.064  0.3658  0.6268  0.7909
  647MOL0     C87231   3.838   1.395   3.159  0.0759 -0.1765 -0.7327
  647MOL0     C87232   3.868   1.545   3.154 -0.5196  0.2389 -0.0147
  647MOL0     C87233   3.955   1.598   3.269 -0.5347  0.1027  0.1396
  647MOL0     O87234   3.997   1.731   3.237  0.7034  0.1834 -0.4882
  647MOL0     C87235   4.101   1.782   3.311  0.9578  0.5729  0.6297
  647MOL0     C87236   4.174   1.879   3.244 -0.5276  0.9125 -0.1326
  647MOL0     C87237   4.277   1.951   3.315  0.0819 -0.0264  0.6441
  647MOL0     C87238   4.333   1.900   3.438  0.3268 -0.3147  0.3095
  647MOL0     C87239   4.459   1.951   3.491 -0.7346  1.0890 -0.0914
  647MOL0     O87240   4.497   2.076   3.445  0.1608  0.0631  0.2525
  647MOL0     C87241   4.615   2.141   3.463  0.2506 -0.2731  0.0268
  647MOL0     C87242   4.737   2.081   3.505  0.1140 -0.1561  0.7638
  647MOL0     C87243   4.856   2.152   3.485  0.9673  0.3322  0.0332
  647MOL0     C87244   4.866   2.283   3.444  0.9325 -0.2532  0.3921
  647MOL0     O87245   4.980   2.350   3.440 -0.4777  0.3120 -0.4101
  647MOL0     C87246   5.002   2.460   3.357  1.0340  0.1922 -0.5171
  647MOL0     C87247   5.142   2.490   3.334 -0.2884 -0.2836  0.4882
  647MOL0     C87248   5.241   2.372   3.308 -0.9357 -0.2704  0.1889
  647MOL0     C87249   5.261   2.333   3.162 -0.0887 -0.3319 -0.1990
  647MOL0     C87250   5.363   2.214   3.160 -0.2540  0.1132 -0.5534
  647MOL0     C87251   5.498   2.230   3.233 -0.1539 -0.7876  0.8337
  647MOL0     C87252   5.571   2.357   3.186  0.1962  0.4353  0.4113
  647MOL0     C87253   5.722   2.351   3.229  0.3044 -0.7112 -1.2294
  647MOL0    Cl87254   5.791   2.517   3.183  0.2423 -0.0560 -0.2343
  647MOL0     C87255   4.749   2.342   3.405 -0.1288 -0.3327 -0.1097
  647MOL0     C87256   4.626   2.273   3.416  0.3335  0.1161  0.0904
  647MOL0     O87257   4.522   1.872   3.565  0.1622 -0.5650 -0.4577
  647MOL0     C87258   4.263   1.789   3.495 -0.2169 -0.5407 -0.4595
  647MOL0     C87259   4.142   1.748   3.437  0.6013  0.6112 -0.0585
  647MOL0     N87260   3.523   1.247   3.171  0.1601  0.1914 -0.3851
  647MOL0     N87261   3.412   1.281   3.227  0.8763 -0.5339  0.4517
  647MOL0     C87262   2.494   1.231   2.502 -0.1478  0.2242 -0.5929
  647MOL0     C87263   2.417   1.177   2.396  0.1185  0.9899 -0.0123
  647MOL0     C87264   2.018   1.179   2.167  0.0885  0.5113  0.4918
  647MOL0     C87265   1.884   1.202   2.203 -0.1880 -0.4758 -0.1971
  647MOL0     C87266   1.779   1.142   2.135 -0.1532  0.0558  0.8406
  647MOL0     C87267   1.798   1.057   2.025  0.1836  0.0451  0.2430
  647MOL0     O87268   1.701   1.005   1.947 -0.1705 -0.2319 -0.1315
  647MOL0     C87269   1.577   0.994   2.013  0.3429 -0.4411  0.5382
  647MOL0     C87270   1.498   0.902   1.928 -0.4273 -0.4695 -0.6658
  647MOL0     C87271   1.446   0.958   1.789 -0.3854  0.0892 -0.3670
  647MOL0     C87272   1.317   0.901   1.730  0.0309 -0.5538  0.0515
  647MOL0     C87273   1.200   0.939   1.803  0.3162  0.6412 -0.4237
  647MOL0     C87274   1.092   0.977   1.843 -0.4734 -0.3685 -0.4544
  647MOL0     C87275   1.930   1.044   1.977  0.0303  0.5968 -0.1811
  647MOL0     C87276   2.038   1.093   2.058  0.2148  0.1980  0.4944
  647MOL0     C87277   2.175   1.057   1.999  0.6164  0.4587  0.1861
  647MOL0     H87278   2.110   1.198   2.539  1.4600 -3.6125  0.8422
  647MOL0     H87279   2.242   1.301   2.717 -2.2416 -1.8333 -0.7185
  647MOL0     H87280   2.550   1.204   2.899  1.5247  1.7559  0.8185
  647MOL0     H87281   2.568   1.124   2.740 -0.6758  0.1556  0.1194
  647MOL0     H87282   2.741   1.302   2.684  2.8434  0.1070  0.6940
  647MOL0     H87283   2.774   1.171   2.780  1.1544 -0.2581  0.1087
  647MOL0     H87284   2.696   1.335   2.976 -2.0483  0.7621 -0.8905
  647MOL0     H87285   2.751   1.462   2.864  1.5169  0.5084  0.2178
  647MOL0     H87286   2.929   1.224   2.962  0.7726 -0.0779 -1.2648
  647MOL0     H87287   2.980   1.329   2.833  1.0399  3.9601 -1.9477
  647MOL0     H87288   2.967   1.530   2.956 -3.0207 -0.3483 -1.8976
  647MOL0     H87289   2.915   1.443   3.105  3.3206 -3.0156  2.1602
  647MOL0     H87290   3.112   1.313   3.142  1.2886 -0.4887  0.6715
  647MOL0     H87291   3.175   1.370   2.984  0.0666 -2.1453  0.6959
  647MOL0     H87292   3.083   1.572   3.179  1.1558  1.7211 -1.0469
  647MOL0     H87293   3.213   1.589   3.059 -0.7225  0.4378  0.1223
  647MOL0     H87294   3.321   1.586   3.276 -1.5093 -0.6432  2.2217
  647MOL0     H87295   3.233   1.447   3.329  1.4322  0.3780  0.7135
  647MOL0     H87296   3.519   1.557   3.080  1.3014 -0.7943 -1.7251
  647MOL0     H87297   3.756   1.237   3.047 -0.4933  0.4595  0.6526
  647MOL0     H87298   3.741   1.392   2.967  0.0430 -1.9713 -0.6548
  647MOL0     H87299   3.811   1.368   3.262  3.2243 -0.1273  0.1889
  647MOL0     H87300   3.926   1.335   3.137  0.5524 -1.0262  2.7869
  647MOL0     H87301   3.781   1.609   3.141  1.4968  2.7175 -2.5838
  647MOL0     H87302   3.932   1.544   3.065 -0.4033 -2.0934  0.0185
  647MOL0     H87303   4.038   1.527   3.283 -0.3898  0.6973  3.0142
  647MOL0     H87304   3.895   1.603   3.361 -2.6694  0.8281 -1.2216
  647MOL0     H87305   4.138   1.905   3.145 -1.3787 -0.0251 -0.0899
  647MOL0     H87306   4.328   2.032   3.263 -2.4390  2.1788  1.3775
  647MOL0     H87307   4.745   1.977   3.537  2.3594 -0.9375 -1.9366
  647MOL0     H87308   4.951   2.104   3.507  0.8754 -1.1172 -2.3922
  647MOL0     H87309   4.954   2.436   3.262  0.8767 -0.6681 -0.2276
  647MOL0     H87310   4.946   2.546   3.393 -0.8151 -1.1555 -0.0550
  647MOL0     H87311   5.150   2.565   3.255  0.4701 -2.2476 -1.3953
  647MOL0     H87312   5.177   2.548   3.421 -0.2455 -1.4952  1.3099
  647MOL0     H87313   5.337   2.416   3.340  0.2158  0.5813 -3.8295
  647MOL0     H87314   5.225   2.284   3.370  3.5283  1.2455  4.1342
  647MOL0     H87315   5.311   2.416   3.112  2.0560 -1.8801 -0.7903
  647MOL0     H87316   5.167   2.293   3.124 -1.7501  1.6716  1.4934
  647MOL0     H87317   5.373   2.177   3.058  1.7457  4.6628 -2.2665
  647MOL0     H87318   5.319   2.128   3.211  1.4616  0.7913  2.2811
  647MOL0     H87319   5.483   2.233   3.341 -0.8017  0.2029  0.7286
  647MOL0     H87320   5.558   2.140   3.216  0.1278 -0.5346  0.4708
  647MOL0     H87321   5.526   2.444   3.236  0.8306  0.5011  0.8763
  647MOL0     H87322   5.564   2.374   3.078 -1.7556 -0.0356  0.4312
  647MOL0     H87323   5.751   2.343   3.334  4.0795  1.0188 -1.9547
  647MOL0     H87324   5.765   2.262   3.182  2.7517  1.2601 -3.0312
  647MOL0     H87325   4.748   2.442   3.364  0.4140 -0.9469 -1.7194
  647MOL0     H87326   4.542   2.331   3.378  0.2856  3.4303  4.4160
  647MOL0     H87327   4.290   1.743   3.589  0.5637  1.4529  0.3355
  647MOL0     H87328   4.095   1.668   3.492  1.9568 -3.0362 -3.7269
  647MOL0     H87329   2.601   1.245   2.490 -0.0459 -2.0490 -3.4714
  647MOL0     H87330   2.449   1.152   2.296 -0.4615  2.8860 -0.7198
  647MOL0     H87331   1.858   1.265   2.287  3.5068  1.1194 -0.0498
  647MOL0     H87332   1.680   1.147   2.178 -1.1366 -1.4202 -1.0831
  647MOL0     H87333   1.538   1.095   2.023  0.8711 -0.2587  0.8275
  647MOL0     H87334   1.593   0.954   2.114 -0.6700 -1.1510  0.4281
  647MOL0     H87335   1.408   0.874   1.984 -0.4040  2.0628  0.7748
  647MOL0     H87336   1.550   0.809   1.902  1.1792  0.3924 -0.6622
  647MOL0     H87337   1.529   0.918   1.730 -0.0169 -2.4759  1.6979
  647MOL0     H87338   1.453   1.067   1.794 -0.3786  0.0877 -0.3359
  647MOL0     H87339   1.302   0.935   1.627  1.0669  0.1021  0.1099
  647MOL0     H87340   1.321   0.792   1.732  1.9485 -0.5427 -1.0354
  647MOL0     H87341   1.004   0.990   1.903  1.0297  0.6334  1.6549
  647MOL0     H87342   1.957   0.985   1.890 -0.2346 -1.1401  0.8538
  647MOL0     H87343   2.249   1.088   2.073  0.0308 -0.8893  1.3697
  647MOL0     H87344   2.180   0.948   1.992 -0.5721  0.4392 -0.7448
  647MOL0     H87345   2.176   1.112   1.904 -0.1968 -0.5898 -0.4454
  648MOL0     O87346   1.977   2.919   9.337 -0.8228 -0.1296  0.6927
  648MOL0     C87347   2.006   2.838   9.256 -0.5074  0.5916 -0.7522
  648MOL0     O87348   2.127   2.836   9.181 -0.4559  0.2960 -0.0349
  648MOL0     C87349   2.252   2.864   9.234  0.2725  0.7184 -0.2721
  648MOL0     C87350   2.365   2.842   9.144 -0.0728  0.8734 -0.2070
  648MOL0     C87351   2.495   2.864   9.181  0.1620 -0.0442 -0.2524
  648MOL0     C87352   2.531   2.909   9.307  1.2152 -0.3071  0.0320
  648MOL0     O87353   2.657   2.913   9.359  0.6268  0.5581 -0.0866
  648MOL0     C87354   2.771   2.849   9.291 -0.4170  0.6405 -0.1643
  648MOL0     C87355   2.887   2.860   9.385 -0.1507  0.0250  0.4282
  648MOL0     C87356   3.024   2.806   9.314  0.3789 -0.4262 -1.1209
  648MOL0     C87357   3.145   2.863   9.389 -0.1310 -0.3711 -0.2188
  648MOL0     C87358   3.273   2.812   9.323  0.2662  0.4210  0.4263
  648MOL0     C87359   3.404   2.860   9.397  0.4700 -0.1672 -0.0245
  648MOL0     C87360   3.534   2.778   9.370  0.2737 -0.1832 -0.5146
  648MOL0     C87361   3.554   2.677   9.479 -0.6686  0.0260  0.2308
  648MOL0     N87362   3.623   2.739   9.593  0.5187 -0.6414  0.2897
  648MOL0     C87363   3.756   2.772   9.590 -0.5268  0.2700 -1.5506
  648MOL0     C87364   3.789   2.808   9.718 -0.6976 -0.5311  0.2011
  648MOL0     C87365   3.930   2.847   9.765  0.0104 -0.1495  0.2263
  648MOL0     C87366   3.942   2.867   9.918 -0.3812  0.4380  0.6157
  648MOL0     C87367   4.070   2.957   9.959 -0.7455 -0.2728  0.1176
  648MOL0     C87368   4.198   2.879   9.959  1.0096 -0.0791 -0.0339
  648MOL0     O87369   4.311   2.978   9.951  0.3310  0.5013 -0.1577
  648MOL0     C87370   4.439   2.923   9.957 -0.0931 -0.4292  0.7608
  648MOL0     C87371   4.539   3.017   9.958 -0.7718  0.1837 -0.2739
  648MOL0     C87372   4.670   2.978   9.964  0.2641  0.4429 -0.3493
  648MOL0     C87373   4.702   2.844   9.961  0.5158  0.0928 -0.0752
  648MOL0     C87374   4.842   2.802   9.960  0.2398 -0.8638 -0.1952
  648MOL0     O87375   4.879   2.697  10.043  0.0260 -0.2125 -0.6406
  648MOL0     C87376   5.007   2.665  10.065  0.4927  0.3861 -0.1639
  648MOL0     C87377   5.024   2.529  10.083 -1.1575  0.3081 -0.3964
  648MOL0     C87378   5.150   2.476  10.107  0.3491  0.3643  0.3234
  648MOL0     C87379   5.259   2.560  10.117  0.7025  0.2921  0.4822
  648MOL0     O87380   5.391   2.518  10.122 -0.1605  0.5325 -0.1581
  648MOL0     C87381   5.425   2.379  10.137 -0.1651  1.5152  0.5920
  648MOL0     C87382   5.576   2.386  10.159 -0.2754  0.5169  0.5865
  648MOL0     C87383   5.626   2.377  10.305  0.2467  0.5209 -0.1646
  648MOL0     C87384   5.583   2.517  10.374 -0.3400 -1.2810 -0.6525
  648MOL0     C87385   5.633   2.514  10.513 -0.9434  0.1575  0.1033
  648MOL0     C87386   5.787   2.504  10.535  0.7554  0.3678 -0.5542
  648MOL0     C87387   5.865   2.580  10.421 -0.1614 -0.0356 -0.9400
  648MOL0     C87388   6.016   2.582  10.437 -0.1326  0.1688 -0.0343
  648MOL0    Cl87389   6.062   2.617  10.607 -0.2841  0.0507 -0.3293
  648MOL0     C87390   5.239   2.693  10.091  0.4628 -1.0350 -0.5309
  648MOL0     C87391   5.112   2.749  10.067 -0.0466 -0.0347 -0.5337
  648MOL0     O87392   4.912   2.869   9.888 -0.8712 -0.2773 -0.4382
  648MOL0     C87393   4.603   2.748   9.958 -0.2223 -0.4192 -0.5365
  648MOL0     C87394   4.472   2.789   9.953 -0.4642 -0.1134 -0.0841
  648MOL0     N87395   3.667   2.813   9.788  0.5392  0.4171 -1.4554
  648MOL0     N87396   3.568   2.761   9.716 -0.1544 -0.0467 -0.3582
  648MOL0     C87397   2.423   2.936   9.395  0.9711  0.2941 -1.0471
  648MOL0     C87398   2.289   2.912   9.353  0.8404 -0.1655 -0.2496
  648MOL0     C87399   1.908   2.750   9.200  1.9560  0.3138 -1.0533
  648MOL0     C87400   1.933   2.703   9.073 -0.4945  0.6884 -0.5580
  648MOL0     C87401   1.837   2.630   9.000 -1.1320  0.0060 -0.2243
  648MOL0     C87402   1.710   2.611   9.046  0.6278  0.6436 -0.6914
  648MOL0     O87403   1.617   2.552   8.966 -0.2380  0.0944  0.2898
  648MOL0     C87404   1.517   2.467   9.022 -0.4842  0.7454 -0.7274
  648MOL0     C87405   1.378   2.495   8.969 -0.3503  0.1702  0.3972
  648MOL0     C87406   1.290   2.363   8.946  0.0304  0.3184  0.4147
  648MOL0     C87407   1.225   2.312   9.076 -0.2736  0.5845  0.5322
  648MOL0     C87408   1.179   2.172   9.066  0.2105  0.6105 -0.8426
  648MOL0     C87409   1.140   2.060   9.046  0.0973 -0.9130 -0.3315
  648MOL0     C87410   1.678   2.656   9.177 -0.6261 -0.2069  0.2029
  648MOL0     C87411   1.770   2.724   9.253 -0.2764 -0.7575  0.4825
  648MOL0     C87412   1.719   2.782   9.381 -0.3149  0.3534 -0.1232
  648MOL0     H87413   2.349   2.790   9.050  0.4287 -1.3668  0.8894
  648MOL0     H87414   2.574   2.831   9.114  0.4492  1.5765 -0.7759
  648MOL0     H87415   2.763   2.742   9.267  2.4560  0.6511 -1.5970
  648MOL0     H87416   2.801   2.899   9.199 -2.1112 -0.2072 -1.2268
  648MOL0     H87417   2.867   2.799   9.473  0.5571  0.1449  0.6847
  648MOL0     H87418   2.900   2.967   9.404 -3.0283  0.8990 -1.8626
  648MOL0     H87419   3.013   2.839   9.210  0.9861  0.1610 -0.9998
  648MOL0     H87420   3.029   2.697   9.312  1.1542 -0.4036 -0.6063
  648MOL0     H87421   3.135   2.972   9.388 -1.7652 -0.4113  2.3777
  648MOL0     H87422   3.133   2.832   9.493  0.0841 -0.4743 -0.2237
  648MOL0     H87423   3.266   2.703   9.317  0.0836  0.4706 -0.3698
  648MOL0     H87424   3.284   2.832   9.215  1.3492 -0.6753  0.3137
  648MOL0     H87425   3.424   2.962   9.362 -1.1450 -0.4950 -2.0317
  648MOL0     H87426   3.384   2.855   9.504 -1.8571 -0.0382 -0.4058
  648MOL0     H87427   3.615   2.851   9.357 -0.5687  0.5658 -1.7608
  648MOL0     H87428   3.522   2.730   9.273 -1.5624  1.6495 -1.2718
  648MOL0     H87429   3.460   2.630   9.510 -2.1055  0.2020 -3.3864
  648MOL0     H87430   3.620   2.598   9.440 -3.5165 -2.1414 -0.5691
  648MOL0     H87431   3.837   2.747   9.522 -0.8068 -1.2978 -1.3439
  648MOL0     H87432   4.000   2.770   9.730 -0.1500 -0.1820 -0.0210
  648MOL0     H87433   3.955   2.944   9.721 -2.0113  0.4733  0.3515
  648MOL0     H87434   3.854   2.912   9.966 -0.8331  1.0213 -0.7071
  648MOL0     H87435   3.941   2.764   9.956 -1.0258  0.0225 -0.4794
  648MOL0     H87436   4.049   3.005  10.055 -2.1957 -0.2715 -0.1814
  648MOL0     H87437   4.077   3.042   9.890 -2.0875  1.3208  1.8658
  648MOL0     H87438   4.205   2.812   9.873  0.3424 -0.3950  0.1530
  648MOL0     H87439   4.209   2.820  10.050  2.1551 -1.1353 -0.8179
  648MOL0     H87440   4.526   3.120   9.990 -0.1887 -0.1525  1.1562
  648MOL0     H87441   4.747   3.054   9.974 -0.1383  0.9240 -0.8018
  648MOL0     H87442   4.941   2.461  10.065 -2.7052  2.2614 -0.9612
  648MOL0     H87443   5.150   2.367  10.103  2.8347  0.3255 -1.0495
  648MOL0     H87444   5.372   2.329  10.219 -0.2093 -2.5475 -1.6862
  648MOL0     H87445   5.401   2.327  10.044 -0.2852  0.5599  1.1477
  648MOL0     H87446   5.620   2.302  10.105  1.4883  2.2565 -0.8334
  648MOL0     H87447   5.627   2.473  10.118  2.8414 -1.5797 -0.3713
  648MOL0     H87448   5.569   2.299  10.358  2.8304 -5.0974 -4.5570
  648MOL0     H87449   5.730   2.343  10.301 -0.2237 -0.9795 -0.4100
  648MOL0     H87450   5.474   2.524  10.368 -0.3973 -2.1660 -0.7832
  648MOL0     H87451   5.626   2.592  10.307 -2.4349 -0.9454 -1.7147
  648MOL0     H87452   5.578   2.439  10.571 -2.1428  0.3547 -0.7359
  648MOL0     H87453   5.614   2.615  10.551  0.3857  1.0270 -1.4627
  648MOL0     H87454   5.801   2.559  10.629 -1.0078  0.2743 -0.2017
  648MOL0     H87455   5.823   2.401  10.546 -0.2613 -0.0051 -0.5824
  648MOL0     H87456   5.830   2.683  10.430 -2.7033 -1.0296  2.1637
  648MOL0     H87457   5.835   2.536  10.325  1.1643 -0.0638 -1.3697
  648MOL0     H87458   6.047   2.484  10.399 -1.1059 -0.0089 -0.3855
  648MOL0     H87459   6.053   2.664  10.374  0.2461 -0.6904 -0.9508
  648MOL0     H87460   5.320   2.765  10.088 -0.1505 -0.2667  0.6497
  648MOL0     H87461   5.112   2.855  10.041  1.8543  0.4771  1.3282
  648MOL0     H87462   4.614   2.640   9.965  1.0616 -0.2053  2.2989
  648MOL0     H87463   4.405   2.704   9.953 -0.4249 -0.1930 -1.9844
  648MOL0     H87464   2.444   2.976   9.493 -0.1012 -1.2162 -0.1547
  648MOL0     H87465   2.207   2.929   9.421  1.1245 -1.1620  0.3498
  648MOL0     H87466   2.027   2.718   9.020 -0.7380  2.2730 -0.5816
  648MOL0     H87467   1.871   2.590   8.905  0.2747  1.1045 -0.2285
  648MOL0     H87468   1.520   2.465   9.131 -2.1200  1.5012 -0.6366
  648MOL0     H87469   1.540   2.366   8.989  0.4654  0.2741  1.2853
  648MOL0     H87470   1.392   2.533   8.867  4.4735 -0.4993  0.5574
  648MOL0     H87471   1.326   2.564   9.035 -2.0330 -0.4703 -0.1862
  648MOL0     H87472   1.350   2.287   8.895 -1.2947  1.2206 -2.7764
  648MOL0     H87473   1.201   2.393   8.890 -0.1376 -1.2120 -0.1899
  648MOL0     H87474   1.304   2.301   9.151  1.1632  1.2597 -0.8004
  648MOL0     H87475   1.147   2.382   9.105  0.4389  1.2478  0.8865
  648MOL0     H87476   1.117   1.957   9.028 -0.3798 -1.0028  0.7395
  648MOL0     H87477   1.572   2.653   9.201 -0.6291 -1.3788  0.1130
  648MOL0     H87478   1.725   2.891   9.372  1.2428  0.1878 -1.4442
  648MOL0     H87479   1.613   2.764   9.400 -0.8342  1.6371 -1.6237
  648MOL0     H87480   1.784   2.761   9.467  1.1021  0.8906 -1.0308
  649MOL0     O87481  10.019   2.814   2.563  0.0765  0.0838 -0.0791
  649MOL0     C87482   9.948   2.793   2.465 -0.3614  0.3490 -0.2234
  649MOL0     O87483   9.951   2.865   2.349 -0.1690 -1.0333 -0.1025
  649MOL0     C87484  10.049   2.959   2.314  0.8886  0.3093  0.4411
  649MOL0     C87485  10.008   3.082   2.257  0.0509 -0.7606  0.0570
  649MOL0     C87486  10.088   3.191   2.235 -0.2633  0.4920  0.1741
  649MOL0     C87487  10.224   3.167   2.265 -0.1415 -0.2088  0.2837
  649MOL0     O87488  10.299   3.280   2.247  0.1657 -0.1205 -0.1100
  649MOL0     C87489  10.426   3.265   2.187  0.3840 -0.5006  0.8332
  649MOL0     C87490  10.448   3.393   2.113  0.2705 -0.4778  0.3055
  649MOL0     C87491  10.588   3.398   2.053 -0.1542 -0.6098 -0.2791
  649MOL0     C87492  10.615   3.533   1.983  0.4117 -0.3127 -0.1630
  649MOL0     C87493  10.748   3.544   1.911  0.1714 -0.7388 -0.1474
  649MOL0     C87494  10.871   3.544   1.999  0.0967  0.1588  0.2873
  649MOL0     C87495  10.994   3.534   1.900 -1.0448  0.0799 -0.5986
  649MOL0     C87496  11.112   3.540   1.978 -0.3394 -0.3739 -0.5211
  649MOL0     N87497  11.148   3.677   2.015 -0.2715  0.3396  0.3435
  649MOL0     C87498  11.117   3.746   2.127 -0.7902 -0.9906  0.2301
  649MOL0     C87499  11.153   3.871   2.098  0.1723  0.3359 -0.2533
  649MOL0     C87500  11.169   3.990   2.190 -0.5459 -0.1644  0.1048
  649MOL0     C87501  11.144   4.133   2.128  0.3801  0.3647 -0.6187
  649MOL0     C87502  11.186   4.242   2.227  0.1279  0.7296  1.1372
  649MOL0     C87503  11.339   4.271   2.222 -0.3550 -0.5639  0.0022
  649MOL0     O87504  11.365   4.376   2.316  0.4970 -0.1079  0.6218
  649MOL0     C87505  11.501   4.415   2.324  0.1666 -0.3490  0.4881
  649MOL0     C87506  11.599   4.399   2.225 -0.0189 -0.1578  0.1214
  649MOL0     C87507  11.737   4.417   2.246 -0.5045 -0.5175  0.1066
  649MOL0     C87508  11.779   4.455   2.377  0.5125  1.2912  0.3018
  649MOL0     C87509  11.926   4.458   2.408 -0.2894  0.3756 -0.0024
  649MOL0     O87510  12.008   4.420   2.313 -0.7353 -0.1910 -0.2824
  649MOL0     C87511  12.141   4.453   2.322  0.1245 -0.4324  0.0448
  649MOL0     C87512  12.211   4.514   2.216  0.2279 -0.7736  0.0995
  649MOL0     C87513  12.342   4.550   2.240 -0.5163  0.2628  1.0515
  649MOL0     C87514  12.413   4.518   2.358 -0.1367 -0.2317 -0.2102
  649MOL0     O87515  12.554   4.535   2.368  0.0901  0.0840 -0.4597
  649MOL0     C87516  12.600   4.655   2.306  0.1624 -0.4291 -0.6428
  649MOL0     C87517  12.720   4.723   2.375  0.0268  0.2654 -0.4394
  649MOL0     C87518  12.848   4.643   2.364  0.5356  0.5453 -0.1279
  649MOL0     C87519  12.970   4.723   2.405  0.6061 -0.1247  0.0809
  649MOL0     C87520  13.107   4.652   2.369  0.9398  0.4492 -1.0388
  649MOL0     C87521  13.222   4.745   2.405 -0.2627 -0.0171  0.1570
  649MOL0     C87522  13.372   4.689   2.373 -0.6031 -0.2245  0.5084
  649MOL0     C87523  13.376   4.607   2.241 -0.1153 -0.9653  0.8458
  649MOL0    Cl87524  13.320   4.723   2.111  0.1287  0.1403  0.1792
  649MOL0     C87525  12.345   4.457   2.459 -0.0308 -0.0328 -0.1622
  649MOL0     C87526  12.214   4.429   2.434  0.9565  0.7429  0.6998
  649MOL0     O87527  11.953   4.499   2.523  0.4941 -1.0318  1.0686
  649MOL0     C87528  11.686   4.481   2.474 -0.2255 -0.0332 -0.2851
  649MOL0     C87529  11.548   4.465   2.446  0.2687  0.3061  0.3557
  649MOL0     N87530  11.203   3.880   1.972 -0.1264  0.1366  0.1272
  649MOL0     N87531  11.203   3.764   1.924 -0.1574 -0.2436 -0.8941
  649MOL0     C87532  10.268   3.050   2.321 -0.7320  0.2086  0.8895
  649MOL0     C87533  10.185   2.941   2.350  0.8166  0.0238  0.1069
  649MOL0     C87534   9.834   2.693   2.475 -0.0965 -0.2614  0.4584
  649MOL0     C87535   9.752   2.659   2.355 -0.4940 -0.6044 -0.5717
  649MOL0     C87536   9.646   2.576   2.362  0.2891  0.5881  0.1145
  649MOL0     C87537   9.613   2.510   2.479 -1.0331  0.0048 -0.6336
  649MOL0     O87538   9.514   2.413   2.469 -0.5380 -0.3877  0.4503
  649MOL0     C87539   9.522   2.300   2.560  0.8277  0.2930  0.5509
  649MOL0     C87540   9.448   2.181   2.495 -0.0200 -0.3111 -0.8055
  649MOL0     C87541   9.494   2.048   2.570  0.0311  0.4769 -0.8530
  649MOL0     C87542   9.470   1.926   2.480 -0.3940 -0.9294 -0.3185
  649MOL0     C87543   9.325   1.920   2.440 -1.4834  0.6363 -0.1841
  649MOL0     C87544   9.208   1.899   2.415 -0.0563  0.0123  0.3410
  649MOL0     C87545   9.687   2.544   2.594  0.5746 -1.1023  0.0853
  649MOL0     C87546   9.787   2.643   2.599 -0.0203 -0.1608 -0.0439
  649MOL0     C87547   9.842   2.665   2.742  0.7404  0.4004  0.5711
  649MOL0     H87548   9.905   3.103   2.230  0.3516  2.9707  1.2302
  649MOL0     H87549  10.056   3.285   2.191 -2.6422  1.1438  3.0085
  649MOL0     H87550  10.507   3.237   2.255 -0.0286 -1.3000  1.0127
  649MOL0     H87551  10.421   3.183   2.115  0.4123 -0.7087  1.0672
  649MOL0     H87552  10.430   3.477   2.180 -3.4943  0.5354 -1.6460
  649MOL0     H87553  10.377   3.397   2.029  2.3327 -1.8942 -1.6079
  649MOL0     H87554  10.606   3.329   1.970  0.2306 -0.8550  0.0015
  649MOL0     H87555  10.662   3.378   2.131  0.9086  0.9096 -0.8404
  649MOL0     H87556  10.540   3.545   1.904 -0.8089 -2.8487  0.5134
  649MOL0     H87557  10.601   3.615   2.055 -1.7377 -0.4955 -0.3120
  649MOL0     H87558  10.754   3.453   1.852  2.3056  0.2866 -1.6651
  649MOL0     H87559  10.747   3.626   1.839 -2.2563 -1.3157 -0.8404
  649MOL0     H87560  10.868   3.640   2.051  2.2552  0.1013  0.6392
  649MOL0     H87561  10.871   3.464   2.074 -0.2541  1.4472  1.7048
  649MOL0     H87562  10.992   3.616   1.827  1.7827 -0.9169 -1.9504
  649MOL0     H87563  10.989   3.444   1.837  0.9008 -0.4688 -0.0256
  649MOL0     H87564  11.110   3.469   2.061  1.1283  0.6736  0.4626
  649MOL0     H87565  11.200   3.498   1.927 -1.4912 -4.4948  0.4719
  649MOL0     H87566  11.082   3.696   2.216  1.5142 -0.0444  1.7574
  649MOL0     H87567  11.101   3.977   2.275 -0.8976  1.1738  0.0575
  649MOL0     H87568  11.273   3.992   2.221 -0.4873  0.1376 -0.1059
  649MOL0     H87569  11.194   4.159   2.035  1.8387 -1.0677 -0.2796
  649MOL0     H87570  11.038   4.137   2.101  0.0989 -3.5137 -0.6194
  649MOL0     H87571  11.154   4.208   2.326 -0.5781  1.0259  1.0178
  649MOL0     H87572  11.136   4.335   2.198 -0.9718 -0.1420  0.1894
  649MOL0     H87573  11.374   4.291   2.120 -1.3523  0.9652 -0.0670
  649MOL0     H87574  11.407   4.196   2.261  3.1771  2.2758 -0.1750
  649MOL0     H87575  11.584   4.351   2.129 -1.0768 -1.3970  0.8764
  649MOL0     H87576  11.802   4.402   2.161 -1.3519 -2.1841 -0.2923
  649MOL0     H87577  12.166   4.547   2.123 -1.7444 -0.4275  1.1321
  649MOL0     H87578  12.397   4.588   2.154 -1.2666  1.2146  0.9672
  649MOL0     H87579  12.618   4.636   2.200  0.5005  4.2911 -1.6556
  649MOL0     H87580  12.521   4.731   2.308  0.1379 -0.4543  1.5867
  649MOL0     H87581  12.741   4.819   2.328 -1.3407  1.8473  1.9510
  649MOL0     H87582  12.683   4.733   2.478 -2.2368 -0.8020 -1.0727
  649MOL0     H87583  12.834   4.560   2.435  2.3259 -0.0971 -0.4694
  649MOL0     H87584  12.863   4.593   2.268  1.7398  3.1588 -1.3870
  649MOL0     H87585  12.953   4.736   2.513 -1.5039 -0.3625 -0.1802
  649MOL0     H87586  12.968   4.827   2.371 -1.6660 -0.2815 -0.4437
  649MOL0     H87587  13.108   4.629   2.262  1.3549 -0.9960 -0.7462
  649MOL0     H87588  13.124   4.553   2.411 -1.9806  0.1589 -0.3267
  649MOL0     H87589  13.207   4.839   2.350 -2.0458  0.7607  1.8551
  649MOL0     H87590  13.209   4.772   2.510 -0.2191  0.5533  0.0238
  649MOL0     H87591  13.368   4.619   2.457 -4.6801 -0.2380  0.5249
  649MOL0     H87592  13.458   4.757   2.379  1.0941 -2.1537 -0.6600
  649MOL0     H87593  13.482   4.593   2.222 -0.2279  1.4730 -2.4090
  649MOL0     H87594  13.330   4.508   2.239 -2.1909 -0.0387 -0.2423
  649MOL0     H87595  12.393   4.430   2.553  0.7574 -0.9772 -0.8071
  649MOL0     H87596  12.170   4.377   2.519  2.2598  0.8140  1.4399
  649MOL0     H87597  11.723   4.501   2.574  3.3048  1.2590 -1.6526
  649MOL0     H87598  11.479   4.481   2.528 -0.5285  0.6340 -0.3745
  649MOL0     H87599  10.370   3.037   2.356 -0.1503  2.3419  0.0860
  649MOL0     H87600  10.222   2.842   2.378  0.4809 -0.6448 -1.6515
  649MOL0     H87601   9.767   2.696   2.254 -0.1289  3.9593  0.9439
  649MOL0     H87602   9.587   2.558   2.273 -2.9833 -1.9977  2.5476
  649MOL0     H87603   9.483   2.331   2.657 -1.6315 -1.9723  0.4120
  649MOL0     H87604   9.626   2.274   2.581  1.3513  1.5868 -0.3322
  649MOL0     H87605   9.486   2.164   2.394  1.6085 -0.1286 -0.2584
  649MOL0     H87606   9.341   2.205   2.496  0.3796  1.9259  2.2148
  649MOL0     H87607   9.449   2.040   2.669 -0.4089  2.1504 -0.8848
  649MOL0     H87608   9.602   2.057   2.582 -0.2702  0.8340  2.4575
  649MOL0     H87609   9.533   1.926   2.391 -0.7490  0.1529 -0.5862
  649MOL0     H87610   9.507   1.834   2.526 -2.8222 -0.9233  1.8474
  649MOL0     H87611   9.107   1.885   2.385  0.2835 -0.5522 -0.5546
  649MOL0     H87612   9.675   2.497   2.691 -0.5443  1.8294  1.4804
  649MOL0     H87613   9.778   2.609   2.811  1.2514 -0.3219  0.4630
  649MOL0     H87614   9.944   2.627   2.741  0.4976 -0.2704  0.0306
  649MOL0     H87615   9.844   2.770   2.773  2.8877  0.0583  1.7886
  650MOL0     O87616   9.766  11.046   7.609 -0.8731  0.1778  0.7979
  650MOL0     C87617   9.743  11.028   7.731 -0.2106  0.4048 -0.5891
  650MOL0     O87618   9.836  11.010   7.826 -0.4331 -0.0369  0.5148
  650MOL0     C87619   9.963  11.016   7.775 -0.6352 -0.0158  0.0613
  650MOL0     C87620  10.043  10.902   7.773 -0.7479 -0.6409  0.2541
  650MOL0     C87621  10.174  10.903   7.729 -0.2963  0.0236 -1.2256
  650MOL0     C87622  10.231  11.027   7.685  1.2547 -0.0959 -0.3584
  650MOL0     O87623  10.364  11.032   7.648  0.3209 -0.6678  0.0352
  650MOL0     C87624  10.442  11.128   7.726 -0.9408 -0.4095  0.4384
  650MOL0     C87625  10.594  11.099   7.703 -0.1916 -0.2237 -0.4727
  650MOL0     C87626  10.699  11.201   7.745  0.5449  0.0873 -0.3689
  650MOL0     C87627  10.709  11.315   7.644  0.4908  0.0416  0.0786
  650MOL0     C87628  10.813  11.418   7.700  0.2937 -0.4692 -0.2833
  650MOL0     C87629  10.957  11.373   7.700  0.5939 -0.6597 -0.3557
  650MOL0     C87630  11.056  11.493   7.665  0.1394 -0.3282  0.3692
  650MOL0     C87631  11.194  11.426   7.658 -0.1467 -0.4970 -0.2126
  650MOL0     N87632  11.278  11.487   7.758 -0.3687 -0.1209 -0.4013
  650MOL0     C87633  11.273  11.464   7.895 -0.2570  0.0650  0.6613
  650MOL0     C87634  11.361  11.547   7.954 -0.0033  0.1855  0.4155
  650MOL0     C87635  11.378  11.562   8.105  0.1015 -0.2822  0.1568
  650MOL0     C87636  11.529  11.596   8.139 -0.0472 -0.0014  0.6746
  650MOL0     C87637  11.614  11.465   8.122 -0.4966  0.6276 -0.4809
  650MOL0     C87638  11.753  11.486   8.067  0.5349 -0.7700 -0.2985
  650MOL0     O87639  11.818  11.355   8.047  0.5775 -0.2430  0.0349
  650MOL0     C87640  11.954  11.350   8.044 -0.1158  0.2233  0.4117
  650MOL0     C87641  12.006  11.228   8.099  0.2488  0.4751  0.1972
  650MOL0     C87642  12.148  11.215   8.120 -0.3644  0.4378 -0.2156
  650MOL0     C87643  12.232  11.326   8.082 -0.9415 -0.4693 -0.6646
  650MOL0     C87644  12.372  11.318   8.107 -0.0095 -0.4141 -0.3942
  650MOL0     O87645  12.451  11.431   8.097  0.1202 -0.1287 -0.0739
  650MOL0     C87646  12.588  11.413   8.106 -0.0327 -0.3257 -0.8053
  650MOL0     C87647  12.648  11.433   8.237 -0.2751 -0.3493  0.2038
  650MOL0     C87648  12.788  11.410   8.247  0.8084 -0.1871  0.1589
  650MOL0     C87649  12.861  11.361   8.130  0.6078 -0.6685  0.1877
  650MOL0     O87650  12.997  11.334   8.144  0.5144 -0.4034 -0.1999
  650MOL0     C87651  13.067  11.305   8.020  0.4831 -0.3051 -1.1193
  650MOL0     C87652  13.220  11.323   8.049  0.2670  0.4152 -0.3193
  650MOL0     C87653  13.302  11.332   7.923  0.5125 -0.7088  0.6237
  650MOL0     C87654  13.450  11.336   7.958 -0.1869  0.8261 -0.2104
  650MOL0     C87655  13.535  11.346   7.833  0.3758 -0.4125 -0.8079
  650MOL0     C87656  13.688  11.352   7.857  0.0007  0.4705  0.0389
  650MOL0     C87657  13.748  11.232   7.931 -0.5573  1.3115  0.1193
  650MOL0     C87658  13.878  11.191   7.861  0.4715 -0.6710 -0.8803
  650MOL0    Cl87659  13.952  11.056   7.941 -0.1148 -0.2944 -0.5341
  650MOL0     C87660  12.793  11.353   8.004 -0.1819  0.1945  0.3578
  650MOL0     C87661  12.659  11.382   7.994  0.7774  0.7647  0.6213
  650MOL0     O87662  12.421  11.203   8.126  0.2461  0.2412 -0.3193
  650MOL0     C87663  12.179  11.443   8.013  0.5007  0.5793  0.5025
  650MOL0     C87664  12.038  11.456   7.995 -0.1519  0.2640 -0.8351
  650MOL0     N87665  11.433  11.612   7.853 -0.3207 -0.6197 -0.0405
  650MOL0     N87666  11.373  11.590   7.741  0.9236  0.3909 -0.2873
  650MOL0     C87667  10.149  11.145   7.685  0.4165  0.2039  1.0221
  650MOL0     C87668  10.018  11.142   7.736  0.5069 -0.2079  0.9515
  650MOL0     C87669   9.606  10.989   7.767 -0.1159 -0.1572  0.1780
  650MOL0     C87670   9.540  11.073   7.848  0.6797  0.0385 -0.6873
  650MOL0     C87671   9.407  11.039   7.874 -0.3210 -0.2505 -0.0626
  650MOL0     C87672   9.341  10.926   7.822  0.6981 -0.3981 -0.8723
  650MOL0     O87673   9.206  10.915   7.832  0.1381  0.1634 -0.0686
  650MOL0     C87674   9.134  10.995   7.917  0.2824  0.2340 -0.6407
  650MOL0     C87675   8.984  10.942   7.920  0.0503  0.0883  0.4889
  650MOL0     C87676   8.889  11.038   7.988  0.0403  0.3302 -0.0159
  650MOL0     C87677   8.921  11.021   8.143  0.0161 -0.5509 -0.0571
  650MOL0     C87678   8.943  11.151   8.201 -0.2139  0.3273  0.2914
  650MOL0     C87679   8.933  11.265   8.238  0.0876 -0.4692 -0.0587
  650MOL0     C87680   9.423  10.834   7.748  0.5833 -0.3012  0.1028
  650MOL0     C87681   9.560  10.862   7.727 -0.0163  0.2357  0.1280
  650MOL0     C87682   9.647  10.762   7.665  0.0926  0.5253 -0.5673
  650MOL0     H87683  10.011  10.809   7.819 -0.4547 -1.1191 -0.4952
  650MOL0     H87684  10.235  10.813   7.732 -2.3027 -1.4750 -2.5985
  650MOL0     H87685  10.435  11.219   7.665 -1.1501 -2.1410 -2.3112
  650MOL0     H87686  10.406  11.147   7.827 -1.2166  1.2680  0.0519
  650MOL0     H87687  10.612  11.074   7.598  1.3894  0.1947 -0.3281
  650MOL0     H87688  10.616  11.005   7.753  0.6004 -0.4467 -1.2118
  650MOL0     H87689  10.795  11.151   7.759  0.1822 -0.9963 -1.6066
  650MOL0     H87690  10.671  11.239   7.844  1.1043 -0.8098  0.1447
  650MOL0     H87691  10.737  11.282   7.543  2.5572  1.4874  0.1198
  650MOL0     H87692  10.613  11.367   7.645  0.2051 -0.4654 -0.5250
  650MOL0     H87693  10.806  11.511   7.642 -2.0429  1.6797  3.0883
  650MOL0     H87694  10.791  11.455   7.801  2.3985 -2.0908  0.8556
  650MOL0     H87695  10.984  11.323   7.794  1.0952  2.8027  1.4834
  650MOL0     H87696  10.965  11.297   7.622 -0.7991 -1.5116  0.2811
  650MOL0     H87697  11.058  11.578   7.733  0.9689  1.1852 -1.4536
  650MOL0     H87698  11.044  11.539   7.566  1.0068  0.2603  0.5339
  650MOL0     H87699  11.191  11.319   7.680  1.7964 -0.3363  1.0109
  650MOL0     H87700  11.242  11.448   7.562 -0.2131  2.4836  0.3366
  650MOL0     H87701  11.201  11.394   7.936 -0.4774  1.4866  2.8608
  650MOL0     H87702  11.315  11.650   8.120  1.7332  1.9541 -4.3480
  650MOL0     H87703  11.335  11.478   8.161 -0.5674  1.0002  1.6376
  650MOL0     H87704  11.550  11.674   8.065 -0.4506 -0.7574 -0.2589
  650MOL0     H87705  11.538  11.634   8.241 -0.5538  0.8695  0.4049
  650MOL0     H87706  11.569  11.381   8.069  0.0514 -2.1369  3.0884
  650MOL0     H87707  11.622  11.418   8.220  0.0777  0.1650 -0.7465
  650MOL0     H87708  11.816  11.554   8.127 -2.4582  0.8179  1.2878
  650MOL0     H87709  11.748  11.538   7.971  1.6814  0.9602  0.5282
  650MOL0     H87710  11.944  11.144   8.129  1.3560  0.0922  1.5325
  650MOL0     H87711  12.187  11.125   8.167  0.0486  2.0208  2.7164
  650MOL0     H87712  12.581  11.458   8.320 -1.6464 -0.2288 -0.8951
  650MOL0     H87713  12.849  11.427   8.335  0.9965  2.4536 -0.3881
  650MOL0     H87714  13.033  11.210   7.980 -1.1368 -0.3649  0.3118
  650MOL0     H87715  13.051  11.378   7.939 -1.0308 -1.0727 -1.5347
  650MOL0     H87716  13.230  11.417   8.103 -2.3610  0.8245 -0.4191
  650MOL0     H87717  13.234  11.236   8.114  1.8873 -0.7797 -2.1555
  650MOL0     H87718  13.278  11.247   7.858 -0.9126  0.3295 -0.2507
  650MOL0     H87719  13.282  11.420   7.862 -0.7958 -2.0054 -0.9175
  650MOL0     H87720  13.482  11.247   8.012  1.3998  0.6339 -1.3956
  650MOL0     H87721  13.471  11.419   8.026 -1.0425  0.2093  0.8404
  650MOL0     H87722  13.510  11.440   7.783  4.9467  1.2885 -0.3882
  650MOL0     H87723  13.518  11.256   7.774 -2.5478 -1.6407  1.6578
  650MOL0     H87724  13.738  11.359   7.760  0.7633 -2.1479  0.1557
  650MOL0     H87725  13.705  11.438   7.922  0.9858  2.2815 -2.4700
  650MOL0     H87726  13.678  11.148   7.924 -2.0951  2.5463  0.0892
  650MOL0     H87727  13.760  11.246   8.039  0.9692 -2.6808  0.6201
  650MOL0     H87728  13.848  11.167   7.759 -0.0767  0.9650 -1.1258
  650MOL0     H87729  13.956  11.268   7.865 -0.6052  0.3937  0.7247
  650MOL0     H87730  12.841  11.317   7.914  0.0377  0.1402  0.4970
  650MOL0     H87731  12.601  11.377   7.903  0.0558 -2.0090  1.1425
  650MOL0     H87732  12.250  11.517   7.977 -1.7338  2.2047 -0.7369
  650MOL0     H87733  11.991  11.548   7.963 -0.7521  0.4011  0.3925
  650MOL0     H87734  10.188  11.239   7.645 -1.1033 -0.2752 -1.8851
  650MOL0     H87735   9.958  11.232   7.733 -0.3551 -0.7524 -2.1045
  650MOL0     H87736   9.578  11.173   7.869  0.5143 -0.1241  0.4787
  650MOL0     H87737   9.351  11.107   7.937  3.2758  1.5312  1.5033
  650MOL0     H87738   9.136  11.099   7.882 -0.0126  0.4526 -0.0292
  650MOL0     H87739   9.178  10.987   8.016  0.1813  0.4489 -0.5773
  650MOL0     H87740   8.985  10.842   7.965  2.1928 -0.5172 -0.7808
  650MOL0     H87741   8.941  10.921   7.822  0.2690 -1.3070  0.6810
  650MOL0     H87742   8.787  11.003   7.969  0.1756 -0.1352  0.1098
  650MOL0     H87743   8.911  11.139   7.950  1.1242 -0.0484 -0.4324
  650MOL0     H87744   8.823  10.986   8.178 -0.7297  0.7228 -0.7888
  650MOL0     H87745   9.005  10.954   8.163  1.8132  1.3806 -0.7357
  650MOL0     H87746   8.942  11.355   8.296  2.2412 -2.0165  2.2261
  650MOL0     H87747   9.372  10.742   7.720  0.3477 -0.3526  0.6699
  650MOL0     H87748   9.594  10.668   7.646  0.1484  0.3102  0.2818
  650MOL0     H87749   9.679  10.813   7.574  1.2386 -0.6591 -0.8632
  650MOL0     H87750   9.730  10.741   7.734 -0.1729  4.8686  1.4083
  651MOL0     O87751  11.265   9.826   3.117 -0.3503 -0.4837  0.3791
  651MOL0     C87752  11.259   9.913   3.034  0.0494  0.2191  0.5817
  651MOL0     O87753  11.345   9.930   2.928 -0.8935 -0.3800  0.6129
  651MOL0     C87754  11.437   9.833   2.893  0.1215 -0.2582 -0.0838
  651MOL0     C87755  11.409   9.696   2.889 -0.6753 -0.6203  0.0184
  651MOL0     C87756  11.506   9.605   2.843  0.7223  0.8224  0.1570
  651MOL0     C87757  11.635   9.653   2.805 -0.8867  0.3450  0.2067
  651MOL0     O87758  11.729   9.569   2.744 -0.5666  0.3807  0.4987
  651MOL0     C87759  11.744   9.447   2.826  0.2440 -0.3006 -0.0427
  651MOL0     C87760  11.890   9.403   2.818  0.3534  0.2234  0.3968
  651MOL0     C87761  11.917   9.255   2.842 -0.6147 -0.1256  0.4093
  651MOL0     C87762  12.062   9.205   2.836  0.2437  0.5556 -0.4096
  651MOL0     C87763  12.069   9.051   2.875  0.5373 -0.2540 -0.4004
  651MOL0     C87764  12.219   9.006   2.876 -0.2236  0.3218  0.0193
  651MOL0     C87765  12.289   9.006   2.733  0.3628 -0.7711 -0.2773
  651MOL0     C87766  12.415   8.921   2.730 -0.2044 -0.4420 -0.0481
  651MOL0     N87767  12.539   8.988   2.782  0.8426 -0.9282 -0.3960
  651MOL0     C87768  12.571   9.003   2.913 -0.1553 -0.1120 -0.0612
  651MOL0     C87769  12.686   9.075   2.909 -0.7636 -0.2048 -1.1780
  651MOL0     C87770  12.763   9.124   3.034  0.3599 -0.4363  0.4251
  651MOL0     C87771  12.882   9.037   3.057 -0.8090  0.4195  0.0092
  651MOL0     C87772  12.970   9.093   3.168 -0.3749  0.0451 -0.2900
  651MOL0     C87773  13.099   9.016   3.175  0.3425  0.7589 -0.4744
  651MOL0     O87774  13.187   9.078   3.273 -0.2535 -0.2231  0.5631
  651MOL0     C87775  13.319   9.026   3.293  0.8673 -0.4458  0.5383
  651MOL0     C87776  13.394   9.099   3.385 -0.5224  1.0627 -0.1292
  651MOL0     C87777  13.521   9.046   3.428  0.7381  0.2347  0.6089
  651MOL0     C87778  13.566   8.929   3.368  0.3194  1.2456 -0.5029
  651MOL0     C87779  13.681   8.851   3.428  0.0730 -0.4208  0.2514
  651MOL0     O87780  13.774   8.918   3.508 -0.8242  0.2991 -0.4092
  651MOL0     C87781  13.882   8.852   3.569 -0.2821  0.5466  0.1962
  651MOL0     C87782  13.985   8.775   3.510  0.1339 -0.4876 -0.1595
  651MOL0     C87783  14.081   8.707   3.587  0.0486  0.1479 -0.3084
  651MOL0     C87784  14.079   8.715   3.729  0.1364  0.5437  0.2117
  651MOL0     O87785  14.183   8.670   3.808  1.0437 -0.3626 -0.3890
  651MOL0     C87786  14.240   8.535   3.778  0.3383  0.0395  0.5703
  651MOL0     C87787  14.380   8.553   3.713 -0.3708  0.0330 -0.5294
  651MOL0     C87788  14.424   8.428   3.636  0.4062  0.3906 -0.3246
  651MOL0     C87789  14.563   8.445   3.572 -0.5734  0.1286  0.0721
  651MOL0     C87790  14.587   8.317   3.480  0.0175 -0.3653 -0.3623
  651MOL0     C87791  14.668   8.343   3.352 -0.3003  0.9294  0.0822
  651MOL0     C87792  14.809   8.391   3.399  0.2926 -0.9015 -0.3290
  651MOL0     C87793  14.894   8.416   3.277 -0.5858  0.3194 -0.8795
  651MOL0    Cl87794  15.060   8.465   3.329  0.3518 -0.1754  0.1692
  651MOL0     C87795  13.981   8.790   3.790 -0.1427 -0.5548  0.2208
  651MOL0     C87796  13.878   8.863   3.711 -1.3913 -0.1251  0.0476
  651MOL0     O87797  13.691   8.734   3.393  0.7177  0.1919 -0.0424
  651MOL0     C87798  13.496   8.865   3.262  0.0882  0.1766 -1.1701
  651MOL0     C87799  13.371   8.916   3.230 -0.2376 -0.0871 -0.3918
  651MOL0     N87800  12.716   9.094   2.778 -0.0245  0.4377  0.7212
  651MOL0     N87801  12.622   9.046   2.701 -0.5672 -0.1034 -0.8297
  651MOL0     C87802  11.660   9.786   2.815  0.3986  0.2195 -0.2593
  651MOL0     C87803  11.561   9.877   2.852  0.0478 -0.1615 -0.4505
  651MOL0     C87804  11.158  10.021   3.048 -0.5661  0.1158  0.1826
  651MOL0     C87805  11.201  10.152   3.026  1.6269 -0.7230  0.5070
  651MOL0     C87806  11.110  10.261   3.057 -0.2834  0.7759  0.1398
  651MOL0     C87807  10.982  10.241   3.103  0.5279  0.1125  0.2580
  651MOL0     O87808  10.910  10.350   3.154 -0.1900  0.3770  0.6575
  651MOL0     C87809  10.776  10.325   3.215  0.2668 -0.0254 -0.5091
  651MOL0     C87810  10.723  10.452   3.281  0.6737 -0.0381  0.1643
  651MOL0     C87811  10.568  10.460   3.289  0.4793 -0.7046  0.2514
  651MOL0     C87812  10.511  10.360   3.387  0.5223 -0.5740 -0.4627
  651MOL0     C87813  10.373  10.385   3.395 -0.1236 -0.5100  0.0729
  651MOL0     C87814  10.251  10.417   3.407 -0.6436 -0.1931 -0.7326
  651MOL0     C87815  10.941  10.107   3.117  1.3311  0.0252 -0.0466
  651MOL0     C87816  11.024  10.002   3.085 -0.5317  0.9388  0.8372
  651MOL0     C87817  10.962   9.862   3.074  0.1856  0.6902 -0.4709
  651MOL0     H87818  11.309   9.663   2.913 -1.1163 -0.0462 -0.9621
  651MOL0     H87819  11.465   9.505   2.839 -0.0880  1.2011 -1.8887
  651MOL0     H87820  11.726   9.467   2.932 -0.1051  0.9020 -0.3099
  651MOL0     H87821  11.680   9.366   2.790 -1.1012  0.6415  0.1127
  651MOL0     H87822  11.945   9.464   2.891 -0.3458 -1.2835  2.2561
  651MOL0     H87823  11.917   9.427   2.715 -1.9356  1.1355 -0.0537
  651MOL0     H87824  11.863   9.205   2.762 -0.5276 -0.0088  0.2773
  651MOL0     H87825  11.871   9.230   2.938 -0.5674  0.8575  0.6989
  651MOL0     H87826  12.105   9.222   2.737 -1.0342  0.1783 -1.0611
  651MOL0     H87827  12.116   9.266   2.908  3.7084 -3.5928  0.9472
  651MOL0     H87828  12.018   9.041   2.972  2.3940 -0.8104  0.5846
  651MOL0     H87829  12.006   8.999   2.803 -0.6389  2.4744 -1.5052
  651MOL0     H87830  12.274   9.076   2.941  0.3303  2.0798 -2.2159
  651MOL0     H87831  12.229   8.905   2.917  4.2378 -1.1505 -3.7363
  651MOL0     H87832  12.306   9.108   2.695 -2.1604  0.3958  1.4543
  651MOL0     H87833  12.215   8.975   2.659 -1.1006  3.1874 -0.7403
  651MOL0     H87834  12.397   8.828   2.784  3.0315 -1.7182 -0.9390
  651MOL0     H87835  12.422   8.894   2.624 -3.8258 -2.0409 -0.0317
  651MOL0     H87836  12.520   8.957   2.997 -1.3143 -0.1071 -0.7299
  651MOL0     H87837  12.798   9.227   3.020 -0.3118 -0.4238 -1.4786
  651MOL0     H87838  12.699   9.131   3.122  0.5638  0.1426  0.5339
  651MOL0     H87839  12.862   8.935   3.093  0.3291 -0.5345 -1.9004
  651MOL0     H87840  12.932   9.020   2.961 -2.5336  1.1110 -1.0532
  651MOL0     H87841  12.918   9.079   3.264 -0.5577 -1.1833 -0.5569
  651MOL0     H87842  12.995   9.198   3.150  1.7700 -0.3987 -0.1043
  651MOL0     H87843  13.148   9.020   3.078 -0.9295  0.8434 -1.1397
  651MOL0     H87844  13.074   8.912   3.200  1.1568  0.2658 -1.6335
  651MOL0     H87845  13.354   9.182   3.441 -1.7445 -0.2478  1.0047
  651MOL0     H87846  13.582   9.100   3.500  0.8379  1.0836 -0.1037
  651MOL0     H87847  13.985   8.775   3.402 -2.5092 -1.2400 -0.2204
  651MOL0     H87848  14.163   8.656   3.538 -1.3388  0.3175 -2.9994
  651MOL0     H87849  14.243   8.473   3.868 -0.1121 -1.9964 -0.7694
  651MOL0     H87850  14.173   8.486   3.707  0.7641  1.1366 -0.6332
  651MOL0     H87851  14.397   8.640   3.650 -0.0051 -0.7663 -1.5745
  651MOL0     H87852  14.445   8.562   3.800 -1.3281 -1.6814  0.4200
  651MOL0     H87853  14.420   8.338   3.699  1.3492  0.2534 -0.4367
  651MOL0     H87854  14.355   8.399   3.557  0.3827  1.6101 -0.7750
  651MOL0     H87855  14.648   8.454   3.640 -0.4303 -0.4716 -0.0214
  651MOL0     H87856  14.563   8.536   3.512  2.3645 -0.9109 -1.7168
  651MOL0     H87857  14.493   8.265   3.461 -0.8294  1.4930 -1.6119
  651MOL0     H87858  14.652   8.253   3.540  2.0173 -0.2552 -2.3106
  651MOL0     H87859  14.673   8.249   3.296  0.8218 -0.2602  2.0701
  651MOL0     H87860  14.617   8.420   3.292 -3.0826 -1.7281 -1.2524
  651MOL0     H87861  14.846   8.304   3.454  0.9051  0.6663  1.8628
  651MOL0     H87862  14.816   8.482   3.459  1.7913 -0.9371 -0.4175
  651MOL0     H87863  14.890   8.329   3.211  0.9610 -0.8324  0.4560
  651MOL0     H87864  14.844   8.503   3.233 -2.2401  1.6073  3.0839
  651MOL0     H87865  13.986   8.801   3.898  3.2075 -3.3121  0.5072
  651MOL0     H87866  13.815   8.941   3.753 -1.5223  0.2248 -0.7774
  651MOL0     H87867  13.536   8.775   3.216 -1.5656 -0.9828 -0.4590
  651MOL0     H87868  13.318   8.866   3.149  1.2695 -0.9986 -0.8637
  651MOL0     H87869  11.755   9.827   2.783 -0.3566  3.6029  1.3750
  651MOL0     H87870  11.572   9.985   2.843 -2.2199  0.1728 -0.0204
  651MOL0     H87871  11.304  10.175   3.000  0.1025  3.7336 -2.7999
  651MOL0     H87872  11.151  10.360   3.039 -0.2448  0.8410  0.5730
  651MOL0     H87873  10.793  10.252   3.294  0.9591  1.9401  1.2432
  651MOL0     H87874  10.702  10.280   3.147 -0.5084  0.1196  0.2203
  651MOL0     H87875  10.762  10.542   3.232  0.9663  0.1881  0.7982
  651MOL0     H87876  10.756  10.455   3.386  0.5053  0.8474  0.1937
  651MOL0     H87877  10.517  10.450   3.192 -0.3424  0.2113  0.5787
  651MOL0     H87878  10.545  10.563   3.317  2.0427  0.3183 -1.9166
  651MOL0     H87879  10.521  10.258   3.349  0.2635 -0.5360 -0.6358
  651MOL0     H87880  10.563  10.365   3.483 -0.4158 -1.7185  0.1229
  651MOL0     H87881  10.149  10.444   3.420 -0.2957  0.4859  0.7523
  651MOL0     H87882  10.844  10.079   3.157  1.4629 -0.2154  0.1037
  651MOL0     H87883  10.966   9.821   2.973  0.1365  2.1359 -1.0852
  651MOL0     H87884  11.002   9.798   3.153 -4.3251 -1.6873  0.1942
  651MOL0     H87885  10.855   9.877   3.092 -0.1962 -1.5346 -0.6474
  652MOL0     O87886   0.524   8.008   4.066 -0.3944 -0.0289  0.6661
  652MOL0     C87887   0.462   8.053   4.162 -0.8710  0.2563 -0.1980
  652MOL0     O87888   0.521   8.134   4.260 -0.3849 -0.4111 -0.3993
  652MOL0     C87889   0.665   8.137   4.282  0.0414  0.3376 -0.4310
  652MOL0     C87890   0.725   8.256   4.338  0.0789  0.4904  0.3813
  652MOL0     C87891   0.870   8.267   4.358  0.1588 -0.0188 -0.6821
  652MOL0     C87892   0.948   8.155   4.322  0.4289 -1.0431 -0.3530
  652MOL0     O87893   1.080   8.136   4.345  0.2843  0.8446 -0.7666
  652MOL0     C87894   1.142   8.208   4.453 -0.5249  0.6890  0.4627
  652MOL0     C87895   1.282   8.155   4.464 -0.1129  0.8651 -0.2643
  652MOL0     C87896   1.392   8.256   4.483 -1.1713 -0.3683  0.0825
  652MOL0     C87897   1.540   8.196   4.494  0.0514  0.2504  0.3760
  652MOL0     C87898   1.641   8.294   4.461  0.3765 -0.0968  0.0933
  652MOL0     C87899   1.774   8.260   4.529 -0.5145  0.7850  0.5976
  652MOL0     C87900   1.830   8.124   4.477  0.7499 -0.6189  0.2395
  652MOL0     C87901   1.959   8.087   4.561 -0.0039  0.0206  0.6130
  652MOL0     N87902   1.921   8.000   4.673 -0.5399 -0.0836  0.6012
  652MOL0     C87903   1.890   7.874   4.676  0.3226 -0.5277  0.0104
  652MOL0     C87904   1.835   7.849   4.798 -0.4876 -0.0899  0.0016
  652MOL0     C87905   1.787   7.708   4.826  0.0945 -0.0993  0.1061
  652MOL0     C87906   1.889   7.612   4.893  0.3583 -0.1866 -0.0097
  652MOL0     C87907   2.026   7.613   4.825 -0.5061 -0.0188  1.2025
  652MOL0     C87908   2.122   7.519   4.899 -0.6183 -0.2834  0.2683
  652MOL0     O87909   2.235   7.509   4.812  0.2360  0.1492 -0.1602
  652MOL0     C87910   2.366   7.474   4.856  0.0876  0.1616 -0.4545
  652MOL0     C87911   2.390   7.427   4.989  0.5152  0.5090 -0.0576
  652MOL0     C87912   2.522   7.410   5.042  0.0914 -0.3593 -0.0750
  652MOL0     C87913   2.628   7.434   4.957 -0.1201  0.1374 -0.6741
  652MOL0     C87914   2.765   7.387   4.998 -0.3062 -0.7286  0.9973
  652MOL0     O87915   2.775   7.304   5.101  0.1170  0.4591  0.1218
  652MOL0     C87916   2.882   7.224   5.141 -0.2688 -0.1942  0.1197
  652MOL0     C87917   2.855   7.116   5.223  0.2226  0.4104 -0.6221
  652MOL0     C87918   2.953   7.035   5.275 -0.5561  0.0796  0.6021
  652MOL0     C87919   3.089   7.067   5.257 -0.1637  1.0731  0.1951
  652MOL0     O87920   3.188   6.989   5.310 -0.1717  0.4533  0.4272
  652MOL0     C87921   3.214   6.875   5.233 -0.9787 -0.1881  0.4746
  652MOL0     C87922   3.328   6.814   5.298 -0.0359  0.2850  0.3378
  652MOL0     C87923   3.458   6.901   5.305  0.3219 -0.4800 -0.3557
  652MOL0     C87924   3.569   6.827   5.369 -0.4366 -0.5392  0.9969
  652MOL0     C87925   3.548   6.794   5.514 -0.2109 -0.0908  0.2783
  652MOL0     C87926   3.683   6.738   5.569 -0.4835 -0.6663  0.1152
  652MOL0     C87927   3.660   6.722   5.716 -0.4532  0.2755  0.6952
  652MOL0     C87928   3.782   6.682   5.798  0.4917  0.2045 -0.1938
  652MOL0    Cl87929   3.728   6.546   5.898  0.0223  0.3491 -0.0878
  652MOL0     C87930   3.116   7.179   5.171 -0.4853  0.3110  1.0089
  652MOL0     C87931   3.019   7.255   5.106 -0.4844 -0.4743 -0.7599
  652MOL0     O87932   2.860   7.423   4.928  0.8224 -0.2627 -0.7068
  652MOL0     C87933   2.608   7.470   4.820  0.1297  0.8187 -0.4492
  652MOL0     C87934   2.478   7.483   4.766 -0.0429  0.4824 -0.3190
  652MOL0     N87935   1.837   7.967   4.864  0.1721  0.5697  0.0786
  652MOL0     N87936   1.884   8.060   4.789  0.1954 -0.8190  0.1463
  652MOL0     C87937   0.884   8.040   4.272 -0.9111  0.0348 -0.0053
  652MOL0     C87938   0.743   8.028   4.270 -0.2977  0.1123 -0.1200
  652MOL0     C87939   0.314   8.041   4.169 -0.2829  0.6048  0.4024
  652MOL0     C87940   0.254   8.067   4.300  0.1370 -0.2200  0.2314
  652MOL0     C87941   0.122   8.042   4.328 -0.2159  0.1548 -0.5040
  652MOL0     C87942   0.040   7.983   4.225 -0.8301  0.3675 -0.2427
  652MOL0     O87943  -0.096   7.958   4.231 -0.1445  0.4366 -0.2618
  652MOL0     C87944  -0.154   7.945   4.363  0.6522 -0.2687 -0.6474
  652MOL0     C87945  -0.305   7.913   4.344  0.2003  1.0000 -0.1827
  652MOL0     C87946  -0.374   8.003   4.241  0.2285 -0.6245  0.2810
  652MOL0     C87947  -0.398   7.940   4.108 -0.1254 -1.0485 -0.4835
  652MOL0     C87948  -0.490   7.826   4.108  0.5703 -0.2514  0.6373
  652MOL0     C87949  -0.563   7.733   4.084 -0.8610 -0.0510 -0.3603
  652MOL0     C87950   0.095   7.969   4.098  0.5930 -0.1381  0.6394
  652MOL0     C87951   0.234   7.993   4.067  0.4088  0.6594  0.9294
  652MOL0     C87952   0.289   7.944   3.931 -0.3539  0.0842 -0.3120
  652MOL0     H87953   0.663   8.340   4.369  0.6632  1.8619 -1.9270
  652MOL0     H87954   0.906   8.359   4.401  0.0345 -0.0445 -0.5208
  652MOL0     H87955   1.145   8.310   4.415 -0.0797 -0.8902 -4.4972
  652MOL0     H87956   1.093   8.194   4.550  0.8185 -3.2593  0.7545
  652MOL0     H87957   1.304   8.104   4.370 -0.7409  0.1867 -0.0476
  652MOL0     H87958   1.301   8.071   4.532 -0.9523  1.8992  1.3351
  652MOL0     H87959   1.378   8.319   4.571  0.5966  1.4867 -0.8614
  652MOL0     H87960   1.397   8.327   4.399 -0.7586  1.6595  1.7369
  652MOL0     H87961   1.554   8.145   4.590 -3.5555  1.3117  1.6233
  652MOL0     H87962   1.542   8.123   4.412 -2.7523  2.2988 -1.6977
  652MOL0     H87963   1.658   8.310   4.354 -1.0330  1.3583  0.0556
  652MOL0     H87964   1.600   8.386   4.502  0.0696  0.4938 -1.4635
  652MOL0     H87965   1.852   8.333   4.510  0.6102 -0.9188 -1.8198
  652MOL0     H87966   1.747   8.251   4.635 -2.6189  0.2568  0.0698
  652MOL0     H87967   1.843   8.143   4.370  3.1293 -0.1043  0.5554
  652MOL0     H87968   1.754   8.046   4.480  0.7445 -0.7260 -1.5261
  652MOL0     H87969   2.033   8.046   4.491 -1.2857 -0.4164 -0.5334
  652MOL0     H87970   2.015   8.174   4.597  1.6309  0.0047 -1.6677
  652MOL0     H87971   1.907   7.814   4.588 -1.0600 -1.1563  0.1435
  652MOL0     H87972   1.699   7.710   4.892  1.5608  0.5572  2.1202
  652MOL0     H87973   1.743   7.664   4.735 -0.2682 -0.5582  0.4957
  652MOL0     H87974   1.893   7.635   5.000 -1.3809 -2.0025  0.5049
  652MOL0     H87975   1.846   7.512   4.885 -0.5108  0.0052  1.7788
  652MOL0     H87976   2.063   7.715   4.811 -2.1667  0.4655  0.1026
  652MOL0     H87977   2.014   7.567   4.726  0.7741  0.0742  0.9832
  652MOL0     H87978   2.079   7.420   4.917  1.4544 -1.4938 -1.0296
  652MOL0     H87979   2.157   7.566   4.991  0.0541  0.4491 -0.3450
  652MOL0     H87980   2.316   7.416   5.068  1.6022  0.0415  0.9256
  652MOL0     H87981   2.544   7.385   5.145  0.6694  0.1144 -0.0761
  652MOL0     H87982   2.751   7.096   5.244  0.6818 -0.3262  1.1186
  652MOL0     H87983   2.909   6.947   5.321 -1.5874 -0.5262 -1.4170
  652MOL0     H87984   3.128   6.807   5.229 -0.8089 -0.3676 -0.2004
  652MOL0     H87985   3.246   6.909   5.134  1.0076  0.9973  1.4652
  652MOL0     H87986   3.298   6.772   5.395 -2.2364  0.2444 -0.3163
  652MOL0     H87987   3.349   6.724   5.239 -0.6419  1.1876 -1.3164
  652MOL0     H87988   3.481   6.929   5.202  0.9146 -1.5837 -0.5454
  652MOL0     H87989   3.434   6.990   5.364 -2.8150 -0.6776 -1.1645
  652MOL0     H87990   3.661   6.881   5.348 -2.3267  3.2670  1.4978
  652MOL0     H87991   3.591   6.737   5.312  3.0457  1.5010 -1.2050
  652MOL0     H87992   3.471   6.716   5.516 -0.8043  0.4812  0.3969
  652MOL0     H87993   3.500   6.881   5.561 -3.6775 -0.8675 -1.4788
  652MOL0     H87994   3.707   6.643   5.520 -4.0678 -1.0628 -1.1298
  652MOL0     H87995   3.755   6.818   5.545 -0.7759 -0.0182  1.3424
  652MOL0     H87996   3.578   6.651   5.728  1.8746 -2.3567  2.3688
  652MOL0     H87997   3.619   6.813   5.761 -2.5560 -0.6364  0.7519
  652MOL0     H87998   3.870   6.660   5.737  1.6877  4.8213 -0.4666
  652MOL0     H87999   3.808   6.767   5.861  1.1855  0.3843 -0.7211
  652MOL0     H88000   3.220   7.196   5.146 -1.0248  0.2255 -1.5537
  652MOL0     H88001   3.048   7.338   5.043  0.8442  1.2343  1.9532
  652MOL0     H88002   2.699   7.488   4.763  1.4493 -2.6720  0.3085
  652MOL0     H88003   2.462   7.533   4.671 -2.2335 -2.2417 -1.5102
  652MOL0     H88004   0.952   7.958   4.250 -0.9777 -0.5490  1.8066
  652MOL0     H88005   0.703   7.929   4.249  0.0408 -1.5432  5.3485
  652MOL0     H88006   0.296   8.117   4.387  2.3571 -3.0954  0.9914
  652MOL0     H88007   0.088   8.061   4.429  2.4849 -0.7879  0.6635
  652MOL0     H88008  -0.156   8.038   4.420  0.3685 -0.3966 -0.4451
  652MOL0     H88009  -0.100   7.867   4.418 -0.6519 -1.4928 -1.0437
  652MOL0     H88010  -0.368   7.900   4.433 -0.1269 -3.8662 -0.8520
  652MOL0     H88011  -0.306   7.810   4.309  0.9579  1.1311 -0.6100
  652MOL0     H88012  -0.315   8.093   4.219  0.1519  0.0230  2.4651
  652MOL0     H88013  -0.460   8.047   4.291  2.6010  1.0487  3.2606
  652MOL0     H88014  -0.430   8.019   4.040  2.5121  1.6104  1.0925
  652MOL0     H88015  -0.296   7.906   4.089  1.2611  1.4922  1.7411
  652MOL0     H88016  -0.639   7.658   4.079 -0.8791 -0.0646  0.0908
  652MOL0     H88017   0.034   7.929   4.017  1.0763 -1.0547  0.7140
  652MOL0     H88018   0.361   7.862   3.939 -0.2264  0.1465 -0.7638
  652MOL0     H88019   0.203   7.914   3.870 -0.2883 -0.7599  0.0083
  652MOL0     H88020   0.349   8.026   3.890 -1.3973  0.8565 -0.3208
  653MOL0     O88021   7.452  10.082   1.990 -0.1307  0.6396 -0.6694
  653MOL0     C88022   7.407  10.127   2.096  0.1863 -0.7772  0.4712
  653MOL0     O88023   7.482  10.142   2.206 -0.7024 -0.2324 -0.7603
  653MOL0     C88024   7.614  10.089   2.218  0.2755 -0.4274  0.2599
  653MOL0     C88025   7.707  10.185   2.265 -0.3072  0.2071  0.2278
  653MOL0     C88026   7.842  10.156   2.277 -0.3510 -0.2369 -0.1929
  653MOL0     C88027   7.886  10.019   2.265  0.4001 -1.0915  0.1033
  653MOL0     O88028   8.008   9.981   2.308 -0.2349  0.3651  0.2470
  653MOL0     C88029   8.105  10.041   2.222  0.5845  0.0486  0.9763
  653MOL0     C88030   8.242   9.962   2.241  0.2570 -0.1534 -1.2978
  653MOL0     C88031   8.345  10.020   2.345  0.2339 -0.0489 -0.2517
  653MOL0     C88032   8.480   9.953   2.321 -0.0765  0.0328 -0.0382
  653MOL0     C88033   8.579  10.001   2.425 -0.0380 -0.1586  0.3230
  653MOL0     C88034   8.705   9.924   2.422  0.0257 -0.1797 -1.2531
  653MOL0     C88035   8.796   9.993   2.527  0.4689  0.2751  0.0316
  653MOL0     C88036   8.872  10.115   2.476  1.2135  0.2646  0.7076
  653MOL0     N88037   8.941  10.190   2.584 -1.3651 -0.0915 -0.0406
  653MOL0     C88038   8.961  10.326   2.589 -1.3242  0.1944  0.4243
  653MOL0     C88039   9.061  10.334   2.685 -0.1080 -0.1000 -0.0311
  653MOL0     C88040   9.117  10.473   2.697  0.0442 -0.4805 -0.4253
  653MOL0     C88041   9.168  10.510   2.833 -1.0128  0.0964 -0.0410
  653MOL0     C88042   9.293  10.438   2.884 -0.3769  0.2417  0.3218
  653MOL0     C88043   9.417  10.446   2.806  0.3903  0.0193  0.2613
  653MOL0     O88044   9.521  10.369   2.874  0.0850  0.4421 -0.3361
  653MOL0     C88045   9.626  10.333   2.787 -0.2541 -1.0778  0.0029
  653MOL0     C88046   9.639  10.204   2.735  0.6430  0.6180 -0.5948
  653MOL0     C88047   9.732  10.168   2.635 -0.0968 -0.8843  0.4625
  653MOL0     C88048   9.821  10.269   2.587 -0.2340 -0.5868 -0.7453
  653MOL0     C88049   9.926  10.235   2.493  0.8780  0.0008  0.6656
  653MOL0     O88050   9.933  10.101   2.452 -0.0828 -0.4976 -0.3964
  653MOL0     C88051  10.046  10.032   2.400  0.0652 -1.2041  1.6502
  653MOL0     C88052  10.177  10.097   2.408 -0.2025 -0.3884  0.0248
  653MOL0     C88053  10.279  10.045   2.331 -0.0368 -0.3713 -1.0020
  653MOL0     C88054  10.262   9.924   2.255  0.4263  0.9569 -1.2954
  653MOL0     O88055  10.357   9.852   2.180  0.1350  0.0863 -0.1591
  653MOL0     C88056  10.480   9.918   2.148  0.5778  0.5579 -0.8552
  653MOL0     C88057  10.592   9.829   2.108  0.2458  0.2405  0.7175
  653MOL0     C88058  10.719   9.916   2.064  0.4645  0.7761  0.4590
  653MOL0     C88059  10.787   9.980   2.190  0.3185 -0.8628 -0.0154
  653MOL0     C88060  10.923  10.042   2.154  0.5757  0.9943  0.1255
  653MOL0     C88061  10.950  10.167   2.233 -0.1715  0.3495 -0.0115
  653MOL0     C88062  11.105  10.177   2.249  0.2261 -0.2074  0.6614
  653MOL0     C88063  11.130  10.312   2.323  0.2923  0.2098 -0.8348
  653MOL0    Cl88064  11.054  10.325   2.487  0.5814 -0.0113 -0.1036
  653MOL0     C88065  10.133   9.857   2.260  1.0108  0.8462 -0.4671
  653MOL0     C88066  10.028   9.911   2.330  0.3880 -0.6370  0.1217
  653MOL0     O88067  10.004  10.323   2.454  0.2637  0.3900  0.3333
  653MOL0     C88068   9.817  10.406   2.645  0.7518  0.5393 -1.0293
  653MOL0     C88069   9.724  10.429   2.747  0.1464  0.3856 -0.1471
  653MOL0     N88070   9.097  10.212   2.734 -0.7257  0.0165  0.1282
  653MOL0     N88071   9.017  10.125   2.675 -0.1588 -0.2738 -0.6462
  653MOL0     C88072   7.787   9.924   2.226 -0.0559  0.9897  0.5967
  653MOL0     C88073   7.660   9.955   2.198  0.4008  0.5638 -0.2573
  653MOL0     C88074   7.266  10.187   2.107  1.3711  0.0095  0.2913
  653MOL0     C88075   7.223  10.254   2.223 -1.1837  0.1566 -0.2342
  653MOL0     C88076   7.093  10.297   2.236  0.7858 -0.5667  0.6009
  653MOL0     C88077   6.998  10.279   2.143  0.3847 -0.7322  0.5771
  653MOL0     O88078   6.870  10.321   2.156 -0.1630 -0.8489 -0.1735
  653MOL0     C88079   6.835  10.453   2.193  0.0658 -0.7281  0.3518
  653MOL0     C88080   6.709  10.495   2.121  0.4289  0.6645  0.0340
  653MOL0     C88081   6.680  10.642   2.130 -0.0459 -0.3526 -0.3329
  653MOL0     C88082   6.540  10.662   2.200 -0.3227  0.7089  0.2819
  653MOL0     C88083   6.420  10.627   2.123 -0.1734 -0.0440  0.3709
  653MOL0     C88084   6.316  10.622   2.061 -0.5014  1.0698  0.8269
  653MOL0     C88085   7.041  10.225   2.024  0.2831 -0.0890 -0.6475
  653MOL0     C88086   7.170  10.176   1.998  0.1496  0.1842  0.0646
  653MOL0     C88087   7.183  10.107   1.869 -0.0613  0.2622 -0.1262
  653MOL0     H88088   7.670  10.284   2.290 -1.5120 -0.0976 -0.2382
  653MOL0     H88089   7.912  10.228   2.317  0.9527 -0.3371 -2.1680
  653MOL0     H88090   8.074  10.035   2.117  0.6970  0.7393  0.8938
  653MOL0     H88091   8.123  10.146   2.249  0.0661  1.0909 -2.2537
  653MOL0     H88092   8.299   9.978   2.149  0.2707 -0.2440 -1.3052
  653MOL0     H88093   8.231   9.854   2.252 -0.0994  0.0532  0.8666
  653MOL0     H88094   8.305   9.987   2.441 -0.4393  0.8324 -0.2228
  653MOL0     H88095   8.343  10.129   2.338 -2.7618  0.1597  1.9540
  653MOL0     H88096   8.456   9.846   2.322 -2.2102  0.4658  0.6960
  653MOL0     H88097   8.521   9.982   2.224  1.6216  1.5017  1.0539
  653MOL0     H88098   8.595  10.105   2.395  0.7364 -0.6884 -1.1868
  653MOL0     H88099   8.534   9.993   2.525 -0.0161 -0.6931  0.2948
  653MOL0     H88100   8.697   9.818   2.447 -1.9460 -0.3423 -2.3664
  653MOL0     H88101   8.754   9.927   2.324  0.7742 -1.4752 -0.9450
  653MOL0     H88102   8.869   9.923   2.568  0.2251 -0.6999 -1.1638
  653MOL0     H88103   8.743  10.024   2.618  2.5189  1.4396  0.9070
  653MOL0     H88104   8.929  10.084   2.387 -0.3536  0.8930 -0.5770
  653MOL0     H88105   8.796  10.186   2.440  0.8488  0.5051  1.9128
  653MOL0     H88106   8.915  10.402   2.528 -1.4922  0.1739  0.5250
  653MOL0     H88107   9.201  10.483   2.628  1.2015 -0.5888  0.9162
  653MOL0     H88108   9.040  10.544   2.663  0.2758  1.1145  2.0733
  653MOL0     H88109   9.192  10.616   2.837  2.6010 -0.4899 -2.1743
  653MOL0     H88110   9.086  10.498   2.904 -0.6393  0.6450  0.4924
  653MOL0     H88111   9.274  10.335   2.916  1.3051 -0.1192  0.2545
  653MOL0     H88112   9.326  10.471   2.983  1.0385  0.4343 -0.1857
  653MOL0     H88113   9.456  10.548   2.791  0.8563 -0.3965 -1.5460
  653MOL0     H88114   9.403  10.422   2.700  0.9277  0.6197  0.0494
  653MOL0     H88115   9.573  10.135   2.786  1.4645  2.1675  2.8810
  653MOL0     H88116   9.739  10.063   2.607  1.3943 -1.5579  3.1111
  653MOL0     H88117  10.186  10.187   2.469 -0.9205 -1.2332  1.4251
  653MOL0     H88118  10.368  10.107   2.326 -0.2223  0.0287  0.2732
  653MOL0     H88119  10.448   9.971   2.058 -0.5034  0.7234 -0.3897
  653MOL0     H88120  10.510   9.987   2.226  0.6981 -1.2124  0.7419
  653MOL0     H88121  10.625   9.760   2.186  1.1635 -0.9998 -0.7187
  653MOL0     H88122  10.553   9.782   2.017 -0.8981 -0.3925  1.5116
  653MOL0     H88123  10.786   9.839   2.023  1.5512  1.1518  1.4552
  653MOL0     H88124  10.699   9.989   1.985 -1.1205 -1.3639 -1.2489
  653MOL0     H88125  10.812   9.907   2.268  2.0605  0.4752  0.7404
  653MOL0     H88126  10.725  10.063   2.224 -0.8848 -1.9091  0.4564
  653MOL0     H88127  10.919  10.074   2.050  0.9273 -0.7448 -0.4447
  653MOL0     H88128  10.997   9.964   2.175 -1.2455 -0.8543 -0.0063
  653MOL0     H88129  10.917  10.248   2.168  1.1576  1.3635  0.5170
  653MOL0     H88130  10.906  10.165   2.333 -1.0369 -1.0303 -0.3932
  653MOL0     H88131  11.162  10.181   2.156  0.6689  2.4674  0.9663
  653MOL0     H88132  11.132  10.098   2.320 -0.9420 -1.3661 -0.1282
  653MOL0     H88133  11.238  10.331   2.330  0.5424 -1.4104  0.2647
  653MOL0     H88134  11.097  10.397   2.262  1.9233  0.3441 -1.5812
  653MOL0     H88135  10.118   9.759   2.216  0.5318 -0.3930  2.2785
  653MOL0     H88136   9.927   9.872   2.321  0.0466  0.6118 -2.2792
  653MOL0     H88137   9.880  10.488   2.613  1.3121  0.7747  0.5976
  653MOL0     H88138   9.736  10.526   2.794 -1.6778  0.8994 -0.6400
  653MOL0     H88139   7.815   9.822   2.202 -2.7350  0.1382  0.7944
  653MOL0     H88140   7.590   9.875   2.173  0.3776  1.0234 -1.7738
  653MOL0     H88141   7.291  10.267   2.307 -0.0683  3.8456 -1.5160
  653MOL0     H88142   7.070  10.359   2.323 -2.2706  2.3787 -2.0315
  653MOL0     H88143   6.917  10.521   2.169 -0.8134  0.0606 -0.4287
  653MOL0     H88144   6.826  10.470   2.301  2.0203  0.3557  0.3950
  653MOL0     H88145   6.622  10.437   2.152 -0.0117  0.7296 -1.0357
  653MOL0     H88146   6.729  10.468   2.017  3.0152  1.4002  0.2599
  653MOL0     H88147   6.689  10.701   2.038  1.4695 -1.7171 -1.1129
  653MOL0     H88148   6.752  10.692   2.195 -0.4535  1.0189 -0.9156
  653MOL0     H88149   6.543  10.604   2.293 -1.5190  0.9539  0.4916
  653MOL0     H88150   6.515  10.762   2.237 -2.9989 -0.0367  0.7314
  653MOL0     H88151   6.237  10.600   1.992  1.2464  0.8698 -1.2162
  653MOL0     H88152   6.967  10.216   1.944 -3.8165  0.7170  2.7075
  653MOL0     H88153   7.217  10.006   1.893 -1.6488 -0.0817  0.7724
  653MOL0     H88154   7.093  10.103   1.807 -0.6121 -0.9765  0.7241
  653MOL0     H88155   7.266  10.160   1.821 -0.1305  0.5313  0.0473
  654MOL0     O88156   7.762   9.006   6.555  0.3027 -0.6106 -0.9277
  654MOL0     C88157   7.792   8.892   6.580 -0.3088  0.3959 -0.9955
  654MOL0     O88158   7.885   8.856   6.678 -0.2218  0.2823  0.0823
  654MOL0     C88159   7.952   8.953   6.749  0.1060  1.4972 -0.5129
  654MOL0     C88160   7.892   9.030   6.844  0.8352 -0.4394  0.5712
  654MOL0     C88161   7.968   9.128   6.908  0.1166 -1.0199  0.5796
  654MOL0     C88162   8.101   9.155   6.877  0.9028  0.2982  0.0938
  654MOL0     O88163   8.187   9.240   6.944  0.0223 -0.0241  0.0009
  654MOL0     C88164   8.132   9.334   7.043  0.0087 -0.2238  0.2333
  654MOL0     C88165   8.222   9.456   7.063 -0.8215 -0.3067  0.4751
  654MOL0     C88166   8.359   9.426   7.114 -0.4319 -0.4992  0.4158
  654MOL0     C88167   8.445   9.549   7.134  0.8403  1.0441  0.5080
  654MOL0     C88168   8.593   9.501   7.158 -0.6761  0.5165 -0.6645
  654MOL0     C88169   8.615   9.430   7.295  0.5633 -0.0304 -0.0771
  654MOL0     C88170   8.759   9.396   7.332  0.0350 -0.2499  0.2259
  654MOL0     C88171   8.796   9.252   7.289  0.6144 -0.0090  1.1926
  654MOL0     N88172   8.942   9.229   7.275  0.1721  0.0181 -0.1737
  654MOL0     C88173   9.016   9.151   7.357  0.2335 -0.7470 -0.5302
  654MOL0     C88174   9.136   9.129   7.297 -0.0915 -0.5768  0.2641
  654MOL0     C88175   9.254   9.057   7.349 -0.4348 -0.0084 -0.9018
  654MOL0     C88176   9.274   9.082   7.496 -0.1875 -0.1638 -0.1344
  654MOL0     C88177   9.339   9.221   7.531  0.7560  0.7963  0.4253
  654MOL0     C88178   9.486   9.222   7.493 -0.7485 -0.2636 -0.8463
  654MOL0     O88179   9.550   9.337   7.546 -1.0635 -0.0686 -0.3429
  654MOL0     C88180   9.683   9.355   7.531  0.4503  0.9590  0.2910
  654MOL0     C88181   9.766   9.278   7.447  0.4326 -0.4766  1.0929
  654MOL0     C88182   9.907   9.311   7.439  0.4449  1.1470  0.3889
  654MOL0     C88183   9.957   9.426   7.502  1.0192  0.7959  0.1467
  654MOL0     C88184  10.088   9.481   7.465  0.5472  0.2946  0.6140
  654MOL0     O88185  10.114   9.620   7.471  0.2712 -0.5394 -0.3204
  654MOL0     C88186  10.247   9.653   7.467  0.9834 -0.0457 -0.4521
  654MOL0     C88187  10.325   9.654   7.587  0.9776 -0.3795  1.0838
  654MOL0     C88188  10.460   9.681   7.586  0.0666  0.4983  0.6835
  654MOL0     C88189  10.521   9.713   7.459 -0.1363  0.2020  0.6999
  654MOL0     O88190  10.660   9.734   7.469 -0.0291 -0.3765 -0.5039
  654MOL0     C88191  10.726   9.677   7.356 -0.3247  1.1313  0.6873
  654MOL0     C88192  10.869   9.627   7.394  0.0456 -0.0968  0.0577
  654MOL0     C88193  10.969   9.734   7.431  0.6310 -0.0962  0.1687
  654MOL0     C88194  11.103   9.667   7.469  0.1875 -0.2900 -0.6145
  654MOL0     C88195  11.226   9.752   7.462  1.0871  0.1428  0.8372
  654MOL0     C88196  11.264   9.834   7.582  0.3299 -0.6990 -0.5449
  654MOL0     C88197  11.379   9.936   7.549 -0.3024 -0.5679  0.1160
  654MOL0     C88198  11.512   9.870   7.518 -0.4338  0.1886 -0.4433
  654MOL0    Cl88199  11.616  10.011   7.468 -0.2897 -0.4614 -0.1091
  654MOL0     C88200  10.444   9.722   7.342 -0.4755  0.0923  0.7269
  654MOL0     C88201  10.306   9.685   7.347  0.2126 -0.1486 -0.2442
  654MOL0     O88202  10.169   9.393   7.439 -0.6076 -0.1923  0.0214
  654MOL0     C88203   9.869   9.499   7.582 -0.0879  0.4943 -0.4919
  654MOL0     C88204   9.737   9.463   7.598 -0.7188 -0.1726  0.2650
  654MOL0     N88205   9.124   9.197   7.170 -0.6367 -0.5050 -0.0459
  654MOL0     N88206   9.008   9.251   7.160  0.6467 -0.0344  0.1078
  654MOL0     C88207   8.159   9.077   6.772  0.1695 -0.1949 -0.1033
  654MOL0     C88208   8.084   8.979   6.708 -0.1653 -1.6560  0.4511
  654MOL0     C88209   7.722   8.780   6.503 -0.1367 -0.2803 -0.0220
  654MOL0     C88210   7.784   8.651   6.492 -0.2052  0.5176 -0.0717
  654MOL0     C88211   7.730   8.550   6.414 -0.4192 -0.6609 -0.1307
  654MOL0     C88212   7.609   8.564   6.350  0.4162 -0.6245  0.5025
  654MOL0     O88213   7.570   8.455   6.268 -0.3891 -1.1489 -0.5670
  654MOL0     C88214   7.434   8.425   6.258 -0.5445 -0.6124  0.2386
  654MOL0     C88215   7.431   8.276   6.234  0.2643 -0.3712  0.6114
  654MOL0     C88216   7.285   8.228   6.235 -0.0535 -0.3673  0.0234
  654MOL0     C88217   7.275   8.075   6.216 -0.3567 -0.1518  0.5876
  654MOL0     C88218   7.146   8.038   6.164 -0.0758  0.1192  1.7714
  654MOL0     C88219   7.041   8.007   6.116 -0.5843 -0.2611 -0.5115
  654MOL0     C88220   7.541   8.682   6.364 -0.0493  0.0143 -0.3420
  654MOL0     C88221   7.598   8.792   6.436  0.2562  0.5323 -0.6213
  654MOL0     C88222   7.515   8.921   6.449  0.3725  0.6199 -0.3497
  654MOL0     H88223   7.787   9.011   6.865  0.7157  0.0067  0.3818
  654MOL0     H88224   7.929   9.186   6.992 -0.2601 -1.8442  0.9821
  654MOL0     H88225   8.042   9.383   7.003  2.0989  3.6625 -0.1860
  654MOL0     H88226   8.114   9.286   7.139 -0.0010 -2.9461 -1.0444
  654MOL0     H88227   8.179   9.528   7.133 -1.1521  0.0562 -0.0925
  654MOL0     H88228   8.224   9.505   6.965  0.5820 -1.5201 -0.1348
  654MOL0     H88229   8.411   9.358   7.046 -3.1945 -1.4487 -0.8570
  654MOL0     H88230   8.346   9.376   7.211 -3.0834 -0.8121 -0.0347
  654MOL0     H88231   8.451   9.613   7.046 -3.2007  0.7813 -0.1559
  654MOL0     H88232   8.407   9.609   7.217 -0.0420  0.8448  0.2655
  654MOL0     H88233   8.628   9.431   7.082  0.7156 -0.6072  0.9092
  654MOL0     H88234   8.661   9.587   7.149 -0.1707  0.4118  1.4380
  654MOL0     H88235   8.574   9.487   7.379 -0.0146  0.5874 -0.7720
  654MOL0     H88236   8.565   9.333   7.303  0.8643 -0.1164  1.0272
  654MOL0     H88237   8.770   9.393   7.441  1.5078 -2.5252  0.0789
  654MOL0     H88238   8.835   9.465   7.292 -0.2792  0.2193  0.4341
  654MOL0     H88239   8.747   9.164   7.333  1.4760 -2.4499 -2.2544
  654MOL0     H88240   8.757   9.246   7.187  0.8996  0.4390  1.0559
  654MOL0     H88241   8.976   9.099   7.444 -3.3369  0.0464 -1.5316
  654MOL0     H88242   9.247   8.950   7.327 -0.3731 -0.3038  0.4565
  654MOL0     H88243   9.343   9.090   7.295 -1.0401  2.0500 -0.7267
  654MOL0     H88244   9.178   9.076   7.548 -0.5198 -2.6402 -0.8805
  654MOL0     H88245   9.327   8.998   7.542 -1.1108  0.3048  1.9203
  654MOL0     H88246   9.343   9.233   7.639 -1.9337  0.5767  0.6129
  654MOL0     H88247   9.280   9.302   7.487 -1.6316  0.2602  2.4278
  654MOL0     H88248   9.495   9.226   7.384 -3.5005  0.4813 -1.1094
  654MOL0     H88249   9.536   9.132   7.530 -0.9258  0.3426  0.9290
  654MOL0     H88250   9.733   9.203   7.376 -0.5074 -1.2778  2.3425
  654MOL0     H88251   9.969   9.251   7.372 -0.4515  1.6244 -0.8836
  654MOL0     H88252  10.270   9.640   7.680 -0.9741  1.2602  0.2426
  654MOL0     H88253  10.535   9.673   7.664  0.3396 -0.7998  0.3183
  654MOL0     H88254  10.672   9.593   7.311  0.0513  0.5888  1.2366
  654MOL0     H88255  10.746   9.748   7.275  0.6393  0.3757  0.2435
  654MOL0     H88256  10.844   9.563   7.479 -3.8371 -1.2182 -1.7154
  654MOL0     H88257  10.902   9.556   7.317 -0.0164  0.1226 -0.1741
  654MOL0     H88258  10.981   9.791   7.338 -0.8425 -0.7281 -0.4292
  654MOL0     H88259  10.930   9.790   7.515 -3.8536 -0.6730 -1.2660
  654MOL0     H88260  11.114   9.581   7.402 -1.7551 -0.3037 -0.9854
  654MOL0     H88261  11.105   9.632   7.572  0.1365 -2.2116 -1.2390
  654MOL0     H88262  11.208   9.812   7.372 -0.0275 -1.2295  0.1072
  654MOL0     H88263  11.310   9.687   7.438 -0.7758 -2.2940  0.4947
  654MOL0     H88264  11.176   9.891   7.615 -0.2190 -1.4065 -0.7554
  654MOL0     H88265  11.290   9.775   7.670  1.3013 -2.7784 -2.1407
  654MOL0     H88266  11.391  10.007   7.630 -0.3427 -1.2363  0.7140
  654MOL0     H88267  11.344  10.001   7.468  1.2983  0.7291  0.4421
  654MOL0     H88268  11.547   9.825   7.611  1.0642  1.8885 -0.1269
  654MOL0     H88269  11.496   9.796   7.439 -1.7565  0.7424 -0.7337
  654MOL0     H88270  10.487   9.766   7.253 -3.6005  0.5444 -0.6803
  654MOL0     H88271  10.248   9.702   7.257  0.7933 -2.0062 -1.0248
  654MOL0     H88272   9.906   9.587   7.633 -2.4090 -0.4137  3.1425
  654MOL0     H88273   9.670   9.518   7.663 -0.9982  0.6459 -0.6807
  654MOL0     H88274   8.267   9.091   6.762  0.3186 -0.8830  0.4344
  654MOL0     H88275   8.121   8.941   6.613  0.4418  1.9578 -0.8889
  654MOL0     H88276   7.888   8.638   6.521  0.2175  0.0883 -1.6796
  654MOL0     H88277   7.784   8.458   6.397  3.8007  1.9146 -2.4947
  654MOL0     H88278   7.393   8.477   6.171 -1.2766  1.7229  1.8737
  654MOL0     H88279   7.383   8.453   6.351  1.4707  1.6845  0.7471
  654MOL0     H88280   7.487   8.229   6.315  0.7207 -1.7054 -0.4374
  654MOL0     H88281   7.486   8.262   6.140  1.7993  2.4914  0.9734
  654MOL0     H88282   7.224   8.285   6.165  1.0009  1.7034  0.7300
  654MOL0     H88283   7.256   8.248   6.339  2.4573  0.0466  0.7066
  654MOL0     H88284   7.343   8.033   6.141 -0.4583 -3.7924  2.3133
  654MOL0     H88285   7.291   8.022   6.310 -1.4786 -2.7289 -0.5874
  654MOL0     H88286   6.948   7.971   6.077 -1.7368  2.6966 -0.7798
  654MOL0     H88287   7.445   8.696   6.315  0.1523  0.3880 -0.6409
  654MOL0     H88288   7.574   9.007   6.413  0.7735 -1.0609 -4.2285
  654MOL0     H88289   7.437   8.920   6.373  1.8936 -0.9330 -1.9872
  654MOL0     H88290   7.470   8.929   6.548 -0.6563 -4.2798 -0.1938
  655MOL0     O88291   1.466   5.475   1.791  0.0525  0.1925  0.2754
  655MOL0     C88292   1.444   5.414   1.895  0.0200  0.3057  1.4958
  655MOL0     O88293   1.538   5.330   1.954 -0.9114 -0.3374 -0.3169
  655MOL0     C88294   1.663   5.340   1.904 -0.4222  0.2629  0.1457
  655MOL0     C88295   1.763   5.410   1.981  0.1135  0.3275  0.3365
  655MOL0     C88296   1.888   5.441   1.923  0.4805  0.2689 -0.4883
  655MOL0     C88297   1.924   5.407   1.790  0.0526  0.6210 -1.0021
  655MOL0     O88298   2.036   5.449   1.730 -0.3448  0.5236  0.3317
  655MOL0     C88299   2.157   5.387   1.785 -0.6839 -0.1072 -0.4186
  655MOL0     C88300   2.266   5.368   1.689  0.0468 -0.1290 -0.7482
  655MOL0     C88301   2.408   5.330   1.728  0.2721 -1.1115  0.2712
  655MOL0     C88302   2.445   5.419   1.841 -0.3498  0.4075 -0.0229
  655MOL0     C88303   2.596   5.399   1.880  0.2669  0.3180 -0.4699
  655MOL0     C88304   2.701   5.458   1.785 -0.2749  0.4437  0.3093
  655MOL0     C88305   2.845   5.452   1.850  0.3084  0.5137 -0.7491
  655MOL0     C88306   2.883   5.305   1.876  0.5420  0.4082 -0.0626
  655MOL0     N88307   3.024   5.293   1.836 -0.0830 -0.2232 -0.0381
  655MOL0     C88308   3.133   5.276   1.920 -0.7119 -0.0555  0.4312
  655MOL0     C88309   3.237   5.260   1.837 -0.2317  0.3022  0.3492
  655MOL0     C88310   3.381   5.237   1.888 -0.5868  0.1657  0.0316
  655MOL0     C88311   3.467   5.361   1.865 -0.7933  0.3590  0.5494
  655MOL0     C88312   3.551   5.350   1.742 -0.1262 -0.1671 -0.1455
  655MOL0     C88313   3.637   5.466   1.714  0.2876 -0.0503 -0.6762
  655MOL0     O88314   3.737   5.470   1.815  1.2033  0.7136  0.4765
  655MOL0     C88315   3.844   5.547   1.786 -0.7970 -0.6745 -0.0210
  655MOL0     C88316   3.961   5.525   1.863 -0.2616  0.0555 -0.3307
  655MOL0     C88317   4.074   5.610   1.867  0.9919 -0.9711  0.7881
  655MOL0     C88318   4.072   5.732   1.785 -0.1311  0.9739  0.5722
  655MOL0     C88319   4.189   5.818   1.774 -0.0264 -0.2844  0.4284
  655MOL0     O88320   4.303   5.764   1.818 -0.4464  0.2169  0.0912
  655MOL0     C88321   4.409   5.856   1.816 -0.2409  0.0047 -0.5998
  655MOL0     C88322   4.474   5.908   1.705  0.2450  0.5694  0.3033
  655MOL0     C88323   4.556   6.016   1.726  0.5433 -0.0320  0.2174
  655MOL0     C88324   4.590   6.068   1.852 -0.1669  0.5967  0.5170
  655MOL0     O88325   4.678   6.168   1.883  0.4937 -0.0873 -0.4074
  655MOL0     C88326   4.755   6.239   1.778 -0.0564 -0.3741 -0.6444
  655MOL0     C88327   4.827   6.355   1.852  0.2966  0.1713  0.0185
  655MOL0     C88328   4.931   6.317   1.959 -0.1124  0.4914 -0.0358
  655MOL0     C88329   4.870   6.298   2.095 -0.2812 -0.8433 -0.3340
  655MOL0     C88330   4.963   6.224   2.189 -0.0758 -0.5617 -0.0751
  655MOL0     C88331   4.897   6.171   2.323 -0.1185 -0.7647 -0.2184
  655MOL0     C88332   5.018   6.116   2.407  1.0041 -0.9370 -0.3713
  655MOL0     C88333   4.981   6.028   2.518  0.0605  0.1410 -0.6462
  655MOL0    Cl88334   5.036   6.091   2.683  0.3405  0.0811 -0.0179
  655MOL0     C88335   4.538   6.004   1.956 -1.0474  0.3770  0.3259
  655MOL0     C88336   4.445   5.901   1.944 -1.1149  0.4147  0.6477
  655MOL0     O88337   4.174   5.929   1.728  0.0241 -0.3513 -0.0728
  655MOL0     C88338   3.958   5.739   1.700 -0.1573  0.1379  0.2536
  655MOL0     C88339   3.846   5.651   1.693  0.3622  0.3442  0.0200
  655MOL0     N88340   3.187   5.254   1.707 -0.2375 -0.2935  0.3966
  655MOL0     N88341   3.067   5.289   1.704  0.0582  0.3631 -0.1290
  655MOL0     C88342   1.833   5.323   1.726  0.2465  0.1507 -0.2347
  655MOL0     C88343   1.706   5.279   1.782  0.0395 -0.6519  0.7044
  655MOL0     C88344   1.305   5.425   1.950 -0.5817  1.4341 -0.3612
  655MOL0     C88345   1.203   5.481   1.870  0.2851 -0.5367  0.5014
  655MOL0     C88346   1.085   5.522   1.930  0.0691 -0.3327 -0.1649
  655MOL0     C88347   1.050   5.484   2.058  0.7139  0.1562  0.1943
  655MOL0     O88348   0.918   5.490   2.098  0.2261 -1.0288  0.6390
  655MOL0     C88349   0.899   5.574   2.212 -0.3667 -0.1598  0.8067
  655MOL0     C88350   0.841   5.501   2.336 -0.2197  0.3253  0.0726
  655MOL0     C88351   0.687   5.473   2.313 -0.2044 -0.3533  0.5321
  655MOL0     C88352   0.615   5.369   2.409  0.6799 -0.4542  0.0953
  655MOL0     C88353   0.474   5.407   2.412  0.2201 -0.5663 -0.0219
  655MOL0     C88354   0.354   5.439   2.412 -0.4741 -0.3339  0.6976
  655MOL0     C88355   1.143   5.417   2.131  0.2783  1.1757 -0.0092
  655MOL0     C88356   1.273   5.388   2.085  0.5089 -0.3629  0.6694
  655MOL0     C88357   1.379   5.324   2.189 -0.4722 -0.3212  0.0662
  655MOL0     H88358   1.729   5.438   2.080  0.6204  1.4908  0.2014
  655MOL0     H88359   1.954   5.504   1.981  0.7802  0.2564 -0.8142
  655MOL0     H88360   2.184   5.440   1.877  2.3731 -1.9111 -0.1493
  655MOL0     H88361   2.126   5.290   1.824 -1.0839  0.4434  0.6770
  655MOL0     H88362   2.267   5.469   1.647  0.9520  0.0042 -0.4332
  655MOL0     H88363   2.226   5.300   1.614 -1.8608 -1.9758  1.7760
  655MOL0     H88364   2.470   5.345   1.639 -0.0133 -3.1655 -0.3096
  655MOL0     H88365   2.430   5.227   1.756  2.2848 -0.9062 -0.3837
  655MOL0     H88366   2.432   5.526   1.821 -2.3344  0.1172 -0.4585
  655MOL0     H88367   2.383   5.385   1.925  1.9437 -1.5604  1.0164
  655MOL0     H88368   2.616   5.442   1.978 -0.0542 -0.6481  0.0308
  655MOL0     H88369   2.611   5.293   1.900  0.3595  0.3703 -0.2629
  655MOL0     H88370   2.705   5.399   1.693  0.3886 -0.3723  0.8418
  655MOL0     H88371   2.684   5.561   1.752 -1.0586  0.6937  1.4426
  655MOL0     H88372   2.833   5.493   1.951  2.1522  0.2533 -0.3917
  655MOL0     H88373   2.920   5.508   1.794  1.2852  0.5022  0.5179
  655MOL0     H88374   2.878   5.276   1.982 -1.3155 -0.7085 -0.4179
  655MOL0     H88375   2.814   5.245   1.816  0.8406  1.6796 -1.7333
  655MOL0     H88376   3.126   5.288   2.028  0.4676 -0.2648  0.5406
  655MOL0     H88377   3.380   5.205   1.992 -0.4188  0.5487  0.1494
  655MOL0     H88378   3.418   5.158   1.822 -1.1326  1.8954 -2.4985
  655MOL0     H88379   3.407   5.452   1.865 -0.9138  0.2919  1.2543
  655MOL0     H88380   3.538   5.365   1.949  0.5209 -0.9761 -0.4481
  655MOL0     H88381   3.477   5.333   1.664  0.1123  0.4246 -0.5032
  655MOL0     H88382   3.616   5.262   1.748  0.8696  0.4703 -1.2503
  655MOL0     H88383   3.569   5.551   1.699 -1.7506 -1.5170 -0.1013
  655MOL0     H88384   3.677   5.453   1.613 -0.4095 -2.9671 -0.6704
  655MOL0     H88385   3.963   5.434   1.922 -0.5110  0.2687  0.0101
  655MOL0     H88386   4.157   5.588   1.934  1.4208  1.4502  1.1540
  655MOL0     H88387   4.446   5.878   1.604 -0.1179 -0.7004  0.7641
  655MOL0     H88388   4.594   6.067   1.637 -0.4386 -0.7681 -0.6403
  655MOL0     H88389   4.826   6.164   1.741 -0.4955 -1.6981  1.1021
  655MOL0     H88390   4.698   6.278   1.692  0.1397 -1.2563 -1.1882
  655MOL0     H88391   4.879   6.417   1.778  1.5516 -0.7817  0.0582
  655MOL0     H88392   4.753   6.419   1.900  0.0778  0.5692 -0.8170
  655MOL0     H88393   4.981   6.222   1.937 -1.1018  0.0470 -0.4502
  655MOL0     H88394   5.001   6.400   1.971 -0.5737  0.5018  3.6666
  655MOL0     H88395   4.783   6.231   2.096 -2.3895  1.6467  2.8564
  655MOL0     H88396   4.834   6.393   2.136  1.5261 -0.6369  0.8608
  655MOL0     H88397   5.044   6.290   2.220 -0.7499  0.3176 -0.1342
  655MOL0     H88398   5.010   6.148   2.126 -1.6915  0.5169 -2.7564
  655MOL0     H88399   4.853   6.247   2.388 -0.3414 -2.5805  1.8990
  655MOL0     H88400   4.818   6.099   2.301 -3.2692  2.3798  0.0257
  655MOL0     H88401   5.094   6.189   2.433  2.5121 -2.2961 -0.8270
  655MOL0     H88402   5.075   6.045   2.346  2.4877  0.4214 -0.6181
  655MOL0     H88403   4.872   6.014   2.522  0.0392  0.4477  1.5405
  655MOL0     H88404   5.032   5.933   2.501 -0.0148 -0.3509  1.5137
  655MOL0     H88405   4.554   6.042   2.056 -0.0563 -1.1054  0.7509
  655MOL0     H88406   4.405   5.851   2.031  2.2414 -0.8223  1.6246
  655MOL0     H88407   3.950   5.820   1.628  1.1078 -0.0415 -0.1183
  655MOL0     H88408   3.766   5.663   1.620  1.6321 -0.6390 -1.5950
  655MOL0     H88409   1.861   5.291   1.626 -1.2044 -0.4297 -0.4827
  655MOL0     H88410   1.640   5.212   1.729  0.9027  0.3653 -1.7819
  655MOL0     H88411   1.223   5.512   1.767 -3.3684  1.6203  0.2381
  655MOL0     H88412   1.007   5.551   1.861 -0.2743  2.7051  1.3434
  655MOL0     H88413   0.837   5.655   2.172  3.7089  2.4488 -0.8819
  655MOL0     H88414   0.996   5.616   2.241 -0.5278  0.0233  1.0917
  655MOL0     H88415   0.850   5.562   2.427  0.2490  2.2003 -1.1828
  655MOL0     H88416   0.892   5.407   2.358  0.6408  1.0167  1.1602
  655MOL0     H88417   0.657   5.438   2.213 -0.3065  2.2900 -0.4211
  655MOL0     H88418   0.637   5.570   2.318  1.0352  0.3567 -0.2818
  655MOL0     H88419   0.624   5.267   2.369  1.3581  0.0587 -1.1052
  655MOL0     H88420   0.671   5.367   2.503 -0.7207 -0.0961  0.9606
  655MOL0     H88421   0.248   5.455   2.403 -0.1907  0.5601 -1.4511
  655MOL0     H88422   1.107   5.391   2.230 -1.1424  4.4457  0.4607
  655MOL0     H88423   1.337   5.336   2.290 -0.4536 -0.4850  0.0932
  655MOL0     H88424   1.400   5.221   2.159  2.8288  0.7647 -1.8413
  655MOL0     H88425   1.480   5.365   2.181 -0.6994  0.4376  0.8161
  656MOL0     O88426   5.995   4.396  11.254  0.6844 -0.0388  0.6413
  656MOL0     C88427   6.016   4.510  11.219  0.6777 -0.1304 -0.5485
  656MOL0     O88428   5.924   4.599  11.178 -0.8286 -0.0848 -0.3337
  656MOL0     C88429   5.799   4.546  11.168 -0.6200  0.4280  0.5845
  656MOL0     C88430   5.757   4.476  11.051 -0.6596 -0.0995  0.1995
  656MOL0     C88431   5.617   4.435  11.048  0.1715  0.0868  0.8359
  656MOL0     C88432   5.533   4.459  11.145  0.2228 -0.9131  0.1426
  656MOL0     O88433   5.409   4.417  11.128  0.2767 -0.0651 -0.3685
  656MOL0     C88434   5.330   4.370  11.244 -0.2337  0.0338 -0.3627
  656MOL0     C88435   5.189   4.370  11.210 -0.9535 -0.3948 -0.2888
  656MOL0     C88436   5.099   4.299  11.315  0.1894 -0.0626  0.4971
  656MOL0     C88437   4.970   4.386  11.341 -0.0665  0.8725 -0.5069
  656MOL0     C88438   4.895   4.427  11.216  0.4340 -0.1896  0.2609
  656MOL0     C88439   4.780   4.523  11.264 -0.0880  0.3196  0.6052
  656MOL0     C88440   4.719   4.600  11.142  0.0054  0.2528  0.5403
  656MOL0     C88441   4.613   4.699  11.198  0.4860  0.2486  0.3476
  656MOL0     N88442   4.508   4.631  11.277  0.2122 -0.3321 -0.2554
  656MOL0     C88443   4.445   4.516  11.229 -0.7225  0.6162 -0.3077
  656MOL0     C88444   4.324   4.523  11.294 -0.3914  0.6655  1.1250
  656MOL0     C88445   4.233   4.405  11.260 -0.7717  0.1826 -0.4690
  656MOL0     C88446   4.136   4.381  11.384  0.4608 -0.5883  0.0413
  656MOL0     C88447   4.198   4.282  11.492  0.4119  0.5236  0.0952
  656MOL0     C88448   4.335   4.331  11.537  0.5666  0.5408  0.3757
  656MOL0     O88449   4.398   4.234  11.615 -0.4956  0.4210  0.8915
  656MOL0     C88450   4.537   4.224  11.645 -0.5167  0.7430 -0.1087
  656MOL0     C88451   4.620   4.337  11.623 -0.1449  0.1626 -0.2206
  656MOL0     C88452   4.756   4.322  11.657  0.7885  0.0902  0.3573
  656MOL0     C88453   4.811   4.195  11.687 -0.1951  0.2120  0.3338
  656MOL0     C88454   4.963   4.173  11.702  0.6016  0.2747 -0.1698
  656MOL0     O88455   5.039   4.274  11.666  0.4678  0.2367  0.2512
  656MOL0     C88456   5.166   4.271  11.693 -0.7402 -0.1100  1.5795
  656MOL0     C88457   5.247   4.166  11.644  0.1939  0.7079  0.2519
  656MOL0     C88458   5.390   4.170  11.671  0.4189  0.5766 -0.1678
  656MOL0     C88459   5.448   4.266  11.751  0.3032  0.3577 -0.1898
  656MOL0     O88460   5.579   4.268  11.770 -0.7086  0.3371 -0.8746
  656MOL0     C88461   5.635   4.325  11.894  0.0165  0.5503 -0.9419
  656MOL0     C88462   5.752   4.237  11.950 -0.0757 -0.2072 -0.4422
  656MOL0     C88463   5.828   4.317  12.056 -0.2840  0.9293  0.2254
  656MOL0     C88464   5.954   4.248  12.108 -0.7121 -0.1824 -0.3459
  656MOL0     C88465   6.030   4.344  12.201  0.6856  0.2405 -0.2049
  656MOL0     C88466   6.157   4.264  12.247 -0.7519  0.6483  0.3424
  656MOL0     C88467   6.248   4.351  12.340 -0.4134 -0.0666  0.4614
  656MOL0     C88468   6.386   4.379  12.281 -0.0997 -0.6898 -0.7402
  656MOL0    Cl88469   6.466   4.231  12.229  0.1746 -0.0660 -0.4497
  656MOL0     C88470   5.356   4.361  11.805 -0.6648  0.1307  0.2790
  656MOL0     C88471   5.221   4.371  11.777 -0.6461  0.3771  0.5665
  656MOL0     O88472   5.005   4.071  11.756  0.0498  0.0030  0.0167
  656MOL0     C88473   4.726   4.080  11.693  0.1221  0.6633  0.2664
  656MOL0     C88474   4.590   4.097  11.683  0.0710 -0.6347 -0.1019
  656MOL0     N88475   4.321   4.631  11.381  0.9161 -0.7859 -0.2151
  656MOL0     N88476   4.435   4.688  11.375  0.0559 -0.0729  0.4173
  656MOL0     C88477   5.586   4.524  11.259 -0.0730  0.0764 -0.8413
  656MOL0     C88478   5.717   4.568  11.272  0.6189  0.0989 -0.2484
  656MOL0     C88479   6.155   4.562  11.224  0.2898 -0.1139 -0.1686
  656MOL0     C88480   6.192   4.674  11.143 -0.4517  0.1939 -0.3825
  656MOL0     C88481   6.321   4.734  11.140  0.4376  0.6083  0.2266
  656MOL0     C88482   6.408   4.684  11.232  0.3969  0.1220 -0.3868
  656MOL0     O88483   6.531   4.741  11.225 -0.2995 -0.3036 -0.9094
  656MOL0     C88484   6.632   4.702  11.321 -0.9853 -0.8875  0.5277
  656MOL0     C88485   6.759   4.765  11.261 -0.6457  0.7974 -0.1095
  656MOL0     C88486   6.766   4.911  11.238 -0.5170  0.3106  0.9208
  656MOL0     C88487   6.729   4.995  11.350 -0.1051 -0.3082  0.2748
  656MOL0     C88488   6.724   5.139  11.313  0.2085 -0.0852  0.1878
  656MOL0     C88489   6.704   5.250  11.279  0.0526  1.2091  0.0760
  656MOL0     C88490   6.370   4.582  11.314 -0.5714  0.6507  0.3283
  656MOL0     C88491   6.249   4.509  11.313 -0.1237  0.1821  0.2653
  656MOL0     C88492   6.240   4.391  11.411  0.2514 -0.0737 -0.4592
  656MOL0     H88493   5.806   4.444  10.960  0.6692 -1.9835  1.4824
  656MOL0     H88494   5.592   4.367  10.967  0.3781  0.4682  0.4472
  656MOL0     H88495   5.358   4.266  11.267 -4.9432 -1.3016  0.4855
  656MOL0     H88496   5.355   4.429  11.332  2.4000  0.5256 -1.3338
  656MOL0     H88497   5.184   4.325  11.111  0.6750 -2.1812  0.3706
  656MOL0     H88498   5.180   4.479  11.216 -0.5765 -0.4350  3.9668
  656MOL0     H88499   5.153   4.283  11.409 -1.5162  0.5587  1.6280
  656MOL0     H88500   5.071   4.198  11.284 -2.1907  0.4358  0.8494
  656MOL0     H88501   4.900   4.320  11.393 -0.5885  0.2851 -1.9137
  656MOL0     H88502   4.988   4.467  11.412 -1.4702 -0.2184  1.1735
  656MOL0     H88503   4.966   4.486  11.157 -0.2155 -0.8911 -1.2927
  656MOL0     H88504   4.858   4.341  11.159 -0.7002 -0.8682  1.9471
  656MOL0     H88505   4.705   4.459  11.312  1.6471 -1.3651  1.2189
  656MOL0     H88506   4.819   4.585  11.344  0.0610 -1.1590  1.7276
  656MOL0     H88507   4.669   4.530  11.075  2.4739 -2.6737  1.5401
  656MOL0     H88508   4.799   4.659  11.096  1.1575  1.3815  3.7095
  656MOL0     H88509   4.658   4.778  11.259  1.2210  0.4231 -0.4023
  656MOL0     H88510   4.559   4.756  11.123  1.3940  0.6244 -0.0394
  656MOL0     H88511   4.458   4.441  11.152  0.4534 -1.8987  2.1761
  656MOL0     H88512   4.190   4.441  11.166  0.1483  2.4874 -0.0631
  656MOL0     H88513   4.280   4.309  11.237  0.1667  0.7100 -0.8154
  656MOL0     H88514   4.112   4.482  11.418 -1.0115 -0.4321 -1.3549
  656MOL0     H88515   4.042   4.335  11.354  1.0217 -0.9113 -1.2823
  656MOL0     H88516   4.212   4.185  11.446  2.1178 -0.9559  3.3592
  656MOL0     H88517   4.125   4.257  11.569 -1.8166 -1.1551 -2.4147
  656MOL0     H88518   4.319   4.415  11.605  1.2805  0.9173  0.0822
  656MOL0     H88519   4.394   4.355  11.448  0.6126  1.3210  0.6127
  656MOL0     H88520   4.582   4.430  11.584 -0.2022  1.7355  3.2739
  656MOL0     H88521   4.823   4.407  11.657  1.3569 -0.3350 -1.1087
  656MOL0     H88522   5.207   4.085  11.584  0.1480  0.5042  0.5572
  656MOL0     H88523   5.451   4.090  11.631  1.0141  1.2647 -0.6696
  656MOL0     H88524   5.680   4.420  11.864  0.6185 -0.0449 -1.9819
  656MOL0     H88525   5.564   4.335  11.977  1.6764 -1.0299  0.7839
  656MOL0     H88526   5.707   4.156  12.008 -0.5808 -0.1662 -0.7643
  656MOL0     H88527   5.816   4.200  11.870  0.7157  1.3910 -0.5967
  656MOL0     H88528   5.852   4.417  12.017 -1.9963  1.5705  0.7071
  656MOL0     H88529   5.762   4.339  12.140 -1.7432 -1.8263 -0.0941
  656MOL0     H88530   6.017   4.218  12.024 -0.4451 -1.3379  0.2528
  656MOL0     H88531   5.929   4.151  12.152 -0.9920  0.0259 -0.0368
  656MOL0     H88532   5.970   4.371  12.288  0.3969  2.2956 -0.9840
  656MOL0     H88533   6.057   4.438  12.152  2.9351 -0.4995 -0.5377
  656MOL0     H88534   6.132   4.175  12.305  1.2689  0.0904  0.4300
  656MOL0     H88535   6.219   4.236  12.161 -1.3747  0.4933 -0.0630
  656MOL0     H88536   6.249   4.301  12.437  1.1656  0.7644  0.9139
  656MOL0     H88537   6.196   4.445  12.362 -1.6457 -0.1187 -1.9171
  656MOL0     H88538   6.379   4.446  12.195  0.4227  0.8734  0.3951
  656MOL0     H88539   6.454   4.423  12.354  1.1806  0.2735 -2.4521
  656MOL0     H88540   5.393   4.453  11.848 -0.7855  0.5635 -0.5407
  656MOL0     H88541   5.146   4.437  11.820 -3.0307 -1.6970 -0.1164
  656MOL0     H88542   4.758   3.977  11.706 -2.2813 -0.1924  0.0349
  656MOL0     H88543   4.516   4.019  11.694 -1.7423  1.1328  0.7214
  656MOL0     H88544   5.519   4.553  11.340  2.9289  0.0367  1.8335
  656MOL0     H88545   5.753   4.610  11.365  0.8483  0.8168 -0.6480
  656MOL0     H88546   6.117   4.698  11.069 -1.2940 -1.8191 -0.2475
  656MOL0     H88547   6.367   4.807  11.074  1.4939  0.6598  1.0030
  656MOL0     H88548   6.646   4.594  11.318 -0.0408 -0.7717  0.5201
  656MOL0     H88549   6.603   4.748  11.416  2.6909  1.3411  0.7722
  656MOL0     H88550   6.779   4.711  11.168 -0.3090 -1.5053  1.2154
  656MOL0     H88551   6.842   4.747  11.329  0.7070 -0.1010 -1.9070
  656MOL0     H88552   6.705   4.936  11.151 -0.8849  0.5145  1.2324
  656MOL0     H88553   6.871   4.928  11.213 -1.1037 -0.0909 -2.1453
  656MOL0     H88554   6.627   4.974  11.383  0.1293  1.4907  2.3911
  656MOL0     H88555   6.790   4.973  11.438 -0.1048 -1.6605 -0.0349
  656MOL0     H88556   6.680   5.349  11.246 -5.2713 -1.1781 -4.9690
  656MOL0     H88557   6.440   4.533  11.381  0.5395  1.1975 -0.4147
  656MOL0     H88558   6.251   4.288  11.375  1.5127 -0.6202  1.3149
  656MOL0     H88559   6.306   4.397  11.499 -2.3011 -4.3394  2.1093
  656MOL0     H88560   6.148   4.409  11.466  1.5507  3.7075  0.8019
  657MOL0     O88561   4.611   7.008   6.951  0.5626 -0.7531  1.0005
  657MOL0     C88562   4.577   6.895   6.990 -0.3623 -0.0374  0.0368
  657MOL0     O88563   4.629   6.833   7.100  0.8395 -0.7362 -0.3405
  657MOL0     C88564   4.731   6.903   7.167 -0.5713 -0.0189 -0.4505
  657MOL0     C88565   4.863   6.869   7.124  0.0975 -0.1789 -0.1623
  657MOL0     C88566   4.972   6.931   7.193 -0.3490  0.6259  0.6345
  657MOL0     C88567   4.949   7.037   7.278  0.1356 -0.5264  0.1320
  657MOL0     O88568   5.061   7.099   7.329  0.8312  0.1190  0.4836
  657MOL0     C88569   5.080   7.234   7.329  0.4222 -0.0011  0.5170
  657MOL0     C88570   5.232   7.242   7.370  0.3983  0.8624  0.2407
  657MOL0     C88571   5.290   7.386   7.347  1.1915 -0.0801 -0.1425
  657MOL0     C88572   5.434   7.374   7.387 -0.0863  0.4485 -0.3588
  657MOL0     C88573   5.506   7.516   7.379 -0.1114 -0.3021 -0.4063
  657MOL0     C88574   5.549   7.545   7.233 -0.3559  0.4503  0.2289
  657MOL0     C88575   5.620   7.681   7.228 -0.8330 -0.4441  0.5048
  657MOL0     C88576   5.659   7.734   7.086 -1.2330  0.3759  0.0793
  657MOL0     N88577   5.768   7.647   7.043 -0.1139  0.2827  0.2342
  657MOL0     C88578   5.754   7.578   6.926 -0.2764  0.6628 -0.4461
  657MOL0     C88579   5.875   7.538   6.888 -0.9622  0.5326  0.5756
  657MOL0     C88580   5.888   7.446   6.764 -0.0526  0.5225  0.1787
  657MOL0     C88581   6.027   7.437   6.716 -0.0100 -1.1857 -0.1496
  657MOL0     C88582   6.071   7.573   6.665 -0.0547 -0.0525  0.3612
  657MOL0     C88583   6.168   7.575   6.548 -0.3207 -1.0735 -0.7671
  657MOL0     O88584   6.241   7.703   6.552 -0.1937  0.2897  0.2524
  657MOL0     C88585   6.278   7.748   6.431 -0.0779 -0.6156  0.3455
  657MOL0     C88586   6.189   7.819   6.342 -0.6905 -0.1257 -0.3943
  657MOL0     C88587   6.224   7.841   6.209  0.1433  0.3279  0.0160
  657MOL0     C88588   6.363   7.820   6.171  0.4718 -0.0783 -0.0497
  657MOL0     C88589   6.410   7.845   6.028  0.0942 -0.6735 -0.3970
  657MOL0     O88590   6.547   7.893   6.012  0.2606  0.1871 -0.6114
  657MOL0     C88591   6.603   7.921   5.896 -0.3520 -0.0929  0.0016
  657MOL0     C88592   6.722   7.998   5.900 -0.1855  0.2345  0.1523
  657MOL0     C88593   6.792   8.039   5.785  0.4182  0.3839  0.1462
  657MOL0     C88594   6.743   8.007   5.660  1.0372 -0.7066  0.3068
  657MOL0     O88595   6.784   8.047   5.537 -0.7392 -0.2870 -0.1368
  657MOL0     C88596   6.848   8.179   5.523 -1.0003 -0.6564  0.4012
  657MOL0     C88597   6.758   8.297   5.540 -0.6895 -0.3449 -0.3798
  657MOL0     C88598   6.624   8.294   5.471  0.7556 -0.4941  1.2284
  657MOL0     C88599   6.575   8.435   5.434 -0.2044  0.1441  0.3642
  657MOL0     C88600   6.434   8.430   5.386  0.9162  0.3332 -0.2026
  657MOL0     C88601   6.404   8.386   5.246 -0.1966 -0.0229 -0.1427
  657MOL0     C88602   6.250   8.406   5.223 -0.2402 -0.7384  0.1220
  657MOL0     C88603   6.199   8.372   5.080  0.0570  0.1048  0.0047
  657MOL0    Cl88604   6.023   8.368   5.092  0.3482 -0.1104  0.0060
  657MOL0     C88605   6.623   7.932   5.659  0.1428  0.1525  0.2481
  657MOL0     C88606   6.552   7.893   5.769  0.5243 -0.1558 -0.7108
  657MOL0     O88607   6.325   7.851   5.941  0.3145 -0.3845  0.2253
  657MOL0     C88608   6.452   7.765   6.253 -0.5148  0.6544  0.2720
  657MOL0     C88609   6.406   7.723   6.384  0.2053  0.4441  0.0235
  657MOL0     N88610   5.955   7.574   6.988  0.4244  0.0406 -0.5694
  657MOL0     N88611   5.895   7.650   7.085 -0.3619  0.9128 -0.0624
  657MOL0     C88612   4.821   7.072   7.325  0.5666  0.3065  0.7455
  657MOL0     C88613   4.709   7.012   7.260 -0.1266 -0.2988 -0.9177
  657MOL0     C88614   4.477   6.818   6.913 -0.4297 -0.0326  0.3362
  657MOL0     C88615   4.416   6.706   6.977 -0.0971 -0.2422  0.4457
  657MOL0     C88616   4.307   6.640   6.924  0.1091 -0.1597  0.4601
  657MOL0     C88617   4.263   6.676   6.797  0.4247 -0.4412  0.1432
  657MOL0     O88618   4.150   6.604   6.751  0.3283 -0.3487  0.6452
  657MOL0     C88619   4.063   6.680   6.662 -0.2088 -0.0947 -0.1474
  657MOL0     C88620   3.931   6.608   6.649 -0.2827 -0.4063  1.1294
  657MOL0     C88621   3.863   6.622   6.781  0.2447 -0.4362 -0.4042
  657MOL0     C88622   3.724   6.589   6.787  0.1424  0.4929 -0.4720
  657MOL0     C88623   3.689   6.460   6.724 -0.9103 -0.5477 -0.1532
  657MOL0     C88624   3.661   6.365   6.669  0.0934  0.3138  0.6275
  657MOL0     C88625   4.322   6.780   6.739  0.0140 -0.2413 -0.3433
  657MOL0     C88626   4.440   6.845   6.782  0.2442  0.6941  0.3213
  657MOL0     C88627   4.515   6.930   6.691  0.1893  0.9559  0.7836
  657MOL0     H88628   4.892   6.803   7.042  1.8783  0.9090 -0.4796
  657MOL0     H88629   5.075   6.910   7.165 -0.6279  2.5941 -2.3435
  657MOL0     H88630   5.066   7.273   7.228  0.4446  0.7167  0.7857
  657MOL0     H88631   5.024   7.295   7.401  0.9600  1.3018 -0.1303
  657MOL0     H88632   5.285   7.166   7.312 -2.8056 -1.1257 -0.3408
  657MOL0     H88633   5.242   7.216   7.475 -1.4202 -0.5400  0.1318
  657MOL0     H88634   5.239   7.455   7.414  0.3494 -0.2116 -0.6349
  657MOL0     H88635   5.287   7.417   7.242  1.3358 -1.6146 -0.6329
  657MOL0     H88636   5.442   7.354   7.495  2.2870  0.2307 -0.5139
  657MOL0     H88637   5.490   7.299   7.330 -1.0894  1.1552 -2.3471
  657MOL0     H88638   5.434   7.593   7.407  1.2738  1.1473 -0.7403
  657MOL0     H88639   5.593   7.522   7.444  0.4930  0.6839 -1.2785
  657MOL0     H88640   5.612   7.461   7.204 -1.1029 -1.0398  2.5983
  657MOL0     H88641   5.461   7.533   7.170  0.0805 -0.6990 -0.1944
  657MOL0     H88642   5.716   7.665   7.278  0.5346 -2.8326 -2.5475
  657MOL0     H88643   5.569   7.760   7.284  2.2909  1.4849  0.8324
  657MOL0     H88644   5.571   7.730   7.021 -2.0041 -2.8310  1.1473
  657MOL0     H88645   5.695   7.837   7.094 -0.7307  0.0883  2.0390
  657MOL0     H88646   5.669   7.569   6.859 -0.4549 -1.4666  0.0049
  657MOL0     H88647   5.853   7.349   6.800  1.0350  0.3274  0.7363
  657MOL0     H88648   5.811   7.480   6.694 -0.7950  2.2586  1.7314
  657MOL0     H88649   6.106   7.408   6.785 -0.0081 -0.4114  0.1839
  657MOL0     H88650   6.028   7.379   6.623 -1.9783  1.8948 -2.2777
  657MOL0     H88651   6.126   7.615   6.750  0.7411 -1.8951  0.7954
  657MOL0     H88652   5.989   7.642   6.643  0.1116  0.1948  0.4995
  657MOL0     H88653   6.123   7.557   6.450  0.9873 -1.1380 -1.3702
  657MOL0     H88654   6.241   7.494   6.560  1.4914  0.7663  1.7879
  657MOL0     H88655   6.090   7.846   6.378  0.2108 -0.2183  2.3795
  657MOL0     H88656   6.146   7.870   6.138  2.1111  0.9858 -1.9926
  657MOL0     H88657   6.750   8.020   6.002  0.5835  1.1046 -0.2373
  657MOL0     H88658   6.888   8.089   5.789  2.3413 -3.0457  2.6109
  657MOL0     H88659   6.936   8.191   5.587  0.7047 -3.1871 -1.2637
  657MOL0     H88660   6.897   8.188   5.425 -0.3883  1.7005  0.8585
  657MOL0     H88661   6.743   8.290   5.648  1.7784  1.9762  0.2360
  657MOL0     H88662   6.808   8.391   5.515 -3.2470  0.8812 -1.2375
  657MOL0     H88663   6.644   8.237   5.380 -0.7391  1.9234 -0.7555
  657MOL0     H88664   6.560   8.244   5.545 -3.6320 -0.4956 -2.1620
  657MOL0     H88665   6.635   8.476   5.352 -0.9132 -0.2754 -0.3804
  657MOL0     H88666   6.584   8.498   5.523 -0.5434 -0.4108  0.8028
  657MOL0     H88667   6.388   8.525   5.417  2.1750  1.0426 -0.4062
  657MOL0     H88668   6.368   8.367   5.446 -1.6063  1.4922 -1.6130
  657MOL0     H88669   6.460   8.456   5.183  0.0459 -0.8529 -0.8638
  657MOL0     H88670   6.427   8.282   5.221 -2.6145 -0.4774 -0.7269
  657MOL0     H88671   6.231   8.511   5.250  0.8237 -0.2438 -0.9330
  657MOL0     H88672   6.187   8.345   5.288 -2.1879 -3.0069 -3.5938
  657MOL0     H88673   6.249   8.439   5.009  0.3684 -0.6838 -0.5337
  657MOL0     H88674   6.235   8.271   5.060  1.5829  0.2560  1.6886
  657MOL0     H88675   6.574   7.916   5.563 -4.2679 -1.6374  2.5119
  657MOL0     H88676   6.456   7.842   5.765  1.2879 -1.6305 -0.8241
  657MOL0     H88677   6.548   7.751   6.205 -1.7018 -1.1559 -1.7153
  657MOL0     H88678   6.466   7.670   6.458 -0.9858  0.1023  0.7741
  657MOL0     H88679   4.820   7.158   7.392 -1.8903  0.4292  0.6278
  657MOL0     H88680   4.607   7.039   7.285  0.1737 -1.1765  1.4725
  657MOL0     H88681   4.446   6.674   7.076  0.4917  1.0389  0.7045
  657MOL0     H88682   4.244   6.568   6.975 -0.4936 -1.4462 -1.9352
  657MOL0     H88683   4.105   6.680   6.562 -0.9568 -2.4472 -0.5160
  657MOL0     H88684   4.047   6.787   6.678  2.8626  0.4670 -0.3347
  657MOL0     H88685   3.955   6.508   6.612 -0.0843  0.2231 -0.5333
  657MOL0     H88686   3.874   6.664   6.574 -1.7752 -2.5872  0.5491
  657MOL0     H88687   3.857   6.722   6.823 -1.9730 -0.7028  0.0645
  657MOL0     H88688   3.915   6.558   6.853 -1.6576 -3.1931 -1.3023
  657MOL0     H88689   3.689   6.582   6.891 -1.7337 -0.2633 -1.1190
  657MOL0     H88690   3.665   6.675   6.753 -2.5810 -0.5667  1.2489
  657MOL0     H88691   3.650   6.273   6.615  2.2002  0.0416  0.5819
  657MOL0     H88692   4.284   6.811   6.642 -2.0651  0.9361  0.7728
  657MOL0     H88693   4.500   6.906   6.586  0.1745 -3.6444  1.6330
  657MOL0     H88694   4.488   7.035   6.708  0.4553  1.1575 -0.0056
  657MOL0     H88695   4.622   6.919   6.715 -0.1723 -1.3545  1.5142
  658MOL0     O88696  11.053   8.404  10.422  0.0976 -0.0473 -0.0525
  658MOL0     C88697  11.034   8.453  10.312  0.1604  0.3310  0.3766
  658MOL0     O88698  11.125   8.468  10.209 -0.0197 -0.1442 -0.0780
  658MOL0     C88699  11.260   8.463  10.243 -0.0018  0.2257 -0.6373
  658MOL0     C88700  11.341   8.408  10.153  0.2732 -0.2389 -0.2844
  658MOL0     C88701  11.480   8.424  10.167 -0.6023 -0.0279 -0.2515
  658MOL0     C88702  11.540   8.479  10.278 -0.0605  0.4791  0.4754
  658MOL0     O88703  11.676   8.495  10.298 -0.1582  0.8535  0.0638
  658MOL0     C88704  11.770   8.479  10.188 -0.7769 -0.0995  0.6443
  658MOL0     C88705  11.917   8.510  10.231  0.2426 -1.0871 -0.7334
  658MOL0     C88706  11.932   8.657  10.247 -0.7474 -1.4149  0.5502
  658MOL0     C88707  12.080   8.712  10.254  0.3632  0.4216 -0.8261
  658MOL0     C88708  12.142   8.767  10.130  0.4755  0.4780 -0.4938
  658MOL0     C88709  12.271   8.842  10.160 -0.9618  0.1717  0.1858
  658MOL0     C88710  12.355   8.876  10.037  0.1882  0.3957  0.5447
  658MOL0     C88711  12.425   8.746   9.980  0.0732  0.0818 -0.4327
  658MOL0     N88712  12.542   8.773   9.902 -0.9836 -0.1175  0.5057
  658MOL0     C88713  12.588   8.703   9.795  0.1993  0.2181  0.3783
  658MOL0     C88714  12.719   8.733   9.787  0.1575 -0.6330 -0.2577
  658MOL0     C88715  12.809   8.682   9.673 -0.9675  0.1318  0.7540
  658MOL0     C88716  12.913   8.592   9.729 -0.4338  0.3786  0.8611
  658MOL0     C88717  12.997   8.660   9.839 -0.1446  0.0726  0.7014
  658MOL0     C88718  13.131   8.580   9.867  0.3203  0.1373 -0.1794
  658MOL0     O88719  13.226   8.587   9.757 -0.1591  0.6461  0.1750
  658MOL0     C88720  13.363   8.583   9.781 -0.5421  0.1716 -0.2325
  658MOL0     C88721  13.427   8.562   9.909 -0.4562 -0.0559 -0.2525
  658MOL0     C88722  13.563   8.592   9.915 -0.9525  0.2919 -0.5868
  658MOL0     C88723  13.640   8.630   9.796  0.4288  0.9389  0.9213
  658MOL0     C88724  13.782   8.665   9.808 -0.9274  0.1897 -0.5857
  658MOL0     O88725  13.860   8.665   9.695 -0.4729 -0.4080  0.6102
  658MOL0     C88726  13.989   8.716   9.685  0.3870  0.5668 -0.3254
  658MOL0     C88727  14.060   8.660   9.580  0.6233 -0.8263 -0.0270
  658MOL0     C88728  14.189   8.707   9.547  0.2107  0.6356 -0.2993
  658MOL0     C88729  14.252   8.806   9.627 -0.6804 -0.1292 -0.1205
  658MOL0     O88730  14.377   8.862   9.610  1.2108 -0.1189 -0.2619
  658MOL0     C88731  14.446   8.822   9.487  0.8943  0.3906 -0.2254
  658MOL0     C88732  14.537   8.696   9.507  0.3582  0.2547  0.3245
  658MOL0     C88733  14.619   8.668   9.379 -0.1398  0.9453  0.1893
  658MOL0     C88734  14.724   8.560   9.383  0.4836  0.7122  0.2787
  658MOL0     C88735  14.643   8.432   9.363  0.2330 -0.4290 -0.4757
  658MOL0     C88736  14.641   8.388   9.213  0.2955  0.0082  0.8278
  658MOL0     C88737  14.552   8.260   9.189  0.0919  0.1736 -0.4484
  658MOL0     C88738  14.394   8.283   9.201 -0.1576 -0.3752 -0.2519
  658MOL0    Cl88739  14.318   8.148   9.113 -0.0021  0.1483 -0.1628
  658MOL0     C88740  14.185   8.853   9.737 -0.3586 -0.1946  0.1279
  658MOL0     C88741  14.049   8.816   9.762 -0.0545  0.2506  0.3730
  658MOL0     O88742  13.816   8.702   9.923  0.1895  0.5104 -0.7862
  658MOL0     C88743  13.578   8.637   9.670 -1.1044 -0.2430 -0.0441
  658MOL0     C88744  13.439   8.610   9.665  0.7459  0.0593 -0.0159
  658MOL0     N88745  12.746   8.830   9.884 -0.5605 -0.3011  1.0116
  658MOL0     N88746  12.639   8.848   9.953 -0.1776  0.6718  0.6210
  658MOL0     C88747  11.449   8.523  10.379 -0.2700  0.4594 -0.1171
  658MOL0     C88748  11.314   8.531  10.352  0.1637  0.2078 -0.4750
  658MOL0     C88749  10.909   8.519  10.294  0.0841  0.0562  0.7913
  658MOL0     C88750  10.816   8.461  10.200 -0.0979 -0.2752  0.3414
  658MOL0     C88751  10.705   8.528  10.160 -0.1040  0.7780 -0.6581
  658MOL0     C88752  10.667   8.646  10.227 -0.7883 -0.0639  0.1458
  658MOL0     O88753  10.543   8.719  10.217 -0.3353 -0.1172  0.1158
  658MOL0     C88754  10.436   8.663  10.141 -0.2051  0.9827 -0.6495
  658MOL0     C88755  10.311   8.739  10.152 -0.3967  0.1507 -0.1225
  658MOL0     C88756  10.190   8.650  10.102 -0.6212 -0.5332  0.4409
  658MOL0     C88757  10.055   8.720  10.106 -1.1543  0.1063  0.1784
  658MOL0     C88758  10.022   8.790  10.226 -0.7669 -0.0986 -0.7072
  658MOL0     C88759   9.998   8.846  10.335 -0.2168 -0.9444  0.6675
  658MOL0     C88760  10.753   8.693  10.328  0.8454 -0.5457 -0.3959
  658MOL0     C88761  10.884   8.638  10.341 -0.3062  0.1783 -0.8897
  658MOL0     C88762  10.980   8.708  10.434 -0.5957 -0.3469  0.0616
  658MOL0     H88763  11.304   8.353  10.066 -0.1493 -2.0210  0.9586
  658MOL0     H88764  11.539   8.371  10.093  2.2482  2.8064 -0.2084
  658MOL0     H88765  11.746   8.387  10.135 -4.3638  0.0558  1.7648
  658MOL0     H88766  11.742   8.553  10.112 -2.0262 -1.3916 -0.2034
  658MOL0     H88767  11.995   8.478  10.161  0.7250 -1.1571 -0.1768
  658MOL0     H88768  11.951   8.469  10.327  1.0048  0.2585 -0.4099
  658MOL0     H88769  11.884   8.687  10.341 -1.4960 -1.3027  0.1410
  658MOL0     H88770  11.886   8.717  10.168  1.2634  2.1711  1.9099
  658MOL0     H88771  12.088   8.782  10.338 -1.0315 -0.3947  0.0208
  658MOL0     H88772  12.134   8.628  10.299  1.1072  0.7689 -1.0646
  658MOL0     H88773  12.167   8.678  10.070 -0.7336 -0.0438 -0.2497
  658MOL0     H88774  12.066   8.820  10.073  0.9580 -0.8247 -2.4806
  658MOL0     H88775  12.266   8.932  10.222 -1.7804 -0.2428  0.7452
  658MOL0     H88776  12.334   8.772  10.216 -1.6182 -0.7867 -0.2485
  658MOL0     H88777  12.427   8.957  10.048 -0.3137  0.9307  0.0115
  658MOL0     H88778  12.292   8.908   9.953  0.3162 -0.9579 -0.0925
  658MOL0     H88779  12.456   8.694  10.071  0.3745  1.3758  0.2230
  658MOL0     H88780  12.346   8.697   9.922 -0.0420  0.0514 -0.2528
  658MOL0     H88781  12.527   8.648   9.724 -2.4285  1.4322  1.5719
  658MOL0     H88782  12.749   8.626   9.600  0.9887 -0.2605 -0.6352
  658MOL0     H88783  12.863   8.763   9.623 -0.1655 -2.1736 -2.4350
  658MOL0     H88784  12.869   8.504   9.776  1.3379 -0.3290  1.2879
  658MOL0     H88785  12.975   8.548   9.651 -0.1341  1.6059  0.3863
  658MOL0     H88786  12.937   8.671   9.929 -3.1404 -1.4703 -0.9563
  658MOL0     H88787  13.028   8.756   9.798 -1.3139  0.0133 -0.3678
  658MOL0     H88788  13.116   8.476   9.898 -1.3437  0.5578  0.5542
  658MOL0     H88789  13.178   8.635   9.949 -1.2452 -0.2330  1.0091
  658MOL0     H88790  13.369   8.536   9.997 -1.3652  0.5399 -0.6696
  658MOL0     H88791  13.597   8.584  10.018 -2.1908 -1.7911 -0.2954
  658MOL0     H88792  14.021   8.584   9.513  0.4734 -0.2000 -0.6557
  658MOL0     H88793  14.243   8.659   9.466  0.3252 -1.2068  0.8129
  658MOL0     H88794  14.379   8.806   9.402  3.4447  2.3258 -2.7991
  658MOL0     H88795  14.517   8.897   9.451  0.7770  0.8258  0.4202
  658MOL0     H88796  14.610   8.717   9.586  2.3771  1.5503 -1.7495
  658MOL0     H88797  14.473   8.610   9.529 -1.0107  0.1321 -3.3971
  658MOL0     H88798  14.563   8.660   9.285  2.5764 -0.7769 -1.4084
  658MOL0     H88799  14.682   8.756   9.365  3.4769 -1.4852 -0.1999
  658MOL0     H88800  14.770   8.561   9.482 -2.9633 -1.3163  2.0645
  658MOL0     H88801  14.800   8.582   9.307  0.8695  0.7278  0.6665
  658MOL0     H88802  14.543   8.434   9.409  0.1052 -1.6982 -0.6571
  658MOL0     H88803  14.695   8.350   9.412  1.2400  0.2299 -0.4119
  658MOL0     H88804  14.596   8.466   9.152 -2.7028  0.1347  2.9939
  658MOL0     H88805  14.744   8.373   9.181  0.0833  4.6953 -3.2106
  658MOL0     H88806  14.583   8.177   9.253  0.0251  0.3376 -0.2060
  658MOL0     H88807  14.578   8.228   9.087  1.8155 -0.4434  0.1427
  658MOL0     H88808  14.360   8.295   9.304 -0.8003  0.4353 -0.5528
  658MOL0     H88809  14.385   8.375   9.142 -0.9334 -0.4591 -0.2751
  658MOL0     H88810  14.234   8.935   9.788  1.4199 -1.1608  0.0639
  658MOL0     H88811  14.001   8.865   9.846  0.0163 -0.9953  1.1771
  658MOL0     H88812  13.622   8.674   9.578  2.2383  0.6956  1.7694
  658MOL0     H88813  13.388   8.620   9.569  0.7391  0.2555  0.0065
  658MOL0     H88814  11.488   8.578  10.465  4.0911  0.7047 -1.9765
  658MOL0     H88815  11.256   8.578  10.431  1.2717  0.9816 -0.0930
  658MOL0     H88816  10.846   8.365  10.161 -0.1988  0.5132 -1.8355
  658MOL0     H88817  10.635   8.486  10.089 -0.9063  0.0093  0.5502
  658MOL0     H88818  10.418   8.565  10.185  1.5417  0.7579 -0.3799
  658MOL0     H88819  10.461   8.649  10.036  0.7280  1.2857 -0.4739
  658MOL0     H88820  10.313   8.831  10.093  1.8123 -0.1704 -0.6173
  658MOL0     H88821  10.304   8.771  10.256  0.4402 -0.1035  0.0136
  658MOL0     H88822  10.188   8.556  10.158 -3.2162 -1.2067 -0.6297
  658MOL0     H88823  10.193   8.628   9.995 -2.6435 -0.9602  0.4342
  658MOL0     H88824  10.056   8.795  10.026 -2.5880 -1.0919 -1.0369
  658MOL0     H88825   9.982   8.645  10.073  0.6982 -1.4206 -0.6649
  658MOL0     H88826   9.984   8.883  10.434  1.6824  1.7841  0.0352
  658MOL0     H88827  10.720   8.779  10.386 -0.8755 -0.4342 -1.5058
  658MOL0     H88828  11.007   8.652  10.524 -0.5029  2.3753  1.8744
  658MOL0     H88829  11.066   8.743  10.377 -1.6791  1.3994 -0.5676
  658MOL0     H88830  10.931   8.798  10.474  2.2949  1.3713 -0.0177
  659MOL0     O88831   1.708   8.238   6.997  0.4516 -0.0970  0.3233
  659MOL0     C88832   1.765   8.130   6.988  0.0141 -0.5170 -0.3615
  659MOL0     O88833   1.703   8.009   6.962 -0.1843 -0.2817 -0.3871
  659MOL0     C88834   1.567   7.997   6.977  1.2285  0.3041  0.0640
  659MOL0     C88835   1.470   8.089   6.919  0.4876  0.4561 -0.8997
  659MOL0     C88836   1.333   8.077   6.945  0.3989  0.3029  0.5844
  659MOL0     C88837   1.282   7.974   7.017  0.0482  0.5745 -0.6696
  659MOL0     O88838   1.145   7.970   7.028 -0.0398  0.0059 -0.0987
  659MOL0     C88839   1.079   7.929   6.908  0.0968  0.2626 -0.0045
  659MOL0     C88840   1.074   7.781   6.909 -0.2766  0.2701 -0.3567
  659MOL0     C88841   0.984   7.738   7.029  0.4273 -0.1118 -0.1959
  659MOL0     C88842   0.842   7.801   7.042  0.2051  0.2341 -0.9571
  659MOL0     C88843   0.750   7.741   7.154 -0.6285  0.4662  0.3639
  659MOL0     C88844   0.828   7.736   7.292  0.3056 -0.6468 -0.3964
  659MOL0     C88845   0.746   7.716   7.427  0.2617 -0.1662 -0.6989
  659MOL0     C88846   0.654   7.835   7.454  0.3299 -0.2130  0.5848
  659MOL0     N88847   0.585   7.825   7.583 -0.4469 -0.3440  0.2807
  659MOL0     C88848   0.641   7.857   7.708 -0.3874  0.7113 -0.5335
  659MOL0     C88849   0.547   7.828   7.796 -0.7670  0.3244 -0.0996
  659MOL0     C88850   0.552   7.832   7.944  0.0146  0.1493  0.0717
  659MOL0     C88851   0.641   7.722   8.000 -0.2664 -0.7408  0.5472
  659MOL0     C88852   0.653   7.718   8.154  0.1624  0.0674  0.0133
  659MOL0     C88853   0.784   7.672   8.209 -0.0540  0.7385 -0.1454
  659MOL0     O88854   0.797   7.540   8.148  0.5810 -0.0197 -0.3872
  659MOL0     C88855   0.914   7.480   8.166 -0.2883  0.4155 -0.0556
  659MOL0     C88856   1.021   7.523   8.257 -0.0836 -1.2102  0.4772
  659MOL0     C88857   1.143   7.455   8.275 -0.1761 -0.0495  0.4063
  659MOL0     C88858   1.173   7.345   8.198  1.1788 -0.1654  1.0730
  659MOL0     C88859   1.291   7.274   8.205 -0.6567  0.6802 -1.2326
  659MOL0     O88860   1.376   7.333   8.299 -0.0807  0.1560  0.3551
  659MOL0     C88861   1.499   7.277   8.307 -0.8832  0.2399 -0.0726
  659MOL0     C88862   1.618   7.322   8.236  0.1276 -0.4042  0.4555
  659MOL0     C88863   1.745   7.276   8.267 -0.1518  0.9289 -0.5011
  659MOL0     C88864   1.762   7.192   8.380  1.2778 -0.6044  0.3924
  659MOL0     O88865   1.883   7.156   8.421 -0.1557  0.4125  0.0228
  659MOL0     C88866   1.945   7.257   8.498 -0.4705 -0.6300 -0.0666
  659MOL0     C88867   2.083   7.213   8.563 -0.0905  0.6140 -0.3799
  659MOL0     C88868   2.170   7.328   8.619 -0.0630 -1.0736  0.0719
  659MOL0     C88869   2.269   7.285   8.728  0.1091  0.2029  0.0006
  659MOL0     C88870   2.367   7.403   8.764  0.1852  0.1888  0.3978
  659MOL0     C88871   2.480   7.412   8.664 -0.0157 -0.2663 -0.1864
  659MOL0     C88872   2.586   7.525   8.703 -0.4357  0.0147  0.3836
  659MOL0     C88873   2.729   7.507   8.645 -0.0685 -0.1841 -0.1285
  659MOL0    Cl88874   2.813   7.368   8.709  0.3238 -0.4378 -0.2712
  659MOL0     C88875   1.643   7.143   8.438 -0.9175  0.3348 -1.1567
  659MOL0     C88876   1.515   7.176   8.405 -0.8946 -0.1422 -0.7199
  659MOL0     O88877   1.323   7.176   8.127 -0.4131 -0.6423 -0.6995
  659MOL0     C88878   1.084   7.317   8.090  0.3697  0.7792  0.2726
  659MOL0     C88879   0.956   7.384   8.079 -0.3545 -0.0789 -0.3455
  659MOL0     N88880   0.435   7.782   7.724 -0.4041 -0.5583 -0.9433
  659MOL0     N88881   0.459   7.777   7.602  0.2555 -0.3716 -0.2871
  659MOL0     C88882   1.365   7.881   7.079  0.4016 -0.2938  0.5738
  659MOL0     C88883   1.506   7.884   7.052 -0.0343 -0.3314  0.0148
  659MOL0     C88884   1.914   8.137   7.008 -0.6036  0.2509  0.0467
  659MOL0     C88885   1.975   8.262   7.014 -0.1567 -0.4788  0.7770
  659MOL0     C88886   2.112   8.276   7.015 -0.1220  0.3967 -0.9071
  659MOL0     C88887   2.195   8.162   7.022 -0.1951 -0.0526 -1.3414
  659MOL0     O88888   2.328   8.158   7.030 -0.8177 -0.3394 -0.1692
  659MOL0     C88889   2.407   8.277   7.003  0.2479  0.5311 -0.2764
  659MOL0     C88890   2.555   8.251   7.028  0.3231  1.0548  0.5769
  659MOL0     C88891   2.649   8.369   6.982  0.2706  0.0611  0.9665
  659MOL0     C88892   2.789   8.323   6.944 -1.2206 -0.2852 -0.3734
  659MOL0     C88893   2.874   8.443   6.945 -0.5895  0.5365  0.7793
  659MOL0     C88894   2.947   8.538   6.953  0.0759  0.2446  0.2232
  659MOL0     C88895   2.140   8.035   7.036  0.0272  0.2311  0.3436
  659MOL0     C88896   1.998   8.020   7.033  0.1669  0.3897  0.8661
  659MOL0     C88897   1.945   7.883   7.056 -0.0130 -1.0290 -0.0191
  659MOL0     H88898   1.511   8.169   6.858  1.7610  0.9891  0.5938
  659MOL0     H88899   1.263   8.155   6.917  0.0519 -0.8818 -2.1518
  659MOL0     H88900   0.979   7.970   6.892  0.3685  0.5249 -1.1139
  659MOL0     H88901   1.136   7.965   6.821 -2.1201  3.0739 -0.4449
  659MOL0     H88902   1.171   7.734   6.923 -0.7795 -0.4933  0.7397
  659MOL0     H88903   1.037   7.757   6.809 -1.4266  1.6526 -0.3075
  659MOL0     H88904   1.045   7.761   7.117  0.8436 -3.2657  0.4710
  659MOL0     H88905   0.965   7.630   7.032  1.6369 -0.3446 -0.2950
  659MOL0     H88906   0.849   7.907   7.069 -0.9318  0.5741 -1.9198
  659MOL0     H88907   0.788   7.793   6.947 -1.9808 -0.7096  0.2963
  659MOL0     H88908   0.664   7.809   7.163 -0.8420  0.1197  0.9710
  659MOL0     H88909   0.715   7.642   7.126  0.9089  0.8530 -3.5711
  659MOL0     H88910   0.899   7.653   7.293  1.5704  0.3029  3.0323
  659MOL0     H88911   0.888   7.827   7.303 -1.5732  0.3852  2.5353
  659MOL0     H88912   0.812   7.700   7.513  1.1337 -1.6681 -1.5952
  659MOL0     H88913   0.684   7.627   7.418  0.2114 -0.6141  2.7815
  659MOL0     H88914   0.701   7.934   7.449 -2.6966  1.3291 -3.0031
  659MOL0     H88915   0.576   7.839   7.377 -0.1692  2.8804  1.1152
  659MOL0     H88916   0.738   7.904   7.720  1.2730 -2.8821  1.5952
  659MOL0     H88917   0.579   7.932   7.979  0.1546  0.2330 -0.2713
  659MOL0     H88918   0.456   7.809   7.991  0.5755 -0.4706  0.9538
  659MOL0     H88919   0.615   7.625   7.955 -0.2032 -1.0788  1.2186
  659MOL0     H88920   0.738   7.746   7.954 -1.5313  0.1916 -1.7866
  659MOL0     H88921   0.580   7.647   8.195 -0.4566  0.3296 -0.6042
  659MOL0     H88922   0.642   7.818   8.198  0.1923 -0.3181  0.9222
  659MOL0     H88923   0.782   7.673   8.318  0.3731  2.8854 -0.1076
  659MOL0     H88924   0.866   7.734   8.170 -1.4879  1.6092 -1.9091
  659MOL0     H88925   0.998   7.608   8.320 -1.3747  1.6495 -3.4371
  659MOL0     H88926   1.216   7.488   8.348  0.7608 -1.8462  0.3557
  659MOL0     H88927   1.607   7.392   8.154 -0.9825  1.2186  1.9018
  659MOL0     H88928   1.832   7.292   8.205  1.3124 -1.3983  0.8293
  659MOL0     H88929   1.972   7.339   8.430  0.5640 -0.3548  0.6534
  659MOL0     H88930   1.879   7.292   8.579 -0.2415 -1.4911  0.5048
  659MOL0     H88931   2.061   7.140   8.641  1.9330  0.0609 -0.2785
  659MOL0     H88932   2.137   7.165   8.482 -1.2310 -2.9521  0.7872
  659MOL0     H88933   2.233   7.376   8.543  2.5736 -1.1196  2.0638
  659MOL0     H88934   2.107   7.403   8.667 -2.4738 -3.5477  0.9960
  659MOL0     H88935   2.337   7.201   8.706  1.2896  0.7818  1.2581
  659MOL0     H88936   2.212   7.261   8.819  1.7080  0.1606  1.0434
  659MOL0     H88937   2.397   7.392   8.869 -0.9495 -2.9903  0.4929
  659MOL0     H88938   2.301   7.491   8.762 -0.9209 -0.6252 -0.4396
  659MOL0     H88939   2.535   7.318   8.656 -0.3884 -0.5560  0.5164
  659MOL0     H88940   2.435   7.442   8.569  1.2734 -2.8805 -1.7366
  659MOL0     H88941   2.590   7.528   8.813  0.0794 -0.0180  0.3700
  659MOL0     H88942   2.563   7.625   8.666  4.0153  1.5163  1.0340
  659MOL0     H88943   2.716   7.493   8.537 -0.0813  1.9992 -0.4566
  659MOL0     H88944   2.791   7.594   8.665 -1.7821  1.2992 -1.0088
  659MOL0     H88945   1.638   7.062   8.510 -2.8837  0.1468 -1.4494
  659MOL0     H88946   1.431   7.130   8.457  0.4090  0.3263  2.0202
  659MOL0     H88947   1.111   7.239   8.020 -1.2010  0.1152  0.3547
  659MOL0     H88948   0.892   7.340   8.003 -1.2246  1.0130 -0.2545
  659MOL0     H88949   1.311   7.803   7.133 -1.7045  1.5106  1.2089
  659MOL0     H88950   1.568   7.805   7.093 -1.0262 -1.1359 -0.0020
  659MOL0     H88951   1.921   8.356   7.004  0.7764 -0.0865 -0.8475
  659MOL0     H88952   2.151   8.377   7.023 -0.4850  0.4943 -0.3357
  659MOL0     H88953   2.378   8.349   7.081 -1.1415 -1.9980  1.6830
  659MOL0     H88954   2.379   8.316   6.905 -1.6191  0.8528  0.3484
  659MOL0     H88955   2.582   8.165   6.966  3.0306  2.5592 -0.4911
  659MOL0     H88956   2.576   8.212   7.128  2.5581  0.4705 -0.0685
  659MOL0     H88957   2.654   8.437   7.068  0.8384  1.6855 -0.2979
  659MOL0     H88958   2.605   8.414   6.893  2.2773 -1.8788 -1.1744
  659MOL0     H88959   2.829   8.265   7.027  1.8431  2.1789  0.0814
  659MOL0     H88960   2.801   8.267   6.850  1.1114  1.3299 -1.1389
  659MOL0     H88961   3.002   8.628   6.942 -3.4364  2.4621 -0.9562
  659MOL0     H88962   2.207   7.952   7.054  1.4986  1.7133  2.0873
  659MOL0     H88963   2.021   7.814   7.092  0.8364  0.1665  0.5343
  659MOL0     H88964   1.871   7.902   7.135 -1.1340 -2.5064 -0.6599
  659MOL0     H88965   1.899   7.851   6.962 -1.0652 -0.1000  0.1515
  660MOL0     O88966  11.156   2.194   2.397 -0.3025 -0.0800 -0.4811
  660MOL0     C88967  11.099   2.285   2.450 -0.3332 -0.3384  0.1947
  660MOL0     O88968  11.150   2.402   2.482 -0.0449  0.3490  0.2505
  660MOL0     C88969  11.282   2.436   2.443  0.2672 -0.3400  0.1000
  660MOL0     C88970  11.385   2.441   2.528 -0.0773 -0.2354  0.2638
  660MOL0     C88971  11.511   2.480   2.491 -0.0150  0.8586 -0.4965
  660MOL0     C88972  11.542   2.489   2.350  0.8943 -0.6045 -0.3137
  660MOL0     O88973  11.669   2.505   2.297 -0.6885 -0.7796  1.1096
  660MOL0     C88974  11.779   2.529   2.388  0.4076  0.7162  0.2238
  660MOL0     C88975  11.916   2.558   2.319 -0.3726  0.2528 -0.8728
  660MOL0     C88976  11.910   2.692   2.249  1.0732 -0.7393 -0.2420
  660MOL0     C88977  12.046   2.713   2.178 -0.3053  0.4479 -0.0545
  660MOL0     C88978  12.078   2.845   2.112 -0.1264 -0.1048 -0.1265
  660MOL0     C88979  12.229   2.881   2.113  0.4761  0.3555  0.6502
  660MOL0     C88980  12.272   3.006   2.038 -0.0479 -0.4651 -0.0163
  660MOL0     C88981  12.203   3.023   1.909  0.0867  0.3971  0.2396
  660MOL0     N88982  12.247   2.911   1.819  0.9471 -0.7559 -0.6473
  660MOL0     C88983  12.376   2.870   1.791  0.1837 -0.4391  0.5586
  660MOL0     C88984  12.361   2.758   1.721  0.4408  0.7654 -0.8099
  660MOL0     C88985  12.457   2.676   1.646 -0.5386 -0.2375  0.4775
  660MOL0     C88986  12.596   2.677   1.700 -0.1934  0.0495 -0.6170
  660MOL0     C88987  12.685   2.575   1.630  0.6161 -0.7997  0.9426
  660MOL0     C88988  12.799   2.534   1.720  0.3125  0.0954 -0.5620
  660MOL0     O88989  12.901   2.464   1.642 -0.1619  0.0389  0.5442
  660MOL0     C88990  12.998   2.403   1.718 -0.0182  1.0587  0.9463
  660MOL0     C88991  13.054   2.291   1.644  0.2491 -0.7459 -0.2849
  660MOL0     C88992  13.165   2.228   1.695 -0.5335 -0.6686  0.3480
  660MOL0     C88993  13.224   2.265   1.820  0.6251  0.3528  0.6516
  660MOL0     C88994  13.343   2.193   1.862  0.9027 -0.0483 -0.2807
  660MOL0     O88995  13.409   2.104   1.786 -0.2168  0.1275  0.1187
  660MOL0     C88996  13.517   2.031   1.837  0.6886  0.6956  0.2690
  660MOL0     C88997  13.630   2.035   1.757  0.3659  0.4393  0.3196
  660MOL0     C88998  13.750   1.966   1.790  0.0001 -0.1003 -0.4409
  660MOL0     C88999  13.756   1.884   1.908  0.2321 -0.4801  0.0643
  660MOL0     O89000  13.865   1.800   1.936 -0.0586  0.0281 -0.5236
  660MOL0     C89001  13.997   1.834   1.891  0.6054  0.0342  0.2233
  660MOL0     C89002  14.096   1.762   1.975 -0.7096  0.3912  0.3425
  660MOL0     C89003  14.067   1.608   1.980 -0.2958 -0.3762  0.3137
  660MOL0     C89004  14.160   1.527   2.070 -0.2055  0.0377  0.8466
  660MOL0     C89005  14.102   1.379   2.077 -0.5317 -0.1787  0.2081
  660MOL0     C89006  14.199   1.288   2.158 -0.4063  0.6871 -0.6344
  660MOL0     C89007  14.122   1.172   2.234  0.3590  0.2617  0.0071
  660MOL0     C89008  14.202   1.105   2.337 -0.0724  0.9127 -1.7497
  660MOL0    Cl89009  14.332   1.000   2.269  0.1271 -0.4346 -0.1545
  660MOL0     C89010  13.641   1.890   1.995 -0.4790 -0.0568 -0.1207
  660MOL0     C89011  13.525   1.964   1.958  0.3681 -0.0690 -0.4405
  660MOL0     O89012  13.373   2.225   1.975  0.1087 -0.2696  0.1857
  660MOL0     C89013  13.163   2.365   1.897 -0.9249 -0.0776  0.1853
  660MOL0     C89014  13.054   2.431   1.849 -0.1771 -0.0447 -0.3527
  660MOL0     N89015  12.226   2.735   1.704 -0.5707 -0.3794 -0.2862
  660MOL0     N89016  12.159   2.827   1.765  0.1553  0.5350  0.5380
  660MOL0     C89017  11.441   2.477   2.257  0.4040 -0.1519 -0.0711
  660MOL0     C89018  11.313   2.461   2.309  0.3859  0.1796  0.2639
  660MOL0     C89019  10.948   2.270   2.487 -0.2150 -0.2596 -0.6420
  660MOL0     C89020  10.885   2.358   2.578 -0.1293  0.4388  0.8161
  660MOL0     C89021  10.748   2.367   2.588 -0.2827 -0.6440  0.5332
  660MOL0     C89022  10.669   2.258   2.556  0.1982  0.1105 -0.3256
  660MOL0     O89023  10.532   2.267   2.591  0.2252  0.1722  0.2497
  660MOL0     C89024  10.434   2.212   2.497  0.9421  0.4001 -0.3329
  660MOL0     C89025  10.299   2.248   2.557 -0.3416  0.3768 -0.2963
  660MOL0     C89026  10.179   2.194   2.487  0.2082 -0.6142 -0.7767
  660MOL0     C89027  10.048   2.268   2.536 -1.2812  0.4218  0.2921
  660MOL0     C89028   9.929   2.226   2.473  0.3735  0.2306  0.1045
  660MOL0     C89029   9.827   2.177   2.423 -0.8127 -0.4266  0.7254
  660MOL0     C89030  10.724   2.160   2.468 -0.3759  0.1217  0.0068
  660MOL0     C89031  10.861   2.177   2.427 -1.2275 -0.1419 -0.6990
  660MOL0     C89032  10.903   2.091   2.311 -0.5670 -0.2984 -0.5338
  660MOL0     H89033  11.376   2.416   2.633 -3.0455 -0.3805  0.0642
  660MOL0     H89034  11.585   2.495   2.570 -1.8073  0.8342  1.2756
  660MOL0     H89035  11.757   2.612   2.455  2.1197  0.5744  1.0132
  660MOL0     H89036  11.795   2.441   2.450  1.1773  0.1703 -0.7035
  660MOL0     H89037  11.934   2.489   2.237  1.8404  2.0975 -2.0616
  660MOL0     H89038  12.002   2.553   2.386  0.1376 -0.5827 -1.5758
  660MOL0     H89039  11.892   2.774   2.319  2.9000  0.6960 -1.3881
  660MOL0     H89040  11.827   2.693   2.177 -1.3495  0.9518  2.3362
  660MOL0     H89041  12.119   2.698   2.257  0.2288  3.9265  0.2686
  660MOL0     H89042  12.051   2.635   2.102  1.3069 -0.0411  0.5165
  660MOL0     H89043  12.031   2.848   2.013 -2.2615 -1.8833  0.7489
  660MOL0     H89044  12.031   2.925   2.171 -2.0883 -1.5106  0.3272
  660MOL0     H89045  12.254   2.886   2.219 -0.7650 -1.9025  1.1166
  660MOL0     H89046  12.288   2.796   2.076  2.5931  2.5556 -1.4118
  660MOL0     H89047  12.379   3.007   2.013 -0.8706  2.7294 -4.7702
  660MOL0     H89048  12.242   3.094   2.096 -0.3335  0.2343 -1.1821
  660MOL0     H89049  12.095   3.024   1.928  0.5202  0.4579  3.1167
  660MOL0     H89050  12.239   3.117   1.866 -1.0424  0.1379 -1.3646
  660MOL0     H89051  12.470   2.912   1.825 -0.0664  0.3740  0.2708
  660MOL0     H89052  12.412   2.577   1.636  1.6226 -1.0473 -2.4554
  660MOL0     H89053  12.472   2.723   1.549  0.0100 -1.8407 -0.2439
  660MOL0     H89054  12.641   2.777   1.704 -1.9637  0.9517 -1.9410
  660MOL0     H89055  12.584   2.645   1.804  2.8884 -0.4363 -0.3314
  660MOL0     H89056  12.736   2.629   1.549 -2.0517 -1.0982 -1.0642
  660MOL0     H89057  12.630   2.492   1.585  2.0484 -0.9740 -0.5503
  660MOL0     H89058  12.754   2.476   1.801 -2.2439  1.6477 -0.7594
  660MOL0     H89059  12.840   2.626   1.762 -1.3957  0.8770 -0.5104
  660MOL0     H89060  13.014   2.263   1.547  0.6047  0.2617 -0.7411
  660MOL0     H89061  13.205   2.139   1.647  0.0143  1.3285 -3.2624
  660MOL0     H89062  13.621   2.090   1.664 -0.6464 -1.8064 -0.9930
  660MOL0     H89063  13.832   1.968   1.719 -0.5697  0.2920 -1.1108
  660MOL0     H89064  14.003   1.809   1.785  0.9684 -0.9207  0.4544
  660MOL0     H89065  14.009   1.942   1.906 -0.1078  0.8082 -3.6744
  660MOL0     H89066  14.195   1.764   1.928 -0.5430 -0.1938  0.6525
  660MOL0     H89067  14.116   1.807   2.073 -2.3342 -0.1249  0.9398
  660MOL0     H89068  13.965   1.583   2.012 -0.7528  0.6666 -0.2711
  660MOL0     H89069  14.074   1.570   1.878  1.9694 -1.0028  0.6518
  660MOL0     H89070  14.167   1.577   2.167 -2.5220  1.2568  0.4544
  660MOL0     H89071  14.259   1.529   2.023 -1.2726  2.0213 -1.5215
  660MOL0     H89072  14.078   1.344   1.976 -0.4458  3.1712 -1.0998
  660MOL0     H89073  14.009   1.402   2.130  0.9543  1.4024  2.2785
  660MOL0     H89074  14.272   1.251   2.086  0.0434  1.0313 -0.3576
  660MOL0     H89075  14.263   1.342   2.228  0.9941 -0.5423 -0.9206
  660MOL0     H89076  14.072   1.103   2.165 -1.1879  0.3262  1.0095
  660MOL0     H89077  14.041   1.227   2.283  2.0448  1.4477  1.5882
  660MOL0     H89078  14.248   1.177   2.405 -0.8606  0.7868 -1.0695
  660MOL0     H89079  14.134   1.049   2.401 -1.7123  1.9886 -2.4805
  660MOL0     H89080  13.645   1.830   2.085  2.6429 -1.2924 -0.9542
  660MOL0     H89081  13.437   1.964   2.022 -0.5696 -0.5743 -1.7063
  660MOL0     H89082  13.216   2.393   1.988  1.5782 -2.4189 -0.4003
  660MOL0     H89083  12.993   2.506   1.898  1.1678  3.1764 -3.2076
  660MOL0     H89084  11.462   2.471   2.150  0.5798  2.4909 -0.2494
  660MOL0     H89085  11.230   2.456   2.240 -0.1748  1.2176  0.8418
  660MOL0     H89086  10.941   2.439   2.624  1.4620  0.2535 -0.6811
  660MOL0     H89087  10.711   2.447   2.651  4.2067  0.3835  2.2808
  660MOL0     H89088  10.435   2.102   2.489  0.4165  0.2502  1.1853
  660MOL0     H89089  10.450   2.247   2.395 -1.1457  2.4676 -0.0135
  660MOL0     H89090  10.301   2.357   2.569  1.0511  0.6429 -2.4332
  660MOL0     H89091  10.296   2.201   2.656 -1.5976 -0.2602 -0.6103
  660MOL0     H89092  10.162   2.088   2.505 -0.3373 -0.0932  2.2483
  660MOL0     H89093  10.193   2.205   2.379  1.0296 -1.5013 -0.7795
  660MOL0     H89094  10.032   2.249   2.643  1.7463 -2.9200  0.3458
  660MOL0     H89095  10.061   2.375   2.522 -1.2760  0.1069 -2.6695
  660MOL0     H89096   9.747   2.137   2.364  1.3383  0.8055 -3.3889
  660MOL0     H89097  10.660   2.089   2.417  0.6881  0.2605 -1.5972
  660MOL0     H89098  10.960   2.162   2.250  1.6750  0.2021  1.9506
  660MOL0     H89099  10.971   2.012   2.345  0.8778  1.2628  0.3111
  660MOL0     H89100  10.816   2.043   2.264  0.9792 -1.0815 -2.7799
  661MOL0     O89101   8.910   8.662   6.347 -0.1765  0.4658  0.2053
  661MOL0     C89102   8.974   8.559   6.327  0.5844  0.0469 -0.0682
  661MOL0     O89103   9.108   8.564   6.320  0.4890  0.6049  1.1338
  661MOL0     C89104   9.166   8.646   6.413 -0.2826 -0.0762  0.7819
  661MOL0     C89105   9.171   8.789   6.405  0.6190 -0.1526 -0.0201
  661MOL0     C89106   9.234   8.867   6.494  0.1283 -0.2102 -0.2693
  661MOL0     C89107   9.301   8.807   6.603  0.7625 -0.9291  0.5258
  661MOL0     O89108   9.371   8.883   6.691 -1.0124  0.4883 -0.2972
  661MOL0     C89109   9.370   9.027   6.691 -0.1191 -0.1259  0.5400
  661MOL0     C89110   9.448   9.069   6.813  0.1111 -0.4710  0.4469
  661MOL0     C89111   9.408   9.209   6.852  0.2497 -0.0780  0.0199
  661MOL0     C89112   9.489   9.260   6.976  0.0795 -0.1478 -0.4458
  661MOL0     C89113   9.645   9.265   6.969 -0.1021 -0.3692  0.1811
  661MOL0     C89114   9.704   9.347   7.086  0.5798 -0.1304 -0.2177
  661MOL0     C89115   9.851   9.350   7.071  0.5490 -0.8077  0.1700
  661MOL0     C89116   9.903   9.446   6.963  0.2812 -0.4770  0.2171
  661MOL0     N89117  10.053   9.433   6.970  0.5806  0.0217 -0.1017
  661MOL0     C89118  10.131   9.450   7.076 -0.2861  0.1104 -0.5616
  661MOL0     C89119  10.258   9.425   7.027 -0.2952 -1.3150  0.2030
  661MOL0     C89120  10.395   9.438   7.097 -0.4447 -0.9862  0.0029
  661MOL0     C89121  10.467   9.308   7.111 -0.1430  0.7097  0.3605
  661MOL0     C89122  10.611   9.327   7.170  0.0424  0.1946 -0.0020
  661MOL0     C89123  10.709   9.389   7.072 -0.6063 -0.1203  1.1014
  661MOL0     O89124  10.841   9.368   7.125  0.3844 -0.0222 -0.6502
  661MOL0     C89125  10.951   9.401   7.054 -0.2663 -0.1151  0.0455
  661MOL0     C89126  10.964   9.422   6.916  0.5958 -0.0588  0.1907
  661MOL0     C89127  11.085   9.462   6.857  0.5575  0.5949  0.0400
  661MOL0     C89128  11.209   9.467   6.927 -0.2077 -1.5716  0.1420
  661MOL0     C89129  11.328   9.500   6.852  0.5845 -0.5604 -0.7031
  661MOL0     O89130  11.442   9.521   6.925 -0.1848 -0.0192  0.0631
  661MOL0     C89131  11.553   9.552   6.856  0.1916  0.3740  0.1704
  661MOL0     C89132  11.620   9.666   6.890  1.3771 -0.8285  0.3137
  661MOL0     C89133  11.739   9.692   6.835  0.4356 -0.2599 -0.1189
  661MOL0     C89134  11.800   9.604   6.744  0.2137 -0.2981 -0.3649
  661MOL0     O89135  11.916   9.636   6.675 -0.0649 -0.1221  0.1308
  661MOL0     C89136  11.899   9.733   6.578 -0.0224 -0.0392 -0.2145
  661MOL0     C89137  12.007   9.711   6.469 -0.6454 -0.2721 -0.1718
  661MOL0     C89138  12.149   9.725   6.519 -0.2769 -0.6124 -0.3358
  661MOL0     C89139  12.243   9.750   6.396 -0.6183  1.3319  0.1475
  661MOL0     C89140  12.389   9.746   6.441 -0.5268 -0.0808 -0.1364
  661MOL0     C89141  12.477   9.785   6.322 -1.1003  0.4270 -0.0126
  661MOL0     C89142  12.623   9.814   6.371  0.7370  0.2758 -1.0777
  661MOL0     C89143  12.718   9.841   6.256 -0.6814  0.0925  0.4585
  661MOL0    Cl89144  12.651   9.982   6.161 -0.4718  0.4687 -0.1076
  661MOL0     C89145  11.742   9.485   6.709 -0.1128  0.6217 -0.1251
  661MOL0     C89146  11.614   9.461   6.766  0.7637 -0.5059  0.2082
  661MOL0     O89147  11.321   9.493   6.725 -0.9458  0.1474  0.1555
  661MOL0     C89148  11.196   9.441   7.064 -0.6068 -1.2489 -0.8083
  661MOL0     C89149  11.076   9.401   7.124  0.1646  0.0716  0.2141
  661MOL0     N89150  10.246   9.381   6.893 -0.6419  0.4190 -0.0928
  661MOL0     N89151  10.122   9.373   6.871  0.9005 -0.1877 -0.1942
  661MOL0     C89152   9.284   8.673   6.622  0.1647  0.2214  0.0696
  661MOL0     C89153   9.219   8.589   6.528  0.2745 -1.0560 -1.3687
  661MOL0     C89154   8.905   8.429   6.305  0.7998 -0.2110  0.0256
  661MOL0     C89155   8.976   8.310   6.313 -0.7896  0.9372 -0.2910
  661MOL0     C89156   8.914   8.185   6.287 -0.3225 -0.1250  0.3564
  661MOL0     C89157   8.778   8.178   6.260 -0.6303  0.6657 -0.4521
  661MOL0     O89158   8.710   8.061   6.245 -0.3597  0.8878  0.6135
  661MOL0     C89159   8.776   7.937   6.227  0.0717  0.6362 -0.2816
  661MOL0     C89160   8.671   7.826   6.249 -0.0701 -0.0755  0.1806
  661MOL0     C89161   8.546   7.839   6.157 -0.6630 -0.4307 -0.6031
  661MOL0     C89162   8.463   7.712   6.155  0.3835 -0.0020 -0.0410
  661MOL0     C89163   8.479   7.624   6.038  0.2862 -0.4650 -0.1756
  661MOL0     C89164   8.496   7.551   5.945 -1.1328  0.2671 -0.4922
  661MOL0     C89165   8.703   8.296   6.252 -0.1342 -0.3351  0.5343
  661MOL0     C89166   8.766   8.423   6.267  0.3435 -0.0286  0.0056
  661MOL0     C89167   8.673   8.551   6.245 -1.2017  0.1580 -0.9363
  661MOL0     H89168   9.124   8.836   6.319  0.1943 -0.6650 -0.0760
  661MOL0     H89169   9.246   8.974   6.478  2.5499  0.0254  2.2968
  661MOL0     H89170   9.412   9.066   6.598  1.5228  1.5829  1.9084
  661MOL0     H89171   9.269   9.065   6.705 -0.7766 -1.7013  0.2337
  661MOL0     H89172   9.554   9.062   6.786 -0.1459  0.8159 -1.0386
  661MOL0     H89173   9.421   9.009   6.900  2.0646  0.8382  2.0415
  661MOL0     H89174   9.303   9.216   6.881 -0.1331 -2.6305 -0.5240
  661MOL0     H89175   9.431   9.271   6.766  3.1571 -3.8150 -2.2005
  661MOL0     H89176   9.449   9.358   7.005 -0.7855 -1.2125  2.2224
  661MOL0     H89177   9.465   9.183   7.050 -0.2017  0.9724  0.6658
  661MOL0     H89178   9.675   9.160   6.966  0.3114 -0.2626  0.6174
  661MOL0     H89179   9.664   9.304   6.868 -2.5397 -0.7453 -0.5031
  661MOL0     H89180   9.674   9.453   7.085 -1.0883 -0.5690 -0.5716
  661MOL0     H89181   9.670   9.304   7.180 -4.6346 -2.1111 -2.6165
  661MOL0     H89182   9.883   9.247   7.053 -2.5401 -1.5985 -1.3673
  661MOL0     H89183   9.883   9.380   7.172 -1.2377  1.4071  0.1458
  661MOL0     H89184   9.869   9.412   6.865 -3.9466 -0.7013  1.5718
  661MOL0     H89185   9.862   9.547   6.974  1.2262  0.1394 -1.5219
  661MOL0     H89186  10.101   9.481   7.175 -1.0303 -0.2193 -0.6822
  661MOL0     H89187  10.458   9.500   7.033  2.1599  2.3889  5.1201
  661MOL0     H89188  10.402   9.488   7.194 -0.9166 -1.7057  0.4240
  661MOL0     H89189  10.410   9.240   7.176 -0.7740  0.8174 -0.0779
  661MOL0     H89190  10.471   9.258   7.014  1.7120 -0.2251  0.8609
  661MOL0     H89191  10.651   9.234   7.211 -1.4748  0.9969  3.8144
  661MOL0     H89192  10.609   9.394   7.256  0.3020  0.2567 -0.0441
  661MOL0     H89193  10.689   9.496   7.063  2.4314  0.4733  0.6482
  661MOL0     H89194  10.689   9.346   6.974 -0.6767  0.2456  0.9531
  661MOL0     H89195  10.878   9.423   6.849 -1.6545 -1.1236  2.8643
  661MOL0     H89196  11.077   9.494   6.754 -0.3791  0.5869  0.1093
  661MOL0     H89197  11.590   9.741   6.963  3.0398  1.3630 -1.1024
  661MOL0     H89198  11.790   9.786   6.854  0.3547  0.1230 -1.6734
  661MOL0     H89199  11.804   9.721   6.525 -0.3925 -3.0898  0.8889
  661MOL0     H89200  11.905   9.835   6.616 -0.6357 -0.9681  2.6356
  661MOL0     H89201  11.993   9.608   6.435 -0.8099 -0.4174  0.3227
  661MOL0     H89202  11.979   9.788   6.397  0.4712  1.4156  1.1326
  661MOL0     H89203  12.155   9.813   6.584  0.1302  0.9592 -2.4220
  661MOL0     H89204  12.180   9.634   6.572  0.1749 -0.4090 -0.2504
  661MOL0     H89205  12.215   9.844   6.349  6.0385  3.6405 -0.3616
  661MOL0     H89206  12.220   9.668   6.328  2.5328  0.8369 -0.4936
  661MOL0     H89207  12.406   9.639   6.454 -1.5968 -0.1028  1.1917
  661MOL0     H89208  12.410   9.809   6.528  0.9576 -0.9010  0.1279
  661MOL0     H89209  12.478   9.717   6.236  2.8445  1.0283 -0.6578
  661MOL0     H89210  12.437   9.881   6.288  0.2436  1.1200  0.2771
  661MOL0     H89211  12.647   9.723   6.425  0.4464  0.5587 -0.4626
  661MOL0     H89212  12.628   9.892   6.447  1.2970 -0.6752 -0.1139
  661MOL0     H89213  12.822   9.865   6.281 -0.1881 -0.8937 -0.5686
  661MOL0     H89214  12.724   9.745   6.204  0.5050  0.7011 -0.5596
  661MOL0     H89215  11.797   9.420   6.641 -0.8201 -2.2605  1.8643
  661MOL0     H89216  11.558   9.373   6.738 -2.8883  1.8771 -0.7858
  661MOL0     H89217  11.290   9.439   7.119  1.0546 -0.8781 -3.4566
  661MOL0     H89218  11.082   9.369   7.228  1.0743 -1.4764 -0.2788
  661MOL0     H89219   9.316   8.626   6.715  0.8631 -0.8862 -0.7116
  661MOL0     H89220   9.218   8.487   6.565  2.0879  0.2767  2.9423
  661MOL0     H89221   9.078   8.315   6.348 -0.6265  0.2584 -0.6583
  661MOL0     H89222   8.970   8.092   6.296 -1.9692 -1.0405  1.8243
  661MOL0     H89223   8.860   7.922   6.295  0.2004  0.0163 -0.5746
  661MOL0     H89224   8.806   7.928   6.123 -1.6752 -1.9122 -0.6719
  661MOL0     H89225   8.632   7.829   6.351  3.1089  0.1289  1.4886
  661MOL0     H89226   8.709   7.727   6.220  0.9208  0.5963 -0.8806
  661MOL0     H89227   8.578   7.869   6.057 -1.1782  0.5891 -0.4782
  661MOL0     H89228   8.482   7.921   6.193 -1.6306 -1.3031 -0.2825
  661MOL0     H89229   8.488   7.655   6.245  0.8603  4.1457  2.7961
  661MOL0     H89230   8.358   7.742   6.146  0.3220 -0.6360 -1.6055
  661MOL0     H89231   8.508   7.506   5.848  0.6710  0.6981 -0.5165
  661MOL0     H89232   8.598   8.281   6.231 -0.5746  1.2637  1.3867
  661MOL0     H89233   8.587   8.514   6.188 -0.8835 -1.9160 -0.1458
  661MOL0     H89234   8.645   8.587   6.344 -1.2284  0.9665 -1.2342
  661MOL0     H89235   8.730   8.621   6.182 -3.0111  2.1452 -0.4745
  662MOL0     O89236   7.338   6.155   9.684  0.8692 -0.2587 -0.2939
  662MOL0     C89237   7.272   6.213   9.594  0.6480 -0.7821 -0.2696
  662MOL0     O89238   7.323   6.300   9.503 -0.1261 -0.0424 -0.2038
  662MOL0     C89239   7.427   6.377   9.534 -0.0255 -0.7825  0.3149
  662MOL0     C89240   7.452   6.439   9.660  0.5597 -0.5497  0.7886
  662MOL0     C89241   7.553   6.537   9.672 -0.2609 -0.5110 -0.1817
  662MOL0     C89242   7.647   6.552   9.569 -0.5961  0.2751  0.5554
  662MOL0     O89243   7.739   6.649   9.577  0.3040 -0.4899 -0.3776
  662MOL0     C89244   7.859   6.608   9.635 -0.1463 -0.7578  0.4597
  662MOL0     C89245   7.953   6.724   9.636 -0.0112 -0.0516  0.7766
  662MOL0     C89246   7.910   6.839   9.720 -0.1089  0.5725 -0.0585
  662MOL0     C89247   8.018   6.946   9.728  1.0638 -0.2336 -0.2646
  662MOL0     C89248   8.024   7.029   9.601 -0.1781  0.5784 -0.2056
  662MOL0     C89249   8.149   7.115   9.607  1.1289 -0.5267 -1.0766
  662MOL0     C89250   8.287   7.051   9.638  0.5763  0.0478 -0.1664
  662MOL0     C89251   8.402   7.149   9.615  0.7315  0.5229 -0.2446
  662MOL0     N89252   8.463   7.120   9.484 -0.0127 -0.3229 -0.2773
  662MOL0     C89253   8.401   7.141   9.361 -0.2966  0.8386 -0.4700
  662MOL0     C89254   8.483   7.078   9.278 -0.6882 -0.7789  0.3155
  662MOL0     C89255   8.475   7.063   9.123  0.1040  0.5625  0.1010
  662MOL0     C89256   8.500   7.185   9.044  0.0571 -0.0044 -0.3661
  662MOL0     C89257   8.644   7.231   9.064  0.4843 -0.9485  0.2310
  662MOL0     C89258   8.679   7.346   8.968  0.3402 -0.0735 -0.8550
  662MOL0     O89259   8.819   7.381   8.983  0.2433 -0.9097  0.8012
  662MOL0     C89260   8.908   7.350   8.878  0.8335 -0.8114  0.3091
  662MOL0     C89261   9.023   7.427   8.866 -0.6892  0.3781 -1.2217
  662MOL0     C89262   9.113   7.400   8.761 -0.0643 -0.1455  0.7809
  662MOL0     C89263   9.097   7.289   8.679 -0.1136 -0.2475 -0.3672
  662MOL0     C89264   9.198   7.254   8.575 -0.2099  0.7815  0.3306
  662MOL0     O89265   9.298   7.346   8.551  0.3873 -0.5869  0.2162
  662MOL0     C89266   9.408   7.311   8.483 -0.6208 -0.0870  0.8749
  662MOL0     C89267   9.512   7.403   8.503  0.0471 -0.4504 -0.1289
  662MOL0     C89268   9.640   7.378   8.450  0.4047 -0.0330  1.6415
  662MOL0     C89269   9.672   7.270   8.361  0.1801 -0.2384  0.0339
  662MOL0     O89270   9.799   7.249   8.310  0.5257 -0.0599  0.2978
  662MOL0     C89271   9.808   7.185   8.181 -0.0560  0.1624 -0.1571
  662MOL0     C89272   9.957   7.201   8.136  0.4221 -0.9850 -0.2474
  662MOL0     C89273   9.968   7.319   8.044  0.0590 -0.0298 -0.7943
  662MOL0     C89274  10.119   7.345   8.002 -0.4955  0.7251  0.1411
  662MOL0     C89275  10.124   7.465   7.904 -0.3175  0.1620  0.3848
  662MOL0     C89276  10.274   7.504   7.879 -0.0629 -0.0247 -0.7242
  662MOL0     C89277  10.286   7.606   7.765  0.2463  0.4139  0.7167
  662MOL0     C89278  10.442   7.638   7.751 -0.1410 -0.1360 -0.0055
  662MOL0    Cl89279  10.552   7.502   7.760  0.3535 -0.0064 -0.0497
  662MOL0     C89280   9.566   7.185   8.340  0.5640  0.3436 -1.1152
  662MOL0     C89281   9.438   7.202   8.401 -0.1711 -0.4969  1.4201
  662MOL0     O89282   9.169   7.162   8.503  0.1745  0.7031  0.3898
  662MOL0     C89283   8.979   7.216   8.688 -0.1984 -0.0463 -0.6442
  662MOL0     C89284   8.883   7.247   8.784 -0.1375 -0.9053  0.2836
  662MOL0     N89285   8.583   7.014   9.348  0.4914 -0.1331  0.5691
  662MOL0     N89286   8.572   7.047   9.472  0.2217 -0.1631  0.7179
  662MOL0     C89287   7.630   6.478   9.450  0.0098 -0.0417  0.6539
  662MOL0     C89288   7.518   6.399   9.430  0.0952  0.3145 -0.5649
  662MOL0     C89289   7.145   6.160   9.549  0.8102 -0.1138 -0.3977
  662MOL0     C89290   7.147   6.036   9.495  0.5159 -0.0881  0.2473
  662MOL0     C89291   7.028   5.966   9.454 -0.8609 -0.1577  0.8345
  662MOL0     C89292   6.904   6.034   9.477 -0.4415  0.1954 -0.0100
  662MOL0     O89293   6.788   5.979   9.447 -0.2361  0.4679  0.1061
  662MOL0     C89294   6.669   6.063   9.447  0.0422 -0.2140  0.7827
  662MOL0     C89295   6.574   5.985   9.366 -0.1625  0.4490  0.5728
  662MOL0     C89296   6.543   5.845   9.436  0.0875  0.1992 -0.8297
  662MOL0     C89297   6.455   5.746   9.367 -0.9922  0.5630  0.5790
  662MOL0     C89298   6.497   5.703   9.233 -0.0672 -0.2628 -0.5052
  662MOL0     C89299   6.528   5.662   9.124 -0.3944 -0.2797  0.1010
  662MOL0     C89300   6.908   6.162   9.540 -0.2150  0.4370 -0.6589
  662MOL0     C89301   7.027   6.230   9.577  0.4081  0.2889 -0.1903
  662MOL0     C89302   7.011   6.363   9.648  0.1302 -1.1886 -0.4746
  662MOL0     H89303   7.386   6.422   9.745  0.5903 -3.2357  0.3694
  662MOL0     H89304   7.558   6.596   9.762 -1.0384  1.3275 -1.3006
  662MOL0     H89305   7.835   6.592   9.741 -0.5138 -0.7051  0.3840
  662MOL0     H89306   7.897   6.519   9.584  1.4064 -0.1235  0.4345
  662MOL0     H89307   7.961   6.747   9.530  1.1163  0.5318  0.9669
  662MOL0     H89308   8.054   6.695   9.668  1.1248  1.8611 -0.8416
  662MOL0     H89309   7.883   6.811   9.823 -1.7473  3.0511  0.2793
  662MOL0     H89310   7.817   6.879   9.678 -1.4378  0.1424  2.2811
  662MOL0     H89311   7.981   7.005   9.812 -0.3706 -3.7580  1.7767
  662MOL0     H89312   8.108   6.889   9.753 -0.2246 -1.3230  2.2555
  662MOL0     H89313   8.042   6.964   9.514  4.3935  0.5937  0.5072
  662MOL0     H89314   7.942   7.101   9.595  1.3931  2.3332 -3.9509
  662MOL0     H89315   8.152   7.157   9.506 -3.4815  1.7601 -0.4815
  662MOL0     H89316   8.135   7.193   9.682  0.8304 -2.3887  0.8904
  662MOL0     H89317   8.299   6.968   9.569  0.2311 -0.2043  0.0728
  662MOL0     H89318   8.296   7.015   9.741  2.1486  3.0828  0.9042
  662MOL0     H89319   8.379   7.255   9.622  1.2765  0.6873 -0.8059
  662MOL0     H89320   8.473   7.129   9.696 -4.0906 -0.4342  4.2781
  662MOL0     H89321   8.320   7.207   9.332 -0.2720  0.4417 -1.4734
  662MOL0     H89322   8.548   6.986   9.093 -0.2689 -0.0179  0.6472
  662MOL0     H89323   8.378   7.015   9.104  1.1034 -0.5167 -3.0117
  662MOL0     H89324   8.490   7.161   8.938  0.5889 -0.5751 -0.2892
  662MOL0     H89325   8.431   7.261   9.082  1.1251 -0.8259  3.7774
  662MOL0     H89326   8.710   7.148   9.035  1.2217  1.1035 -5.0313
  662MOL0     H89327   8.666   7.263   9.166  2.9920 -0.4719 -0.3793
  662MOL0     H89328   8.624   7.436   8.997  2.5433  0.2394  3.0271
  662MOL0     H89329   8.651   7.315   8.867  1.6674 -1.4380 -0.8360
  662MOL0     H89330   9.034   7.515   8.929  1.4346  0.3713 -1.5002
  662MOL0     H89331   9.211   7.447   8.770  0.3254 -0.7358 -0.2029
  662MOL0     H89332   9.500   7.480   8.579  0.4650 -1.6876  1.2330
  662MOL0     H89333   9.715   7.456   8.444  0.5532 -0.2414 -2.1874
  662MOL0     H89334   9.789   7.078   8.198  2.3180 -0.8294 -2.8975
  662MOL0     H89335   9.734   7.215   8.107  1.2596  0.3595 -1.4397
  662MOL0     H89336  10.021   7.220   8.223 -0.7191  0.2100  0.3668
  662MOL0     H89337   9.997   7.114   8.084 -0.4408 -1.0417 -0.8332
  662MOL0     H89338   9.909   7.294   7.956 -2.7802  2.6065  0.1741
  662MOL0     H89339   9.929   7.407   8.095 -1.1765  0.6452 -2.7985
  662MOL0     H89340  10.163   7.259   7.951  1.7047  2.7866 -1.6292
  662MOL0     H89341  10.180   7.379   8.086 -1.1868  1.5653  0.3249
  662MOL0     H89342  10.076   7.549   7.955  0.6615 -0.5374  2.5718
  662MOL0     H89343  10.062   7.443   7.816  0.3436 -1.7470  0.3565
  662MOL0     H89344  10.326   7.530   7.971  0.3635 -2.7132 -0.1220
  662MOL0     H89345  10.314   7.405   7.855 -0.7779 -0.6244  0.4900
  662MOL0     H89346  10.228   7.694   7.794 -0.0102  0.3796  0.3137
  662MOL0     H89347  10.248   7.549   7.679  2.9388 -3.9769  2.1231
  662MOL0     H89348  10.463   7.712   7.674  0.3005  0.1052  0.3343
  662MOL0     H89349  10.458   7.701   7.839 -1.4430 -0.8563  0.7803
  662MOL0     H89350   9.577   7.101   8.272 -2.1308  0.2988 -1.6069
  662MOL0     H89351   9.360   7.140   8.357 -0.3545  1.1040 -0.6962
  662MOL0     H89352   8.956   7.129   8.627 -1.6124  0.7761 -1.3426
  662MOL0     H89353   8.794   7.185   8.794 -0.5473 -0.7587 -1.9842
  662MOL0     H89354   7.694   6.501   9.366 -0.8641  1.8923  0.4730
  662MOL0     H89355   7.502   6.349   9.334 -0.2751 -0.8455  0.0773
  662MOL0     H89356   7.239   5.980   9.481  1.1752  0.7494  1.1737
  662MOL0     H89357   7.029   5.873   9.398 -0.6836  1.2407 -1.6382
  662MOL0     H89358   6.700   6.149   9.387  0.4466 -2.2909 -2.2521
  662MOL0     H89359   6.634   6.100   9.544  2.4782  1.7645  1.0088
  662MOL0     H89360   6.622   5.959   9.271  1.9580  0.0589  1.6676
  662MOL0     H89361   6.482   6.037   9.340 -1.6785 -1.8783  1.0760
  662MOL0     H89362   6.492   5.869   9.530 -0.7161 -0.8537 -0.9748
  662MOL0     H89363   6.630   5.792   9.475 -0.3830  0.6784  0.9583
  662MOL0     H89364   6.444   5.657   9.430 -2.4424  0.8245  0.7477
  662MOL0     H89365   6.356   5.792   9.363 -2.1366 -1.7490  0.2344
  662MOL0     H89366   6.561   5.615   9.034  1.4490 -0.2371  0.7044
  662MOL0     H89367   6.821   6.224   9.560  0.8436  0.7246  4.2537
  662MOL0     H89368   7.092   6.432   9.623  1.2737 -2.3934 -0.1941
  662MOL0     H89369   6.918   6.406   9.610  0.6222 -0.5602 -0.9976
  662MOL0     H89370   6.989   6.356   9.755  0.3452  0.2118 -0.3213
  663MOL0     O89371   6.728   8.511   9.371 -0.8613  0.5338  0.1588
  663MOL0     C89372   6.741   8.391   9.397  0.1041 -0.1707  0.0616
  663MOL0     O89373   6.648   8.296   9.393  0.2887 -0.1178  0.2984
  663MOL0     C89374   6.520   8.333   9.354 -0.3159 -0.1191  0.2694
  663MOL0     C89375   6.442   8.248   9.263 -0.8452 -0.0466  0.0457
  663MOL0     C89376   6.316   8.277   9.214  0.7224  0.3461 -0.4340
  663MOL0     C89377   6.253   8.393   9.266  0.9281  0.1695  0.4049
  663MOL0     O89378   6.132   8.438   9.219 -0.3032  0.1593 -0.0430
  663MOL0     C89379   6.042   8.343   9.145  0.3809 -0.0740  0.1581
  663MOL0     C89380   5.908   8.400   9.112  0.6454  0.4483 -0.2715
  663MOL0     C89381   5.843   8.330   8.994  0.2034 -0.0452  0.0849
  663MOL0     C89382   5.692   8.343   9.015  0.0330  1.4519  0.0376
  663MOL0     C89383   5.618   8.262   8.908 -0.2131  0.2430  0.2313
  663MOL0     C89384   5.472   8.307   8.896 -0.6681  0.3624 -0.3292
  663MOL0     C89385   5.389   8.270   9.020  0.2247  0.1928  0.7172
  663MOL0     C89386   5.252   8.329   9.018  0.3669 -0.0642 -0.4687
  663MOL0     N89387   5.245   8.448   9.091  0.3811 -0.0409 -0.0959
  663MOL0     C89388   5.305   8.576   9.054  0.5183  0.6336 -0.0301
  663MOL0     C89389   5.299   8.660   9.162  0.1784 -0.1487 -0.4199
  663MOL0     C89390   5.359   8.803   9.182  0.6105  0.0044  0.5348
  663MOL0     C89391   5.463   8.806   9.292 -0.2786 -0.3582 -0.9365
  663MOL0     C89392   5.495   8.955   9.312 -0.3737  0.7003  0.2064
  663MOL0     C89393   5.613   8.996   9.398 -0.7185  0.3198 -0.6246
  663MOL0     O89394   5.720   8.925   9.336  0.6830  0.1916 -0.1578
  663MOL0     C89395   5.844   8.944   9.382 -0.0200 -0.0679  0.3077
  663MOL0     C89396   5.952   8.922   9.301 -0.0113  0.1304 -0.1569
  663MOL0     C89397   6.081   8.926   9.350 -0.0838  0.4931 -0.1717
  663MOL0     C89398   6.107   8.949   9.479 -0.0480 -0.5411 -0.0387
  663MOL0     C89399   6.255   8.948   9.531  0.8352  0.2006  0.7070
  663MOL0     O89400   6.356   8.947   9.439 -0.0791  0.1105  0.2295
  663MOL0     C89401   6.479   8.977   9.501  0.5862 -0.1417  0.3400
  663MOL0     C89402   6.535   9.111   9.504 -0.3517  0.3048  0.1192
  663MOL0     C89403   6.669   9.119   9.558  0.3743  0.0447  0.1895
  663MOL0     C89404   6.743   9.001   9.578 -0.0108 -0.0912 -0.2757
  663MOL0     O89405   6.872   9.017   9.611 -0.3561 -0.2769 -0.2655
  663MOL0     C89406   6.972   8.907   9.600  0.0891  0.8235  0.4997
  663MOL0     C89407   7.098   8.974   9.559  0.2234 -0.1947  0.2617
  663MOL0     C89408   7.214   8.872   9.561  1.0799  0.3971 -0.6266
  663MOL0     C89409   7.343   8.937   9.515  0.6367  0.0622  0.1887
  663MOL0     C89410   7.473   8.858   9.550 -0.7602  0.2737 -0.2247
  663MOL0     C89411   7.597   8.950   9.531 -0.3362  0.7630  0.4979
  663MOL0     C89412   7.729   8.887   9.484 -0.2789  0.7536 -0.4647
  663MOL0     C89413   7.845   8.964   9.542  0.4596  0.3281 -0.4141
  663MOL0    Cl89414   7.985   8.931   9.427  0.0890  0.0099  0.0403
  663MOL0     C89415   6.684   8.876   9.561  0.6570 -0.5268  0.3985
  663MOL0     C89416   6.550   8.861   9.534  0.9471 -0.5722 -0.7699
  663MOL0     O89417   6.267   8.969   9.652 -1.0816 -0.1276  0.2414
  663MOL0     C89418   5.998   8.977   9.569 -1.2148  0.8143  0.0907
  663MOL0     C89419   5.871   8.970   9.520  0.4366 -0.0620 -0.3058
  663MOL0     N89420   5.237   8.593   9.264  0.5242  0.1705 -0.1772
  663MOL0     N89421   5.195   8.476   9.221 -1.3076  0.7337 -0.2552
  663MOL0     C89422   6.327   8.481   9.348  0.3732  1.0772  0.2420
  663MOL0     C89423   6.456   8.453   9.391 -0.3512  0.0652 -0.1983
  663MOL0     C89424   6.881   8.368   9.454 -0.2149 -0.5822 -0.2251
  663MOL0     C89425   6.932   8.481   9.525 -0.8163  0.0962 -1.2224
  663MOL0     C89426   7.062   8.466   9.582  0.2468 -1.0903 -0.0576
  663MOL0     C89427   7.143   8.353   9.581 -0.7156 -0.5348 -0.1127
  663MOL0     O89428   7.271   8.334   9.619  0.0304 -0.3816 -0.4329
  663MOL0     C89429   7.352   8.449   9.635 -0.4937  0.6159  0.6009
  663MOL0     C89430   7.492   8.400   9.696 -0.1549  0.9997 -0.1769
  663MOL0     C89431   7.598   8.513   9.702 -0.3467  0.0280  0.6705
  663MOL0     C89432   7.742   8.463   9.722 -1.2660  0.5482  0.1112
  663MOL0     C89433   7.832   8.574   9.746 -0.2187 -0.4949  0.8665
  663MOL0     C89434   7.916   8.658   9.773 -0.3598 -0.3825  0.2426
  663MOL0     C89435   7.085   8.247   9.519  0.4422  0.8099 -0.2683
  663MOL0     C89436   6.962   8.253   9.453  1.4390 -0.3034  0.1458
  663MOL0     C89437   6.905   8.124   9.392  0.6564  0.4151  0.1154
  663MOL0     H89438   6.485   8.156   9.225 -0.5444  0.8824 -2.0009
  663MOL0     H89439   6.264   8.198   9.162 -2.2397 -0.2090  2.9397
  663MOL0     H89440   6.092   8.324   9.049 -1.0566  1.0937 -0.8714
  663MOL0     H89441   6.030   8.244   9.189 -0.0444 -0.7138 -1.3129
  663MOL0     H89442   5.921   8.504   9.082  1.0871  0.2891 -0.6475
  663MOL0     H89443   5.858   8.395   9.209  1.1047  1.8850  0.0673
  663MOL0     H89444   5.879   8.227   9.002 -0.3737 -0.1781  1.1833
  663MOL0     H89445   5.868   8.374   8.897 -1.0832  1.0476  0.2197
  663MOL0     H89446   5.661   8.320   9.117  2.2447  0.2973  0.5174
  663MOL0     H89447   5.659   8.447   9.001  0.7678  1.8546  1.1120
  663MOL0     H89448   5.666   8.289   8.813 -0.2001 -1.0780 -0.1622
  663MOL0     H89449   5.630   8.155   8.929  1.0012  0.8585  3.1130
  663MOL0     H89450   5.486   8.415   8.894  2.0926  0.1347  0.9361
  663MOL0     H89451   5.421   8.273   8.805 -1.6245 -0.2850  0.4252
  663MOL0     H89452   5.442   8.308   9.107  0.1543 -1.9022  1.7491
  663MOL0     H89453   5.385   8.160   9.021 -2.0038  0.1318 -2.2831
  663MOL0     H89454   5.199   8.342   8.923 -0.0158  3.7857  0.1069
  663MOL0     H89455   5.185   8.262   9.074 -2.8738  2.4301 -1.0498
  663MOL0     H89456   5.345   8.602   8.957  4.0434 -0.4331  0.9929
  663MOL0     H89457   5.390   8.838   9.083 -1.6984  1.2384  0.1702
  663MOL0     H89458   5.276   8.873   9.193  0.9931  0.6952 -0.7422
  663MOL0     H89459   5.416   8.767   9.382 -0.6702 -0.0472 -1.0036
  663MOL0     H89460   5.551   8.749   9.261  0.8014  0.8093 -0.1317
  663MOL0     H89461   5.401   9.002   9.344 -0.8467 -0.4560  0.5686
  663MOL0     H89462   5.511   8.997   9.212  0.3553 -1.7599 -0.7839
  663MOL0     H89463   5.596   8.956   9.498 -0.3139  0.5659 -0.4520
  663MOL0     H89464   5.630   9.104   9.399  0.0969  0.1908 -0.3613
  663MOL0     H89465   5.945   8.914   9.193 -0.2419  0.2950 -0.1547
  663MOL0     H89466   6.165   8.912   9.283 -0.8909 -1.5574 -0.8246
  663MOL0     H89467   6.482   9.204   9.486 -1.2229  0.0474  1.2222
  663MOL0     H89468   6.704   9.218   9.583  0.7981  0.7612 -2.8833
  663MOL0     H89469   6.977   8.847   9.691  0.9944 -2.4205 -1.5249
  663MOL0     H89470   6.945   8.835   9.522  4.7714 -1.1858  0.3874
  663MOL0     H89471   7.092   9.025   9.462  3.8253  2.8961  1.4281
  663MOL0     H89472   7.125   9.047   9.636  1.5535 -1.4078  0.9984
  663MOL0     H89473   7.239   8.840   9.662 -0.0900  4.2422  1.0411
  663MOL0     H89474   7.191   8.792   9.490  0.2358  1.2724 -1.3761
  663MOL0     H89475   7.343   9.041   9.549 -1.1174  1.7256 -4.2443
  663MOL0     H89476   7.344   8.940   9.406 -5.2865 -3.1897 -0.3883
  663MOL0     H89477   7.481   8.764   9.495  3.7051 -0.4382  1.1798
  663MOL0     H89478   7.472   8.823   9.653  0.0996  0.9206  0.0234
  663MOL0     H89479   7.576   9.024   9.453 -0.8904  0.1903  0.0905
  663MOL0     H89480   7.601   9.009   9.623 -0.2890  0.8522  0.4383
  663MOL0     H89481   7.737   8.896   9.375  0.0777 -0.6036 -0.5702
  663MOL0     H89482   7.747   8.784   9.515  0.7825  0.6983 -1.2098
  663MOL0     H89483   7.829   9.072   9.555  0.5178  0.6984 -2.9389
  663MOL0     H89484   7.874   8.934   9.643  0.0972  1.2790 -0.0150
  663MOL0     H89485   6.742   8.787   9.581  0.3988 -0.9099 -0.5197
  663MOL0     H89486   6.519   8.757   9.526 -1.4845 -0.1505  1.7762
  663MOL0     H89487   6.028   8.986   9.673  0.6428  2.8875 -0.5430
  663MOL0     H89488   5.789   8.995   9.587  0.2890  2.2098 -1.2509
  663MOL0     H89489   6.270   8.567   9.381 -1.8736 -0.2837  0.1103
  663MOL0     H89490   6.509   8.521   9.457 -0.9101 -0.7389  1.1167
  663MOL0     H89491   6.884   8.577   9.540  3.9496  2.9628 -2.0065
  663MOL0     H89492   7.102   8.552   9.635 -3.3216  0.2434  0.7500
  663MOL0     H89493   7.315   8.533   9.695  2.1821  1.0973  1.7328
  663MOL0     H89494   7.381   8.505   9.545  4.7710 -0.5522  1.2625
  663MOL0     H89495   7.528   8.316   9.635 -0.8078  0.9198 -0.4612
  663MOL0     H89496   7.470   8.367   9.797 -3.3208  0.8334 -0.8176
  663MOL0     H89497   7.576   8.581   9.785  3.2090  0.1131  1.7044
  663MOL0     H89498   7.598   8.571   9.609  3.2690 -0.0089  0.5190
  663MOL0     H89499   7.733   8.388   9.801 -1.0192 -0.4567 -0.7800
  663MOL0     H89500   7.784   8.404   9.639  0.9599 -0.2588  1.7321
  663MOL0     H89501   7.975   8.745   9.794 -0.0901  0.4770 -3.3948
  663MOL0     H89502   7.137   8.152   9.516  0.4212  0.4755  3.9158
  663MOL0     H89503   6.844   8.142   9.303 -1.5601  1.6956  1.8212
  663MOL0     H89504   6.995   8.065   9.370  1.3717  1.9908 -1.4669
  663MOL0     H89505   6.849   8.068   9.467  2.5254 -0.8997  0.6109
  664MOL0     O89506   9.484   7.284   6.551 -0.4189 -0.5040  0.3295
  664MOL0     C89507   9.419   7.386   6.535 -0.1659  1.2466 -0.4484
  664MOL0     O89508   9.462   7.483   6.445  0.0856 -0.5760 -0.2722
  664MOL0     C89509   9.566   7.449   6.362  0.5210 -0.5518 -0.6419
  664MOL0     C89510   9.698   7.472   6.411  0.3112  0.0116 -0.4136
  664MOL0     C89511   9.812   7.430   6.337 -0.5157 -0.0199 -0.7812
  664MOL0     C89512   9.795   7.385   6.205  0.2330  0.2897  0.0548
  664MOL0     O89513   9.896   7.346   6.119 -0.5625  0.1548 -0.4538
  664MOL0     C89514  10.027   7.334   6.168 -1.0269  0.0006 -0.5064
  664MOL0     C89515  10.112   7.254   6.058  0.2024 -0.2519 -0.5857
  664MOL0     C89516  10.259   7.249   6.082 -1.7056 -0.8471 -0.6634
  664MOL0     C89517  10.329   7.125   6.022  0.7870  0.4284 -0.0437
  664MOL0     C89518  10.470   7.111   6.062 -0.2951 -0.1492  0.0145
  664MOL0     C89519  10.476   7.026   6.193 -0.7849 -0.6009 -0.2681
  664MOL0     C89520  10.639   7.014   6.215  0.4170 -1.0687 -0.5428
  664MOL0     C89521  10.691   6.876   6.168 -0.7047 -0.0151 -0.3597
  664MOL0     N89522  10.827   6.866   6.218  0.6282 -0.1648  0.4406
  664MOL0     C89523  10.940   6.910   6.154  0.5626  0.2834 -0.2467
  664MOL0     C89524  11.045   6.866   6.228 -0.3289  0.5156 -1.5771
  664MOL0     C89525  11.189   6.880   6.201 -1.3338  0.7150 -0.0735
  664MOL0     C89526  11.230   7.022   6.149  0.2083  0.8717 -0.9508
  664MOL0     C89527  11.238   7.125   6.265 -0.3669 -0.0297 -1.2332
  664MOL0     C89528  11.107   7.190   6.304 -0.0017  0.1416 -0.3422
  664MOL0     O89529  11.059   7.254   6.184 -0.6169  0.7749 -0.5226
  664MOL0     C89530  10.938   7.303   6.185  0.4902 -0.5708 -0.3968
  664MOL0     C89531  10.853   7.327   6.299 -0.7723  0.1517 -0.7638
  664MOL0     C89532  10.734   7.388   6.281 -0.3170 -0.0609 -0.0329
  664MOL0     C89533  10.683   7.421   6.153 -0.6584  0.5458  1.0052
  664MOL0     C89534  10.560   7.497   6.135  0.1638 -0.9888 -0.2877
  664MOL0     O89535  10.470   7.493   6.238 -0.2466 -0.1208 -0.0997
  664MOL0     C89536  10.379   7.592   6.276 -0.0486 -0.4816 -0.2489
  664MOL0     C89537  10.280   7.546   6.358  0.4502  0.1925  0.4459
  664MOL0     C89538  10.171   7.629   6.388 -0.7584  0.1427 -0.1765
  664MOL0     C89539  10.158   7.762   6.344  0.8150 -0.3121 -0.6725
  664MOL0     O89540  10.062   7.856   6.378 -0.4433  0.7845  0.6964
  664MOL0     C89541   9.988   7.863   6.497 -0.2089  0.1299  0.2178
  664MOL0     C89542   9.840   7.837   6.455 -0.3031 -0.8961  0.8428
  664MOL0     C89543   9.754   7.889   6.574 -0.6284  0.1422 -0.1563
  664MOL0     C89544   9.607   7.844   6.549 -0.1979 -0.3936  0.0938
  664MOL0     C89545   9.527   7.808   6.671 -0.3442  0.2425 -0.2323
  664MOL0     C89546   9.506   7.924   6.765 -0.4487 -0.1629 -0.5618
  664MOL0     C89547   9.385   7.885   6.864  0.0184  0.5990 -0.8093
  664MOL0     C89548   9.359   7.975   6.984  0.8126 -0.3252  0.6784
  664MOL0    Cl89549   9.287   8.130   6.935 -0.1113  0.0734  0.2870
  664MOL0     C89550  10.260   7.806   6.256 -0.0693 -0.8962 -0.2181
  664MOL0     C89551  10.367   7.722   6.224  0.2771  0.3096  0.6929
  664MOL0     O89552  10.543   7.562   6.029  1.0287 -0.2555 -0.1460
  664MOL0     C89553  10.766   7.398   6.038  0.4586 -0.2456  0.2382
  664MOL0     C89554  10.892   7.341   6.060 -0.0202  1.1900 -0.4749
  664MOL0     N89555  10.990   6.785   6.337  0.5730 -0.4808 -0.1848
  664MOL0     N89556  10.856   6.790   6.322 -0.9228  0.2154 -0.0546
  664MOL0     C89557   9.662   7.381   6.153 -0.6410  0.3276  0.3655
  664MOL0     C89558   9.549   7.417   6.227  0.5676  0.2164 -0.1306
  664MOL0     C89559   9.312   7.422   6.624 -0.3960 -0.0728  0.1686
  664MOL0     C89560   9.247   7.546   6.599  0.4953 -0.0234  0.3584
  664MOL0     C89561   9.136   7.586   6.676 -0.5352 -0.0637  0.6802
  664MOL0     C89562   9.086   7.506   6.775 -0.1558  0.0306  0.7692
  664MOL0     O89563   8.983   7.539   6.861 -0.2821 -0.8645 -0.5781
  664MOL0     C89564   8.899   7.650   6.838  0.2202  0.2416 -0.1046
  664MOL0     C89565   8.815   7.661   6.964  0.3751  0.4502 -0.6780
  664MOL0     C89566   8.900   7.709   7.085  0.2260 -0.2113 -0.4209
  664MOL0     C89567   9.008   7.826   7.067  0.4279  0.0169  0.9922
  664MOL0     C89568   8.959   7.954   7.014 -0.2868 -0.1851  0.0010
  664MOL0     C89569   8.919   8.067   6.968  0.0413 -0.2047  1.1677
  664MOL0     C89570   9.156   7.382   6.806 -0.2461 -0.3873 -0.1226
  664MOL0     C89571   9.267   7.339   6.732 -0.0077 -0.2247 -0.8084
  664MOL0     C89572   9.321   7.211   6.783 -0.5467  0.6065 -0.3734
  664MOL0     H89573   9.713   7.522   6.506  0.2062 -0.8637  0.0744
  664MOL0     H89574   9.914   7.453   6.365  0.0117  2.1481 -3.9753
  664MOL0     H89575  10.066   7.437   6.175  0.4236 -0.5151 -0.6750
  664MOL0     H89576  10.038   7.282   6.263 -0.0462  0.0825 -0.5669
  664MOL0     H89577  10.100   7.303   5.961  1.2132  4.4276  1.3802
  664MOL0     H89578  10.075   7.152   6.043 -2.2236  0.5670 -0.6422
  664MOL0     H89579  10.285   7.243   6.188 -0.8502  0.1868 -0.8012
  664MOL0     H89580  10.307   7.338   6.041 -0.8393 -1.4555 -1.0081
  664MOL0     H89581  10.272   7.038   6.057  1.5814  0.7285  2.1608
  664MOL0     H89582  10.314   7.133   5.914  0.8357 -3.0357 -0.4281
  664MOL0     H89583  10.519   7.055   5.982 -1.1228  0.8223 -1.1948
  664MOL0     H89584  10.504   7.215   6.061 -0.4916 -0.0868 -0.0856
  664MOL0     H89585  10.424   7.082   6.272 -1.4721 -0.7897 -0.5766
  664MOL0     H89586  10.428   6.929   6.183  1.7436 -1.7239 -2.7057
  664MOL0     H89587  10.643   7.023   6.324  2.0356  0.9271 -0.6964
  664MOL0     H89588  10.697   7.090   6.162 -0.5700 -1.2820 -1.9738
  664MOL0     H89589  10.633   6.796   6.214 -2.5189  0.8946 -0.9684
  664MOL0     H89590  10.686   6.864   6.059 -1.6192 -1.3723 -0.1887
  664MOL0     H89591  10.938   6.963   6.059 -0.4796 -0.7218 -0.8043
  664MOL0     H89592  11.244   6.864   6.295 -3.4218  2.0368  1.4647
  664MOL0     H89593  11.222   6.800   6.134 -0.7897 -1.1196  2.2341
  664MOL0     H89594  11.332   7.011   6.111  1.4414  0.9818  2.0695
  664MOL0     H89595  11.171   7.059   6.064  1.8570  2.5220 -1.4354
  664MOL0     H89596  11.310   7.204   6.242  1.6179  0.5611  5.1120
  664MOL0     H89597  11.272   7.067   6.352 -0.6568  1.8150  0.1600
  664MOL0     H89598  11.119   7.259   6.388 -1.7899 -0.1125  0.1523
  664MOL0     H89599  11.039   7.115   6.345  0.8899 -0.8253 -0.5912
  664MOL0     H89600  10.894   7.297   6.395  0.8626  1.2674 -1.0766
  664MOL0     H89601  10.673   7.413   6.367  1.0080 -0.5435  1.0808
  664MOL0     H89602  10.273   7.444   6.395  2.2523  0.1306  0.7389
  664MOL0     H89603  10.087   7.586   6.441  0.3458 -1.7405  0.1564
  664MOL0     H89604  10.010   7.794   6.579  1.5318  1.0816  0.6169
  664MOL0     H89605   9.990   7.966   6.535 -1.7040  0.0327  0.6215
  664MOL0     H89606   9.825   7.902   6.369 -1.7089 -0.7934  1.1400
  664MOL0     H89607   9.816   7.731   6.440  1.0269 -1.1504  0.4073
  664MOL0     H89608   9.781   7.852   6.673 -1.9602  1.4251  0.7083
  664MOL0     H89609   9.759   7.997   6.585  0.3798  0.0009  1.0886
  664MOL0     H89610   9.619   7.749   6.494 -0.8411 -1.0409  1.0464
  664MOL0     H89611   9.560   7.914   6.479 -1.6816  0.5315  1.9403
  664MOL0     H89612   9.561   7.724   6.732 -0.4348 -0.1495 -0.7142
  664MOL0     H89613   9.433   7.774   6.626 -0.3158  1.9196 -1.6801
  664MOL0     H89614   9.599   7.947   6.818 -0.5067  1.0421 -0.9705
  664MOL0     H89615   9.482   8.013   6.707 -0.3589 -0.4427 -1.0381
  664MOL0     H89616   9.401   7.786   6.907  3.9408  1.9848  1.4354
  664MOL0     H89617   9.293   7.860   6.809 -0.5792  2.4889 -0.7393
  664MOL0     H89618   9.296   7.933   7.063  1.7338 -4.7777 -0.6173
  664MOL0     H89619   9.453   7.996   7.037  1.0888  0.3739 -0.0669
  664MOL0     H89620  10.266   7.909   6.223  0.3798 -0.0233  2.3536
  664MOL0     H89621  10.426   7.765   6.144  2.3578  0.8360  2.4206
  664MOL0     H89622  10.730   7.421   5.938 -0.6387 -1.0201  0.4323
  664MOL0     H89623  10.958   7.322   5.977 -0.7339  1.3001 -1.0757
  664MOL0     H89624   9.642   7.358   6.049 -2.4433  0.8392  0.5644
  664MOL0     H89625   9.447   7.404   6.194  0.9409  0.4762 -1.4362
  664MOL0     H89626   9.280   7.608   6.517  1.5682 -1.0551 -0.0033
  664MOL0     H89627   9.099   7.687   6.663 -0.3777  0.0105  0.8061
  664MOL0     H89628   8.827   7.630   6.758 -1.7140 -1.1397  1.8672
  664MOL0     H89629   8.956   7.741   6.818 -1.8094  1.0408 -2.8889
  664MOL0     H89630   8.773   7.561   6.978  0.2509  0.3137 -1.9473
  664MOL0     H89631   8.741   7.739   6.944  0.8114  1.4464  1.3565
  664MOL0     H89632   8.952   7.619   7.118  1.3853 -1.3711 -4.7915
  664MOL0     H89633   8.828   7.744   7.160 -1.3013 -2.3000 -0.8041
  664MOL0     H89634   9.060   7.840   7.162  3.4129 -1.0883 -0.3478
  664MOL0     H89635   9.083   7.787   6.998 -1.4803 -0.9608 -0.6366
  664MOL0     H89636   8.880   8.162   6.937 -0.7462 -0.8382  0.1781
  664MOL0     H89637   9.126   7.340   6.901  1.2145 -0.7624  0.2002
  664MOL0     H89638   9.426   7.219   6.813 -0.1045 -2.6945 -0.6792
  664MOL0     H89639   9.262   7.170   6.865 -0.5160 -1.4088 -1.3235
  664MOL0     H89640   9.320   7.129   6.711 -0.6911  0.4497 -0.1933
  665MOL0     O89641   6.972   4.561  10.669 -0.2165  0.4064 -0.4135
  665MOL0     C89642   6.856   4.549  10.715 -0.0483 -0.8316  0.3421
  665MOL0     O89643   6.826   4.561  10.844 -0.7656 -0.6593  0.2055
  665MOL0     C89644   6.932   4.601  10.924  0.4591  0.5530  0.0506
  665MOL0     C89645   7.011   4.714  10.899  0.0258  0.6893  0.1517
  665MOL0     C89646   7.104   4.757  10.994  0.1054  0.5854  0.0018
  665MOL0     C89647   7.120   4.684  11.114 -0.4214  0.5735 -0.0784
  665MOL0     O89648   7.222   4.701  11.198 -0.1384  0.6749  0.0437
  665MOL0     C89649   7.317   4.795  11.166  0.1397 -0.3841  0.3205
  665MOL0     C89650   7.388   4.862  11.288  0.6361  0.7149 -0.5453
  665MOL0     C89651   7.416   4.754  11.399 -0.1784  0.0522 -0.2145
  665MOL0     C89652   7.432   4.824  11.536 -0.6016 -0.5083 -0.1546
  665MOL0     C89653   7.512   4.754  11.644 -0.4560  0.3342  0.8371
  665MOL0     C89654   7.659   4.740  11.607  0.4654 -0.0414  0.4591
  665MOL0     C89655   7.738   4.683  11.724 -0.3298 -0.2913 -0.5774
  665MOL0     C89656   7.891   4.658  11.691  0.5647 -0.6593  0.6757
  665MOL0     N89657   7.969   4.627  11.818 -0.2214 -0.0395  0.1451
  665MOL0     C89658   7.906   4.584  11.936 -0.2349 -0.1482 -0.1536
  665MOL0     C89659   8.011   4.583  12.024 -0.2567 -0.0749  0.0989
  665MOL0     C89660   8.012   4.515  12.163  0.0492 -0.0607  1.4861
  665MOL0     C89661   7.871   4.515  12.232 -1.0218  0.0598  0.2585
  665MOL0     C89662   7.832   4.658  12.286  0.3754 -0.0857  0.6910
  665MOL0     C89663   7.680   4.674  12.278  0.3487  0.7051  0.4585
  665MOL0     O89664   7.645   4.682  12.136  0.8989  0.4124  0.4893
  665MOL0     C89665   7.505   4.697  12.106 -0.2168 -0.4012 -0.4050
  665MOL0     C89666   7.455   4.661  11.987 -0.0363 -0.2559 -0.0876
  665MOL0     C89667   7.325   4.698  11.949  1.1398 -0.9535  0.5377
  665MOL0     C89668   7.247   4.781  12.028  0.6142  0.3054 -0.2413
  665MOL0     C89669   7.112   4.833  11.982  0.2289 -0.0690 -0.0572
  665MOL0     O89670   7.070   4.808  11.853 -0.0911 -0.2477  0.3035
  665MOL0     C89671   6.952   4.863  11.796 -1.4649  0.5890 -0.6089
  665MOL0     C89672   6.854   4.781  11.742 -0.4904  0.5136 -0.0264
  665MOL0     C89673   6.739   4.845  11.695  0.3245  0.2384  0.0923
  665MOL0     C89674   6.718   4.978  11.693 -0.4740  0.0598  0.2811
  665MOL0     O89675   6.602   5.012  11.642  0.2420 -0.5205 -0.4066
  665MOL0     C89676   6.559   5.142  11.685  1.1903 -0.6753  0.2820
  665MOL0     C89677   6.419   5.174  11.630 -0.2246  0.2546 -0.3036
  665MOL0     C89678   6.403   5.145  11.477 -0.0733 -0.4172 -0.5713
  665MOL0     C89679   6.264   5.169  11.432  0.2471 -1.2822  0.0378
  665MOL0     C89680   6.232   5.133  11.290  0.0036  0.3554 -0.2417
  665MOL0     C89681   6.320   5.202  11.183  0.0923  0.8513 -0.2341
  665MOL0     C89682   6.301   5.353  11.182 -0.1040  0.7479 -0.1169
  665MOL0     C89683   6.324   5.418  11.047 -0.0977 -0.6943  0.1261
  665MOL0    Cl89684   6.492   5.375  10.986 -0.2085 -0.2321  0.2849
  665MOL0     C89685   6.826   5.062  11.736  0.2578  0.5626 -1.0387
  665MOL0     C89686   6.941   5.004  11.783 -0.1852  0.3617 -0.6844
  665MOL0     O89687   7.057   4.897  12.063  0.1378 -0.0218  0.2554
  665MOL0     C89688   7.293   4.806  12.158 -0.5640 -0.3348 -0.4290
  665MOL0     C89689   7.418   4.763  12.195 -0.5873 -0.7064  0.1435
  665MOL0     N89690   8.125   4.627  11.965  0.0789 -0.1214 -0.5353
  665MOL0     N89691   8.093   4.658  11.846 -0.4624 -0.0158 -0.4244
  665MOL0     C89692   7.037   4.579  11.142  1.1814 -0.4766 -0.0499
  665MOL0     C89693   6.933   4.546  11.052  0.1393 -0.6003  0.4990
  665MOL0     C89694   6.751   4.508  10.613 -0.4874  0.0824 -0.2639
  665MOL0     C89695   6.788   4.526  10.477 -0.7977  0.2360 -0.6596
  665MOL0     C89696   6.713   4.487  10.372  0.4240  0.3452  0.0833
  665MOL0     C89697   6.587   4.429  10.397  0.2256  0.2945  0.8725
  665MOL0     O89698   6.522   4.364  10.294  0.1546  0.5120 -0.4136
  665MOL0     C89699   6.485   4.447  10.182  0.2409 -0.0283  0.2907
  665MOL0     C89700   6.554   4.386  10.052  0.3987  0.6361 -0.2132
  665MOL0     C89701   6.473   4.406   9.919  0.1320 -1.2426  0.5783
  665MOL0     C89702   6.561   4.340   9.808  0.3484  0.2737  0.3382
  665MOL0     C89703   6.564   4.194   9.828 -0.2526  0.4635 -0.1719
  665MOL0     C89704   6.563   4.073   9.846  0.7020 -1.1649  0.0184
  665MOL0     C89705   6.548   4.416  10.528  0.6410  0.3839 -0.1738
  665MOL0     C89706   6.624   4.448  10.635  0.8111  0.1511 -0.7101
  665MOL0     C89707   6.573   4.411  10.768  1.4311  0.4342 -0.4862
  665MOL0     H89708   7.014   4.764  10.803  0.6948 -1.8258 -1.2100
  665MOL0     H89709   7.171   4.836  10.960  1.4577 -0.9808 -1.0823
  665MOL0     H89710   7.382   4.742  11.096  3.3413  2.6357  0.6909
  665MOL0     H89711   7.285   4.887  11.116  0.4174  0.4097  1.5407
  665MOL0     H89712   7.324   4.934  11.340  0.1408 -0.4250  0.4856
  665MOL0     H89713   7.483   4.905  11.256  2.1400 -0.6006  1.8718
  665MOL0     H89714   7.506   4.700  11.368 -2.0409 -1.3602 -3.7337
  665MOL0     H89715   7.329   4.689  11.413 -0.5610  0.3415 -1.1522
  665MOL0     H89716   7.468   4.928  11.532 -1.3977  0.2638  5.2611
  665MOL0     H89717   7.330   4.827  11.576 -0.2261 -0.1740  0.8346
  665MOL0     H89718   7.497   4.809  11.737 -0.7421 -1.4263  1.8787
  665MOL0     H89719   7.458   4.661  11.666  0.0562  0.3553  2.3120
  665MOL0     H89720   7.671   4.666  11.527 -1.0042  0.2928 -0.1133
  665MOL0     H89721   7.699   4.839  11.585 -5.1315  2.0793 -2.0072
  665MOL0     H89722   7.692   4.587  11.750 -2.9413  1.4987  2.0852
  665MOL0     H89723   7.732   4.751  11.810  0.1783  0.2517 -0.9623
  665MOL0     H89724   7.914   4.574  11.626 -2.4769 -2.0043  1.1618
  665MOL0     H89725   7.935   4.740  11.634 -2.6169  0.9600  0.2925
  665MOL0     H89726   7.800   4.564  11.950  0.2644 -1.8145  1.7314
  665MOL0     H89727   8.035   4.411  12.137 -1.4685 -0.5287  1.9617
  665MOL0     H89728   8.097   4.555  12.221  3.2561 -2.2413 -1.2971
  665MOL0     H89729   7.789   4.478  12.169  1.8740 -1.8251 -2.7498
  665MOL0     H89730   7.892   4.452  12.319  1.3899  0.7988  0.2938
  665MOL0     H89731   7.895   4.735  12.241  1.7533 -0.4266  1.9649
  665MOL0     H89732   7.856   4.644  12.391 -0.9403 -0.1819  0.9979
  665MOL0     H89733   7.662   4.766  12.334 -1.0200  0.4919  0.3901
  665MOL0     H89734   7.633   4.589  12.327 -0.8218 -0.0671 -1.8497
  665MOL0     H89735   7.506   4.600  11.914  0.3211  2.9344 -2.7376
  665MOL0     H89736   7.296   4.671  11.848 -2.8768 -2.2668  1.8695
  665MOL0     H89737   6.866   4.674  11.740  2.0430  0.6926 -3.7962
  665MOL0     H89738   6.664   4.776  11.659  0.0564  0.3162  0.4964
  665MOL0     H89739   6.557   5.141  11.794 -1.7444 -1.8973  0.3093
  665MOL0     H89740   6.622   5.228  11.663 -1.8045  2.8256  3.7810
  665MOL0     H89741   6.355   5.104  11.684 -0.7832  0.1100 -1.1339
  665MOL0     H89742   6.386   5.277  11.648 -0.5567  0.0290  0.3858
  665MOL0     H89743   6.473   5.218  11.435  0.2876  1.4162  2.8168
  665MOL0     H89744   6.418   5.040  11.453 -0.3842 -0.7188  0.4943
  665MOL0     H89745   6.248   5.277  11.440 -0.4970 -1.2473 -1.5683
  665MOL0     H89746   6.193   5.117  11.497 -0.0991 -0.6939  0.1342
  665MOL0     H89747   6.126   5.151  11.269  0.4316  1.2257 -1.7825
  665MOL0     H89748   6.255   5.026  11.290  2.8615  0.7785  3.3193
  665MOL0     H89749   6.427   5.178  11.191  0.3299 -1.0998 -5.2695
  665MOL0     H89750   6.297   5.170  11.081 -1.9476  4.9947 -1.2738
  665MOL0     H89751   6.370   5.397  11.254  1.4966  1.4649 -1.9981
  665MOL0     H89752   6.202   5.388  11.215 -0.3269 -0.9899  1.2066
  665MOL0     H89753   6.248   5.387  10.975  0.3647  1.9125 -1.6327
  665MOL0     H89754   6.310   5.526  11.058  2.7056  0.0478 -2.1759
  665MOL0     H89755   6.816   5.170  11.728 -0.8900  0.5974  0.3440
  665MOL0     H89756   7.017   5.074  11.819  0.2204 -0.6291  0.4207
  665MOL0     H89757   7.225   4.860  12.223 -1.7055 -2.0286 -0.1451
  665MOL0     H89758   7.446   4.785  12.297  3.6561  2.9305 -1.4502
  665MOL0     H89759   7.044   4.516  11.231 -3.0295  0.8347  1.4707
  665MOL0     H89760   6.858   4.473  11.080  1.2570 -1.7312  0.6429
  665MOL0     H89761   6.881   4.576  10.452  0.1527 -0.9298  0.3426
  665MOL0     H89762   6.736   4.495  10.266 -1.4691  1.9578 -0.2652
  665MOL0     H89763   6.519   4.550  10.193  3.6274 -1.1479  1.5141
  665MOL0     H89764   6.376   4.442  10.171  0.2670  0.8341 -0.4851
  665MOL0     H89765   6.547   4.277  10.060 -2.5411  0.6195 -1.8886
  665MOL0     H89766   6.659   4.416  10.040  0.6861 -0.9316 -2.2245
  665MOL0     H89767   6.475   4.515   9.908  0.4550 -1.1670  1.3008
  665MOL0     H89768   6.370   4.379   9.944 -0.1046 -0.6311  0.2926
  665MOL0     H89769   6.512   4.357   9.711  1.9213 -0.4816 -0.6346
  665MOL0     H89770   6.663   4.378   9.810 -0.3673  2.2650  0.7317
  665MOL0     H89771   6.565   3.969   9.869 -1.1047 -1.4124 -0.8225
  665MOL0     H89772   6.457   4.358  10.538 -0.3088  1.0084 -3.7889
  665MOL0     H89773   6.561   4.502  10.827 -1.3967  0.7073 -1.3856
  665MOL0     H89774   6.479   4.359  10.751  1.5204 -0.2735  0.9730
  665MOL0     H89775   6.636   4.351  10.836 -2.4759 -1.8862  1.4206
  666MOL0     O89776   8.318   1.356   6.316  0.1294 -1.2021  0.0319
  666MOL0     C89777   8.282   1.470   6.330  1.0179  0.4059 -0.7592
  666MOL0     O89778   8.363   1.580   6.314  0.3331  0.5294  0.4075
  666MOL0     C89779   8.495   1.569   6.285 -0.3022 -0.7880 -0.5151
  666MOL0     C89780   8.566   1.690   6.270  0.0977  0.0734  0.5457
  666MOL0     C89781   8.704   1.701   6.230  0.0952 -0.7347  0.1309
  666MOL0     C89782   8.780   1.592   6.200  0.3124  0.1546 -0.5618
  666MOL0     O89783   8.904   1.613   6.151  0.5556  0.5391 -0.2675
  666MOL0     C89784   8.970   1.512   6.072 -0.5613  0.3858  0.3605
  666MOL0     C89785   9.118   1.545   6.054  0.3928 -0.3417 -0.1336
  666MOL0     C89786   9.190   1.542   6.194 -0.3663  1.4665 -0.4753
  666MOL0     C89787   9.230   1.398   6.246 -0.2051  0.3872 -0.2200
  666MOL0     C89788   9.279   1.396   6.388  0.2597  0.0802  0.3114
  666MOL0     C89789   9.428   1.415   6.409 -0.3998  0.6470  0.0225
  666MOL0     C89790   9.486   1.422   6.552  0.3828  0.0826  0.0568
  666MOL0     C89791   9.633   1.465   6.561 -0.7525 -0.2683  0.9125
  666MOL0     N89792   9.724   1.372   6.489  0.2108 -0.6518 -0.5564
  666MOL0     C89793   9.762   1.248   6.536  0.3005 -0.3276  0.4633
  666MOL0     C89794   9.831   1.201   6.431  0.3099 -0.2776  0.3018
  666MOL0     C89795   9.901   1.073   6.420 -0.9264 -0.1814 -0.6418
  666MOL0     C89796  10.054   1.100   6.424 -0.6573  0.0665 -0.0124
  666MOL0     C89797  10.118   0.969   6.396 -0.1199  0.7398 -0.3407
  666MOL0     C89798  10.268   0.980   6.376  0.6019  0.5755  0.2682
  666MOL0     O89799  10.311   1.100   6.304 -0.9339 -0.6040 -0.2118
  666MOL0     C89800  10.439   1.104   6.249  0.9182  0.3429 -0.8915
  666MOL0     C89801  10.530   0.999   6.284  0.0751  0.2210 -0.0059
  666MOL0     C89802  10.651   0.976   6.221 -0.0033 -0.5109  0.2778
  666MOL0     C89803  10.687   1.073   6.123  0.1318 -0.1549  1.0238
  666MOL0     C89804  10.818   1.051   6.048 -0.0130 -0.3401  0.3844
  666MOL0     O89805  10.839   1.137   5.943  0.1303 -0.4292  0.0841
  666MOL0     C89806  10.954   1.131   5.880 -0.5583  0.1052  1.0166
  666MOL0     C89807  10.933   1.104   5.746  0.6725 -0.1228  0.5424
  666MOL0     C89808  11.045   1.093   5.659 -0.3056  0.2392  0.2246
  666MOL0     C89809  11.182   1.096   5.713 -0.2772 -0.5839  0.2084
  666MOL0     O89810  11.289   1.085   5.632  0.2101  0.4653 -0.1382
  666MOL0     C89811  11.285   0.998   5.525 -0.5079  1.2910  0.6026
  666MOL0     C89812  11.428   0.959   5.483  0.3504  0.4202 -0.0663
  666MOL0     C89813  11.500   1.077   5.423 -0.6490 -0.3897 -0.3610
  666MOL0     C89814  11.647   1.031   5.394 -0.8672 -0.2431  0.2355
  666MOL0     C89815  11.648   0.915   5.279 -0.3714 -0.3274  0.9616
  666MOL0     C89816  11.782   0.924   5.209  1.1947  0.2241  0.9065
  666MOL0     C89817  11.902   0.889   5.288  0.7190  0.2830 -0.3210
  666MOL0     C89818  12.018   0.836   5.210 -0.3340 -0.1231 -0.5021
  666MOL0    Cl89819  12.065   0.943   5.075 -0.1150  0.3491  0.1496
  666MOL0     C89820  11.191   1.119   5.848  0.3238 -1.0931 -0.0134
  666MOL0     C89821  11.085   1.134   5.931  0.5528 -0.4405 -0.4139
  666MOL0     O89822  10.896   0.962   6.087  0.3111 -0.7183  0.9500
  666MOL0     C89823  10.608   1.191   6.097 -0.1719  0.0726 -0.5575
  666MOL0     C89824  10.482   1.200   6.160 -0.2491 -0.8091 -0.2125
  666MOL0     N89825   9.840   1.296   6.329 -0.2246  0.4961 -0.3947
  666MOL0     N89826   9.771   1.397   6.361  0.2585  0.3884 -0.9535
  666MOL0     C89827   8.710   1.471   6.190 -0.4706 -0.4616 -0.7878
  666MOL0     C89828   8.578   1.458   6.244 -0.1071 -0.5524 -1.0044
  666MOL0     C89829   8.148   1.504   6.388 -0.3955  0.3653  0.1640
  666MOL0     C89830   8.111   1.644   6.419 -0.5266 -0.6186  0.8257
  666MOL0     C89831   7.982   1.684   6.456  1.0767  0.1757 -0.2371
  666MOL0     C89832   7.888   1.582   6.474 -0.6858 -0.5420 -0.3620
  666MOL0     O89833   7.768   1.630   6.507 -0.2026 -0.3751  0.4172
  666MOL0     C89834   7.654   1.549   6.490  0.3004  0.3337  0.2027
  666MOL0     C89835   7.533   1.645   6.499 -0.4550 -0.5398  0.1090
  666MOL0     C89836   7.414   1.582   6.422  0.1748 -0.8593  0.1356
  666MOL0     C89837   7.285   1.661   6.440  0.9739  0.2097  0.9191
  666MOL0     C89838   7.262   1.778   6.349 -0.2895 -0.6528  0.7227
  666MOL0     C89839   7.240   1.865   6.270 -0.4000 -0.1738  0.0460
  666MOL0     C89840   7.924   1.448   6.452  0.2985 -0.4542 -0.5140
  666MOL0     C89841   8.044   1.406   6.411  0.5946  0.8203 -0.2447
  666MOL0     C89842   8.060   1.258   6.385  0.7190 -0.3680  0.5094
  666MOL0     H89843   8.507   1.779   6.288  0.3640  0.9850 -2.6272
  666MOL0     H89844   8.755   1.796   6.237  0.5928 -0.9678 -0.2728
  666MOL0     H89845   8.963   1.412   6.116  1.1332  0.2140  0.3170
  666MOL0     H89846   8.922   1.509   5.974 -2.9798  0.1040  1.4781
  666MOL0     H89847   9.142   1.638   6.003  0.5103  0.7533  1.8188
  666MOL0     H89848   9.173   1.468   5.998  2.3154 -0.1721  1.4186
  666MOL0     H89849   9.134   1.593   6.273 -0.3465  0.7726 -0.0019
  666MOL0     H89850   9.285   1.594   6.178  1.1756 -0.6878  1.1005
  666MOL0     H89851   9.143   1.334   6.229 -1.3612  1.8508  0.0499
  666MOL0     H89852   9.311   1.358   6.183 -1.4273  1.9698 -2.9864
  666MOL0     H89853   9.227   1.478   6.438 -1.0529 -0.6843  0.2737
  666MOL0     H89854   9.251   1.304   6.441 -0.0971  0.5127  0.8802
  666MOL0     H89855   9.484   1.349   6.342  0.7315  1.1979  0.4103
  666MOL0     H89856   9.454   1.514   6.372  0.6380  0.2941 -0.2249
  666MOL0     H89857   9.467   1.323   6.594 -1.2137 -0.2536 -1.3294
  666MOL0     H89858   9.430   1.494   6.613 -0.3467 -0.9650  0.6558
  666MOL0     H89859   9.633   1.567   6.520 -0.6354  0.8949  3.6304
  666MOL0     H89860   9.668   1.469   6.664  2.5077  2.3394 -0.1236
  666MOL0     H89861   9.749   1.215   6.639  1.7693  4.7569  2.6335
  666MOL0     H89862   9.891   1.000   6.501  1.1415 -2.4634 -2.2747
  666MOL0     H89863   9.879   1.025   6.324 -1.6336  0.8252 -0.9919
  666MOL0     H89864  10.087   1.165   6.342  1.9243  0.0633  0.9381
  666MOL0     H89865  10.093   1.145   6.515  1.8906 -0.0549 -0.9596
  666MOL0     H89866  10.065   0.908   6.322 -0.9064  0.0927  0.7297
  666MOL0     H89867  10.108   0.911   6.488 -0.1488  0.1925 -0.6821
  666MOL0     H89868  10.297   0.888   6.326 -1.4647  0.7566 -1.4039
  666MOL0     H89869  10.312   0.991   6.476 -2.3057 -0.0400  1.7365
  666MOL0     H89870  10.511   0.924   6.360 -1.3659  1.2204  0.6604
  666MOL0     H89871  10.714   0.888   6.227 -0.8157 -1.1524 -0.2792
  666MOL0     H89872  10.843   1.112   5.686  1.6979  2.0409 -0.8309
  666MOL0     H89873  11.015   1.088   5.554 -1.0765 -1.6673  0.4845
  666MOL0     H89874  11.230   0.907   5.549 -0.0139  1.1347  1.1453
  666MOL0     H89875  11.237   1.038   5.435 -1.1785 -0.2823  0.2169
  666MOL0     H89876  11.476   0.914   5.570 -0.6192  1.7339  1.2056
  666MOL0     H89877  11.418   0.887   5.402  0.2632  0.8706 -0.4616
  666MOL0     H89878  11.449   1.110   5.333 -0.7492 -0.8885 -0.4915
  666MOL0     H89879  11.511   1.155   5.498  1.1326 -0.9823  0.0500
  666MOL0     H89880  11.701   0.993   5.481 -1.1979 -3.2079 -0.7591
  666MOL0     H89881  11.703   1.120   5.363  0.3818 -0.6174  1.3189
  666MOL0     H89882  11.581   0.936   5.195 -0.5997  1.9085  1.6505
  666MOL0     H89883  11.624   0.814   5.314 -1.5507 -0.3670  0.1192
  666MOL0     H89884  11.785   0.861   5.119  2.0334 -0.3378  1.3047
  666MOL0     H89885  11.794   1.026   5.173  2.0146 -0.0083  0.4928
  666MOL0     H89886  11.882   0.819   5.369  0.9603  1.5049  0.8292
  666MOL0     H89887  11.940   0.978   5.339 -0.9108  0.3304  0.8748
  666MOL0     H89888  12.105   0.829   5.276 -1.1355  1.3782  0.7644
  666MOL0     H89889  11.995   0.734   5.176  0.5410 -0.0272 -1.4504
  666MOL0     H89890  11.286   1.125   5.901 -0.9061 -0.4222  2.2452
  666MOL0     H89891  11.102   1.177   6.030  0.1029  1.0916 -0.9688
  666MOL0     H89892  10.637   1.267   6.025  1.0631  0.6578  0.5215
  666MOL0     H89893  10.424   1.289   6.138 -0.6750 -1.0818 -0.2275
  666MOL0     H89894   8.756   1.383   6.146  1.9411  0.8780 -1.1596
  666MOL0     H89895   8.543   1.357   6.265 -2.7041 -0.4838 -4.2118
  666MOL0     H89896   8.164   1.738   6.416 -0.5650 -0.4907  2.6937
  666MOL0     H89897   7.950   1.787   6.464  1.2606  0.0960  2.6615
  666MOL0     H89898   7.643   1.467   6.562  0.6366 -0.7288 -0.9007
  666MOL0     H89899   7.653   1.497   6.393  1.4858 -1.6062  1.1595
  666MOL0     H89900   7.554   1.743   6.456  0.8000 -0.8878 -0.0951
  666MOL0     H89901   7.499   1.658   6.603 -0.7188 -1.3753  0.1370
  666MOL0     H89902   7.386   1.482   6.457 -2.4994  0.4587  2.1385
  666MOL0     H89903   7.424   1.588   6.313  0.1097  0.1531  0.1699
  666MOL0     H89904   7.206   1.586   6.432  0.1346  1.0899  0.7456
  666MOL0     H89905   7.276   1.697   6.543 -1.9026 -1.1666  1.2455
  666MOL0     H89906   7.230   1.953   6.209  0.6219  0.3870  0.6783
  666MOL0     H89907   7.850   1.372   6.476  1.5342 -0.7999  2.7674
  666MOL0     H89908   8.076   1.223   6.283  4.5244 -3.4901  1.9186
  666MOL0     H89909   8.144   1.222   6.444 -0.4159 -2.3233  1.0250
  666MOL0     H89910   7.970   1.203   6.416 -0.1667 -2.8549 -5.1338
  667MOL0     O89911   6.535   2.502   4.396  0.4360 -1.1682 -0.6137
  667MOL0     C89912   6.442   2.573   4.355 -1.1229 -0.3691 -0.4551
  667MOL0     O89913   6.437   2.707   4.364  0.1455 -0.4305 -0.2744
  667MOL0     C89914   6.541   2.765   4.416 -0.5911 -0.4827  0.6243
  667MOL0     C89915   6.546   2.766   4.556  0.6242  0.1067  0.0774
  667MOL0     C89916   6.663   2.813   4.622  0.5170 -0.6550  0.8916
  667MOL0     C89917   6.762   2.887   4.550 -0.1747 -0.7158  0.0157
  667MOL0     O89918   6.865   2.951   4.621 -0.5075  0.2162 -0.9794
  667MOL0     C89919   6.982   2.982   4.550  0.3024  0.0739  0.1994
  667MOL0     C89920   7.097   2.988   4.641 -0.2869 -0.9327  0.1199
  667MOL0     C89921   7.095   2.876   4.737 -0.6445 -0.6544  0.6246
  667MOL0     C89922   7.240   2.855   4.783  0.4714  0.3038 -0.0582
  667MOL0     C89923   7.306   2.966   4.864  0.4376 -0.0640  0.5814
  667MOL0     C89924   7.458   2.967   4.848 -0.7930  0.1682  0.3528
  667MOL0     C89925   7.514   2.837   4.899  0.3674  0.5039 -0.5665
  667MOL0     C89926   7.661   2.851   4.962  0.5491 -0.0452  0.0157
  667MOL0     N89927   7.773   2.896   4.876  0.5264 -0.3353 -0.7027
  667MOL0     C89928   7.817   3.032   4.867 -0.1520 -0.5539 -0.1838
  667MOL0     C89929   7.941   3.025   4.820 -0.8446  0.8866 -0.3906
  667MOL0     C89930   8.038   3.133   4.787  0.3766 -0.7584 -0.3509
  667MOL0     C89931   8.140   3.087   4.674  0.4185  0.4040 -0.3268
  667MOL0     C89932   8.249   3.192   4.647  0.3834 -0.7885  0.2259
  667MOL0     C89933   8.313   3.260   4.759 -1.0515  0.3133  0.3660
  667MOL0     O89934   8.400   3.160   4.823  0.4571 -0.5789 -0.4829
  667MOL0     C89935   8.541   3.164   4.812  0.2339 -0.2305  0.2042
  667MOL0     C89936   8.605   3.222   4.702 -1.0113  0.6113  0.5060
  667MOL0     C89937   8.747   3.212   4.696  0.0579  0.5934  0.5158
  667MOL0     C89938   8.823   3.137   4.785  0.3402  0.1691 -0.2917
  667MOL0     C89939   8.973   3.120   4.771 -0.5213  0.4807 -0.1565
  667MOL0     O89940   9.031   3.034   4.854 -0.3172  0.2325 -0.3783
  667MOL0     C89941   9.171   3.040   4.851 -0.0734  0.7698  0.4114
  667MOL0     C89942   9.232   2.947   4.762  0.0412  0.0722  0.1996
  667MOL0     C89943   9.372   2.947   4.755  0.3406  0.3532 -0.5269
  667MOL0     C89944   9.449   3.037   4.829 -0.2205  0.5591  0.0344
  667MOL0     O89945   9.591   3.049   4.819  0.2985  0.0381  0.1653
  667MOL0     C89946   9.657   3.009   4.702  0.7020  0.2324 -0.5849
  667MOL0     C89947   9.806   3.060   4.709  0.1026  0.2584  0.1181
  667MOL0     C89948   9.897   3.012   4.597 -0.1107  0.1946 -0.4693
  667MOL0     C89949   9.837   3.033   4.458 -0.9358 -0.0737 -0.2929
  667MOL0     C89950   9.852   2.894   4.386 -0.4898  0.2773  0.0175
  667MOL0     C89951   9.817   2.904   4.236  0.7068  0.2017  0.6544
  667MOL0     C89952   9.902   2.814   4.159 -0.8471  0.2500  0.4313
  667MOL0     C89953   9.855   2.671   4.142 -0.0586  0.1131  0.1630
  667MOL0    Cl89954   9.973   2.566   4.048 -0.1778 -0.1520  0.3544
  667MOL0     C89955   9.386   3.119   4.921 -0.9096  0.6913  0.2739
  667MOL0     C89956   9.245   3.125   4.936  0.4584  0.0990  0.4056
  667MOL0     O89957   9.027   3.180   4.682 -0.9868 -0.6888  0.2164
  667MOL0     C89958   8.751   3.085   4.899  0.1657 -0.4414  0.3125
  667MOL0     C89959   8.613   3.105   4.918 -0.2717 -0.7905 -0.5105
  667MOL0     N89960   7.977   2.890   4.811  0.2995  0.2207 -0.3311
  667MOL0     N89961   7.866   2.819   4.827  0.7697  0.6244  0.3045
  667MOL0     C89962   6.748   2.892   4.410  0.6062 -0.4354  0.6420
  667MOL0     C89963   6.644   2.831   4.338  0.5508 -0.1628 -0.0742
  667MOL0     C89964   6.324   2.507   4.289 -0.1766 -1.2834 -0.5413
  667MOL0     C89965   6.296   2.376   4.322  0.4076 -0.5663  0.1611
  667MOL0     C89966   6.180   2.308   4.279  0.2475  0.3393  0.8345
  667MOL0     C89967   6.076   2.380   4.210 -0.8851 -0.2429  0.3583
  667MOL0     O89968   5.959   2.337   4.164  0.3853 -0.0039  0.8351
  667MOL0     C89969   5.883   2.240   4.234  0.5008 -0.5399 -0.3882
  667MOL0     C89970   5.827   2.161   4.120 -0.0206  0.8490 -0.3537
  667MOL0     C89971   5.745   2.043   4.182 -0.0171  0.9423 -0.0811
  667MOL0     C89972   5.661   1.968   4.086 -0.3168 -0.5031 -0.5333
  667MOL0     C89973   5.732   1.871   4.004 -0.2565 -0.0279  0.9734
  667MOL0     C89974   5.772   1.793   3.918  1.4250 -0.7352 -0.0237
  667MOL0     C89975   6.111   2.510   4.173 -0.2649 -0.0340 -0.1296
  667MOL0     C89976   6.229   2.565   4.208 -0.3252  0.0211  0.6171
  667MOL0     C89977   6.246   2.702   4.151  0.3761 -0.2972 -0.3453
  667MOL0     H89978   6.470   2.718   4.617  0.9583 -1.6666 -0.8422
  667MOL0     H89979   6.669   2.791   4.728 -0.3703 -1.8136  0.7232
  667MOL0     H89980   6.999   2.907   4.473 -2.1071  0.6178 -0.9632
  667MOL0     H89981   6.961   3.076   4.498  0.4694  0.9945  1.7234
  667MOL0     H89982   7.084   3.081   4.697 -0.8216 -0.9615  0.0464
  667MOL0     H89983   7.197   2.996   4.598  0.3687 -0.9675  1.5920
  667MOL0     H89984   7.061   2.786   4.686  0.5414 -0.1123 -1.2524
  667MOL0     H89985   7.033   2.888   4.826 -2.4283  2.5848 -0.8734
  667MOL0     H89986   7.244   2.764   4.845  0.7339  0.9529  0.9019
  667MOL0     H89987   7.291   2.838   4.688 -1.2140  1.7076 -1.2789
  667MOL0     H89988   7.260   3.060   4.835 -1.5863 -0.7945  1.2602
  667MOL0     H89989   7.276   2.960   4.969 -0.8191  2.1173  0.4148
  667MOL0     H89990   7.478   2.980   4.741  0.2204 -2.1160  0.2105
  667MOL0     H89991   7.508   3.052   4.895 -0.7856  1.9600 -2.6409
  667MOL0     H89992   7.515   2.752   4.831  1.4917  0.6590 -0.7484
  667MOL0     H89993   7.449   2.803   4.980 -2.9020  0.4802 -2.9688
  667MOL0     H89994   7.648   2.922   5.044  1.2231  0.6876 -0.4953
  667MOL0     H89995   7.692   2.757   5.007  0.7660 -1.1877 -2.3294
  667MOL0     H89996   7.764   3.118   4.906 -0.4536 -0.9571  0.3217
  667MOL0     H89997   7.985   3.220   4.747  0.9821 -0.6937 -1.0159
  667MOL0     H89998   8.096   3.152   4.877  3.0777 -5.0713 -0.9111
  667MOL0     H89999   8.187   2.991   4.700 -2.9806 -1.4239 -0.3600
  667MOL0     H90000   8.078   3.073   4.585  0.1000 -0.5504  0.0274
  667MOL0     H90001   8.192   3.264   4.587  1.6795 -0.4875 -0.6877
  667MOL0     H90002   8.327   3.153   4.581 -1.8362 -1.9139 -1.9005
  667MOL0     H90003   8.242   3.292   4.837  0.5221  0.2713  1.8629
  667MOL0     H90004   8.365   3.352   4.734  2.7483 -1.7879 -0.1439
  667MOL0     H90005   8.559   3.264   4.613 -0.1183 -0.4803 -0.5047
  667MOL0     H90006   8.796   3.252   4.608  1.7072 -2.4000 -0.0304
  667MOL0     H90007   9.173   2.895   4.687  1.8451 -3.3936  0.9696
  667MOL0     H90008   9.422   2.887   4.680 -1.2071 -0.0775 -1.2477
  667MOL0     H90009   9.651   2.903   4.678 -0.7465 -0.3475  1.9998
  667MOL0     H90010   9.616   3.065   4.617  2.0799  1.3908 -0.5375
  667MOL0     H90011   9.810   3.169   4.701 -0.2240  0.2794  0.2162
  667MOL0     H90012   9.852   3.038   4.805 -1.2893 -1.2120  0.5081
  667MOL0     H90013   9.997   3.055   4.607  0.2964 -0.8952  0.3345
  667MOL0     H90014   9.923   2.906   4.602  0.1218 -0.0120 -3.8550
  667MOL0     H90015   9.892   3.117   4.415 -0.9636 -0.2498 -0.6778
  667MOL0     H90016   9.730   3.056   4.450 -0.7988  0.9081  0.5071
  667MOL0     H90017   9.793   2.816   4.434  1.7126 -0.7694  1.2032
  667MOL0     H90018   9.956   2.863   4.401 -0.3640 -0.3840 -1.9940
  667MOL0     H90019   9.709   2.891   4.222  0.8097 -0.6477  0.6070
  667MOL0     H90020   9.837   3.008   4.206  2.8007 -0.3631 -0.0299
  667MOL0     H90021  10.005   2.811   4.197 -2.1666 -0.5205  4.3573
  667MOL0     H90022   9.902   2.852   4.056 -1.4079 -0.5752  0.1169
  667MOL0     H90023   9.833   2.627   4.240 -0.7208 -0.7568 -0.3638
  667MOL0     H90024   9.757   2.662   4.096  0.4688  0.2605 -1.0270
  667MOL0     H90025   9.465   3.178   4.968  1.9892 -3.8344  1.8081
  667MOL0     H90026   9.202   3.187   5.013  1.4413 -0.4264  1.4016
  667MOL0     H90027   8.806   3.041   4.981 -0.5824 -0.0234  1.0489
  667MOL0     H90028   8.570   3.066   5.009 -0.4047  1.3292  0.3973
  667MOL0     H90029   6.826   2.932   4.345  1.1761 -1.5491  0.6038
  667MOL0     H90030   6.648   2.825   4.230 -0.3732  1.5017 -0.2278
  667MOL0     H90031   6.358   2.307   4.379  2.8019  0.1723 -1.4218
  667MOL0     H90032   6.171   2.204   4.309  1.4958 -0.1595 -0.3980
  667MOL0     H90033   5.809   2.288   4.298  1.9771 -0.8580  1.6710
  667MOL0     H90034   5.927   2.169   4.304  2.0826 -2.0356 -2.7354
  667MOL0     H90035   5.902   2.114   4.056 -0.2125 -2.3623  1.5583
  667MOL0     H90036   5.759   2.219   4.057 -2.3113  1.3474  2.3691
  667MOL0     H90037   5.678   2.082   4.258  0.1751  1.0466  0.0380
  667MOL0     H90038   5.812   1.991   4.251  1.6833  4.4356  1.1583
  667MOL0     H90039   5.583   1.916   4.142 -0.4747  0.7008  0.4216
  667MOL0     H90040   5.614   2.036   4.014 -0.4196 -0.8880 -0.8314
  667MOL0     H90041   5.797   1.731   3.835  2.1411  0.1981 -0.5244
  667MOL0     H90042   6.035   2.566   4.119 -0.0426 -0.5384 -0.9664
  667MOL0     H90043   6.181   2.734   4.069 -1.0603  3.1068  1.9137
  667MOL0     H90044   6.240   2.784   4.223  1.0470 -2.5000  2.3807
  667MOL0     H90045   6.348   2.709   4.111  0.5795 -1.0655  0.0222
  668MOL0     O90046   7.651   2.057   8.022 -0.4447  0.7752  0.1236
  668MOL0     C90047   7.631   1.941   7.997  0.2156  0.9908  0.0416
  668MOL0     O90048   7.723   1.839   8.014  0.4615  0.0402 -0.0700
  668MOL0     C90049   7.853   1.867   8.043  0.0297 -0.3345 -0.1997
  668MOL0     C90050   7.921   1.790   8.141 -0.4595 -0.3636  0.5553
  668MOL0     C90051   8.056   1.813   8.157 -0.0685 -0.0445  0.4442
  668MOL0     C90052   8.129   1.903   8.079 -0.3031 -0.4610  0.0787
  668MOL0     O90053   8.261   1.916   8.109  0.3033  0.2047 -0.8809
  668MOL0     C90054   8.340   1.999   8.025  0.7298  0.2800 -0.3471
  668MOL0     C90055   8.483   1.984   8.059 -0.0334  0.1672 -0.7076
  668MOL0     C90056   8.571   2.062   7.962 -0.5390  0.3261  0.2930
  668MOL0     C90057   8.719   2.028   7.987 -0.6670  0.8260 -0.3297
  668MOL0     C90058   8.821   2.113   7.907  0.0885 -0.4916  0.3597
  668MOL0     C90059   8.969   2.058   7.912  0.7510 -0.7877 -0.8335
  668MOL0     C90060   9.054   2.138   7.822 -0.4265 -0.3792 -0.5243
  668MOL0     C90061   9.183   2.055   7.821  0.4408 -0.1475  0.2892
  668MOL0     N90062   9.286   2.117   7.730  0.2601 -0.1699 -0.5901
  668MOL0     C90063   9.400   2.180   7.777  0.1141 -1.0555 -0.3253
  668MOL0     C90064   9.478   2.184   7.673  0.9193 -0.4864  0.2681
  668MOL0     C90065   9.622   2.233   7.691  0.8628 -0.8954  0.4110
  668MOL0     C90066   9.700   2.256   7.555  0.3846 -0.1397 -0.2149
  668MOL0     C90067   9.644   2.382   7.469 -0.4618  0.2477  0.4021
  668MOL0     C90068   9.756   2.445   7.385  0.5382 -0.8858 -0.9130
  668MOL0     O90069   9.791   2.343   7.293 -0.1256  0.5943  0.0965
  668MOL0     C90070   9.917   2.350   7.238  0.7160  0.6003 -0.0934
  668MOL0     C90071   9.961   2.457   7.162 -0.6970  0.1236  0.5709
  668MOL0     C90072  10.086   2.460   7.096 -0.1286  0.4051  0.4900
  668MOL0     C90073  10.176   2.357   7.117 -0.4058  1.1621  0.1805
  668MOL0     C90074  10.319   2.359   7.064 -0.9582 -0.1839  0.7928
  668MOL0     O90075  10.384   2.241   7.082 -0.2213  0.4854  0.2192
  668MOL0     C90076  10.497   2.231   7.009 -0.6227 -0.1545 -0.4127
  668MOL0     C90077  10.611   2.172   7.068 -0.3602 -1.3731  0.0002
  668MOL0     C90078  10.729   2.144   6.993  0.6006 -0.8757  0.1482
  668MOL0     C90079  10.730   2.158   6.856 -1.1922  0.0903  0.4005
  668MOL0     O90080  10.838   2.124   6.777  0.0208  0.3425  0.5961
  668MOL0     C90081  10.967   2.088   6.833  0.8241  0.7395  0.1643
  668MOL0     C90082  11.065   2.071   6.717 -0.7249  0.6221 -0.0985
  668MOL0     C90083  11.102   2.201   6.649  0.9511  0.1377 -0.2789
  668MOL0     C90084  11.203   2.170   6.541  0.3331  0.1903 -0.4064
  668MOL0     C90085  11.198   2.264   6.415  0.5871 -0.1261 -0.4331
  668MOL0     C90086  11.296   2.234   6.310  0.2605  0.8549  1.1185
  668MOL0     C90087  11.437   2.227   6.340  0.3194  0.3081 -0.6883
  668MOL0     C90088  11.517   2.262   6.217  0.0881 -0.1403 -0.6120
  668MOL0    Cl90089  11.498   2.133   6.092 -0.3226 -0.1718  0.1321
  668MOL0     C90090  10.611   2.193   6.792 -0.1377 -0.0899 -0.3052
  668MOL0     C90091  10.500   2.230   6.869 -0.3703  0.1865 -0.1032
  668MOL0     O90092  10.361   2.457   7.006 -0.0370  0.0857  0.1936
  668MOL0     C90093  10.127   2.241   7.185  0.5554 -0.9014 -0.3610
  668MOL0     C90094   9.999   2.239   7.240  0.3975 -0.0469  0.2822
  668MOL0     N90095   9.418   2.135   7.559  0.6037 -0.1787  0.9968
  668MOL0     N90096   9.307   2.087   7.602  0.4837  0.4198 -0.8387
  668MOL0     C90097   8.062   1.977   7.982 -0.6272 -0.3098  0.1532
  668MOL0     C90098   7.931   1.953   7.961  0.5595 -0.2675  0.1310
  668MOL0     C90099   7.492   1.895   7.966 -1.0099  0.7783  0.3614
  668MOL0     C90100   7.450   1.778   8.029 -0.4650 -0.1154  0.8222
  668MOL0     C90101   7.322   1.726   8.014 -0.1545 -0.2490 -1.0209
  668MOL0     C90102   7.233   1.787   7.931  0.7892 -0.1769 -0.6511
  668MOL0     O90103   7.106   1.747   7.911  0.3671 -0.0295 -0.1030
  668MOL0     C90104   7.086   1.601   7.895 -0.2604 -0.4815  0.2401
  668MOL0     C90105   6.938   1.573   7.848 -0.3855 -0.1329 -1.3193
  668MOL0     C90106   6.836   1.629   7.954 -0.8449 -0.2232 -0.0630
  668MOL0     C90107   6.695   1.571   7.930  0.1920 -1.0582  0.8283
  668MOL0     C90108   6.624   1.648   7.829  0.0395  0.1631 -0.3366
  668MOL0     C90109   6.556   1.690   7.743  0.3009  0.8419  0.6708
  668MOL0     C90110   7.264   1.912   7.881  0.8120  0.1436 -0.6469
  668MOL0     C90111   7.399   1.965   7.890  0.7347 -0.0626 -0.6502
  668MOL0     C90112   7.429   2.100   7.822  0.4430 -0.7406 -0.1823
  668MOL0     H90113   7.855   1.723   8.195 -1.8045  2.3283  2.4865
  668MOL0     H90114   8.110   1.758   8.233  0.8413 -0.8652 -0.7629
  668MOL0     H90115   8.335   1.968   7.920  3.7593 -0.8658 -0.2528
  668MOL0     H90116   8.318   2.104   8.046  0.3908  0.0804  0.3117
  668MOL0     H90117   8.497   1.878   8.037 -1.0924  0.1855 -1.5388
  668MOL0     H90118   8.505   2.000   8.165 -3.0132 -3.1190  0.6065
  668MOL0     H90119   8.550   2.168   7.977 -0.6022 -0.1209  4.5606
  668MOL0     H90120   8.556   2.029   7.859  0.8560 -2.2831  0.8208
  668MOL0     H90121   8.738   2.050   8.092  0.6635  2.6565 -0.9017
  668MOL0     H90122   8.737   1.922   7.965 -1.0844  1.2032 -2.7890
  668MOL0     H90123   8.789   2.134   7.805  0.2827 -0.7848  0.2372
  668MOL0     H90124   8.822   2.214   7.948  0.5496 -0.1749 -0.4107
  668MOL0     H90125   9.004   2.077   8.014 -1.0585 -0.0668 -0.3124
  668MOL0     H90126   8.965   1.953   7.881 -1.6186 -1.4488  1.3688
  668MOL0     H90127   9.075   2.242   7.850 -0.5429 -0.0379 -1.6810
  668MOL0     H90128   9.000   2.141   7.727 -1.5431  4.4494  0.0017
  668MOL0     H90129   9.226   2.024   7.916 -0.5243  1.1084  1.1783
  668MOL0     H90130   9.157   1.959   7.777  1.1818  0.0461 -0.5959
  668MOL0     H90131   9.431   2.200   7.880  0.0140 -0.0414 -0.4826
  668MOL0     H90132   9.626   2.318   7.759 -0.1645 -1.4933  1.2421
  668MOL0     H90133   9.681   2.162   7.749  0.7111  1.3741  3.5559
  668MOL0     H90134   9.804   2.280   7.580 -0.5087  1.7373  2.0491
  668MOL0     H90135   9.684   2.172   7.487 -0.6452 -0.1036 -0.0194
  668MOL0     H90136   9.607   2.460   7.536 -0.8744  0.8805 -0.5411
  668MOL0     H90137   9.570   2.346   7.396  1.2313 -2.0875 -0.2909
  668MOL0     H90138   9.846   2.473   7.442  0.3610  0.9844 -1.4866
  668MOL0     H90139   9.708   2.534   7.344  1.0184 -0.7057 -1.0961
  668MOL0     H90140   9.884   2.532   7.145 -0.3920  0.0772 -1.2234
  668MOL0     H90141  10.102   2.529   7.013 -2.2237  0.9234  0.4689
  668MOL0     H90142  10.598   2.155   7.174  1.3797  0.4989  0.5738
  668MOL0     H90143  10.813   2.108   7.052  0.0906 -1.1028  0.7361
  668MOL0     H90144  11.015   2.155   6.905 -0.6790 -1.9911  3.9833
  668MOL0     H90145  10.952   1.990   6.878  0.1430  0.2518 -1.0533
  668MOL0     H90146  11.148   2.011   6.754  0.5351  0.7808 -2.4564
  668MOL0     H90147  11.018   2.011   6.638  1.6634 -0.0078 -1.1224
  668MOL0     H90148  11.005   2.238   6.615  0.9547  0.4473  0.0413
  668MOL0     H90149  11.157   2.271   6.713  1.4165 -0.0897 -0.4232
  668MOL0     H90150  11.189   2.067   6.506 -0.4440  0.4142 -0.7657
  668MOL0     H90151  11.307   2.166   6.577 -0.3861 -0.8935  1.6754
  668MOL0     H90152  11.207   2.368   6.448  1.4325 -0.4696  0.4454
  668MOL0     H90153  11.100   2.251   6.368  0.3210  1.0621 -0.2555
  668MOL0     H90154  11.278   2.136   6.266 -2.2476  1.9468 -0.5705
  668MOL0     H90155  11.282   2.309   6.232 -1.7750 -0.4210  0.1686
  668MOL0     H90156  11.464   2.123   6.357  0.6863  0.6610  1.0646
  668MOL0     H90157  11.468   2.288   6.425 -1.8628 -1.5393  1.5900
  668MOL0     H90158  11.492   2.362   6.179 -1.9600  0.7940  2.7815
  668MOL0     H90159  11.622   2.273   6.245  0.2091  1.1385 -1.4652
  668MOL0     H90160  10.617   2.179   6.685  0.1722  0.9224 -0.4290
  668MOL0     H90161  10.405   2.261   6.827 -1.8382 -0.3093  2.5762
  668MOL0     H90162  10.197   2.160   7.202  1.6048  0.0006 -0.3421
  668MOL0     H90163   9.963   2.149   7.289 -0.1336  0.8255  1.5635
  668MOL0     H90164   8.117   2.047   7.921 -1.9760  1.0529  0.4329
  668MOL0     H90165   7.891   2.015   7.881  2.1192 -0.9735 -1.2760
  668MOL0     H90166   7.523   1.736   8.098  2.8531  1.1757 -1.5856
  668MOL0     H90167   7.290   1.638   8.068 -1.2261  1.5622  1.5195
  668MOL0     H90168   7.108   1.543   7.985  3.2804 -0.1887 -0.2930
  668MOL0     H90169   7.158   1.566   7.820  0.0320  0.7823 -0.0961
  668MOL0     H90170   6.926   1.465   7.835 -1.6843 -0.2079  0.2709
  668MOL0     H90171   6.921   1.622   7.751 -2.2967  2.4973  0.2152
  668MOL0     H90172   6.840   1.738   7.941 -0.0859 -0.0803  1.2485
  668MOL0     H90173   6.866   1.610   8.057 -0.1963 -1.1206 -0.4136
  668MOL0     H90174   6.698   1.467   7.894 -0.8882 -1.0356  0.6447
  668MOL0     H90175   6.632   1.579   8.019 -0.0250 -0.2078  0.6076
  668MOL0     H90176   6.487   1.720   7.668  1.4656  0.1086 -0.7514
  668MOL0     H90177   7.186   1.967   7.830  1.6864  0.6834 -1.4368
  668MOL0     H90178   7.439   2.184   7.891  0.3927 -0.2540 -0.7569
  668MOL0     H90179   7.520   2.098   7.762 -0.1233  1.7712 -1.2739
  668MOL0     H90180   7.355   2.134   7.748  0.0569 -0.1679  0.4541
  669MOL0     O90181   3.612   7.213   3.829  0.1373  0.4747 -0.3458
  669MOL0     C90182   3.694   7.286   3.775 -0.5900  0.2564  1.0894
  669MOL0     O90183   3.655   7.388   3.683  0.1162  0.7472 -0.9705
  669MOL0     C90184   3.517   7.400   3.656  0.2012  0.5603  0.1594
  669MOL0     C90185   3.438   7.496   3.722 -1.1642  0.4181 -0.2048
  669MOL0     C90186   3.300   7.514   3.687  0.7821 -0.9773 -0.5881
  669MOL0     C90187   3.235   7.428   3.596 -0.1025 -0.1133  0.2869
  669MOL0     O90188   3.107   7.458   3.576  0.1991 -0.0795  0.7564
  669MOL0     C90189   3.030   7.423   3.452  0.0049 -0.0479  0.1284
  669MOL0     C90190   2.880   7.452   3.486 -0.2491 -0.4275  0.2316
  669MOL0     C90191   2.870   7.604   3.499  0.7588  0.5426  0.3066
  669MOL0     C90192   2.715   7.638   3.516 -0.0968  0.3853  0.0471
  669MOL0     C90193   2.699   7.790   3.538  0.1303  0.6165 -0.1069
  669MOL0     C90194   2.554   7.832   3.540  0.1493  0.5675  0.4076
  669MOL0     C90195   2.542   7.980   3.551 -0.0329  0.3365  0.0460
  669MOL0     C90196   2.405   8.031   3.547  0.1679 -0.3077  0.0545
  669MOL0     N90197   2.313   7.953   3.632  0.0879 -0.3618  0.6117
  669MOL0     C90198   2.324   7.919   3.763 -0.3822 -0.1134 -0.6210
  669MOL0     C90199   2.211   7.840   3.792 -0.8856 -0.7708 -0.1416
  669MOL0     C90200   2.202   7.777   3.925 -0.1788  0.3763 -0.7478
  669MOL0     C90201   2.226   7.626   3.911  0.3562 -0.4660  0.4159
  669MOL0     C90202   2.173   7.545   4.032  0.0565 -0.3690 -0.0176
  669MOL0     C90203   2.019   7.554   4.048  0.5379 -0.1963  1.2558
  669MOL0     O90204   1.955   7.461   3.956 -0.4117 -0.5060 -0.4968
  669MOL0     C90205   1.819   7.470   3.954  0.2017  0.1225  0.5638
  669MOL0     C90206   1.745   7.402   3.853 -1.1951 -0.9507  0.1277
  669MOL0     C90207   1.614   7.407   3.838  0.0250  0.2180 -0.5862
  669MOL0     C90208   1.539   7.499   3.917 -0.2070 -0.3100  1.0693
  669MOL0     C90209   1.395   7.511   3.908  0.4238 -0.0814 -0.1116
  669MOL0     O90210   1.323   7.611   3.970 -0.1080  0.2973  0.0879
  669MOL0     C90211   1.193   7.578   3.997 -0.1153  0.0351  0.0322
  669MOL0     C90212   1.107   7.677   3.970  0.8782  0.3000 -0.0531
  669MOL0     C90213   0.973   7.674   4.016  0.3780 -0.1285 -0.3396
  669MOL0     C90214   0.927   7.558   4.080  0.0526  0.3714 -0.4339
  669MOL0     O90215   0.798   7.524   4.116 -0.2065  0.6140  0.2817
  669MOL0     C90216   0.732   7.629   4.181  0.6126 -0.1916  0.3083
  669MOL0     C90217   0.596   7.665   4.116  0.4396  0.5978  0.6444
  669MOL0     C90218   0.489   7.574   4.168  0.4901 -0.5462  0.5233
  669MOL0     C90219   0.343   7.606   4.113 -0.4424  0.3909  0.2033
  669MOL0     C90220   0.233   7.508   4.137  0.1544 -0.1646 -0.2175
  669MOL0     C90221   0.121   7.523   4.036 -0.0072 -0.3005 -0.3486
  669MOL0     C90222   0.019   7.617   4.108  0.3310 -0.1067  0.0451
  669MOL0     C90223  -0.099   7.642   4.017 -0.8810  0.4499 -0.0322
  669MOL0    Cl90224  -0.205   7.502   3.974  0.3368  0.0225 -0.2502
  669MOL0     C90225   1.021   7.469   4.136 -0.8411  0.4310  0.1418
  669MOL0     C90226   1.158   7.475   4.086  0.1691 -0.7843 -0.5821
  669MOL0     O90227   1.349   7.423   3.841 -0.2333 -0.6537 -0.1281
  669MOL0     C90228   1.604   7.569   4.015 -0.9446 -0.1661  0.6680
  669MOL0     C90229   1.746   7.554   4.033 -0.5527 -1.0807 -0.3826
  669MOL0     N90230   2.125   7.842   3.676 -0.7729  0.6560 -0.6911
  669MOL0     N90231   2.198   7.905   3.588 -0.2548 -0.0458  0.5799
  669MOL0     C90232   3.314   7.322   3.536 -0.3138 -1.3440  0.0630
  669MOL0     C90233   3.451   7.315   3.562 -0.5523 -1.2246  0.5548
  669MOL0     C90234   3.835   7.257   3.808  0.5782 -0.1128 -0.5901
  669MOL0     C90235   3.866   7.185   3.927 -0.9821 -0.5403  1.0625
  669MOL0     C90236   3.994   7.157   3.961 -1.0044 -0.1869  0.0933
  669MOL0     C90237   4.103   7.208   3.889  0.3410 -0.4407  0.4408
  669MOL0     O90238   4.233   7.187   3.926 -0.5951 -0.2368  0.5208
  669MOL0     C90239   4.332   7.173   3.833  0.4133  0.4901  0.1089
  669MOL0     C90240   4.457   7.129   3.904 -0.7971  0.8168 -0.6453
  669MOL0     C90241   4.449   7.005   3.990 -0.0960 -0.5981 -0.2589
  669MOL0     C90242   4.425   6.870   3.930  0.1603  0.0621 -0.2260
  669MOL0     C90243   4.525   6.826   3.838  0.4918 -0.3845  0.7398
  669MOL0     C90244   4.615   6.779   3.773  0.1921  0.3047 -0.2925
  669MOL0     C90245   4.075   7.275   3.768  0.2533  0.4932 -0.0310
  669MOL0     C90246   3.939   7.298   3.727  0.0421 -0.2988 -0.0497
  669MOL0     C90247   3.920   7.366   3.591 -0.4116  0.0192 -0.5175
  669MOL0     H90248   3.475   7.559   3.803 -0.0475  0.1098 -0.4572
  669MOL0     H90249   3.251   7.598   3.734  1.4710 -0.7070 -0.3403
  669MOL0     H90250   3.067   7.490   3.374  0.3941  2.2495  2.1423
  669MOL0     H90251   3.045   7.319   3.421 -0.8070 -0.2181  0.2994
  669MOL0     H90252   2.855   7.403   3.580  0.0524 -2.8672 -0.8786
  669MOL0     H90253   2.812   7.422   3.406  0.6187 -0.3045 -0.5752
  669MOL0     H90254   2.914   7.665   3.419 -0.3755  3.0275  1.4433
  669MOL0     H90255   2.928   7.641   3.585  0.3614 -2.8698  2.1985
  669MOL0     H90256   2.661   7.593   3.432  2.7704  1.2669 -2.4687
  669MOL0     H90257   2.684   7.597   3.613 -1.6510  1.8469  0.2063
  669MOL0     H90258   2.748   7.822   3.631  1.5996 -1.3621 -0.1335
  669MOL0     H90259   2.739   7.837   3.448 -0.1927 -1.2595 -1.2721
  669MOL0     H90260   2.498   7.802   3.451 -0.3897  0.1309  0.8852
  669MOL0     H90261   2.514   7.790   3.633 -2.3318  0.2448 -0.7197
  669MOL0     H90262   2.591   8.028   3.465  1.4697 -0.7654  0.2370
  669MOL0     H90263   2.578   8.023   3.645  2.6083 -1.1802 -0.1601
  669MOL0     H90264   2.402   8.135   3.582 -2.3806 -0.7448  1.4311
  669MOL0     H90265   2.372   8.029   3.443  5.4880  0.8268 -1.9689
  669MOL0     H90266   2.404   7.929   3.836 -0.2210 -2.0077 -0.4895
  669MOL0     H90267   2.270   7.825   3.995  2.1949 -1.1563 -1.8564
  669MOL0     H90268   2.102   7.797   3.964  0.3262 -1.5074  1.7411
  669MOL0     H90269   2.166   7.596   3.824 -1.8182 -2.5562  2.4919
  669MOL0     H90270   2.331   7.604   3.889 -0.0159 -0.9760 -1.0177
  669MOL0     H90271   2.222   7.574   4.125  1.6384  0.3817 -1.0600
  669MOL0     H90272   2.199   7.441   4.009  0.6905 -0.5351  1.3068
  669MOL0     H90273   1.979   7.652   4.018 -1.4757 -1.9041 -2.3728
  669MOL0     H90274   1.997   7.527   4.151 -0.9353  1.7953  1.5213
  669MOL0     H90275   1.793   7.340   3.778  0.0739 -1.5328  1.3946
  669MOL0     H90276   1.550   7.350   3.771 -1.6603 -1.2282  2.0813
  669MOL0     H90277   1.145   7.759   3.911  1.6066 -1.5137 -2.2752
  669MOL0     H90278   0.908   7.752   3.978  0.4303 -1.3960 -3.3826
  669MOL0     H90279   0.715   7.601   4.285 -0.8243  1.7639  0.6647
  669MOL0     H90280   0.781   7.726   4.184  0.9830 -0.3962  1.2037
  669MOL0     H90281   0.551   7.760   4.146 -0.8027  0.3134 -0.2405
  669MOL0     H90282   0.615   7.674   4.008  2.2945 -0.5901  0.8294
  669MOL0     H90283   0.516   7.471   4.141  0.1400 -0.7661  0.9912
  669MOL0     H90284   0.484   7.578   4.277  0.2669 -2.4752  0.6267
  669MOL0     H90285   0.362   7.635   4.009 -2.2974  2.1892  0.2843
  669MOL0     H90286   0.318   7.704   4.155  1.5816 -0.0891  2.7635
  669MOL0     H90287   0.208   7.516   4.243  0.8402  1.6507 -0.1438
  669MOL0     H90288   0.274   7.407   4.136 -3.2102 -1.6678 -0.9765
  669MOL0     H90289   0.147   7.573   3.943 -2.6043  2.7744  0.3812
  669MOL0     H90290   0.073   7.430   4.004 -1.5853  1.0782 -2.2849
  669MOL0     H90291   0.070   7.713   4.126 -3.1433  2.4370 -2.3396
  669MOL0     H90292  -0.008   7.565   4.200  1.5392 -0.9060 -0.0219
  669MOL0     H90293  -0.157   7.705   4.084 -0.7097 -0.5240  1.0533
  669MOL0     H90294  -0.067   7.683   3.920  0.5209 -0.9604 -0.2069
  669MOL0     H90295   0.992   7.383   4.196 -0.5866  0.9578  1.0406
  669MOL0     H90296   1.235   7.406   4.121 -1.5513 -0.6799  4.0594
  669MOL0     H90297   1.552   7.640   4.078 -0.1563 -0.5754  1.8178
  669MOL0     H90298   1.791   7.628   4.097  0.2541 -0.2743 -1.8284
  669MOL0     H90299   3.274   7.275   3.447  0.7765 -1.2977 -0.4696
  669MOL0     H90300   3.512   7.257   3.493 -0.4113  1.1826 -1.4902
  669MOL0     H90301   3.788   7.136   3.985 -2.0914 -1.4089 -1.0543
  669MOL0     H90302   4.012   7.102   4.053  1.5680  0.2669 -0.0411
  669MOL0     H90303   4.345   7.253   3.759  1.5227  0.6611  0.4825
  669MOL0     H90304   4.306   7.089   3.768  2.9820  0.5219 -1.0561
  669MOL0     H90305   4.493   7.203   3.976  0.8302  0.4412 -1.0132
  669MOL0     H90306   4.526   7.109   3.821 -3.4484 -0.6476 -2.6176
  669MOL0     H90307   4.367   7.033   4.057  1.1418  3.6590 -0.2213
  669MOL0     H90308   4.541   7.004   4.049 -0.0800 -1.1482 -0.2917
  669MOL0     H90309   4.427   6.792   4.007  1.3908  1.2894  1.0489
  669MOL0     H90310   4.322   6.876   3.894  0.0810 -0.2585 -0.0596
  669MOL0     H90311   4.696   6.726   3.726  1.6518  2.2490 -0.1111
  669MOL0     H90312   4.152   7.308   3.699  0.0545  0.3518 -0.3247
  669MOL0     H90313   3.848   7.302   3.540 -0.2455  1.2196 -2.3373
  669MOL0     H90314   3.877   7.466   3.608  1.9300  0.9924  0.1506
  669MOL0     H90315   4.008   7.391   3.530 -0.8543  1.7573 -0.5003
  670MOL0     O90316   0.121   8.427   6.114 -0.5668 -0.2358  0.6937
  670MOL0     C90317   0.068   8.516   6.055 -0.7304 -0.7476 -0.1390
  670MOL0     O90318   0.134   8.622   5.994 -0.1964 -0.2446 -0.1598
  670MOL0     C90319   0.267   8.607   5.960  0.3536  0.3639 -1.1645
  670MOL0     C90320   0.345   8.717   5.986 -0.3942 -0.2313  0.1835
  670MOL0     C90321   0.487   8.712   5.966 -0.3083  0.7877 -0.6286
  670MOL0     C90322   0.544   8.590   5.930  0.9192 -0.3150  0.2825
  670MOL0     O90323   0.679   8.573   5.929 -0.3453 -0.3001  0.4538
  670MOL0     C90324   0.749   8.646   5.828 -0.3875  0.3983 -0.9579
  670MOL0     C90325   0.875   8.559   5.798  0.1134 -0.0355 -0.4929
  670MOL0     C90326   0.965   8.609   5.688  0.2739 -0.0622  0.5464
  670MOL0     C90327   1.082   8.514   5.682 -0.8168 -0.7298  0.4833
  670MOL0     C90328   1.179   8.566   5.577 -0.0335  0.1037  0.3420
  670MOL0     C90329   1.253   8.694   5.616 -0.2443  0.5661  0.4700
  670MOL0     C90330   1.375   8.712   5.533 -0.1833  0.3102 -0.7899
  670MOL0     C90331   1.457   8.837   5.576  0.1074 -0.5153 -0.0419
  670MOL0     N90332   1.542   8.791   5.679  0.1119  0.1580 -0.0668
  670MOL0     C90333   1.642   8.699   5.651  0.5334 -0.9438  0.2942
  670MOL0     C90334   1.667   8.643   5.773  0.5735  0.9392  0.1207
  670MOL0     C90335   1.752   8.529   5.827 -0.1920  0.6709  0.5613
  670MOL0     C90336   1.895   8.549   5.791  0.5527  0.5926 -0.1432
  670MOL0     C90337   1.947   8.671   5.862  0.1858  0.1662  0.1074
  670MOL0     C90338   2.085   8.710   5.801 -0.1124 -0.1416  0.6527
  670MOL0     O90339   2.176   8.605   5.836  0.0338 -0.0068 -0.0937
  670MOL0     C90340   2.303   8.619   5.791  0.0280 -0.2117 -0.2473
  670MOL0     C90341   2.367   8.725   5.723  0.0241  0.3391  0.9817
  670MOL0     C90342   2.502   8.718   5.681 -0.5270 -0.0852  1.1205
  670MOL0     C90343   2.571   8.595   5.691 -0.0510 -0.8061  0.1977
  670MOL0     C90344   2.717   8.584   5.655  0.4318 -0.0193  0.3701
  670MOL0     O90345   2.774   8.685   5.598 -0.1062 -0.2754 -0.2097
  670MOL0     C90346   2.893   8.674   5.533 -0.2500 -0.5266  0.9845
  670MOL0     C90347   2.939   8.574   5.444  0.4047 -0.0349 -0.1606
  670MOL0     C90348   3.068   8.581   5.390  0.1581 -0.3040 -0.2719
  670MOL0     C90349   3.143   8.691   5.411  0.2214  0.0497  0.1296
  670MOL0     O90350   3.268   8.687   5.354 -0.2323 -0.1819  0.0355
  670MOL0     C90351   3.294   8.798   5.264 -0.5853  0.6996  0.2400
  670MOL0     C90352   3.312   8.760   5.123 -0.0004 -0.0861 -0.2390
  670MOL0     C90353   3.343   8.885   5.031 -0.3350  0.4910  0.3598
  670MOL0     C90354   3.346   8.856   4.877 -0.6972  0.1505  0.1843
  670MOL0     C90355   3.467   8.768   4.850  0.2538  0.2644 -0.1839
  670MOL0     C90356   3.508   8.763   4.702 -0.8791  0.4242 -0.9685
  670MOL0     C90357   3.604   8.649   4.669 -0.4271 -0.2787 -0.5688
  670MOL0     C90358   3.601   8.637   4.519 -0.3601 -0.8603  0.0132
  670MOL0    Cl90359   3.764   8.590   4.448  0.2250  0.0794 -0.4982
  670MOL0     C90360   3.102   8.796   5.486  0.0150  0.0675 -0.1980
  670MOL0     C90361   2.972   8.791   5.547  0.0770  0.8665  0.4945
  670MOL0     O90362   2.778   8.478   5.678  0.2655  0.3520  0.2070
  670MOL0     C90363   2.508   8.486   5.756 -0.0469 -1.0888 -1.3511
  670MOL0     C90364   2.375   8.502   5.810  0.2355  0.5498  0.0641
  670MOL0     N90365   1.583   8.698   5.863  0.5871  0.1679  0.7901
  670MOL0     N90366   1.515   8.796   5.812 -0.3716 -0.4332 -0.5686
  670MOL0     C90367   0.465   8.477   5.905 -0.4958  0.3700 -0.1036
  670MOL0     C90368   0.327   8.492   5.914  0.2228  1.0612 -0.1608
  670MOL0     C90369  -0.083   8.533   6.054  0.1255  0.6012 -0.4928
  670MOL0     C90370  -0.125   8.668   6.014 -0.6964  1.5121 -0.9557
  670MOL0     C90371  -0.256   8.704   6.029  0.4982  0.4328  0.8767
  670MOL0     C90372  -0.351   8.609   6.069  0.4829 -0.4888 -0.2739
  670MOL0     O90373  -0.487   8.660   6.068 -0.7184  0.1457 -0.6967
  670MOL0     C90374  -0.589   8.579   6.119  0.5894 -0.3844 -0.7637
  670MOL0     C90375  -0.715   8.664   6.123  0.5231 -0.4990  0.7546
  670MOL0     C90376  -0.840   8.571   6.158  0.0196  0.9174  0.1264
  670MOL0     C90377  -0.975   8.638   6.124 -0.0206 -0.0867 -0.4372
  670MOL0     C90378  -1.000   8.756   6.211 -0.3988 -0.3577  0.2539
  670MOL0     C90379  -1.026   8.855   6.282  0.6036  0.5988 -0.3653
  670MOL0     C90380  -0.320   8.480   6.105 -0.1350  0.0284  0.2035
  670MOL0     C90381  -0.183   8.439   6.094 -0.1627  0.5666  0.1225
  670MOL0     C90382  -0.151   8.300   6.131 -0.1248 -0.0812 -0.3102
  670MOL0     H90383   0.300   8.811   6.019 -1.5469 -1.0960  1.1789
  670MOL0     H90384   0.553   8.794   5.994  0.7528 -0.2060 -0.1363
  670MOL0     H90385   0.694   8.658   5.734 -0.8368  1.9026 -0.5281
  670MOL0     H90386   0.778   8.749   5.851 -0.2032  0.1289  0.0533
  670MOL0     H90387   0.845   8.458   5.770 -1.6097  0.6537 -1.3237
  670MOL0     H90388   0.929   8.557   5.893 -0.1879 -0.2407 -0.3243
  670MOL0     H90389   0.983   8.716   5.705 -1.8620  0.5665 -0.7805
  670MOL0     H90390   0.914   8.582   5.596  1.0909 -0.4488  0.2009
  670MOL0     H90391   1.138   8.507   5.776  0.1557 -2.1034 -0.1559
  670MOL0     H90392   1.059   8.410   5.656 -0.2661 -0.4482 -1.2180
  670MOL0     H90393   1.246   8.480   5.566  1.3352  1.0570  0.9488
  670MOL0     H90394   1.127   8.584   5.483  0.0882  0.9073  0.4245
  670MOL0     H90395   1.178   8.771   5.592 -2.5327 -1.2225  1.4441
  670MOL0     H90396   1.289   8.710   5.718  0.6172 -1.7295  0.5897
  670MOL0     H90397   1.345   8.734   5.430  2.8650  1.2027 -1.5883
  670MOL0     H90398   1.444   8.627   5.532  1.8465  1.8445  0.4087
  670MOL0     H90399   1.515   8.871   5.489  0.0355 -0.3343 -0.0216
  670MOL0     H90400   1.396   8.922   5.608  1.5008  0.7260 -0.5667
  670MOL0     H90401   1.676   8.662   5.555 -0.1806 -1.5270  0.2516
  670MOL0     H90402   1.738   8.518   5.935  1.4236 -4.6006  0.5164
  670MOL0     H90403   1.719   8.433   5.785  0.4962  0.6452  0.0644
  670MOL0     H90404   1.959   8.465   5.819  0.9476  0.7669 -0.5003
  670MOL0     H90405   1.896   8.558   5.682  1.4634  1.6193 -0.0685
  670MOL0     H90406   1.956   8.656   5.970 -0.0096  2.8662  0.5525
  670MOL0     H90407   1.874   8.750   5.844 -1.0317 -0.7096  0.9721
  670MOL0     H90408   2.121   8.806   5.837  1.7909 -0.4483 -0.3161
  670MOL0     H90409   2.077   8.703   5.692 -2.9491 -0.7778  0.8212
  670MOL0     H90410   2.294   8.805   5.716 -1.6401 -1.0122  2.0808
  670MOL0     H90411   2.543   8.807   5.634  1.2064 -0.5684  1.6428
  670MOL0     H90412   2.883   8.484   5.421  0.9444  0.0894 -2.0825
  670MOL0     H90413   3.115   8.510   5.323 -0.7108 -1.1038 -0.0514
  670MOL0     H90414   3.214   8.872   5.271 -0.1913  1.1261  0.2937
  670MOL0     H90415   3.384   8.849   5.300  0.5231 -1.5266  0.7834
  670MOL0     H90416   3.398   8.694   5.108  1.0702  1.5840 -2.0100
  670MOL0     H90417   3.217   8.714   5.094 -1.4876  1.3929  2.0264
  670MOL0     H90418   3.262   8.957   5.044 -1.0765 -0.6785  2.8316
  670MOL0     H90419   3.436   8.935   5.059 -0.7453  1.1660  0.5389
  670MOL0     H90420   3.349   8.949   4.820  0.6024  1.2930  2.0573
  670MOL0     H90421   3.261   8.796   4.841 -0.3874  1.0301 -2.1861
  670MOL0     H90422   3.443   8.664   4.877  0.3980  0.2711 -0.0254
  670MOL0     H90423   3.540   8.815   4.917 -1.0180  0.3725  1.1788
  670MOL0     H90424   3.420   8.743   4.640  0.6883  1.7977 -3.8454
  670MOL0     H90425   3.545   8.861   4.670 -1.7942  1.1434  0.1020
  670MOL0     H90426   3.591   8.553   4.720  0.6950 -0.7777 -1.1907
  670MOL0     H90427   3.700   8.691   4.698 -1.6628  4.5578 -2.3793
  670MOL0     H90428   3.516   8.571   4.499  0.8506 -3.0772  1.7234
  670MOL0     H90429   3.583   8.731   4.465  1.3220 -0.7988 -0.5083
  670MOL0     H90430   3.161   8.883   5.515  0.8803  0.3222 -2.5483
  670MOL0     H90431   2.931   8.870   5.609  2.3670  1.0067  1.9318
  670MOL0     H90432   2.563   8.394   5.768  2.6303  0.7601  3.0533
  670MOL0     H90433   2.325   8.415   5.852 -1.1656  1.8649  1.2371
  670MOL0     H90434   0.512   8.384   5.874  0.2886  0.2642  1.2948
  670MOL0     H90435   0.264   8.405   5.902  0.0610  0.7133  2.5674
  670MOL0     H90436  -0.057   8.744   5.978 -0.7133  0.9965 -2.1239
  670MOL0     H90437  -0.291   8.806   6.018 -0.8360 -0.0171  0.8726
  670MOL0     H90438  -0.568   8.540   6.219 -1.3042 -0.7881 -0.4835
  670MOL0     H90439  -0.608   8.493   6.054  1.3393 -0.1071 -1.3696
  670MOL0     H90440  -0.710   8.702   6.020 -0.4669 -1.6145  0.2778
  670MOL0     H90441  -0.706   8.749   6.192 -1.2417 -0.4058  0.9173
  670MOL0     H90442  -0.831   8.559   6.266 -1.0638  1.6193  0.3076
  670MOL0     H90443  -0.839   8.465   6.131  0.7240 -0.0087  3.3595
  670MOL0     H90444  -0.976   8.678   6.022  0.5620  0.3184 -0.2883
  670MOL0     H90445  -1.049   8.558   6.139  1.2478 -1.3203 -0.5873
  670MOL0     H90446  -1.056   8.942   6.337  2.8060  1.5377 -0.5662
  670MOL0     H90447  -0.394   8.403   6.124 -0.1154  0.1988  1.0147
  670MOL0     H90448  -0.105   8.295   6.231  0.2022 -1.5557 -0.5197
  670MOL0     H90449  -0.236   8.231   6.131 -0.9737  0.9218 -1.4609
  670MOL0     H90450  -0.081   8.255   6.061  0.5529 -2.4568  1.7337
  671MOL0     O90451   3.388   6.933   4.414 -0.1007 -0.3051 -0.1634
  671MOL0     C90452   3.343   6.849   4.338  0.7212  0.0245 -0.5679
  671MOL0     O90453   3.393   6.729   4.300 -0.3192  0.1010 -0.8103
  671MOL0     C90454   3.518   6.693   4.345 -0.2601  0.3968  0.1860
  671MOL0     C90455   3.527   6.606   4.456  0.2506  1.0856 -0.4691
  671MOL0     C90456   3.650   6.557   4.503 -0.0251 -0.3939 -0.4503
  671MOL0     C90457   3.769   6.588   4.439  0.7434  0.7462 -0.6496
  671MOL0     O90458   3.879   6.552   4.506 -0.1725  0.2503  0.1778
  671MOL0     C90459   3.998   6.628   4.481 -0.7386 -0.2649 -0.3304
  671MOL0     C90460   4.112   6.538   4.420  0.3283 -0.4305  0.2522
  671MOL0     C90461   4.151   6.418   4.502  0.3016 -0.4575 -0.2547
  671MOL0     C90462   4.298   6.435   4.545 -0.3915  0.2661  0.9001
  671MOL0     C90463   4.335   6.345   4.664  0.2522 -0.9636  0.2612
  671MOL0     C90464   4.494   6.335   4.675  0.0238 -0.1919  0.0935
  671MOL0     C90465   4.572   6.464   4.649 -1.9101 -0.0090 -0.4042
  671MOL0     C90466   4.727   6.444   4.659  0.5070 -0.2229 -0.0248
  671MOL0     N90467   4.804   6.574   4.646  0.1015  0.0908  0.0067
  671MOL0     C90468   4.779   6.696   4.719 -0.1533 -0.0134  0.9038
  671MOL0     C90469   4.885   6.767   4.683  0.3218 -0.2818 -0.3051
  671MOL0     C90470   4.919   6.906   4.722  0.9255 -0.7163 -0.2749
  671MOL0     C90471   4.934   6.924   4.870 -0.0097  0.5765 -0.7725
  671MOL0     C90472   4.998   7.066   4.898  0.3129  0.4284  1.0130
  671MOL0     C90473   4.889   7.177   4.906 -0.7496 -0.2615  0.7269
  671MOL0     O90474   4.824   7.202   4.781 -0.2031 -0.5566 -0.5261
  671MOL0     C90475   4.693   7.249   4.783 -0.5019 -0.5038 -0.2233
  671MOL0     C90476   4.617   7.234   4.668  0.6597 -0.8924  0.7900
  671MOL0     C90477   4.483   7.287   4.662 -0.5505 -0.4583 -0.1864
  671MOL0     C90478   4.421   7.346   4.772  0.2447  0.8100  0.0936
  671MOL0     C90479   4.285   7.398   4.765 -0.2020 -0.1902 -0.7400
  671MOL0     O90480   4.227   7.430   4.884  0.0782  0.0850  0.0252
  671MOL0     C90481   4.101   7.490   4.881 -0.3026 -0.5310 -0.2272
  671MOL0     C90482   3.981   7.412   4.908  0.6635  0.7203 -0.1035
  671MOL0     C90483   3.856   7.475   4.916  0.8096  1.0473  1.0281
  671MOL0     C90484   3.840   7.607   4.871 -0.1764 -0.0120  0.2573
  671MOL0     O90485   3.723   7.679   4.869  0.1388 -0.0104  0.1932
  671MOL0     C90486   3.593   7.607   4.869 -0.0512 -0.4246 -1.1228
  671MOL0     C90487   3.553   7.581   5.014  0.3218  0.8061 -0.7921
  671MOL0     C90488   3.482   7.699   5.069  0.0512  0.4627  0.2635
  671MOL0     C90489   3.454   7.677   5.216  0.3359  0.1765 -0.3153
  671MOL0     C90490   3.386   7.804   5.279  0.3982 -0.3324 -0.8746
  671MOL0     C90491   3.480   7.919   5.325  0.1316 -0.1602  0.2477
  671MOL0     C90492   3.575   7.874   5.438 -0.7880 -0.4800 -0.7833
  671MOL0     C90493   3.667   7.991   5.472 -0.5754 -0.3903 -0.4536
  671MOL0    Cl90494   3.755   8.064   5.333  0.3861 -0.3437 -0.2281
  671MOL0     C90495   3.951   7.680   4.834  0.2685 -0.0062 -1.0729
  671MOL0     C90496   4.080   7.617   4.840 -0.1192 -0.6836 -0.0414
  671MOL0     O90497   4.235   7.411   4.650 -0.3752 -0.3106 -0.4491
  671MOL0     C90498   4.502   7.357   4.887 -0.8134 -0.0270  0.5783
  671MOL0     C90499   4.635   7.313   4.897 -0.5169 -0.0823  1.1301
  671MOL0     N90500   4.959   6.702   4.587 -0.3000 -0.4562  0.3815
  671MOL0     N90501   4.913   6.587   4.561  0.0934  0.4060 -0.7049
  671MOL0     C90502   3.757   6.657   4.315 -0.3531 -0.5933  0.6650
  671MOL0     C90503   3.638   6.715   4.265  0.4214  0.1521  0.4031
  671MOL0     C90504   3.210   6.882   4.289  0.8522 -0.0522  1.0262
  671MOL0     C90505   3.177   7.010   4.230 -0.5236  0.6222  0.4566
  671MOL0     C90506   3.058   7.028   4.168  0.1522 -0.5361  0.2922
  671MOL0     C90507   2.958   6.929   4.170  0.9376  0.6816  0.6533
  671MOL0     O90508   2.827   6.952   4.126  0.1382 -0.1672 -0.3548
  671MOL0     C90509   2.802   7.079   4.059  0.1464 -0.3224 -0.3626
  671MOL0     C90510   2.652   7.088   4.023  0.3236 -0.6515  0.2002
  671MOL0     C90511   2.622   7.191   3.912 -0.0010  0.6771 -0.8249
  671MOL0     C90512   2.680   7.336   3.937 -0.2552  0.2787  0.5471
  671MOL0     C90513   2.576   7.413   4.011  0.0996 -0.0808  0.0537
  671MOL0     C90514   2.507   7.495   4.071 -0.6595 -0.4103  0.1332
  671MOL0     C90515   2.983   6.803   4.234  0.5184 -0.0788 -0.1040
  671MOL0     C90516   3.110   6.776   4.291  0.6724  0.1975 -0.2281
  671MOL0     C90517   3.118   6.644   4.349  0.6458  0.1229 -0.0140
  671MOL0     H90518   3.437   6.585   4.513  0.2871  0.8246 -0.5065
  671MOL0     H90519   3.648   6.508   4.600 -0.0202  0.7884  0.1814
  671MOL0     H90520   3.984   6.720   4.424 -0.9284  2.2878  3.4404
  671MOL0     H90521   4.024   6.672   4.578  0.7985  0.4453 -1.0350
  671MOL0     H90522   4.199   6.601   4.402  1.4427 -2.5793 -2.4575
  671MOL0     H90523   4.062   6.510   4.327 -1.7327  2.2127  0.4565
  671MOL0     H90524   4.141   6.323   4.448 -0.3387 -0.1289 -0.7358
  671MOL0     H90525   4.081   6.407   4.586 -1.1682 -1.1491 -1.5201
  671MOL0     H90526   4.364   6.431   4.457  1.2065  2.2535  1.9244
  671MOL0     H90527   4.312   6.537   4.581  0.9228  0.8982 -1.2036
  671MOL0     H90528   4.288   6.392   4.751 -1.2698  1.0696 -1.5559
  671MOL0     H90529   4.287   6.249   4.647 -1.1862 -0.0985 -0.8131
  671MOL0     H90530   4.523   6.300   4.775 -1.1540 -1.1955  0.1071
  671MOL0     H90531   4.530   6.266   4.599  0.9909  1.0906 -0.6460
  671MOL0     H90532   4.545   6.547   4.714  1.1242  2.8896 -2.5461
  671MOL0     H90533   4.560   6.497   4.545  1.6336  1.2011 -0.5651
  671MOL0     H90534   4.741   6.391   4.754 -1.2021 -1.9356 -0.6737
  671MOL0     H90535   4.760   6.373   4.582  1.9388 -0.5766  0.8631
  671MOL0     H90536   4.697   6.719   4.786  0.9359 -2.4741  3.2784
  671MOL0     H90537   5.011   6.935   4.670  1.6805 -0.9664  0.8986
  671MOL0     H90538   4.836   6.970   4.691  2.5871  1.5031 -0.3807
  671MOL0     H90539   4.838   6.920   4.922  0.4382  0.4946  0.0519
  671MOL0     H90540   4.999   6.844   4.906 -1.4606 -0.8719 -1.1993
  671MOL0     H90541   5.064   7.092   4.815 -1.6397  1.4628 -0.3095
  671MOL0     H90542   5.054   7.068   4.992 -0.3052  1.3924  1.3804
  671MOL0     H90543   4.935   7.274   4.929  0.8470 -0.6739 -0.4954
  671MOL0     H90544   4.814   7.152   4.981 -0.7233 -0.5561  0.6529
  671MOL0     H90545   4.646   7.166   4.589 -0.6671 -1.4491  0.7539
  671MOL0     H90546   4.426   7.258   4.574  0.8453  1.5983 -1.8467
  671MOL0     H90547   3.999   7.309   4.937  1.2433  0.6146 -0.7963
  671MOL0     H90548   3.777   7.415   4.961  0.6086 -1.3732 -2.2283
  671MOL0     H90549   3.530   7.673   4.809  0.0368 -1.3600 -2.2634
  671MOL0     H90550   3.599   7.518   4.806  1.1185 -1.2687  0.1124
  671MOL0     H90551   3.484   7.497   5.022 -0.1979  1.2177 -0.8327
  671MOL0     H90552   3.643   7.552   5.069 -2.6418 -1.8910  3.1554
  671MOL0     H90553   3.549   7.785   5.062  1.6870 -0.6801  0.9876
  671MOL0     H90554   3.399   7.723   5.002 -0.4405 -0.6590  0.4356
  671MOL0     H90555   3.541   7.646   5.273  1.6495 -1.1792 -2.8776
  671MOL0     H90556   3.389   7.589   5.208  0.6295  0.0793 -2.1629
  671MOL0     H90557   3.330   7.777   5.369  1.8048  0.0291  0.1357
  671MOL0     H90558   3.315   7.849   5.208  1.0413  1.8005 -0.2396
  671MOL0     H90559   3.527   7.945   5.229 -1.5592 -3.4985 -1.6883
  671MOL0     H90560   3.423   8.006   5.358 -1.2418 -0.9251 -0.0025
  671MOL0     H90561   3.643   7.795   5.403  0.5345  0.9811 -1.6604
  671MOL0     H90562   3.524   7.835   5.526 -0.6326 -1.9202 -1.2925
  671MOL0     H90563   3.612   8.068   5.526  0.8765 -0.5741  1.3814
  671MOL0     H90564   3.749   7.953   5.533 -1.3535 -3.5757 -1.1941
  671MOL0     H90565   3.948   7.786   4.809  2.2634  0.7735  1.5789
  671MOL0     H90566   4.169   7.675   4.819 -0.7969  1.0250  1.5365
  671MOL0     H90567   4.457   7.411   4.970 -2.8896  0.5094 -0.8063
  671MOL0     H90568   4.699   7.345   4.979  2.2989  0.7658 -1.1917
  671MOL0     H90569   3.846   6.679   4.257 -2.0257 -2.3463 -2.9062
  671MOL0     H90570   3.627   6.776   4.176 -0.2068 -0.7501 -0.1653
  671MOL0     H90571   3.253   7.087   4.238  0.2352 -0.3132  3.7195
  671MOL0     H90572   3.038   7.125   4.124 -1.5359 -1.0475 -0.1456
  671MOL0     H90573   2.871   7.086   3.974 -0.3106 -2.0539 -0.9307
  671MOL0     H90574   2.822   7.164   4.124 -1.8364  2.3225 -2.9551
  671MOL0     H90575   2.584   7.108   4.106 -0.2078 -2.6122  0.2800
  671MOL0     H90576   2.619   6.988   3.995  1.8805 -1.5749  1.4853
  671MOL0     H90577   2.513   7.196   3.904 -0.3023  1.6538  2.3957
  671MOL0     H90578   2.668   7.158   3.818  0.9418  1.7466 -0.7594
  671MOL0     H90579   2.783   7.334   3.974  0.1422 -4.2135 -0.2692
  671MOL0     H90580   2.691   7.373   3.835 -0.0906  0.0164  0.4699
  671MOL0     H90581   2.464   7.579   4.123  3.4389 -0.2901  3.8991
  671MOL0     H90582   2.895   6.739   4.237  0.9926 -0.7052  0.7646
  671MOL0     H90583   3.159   6.573   4.277 -0.1232  1.6923 -2.1044
  671MOL0     H90584   3.182   6.653   4.438  3.1274  0.4909 -1.7165
  671MOL0     H90585   3.018   6.614   4.382  0.5709 -2.2248 -2.1582
  672MOL0     O90586   8.677   5.424   8.630  0.2145 -0.0678  0.7612
  672MOL0     C90587   8.601   5.426   8.529 -1.0839 -0.7524  0.4638
  672MOL0     O90588   8.639   5.452   8.403  0.0430  0.1784  0.4169
  672MOL0     C90589   8.774   5.455   8.377  0.0568 -0.4873  0.2189
  672MOL0     C90590   8.852   5.348   8.389  0.0817 -0.3296 -0.1852
  672MOL0     C90591   8.986   5.359   8.352  0.0803 -0.6293 -0.7466
  672MOL0     C90592   9.041   5.469   8.285 -0.3644  0.5842  0.4213
  672MOL0     O90593   9.157   5.445   8.207  0.2428  0.6112  0.2800
  672MOL0     C90594   9.193   5.550   8.110 -0.6786  0.3344 -0.2605
  672MOL0     C90595   9.296   5.485   8.005  0.7983  0.3379 -0.1837
  672MOL0     C90596   9.440   5.517   8.046  0.8376 -0.3698 -0.0245
  672MOL0     C90597   9.530   5.421   7.963  0.1268 -0.4262  0.1927
  672MOL0     C90598   9.676   5.458   7.984  1.2785  0.3037  0.2476
  672MOL0     C90599   9.778   5.364   7.921 -0.1871 -0.2095 -0.2460
  672MOL0     C90600   9.914   5.426   7.894  0.9897 -0.8612 -0.1395
  672MOL0     C90601  10.013   5.346   7.809 -0.1202 -0.0053  0.3892
  672MOL0     N90602  10.137   5.427   7.786  0.3244 -0.1357  0.1164
  672MOL0     C90603  10.202   5.437   7.662 -0.2013  0.6843 -0.1584
  672MOL0     C90604  10.294   5.532   7.672 -1.0841  0.1096 -1.2705
  672MOL0     C90605  10.381   5.571   7.553  0.2310 -0.4752  0.4828
  672MOL0     C90606  10.427   5.717   7.564 -1.1269  0.2376  0.2239
  672MOL0     C90607  10.467   5.796   7.439 -0.2440  0.9905  0.3653
  672MOL0     C90608  10.569   5.731   7.342 -0.4424 -0.0188 -0.0118
  672MOL0     O90609  10.695   5.702   7.409 -0.1421 -0.0689 -0.3808
  672MOL0     C90610  10.778   5.598   7.384  0.5138 -0.0040  0.1794
  672MOL0     C90611  10.846   5.536   7.488 -0.5107  0.1749  0.5607
  672MOL0     C90612  10.932   5.430   7.475  0.8445  0.4536  0.0673
  672MOL0     C90613  10.969   5.389   7.347  0.3166 -0.0592  0.2440
  672MOL0     C90614  11.057   5.275   7.337  0.0343 -0.0756 -0.2325
  672MOL0     O90615  11.098   5.246   7.206  0.2476  0.3341 -0.9286
  672MOL0     C90616  11.201   5.151   7.209  0.2644  0.1425 -0.3026
  672MOL0     C90617  11.337   5.183   7.223  0.6596 -0.0263  0.2303
  672MOL0     C90618  11.440   5.088   7.232 -0.0572 -0.7769  0.0347
  672MOL0     C90619  11.414   4.953   7.197  1.0561 -0.2140 -0.2977
  672MOL0     O90620  11.521   4.867   7.188 -0.6148 -0.4128  0.6159
  672MOL0     C90621  11.495   4.730   7.182 -0.5587  0.1784 -0.2444
  672MOL0     C90622  11.636   4.660   7.162  0.3949  0.0902 -0.0882
  672MOL0     C90623  11.747   4.713   7.257  0.8182  0.6851 -0.0175
  672MOL0     C90624  11.839   4.602   7.292 -0.1670  0.6705  0.0727
  672MOL0     C90625  11.954   4.657   7.373  0.3325  0.8950  0.0396
  672MOL0     C90626  12.074   4.563   7.380 -0.7547  0.2015 -0.7984
  672MOL0     C90627  12.169   4.604   7.493 -0.4812  0.6389  0.3233
  672MOL0     C90628  12.309   4.528   7.518 -0.2789  1.0020 -0.4676
  672MOL0    Cl90629  12.429   4.598   7.390  0.4407 -0.3095 -0.5993
  672MOL0     C90630  11.278   4.920   7.183  0.9948 -1.1237  0.2547
  672MOL0     C90631  11.171   5.016   7.188 -0.2779 -0.0333 -0.4026
  672MOL0     O90632  11.094   5.219   7.435  0.2495 -0.0076 -0.2411
  672MOL0     C90633  10.896   5.444   7.233  0.0677 -0.6035  1.0872
  672MOL0     C90634  10.797   5.547   7.254 -0.1014 -0.0606  0.0847
  672MOL0     N90635  10.287   5.591   7.796 -0.0281  0.3470  0.4199
  672MOL0     N90636  10.192   5.533   7.855  0.1157 -0.8932  0.6888
  672MOL0     C90637   8.952   5.583   8.278  0.4794  0.0451 -0.0313
  672MOL0     C90638   8.820   5.569   8.319 -0.0685 -0.1437 -0.1368
  672MOL0     C90639   8.452   5.380   8.548 -0.6966 -0.6997 -0.8249
  672MOL0     C90640   8.432   5.288   8.653 -0.5973 -0.1397  0.0834
  672MOL0     C90641   8.297   5.255   8.665  0.2356  0.4373  0.7112
  672MOL0     C90642   8.193   5.335   8.613  0.0049 -0.0481  0.6689
  672MOL0     O90643   8.073   5.301   8.673 -0.2239 -0.4686 -0.0913
  672MOL0     C90644   7.938   5.354   8.621  0.3884  0.2429 -0.5877
  672MOL0     C90645   7.885   5.271   8.505 -0.3784 -0.4171 -0.1306
  672MOL0     C90646   7.820   5.149   8.565 -0.1147  1.3779 -0.2637
  672MOL0     C90647   7.754   5.061   8.457  0.1514 -1.6484 -0.7162
  672MOL0     C90648   7.695   4.944   8.521  1.3527  0.4683  0.5631
  672MOL0     C90649   7.648   4.854   8.586 -0.5607 -0.5485 -0.5445
  672MOL0     C90650   8.220   5.442   8.518  0.7033 -0.1647 -0.2328
  672MOL0     C90651   8.349   5.466   8.479 -0.8767 -0.1508 -0.5418
  672MOL0     C90652   8.381   5.576   8.383 -0.2982  0.3874  0.3888
  672MOL0     H90653   8.803   5.261   8.432  1.2728 -0.3596  1.1985
  672MOL0     H90654   9.047   5.270   8.350  0.2665 -0.6178  1.7058
  672MOL0     H90655   9.099   5.588   8.069 -2.5513 -0.1019  3.2842
  672MOL0     H90656   9.240   5.630   8.168 -0.7006 -1.0957  1.8368
  672MOL0     H90657   9.276   5.515   7.902 -0.2654 -2.2974 -0.8166
  672MOL0     H90658   9.276   5.378   8.014  0.3438  0.4903  0.6967
  672MOL0     H90659   9.442   5.499   8.153  0.0557 -1.6066 -0.1943
  672MOL0     H90660   9.475   5.620   8.031 -0.2209 -0.1845 -1.4182
  672MOL0     H90661   9.509   5.317   7.991 -2.5162 -0.3861 -1.3662
  672MOL0     H90662   9.511   5.425   7.855 -0.9324 -4.8741  0.0283
  672MOL0     H90663   9.691   5.563   7.957  0.4259  0.7788  1.5475
  672MOL0     H90664   9.696   5.455   8.091 -0.4231  2.0992  0.6743
  672MOL0     H90665   9.794   5.276   7.985 -2.2613 -2.1230 -2.1672
  672MOL0     H90666   9.734   5.318   7.832 -0.5564 -4.4518  1.8261
  672MOL0     H90667   9.964   5.453   7.988 -3.1816  0.3111  2.0021
  672MOL0     H90668   9.902   5.522   7.842 -1.9762 -1.0761 -0.0254
  672MOL0     H90669  10.038   5.253   7.860 -0.6396  0.9614  2.5001
  672MOL0     H90670   9.963   5.332   7.713 -0.0966  0.7680  0.2595
  672MOL0     H90671  10.171   5.370   7.583 -3.6093 -1.1964  2.4875
  672MOL0     H90672  10.476   5.515   7.553  2.1393  2.4886 -0.7605
  672MOL0     H90673  10.324   5.551   7.462  1.1080 -0.0218 -0.1853
  672MOL0     H90674  10.354   5.774   7.623 -1.0928 -1.1061  1.6535
  672MOL0     H90675  10.509   5.709   7.636 -0.3396  1.3860 -0.5259
  672MOL0     H90676  10.492   5.899   7.468  1.3592 -0.2795  4.0700
  672MOL0     H90677  10.370   5.802   7.388  1.0595 -0.5912 -2.5720
  672MOL0     H90678  10.589   5.794   7.255  0.2814  1.6862  1.3278
  672MOL0     H90679  10.527   5.637   7.307 -1.1401  0.6466 -1.0210
  672MOL0     H90680  10.821   5.577   7.585 -0.5453  3.2989 -0.6492
  672MOL0     H90681  10.963   5.382   7.567 -2.4497 -1.5119  0.2888
  672MOL0     H90682  11.353   5.288   7.244 -0.2750 -0.0299  1.0405
  672MOL0     H90683  11.537   5.120   7.270 -0.2228  0.3728 -0.4588
  672MOL0     H90684  11.450   4.691   7.274  0.8193 -4.7700 -1.3910
  672MOL0     H90685  11.425   4.691   7.107 -0.5252 -0.7601  0.1976
  672MOL0     H90686  11.628   4.551   7.162 -0.4985  0.1456 -0.7363
  672MOL0     H90687  11.682   4.690   7.068  1.0190 -0.6641 -0.0358
  672MOL0     H90688  11.804   4.794   7.210  0.3593  1.7232  1.1351
  672MOL0     H90689  11.700   4.751   7.348 -0.5037 -0.9842  0.0354
  672MOL0     H90690  11.888   4.569   7.200  0.7021  3.2772 -0.4657
  672MOL0     H90691  11.783   4.525   7.347  0.6871  1.1575  1.7160
  672MOL0     H90692  11.927   4.671   7.478  0.7088 -0.1460  0.2838
  672MOL0     H90693  11.970   4.757   7.331 -1.7238  0.0794 -3.0251
  672MOL0     H90694  12.027   4.467   7.401  2.6318 -1.4883 -0.3115
  672MOL0     H90695  12.127   4.546   7.285  2.0115 -0.7940  0.7947
  672MOL0     H90696  12.103   4.598   7.580 -1.5026  2.3945 -0.2747
  672MOL0     H90697  12.192   4.710   7.478 -0.7638  0.8585  1.3596
  672MOL0     H90698  12.356   4.556   7.613  1.2538 -0.7284 -0.6526
  672MOL0     H90699  12.297   4.419   7.516 -2.7480  1.1303  1.7592
  672MOL0     H90700  11.248   4.816   7.173 -0.5959 -0.6567 -0.0006
  672MOL0     H90701  11.068   4.989   7.206 -0.8485  1.9213 -0.5365
  672MOL0     H90702  10.911   5.400   7.135 -0.4748 -2.1489  1.6653
  672MOL0     H90703  10.742   5.594   7.173  1.1966  2.2079  0.4627
  672MOL0     H90704   8.994   5.667   8.223  3.3722 -0.4426  1.2418
  672MOL0     H90705   8.751   5.654   8.320  0.8528  0.7967  3.7632
  672MOL0     H90706   8.517   5.238   8.699  0.4283  2.3845  1.0957
  672MOL0     H90707   8.269   5.167   8.723  0.7066  1.2094  2.1572
  672MOL0     H90708   7.955   5.457   8.590  1.5512  0.1850 -0.1878
  672MOL0     H90709   7.870   5.354   8.706 -0.3777 -0.6568 -1.1751
  672MOL0     H90710   7.976   5.237   8.455 -0.4508  1.2026 -1.4510
  672MOL0     H90711   7.812   5.321   8.440  0.1906  0.4060 -0.1489
  672MOL0     H90712   7.743   5.165   8.641 -0.1343 -0.9797  0.2940
  672MOL0     H90713   7.900   5.096   8.617 -1.0670  0.4951  0.3603
  672MOL0     H90714   7.666   5.107   8.410 -0.5646 -3.7510 -1.5667
  672MOL0     H90715   7.822   5.018   8.383  3.0825  0.7479  0.3863
  672MOL0     H90716   7.602   4.781   8.649  1.3971 -1.9036 -0.6031
  672MOL0     H90717   8.132   5.501   8.493 -0.0180 -1.4382 -0.8352
  672MOL0     H90718   8.447   5.541   8.303  0.2164 -0.5604  1.2005
  672MOL0     H90719   8.298   5.604   8.318  2.0955  0.0850 -3.0828
  672MOL0     H90720   8.426   5.658   8.439 -2.1601 -0.4384  3.3310
  673MOL0     O90721   9.441   9.227   6.285 -0.3092 -0.0804 -0.2290
  673MOL0     C90722   9.545   9.189   6.228  0.8805 -0.2856 -0.0353
  673MOL0     O90723   9.667   9.218   6.273  0.5224 -0.2446 -0.0991
  673MOL0     C90724   9.675   9.333   6.351  0.2176  0.5714  0.4450
  673MOL0     C90725   9.777   9.427   6.311  0.0767  0.5253 -0.7074
  673MOL0     C90726   9.800   9.539   6.395 -0.3246  0.2907 -0.1823
  673MOL0     C90727   9.738   9.550   6.521 -0.1958  0.5413  0.1716
  673MOL0     O90728   9.772   9.654   6.599  0.1026 -0.2414  0.5588
  673MOL0     C90729   9.728   9.678   6.731  0.8321  0.1946 -0.5349
  673MOL0     C90730   9.794   9.813   6.783 -0.1520 -0.3125  0.0708
  673MOL0     C90731   9.944   9.799   6.827  0.8570  0.3159 -0.1423
  673MOL0     C90732  10.005   9.931   6.848  0.5471  0.1404  0.4431
  673MOL0     C90733  10.154   9.937   6.893 -0.1244  0.5983  0.4544
  673MOL0     C90734  10.243   9.882   6.787  0.2124 -0.4515 -0.7928
  673MOL0     C90735  10.393   9.886   6.840 -0.0442  0.2898 -0.2371
  673MOL0     C90736  10.428   9.745   6.881  0.0590  0.3890  0.2770
  673MOL0     N90737  10.572   9.727   6.880 -1.1444  0.1229  0.2787
  673MOL0     C90738  10.666   9.799   6.956  0.3308  0.5642  0.9332
  673MOL0     C90739  10.794   9.759   6.916 -0.5970  0.2608 -0.3281
  673MOL0     C90740  10.923   9.794   6.982 -0.2456 -0.2427 -0.0544
  673MOL0     C90741  11.012   9.878   6.896 -0.1439  0.5129  0.2393
  673MOL0     C90742  11.135   9.910   6.986 -0.3138 -0.3286  0.3221
  673MOL0     C90743  11.254   9.976   6.902  0.1145  0.8802 -0.2258
  673MOL0     O90744  11.357   9.881   6.873  0.1486 -0.0046 -0.0191
  673MOL0     C90745  11.461   9.933   6.808  0.4325 -0.4610  0.0939
  673MOL0     C90746  11.492   9.891   6.676  0.0059 -0.0345  1.9659
  673MOL0     C90747  11.602   9.946   6.603 -0.0011  0.4359 -0.3771
  673MOL0     C90748  11.694  10.031   6.674  0.7093  0.5094  0.0689
  673MOL0     C90749  11.808  10.090   6.596  0.2478  0.2765 -0.2994
  673MOL0     O90750  11.789  10.091   6.466 -0.2599  0.4986  0.2495
  673MOL0     C90751  11.890  10.118   6.378 -0.3098  0.5204 -0.6150
  673MOL0     C90752  11.846  10.195   6.274 -0.0251 -0.5095 -1.1585
  673MOL0     C90753  11.940  10.248   6.185  0.5555  0.6987  0.0052
  673MOL0     C90754  12.074  10.205   6.190  0.0549 -0.0252 -0.0798
  673MOL0     O90755  12.154  10.255   6.093 -0.0303 -0.1201 -0.4237
  673MOL0     C90756  12.134  10.395   6.052  0.1232 -0.4620 -0.2834
  673MOL0     C90757  12.274  10.464   6.046  1.4976 -0.4323 -0.1756
  673MOL0     C90758  12.274  10.614   6.032 -0.5153  0.0551 -0.1601
  673MOL0     C90759  12.418  10.674   6.058  0.3924 -0.3655  1.0569
  673MOL0     C90760  12.438  10.812   6.016  1.0621  0.0729  0.2561
  673MOL0     C90761  12.587  10.860   6.014 -1.2516 -0.7048 -0.0467
  673MOL0     C90762  12.604  11.009   5.976  0.6956 -0.2826  0.0593
  673MOL0     C90763  12.754  11.044   5.942  0.6415 -0.1358 -0.0042
  673MOL0    Cl90764  12.830  11.038   6.094 -0.4415  0.2416 -0.3523
  673MOL0     C90765  12.119  10.132   6.296  0.3776 -0.3851 -0.7773
  673MOL0     C90766  12.028  10.087   6.394 -0.1085 -0.3821  0.8424
  673MOL0     O90767  11.904  10.129   6.657  0.5984 -1.2515  0.2373
  673MOL0     C90768  11.673  10.066   6.806  0.5156 -0.2889 -0.0155
  673MOL0     C90769  11.554  10.018   6.872 -0.5743  0.4157 -0.0234
  673MOL0     N90770  10.777   9.666   6.812 -0.0869  0.3376  0.1017
  673MOL0     N90771  10.649   9.649   6.799 -0.7848  0.3684  0.0745
  673MOL0     C90772   9.637   9.459   6.560 -0.1040 -0.1232  0.5942
  673MOL0     C90773   9.613   9.347   6.481 -0.6661  0.2621 -0.6122
  673MOL0     C90774   9.531   9.092   6.115 -0.0212  0.5866 -0.6216
  673MOL0     C90775   9.647   9.030   6.075  0.0117 -0.2476  0.0954
  673MOL0     C90776   9.653   8.933   5.974  0.1593  1.2072 -0.1509
  673MOL0     C90777   9.534   8.895   5.917 -0.1273  0.3737  0.4469
  673MOL0     O90778   9.535   8.800   5.811 -0.4228 -0.3503 -0.3888
  673MOL0     C90779   9.414   8.725   5.777  0.1679  0.8768 -0.5182
  673MOL0     C90780   9.465   8.613   5.687 -0.1518  0.3783 -0.2050
  673MOL0     C90781   9.589   8.541   5.743  0.1873  0.5133  0.1695
  673MOL0     C90782   9.671   8.467   5.631 -0.1731  0.2711 -0.7713
  673MOL0     C90783   9.587   8.391   5.535  0.3544  0.5125 -0.7053
  673MOL0     C90784   9.524   8.319   5.467 -0.0778  0.5719 -0.6687
  673MOL0     C90785   9.419   8.960   5.948  0.6846 -0.0473  0.1822
  673MOL0     C90786   9.411   9.054   6.054  0.5791 -0.5540  0.3319
  673MOL0     C90787   9.273   9.114   6.074 -0.8552 -0.8782  0.1111
  673MOL0     H90788   9.823   9.423   6.213  2.2857 -0.7632  0.2987
  673MOL0     H90789   9.878   9.611   6.373  1.0652 -1.4665 -1.4067
  673MOL0     H90790   9.619   9.687   6.738  0.9230  0.3181  1.4022
  673MOL0     H90791   9.747   9.592   6.796  0.9591  1.9564  1.9048
  673MOL0     H90792   9.731   9.858   6.860  0.5027  0.1187  0.3614
  673MOL0     H90793   9.803   9.886   6.702 -1.6191 -1.9955 -1.6946
  673MOL0     H90794   9.986   9.740   6.745  0.3546  0.6325 -0.6311
  673MOL0     H90795   9.945   9.743   6.921  0.4938 -0.7241 -0.7320
  673MOL0     H90796   9.987   9.990   6.758 -4.6507 -2.8042 -0.8446
  673MOL0     H90797   9.945   9.969   6.932  0.9113  0.3701  0.6008
  673MOL0     H90798  10.189  10.040   6.906  1.2323 -0.0293  2.2453
  673MOL0     H90799  10.165   9.885   6.989 -0.9286 -0.4299  0.0024
  673MOL0     H90800  10.208   9.780   6.768  1.4939 -0.7677 -1.5892
  673MOL0     H90801  10.235   9.935   6.692  0.8085  1.3694  0.1369
  673MOL0     H90802  10.407   9.959   6.921  0.2119  0.1490 -0.1525
  673MOL0     H90803  10.459   9.912   6.757 -0.9106 -1.8058 -1.6317
  673MOL0     H90804  10.367   9.717   6.968 -2.2230  2.1470 -0.6421
  673MOL0     H90805  10.404   9.672   6.804  2.3758 -1.5550  1.2460
  673MOL0     H90806  10.652   9.868   7.039  0.2161  1.0523  0.5098
  673MOL0     H90807  10.884   9.859   7.061 -0.8417 -0.0557 -0.4964
  673MOL0     H90808  10.973   9.705   7.023  1.0610  0.3216 -0.3925
  673MOL0     H90809  11.046   9.827   6.805  1.3335  2.8937 -0.6192
  673MOL0     H90810  10.972   9.973   6.861  3.0274  1.5780 -0.8324
  673MOL0     H90811  11.177   9.817   7.026  0.6591 -1.3508 -2.7871
  673MOL0     H90812  11.095   9.977   7.063 -0.4644  1.5263 -1.2662
  673MOL0     H90813  11.286  10.053   6.973 -0.0046 -1.0154  2.0355
  673MOL0     H90814  11.225  10.024   6.808  2.6893  1.9035 -0.5807
  673MOL0     H90815  11.413   9.837   6.625  1.0115  1.1676 -1.0540
  673MOL0     H90816  11.598   9.916   6.499 -3.4525 -0.7061 -0.0266
  673MOL0     H90817  11.738  10.205   6.264  0.1728  1.5669 -1.7239
  673MOL0     H90818  11.897  10.308   6.105  0.0322  1.2332  0.6690
  673MOL0     H90819  12.092  10.381   5.952 -0.3058 -3.2065  0.2005
  673MOL0     H90820  12.070  10.456   6.116 -0.1369 -1.0352  0.0098
  673MOL0     H90821  12.324  10.437   6.139 -1.2535  1.2212  1.9354
  673MOL0     H90822  12.332  10.428   5.960  3.1158 -1.1569  1.1676
  673MOL0     H90823  12.229  10.640   5.936 -2.3066 -1.5512  0.1716
  673MOL0     H90824  12.208  10.651   6.111 -1.7198 -2.8843  0.3693
  673MOL0     H90825  12.486  10.609   6.002 -1.1239 -0.9388 -0.2339
  673MOL0     H90826  12.446  10.674   6.163  2.0033  1.4274  0.6776
  673MOL0     H90827  12.373  10.882   6.069 -2.2582  0.8250 -4.1708
  673MOL0     H90828  12.402  10.831   5.914 -0.4535 -1.4975  0.4414
  673MOL0     H90829  12.638  10.847   6.110 -0.6415  0.9639 -0.1139
  673MOL0     H90830  12.630  10.792   5.939  2.8655  2.3921 -0.8517
  673MOL0     H90831  12.570  11.073   6.057  1.4135  1.6311 -1.0884
  673MOL0     H90832  12.530  11.035   5.899 -1.8857 -0.1549  2.4137
  673MOL0     H90833  12.794  10.973   5.869  1.8985  0.7317 -0.1984
  673MOL0     H90834  12.763  11.145   5.901 -2.8221  0.5714  0.6728
  673MOL0     H90835  12.223  10.101   6.299  0.2739 -0.6548  0.3419
  673MOL0     H90836  12.079  10.033   6.473 -0.5790 -2.4663 -0.2262
  673MOL0     H90837  11.738  10.135   6.859  0.4978  0.2838 -0.7192
  673MOL0     H90838  11.535  10.047   6.975  0.2282 -2.6235  1.0864
  673MOL0     H90839   9.590   9.459   6.657  3.7404 -2.4258  2.7227
  673MOL0     H90840   9.557   9.263   6.520  0.1662  0.4768  1.1347
  673MOL0     H90841   9.737   9.067   6.124 -0.3401  0.3995  0.2754
  673MOL0     H90842   9.752   8.898   5.947  0.1378 -0.4136  1.6346
  673MOL0     H90843   9.339   8.794   5.736 -0.2750  0.9418  0.3797
  673MOL0     H90844   9.373   8.683   5.870  1.1088  2.7095  0.7670
  673MOL0     H90845   9.485   8.649   5.586  0.4007 -2.9119 -1.3888
  673MOL0     H90846   9.385   8.539   5.682  1.3401 -1.2797 -0.2006
  673MOL0     H90847   9.548   8.469   5.814  0.0846  2.7465  2.5058
  673MOL0     H90848   9.656   8.610   5.796  0.1408  1.5567 -1.0787
  673MOL0     H90849   9.739   8.538   5.583 -0.0575 -0.3540 -1.5610
  673MOL0     H90850   9.730   8.390   5.682  0.4275  2.2588  1.6995
  673MOL0     H90851   9.470   8.258   5.397  2.2583  0.0145 -2.1150
  673MOL0     H90852   9.327   8.938   5.895  0.6025  0.9889 -0.1282
  673MOL0     H90853   9.207   9.104   5.988  0.3734  1.7506 -1.2603
  673MOL0     H90854   9.226   9.067   6.161  2.2682 -2.6351  1.0310
  673MOL0     H90855   9.279   9.222   6.088 -1.6032 -1.0704  2.1907
  674MOL0     O90856   2.792  10.496   7.988  1.1196 -0.6411 -0.6541
  674MOL0     C90857   2.697  10.435   7.937 -0.2898  2.2709  0.0399
  674MOL0     O90858   2.722  10.341   7.828 -0.1987  0.0980  0.2571
  674MOL0     C90859   2.846  10.315   7.781  0.6194 -0.3041  0.8623
  674MOL0     C90860   2.956  10.270   7.865  0.0264 -0.1442  0.0746
  674MOL0     C90861   3.079  10.238   7.810  0.1762  0.4621  0.4093
  674MOL0     C90862   3.110  10.237   7.672  0.4495  0.1899  0.2048
  674MOL0     O90863   3.234  10.196   7.636 -0.5650 -0.1685  0.0082
  674MOL0     C90864   3.291  10.227   7.509 -0.1637  0.4133  0.4717
  674MOL0     C90865   3.432  10.180   7.503  0.4594  0.3523 -0.1424
  674MOL0     C90866   3.523  10.267   7.580  0.2592  0.3814 -0.9193
  674MOL0     C90867   3.665  10.220   7.548 -0.7540 -0.3682  0.5768
  674MOL0     C90868   3.770  10.302   7.607 -0.3429  0.3136 -0.6085
  674MOL0     C90869   3.907  10.241   7.573 -0.6528  0.4961  0.3084
  674MOL0     C90870   4.014  10.303   7.659 -0.0766 -0.0239  0.3644
  674MOL0     C90871   4.145  10.231   7.624  0.1423 -0.1620  0.4261
  674MOL0     N90872   4.260  10.288   7.710  0.2433  0.5420  0.0951
  674MOL0     C90873   4.327  10.222   7.813  0.7020 -0.0809 -0.7744
  674MOL0     C90874   4.420  10.314   7.846  0.2725 -0.3683 -0.5756
  674MOL0     C90875   4.525  10.301   7.944 -0.3874  0.8104 -0.4044
  674MOL0     C90876   4.668  10.300   7.883  0.4943 -0.3341 -1.4079
  674MOL0     C90877   4.694  10.164   7.824 -0.0048  1.0663 -0.8269
  674MOL0     C90878   4.843  10.116   7.826  0.0454  0.2521  0.6389
  674MOL0     O90879   4.844  10.003   7.740 -0.2699  1.2503 -0.0972
  674MOL0     C90880   4.962   9.950   7.684 -0.4008 -0.8266  0.3836
  674MOL0     C90881   5.088  10.017   7.673 -0.4409  0.7489  0.2609
  674MOL0     C90882   5.194   9.942   7.616  0.5607  0.1726  0.9570
  674MOL0     C90883   5.174   9.813   7.561 -0.5205  0.7921 -0.4180
  674MOL0     C90884   5.288   9.746   7.496  0.4903  0.4460 -0.2106
  674MOL0     O90885   5.399   9.827   7.485 -0.0838  0.5069  0.2028
  674MOL0     C90886   5.519   9.766   7.463 -0.0630  0.0364  0.0887
  674MOL0     C90887   5.595   9.778   7.349  0.5126  0.3577  0.5130
  674MOL0     C90888   5.725   9.717   7.340  0.1288 -0.4379 -0.0480
  674MOL0     C90889   5.768   9.641   7.452  0.3935  0.2891  0.9905
  674MOL0     O90890   5.890   9.579   7.432 -0.3610 -0.7282 -0.7091
  674MOL0     C90891   5.973   9.589   7.552  0.1487  0.0477  0.0323
  674MOL0     C90892   6.116   9.620   7.511  0.6624  0.1602  0.5209
  674MOL0     C90893   6.206   9.666   7.627 -0.1550  0.2642 -0.0434
  674MOL0     C90894   6.356   9.632   7.604  0.5946 -0.2101 -0.3642
  674MOL0     C90895   6.447   9.680   7.726 -0.4905  0.2010 -0.2687
  674MOL0     C90896   6.591   9.644   7.695  0.2891  0.1840 -0.8692
  674MOL0     C90897   6.686   9.661   7.817  0.5883  0.4942  0.7400
  674MOL0     C90898   6.827   9.600   7.797 -0.2672 -0.3028  0.4044
  674MOL0    Cl90899   6.922   9.685   7.665  0.2356 -0.1226 -0.1874
  674MOL0     C90900   5.690   9.633   7.573 -0.5116  0.6257  0.0498
  674MOL0     C90901   5.567   9.695   7.576 -1.0686  0.2040  0.4518
  674MOL0     O90902   5.279   9.627   7.469  0.9054  0.0931  0.0104
  674MOL0     C90903   5.051   9.743   7.577 -0.1736 -0.9177  0.2302
  674MOL0     C90904   4.953   9.815   7.637 -0.1603 -0.0303 -0.6356
  674MOL0     N90905   4.398  10.432   7.791 -0.2486 -1.1778 -0.1650
  674MOL0     N90906   4.303  10.418   7.708 -0.8430 -0.4779 -0.0565
  674MOL0     C90907   3.005  10.281   7.588  0.2906 -0.6479 -0.2631
  674MOL0     C90908   2.874  10.310   7.642  0.7021  0.0986  0.4313
  674MOL0     C90909   2.555  10.456   7.970 -0.2020  0.0217  0.1825
  674MOL0     C90910   2.457  10.419   7.873 -0.0784 -0.8153 -0.7293
  674MOL0     C90911   2.325  10.422   7.904 -0.0645  0.0833  0.1031
  674MOL0     C90912   2.279  10.493   8.010  0.4509  0.4283  0.1057
  674MOL0     O90913   2.141  10.491   8.022  0.3387  0.1738  0.2468
  674MOL0     C90914   2.079  10.543   8.137 -0.4786  0.5222 -0.1871
  674MOL0     C90915   1.928  10.547   8.115 -0.0292 -0.6150  0.5303
  674MOL0     C90916   1.840  10.585   8.235 -0.6856  0.1934 -0.2192
  674MOL0     C90917   1.696  10.542   8.205 -0.1151  0.2215 -0.3036
  674MOL0     C90918   1.603  10.592   8.307 -0.0763  0.5255 -0.6882
  674MOL0     C90919   1.542  10.603   8.411  0.4443  0.1022 -0.2338
  674MOL0     C90920   2.365  10.542   8.100  0.2394  0.0297 -0.7337
  674MOL0     C90921   2.504  10.533   8.082  0.5719 -0.0585  0.2616
  674MOL0     C90922   2.589  10.603   8.187  0.7616  0.0866  0.1039
  674MOL0     H90923   2.933  10.269   7.971 -0.6839 -0.4729 -0.0826
  674MOL0     H90924   3.153  10.201   7.881  0.7172  0.2359 -0.2545
  674MOL0     H90925   3.235  10.167   7.437 -1.3379  0.5522  1.2521
  674MOL0     H90926   3.274  10.335   7.500  0.4835  0.5171  0.4463
  674MOL0     H90927   3.461  10.182   7.398 -1.6591  0.9565 -0.7770
  674MOL0     H90928   3.448  10.076   7.534  2.2064  0.1742 -1.4997
  674MOL0     H90929   3.510  10.249   7.687 -3.3753 -1.2064 -1.4814
  674MOL0     H90930   3.515  10.372   7.548 -0.5245 -0.2293 -2.8587
  674MOL0     H90931   3.682  10.117   7.582 -0.0282 -0.1760  0.8307
  674MOL0     H90932   3.683  10.221   7.440  0.9123  4.2541  0.6783
  674MOL0     H90933   3.753  10.404   7.571 -0.8474 -0.2996 -2.1953
  674MOL0     H90934   3.752  10.291   7.714  1.6497 -1.2215 -0.3728
  674MOL0     H90935   3.912  10.133   7.593 -0.5973  0.2428 -1.0164
  674MOL0     H90936   3.926  10.247   7.466 -1.7354  0.7107  0.1155
  674MOL0     H90937   3.985  10.296   7.765  2.3437 -2.5874  0.9968
  674MOL0     H90938   4.016  10.407   7.626 -1.8739 -0.3710 -0.9936
  674MOL0     H90939   4.137  10.128   7.659 -1.6575  0.4632  2.0239
  674MOL0     H90940   4.173  10.233   7.518  0.0664 -2.6477  0.3098
  674MOL0     H90941   4.301  10.125   7.854 -0.5204  1.0890  1.4294
  674MOL0     H90942   4.522  10.389   8.010 -0.7607  0.9834 -0.6530
  674MOL0     H90943   4.516  10.212   8.007  1.5098  0.6146 -0.3477
  674MOL0     H90944   4.683  10.373   7.803 -0.2577  0.9152 -0.4521
  674MOL0     H90945   4.736  10.323   7.965  1.9089 -1.2974 -2.2683
  674MOL0     H90946   4.641  10.172   7.729  1.6137  1.2705 -1.7430
  674MOL0     H90947   4.643  10.083   7.877 -0.2026  2.6459  1.5285
  674MOL0     H90948   4.885  10.085   7.922  0.3717  0.7624  0.6648
  674MOL0     H90949   4.898  10.198   7.777 -0.6664  1.8043  2.3275
  674MOL0     H90950   5.117  10.113   7.713  0.1853 -0.5918  3.2487
  674MOL0     H90951   5.289   9.993   7.607  1.2163 -1.1433  0.1495
  674MOL0     H90952   5.567   9.823   7.254  2.2426 -2.6492 -1.6066
  674MOL0     H90953   5.780   9.722   7.247 -1.4845 -0.1842 -1.0214
  674MOL0     H90954   5.942   9.661   7.628 -0.3758  0.5244 -0.6192
  674MOL0     H90955   5.978   9.502   7.617 -1.1844  2.9416  4.4002
  674MOL0     H90956   6.160   9.533   7.462 -1.7357 -0.2555 -1.0720
  674MOL0     H90957   6.105   9.695   7.432 -0.9946 -0.1484  0.4183
  674MOL0     H90958   6.194   9.770   7.657 -2.2433  0.6323 -1.8870
  674MOL0     H90959   6.173   9.608   7.714 -0.0012  0.5781  0.2256
  674MOL0     H90960   6.387   9.668   7.506  0.1455  0.1908 -0.3649
  674MOL0     H90961   6.367   9.523   7.592  1.5676 -0.1363 -0.1871
  674MOL0     H90962   6.422   9.636   7.823 -0.9869 -0.5983 -0.7414
  674MOL0     H90963   6.417   9.785   7.732 -1.9475 -0.0717 -1.7871
  674MOL0     H90964   6.593   9.540   7.659 -2.8391 -1.4885  3.0473
  674MOL0     H90965   6.631   9.694   7.606  1.7075 -0.9001 -0.8889
  674MOL0     H90966   6.652   9.591   7.894  1.4676 -1.6489 -0.7192
  674MOL0     H90967   6.684   9.762   7.859  1.3178  0.5948  0.5473
  674MOL0     H90968   6.877   9.615   7.892 -1.1349  2.3205  0.5209
  674MOL0     H90969   6.808   9.497   7.765 -3.3428 -0.0995  1.2201
  674MOL0     H90970   5.718   9.567   7.654  1.0038  1.5942  0.3496
  674MOL0     H90971   5.503   9.686   7.663 -2.2902  1.8360 -0.2120
  674MOL0     H90972   5.038   9.637   7.558  1.5371 -0.8890 -1.4072
  674MOL0     H90973   4.854   9.772   7.647 -0.4147  0.9078  1.4200
  674MOL0     H90974   3.025  10.277   7.482 -1.5476  1.4029 -0.7557
  674MOL0     H90975   2.795  10.328   7.570  0.9119  2.3812  0.7085
  674MOL0     H90976   2.482  10.379   7.775 -0.4697  0.7208 -1.4943
  674MOL0     H90977   2.258  10.388   7.825 -1.1037  0.7725  0.6629
  674MOL0     H90978   2.107  10.644   8.169  0.2595 -0.2421  1.7625
  674MOL0     H90979   2.107  10.476   8.219 -0.9041  3.5159  2.6150
  674MOL0     H90980   1.892  10.452   8.075 -0.5776 -0.9633  1.8262
  674MOL0     H90981   1.920  10.625   8.038 -2.3809 -1.5621 -0.2666
  674MOL0     H90982   1.859  10.691   8.255  5.0976 -0.4420 -0.6846
  674MOL0     H90983   1.881  10.514   8.308 -0.9230  0.6598  0.3819
  674MOL0     H90984   1.666  10.597   8.115 -0.9025  1.0374  0.4344
  674MOL0     H90985   1.692  10.433   8.200  4.0827 -0.1375  0.3746
  674MOL0     H90986   1.479  10.596   8.497  1.3478 -0.6450  0.3942
  674MOL0     H90987   2.324  10.598   8.184  1.9476  1.4189 -0.7891
  674MOL0     H90988   2.624  10.703   8.159 -0.4136  1.2127  2.3716
  674MOL0     H90989   2.534  10.612   8.281 -0.3226  2.6397 -0.6790
  674MOL0     H90990   2.683  10.550   8.202  0.3952 -0.4733  0.4425
  675MOL0     O90991   3.224   7.985   5.835  0.2634  0.1464 -0.1496
  675MOL0     C90992   3.268   7.915   5.926 -0.1330  0.9898 -0.5117
  675MOL0     O90993   3.196   7.882   6.033 -0.0356 -0.8389  0.5545
  675MOL0     C90994   3.072   7.944   6.060  0.1868 -0.1134 -0.1947
  675MOL0     C90995   3.065   8.079   6.088  0.0912  0.5820 -0.2784
  675MOL0     C90996   2.945   8.137   6.123  0.0745  0.4753 -0.3336
  675MOL0     C90997   2.831   8.067   6.130  0.4365 -0.0304  0.0251
  675MOL0     O90998   2.720   8.140   6.152  0.5778  0.3090 -0.3529
  675MOL0     C90999   2.590   8.092   6.107 -0.0028 -0.4083 -0.0409
  675MOL0     C91000   2.490   8.205   6.072  0.1959 -0.3601  0.8140
  675MOL0     C91001   2.484   8.316   6.168 -0.0409  0.6897 -0.3006
  675MOL0     C91002   2.585   8.430   6.150 -0.4233 -0.5562 -0.5440
  675MOL0     C91003   2.576   8.541   6.255 -0.3862  0.2989  0.1148
  675MOL0     C91004   2.625   8.512   6.396  0.1752  0.2176 -0.9188
  675MOL0     C91005   2.753   8.430   6.407  0.1872 -0.4238  0.3067
  675MOL0     C91006   2.790   8.396   6.547 -0.2851 -0.2289 -0.6359
  675MOL0     N91007   2.906   8.307   6.570 -1.1666  0.4324 -0.6378
  675MOL0     C91008   2.917   8.174   6.524 -0.3063 -0.2395  0.0756
  675MOL0     C91009   3.036   8.137   6.572 -0.3213  0.6616  0.6978
  675MOL0     C91010   3.122   8.029   6.523 -0.2214 -0.9018  0.5457
  675MOL0     C91011   3.226   8.076   6.426 -0.2721 -0.4617  0.1407
  675MOL0     C91012   3.295   7.945   6.385  0.5137 -0.1759  0.5138
  675MOL0     C91013   3.420   7.960   6.298 -0.4903  0.4130  0.2463
  675MOL0     O91014   3.538   7.950   6.370  0.1851 -0.3974 -0.0005
  675MOL0     C91015   3.655   7.976   6.305 -0.0727  0.0817 -0.2762
  675MOL0     C91016   3.673   8.002   6.175  0.8717 -0.3834  0.4861
  675MOL0     C91017   3.801   8.006   6.118  0.7184  0.1555 -0.8415
  675MOL0     C91018   3.913   7.997   6.194  0.3680 -0.2218 -0.0964
  675MOL0     C91019   4.044   7.994   6.133 -0.4663  0.4201 -0.4299
  675MOL0     O91020   4.147   7.978   6.222 -0.6684 -1.0492  0.7519
  675MOL0     C91021   4.277   7.977   6.170 -0.2484  0.5474  0.1381
  675MOL0     C91022   4.314   7.865   6.097  0.1354 -0.1196  0.3031
  675MOL0     C91023   4.428   7.864   6.013 -0.6495  0.4932  0.3183
  675MOL0     C91024   4.511   7.973   6.014  0.3136  0.3412  1.2956
  675MOL0     O91025   4.629   7.984   5.940  1.0909  0.1996  0.2359
  675MOL0     C91026   4.709   7.871   5.946  0.4102  0.0231 -0.8521
  675MOL0     C91027   4.848   7.911   5.890  0.2308  0.5363 -0.3838
  675MOL0     C91028   4.944   7.800   5.925 -0.6455  0.4206 -0.0656
  675MOL0     C91029   5.081   7.823   5.854  0.6164  0.0134  0.3737
  675MOL0     C91030   5.174   7.698   5.855 -0.2107  0.5195 -0.0814
  675MOL0     C91031   5.310   7.728   5.797  0.0289  0.2047  0.7798
  675MOL0     C91032   5.372   7.593   5.761  0.8466  0.6213  0.7580
  675MOL0     C91033   5.521   7.602   5.787 -0.3372 -0.1875  0.2150
  675MOL0    Cl91034   5.612   7.473   5.718  0.0409 -0.1094 -0.2872
  675MOL0     C91035   4.470   8.084   6.085 -0.2389 -0.1640 -0.4717
  675MOL0     C91036   4.356   8.087   6.163  0.6640 -0.0357 -0.3223
  675MOL0     O91037   4.055   8.039   6.020 -0.1067  0.5389  0.3814
  675MOL0     C91038   3.894   7.974   6.331  1.0546 -0.1895  0.0294
  675MOL0     C91039   3.769   7.963   6.392  0.4840  0.9219  0.4594
  675MOL0     N91040   3.094   8.244   6.640  0.1018 -0.4188 -0.4868
  675MOL0     N91041   3.019   8.348   6.634 -0.0486  0.0466 -0.3243
  675MOL0     C91042   2.841   7.922   6.118 -0.2332 -0.2432  0.2691
  675MOL0     C91043   2.958   7.866   6.083  0.2348 -0.0548 -0.4408
  675MOL0     C91044   3.406   7.861   5.909 -0.6517 -0.4182 -0.7627
  675MOL0     C91045   3.502   7.923   5.824 -0.3039 -0.1545 -0.2925
  675MOL0     C91046   3.632   7.889   5.826 -0.2704  0.1464 -0.0724
  675MOL0     C91047   3.683   7.780   5.895  0.3831 -0.5641 -0.9538
  675MOL0     O91048   3.820   7.747   5.901  0.0449 -0.0578  0.1123
  675MOL0     C91049   3.923   7.790   5.804  0.0078  0.4487  0.6438
  675MOL0     C91050   4.054   7.720   5.848  0.4041 -0.7979  0.1854
  675MOL0     C91051   4.060   7.574   5.824 -0.1164 -0.0726 -0.3324
  675MOL0     C91052   4.205   7.508   5.841 -0.0055 -0.3588  0.6188
  675MOL0     C91053   4.281   7.517   5.722 -0.5404 -0.7782  0.7312
  675MOL0     C91054   4.362   7.508   5.631  0.1654  0.4612  0.4751
  675MOL0     C91055   3.590   7.709   5.965 -0.1478  0.2944 -0.4454
  675MOL0     C91056   3.453   7.747   5.975  0.3199  0.2865  0.0829
  675MOL0     C91057   3.361   7.655   6.052 -0.0545 -0.1173  0.3976
  675MOL0     H91058   3.155   8.138   6.078 -0.5579  1.2945 -2.3460
  675MOL0     H91059   2.952   8.245   6.129  2.1111  0.3101  1.2597
  675MOL0     H91060   2.603   8.025   6.022 -1.7828 -0.6379 -0.1745
  675MOL0     H91061   2.554   8.037   6.195  1.0265  1.9738  1.9851
  675MOL0     H91062   2.391   8.162   6.057 -0.2347  1.0375 -0.6459
  675MOL0     H91063   2.515   8.243   5.972  0.1691 -2.4992 -0.0529
  675MOL0     H91064   2.512   8.261   6.259  0.4407 -2.5191 -2.2260
  675MOL0     H91065   2.385   8.362   6.178 -1.0224 -0.7880 -2.4811
  675MOL0     H91066   2.683   8.382   6.149 -1.2657 -2.3370 -1.7410
  675MOL0     H91067   2.571   8.482   6.055  2.1695 -0.7646 -1.1107
  675MOL0     H91068   2.641   8.616   6.210  0.8863  1.0486  3.0101
  675MOL0     H91069   2.476   8.587   6.258 -0.7025 -0.4031  0.5080
  675MOL0     H91070   2.643   8.599   6.460  0.9455  1.1357 -2.3192
  675MOL0     H91071   2.547   8.451   6.442  1.5762  0.0347  1.4010
  675MOL0     H91072   2.840   8.474   6.358 -0.1674 -0.2688 -0.1864
  675MOL0     H91073   2.740   8.331   6.362 -0.3298  0.1622 -0.8715
  675MOL0     H91074   2.806   8.491   6.600  0.1513 -1.8943  2.4200
  675MOL0     H91075   2.699   8.363   6.597 -0.9289 -0.0273 -1.6426
  675MOL0     H91076   2.836   8.138   6.462 -1.1916  1.9342 -0.1356
  675MOL0     H91077   3.173   7.984   6.609  0.5105 -0.3415  0.4160
  675MOL0     H91078   3.056   7.959   6.471 -0.8998 -0.3661  0.6735
  675MOL0     H91079   3.200   8.126   6.332  2.7085  1.3458  0.1515
  675MOL0     H91080   3.300   8.142   6.473 -0.3164  0.4785 -1.0734
  675MOL0     H91081   3.226   7.888   6.323  0.5938  2.7249 -2.5360
  675MOL0     H91082   3.331   7.891   6.473 -0.6358 -2.2883 -0.2605
  675MOL0     H91083   3.412   8.045   6.229 -0.6256 -2.3310 -3.3952
  675MOL0     H91084   3.418   7.871   6.235 -1.0046 -1.1855  2.4010
  675MOL0     H91085   3.593   8.017   6.102  1.3750  1.9410  0.3131
  675MOL0     H91086   3.809   8.014   6.010  0.3848  2.8300 -0.7269
  675MOL0     H91087   4.246   7.781   6.091  1.2747 -1.2150  1.7649
  675MOL0     H91088   4.450   7.775   5.956  1.8823  0.8292  0.6499
  675MOL0     H91089   4.713   7.835   6.049  0.4939 -0.2125 -0.9377
  675MOL0     H91090   4.662   7.795   5.883 -0.5177  1.5164 -2.0445
  675MOL0     H91091   4.847   7.936   5.783 -0.2981 -0.1329 -0.5448
  675MOL0     H91092   4.866   8.008   5.935 -0.0229  1.8998 -3.0031
  675MOL0     H91093   4.961   7.791   6.033  0.2046  2.9714  0.0806
  675MOL0     H91094   4.908   7.705   5.883 -2.3990  1.4395 -0.9758
  675MOL0     H91095   5.119   7.921   5.886 -2.8048  1.7125 -0.3127
  675MOL0     H91096   5.062   7.833   5.747  0.7706  2.6303  0.5155
  675MOL0     H91097   5.127   7.613   5.805  0.5358 -1.3006  2.1081
  675MOL0     H91098   5.182   7.675   5.962 -0.4892  1.1241  0.0707
  675MOL0     H91099   5.291   7.783   5.705 -2.8169 -2.1966 -0.2384
  675MOL0     H91100   5.370   7.789   5.865  0.2279 -1.3795  2.1041
  675MOL0     H91101   5.351   7.582   5.654 -1.8112 -2.0118  1.4308
  675MOL0     H91102   5.331   7.506   5.812  0.4909 -0.4345 -1.2384
  675MOL0     H91103   5.572   7.689   5.743 -0.4883 -0.1168  0.1817
  675MOL0     H91104   5.547   7.608   5.893 -2.0025  2.7429  0.5653
  675MOL0     H91105   4.519   8.181   6.077 -0.3609  0.0634  1.1587
  675MOL0     H91106   4.314   8.176   6.210 -2.0245 -1.8253  0.8906
  675MOL0     H91107   3.973   7.963   6.405 -0.8237 -1.4753  1.9922
  675MOL0     H91108   3.752   7.939   6.496 -0.8718  2.7408  0.7171
  675MOL0     H91109   2.749   7.865   6.124 -0.4537  0.1893  1.1728
  675MOL0     H91110   2.961   7.762   6.053 -1.2588  0.3769 -2.3055
  675MOL0     H91111   3.484   8.015   5.770  4.0349  1.6859  0.8995
  675MOL0     H91112   3.709   7.950   5.778  0.4784 -1.8114 -1.5422
  675MOL0     H91113   3.930   7.899   5.812 -0.8228  0.6682 -1.1873
  675MOL0     H91114   3.903   7.754   5.703  1.7532 -1.9873  1.0743
  675MOL0     H91115   4.060   7.732   5.956  0.0547 -1.3694  0.2748
  675MOL0     H91116   4.138   7.762   5.792  0.2765 -1.0918 -0.2378
  675MOL0     H91117   4.017   7.549   5.726  2.0771 -1.2146 -1.0473
  675MOL0     H91118   3.999   7.516   5.894  0.8666 -1.5782 -0.6825
  675MOL0     H91119   4.258   7.562   5.919 -0.2380 -0.3154  0.7459
  675MOL0     H91120   4.184   7.404   5.868 -0.1651  0.1097  2.3565
  675MOL0     H91121   4.447   7.481   5.572 -0.5935  1.4810 -1.1788
  675MOL0     H91122   3.622   7.622   6.021  2.0495  0.6201 -1.0742
  675MOL0     H91123   3.395   7.553   6.030 -0.1174 -0.2241  0.7855
  675MOL0     H91124   3.362   7.692   6.155 -0.8201  0.6008  0.1515
  675MOL0     H91125   3.258   7.665   6.018 -0.7480 -0.7695  2.1680
  676MOL0     O91126   4.180   3.923   4.316 -0.0918  0.2825  0.3138
  676MOL0     C91127   4.157   3.957   4.200 -0.9021  0.5664 -0.2221
  676MOL0     O91128   4.253   3.970   4.108 -0.2294  0.5738  0.1288
  676MOL0     C91129   4.383   3.975   4.151  0.6148  0.4242 -0.3630
  676MOL0     C91130   4.427   4.069   4.244 -0.4763 -0.6058 -0.5772
  676MOL0     C91131   4.555   4.076   4.296 -0.2364 -0.0235  0.4929
  676MOL0     C91132   4.646   3.974   4.268 -0.2242  0.7523  0.4379
  676MOL0     O91133   4.767   3.965   4.327 -0.5928  0.8062 -0.0854
  676MOL0     C91134   4.818   4.064   4.409  0.2043 -0.3730 -0.6043
  676MOL0     C91135   4.976   4.034   4.421  0.6456 -1.0052 -0.4532
  676MOL0     C91136   5.034   4.139   4.516 -0.0297  0.6001 -0.2758
  676MOL0     C91137   5.183   4.126   4.532  0.6036  1.4187 -0.0515
  676MOL0     C91138   5.225   4.198   4.662 -0.4273  0.2194 -0.3122
  676MOL0     C91139   5.196   4.348   4.662  0.1738  0.6158 -0.4950
  676MOL0     C91140   5.272   4.433   4.766  1.2701 -0.3326  0.9564
  676MOL0     C91141   5.223   4.580   4.770  0.6447 -0.7629 -0.6586
  676MOL0     N91142   5.292   4.647   4.880  0.7348 -0.8072  0.2728
  676MOL0     C91143   5.272   4.635   5.020 -0.2450  0.2487 -0.0905
  676MOL0     C91144   5.355   4.728   5.082 -0.1195  0.4406 -0.1104
  676MOL0     C91145   5.380   4.751   5.231  0.1351 -1.0372 -0.5320
  676MOL0     C91146   5.260   4.763   5.329 -0.0937 -0.1264  0.2852
  676MOL0     C91147   5.305   4.739   5.474  0.5843 -0.1328 -0.0462
  676MOL0     C91148   5.194   4.692   5.568  0.6526 -0.5055 -0.5159
  676MOL0     O91149   5.109   4.806   5.608 -0.0169 -0.1249  0.3951
  676MOL0     C91150   4.981   4.795   5.558  0.2715  0.1179  0.8665
  676MOL0     C91151   4.942   4.867   5.446  0.3942  1.0647 -0.3659
  676MOL0     C91152   4.816   4.858   5.394  0.4351 -0.0299  0.3483
  676MOL0     C91153   4.720   4.773   5.445  0.4706 -0.8155  0.1335
  676MOL0     C91154   4.582   4.766   5.394  0.0573  0.9845 -0.7686
  676MOL0     O91155   4.481   4.716   5.480  0.0061  0.1894 -0.2710
  676MOL0     C91156   4.356   4.695   5.448  0.3543  0.5452 -0.0937
  676MOL0     C91157   4.297   4.569   5.481  0.9167 -0.3392  0.3637
  676MOL0     C91158   4.161   4.544   5.463  0.9606 -0.4756  0.5864
  676MOL0     C91159   4.076   4.652   5.429  0.4010 -0.4634  0.4728
  676MOL0     O91160   3.943   4.644   5.415 -0.5781 -0.2526 -0.1601
  676MOL0     C91161   3.884   4.509   5.449  0.5635 -0.0259  0.6086
  676MOL0     C91162   3.730   4.516   5.433 -0.4363 -0.1517 -0.1387
  676MOL0     C91163   3.669   4.610   5.538  0.1331 -0.5230 -0.5109
  676MOL0     C91164   3.522   4.579   5.564  0.0991 -0.3021  0.0552
  676MOL0     C91165   3.470   4.666   5.675  0.2638  0.5709 -0.3033
  676MOL0     C91166   3.318   4.654   5.648 -0.1829  0.1247  0.1296
  676MOL0     C91167   3.236   4.720   5.751 -0.5773 -0.5677  0.1417
  676MOL0     C91168   3.084   4.691   5.728  0.7901  1.0533  0.1539
  676MOL0    Cl91169   3.015   4.739   5.573  0.2335  0.1345  0.1747
  676MOL0     C91170   4.136   4.769   5.384 -0.2761  0.1821  0.4314
  676MOL0     C91171   4.272   4.791   5.397 -0.0728  0.2342  0.5131
  676MOL0     O91172   4.555   4.808   5.283 -0.3793  0.5046  0.6924
  676MOL0     C91173   4.760   4.694   5.551  0.8778 -0.1048 -0.9166
  676MOL0     C91174   4.885   4.701   5.602  0.0591 -0.1460  0.7480
  676MOL0     N91175   5.412   4.800   4.974  0.1674 -0.3531 -0.5006
  676MOL0     N91176   5.370   4.758   4.863  0.7877  0.0396  0.1897
  676MOL0     C91177   4.605   3.877   4.172  0.4906  0.4920 -0.1403
  676MOL0     C91178   4.480   3.880   4.111  0.4274 -0.4448 -0.7831
  676MOL0     C91179   4.008   3.962   4.159 -0.3354  0.1307 -0.1948
  676MOL0     C91180   3.912   3.931   4.260 -0.8164  0.1323  0.1921
  676MOL0     C91181   3.777   3.938   4.231  0.6036 -0.1156 -0.3522
  676MOL0     C91182   3.735   3.965   4.100  0.3368 -0.0287 -1.0536
  676MOL0     O91183   3.601   3.975   4.066 -0.5523  1.2841 -1.0746
  676MOL0     C91184   3.496   3.955   4.158 -0.2608  0.1183  0.3816
  676MOL0     C91185   3.461   3.807   4.189  0.0245 -0.1472 -0.3917
  676MOL0     C91186   3.412   3.789   4.335 -0.2869 -0.1015 -0.0274
  676MOL0     C91187   3.258   3.822   4.353 -0.7848 -0.2965 -0.4878
  676MOL0     C91188   3.163   3.775   4.252  0.2783 -0.2893 -1.0313
  676MOL0     C91189   3.069   3.769   4.174  0.6660  1.2063  0.1567
  676MOL0     C91190   3.824   3.996   4.004 -0.8097  0.1546  0.8126
  676MOL0     C91191   3.960   3.989   4.030 -0.6232 -0.4887  0.2032
  676MOL0     C91192   4.050   4.032   3.920  0.4967 -0.4653  0.5177
  676MOL0     H91193   4.353   4.144   4.269  2.2263  2.5608 -1.3540
  676MOL0     H91194   4.588   4.145   4.372  2.5746 -1.1522  0.4248
  676MOL0     H91195   4.811   4.163   4.362  0.5606  1.7152  3.3709
  676MOL0     H91196   4.778   4.062   4.510  2.9295  0.8949  0.5884
  676MOL0     H91197   5.020   4.045   4.321  2.7727  0.1880  0.5331
  676MOL0     H91198   4.998   3.937   4.465  0.7423 -0.0583  1.7351
  676MOL0     H91199   4.992   4.126   4.616  1.2026 -1.9643 -0.0046
  676MOL0     H91200   5.007   4.236   4.475  2.4916  1.4597 -0.0921
  676MOL0     H91201   5.194   4.018   4.544 -2.6077  0.9512 -0.4613
  676MOL0     H91202   5.243   4.155   4.445  1.1576  1.9171  0.4922
  676MOL0     H91203   5.188   4.159   4.757 -0.1306  0.4271 -0.1085
  676MOL0     H91204   5.331   4.184   4.682 -0.9489 -1.1479  1.9066
  676MOL0     H91205   5.222   4.390   4.565  0.6841 -0.3184 -0.7690
  676MOL0     H91206   5.089   4.360   4.683  0.6506 -0.3105  3.1519
  676MOL0     H91207   5.378   4.445   4.742  0.7277  3.1301 -0.3750
  676MOL0     H91208   5.237   4.380   4.855  0.8514  0.5145  1.3066
  676MOL0     H91209   5.255   4.618   4.672  1.1764 -0.9352 -0.5552
  676MOL0     H91210   5.116   4.582   4.793  1.1531  1.6810  2.0919
  676MOL0     H91211   5.211   4.567   5.080  0.5881  1.5687  2.4005
  676MOL0     H91212   5.443   4.668   5.264 -1.3514 -0.7954  3.5265
  676MOL0     H91213   5.441   4.842   5.237  1.0258 -1.5776 -1.2184
  676MOL0     H91214   5.210   4.860   5.322 -1.1057 -0.4687  2.0109
  676MOL0     H91215   5.182   4.691   5.301 -1.2275 -0.2729  3.3732
  676MOL0     H91216   5.354   4.831   5.504 -0.0562  0.4560 -0.7628
  676MOL0     H91217   5.386   4.667   5.484  2.0172  1.3502 -0.6712
  676MOL0     H91218   5.238   4.671   5.666  2.5006  0.7388 -1.0179
  676MOL0     H91219   5.144   4.607   5.521  1.6467 -2.4755  1.7717
  676MOL0     H91220   5.013   4.935   5.400 -3.1541  3.2032 -3.3356
  676MOL0     H91221   4.795   4.922   5.309 -2.2542 -0.4208  0.6450
  676MOL0     H91222   4.368   4.492   5.512  0.4530  0.0650  2.6381
  676MOL0     H91223   4.116   4.448   5.484 -0.7325  0.2511  0.4498
  676MOL0     H91224   3.916   4.446   5.365  4.5017  1.7296  0.5960
  676MOL0     H91225   3.905   4.475   5.551 -1.8326  1.4483  1.6922
  676MOL0     H91226   3.707   4.550   5.331  0.5436  1.4719  0.1583
  676MOL0     H91227   3.693   4.414   5.448  1.0947 -0.8785 -0.9785
  676MOL0     H91228   3.730   4.594   5.627  0.4943  0.4888 -0.5641
  676MOL0     H91229   3.683   4.715   5.512 -1.9860  0.4150  1.7317
  676MOL0     H91230   3.503   4.471   5.573  0.2003 -0.5088 -1.8914
  676MOL0     H91231   3.470   4.594   5.469 -1.0125 -3.4973  0.0176
  676MOL0     H91232   3.491   4.771   5.654  0.9415  1.0834  2.5149
  676MOL0     H91233   3.509   4.646   5.775  0.8612 -1.9222 -0.9593
  676MOL0     H91234   3.297   4.699   5.551 -2.5127  1.3224  1.1118
  676MOL0     H91235   3.297   4.547   5.647 -0.5197  0.1914 -1.2038
  676MOL0     H91236   3.249   4.828   5.743  0.0084 -0.4175  2.3561
  676MOL0     H91237   3.262   4.691   5.853 -0.7263  0.8984  0.6134
  676MOL0     H91238   3.073   4.582   5.739  0.8342  0.5598 -3.3557
  676MOL0     H91239   3.019   4.727   5.808 -1.0436  0.0758 -0.8033
  676MOL0     H91240   4.081   4.859   5.355 -0.3498  0.2419  0.7518
  676MOL0     H91241   4.322   4.887   5.386  0.9982 -0.3788 -0.1648
  676MOL0     H91242   4.682   4.635   5.598  1.4275  1.3023  2.0268
  676MOL0     H91243   4.909   4.645   5.692  2.6061 -1.3314 -0.5754
  676MOL0     H91244   4.667   3.789   4.157 -2.6262 -2.5118  2.7707
  676MOL0     H91245   4.457   3.801   4.040  1.0677 -2.1079  0.7970
  676MOL0     H91246   3.940   3.901   4.361 -1.8369  2.9374  1.4215
  676MOL0     H91247   3.710   3.912   4.313  2.8731 -2.2812  0.9535
  676MOL0     H91248   3.406   4.005   4.119  0.2628  0.9696  0.2318
  676MOL0     H91249   3.513   4.008   4.252 -1.3173  1.4693 -0.1477
  676MOL0     H91250   3.535   3.731   4.159 -0.0416  0.6499 -2.7796
  676MOL0     H91251   3.380   3.771   4.125 -1.5015 -0.2858  1.5139
  676MOL0     H91252   3.478   3.839   4.407 -0.6900 -1.4993  1.3720
  676MOL0     H91253   3.404   3.683   4.360 -0.3971 -0.6215 -2.1074
  676MOL0     H91254   3.227   3.791   4.454 -1.3922 -0.4691 -0.7234
  676MOL0     H91255   3.267   3.931   4.345  1.4154 -0.4308 -0.3923
  676MOL0     H91256   2.992   3.755   4.100  1.2878 -1.9490  0.0017
  676MOL0     H91257   3.798   4.014   3.900  0.7879 -1.0153  0.1736
  676MOL0     H91258   4.120   4.106   3.958  0.5322 -0.1165 -0.2126
  676MOL0     H91259   4.088   3.939   3.877 -0.3823 -0.6670  0.1353
  676MOL0     H91260   3.998   4.096   3.849  0.6033 -0.9391  0.0026
  677MOL0     O91261   7.463   1.398   6.099 -0.0065  1.1115 -0.9480
  677MOL0     C91262   7.517   1.316   6.176 -0.5072 -0.5218 -0.5791
  677MOL0     O91263   7.650   1.300   6.187  0.3709  0.0952 -0.2174
  677MOL0     C91264   7.741   1.385   6.133  0.1857  0.0255 -0.4936
  677MOL0     C91265   7.868   1.337   6.109 -0.7800 -0.6099 -0.0468
  677MOL0     C91266   7.980   1.422   6.092 -0.1402 -0.3587 -0.5544
  677MOL0     C91267   7.958   1.562   6.083  0.4242  0.1831  0.8984
  677MOL0     O91268   8.069   1.638   6.062  0.0671  0.1004 -0.1889
  677MOL0     C91269   8.053   1.776   6.014 -0.4595  0.0884 -0.2873
  677MOL0     C91270   8.175   1.858   6.041  0.0337 -0.6403  0.2434
  677MOL0     C91271   8.302   1.806   5.974 -0.6757  0.4186 -0.4099
  677MOL0     C91272   8.410   1.932   5.940  0.1398 -0.3893 -0.3296
  677MOL0     C91273   8.542   1.904   5.865  0.6893 -0.1709  0.8291
  677MOL0     C91274   8.632   1.810   5.936 -0.7858  0.2037  0.5102
  677MOL0     C91275   8.756   1.759   5.856  0.3291  0.0484 -0.2056
  677MOL0     C91276   8.880   1.852   5.860 -0.9235 -0.1939  0.2548
  677MOL0     N91277   8.881   1.963   5.768 -0.7291  0.4770  0.2048
  677MOL0     C91278   8.860   1.932   5.636  0.2110  0.1023  0.4120
  677MOL0     C91279   8.840   2.054   5.577  0.4207  0.8699  0.0640
  677MOL0     C91280   8.811   2.100   5.437  0.6687  0.1432  0.6527
  677MOL0     C91281   8.932   2.061   5.342  0.5053  1.3088  0.0824
  677MOL0     C91282   8.911   2.114   5.192 -0.1130 -0.1557 -0.2115
  677MOL0     C91283   9.016   2.055   5.098 -0.5217 -0.1656  0.5334
  677MOL0     O91284   9.046   1.919   5.132  0.1630  0.8619  0.8504
  677MOL0     C91285   9.146   1.842   5.077 -0.9930  0.3338  0.5414
  677MOL0     C91286   9.260   1.895   5.005 -0.3118 -0.1665 -0.3166
  677MOL0     C91287   9.347   1.807   4.943  0.1731  0.9295  0.3447
  677MOL0     C91288   9.339   1.668   4.959 -0.1770 -0.1997  0.0355
  677MOL0     C91289   9.448   1.581   4.903  0.5221  0.2434  0.0985
  677MOL0     O91290   9.437   1.442   4.925  0.5853  0.0137 -0.4984
  677MOL0     C91291   9.518   1.375   4.841  0.9127 -0.0754  0.4506
  677MOL0     C91292   9.630   1.298   4.876  0.3947 -0.4313 -1.2529
  677MOL0     C91293   9.719   1.261   4.769 -1.1178  0.2866 -0.7965
  677MOL0     C91294   9.688   1.272   4.634  0.5815 -0.1315  0.2685
  677MOL0     O91295   9.773   1.229   4.535  0.4338  0.4233  0.4891
  677MOL0     C91296   9.912   1.242   4.565 -0.7151  0.4179  0.0784
  677MOL0     C91297  10.008   1.251   4.447  0.5836  0.0130 -0.1272
  677MOL0     C91298  10.141   1.198   4.483 -0.6748 -1.3872  0.9585
  677MOL0     C91299  10.244   1.259   4.385 -0.4195 -0.0374 -0.9016
  677MOL0     C91300  10.385   1.204   4.420 -0.4284  0.5913  0.4530
  677MOL0     C91301  10.498   1.256   4.323  0.3494 -0.7136  0.2244
  677MOL0     C91302  10.632   1.207   4.362  0.2259  0.6933 -0.1109
  677MOL0     C91303  10.738   1.265   4.262  0.8408  0.2633 -0.0159
  677MOL0    Cl91304  10.896   1.208   4.304  0.2985  0.1568 -0.2095
  677MOL0     C91305   9.563   1.332   4.605 -0.7209  0.4172 -0.4021
  677MOL0     C91306   9.478   1.379   4.702 -0.5256  0.0733 -1.3002
  677MOL0     O91307   9.520   1.634   4.826 -0.5268  0.0279  0.1345
  677MOL0     C91308   9.243   1.620   5.049 -0.8125 -0.3501 -0.5588
  677MOL0     C91309   9.138   1.704   5.095  0.0164  0.2639 -0.5484
  677MOL0     N91310   8.854   2.152   5.671 -0.3573 -0.6621 -0.5311
  677MOL0     N91311   8.868   2.093   5.790  0.0460 -0.5407  0.3093
  677MOL0     C91312   7.832   1.616   6.103  0.2789  0.7077 -0.0313
  677MOL0     C91313   7.726   1.524   6.139  0.2508 -0.1781 -0.3844
  677MOL0     C91314   7.428   1.222   6.242 -0.2034  0.5473  0.6546
  677MOL0     C91315   7.457   1.208   6.374 -0.5936  0.2481 -0.5876
  677MOL0     C91316   7.379   1.132   6.457 -0.2970  0.3863 -0.0096
  677MOL0     C91317   7.270   1.073   6.405  0.3209  0.8285  0.3371
  677MOL0     O91318   7.193   0.983   6.472 -0.4349 -0.5358 -0.3088
  677MOL0     C91319   7.121   1.016   6.588  0.2577  0.7442  0.2803
  677MOL0     C91320   6.991   0.935   6.569  0.7034 -0.8104 -0.2782
  677MOL0     C91321   6.881   0.982   6.667  0.7035  0.7951 -0.4407
  677MOL0     C91322   6.911   0.953   6.820 -0.3035 -0.0260  0.1312
  677MOL0     C91323   6.787   0.973   6.890 -0.7787 -0.1378  0.5746
  677MOL0     C91324   6.682   0.985   6.951 -0.0640 -0.4474  0.1247
  677MOL0     C91325   7.241   1.081   6.266 -0.4141  0.0395  0.6898
  677MOL0     C91326   7.323   1.153   6.179 -0.0259  0.4215 -0.7491
  677MOL0     C91327   7.295   1.170   6.033 -0.0622 -0.6979  0.5916
  677MOL0     H91328   7.881   1.230   6.117 -0.3199 -0.5261  0.4307
  677MOL0     H91329   8.080   1.380   6.086 -1.2277 -3.2505 -0.3532
  677MOL0     H91330   8.036   1.776   5.906  0.8645 -0.5939 -0.5193
  677MOL0     H91331   7.971   1.826   6.066 -2.4742 -3.1661 -0.1078
  677MOL0     H91332   8.190   1.871   6.149  2.5566  0.0869 -0.1114
  677MOL0     H91333   8.155   1.957   5.998 -0.1969 -1.3329 -1.3069
  677MOL0     H91334   8.283   1.747   5.884 -0.8819  0.0769 -0.1462
  677MOL0     H91335   8.354   1.741   6.045  0.8904  1.1153 -0.8631
  677MOL0     H91336   8.347   1.999   5.880  0.0306 -0.7386 -0.6081
  677MOL0     H91337   8.422   1.975   6.040  0.6275 -0.5945 -0.3009
  677MOL0     H91338   8.500   1.850   5.779 -2.0276  0.4550  1.6672
  677MOL0     H91339   8.608   1.984   5.829  1.3579 -1.4817 -1.0270
  677MOL0     H91340   8.671   1.866   6.021 -2.2327 -1.5472  2.4407
  677MOL0     H91341   8.578   1.726   5.981  2.1647 -0.8347  2.4255
  677MOL0     H91342   8.720   1.726   5.758  0.4547 -3.3125  0.7381
  677MOL0     H91343   8.791   1.664   5.897  0.3140 -0.7202 -1.8917
  677MOL0     H91344   8.876   1.892   5.961 -1.4024 -3.5662  1.7175
  677MOL0     H91345   8.968   1.793   5.834 -2.5537 -2.0499 -1.4829
  677MOL0     H91346   8.858   1.836   5.585  2.0371  0.4295 -0.3907
  677MOL0     H91347   8.713   2.068   5.398  2.0759 -3.3490 -0.4670
  677MOL0     H91348   8.806   2.207   5.458  0.1580  0.0531  1.0141
  677MOL0     H91349   9.021   2.108   5.384  0.1190  3.2371 -1.1466
  677MOL0     H91350   8.950   1.953   5.346 -0.1744  1.2309  1.6577
  677MOL0     H91351   8.917   2.223   5.191 -0.5831 -0.1097  0.9289
  677MOL0     H91352   8.810   2.090   5.158  0.0414  2.1090 -2.5724
  677MOL0     H91353   9.110   2.111   5.096 -1.2571  1.1099  0.6222
  677MOL0     H91354   8.976   2.055   4.996 -1.2992  0.8768  0.8156
  677MOL0     H91355   9.261   2.003   4.991 -0.4193 -0.1796 -0.4214
  677MOL0     H91356   9.431   1.846   4.886  3.0750 -1.1951  2.8334
  677MOL0     H91357   9.662   1.277   4.978  0.4063  2.1185 -0.6764
  677MOL0     H91358   9.807   1.206   4.800 -0.7377 -1.1225 -4.0514
  677MOL0     H91359   9.923   1.332   4.627  0.3097  1.1534 -1.1073
  677MOL0     H91360   9.948   1.159   4.625  1.6294  0.9853 -0.4224
  677MOL0     H91361   9.978   1.191   4.360 -2.5419 -0.7166  1.2907
  677MOL0     H91362  10.018   1.356   4.419  1.8109 -0.4663 -1.6492
  677MOL0     H91363  10.168   1.206   4.588  1.0129 -2.7319  0.6752
  677MOL0     H91364  10.145   1.091   4.461  0.0693 -0.7726 -2.4732
  677MOL0     H91365  10.241   1.368   4.388  1.5633  0.0398  0.2696
  677MOL0     H91366  10.224   1.235   4.280 -0.8998  1.1851 -1.1056
  677MOL0     H91367  10.378   1.096   4.408 -1.3120  0.5802  0.9661
  677MOL0     H91368  10.411   1.225   4.524 -1.6106  3.1018  0.3167
  677MOL0     H91369  10.479   1.222   4.221 -0.0221  0.9462 -0.2995
  677MOL0     H91370  10.493   1.366   4.323 -0.0386 -0.7239  0.7358
  677MOL0     H91371  10.641   1.098   4.365  2.6337  0.8524  0.5319
  677MOL0     H91372  10.644   1.242   4.465  1.9484 -1.9779  0.7019
  677MOL0     H91373  10.706   1.230   4.163  1.5290  1.8312 -0.8308
  677MOL0     H91374  10.727   1.373   4.262 -1.0437  0.1040  1.0379
  677MOL0     H91375   9.533   1.349   4.502 -1.9840  0.8636  0.0175
  677MOL0     H91376   9.384   1.431   4.686  0.0353  1.2062 -0.9662
  677MOL0     H91377   9.241   1.515   5.075 -1.8790  0.2097  1.9125
  677MOL0     H91378   9.056   1.665   5.155  0.7387  0.5712  0.6802
  677MOL0     H91379   7.801   1.719   6.091 -1.1959  0.2048 -0.8651
  677MOL0     H91380   7.631   1.554   6.184  1.0491 -2.1174  3.0037
  677MOL0     H91381   7.531   1.266   6.429 -1.5871 -0.0812  1.1233
  677MOL0     H91382   7.401   1.119   6.562  1.2255 -0.1800 -0.3786
  677MOL0     H91383   7.106   1.124   6.597 -0.0745  0.8252 -0.9924
  677MOL0     H91384   7.168   0.971   6.675 -0.8155 -0.5450  0.2197
  677MOL0     H91385   6.996   0.826   6.566  0.0624 -0.8362 -0.7893
  677MOL0     H91386   6.957   0.967   6.470 -3.8475 -1.1437  0.9165
  677MOL0     H91387   6.786   0.932   6.647  1.0310  0.4337 -1.1221
  677MOL0     H91388   6.856   1.087   6.648 -2.5913  0.1156 -0.3696
  677MOL0     H91389   6.944   0.849   6.817 -0.3018 -0.0778  1.4006
  677MOL0     H91390   6.988   1.021   6.857 -1.9667  1.5953  0.7274
  677MOL0     H91391   6.588   1.005   6.999  0.4682 -0.3459  1.1646
  677MOL0     H91392   7.161   1.018   6.230  0.5566 -1.3870  0.9217
  677MOL0     H91393   7.245   1.082   5.990 -1.5591 -0.3132  1.4814
  677MOL0     H91394   7.231   1.258   6.019  0.5880 -0.3349 -0.1426
  677MOL0     H91395   7.387   1.190   5.977 -0.1979 -0.4747  0.4449
  678MOL0     O91396   1.856   7.090   2.687 -0.0586 -0.2797  0.4972
  678MOL0     C91397   1.821   7.191   2.746  0.4057 -0.7932 -0.5955
  678MOL0     O91398   1.872   7.319   2.728  0.4263 -0.3337 -0.2869
  678MOL0     C91399   2.002   7.338   2.679  1.0397  0.4938  0.6560
  678MOL0     C91400   2.035   7.468   2.638 -1.1361 -0.8296  0.0656
  678MOL0     C91401   2.165   7.504   2.597  0.7987  0.2333 -0.1308
  678MOL0     C91402   2.269   7.408   2.594  0.6392 -0.0423 -0.6542
  678MOL0     O91403   2.393   7.448   2.562 -1.1472 -0.4239  0.0674
  678MOL0     C91404   2.503   7.379   2.632 -0.4519 -0.0244  0.4150
  678MOL0     C91405   2.604   7.469   2.697 -0.7005  0.0802  1.3006
  678MOL0     C91406   2.728   7.489   2.600 -0.1975  0.6546  0.6875
  678MOL0     C91407   2.813   7.591   2.670  0.2517  0.5801  0.8804
  678MOL0     C91408   2.936   7.632   2.582 -0.0873  0.3505 -0.3039
  678MOL0     C91409   3.050   7.690   2.649 -0.1776  0.0650 -1.1859
  678MOL0     C91410   3.164   7.725   2.562 -0.1122  0.4067 -0.1783
  678MOL0     C91411   3.288   7.772   2.645  0.1996 -0.3516 -0.1620
  678MOL0     N91412   3.399   7.793   2.552 -0.3712 -0.3463 -0.2908
  678MOL0     C91413   3.506   7.873   2.578 -0.9643  0.3987  0.4156
  678MOL0     C91414   3.608   7.844   2.488  0.1481  0.1813  0.1635
  678MOL0     C91415   3.748   7.901   2.495 -0.4314 -0.1410  0.3284
  678MOL0     C91416   3.844   7.787   2.536 -0.8131 -0.0687 -0.3995
  678MOL0     C91417   3.982   7.847   2.572  1.2656 -0.4487 -0.7819
  678MOL0     C91418   4.070   7.756   2.652 -0.3281 -0.8811  0.1940
  678MOL0     O91419   4.119   7.646   2.564  0.5953  0.2864  0.3821
  678MOL0     C91420   4.232   7.582   2.611 -0.2100  0.0249 -0.4916
  678MOL0     C91421   4.326   7.532   2.524  0.0755  0.6019  0.4409
  678MOL0     C91422   4.444   7.461   2.569 -0.0910  0.0699 -0.1646
  678MOL0     C91423   4.465   7.434   2.706 -0.3662 -0.4377  0.8449
  678MOL0     C91424   4.589   7.361   2.740 -0.3138 -0.0523 -0.3639
  678MOL0     O91425   4.612   7.341   2.869  0.1735 -0.0406  0.6207
  678MOL0     C91426   4.727   7.259   2.900  0.7462 -0.1907 -0.3486
  678MOL0     C91427   4.708   7.131   2.938  0.2366  0.0438 -1.0645
  678MOL0     C91428   4.808   7.061   3.003  0.2129  0.4473 -0.1091
  678MOL0     C91429   4.935   7.111   3.025  0.4455 -0.5873  0.5354
  678MOL0     O91430   5.042   7.055   3.081 -0.3875 -0.1492 -0.1149
  678MOL0     C91431   5.051   6.909   3.070 -0.4650  0.2727 -0.4673
  678MOL0     C91432   5.062   6.859   2.928  0.5519  0.3993  0.1827
  678MOL0     C91433   5.057   6.701   2.944 -0.6199  0.4259 -0.4890
  678MOL0     C91434   5.071   6.627   2.809  0.6607 -0.4292  0.1480
  678MOL0     C91435   5.207   6.660   2.749 -0.3667  0.4341  0.0519
  678MOL0     C91436   5.239   6.549   2.651  0.1092  0.0663  0.1130
  678MOL0     C91437   5.385   6.563   2.604  0.3737  0.4799  0.4128
  678MOL0     C91438   5.421   6.454   2.500  1.1974 -0.2968  0.0575
  678MOL0    Cl91439   5.353   6.498   2.349 -0.3098 -0.2711 -0.2644
  678MOL0     C91440   4.957   7.243   2.983  0.5223 -0.8748 -0.1307
  678MOL0     C91441   4.851   7.317   2.927  0.2696 -0.6962 -0.4945
  678MOL0     O91442   4.662   7.305   2.658 -0.4941  0.0203  0.2103
  678MOL0     C91443   4.365   7.476   2.793 -0.4330 -0.0295 -0.0253
  678MOL0     C91444   4.245   7.541   2.749  0.5829  0.6418  0.5728
  678MOL0     N91445   3.561   7.743   2.408 -0.2184  0.9240 -0.1536
  678MOL0     N91446   3.445   7.708   2.454 -0.5321 -0.1062 -0.1144
  678MOL0     C91447   2.227   7.282   2.631  0.2136  0.0766 -0.1898
  678MOL0     C91448   2.101   7.243   2.680 -0.4284  0.3971 -0.0928
  678MOL0     C91449   1.710   7.173   2.842  0.7299  0.4155 -0.8006
  678MOL0     C91450   1.647   7.292   2.888  0.7107 -0.1371  0.0736
  678MOL0     C91451   1.535   7.294   2.977 -0.2345  0.8625 -0.5563
  678MOL0     C91452   1.489   7.172   3.026 -0.3770 -0.2339  0.3487
  678MOL0     O91453   1.384   7.156   3.117 -0.1610 -0.6240  0.2774
  678MOL0     C91454   1.324   7.268   3.176  0.4528 -0.2956  0.5497
  678MOL0     C91455   1.404   7.343   3.280  0.0451 -0.3634 -0.0357
  678MOL0     C91456   1.301   7.443   3.350 -0.3824  0.3283 -0.2218
  678MOL0     C91457   1.355   7.584   3.357 -0.3752  0.0100 -0.9725
  678MOL0     C91458   1.390   7.649   3.231 -0.0811 -0.2860 -1.1756
  678MOL0     C91459   1.418   7.700   3.125 -0.0106  0.2372  0.2465
  678MOL0     C91460   1.549   7.054   2.979  0.2719  0.2540 -0.2063
  678MOL0     C91461   1.658   7.052   2.892  0.3506  0.2084 -0.6427
  678MOL0     C91462   1.700   6.910   2.850  0.1399 -0.1246  0.2984
  678MOL0     H91463   1.962   7.548   2.646 -2.8611 -2.3037 -0.3661
  678MOL0     H91464   2.183   7.599   2.548  2.7306 -0.3549 -0.6451
  678MOL0     H91465   2.463   7.321   2.716  0.4982 -0.4946  0.5469
  678MOL0     H91466   2.547   7.302   2.568 -0.2673  0.6888 -0.3225
  678MOL0     H91467   2.634   7.420   2.790  0.5130 -0.4199  0.6682
  678MOL0     H91468   2.550   7.563   2.712  2.1903  2.2945 -0.8754
  678MOL0     H91469   2.704   7.525   2.499 -0.0499  1.0104  0.7792
  678MOL0     H91470   2.781   7.394   2.596 -1.2506  0.0053  1.5230
  678MOL0     H91471   2.764   7.686   2.692  2.0486  2.5730 -2.6698
  678MOL0     H91472   2.854   7.558   2.766  3.3709  1.8125  0.1001
  678MOL0     H91473   2.975   7.537   2.543  1.4575 -0.4915  2.8548
  678MOL0     H91474   2.910   7.697   2.499  1.2341  1.7137  0.2879
  678MOL0     H91475   3.026   7.783   2.702  1.6222 -0.1044  0.0101
  678MOL0     H91476   3.096   7.621   2.721 -1.4553 -0.3839 -0.7674
  678MOL0     H91477   3.145   7.808   2.493 -0.0311  0.6438  0.0866
  678MOL0     H91478   3.198   7.643   2.498  3.6406  2.9236 -1.7768
  678MOL0     H91479   3.260   7.864   2.696 -2.3180 -0.6518 -0.8662
  678MOL0     H91480   3.317   7.700   2.722  1.5603 -1.2353 -1.4414
  678MOL0     H91481   3.517   7.941   2.662 -1.4688 -0.0999  0.8877
  678MOL0     H91482   3.785   7.941   2.400  3.1449 -1.8253  0.8628
  678MOL0     H91483   3.767   7.987   2.561  5.7308  0.1374 -1.1861
  678MOL0     H91484   3.805   7.729   2.621  1.0957  0.4343  0.8981
  678MOL0     H91485   3.859   7.717   2.454  3.0647  0.2009 -0.0897
  678MOL0     H91486   3.970   7.944   2.619  0.4596 -0.4056 -1.0649
  678MOL0     H91487   4.037   7.858   2.478  0.5231 -0.3612 -1.2137
  678MOL0     H91488   4.021   7.716   2.742 -2.2397 -0.0306 -0.4157
  678MOL0     H91489   4.139   7.829   2.695  1.7784 -1.9551 -1.2030
  678MOL0     H91490   4.307   7.556   2.420 -0.2802 -1.6684 -0.0690
  678MOL0     H91491   4.512   7.414   2.498 -0.5299  1.2882 -1.4274
  678MOL0     H91492   4.610   7.084   2.937 -0.3942  0.5161  4.5727
  678MOL0     H91493   4.793   6.956   3.025  0.5136  0.5209  0.4676
  678MOL0     H91494   5.137   6.873   3.127 -1.6673  0.2883  1.4265
  678MOL0     H91495   4.969   6.855   3.118 -1.1954 -0.9555 -2.9588
  678MOL0     H91496   4.981   6.887   2.860  0.0867 -2.1060 -0.4060
  678MOL0     H91497   5.160   6.882   2.887  0.5621 -3.2319 -2.2515
  678MOL0     H91498   5.140   6.669   3.008 -1.4837 -3.6149 -1.0901
  678MOL0     H91499   4.968   6.660   2.994  1.0351 -0.1505  2.2059
  678MOL0     H91500   4.988   6.652   2.743  1.2722 -0.0909 -0.5142
  678MOL0     H91501   5.039   6.523   2.821  0.8437 -0.4073  0.9199
  678MOL0     H91502   5.281   6.662   2.830  3.2316 -2.0200 -2.8503
  678MOL0     H91503   5.210   6.756   2.696  1.3525  0.2066 -0.3187
  678MOL0     H91504   5.223   6.449   2.692 -2.1792  0.5755  0.5958
  678MOL0     H91505   5.172   6.562   2.566 -0.5769  1.3841  0.8252
  678MOL0     H91506   5.448   6.534   2.689 -1.0944  0.1144  1.4183
  678MOL0     H91507   5.411   6.663   2.570 -2.8132  0.8563 -1.2559
  678MOL0     H91508   5.530   6.455   2.496  1.2859  1.4115  1.6271
  678MOL0     H91509   5.384   6.355   2.528  0.6777 -0.0134  0.3950
  678MOL0     H91510   5.050   7.289   3.017  0.6933 -1.7353  0.6016
  678MOL0     H91511   4.866   7.415   2.884  0.5152 -0.8809 -0.8295
  678MOL0     H91512   4.370   7.467   2.901  0.6767 -2.2224 -0.2133
  678MOL0     H91513   4.167   7.557   2.823  0.1142 -2.5942  0.9565
  678MOL0     H91514   2.303   7.209   2.605  3.0371  2.6255  0.2049
  678MOL0     H91515   2.090   7.137   2.702  0.4841  0.2979 -0.0689
  678MOL0     H91516   1.685   7.387   2.851  1.5476 -0.3148  0.4550
  678MOL0     H91517   1.498   7.388   3.015 -0.9498  0.0083  0.9444
  678MOL0     H91518   1.234   7.223   3.219 -0.2233 -1.5293 -1.9308
  678MOL0     H91519   1.283   7.332   3.097  0.2265  1.1618  1.7977
  678MOL0     H91520   1.489   7.396   3.236 -0.8061 -0.4879 -1.9072
  678MOL0     H91521   1.440   7.275   3.357 -1.1647  0.4868  1.3502
  678MOL0     H91522   1.293   7.402   3.451  0.1719 -0.3512 -0.4433
  678MOL0     H91523   1.200   7.450   3.309  0.2141  2.1229 -1.4884
  678MOL0     H91524   1.276   7.647   3.399  1.9476  1.0914  2.1697
  678MOL0     H91525   1.443   7.585   3.423 -2.1271 -2.8013  1.6373
  678MOL0     H91526   1.433   7.739   3.026 -1.6630 -2.7370 -1.3175
  678MOL0     H91527   1.510   6.961   3.020 -1.5930  0.4926 -1.3032
  678MOL0     H91528   1.804   6.908   2.815  0.2210  1.7079  0.3291
  678MOL0     H91529   1.677   6.824   2.912 -2.0552  0.1176 -0.1050
  678MOL0     H91530   1.636   6.885   2.765  0.9613 -0.9694 -0.0954
  679MOL0     O91531  11.175   7.978   7.990  0.4384  0.0196  0.0023
  679MOL0     C91532  11.129   7.870   7.943 -0.5232  0.2373  0.0343
  679MOL0     O91533  11.173   7.817   7.825  0.0196  1.0801 -0.5451
  679MOL0     C91534  11.260   7.896   7.752  0.3306  0.3169 -0.0246
  679MOL0     C91535  11.401   7.887   7.764 -0.2182  0.6907  0.0265
  679MOL0     C91536  11.492   7.972   7.688 -0.1076 -0.2756  0.3537
  679MOL0     C91537  11.430   8.067   7.609 -0.3864  0.1829 -0.3342
  679MOL0     O91538  11.508   8.136   7.530  0.6208 -0.0374  0.0840
  679MOL0     C91539  11.656   8.121   7.514 -0.1068 -0.3153  0.7075
  679MOL0     C91540  11.698   8.196   7.386 -0.7381 -0.5122 -0.6715
  679MOL0     C91541  11.858   8.186   7.384  0.4669 -0.2969  0.7756
  679MOL0     C91542  11.907   8.299   7.302 -0.5118 -0.1844 -0.6942
  679MOL0     C91543  12.055   8.302   7.296 -1.4191  0.2025 -0.4392
  679MOL0     C91544  12.126   8.179   7.229 -0.3594  0.1966  0.9335
  679MOL0     C91545  12.272   8.197   7.177  0.1248 -0.2414  0.0012
  679MOL0     C91546  12.374   8.200   7.276 -0.0798  0.3737  0.5670
  679MOL0     N91547  12.373   8.089   7.360 -0.0191  0.1963  0.1561
  679MOL0     C91548  12.462   7.982   7.356 -0.7679  0.0068  0.0390
  679MOL0     C91549  12.452   7.926   7.480  0.7549  0.2499  0.3910
  679MOL0     C91550  12.531   7.806   7.531 -0.4264  0.0206  0.1567
  679MOL0     C91551  12.684   7.844   7.541  0.4776 -0.0374 -0.3966
  679MOL0     C91552  12.756   7.737   7.622  0.1594 -0.1748 -0.4996
  679MOL0     C91553  12.895   7.784   7.660  1.1685 -0.3909  0.7201
  679MOL0     O91554  12.900   7.882   7.759  0.2359 -0.3033  0.5907
  679MOL0     C91555  13.007   7.959   7.782 -0.1138 -0.5355 -0.4522
  679MOL0     C91556  13.131   7.952   7.714 -0.6442 -1.0876  0.5723
  679MOL0     C91557  13.225   8.049   7.754  0.4174 -0.4955  0.5221
  679MOL0     C91558  13.204   8.152   7.860  0.5296 -0.5401  0.3781
  679MOL0     C91559  13.293   8.261   7.882 -0.4378 -0.0485  0.0154
  679MOL0     O91560  13.429   8.235   7.869 -0.6953 -0.0228  0.4050
  679MOL0     C91561  13.523   8.328   7.903 -0.0051  0.0733  0.3225
  679MOL0     C91562  13.539   8.442   7.816 -0.2869  1.5455  0.4916
  679MOL0     C91563  13.636   8.543   7.847  0.4126 -0.0987  0.0977
  679MOL0     C91564  13.718   8.530   7.960 -0.1950  0.5344  0.7440
  679MOL0     O91565  13.821   8.617   7.987  0.0913  0.0696 -0.6711
  679MOL0     C91566  13.811   8.757   7.944  0.7406 -0.7508 -0.9607
  679MOL0     C91567  13.791   8.844   8.074 -0.0056 -0.0178  0.2426
  679MOL0     C91568  13.753   8.981   8.027 -0.3989 -0.3402  0.4005
  679MOL0     C91569  13.734   9.085   8.143 -0.2507 -0.2747  0.3549
  679MOL0     C91570  13.769   9.227   8.099 -0.5765  0.2035 -0.0554
  679MOL0     C91571  13.736   9.333   8.205  0.1806 -0.8842 -0.4151
  679MOL0     C91572  13.600   9.310   8.278 -0.2638 -0.3419  0.2882
  679MOL0     C91573  13.542   9.431   8.347  0.7423  0.6329 -0.2895
  679MOL0    Cl91574  13.614   9.470   8.505  0.6091  0.2398 -0.4685
  679MOL0     C91575  13.707   8.429   8.033  0.3170  0.2239  0.3343
  679MOL0     C91576  13.610   8.324   8.011 -0.5438  0.4530  0.1890
  679MOL0     O91577  13.245   8.362   7.925 -0.7438 -0.2496 -0.1230
  679MOL0     C91578  13.090   8.137   7.932  0.1236 -0.0849 -0.7636
  679MOL0     C91579  12.991   8.046   7.895 -0.4270  0.7357  0.0254
  679MOL0     N91580  12.350   7.990   7.554 -0.0496 -0.8798 -1.2419
  679MOL0     N91581  12.298   8.084   7.482 -1.2092 -0.2373 -0.9400
  679MOL0     C91582  11.296   8.087   7.602 -0.1005  0.7860 -0.0438
  679MOL0     C91583  11.205   8.001   7.672 -0.3132 -0.2384 -0.4894
  679MOL0     C91584  11.005   7.820   8.021  0.5739 -0.4227  1.1599
  679MOL0     C91585  10.989   7.852   8.157  0.4224 -0.5230 -0.6157
  679MOL0     C91586  10.873   7.813   8.223 -1.0996 -0.2227  0.7147
  679MOL0     C91587  10.771   7.750   8.154  0.2433  0.1973 -0.3358
  679MOL0     O91588  10.655   7.708   8.215 -0.2326 -0.1402  0.6814
  679MOL0     C91589  10.547   7.795   8.217  0.2894 -0.3729 -0.3210
  679MOL0     C91590  10.420   7.736   8.150  0.9487 -0.6873 -0.8601
  679MOL0     C91591  10.299   7.822   8.168  0.2129 -0.6982 -1.3292
  679MOL0     C91592  10.223   7.815   8.304 -0.3313  0.5207 -0.0693
  679MOL0     C91593  10.172   7.674   8.323 -0.4624  0.9827 -1.3352
  679MOL0     C91594  10.120   7.563   8.342  0.6412  0.1761  0.5579
  679MOL0     C91595  10.779   7.720   8.018  0.0265  0.2570  0.2599
  679MOL0     C91596  10.897   7.759   7.952  0.0686  0.4227  0.3380
  679MOL0     C91597  10.909   7.712   7.807 -1.0281  0.0190  0.6079
  679MOL0     H91598  11.432   7.802   7.824  1.3854  1.4493  0.3218
  679MOL0     H91599  11.598   7.960   7.703  0.1190  1.2617  0.1043
  679MOL0     H91600  11.710   8.156   7.603 -0.6011  1.6527  0.2724
  679MOL0     H91601  11.671   8.013   7.500 -0.7943 -0.4826  1.1830
  679MOL0     H91602  11.669   8.301   7.393  2.2078  0.2609  3.0647
  679MOL0     H91603  11.643   8.142   7.308 -2.2394 -1.4042  0.9390
  679MOL0     H91604  11.889   8.092   7.338 -0.0095  0.2987 -0.8030
  679MOL0     H91605  11.896   8.181   7.487  1.0867 -4.6177  0.5088
  679MOL0     H91606  11.877   8.285   7.197  0.4400 -0.9620 -0.8690
  679MOL0     H91607  11.863   8.394   7.335 -1.0926  0.3274 -2.7612
  679MOL0     H91608  12.087   8.394   7.247 -0.9098  0.1813 -0.1545
  679MOL0     H91609  12.087   8.299   7.401 -3.2798 -1.6118  0.1327
  679MOL0     H91610  12.119   8.078   7.271 -2.2634 -0.7770 -1.4494
  679MOL0     H91611  12.075   8.158   7.135  3.2532 -3.6977 -0.4773
  679MOL0     H91612  12.272   8.289   7.119 -0.6809  0.2638  0.7796
  679MOL0     H91613  12.301   8.112   7.114  0.0793 -1.8435  2.0434
  679MOL0     H91614  12.473   8.206   7.231  0.8869 -0.9660  2.3848
  679MOL0     H91615  12.355   8.288   7.339 -2.4638 -0.5102  1.1940
  679MOL0     H91616  12.519   7.951   7.268 -1.2153  0.3802 -0.3882
  679MOL0     H91617  12.492   7.787   7.631 -1.9783 -2.6107 -0.8614
  679MOL0     H91618  12.520   7.721   7.463  1.8274  1.0664 -1.6645
  679MOL0     H91619  12.727   7.854   7.440  1.0924  0.5219 -0.0855
  679MOL0     H91620  12.692   7.943   7.586 -1.3800  1.1129 -2.3724
  679MOL0     H91621  12.772   7.651   7.557  0.3676 -1.9619  1.8052
  679MOL0     H91622  12.701   7.705   7.710 -0.1747 -0.9979 -0.9960
  679MOL0     H91623  12.934   7.821   7.565 -1.8161 -2.6291 -1.5537
  679MOL0     H91624  12.952   7.698   7.697  1.5414 -0.4320  0.0719
  679MOL0     H91625  13.146   7.894   7.625 -0.9179  0.6428 -0.6576
  679MOL0     H91626  13.309   8.047   7.686 -2.1889  0.8079 -2.9985
  679MOL0     H91627  13.472   8.456   7.731 -0.1041 -1.8059 -0.3486
  679MOL0     H91628  13.649   8.626   7.778  0.2226 -0.1191  0.0361
  679MOL0     H91629  13.904   8.791   7.898  0.4078 -0.5628 -1.5049
  679MOL0     H91630  13.727   8.781   7.878  0.9798  2.2432 -0.3098
  679MOL0     H91631  13.707   8.808   8.132  0.2631 -1.5991 -0.3094
  679MOL0     H91632  13.879   8.846   8.139 -0.6350  1.4622  1.1061
  679MOL0     H91633  13.842   9.006   7.968 -0.7162  0.1455  0.1306
  679MOL0     H91634  13.660   8.978   7.971  1.2579 -0.6061 -2.5353
  679MOL0     H91635  13.804   9.067   8.225  1.8090  0.4521 -1.1584
  679MOL0     H91636  13.629   9.083   8.171 -0.1814 -0.4071  0.6029
  679MOL0     H91637  13.699   9.245   8.017 -2.5782  1.6745  1.8663
  679MOL0     H91638  13.875   9.225   8.074 -0.2218 -2.4758  1.3303
  679MOL0     H91639  13.821   9.338   8.273 -0.5187  0.4459  0.3937
  679MOL0     H91640  13.725   9.433   8.162  0.5009 -0.0008  1.4368
  679MOL0     H91641  13.595   9.223   8.344 -1.4721 -0.8232 -0.3939
  679MOL0     H91642  13.542   9.300   8.185  0.3523  2.9196 -0.5825
  679MOL0     H91643  13.555   9.518   8.283 -0.9710  0.5893 -0.7417
  679MOL0     H91644  13.434   9.430   8.364  1.0689  2.1997  2.5344
  679MOL0     H91645  13.770   8.416   8.121  0.3916 -1.6752  0.0224
  679MOL0     H91646  13.621   8.237   8.075  2.3202 -0.6053 -1.5515
  679MOL0     H91647  13.073   8.207   8.012  0.3717  0.0439 -0.8245
  679MOL0     H91648  12.902   8.034   7.956  0.5215 -0.4855  1.2141
  679MOL0     H91649  11.266   8.164   7.531 -0.4441  2.3075  1.6851
  679MOL0     H91650  11.098   8.021   7.667 -0.2555  0.5198  0.9459
  679MOL0     H91651  11.069   7.901   8.211 -0.6545  0.4835  0.1162
  679MOL0     H91652  10.869   7.834   8.330 -0.7051  0.6851  0.5597
  679MOL0     H91653  10.570   7.893   8.175  1.3011 -1.0065 -1.3170
  679MOL0     H91654  10.528   7.809   8.324  1.1665 -1.4616 -0.0044
  679MOL0     H91655  10.403   7.637   8.194  1.5129  0.0666  1.2012
  679MOL0     H91656  10.432   7.719   8.043  2.3404 -2.9169 -0.4054
  679MOL0     H91657  10.225   7.800   8.091 -0.5851  0.3841 -0.8882
  679MOL0     H91658  10.320   7.930   8.166 -0.1901 -0.5156  1.3996
  679MOL0     H91659  10.294   7.836   8.385  2.0490 -2.5829 -1.1514
  679MOL0     H91660  10.138   7.883   8.298  0.4898  1.4919 -5.3870
  679MOL0     H91661  10.062   7.473   8.344  1.6292 -0.5595 -1.2546
  679MOL0     H91662  10.698   7.660   7.978  1.8364 -1.3173 -1.2342
  679MOL0     H91663  10.991   7.640   7.812 -2.4804 -1.6418  2.0720
  679MOL0     H91664  10.820   7.656   7.778  1.0382 -3.1307 -0.1368
  679MOL0     H91665  10.921   7.790   7.731 -2.0271  2.0166  2.3640
  680MOL0     O91666   6.032   1.791   8.412 -0.0783 -0.8997 -0.5413
  680MOL0     C91667   6.042   1.901   8.463  0.4679 -0.9851 -0.0007
  680MOL0     O91668   6.159   1.955   8.511  0.1374 -0.6612  0.2498
  680MOL0     C91669   6.278   1.895   8.476 -0.0457  0.5619 -0.3133
  680MOL0     C91670   6.310   1.772   8.524  0.4646 -0.8372 -0.7684
  680MOL0     C91671   6.433   1.714   8.498 -0.0839 -0.4118 -0.8870
  680MOL0     C91672   6.515   1.776   8.407 -0.0403 -0.0574  0.8850
  680MOL0     O91673   6.636   1.714   8.378  1.0831  0.0615 -0.1157
  680MOL0     C91674   6.751   1.801   8.353 -0.6149 -0.5854  0.2296
  680MOL0     C91675   6.882   1.744   8.390  0.0310 -0.0443  0.0577
  680MOL0     C91676   7.003   1.811   8.320  0.1200 -0.7294  0.7515
  680MOL0     C91677   7.146   1.770   8.358  0.2018 -0.2367 -0.3870
  680MOL0     C91678   7.253   1.874   8.322 -0.3613  1.4545  0.7225
  680MOL0     C91679   7.392   1.832   8.383  0.1875  0.0437 -0.0771
  680MOL0     C91680   7.500   1.938   8.368  0.1855 -0.0438 -0.5205
  680MOL0     C91681   7.630   1.884   8.423 -0.6224  0.1175  0.2796
  680MOL0     N91682   7.740   1.983   8.459 -0.3762  0.8799 -0.0782
  680MOL0     C91683   7.793   2.061   8.362 -0.5213  0.1279 -0.0231
  680MOL0     C91684   7.885   2.132   8.424 -0.5497  0.0189 -0.3893
  680MOL0     C91685   7.976   2.249   8.366  0.8467 -0.3847 -0.1750
  680MOL0     C91686   8.121   2.218   8.333 -0.5217  0.3073 -0.1060
  680MOL0     C91687   8.184   2.114   8.431  0.1699  0.1863 -0.6567
  680MOL0     C91688   8.328   2.086   8.404 -0.0282  0.1066 -0.2240
  680MOL0     O91689   8.404   2.204   8.414  0.0561 -0.1945  0.0841
  680MOL0     C91690   8.532   2.190   8.386 -0.4427  0.3676 -0.0944
  680MOL0     C91691   8.586   2.289   8.299  0.1633  0.1645  0.1362
  680MOL0     C91692   8.718   2.284   8.258 -0.4854  0.4415 -0.5509
  680MOL0     C91693   8.806   2.199   8.323 -1.0820 -0.1809 -0.3430
  680MOL0     C91694   8.952   2.185   8.292 -0.3150 -0.6564  0.0774
  680MOL0     O91695   9.011   2.297   8.232 -0.2523  0.9153 -0.0383
  680MOL0     C91696   9.142   2.312   8.206  0.1796  0.1153  0.2977
  680MOL0     C91697   9.245   2.257   8.284  1.0051 -0.4759 -0.3415
  680MOL0     C91698   9.378   2.281   8.256  0.6907 -0.4346 -0.3462
  680MOL0     C91699   9.416   2.353   8.138 -0.2750 -0.0514  0.1196
  680MOL0     O91700   9.544   2.383   8.097  0.9076  0.4389 -0.1858
  680MOL0     C91701   9.656   2.344   8.173 -0.3531  0.1603  0.1282
  680MOL0     C91702   9.762   2.302   8.077 -0.0054 -0.3189 -0.0422
  680MOL0     C91703   9.846   2.409   8.022 -0.1813 -0.2348  0.2311
  680MOL0     C91704   9.957   2.359   7.932 -0.1694  0.2776  1.1515
  680MOL0     C91705  10.073   2.307   8.016  0.8401  0.4497 -0.3227
  680MOL0     C91706  10.196   2.286   7.923  0.1069  0.7638  0.8211
  680MOL0     C91707  10.300   2.189   7.982  0.6285  0.5167 -0.0836
  680MOL0     C91708  10.342   2.233   8.129 -0.6183 -0.5437  0.1807
  680MOL0    Cl91709  10.404   2.402   8.136 -0.1109  0.0454 -0.7523
  680MOL0     C91710   9.314   2.403   8.050  0.2170 -0.1933  0.2476
  680MOL0     C91711   9.182   2.391   8.095  0.4651  0.4147 -0.6256
  680MOL0     O91712   9.002   2.078   8.317  0.0991  0.0145 -0.3476
  680MOL0     C91713   8.756   2.099   8.415  1.2182 -0.1155  0.4217
  680MOL0     C91714   8.620   2.094   8.445  1.0802  0.6726 -0.1248
  680MOL0     N91715   7.883   2.101   8.559 -0.2649  0.3489  0.2841
  680MOL0     N91716   7.786   2.012   8.580  0.0485 -0.4454 -0.2223
  680MOL0     C91717   6.475   1.904   8.349  0.3595  0.5149  0.3012
  680MOL0     C91718   6.355   1.959   8.388  0.0142 -0.6236  1.0432
  680MOL0     C91719   5.920   1.980   8.492  0.4559  0.8287  0.2254
  680MOL0     C91720   5.929   2.096   8.579 -0.6835  0.2610 -0.0676
  680MOL0     C91721   5.819   2.180   8.597  0.6918 -0.6118  0.5883
  680MOL0     C91722   5.700   2.163   8.522 -0.7426  0.2395 -0.1686
  680MOL0     O91723   5.604   2.255   8.546  0.3628  0.4455  0.1738
  680MOL0     C91724   5.502   2.200   8.636 -1.0777  0.0850 -0.3527
  680MOL0     C91725   5.392   2.297   8.622  0.6699  0.6738 -0.0157
  680MOL0     C91726   5.249   2.243   8.626  0.0116 -0.4660  0.3737
  680MOL0     C91727   5.210   2.167   8.759  0.6132 -0.0320  0.2839
  680MOL0     C91728   5.064   2.157   8.760  1.0223  0.1330 -0.7498
  680MOL0     C91729   4.946   2.171   8.765  0.1149 -0.0030  0.4365
  680MOL0     C91730   5.696   2.059   8.427 -0.0654 -0.5025  0.5110
  680MOL0     C91731   5.799   1.968   8.416  0.0652  0.2653  0.6731
  680MOL0     C91732   5.774   1.857   8.310  0.5798 -0.6829  0.2441
  680MOL0     H91733   6.241   1.716   8.586  1.0408  0.5749  1.2215
  680MOL0     H91734   6.444   1.610   8.527  1.4743  0.1385  0.6308
  680MOL0     H91735   6.744   1.832   8.249  1.7933 -1.8116 -0.3638
  680MOL0     H91736   6.727   1.888   8.414 -1.5921 -0.3637 -0.4422
  680MOL0     H91737   6.878   1.640   8.356 -1.2274  0.6442 -2.0742
  680MOL0     H91738   6.901   1.745   8.498 -1.5403  1.0566  0.3710
  680MOL0     H91739   6.987   1.918   8.339 -0.6230 -0.2118 -2.2615
  680MOL0     H91740   7.004   1.804   8.211 -0.0459 -1.1741  0.7780
  680MOL0     H91741   7.149   1.736   8.462  0.2827  0.7277 -0.0595
  680MOL0     H91742   7.179   1.682   8.302  0.6461 -1.0011  1.0241
  680MOL0     H91743   7.268   1.864   8.214  2.1860 -2.2884  1.2422
  680MOL0     H91744   7.224   1.978   8.339  1.4553  2.4422 -1.5978
  680MOL0     H91745   7.390   1.795   8.486 -3.3236  0.4754  0.1251
  680MOL0     H91746   7.429   1.751   8.320 -1.0663 -2.0452  1.7319
  680MOL0     H91747   7.477   2.020   8.436 -0.5735  0.8290 -1.7733
  680MOL0     H91748   7.510   1.975   8.265  2.4480  3.3883  0.7450
  680MOL0     H91749   7.609   1.822   8.511 -0.6133 -1.4408 -0.7928
  680MOL0     H91750   7.668   1.822   8.342 -2.6903  0.8828 -1.3634
  680MOL0     H91751   7.760   2.071   8.259  1.2522  0.3876 -0.5980
  680MOL0     H91752   7.926   2.295   8.281  1.5299 -3.3601 -2.3369
  680MOL0     H91753   7.983   2.326   8.444  2.5203 -0.9989  0.3254
  680MOL0     H91754   8.135   2.185   8.230  3.3837  1.9251 -0.2970
  680MOL0     H91755   8.181   2.310   8.333  1.5732 -0.9519  1.6117
  680MOL0     H91756   8.126   2.021   8.429  1.0459 -0.3843 -2.6133
  680MOL0     H91757   8.167   2.151   8.532 -0.2074 -2.6275  0.3979
  680MOL0     H91758   8.346   2.040   8.306  2.6976 -0.8209  0.6199
  680MOL0     H91759   8.372   2.015   8.473 -0.2819  1.9605  1.9651
  680MOL0     H91760   8.518   2.362   8.256  2.5193  3.0809  0.9747
  680MOL0     H91761   8.754   2.355   8.184  0.0426  1.4779  0.6593
  680MOL0     H91762   9.224   2.199   8.374 -0.2473 -0.3920 -0.5526
  680MOL0     H91763   9.455   2.249   8.326  1.1959 -0.5116 -0.9250
  680MOL0     H91764   9.698   2.419   8.240 -0.8571 -1.5534  2.4895
  680MOL0     H91765   9.626   2.255   8.228 -1.1941 -0.5340 -1.3694
  680MOL0     H91766   9.833   2.233   8.124  0.9142  0.0358 -0.8759
  680MOL0     H91767   9.706   2.249   7.999 -0.8384  0.6511 -0.1154
  680MOL0     H91768   9.774   2.477   7.975 -3.7478 -2.8627  1.4138
  680MOL0     H91769   9.893   2.465   8.103 -1.2093 -0.6289  1.1316
  680MOL0     H91770   9.992   2.429   7.855 -0.7509 -2.7058 -2.1308
  680MOL0     H91771   9.929   2.268   7.878  1.1810  0.5219 -0.0302
  680MOL0     H91772  10.050   2.211   8.063 -0.9018  0.6584 -0.6845
  680MOL0     H91773  10.098   2.369   8.103 -0.4884 -1.6086  1.6569
  680MOL0     H91774  10.164   2.253   7.824  0.9278  1.0554  0.4529
  680MOL0     H91775  10.239   2.385   7.911 -2.3131  1.7881 -0.0899
  680MOL0     H91776  10.387   2.176   7.917  1.5576 -0.1737  1.2524
  680MOL0     H91777  10.242   2.097   7.985 -1.0441  1.5349 -0.0057
  680MOL0     H91778  10.251   2.227   8.189 -1.2688  1.4680 -0.5422
  680MOL0     H91779  10.410   2.157   8.169 -1.3286 -0.4704  1.6130
  680MOL0     H91780   9.345   2.473   7.974 -0.4951 -1.8936 -1.6878
  680MOL0     H91781   9.100   2.449   8.052 -2.1598 -1.5414  1.3639
  680MOL0     H91782   8.818   2.024   8.464  0.8694  0.6579  2.1326
  680MOL0     H91783   8.593   2.011   8.510  2.4301 -1.3038 -1.9609
  680MOL0     H91784   6.529   1.955   8.270 -0.2532 -1.8034 -1.7367
  680MOL0     H91785   6.331   2.055   8.344 -1.0579 -1.9663 -1.5263
  680MOL0     H91786   6.027   2.116   8.622  0.2141 -0.3071 -1.7718
  680MOL0     H91787   5.827   2.276   8.646  1.8064  1.4245 -3.1624
  680MOL0     H91788   5.533   2.189   8.740 -2.4115  1.0263  0.1761
  680MOL0     H91789   5.477   2.096   8.613  1.2049 -0.4036 -0.8561
  680MOL0     H91790   5.399   2.341   8.522  3.0756 -1.2885 -0.8019
  680MOL0     H91791   5.399   2.378   8.695 -2.5263  2.2149 -1.2054
  680MOL0     H91792   5.231   2.171   8.545 -0.2005 -1.4644  1.2779
  680MOL0     H91793   5.180   2.325   8.607 -0.5494 -0.4629  2.2322
  680MOL0     H91794   5.275   2.080   8.760  3.5547  2.0287  0.9999
  680MOL0     H91795   5.244   2.222   8.847  1.1799  1.9499 -1.0804
  680MOL0     H91796   4.839   2.171   8.753  0.3561  1.1152 -2.9015
  680MOL0     H91797   5.601   2.047   8.375  0.3388  0.3816 -0.4554
  680MOL0     H91798   5.862   1.844   8.246 -0.0136 -2.3315 -0.2744
  680MOL0     H91799   5.738   1.760   8.343 -0.5816 -0.4168 -0.1736
  680MOL0     H91800   5.698   1.887   8.237 -1.6745 -0.7646  2.4386
  681MOL0     O91801   7.676   7.945   6.023 -0.6762  0.1447 -0.1802
  681MOL0     C91802   7.606   8.008   5.950 -0.2496 -0.2681 -0.5884
  681MOL0     O91803   7.633   8.129   5.915 -0.0914 -0.7605 -0.8379
  681MOL0     C91804   7.733   8.203   5.980  0.5075  0.6856  0.1939
  681MOL0     C91805   7.753   8.208   6.119  0.0986  0.2675  0.1947
  681MOL0     C91806   7.859   8.288   6.179 -0.0794  0.5920  0.2990
  681MOL0     C91807   7.938   8.372   6.093  0.6391 -0.1256  0.0358
  681MOL0     O91808   8.050   8.445   6.124  0.1801 -0.7639  0.6570
  681MOL0     C91809   8.073   8.480   6.264 -0.0310  0.5462  0.5864
  681MOL0     C91810   8.210   8.536   6.301  0.1565  0.1631  0.6141
  681MOL0     C91811   8.220   8.580   6.451 -0.0001  0.2468 -0.7302
  681MOL0     C91812   8.335   8.678   6.465 -0.2486 -0.5919  0.6128
  681MOL0     C91813   8.346   8.748   6.609  0.1010 -0.0421  0.6765
  681MOL0     C91814   8.423   8.666   6.717  1.0175  0.4556 -0.2980
  681MOL0     C91815   8.453   8.741   6.844 -0.1630 -0.3753 -0.0985
  681MOL0     C91816   8.336   8.783   6.930 -0.2672 -0.8318  0.2737
  681MOL0     N91817   8.248   8.668   6.953  0.1944 -0.6181 -0.3386
  681MOL0     C91818   8.140   8.637   6.868 -0.2547 -0.4373  0.1719
  681MOL0     C91819   8.068   8.554   6.935  0.1676  0.8242  0.0768
  681MOL0     C91820   7.947   8.489   6.877 -0.3071  0.1065 -1.0630
  681MOL0     C91821   7.825   8.577   6.887 -0.2755 -0.4112  0.2091
  681MOL0     C91822   7.704   8.504   6.832  0.5870 -0.1063  0.3109
  681MOL0     C91823   7.583   8.600   6.788  0.6549  0.3636  0.7216
  681MOL0     O91824   7.467   8.546   6.846 -0.0134 -0.7658 -0.5535
  681MOL0     C91825   7.398   8.444   6.784 -0.0600  0.6317  0.0517
  681MOL0     C91826   7.426   8.379   6.661 -0.1474 -0.9688  0.1434
  681MOL0     C91827   7.337   8.275   6.614 -0.4816 -0.0855  0.5588
  681MOL0     C91828   7.220   8.242   6.682  0.5970  0.4479  0.5106
  681MOL0     C91829   7.122   8.132   6.638  0.0276  0.6290  0.1609
  681MOL0     O91830   7.143   8.077   6.520  0.4996 -0.3356  0.9254
  681MOL0     C91831   7.059   7.968   6.489 -0.4802  0.9277  0.1094
  681MOL0     C91832   7.107   7.844   6.530  0.1757 -0.0129  0.3402
  681MOL0     C91833   7.042   7.714   6.509 -0.7471  0.0384 -0.7295
  681MOL0     C91834   6.912   7.718   6.452 -0.3511  0.0625  0.0583
  681MOL0     O91835   6.836   7.604   6.435 -0.3311 -0.7844 -0.2758
  681MOL0     C91836   6.835   7.496   6.521  0.0435 -0.6690  0.0228
  681MOL0     C91837   6.698   7.437   6.546 -0.0594 -0.4982  0.5376
  681MOL0     C91838   6.638   7.363   6.417 -0.7473  0.1365  0.7292
  681MOL0     C91839   6.496   7.311   6.458  0.2286 -0.8069  0.2709
  681MOL0     C91840   6.426   7.217   6.355 -0.7031  0.1514 -0.2313
  681MOL0     C91841   6.311   7.287   6.287  0.3066 -0.0335  0.2242
  681MOL0     C91842   6.359   7.391   6.187  0.2810  0.3546 -1.0474
  681MOL0     C91843   6.234   7.474   6.138 -0.5819  0.6250  0.4411
  681MOL0    Cl91844   6.244   7.511   5.966  0.4021 -0.0262 -0.3109
  681MOL0     C91845   6.859   7.846   6.411  0.5316  0.4262  0.9635
  681MOL0     C91846   6.935   7.962   6.419 -0.4421 -1.0479 -0.8131
  681MOL0     O91847   7.039   8.096   6.721  0.2875  0.0570  0.0680
  681MOL0     C91848   7.198   8.309   6.805 -0.2619  0.2466  0.4870
  681MOL0     C91849   7.285   8.402   6.852  0.5991  0.1082 -0.0891
  681MOL0     N91850   8.124   8.530   7.064  0.1291  0.9701 -0.1091
  681MOL0     N91851   8.232   8.603   7.072  0.3272  0.3951 -0.2818
  681MOL0     C91852   7.896   8.388   5.960 -0.3846 -0.1505 -0.6875
  681MOL0     C91853   7.803   8.295   5.906 -0.9598  0.0274  0.6515
  681MOL0     C91854   7.489   7.929   5.899 -1.0289 -0.0013 -0.5491
  681MOL0     C91855   7.518   7.794   5.881  0.0513 -0.2908 -0.7695
  681MOL0     C91856   7.418   7.708   5.852  0.9895 -0.6123  0.5616
  681MOL0     C91857   7.293   7.755   5.818 -0.3894  0.9561 -0.3867
  681MOL0     O91858   7.196   7.658   5.800  0.0372  0.3546  0.0860
  681MOL0     C91859   7.057   7.678   5.771 -0.5887 -0.0884 -0.4534
  681MOL0     C91860   6.978   7.577   5.844  0.6470 -0.5234 -0.1983
  681MOL0     C91861   6.947   7.628   5.985 -0.2739  0.3635  0.6376
  681MOL0     C91862   6.864   7.521   6.056 -0.8360  0.2494  0.7531
  681MOL0     C91863   6.722   7.533   6.025 -0.2876  1.1070 -0.4927
  681MOL0     C91864   6.604   7.528   5.989  0.4195 -2.0321  0.0622
  681MOL0     C91865   7.265   7.890   5.821  0.8146  0.0297  0.2953
  681MOL0     C91866   7.369   7.980   5.857  0.4622 -0.0392  0.2043
  681MOL0     C91867   7.343   8.123   5.845  0.4614  0.5312  0.4795
  681MOL0     H91868   7.695   8.149   6.189 -1.8150  3.7022  1.7870
  681MOL0     H91869   7.884   8.285   6.284  0.6694 -1.1576  0.0932
  681MOL0     H91870   7.995   8.556   6.279  0.6704  1.5548 -0.6880
  681MOL0     H91871   8.049   8.401   6.335 -0.9789  0.4221  0.1491
  681MOL0     H91872   8.221   8.627   6.242  1.6176 -0.9612 -0.9346
  681MOL0     H91873   8.288   8.462   6.281  0.6944  0.7913  0.3587
  681MOL0     H91874   8.253   8.495   6.511 -0.2096  1.6766  1.5177
  681MOL0     H91875   8.126   8.619   6.491  0.2156 -0.4381  0.4937
  681MOL0     H91876   8.430   8.624   6.463  0.0385 -0.1233 -1.9897
  681MOL0     H91877   8.329   8.762   6.395  1.1277 -3.4536 -3.2792
  681MOL0     H91878   8.381   8.851   6.597 -4.1891  1.5236 -0.4044
  681MOL0     H91879   8.242   8.761   6.642  0.1862  1.4865  0.3833
  681MOL0     H91880   8.377   8.571   6.744 -0.8795  1.2332 -0.5929
  681MOL0     H91881   8.522   8.636   6.682  0.1514 -0.5062 -2.0929
  681MOL0     H91882   8.512   8.829   6.815  1.5081 -0.1636  3.4066
  681MOL0     H91883   8.528   8.694   6.909  2.0605  1.9570 -0.7814
  681MOL0     H91884   8.368   8.826   7.025 -1.7053 -0.4563  0.6059
  681MOL0     H91885   8.290   8.865   6.875  0.8986 -1.4336 -1.7356
  681MOL0     H91886   8.111   8.674   6.770 -2.5325 -2.1906  0.0798
  681MOL0     H91887   7.954   8.461   6.771 -1.1569  0.0350 -1.1023
  681MOL0     H91888   7.938   8.400   6.940  2.0854  1.7605  1.9085
  681MOL0     H91889   7.809   8.593   6.994  0.9775  1.2195  0.1895
  681MOL0     H91890   7.826   8.677   6.842 -1.9964 -1.0084 -1.3004
  681MOL0     H91891   7.670   8.438   6.912 -1.5559 -1.7123 -1.7733
  681MOL0     H91892   7.724   8.439   6.746 -1.7345  1.4977 -1.5902
  681MOL0     H91893   7.571   8.612   6.680  3.3076  0.8790  0.4069
  681MOL0     H91894   7.598   8.696   6.838 -0.2682  1.7438 -1.5181
  681MOL0     H91895   7.520   8.406   6.615 -0.4925  2.3262  1.1239
  681MOL0     H91896   7.359   8.217   6.525 -2.5078 -0.7729  0.4477
  681MOL0     H91897   7.197   7.848   6.590  0.6878  0.6149 -0.4365
  681MOL0     H91898   7.084   7.618   6.536  2.1987  1.2009 -0.8808
  681MOL0     H91899   6.902   7.427   6.469 -0.0636  0.1755 -1.3017
  681MOL0     H91900   6.882   7.527   6.614 -0.9008 -0.1933  0.3523
  681MOL0     H91901   6.709   7.376   6.636  1.2919 -0.7270  0.2367
  681MOL0     H91902   6.626   7.518   6.562  1.8144  1.5303 -0.7464
  681MOL0     H91903   6.638   7.425   6.327  0.9740  1.1994  1.4184
  681MOL0     H91904   6.710   7.287   6.387  1.1054  2.1420 -0.1951
  681MOL0     H91905   6.425   7.388   6.488 -1.4481 -2.1505 -0.0422
  681MOL0     H91906   6.498   7.247   6.547 -1.4234  0.5372  1.3283
  681MOL0     H91907   6.392   7.131   6.413 -0.7284  0.3509  0.0514
  681MOL0     H91908   6.493   7.173   6.281 -0.1005 -1.5270  1.2505
  681MOL0     H91909   6.254   7.216   6.227 -2.7753  1.0666  1.6488
  681MOL0     H91910   6.235   7.327   6.355  1.2567  0.2270  1.1613
  681MOL0     H91911   6.417   7.345   6.106 -0.7151 -2.1955 -0.4170
  681MOL0     H91912   6.432   7.458   6.233  1.5469  0.1718 -2.6630
  681MOL0     H91913   6.150   7.404   6.144  0.1810 -0.2504  1.0430
  681MOL0     H91914   6.211   7.563   6.198  1.1940  0.9117  0.7248
  681MOL0     H91915   6.758   7.853   6.372  1.1038  1.2233 -0.4801
  681MOL0     H91916   6.898   8.056   6.378 -2.4672 -1.1869  0.5523
  681MOL0     H91917   7.109   8.282   6.862 -1.0750 -0.9155 -1.2346
  681MOL0     H91918   7.259   8.448   6.947  1.6200 -1.3825  0.9651
  681MOL0     H91919   7.948   8.455   5.892  1.8728 -2.5014 -1.4161
  681MOL0     H91920   7.780   8.309   5.801 -1.8669  1.6070  1.0241
  681MOL0     H91921   7.611   7.752   5.917  0.6024  2.1644  0.9339
  681MOL0     H91922   7.432   7.601   5.839  1.3014 -0.4316 -0.7969
  681MOL0     H91923   7.043   7.660   5.664 -2.4987  2.0822 -0.6433
  681MOL0     H91924   7.016   7.778   5.787 -2.3547 -0.4910 -2.1249
  681MOL0     H91925   7.040   7.489   5.863  0.8522 -0.8126 -2.0440
  681MOL0     H91926   6.881   7.560   5.796  0.1376  2.3113 -0.3820
  681MOL0     H91927   6.891   7.721   5.982 -2.8120 -1.0033  2.1230
  681MOL0     H91928   7.042   7.636   6.038 -1.0373 -0.9070  2.3082
  681MOL0     H91929   6.889   7.416   6.035  0.0268  0.0324  2.6801
  681MOL0     H91930   6.877   7.542   6.163  1.4769 -0.6149  0.7134
  681MOL0     H91931   6.502   7.546   5.962  0.8261 -0.5484 -0.6072
  681MOL0     H91932   7.176   7.940   5.786  1.2495  1.4816  1.1970
  681MOL0     H91933   7.390   8.181   5.925 -3.0842  4.0268  0.3796
  681MOL0     H91934   7.360   8.168   5.747  0.3471 -2.5175 -1.0602
  681MOL0     H91935   7.236   8.143   5.859  0.1529  1.9840 -2.9696
  682MOL0     O91936  10.730   5.606   2.788  0.0951  0.2995 -0.4264
  682MOL0     C91937  10.690   5.576   2.677  0.1055  0.3036 -0.3270
  682MOL0     O91938  10.743   5.475   2.604  0.1544 -0.7311  0.0701
  682MOL0     C91939  10.863   5.418   2.632  0.3576  0.2616 -0.4713
  682MOL0     C91940  10.879   5.280   2.652  0.4484  0.4269  0.4558
  682MOL0     C91941  11.006   5.218   2.677  0.7366  0.2176 -0.2539
  682MOL0     C91942  11.117   5.292   2.686 -0.3553  0.1316 -0.8342
  682MOL0     O91943  11.218   5.225   2.743  0.6123 -0.2554  0.6542
  682MOL0     C91944  11.341   5.280   2.717  0.3370 -0.3490 -0.6815
  682MOL0     C91945  11.458   5.186   2.755  0.6885  0.2993  0.1307
  682MOL0     C91946  11.592   5.251   2.736 -0.3276 -0.4500  0.3844
  682MOL0     C91947  11.605   5.382   2.809 -0.4469 -0.7302  0.0009
  682MOL0     C91948  11.760   5.419   2.806 -0.1995 -0.2923 -0.5529
  682MOL0     C91949  11.790   5.569   2.835  0.1810  0.6202 -0.4347
  682MOL0     C91950  11.945   5.572   2.817  0.2138  0.0671 -0.2309
  682MOL0     C91951  12.009   5.539   2.953 -0.0134 -0.4505 -0.7888
  682MOL0     N91952  12.142   5.594   2.954 -0.3920  0.2810 -0.7499
  682MOL0     C91953  12.243   5.535   2.883 -0.3531 -0.7955  0.2161
  682MOL0     C91954  12.349   5.616   2.909 -0.2941  0.6503 -1.4081
  682MOL0     C91955  12.484   5.594   2.861  0.4155  0.1618 -0.4765
  682MOL0     C91956  12.538   5.715   2.780 -0.3864  0.6559 -0.3526
  682MOL0     C91957  12.650   5.786   2.860 -0.1729 -0.9256 -0.2523
  682MOL0     C91958  12.666   5.929   2.789 -0.0204 -0.3350 -0.0111
  682MOL0     O91959  12.723   5.915   2.653 -0.8013  0.0834 -0.4769
  682MOL0     C91960  12.854   5.916   2.648 -0.2945  0.5357  0.1708
  682MOL0     C91961  12.918   5.789   2.648  0.4688 -0.6039  0.3185
  682MOL0     C91962  13.051   5.782   2.606  0.6623  0.1036 -0.2608
  682MOL0     C91963  13.137   5.903   2.602  1.2034  1.5666  0.0310
  682MOL0     C91964  13.283   5.901   2.579  0.0311 -0.5933  0.2031
  682MOL0     O91965  13.336   6.016   2.533  0.0718 -0.2146 -0.3402
  682MOL0     C91966  13.469   6.025   2.515  0.5053 -0.2459 -0.4087
  682MOL0     C91967  13.547   6.063   2.623 -1.4973  0.5540  0.3646
  682MOL0     C91968  13.685   6.035   2.621  0.5018  0.3134  0.2421
  682MOL0     C91969  13.751   5.984   2.511 -0.3353  0.4633 -0.1559
  682MOL0     O91970  13.892   5.977   2.533  0.1384 -0.7799 -0.5082
  682MOL0     C91971  13.973   5.913   2.442 -0.2145  0.8048 -0.4753
  682MOL0     C91972  14.112   5.887   2.510  0.2460 -0.5720 -0.2397
  682MOL0     C91973  14.175   6.023   2.547  0.5411  0.5792  0.2769
  682MOL0     C91974  14.327   6.017   2.580 -0.4547  0.0317 -0.1646
  682MOL0     C91975  14.416   6.002   2.453 -0.7603 -0.7866 -0.0079
  682MOL0     C91976  14.557   6.046   2.479 -0.8512  0.4127 -0.5941
  682MOL0     C91977  14.634   5.948   2.574  0.3145 -0.1189 -0.5444
  682MOL0     C91978  14.779   5.975   2.603  0.4468 -0.4939  0.9614
  682MOL0    Cl91979  14.874   5.836   2.574 -0.3412 -0.3522  0.5879
  682MOL0     C91980  13.670   5.959   2.397 -0.4204  0.4033 -0.7023
  682MOL0     C91981  13.532   5.974   2.407 -0.3445 -0.4380  1.1748
  682MOL0     O91982  13.341   5.792   2.601 -0.1253 -0.0838  1.0206
  682MOL0     C91983  13.072   6.024   2.604 -0.4274 -0.6178  0.0258
  682MOL0     C91984  12.930   6.026   2.630  0.7998 -0.3699 -0.2604
  682MOL0     N91985  12.311   5.711   3.004  0.3533  0.3753  0.2802
  682MOL0     N91986  12.183   5.696   3.021  0.4726  0.1245 -0.6930
  682MOL0     C91987  11.105   5.431   2.674  0.6579 -0.4234 -0.4196
  682MOL0     C91988  10.975   5.491   2.661 -0.0919 -0.7056  0.1666
  682MOL0     C91989  10.567   5.627   2.620  0.1978 -0.5865 -0.6776
  682MOL0     C91990  10.544   5.607   2.477  0.0043  0.2512 -0.0855
  682MOL0     C91991  10.419   5.640   2.426  0.3546 -0.6209  0.7691
  682MOL0     C91992  10.315   5.704   2.502 -0.0777  0.4613 -0.2159
  682MOL0     O91993  10.207   5.755   2.433  0.6871 -0.3725 -0.0381
  682MOL0     C91994  10.124   5.853   2.497  0.6426  0.0445  0.1917
  682MOL0     C91995  10.005   5.797   2.571 -0.3538  0.2146 -0.0409
  682MOL0     C91996   9.894   5.732   2.485 -0.4290  0.2472 -1.0738
  682MOL0     C91997   9.861   5.824   2.360  0.2417 -0.1271  0.7594
  682MOL0     C91998   9.732   5.792   2.305 -0.7054  0.3780  0.3750
  682MOL0     C91999   9.621   5.764   2.274  0.4017  0.3088  0.0186
  682MOL0     C92000  10.338   5.720   2.640  0.5117  0.4454  0.3902
  682MOL0     C92001  10.460   5.679   2.699 -0.3249 -0.0007 -0.1005
  682MOL0     C92002  10.460   5.702   2.850 -0.2118  0.1921  0.8727
  682MOL0     H92003  10.794   5.216   2.636  0.9648 -0.2740  0.4733
  682MOL0     H92004  10.998   5.113   2.705 -3.8196  0.4558  0.1013
  682MOL0     H92005  11.357   5.307   2.612 -1.1602 -1.2289 -1.1649
  682MOL0     H92006  11.348   5.366   2.784 -2.3519 -2.1192  2.0977
  682MOL0     H92007  11.436   5.092   2.702 -0.8997 -0.9799  2.8456
  682MOL0     H92008  11.438   5.162   2.859 -0.6632 -0.1666 -0.2112
  682MOL0     H92009  11.619   5.272   2.632  0.7945  0.7412  0.8802
  682MOL0     H92010  11.670   5.187   2.778  0.0715  1.0748  2.0638
  682MOL0     H92011  11.543   5.457   2.758  0.0400 -1.5879 -1.9673
  682MOL0     H92012  11.578   5.373   2.914  2.7426 -1.4103  0.8807
  682MOL0     H92013  11.812   5.353   2.875 -1.2544 -1.1489 -0.5477
  682MOL0     H92014  11.797   5.400   2.705  0.8455 -0.2795 -0.1811
  682MOL0     H92015  11.727   5.617   2.759 -1.9757 -0.0428  0.8208
  682MOL0     H92016  11.750   5.600   2.932 -1.9053 -4.5360  0.7312
  682MOL0     H92017  11.979   5.665   2.772 -0.1510 -0.8024 -2.4140
  682MOL0     H92018  11.973   5.503   2.737  0.1995 -1.1299  0.7494
  682MOL0     H92019  11.946   5.577   3.034 -2.0407 -3.8766 -0.5602
  682MOL0     H92020  12.020   5.431   2.965 -2.2662 -0.6296  0.2350
  682MOL0     H92021  12.238   5.457   2.808  1.3351 -0.1498 -0.6203
  682MOL0     H92022  12.538   5.567   2.952 -1.1813 -2.6570 -0.2419
  682MOL0     H92023  12.484   5.506   2.794 -0.5726  0.1671 -0.4962
  682MOL0     H92024  12.574   5.678   2.683  0.4058 -0.4909  0.3472
  682MOL0     H92025  12.462   5.789   2.753  0.4362  2.6501  2.3908
  682MOL0     H92026  12.746   5.734   2.856  1.7362  2.1832  1.5467
  682MOL0     H92027  12.622   5.805   2.964 -0.7954 -0.6156 -0.4712
  682MOL0     H92028  12.720   5.995   2.857 -2.3839 -0.8322  2.5270
  682MOL0     H92029  12.572   5.983   2.781  0.5507  0.6889  0.0178
  682MOL0     H92030  12.874   5.692   2.669 -0.2963 -0.6643 -1.3567
  682MOL0     H92031  13.098   5.685   2.600 -2.4106 -1.5664  0.8050
  682MOL0     H92032  13.500   6.098   2.714  1.1528  1.9095  1.2826
  682MOL0     H92033  13.747   6.055   2.708  0.7699  1.7111 -0.2551
  682MOL0     H92034  13.929   5.818   2.410  0.3428  0.4809 -0.2845
  682MOL0     H92035  13.985   5.978   2.355 -1.6707  0.6483 -0.8265
  682MOL0     H92036  14.107   5.812   2.589  3.8760 -3.5332 -2.4624
  682MOL0     H92037  14.173   5.839   2.433  0.7391 -2.0049  0.9977
  682MOL0     H92038  14.157   6.092   2.464 -0.6397 -1.0483 -0.8782
  682MOL0     H92039  14.118   6.062   2.632 -0.4442 -0.8685  0.3257
  682MOL0     H92040  14.349   5.939   2.654 -1.3501 -2.0863 -2.0168
  682MOL0     H92041  14.364   6.107   2.630  0.4266 -1.2158  1.5322
  682MOL0     H92042  14.378   6.067   2.374  1.2965 -0.7957 -1.0854
  682MOL0     H92043  14.406   5.898   2.421  1.2030 -0.6834 -1.1412
  682MOL0     H92044  14.612   6.058   2.385 -0.7613 -1.2499 -0.7710
  682MOL0     H92045  14.573   6.144   2.525  0.5476 -0.4523  0.8496
  682MOL0     H92046  14.624   5.846   2.536  0.3138 -0.7711  1.0840
  682MOL0     H92047  14.580   5.944   2.670  0.1369 -0.5550 -0.6607
  682MOL0     H92048  14.818   6.061   2.547 -0.9096 -0.6130 -0.2103
  682MOL0     H92049  14.791   5.981   2.712  1.2969 -1.4234  0.9309
  682MOL0     H92050  13.712   5.899   2.317  0.9547 -1.5485  1.3674
  682MOL0     H92051  13.475   5.936   2.323 -0.4263  0.7583  0.6756
  682MOL0     H92052  13.128   6.117   2.600 -0.4409 -0.5254  1.3635
  682MOL0     H92053  12.875   6.120   2.631 -2.6146 -2.0486 -3.9885
  682MOL0     H92054  11.192   5.496   2.675  0.4808 -0.1951  0.1076
  682MOL0     H92055  10.980   5.600   2.658  0.4807 -0.6419  2.0469
  682MOL0     H92056  10.616   5.567   2.407  1.1439 -0.1525  1.2561
  682MOL0     H92057  10.413   5.625   2.319 -1.5466 -2.3333  1.0654
  682MOL0     H92058  10.090   5.925   2.421 -1.7132  0.6718  1.7323
  682MOL0     H92059  10.191   5.910   2.562  2.6307 -0.8223 -1.0031
  682MOL0     H92060   9.963   5.872   2.638  2.3505  1.0627  0.8298
  682MOL0     H92061  10.045   5.718   2.635 -0.9593 -0.9582 -1.0623
  682MOL0     H92062   9.809   5.706   2.549 -1.2115 -0.1356 -2.2349
  682MOL0     H92063   9.925   5.633   2.452  0.1914  0.0849 -0.0626
  682MOL0     H92064   9.851   5.927   2.396 -1.4495  0.5012 -1.3290
  682MOL0     H92065   9.936   5.815   2.281  0.6003  1.7416  0.8330
  682MOL0     H92066   9.521   5.736   2.249 -0.3543 -0.3934  3.3884
  682MOL0     H92067  10.266   5.769   2.704 -0.8153  0.3416 -0.9659
  682MOL0     H92068  10.364   5.703   2.901  0.2982 -0.2973  1.8607
  682MOL0     H92069  10.512   5.612   2.884  0.5696 -0.1085 -0.9714
  682MOL0     H92070  10.525   5.787   2.872  0.1020  0.4955 -1.0287
  683MOL0     O92071   8.820   9.326   5.077  0.2183  0.5906 -0.4524
  683MOL0     C92072   8.728   9.264   5.122  0.2661 -0.2587 -0.0539
  683MOL0     O92073   8.624   9.224   5.047 -0.4582  0.5917  0.7769
  683MOL0     C92074   8.562   9.301   4.955 -0.1069  0.3768 -0.4847
  683MOL0     C92075   8.458   9.244   4.896  0.0952  0.2311  0.0490
  683MOL0     C92076   8.385   9.318   4.792  0.0441 -0.3368 -0.1633
  683MOL0     C92077   8.433   9.450   4.758  0.0288 -0.4190 -0.6825
  683MOL0     O92078   8.355   9.507   4.658 -0.1340  0.2405 -0.0865
  683MOL0     C92079   8.400   9.461   4.531  0.1830  0.2046 -0.3535
  683MOL0     C92080   8.521   9.542   4.482  0.2301 -0.2406 -0.4952
  683MOL0     C92081   8.508   9.693   4.475  0.4971 -0.2603  0.1947
  683MOL0     C92082   8.620   9.762   4.388  0.2588 -0.2211 -0.9999
  683MOL0     C92083   8.610   9.916   4.394  0.0821 -0.3610  0.7388
  683MOL0     C92084   8.714  10.000   4.319  0.1540 -0.1234  0.2319
  683MOL0     C92085   8.860   9.965   4.332 -0.1159 -0.5899  0.3785
  683MOL0     C92086   8.955  10.073   4.295  0.5835  0.7818 -0.0004
  683MOL0     N92087   8.991  10.155   4.416  0.3518 -0.4101  0.4710
  683MOL0     C92088   8.921  10.258   4.479  0.2952  0.1546  0.2808
  683MOL0     C92089   8.997  10.303   4.578  0.1281  0.3147 -0.5968
  683MOL0     C92090   8.963  10.424   4.671  0.1413  0.6383  0.5021
  683MOL0     C92091   8.959  10.550   4.575  0.2664 -0.2909  0.7759
  683MOL0     C92092   9.086  10.582   4.502  0.1173  0.4836 -0.2868
  683MOL0     C92093   9.057  10.653   4.370  0.1726 -0.6230 -0.4426
  683MOL0     O92094   9.178  10.717   4.340 -0.2058 -0.3653  0.3485
  683MOL0     C92095   9.215  10.753   4.207  0.7202  0.7447 -0.5607
  683MOL0     C92096   9.345  10.780   4.173  1.4526 -0.0115 -0.5644
  683MOL0     C92097   9.376  10.816   4.042 -0.4912  1.0389 -0.1404
  683MOL0     C92098   9.283  10.836   3.940 -0.1364 -0.1673  0.2664
  683MOL0     C92099   9.330  10.899   3.813 -0.1172  0.3456  0.3602
  683MOL0     O92100   9.454  10.862   3.762 -0.0854 -0.1598 -0.3604
  683MOL0     C92101   9.493  10.900   3.640 -0.7520 -0.4958  0.2535
  683MOL0     C92102   9.544  10.807   3.546 -0.2728 -0.1970  0.4058
  683MOL0     C92103   9.610  10.858   3.427 -0.4331 -0.5623  0.7239
  683MOL0     C92104   9.634  10.996   3.409 -0.0145  0.5259  0.4668
  683MOL0     O92105   9.695  11.034   3.291  0.6852 -0.0616 -0.7702
  683MOL0     C92106   9.673  11.170   3.250 -0.9563 -0.0744 -0.5340
  683MOL0     C92107   9.730  11.195   3.102  0.6408  0.0090 -0.6347
  683MOL0     C92108   9.882  11.202   3.100  0.0618 -0.1199  1.2344
  683MOL0     C92109   9.941  11.183   2.957  0.0507 -0.8361  0.6813
  683MOL0     C92110  10.095  11.178   2.965 -0.4746 -0.6702 -0.4576
  683MOL0     C92111  10.167  11.171   2.832 -0.7615  0.2910 -0.6993
  683MOL0     C92112  10.312  11.139   2.843 -0.6822  0.3678 -0.9999
  683MOL0     C92113  10.339  11.001   2.780 -0.1654 -0.5744 -0.5040
  683MOL0    Cl92114  10.493  10.945   2.791  0.1747  0.1641  0.3089
  683MOL0     C92115   9.578  11.085   3.505  0.1318 -0.3938 -0.6350
  683MOL0     C92116   9.518  11.038   3.617  0.1284  0.7771  0.3545
  683MOL0     O92117   9.253  10.965   3.753  0.3451 -0.5581  0.0122
  683MOL0     C92118   9.146  10.815   3.985 -0.6481 -0.4408 -0.4457
  683MOL0     C92119   9.117  10.780   4.112 -0.3806 -0.0578  0.0871
  683MOL0     N92120   9.113  10.222   4.582  0.1718 -0.5987 -0.2838
  683MOL0     N92121   9.107  10.132   4.495 -0.1584  1.0740 -0.1957
  683MOL0     C92122   8.540   9.503   4.819 -0.4940 -0.7402  0.0403
  683MOL0     C92123   8.608   9.432   4.914 -0.2532 -0.1386 -0.3311
  683MOL0     C92124   8.737   9.213   5.257 -0.7065  0.4923  0.2678
  683MOL0     C92125   8.631   9.147   5.316 -0.2242 -0.1249  0.0566
  683MOL0     C92126   8.645   9.083   5.439 -0.0019  0.1318  0.3152
  683MOL0     C92127   8.762   9.110   5.517  0.1979  0.2481  0.3517
  683MOL0     O92128   8.767   9.066   5.651  0.6776 -0.4313 -0.3604
  683MOL0     C92129   8.897   9.047   5.710 -0.3156 -1.0568  0.7281
  683MOL0     C92130   8.888   8.992   5.856 -0.7554 -0.5590  0.0599
  683MOL0     C92131   8.880   8.837   5.859 -0.8757 -0.1940 -0.4846
  683MOL0     C92132   8.924   8.793   5.998  0.5978 -0.2327 -0.5358
  683MOL0     C92133   9.063   8.800   6.021  0.0625  0.0699 -0.2799
  683MOL0     C92134   9.182   8.787   6.045 -0.3606 -1.4326  1.2798
  683MOL0     C92135   8.864   9.188   5.463  0.4005  1.2031 -0.4866
  683MOL0     C92136   8.851   9.244   5.337 -0.9604  0.4568 -0.8321
  683MOL0     C92137   8.970   9.333   5.302 -0.0278  0.5812  0.3810
  683MOL0     H92138   8.429   9.148   4.938  2.7133 -0.8401 -0.4357
  683MOL0     H92139   8.300   9.284   4.734  0.1719  1.8339 -1.7254
  683MOL0     H92140   8.425   9.354   4.531  0.8912  0.3600 -0.1508
  683MOL0     H92141   8.315   9.474   4.463 -0.7382  2.1832  1.0816
  683MOL0     H92142   8.534   9.509   4.378 -0.0581 -0.8287 -0.3536
  683MOL0     H92143   8.610   9.505   4.534 -0.3560 -0.3122  0.4835
  683MOL0     H92144   8.500   9.733   4.576 -0.4441 -0.8476  0.3723
  683MOL0     H92145   8.411   9.705   4.426  0.5598 -1.9598 -0.4137
  683MOL0     H92146   8.716   9.733   4.433 -0.9835 -1.1436  1.1989
  683MOL0     H92147   8.626   9.718   4.288 -1.2098 -1.7656 -0.4518
  683MOL0     H92148   8.510   9.941   4.357  0.8197  1.8902  0.0970
  683MOL0     H92149   8.619   9.936   4.501  0.2426 -2.9854  1.2595
  683MOL0     H92150   8.696   9.994   4.211  1.4018  0.7440 -0.0487
  683MOL0     H92151   8.707  10.105   4.348  1.2733 -0.3398  1.4001
  683MOL0     H92152   8.855   9.878   4.266 -1.7683  0.7294 -1.3282
  683MOL0     H92153   8.894   9.932   4.431  2.1736 -3.8630 -1.3029
  683MOL0     H92154   9.052  10.035   4.261 -0.1869  0.5628 -2.0719
  683MOL0     H92155   8.916  10.125   4.207  0.1665  0.3397 -0.0853
  683MOL0     H92156   8.829  10.303   4.443 -0.4923 -1.6241 -0.0253
  683MOL0     H92157   8.866  10.395   4.712  0.7859 -1.3696  0.7174
  683MOL0     H92158   9.026  10.433   4.759  0.5566  2.2770  0.0744
  683MOL0     H92159   8.875  10.527   4.509  2.7508 -0.1778 -2.6484
  683MOL0     H92160   8.928  10.644   4.621 -2.3903  0.4154 -2.1425
  683MOL0     H92161   9.149  10.494   4.483  1.6991  0.8607  2.6053
  683MOL0     H92162   9.140  10.645   4.574 -1.1465  0.8186  0.3934
  683MOL0     H92163   8.970  10.719   4.384 -0.9366 -2.1037 -0.0941
  683MOL0     H92164   9.020  10.581   4.297 -1.2817 -0.6022  0.2176
  683MOL0     H92165   9.422  10.763   4.248 -0.6129  0.8161  1.8809
  683MOL0     H92166   9.477  10.844   4.018 -0.4730  0.0916 -1.2250
  683MOL0     H92167   9.541  10.700   3.563  2.4326  0.0737  3.8520
  683MOL0     H92168   9.646  10.786   3.355  3.5652  0.8559  1.0690
  683MOL0     H92169   9.564  11.182   3.251 -0.9330  0.2216 -1.4896
  683MOL0     H92170   9.722  11.242   3.316 -1.2912 -0.4488  0.1477
  683MOL0     H92171   9.667  11.136   3.035 -2.7317  0.7949  1.5768
  683MOL0     H92172   9.699  11.298   3.081  0.3153  0.8391  3.1407
  683MOL0     H92173   9.912  11.300   3.139  0.5408 -0.0419  0.6858
  683MOL0     H92174   9.933  11.124   3.158  3.6682  1.6080  0.6812
  683MOL0     H92175   9.909  11.267   2.895  3.5403  1.7119  1.9790
  683MOL0     H92176   9.914  11.088   2.910  2.5005 -1.5318  0.5499
  683MOL0     H92177  10.128  11.088   3.019  0.5997  1.3870  2.5768
  683MOL0     H92178  10.133  11.263   3.022 -3.5141 -0.7838  2.0304
  683MOL0     H92179  10.113  11.101   2.768 -1.1666 -2.6034  2.5299
  683MOL0     H92180  10.160  11.270   2.786  1.6003 -0.7041 -3.5559
  683MOL0     H92181  10.347  11.132   2.946  0.8470  1.8835 -1.3621
  683MOL0     H92182  10.371  11.220   2.800  1.4618 -1.8855 -2.5935
  683MOL0     H92183  10.274  10.928   2.829 -1.6314  1.0479  0.0744
  683MOL0     H92184  10.307  11.014   2.676  1.3295  1.8194 -0.7513
  683MOL0     H92185   9.600  11.191   3.494  1.0475 -0.5920 -0.8374
  683MOL0     H92186   9.506  11.119   3.689 -2.2900  0.5585  0.2968
  683MOL0     H92187   9.063  10.824   3.916 -0.1271 -2.8232 -1.5147
  683MOL0     H92188   9.009  10.779   4.127 -0.3689  1.2682  0.4654
  683MOL0     H92189   8.567   9.604   4.792  0.6263 -0.4200  2.1259
  683MOL0     H92190   8.690   9.493   4.952 -2.6738  2.2779  1.3415
  683MOL0     H92191   8.541   9.133   5.257  0.8561 -1.1056 -1.4126
  683MOL0     H92192   8.562   9.041   5.493  1.0075  0.4551  2.1975
  683MOL0     H92193   8.945   9.144   5.720  0.9405 -1.4742 -0.8191
  683MOL0     H92194   8.958   8.980   5.649  0.2226 -0.3379  0.4692
  683MOL0     H92195   8.801   9.039   5.902 -1.2646 -1.6575  0.2297
  683MOL0     H92196   8.981   9.025   5.903 -2.3929  4.1602  0.5188
  683MOL0     H92197   8.937   8.787   5.780 -2.2261 -1.8057 -0.4953
  683MOL0     H92198   8.780   8.797   5.839 -0.4004 -0.9350 -1.4692
  683MOL0     H92199   8.870   8.855   6.070  0.2453 -1.6208  0.4512
  683MOL0     H92200   8.882   8.693   6.015  0.0551  0.0518 -0.1607
  683MOL0     H92201   9.284   8.774   6.076 -1.1886 -0.9996  4.5165
  683MOL0     H92202   8.948   9.211   5.528 -0.1943  0.8553  0.4119
  683MOL0     H92203   9.043   9.339   5.383  0.9950 -1.8115 -0.2828
  683MOL0     H92204   9.025   9.298   5.214 -1.0108 -2.4243  0.8596
  683MOL0     H92205   8.935   9.437   5.296  1.2641  1.0987  1.3156
  684MOL0     O92206   1.223   4.087   2.810  0.5678 -0.0076 -0.1221
  684MOL0     C92207   1.133   4.094   2.731  0.1062  0.0588  0.1522
  684MOL0     O92208   1.147   4.068   2.597  0.1219 -0.6308  0.9735
  684MOL0     C92209   1.275   4.080   2.537 -1.3981  0.0449 -0.2299
  684MOL0     C92210   1.370   3.975   2.545  0.2434 -0.0494 -0.6732
  684MOL0     C92211   1.503   3.990   2.506  0.5520 -0.0070  0.2242
  684MOL0     C92212   1.546   4.109   2.459  0.8163 -0.8026 -0.5347
  684MOL0     O92213   1.674   4.119   2.419 -0.2617 -0.7026  0.1858
  684MOL0     C92214   1.741   4.214   2.511 -0.5231  0.5886 -0.2305
  684MOL0     C92215   1.896   4.212   2.483  0.0753  0.1980  0.0500
  684MOL0     C92216   1.954   4.327   2.550  0.5118  0.2336  0.6724
  684MOL0     C92217   2.108   4.332   2.561  0.2534  0.1417 -0.3400
  684MOL0     C92218   2.189   4.301   2.437 -0.0298  0.9827  0.0413
  684MOL0     C92219   2.331   4.331   2.475  0.3647  0.4096 -0.3372
  684MOL0     C92220   2.421   4.324   2.353 -0.4961  0.8144  0.3666
  684MOL0     C92221   2.560   4.337   2.410  0.3764  0.5992 -0.2460
  684MOL0     N92222   2.659   4.304   2.309 -1.0788  0.0903  0.0841
  684MOL0     C92223   2.680   4.373   2.190 -0.3896 -0.2712 -0.3540
  684MOL0     C92224   2.775   4.314   2.113 -0.4833  0.2859 -0.8710
  684MOL0     C92225   2.820   4.346   1.969 -0.4932  0.1880 -0.0533
  684MOL0     C92226   2.973   4.315   1.936  0.7173 -0.6281 -0.3878
  684MOL0     C92227   3.023   4.404   1.824 -0.6300  0.6594 -0.3066
  684MOL0     C92228   3.144   4.344   1.742 -0.2857  0.6231  0.3434
  684MOL0     O92229   3.262   4.341   1.821  0.3667 -0.2052 -0.1505
  684MOL0     C92230   3.379   4.387   1.770 -0.4352  0.4764  0.3785
  684MOL0     C92231   3.423   4.348   1.650 -0.3286 -1.1269  0.6637
  684MOL0     C92232   3.553   4.382   1.598  0.1928  0.3262  0.0152
  684MOL0     C92233   3.646   4.451   1.682 -0.2251 -0.1087  0.2350
  684MOL0     C92234   3.775   4.507   1.621 -0.3873  0.8589 -0.8004
  684MOL0     O92235   3.870   4.550   1.710 -0.4950 -0.2016  0.0918
  684MOL0     C92236   3.993   4.611   1.676 -0.1059  0.5230  0.1802
  684MOL0     C92237   4.060   4.575   1.553  0.3505 -0.9488 -0.4366
  684MOL0     C92238   4.191   4.630   1.532 -0.1006  0.2402 -0.4529
  684MOL0     C92239   4.248   4.722   1.621 -0.3345 -0.5227 -0.3081
  684MOL0     O92240   4.367   4.777   1.594 -0.3655 -0.0115 -0.5119
  684MOL0     C92241   4.430   4.844   1.707 -0.5332  0.1276 -0.1287
  684MOL0     C92242   4.573   4.895   1.691  0.1938 -0.2275  0.3827
  684MOL0     C92243   4.596   4.991   1.567 -0.5203 -0.1664 -0.1055
  684MOL0     C92244   4.738   5.032   1.536 -0.9552  0.3959 -0.3289
  684MOL0     C92245   4.738   5.146   1.430 -1.4709 -0.7231 -0.3878
  684MOL0     C92246   4.873   5.205   1.390  0.0290 -0.1890 -0.4690
  684MOL0     C92247   4.974   5.223   1.511 -0.1897 -0.2079 -1.1123
  684MOL0     C92248   5.111   5.263   1.468 -0.2044 -0.4769 -0.4309
  684MOL0    Cl92249   5.117   5.434   1.420  0.3939 -0.0819  0.1415
  684MOL0     C92250   4.178   4.744   1.741 -0.5180  0.4498  0.4287
  684MOL0     C92251   4.052   4.693   1.767  0.2872 -0.7505 -0.0686
  684MOL0     O92252   3.778   4.513   1.501 -0.5977  0.0636 -0.7336
  684MOL0     C92253   3.603   4.482   1.813 -1.0263  0.1570 -0.1974
  684MOL0     C92254   3.477   4.443   1.854 -0.6961 -0.9045  0.1358
  684MOL0     N92255   2.811   4.197   2.191 -0.3867  0.2438 -0.1719
  684MOL0     N92256   2.745   4.198   2.305  0.4158 -0.3483  0.0022
  684MOL0     C92257   1.455   4.219   2.447 -0.2119  0.7194 -0.5044
  684MOL0     C92258   1.317   4.203   2.483 -0.8526  1.0943  0.7911
  684MOL0     C92259   0.997   4.113   2.786  0.0241 -0.0238 -0.2233
  684MOL0     C92260   0.894   4.118   2.687 -0.2394  0.0091  0.3286
  684MOL0     C92261   0.763   4.150   2.714  0.2703  0.1049 -0.2040
  684MOL0     C92262   0.726   4.185   2.838 -0.4014  0.0822 -0.8293
  684MOL0     O92263   0.599   4.219   2.877  0.5793 -0.2931  0.0189
  684MOL0     C92264   0.495   4.184   2.785 -0.2664 -0.1999 -0.5992
  684MOL0     C92265   0.362   4.223   2.839  0.6941  0.0059 -0.2971
  684MOL0     C92266   0.338   4.199   2.983  0.2247  0.6436  0.2922
  684MOL0     C92267   0.351   4.054   3.004 -0.5394  0.0387 -0.4998
  684MOL0     C92268   0.277   4.005   3.127 -0.4456  0.3050  0.6363
  684MOL0     C92269   0.204   3.974   3.212 -0.9487 -0.1745 -1.0085
  684MOL0     C92270   0.823   4.183   2.949 -0.0616 -0.4984  0.3768
  684MOL0     C92271   0.952   4.142   2.919  0.1402 -0.0630 -0.0903
  684MOL0     C92272   1.047   4.132   3.030  0.0071 -0.7796  0.6960
  684MOL0     H92273   1.363   3.892   2.614  1.6134  1.1939  1.0530
  684MOL0     H92274   1.576   3.909   2.514 -0.7122 -1.2658 -0.3828
  684MOL0     H92275   1.710   4.319   2.506  0.7101  1.1476  2.2181
  684MOL0     H92276   1.731   4.185   2.616 -0.0218 -2.4230 -0.9325
  684MOL0     H92277   1.925   4.225   2.378  0.1327 -0.6747 -0.0537
  684MOL0     H92278   1.951   4.123   2.516 -0.0666  0.3308  0.6457
  684MOL0     H92279   1.914   4.330   2.652  0.7776  0.3918  0.7741
  684MOL0     H92280   1.927   4.420   2.498  0.5324 -1.3354 -2.3594
  684MOL0     H92281   2.138   4.430   2.600 -1.1913 -0.4320  2.4888
  684MOL0     H92282   2.145   4.265   2.640  2.4718  2.0259  0.3554
  684MOL0     H92283   2.176   4.198   2.402 -0.2297  0.8309  0.5533
  684MOL0     H92284   2.161   4.367   2.355 -1.4494 -0.4646 -0.7013
  684MOL0     H92285   2.338   4.424   2.532  1.4642 -0.1592  0.4901
  684MOL0     H92286   2.351   4.257   2.552 -1.1324 -0.0605 -0.3766
  684MOL0     H92287   2.405   4.400   2.276  0.8078 -1.0091 -1.8568
  684MOL0     H92288   2.400   4.225   2.310 -1.6978  2.4082 -3.1334
  684MOL0     H92289   2.575   4.442   2.438 -1.5858  0.4515  1.6763
  684MOL0     H92290   2.573   4.279   2.502  2.6647 -0.0775 -0.9301
  684MOL0     H92291   2.627   4.464   2.166 -0.5708  0.0467  1.1722
  684MOL0     H92292   2.756   4.279   1.910  1.4304 -1.1976 -0.6694
  684MOL0     H92293   2.799   4.450   1.945  3.3820  1.3813  1.0323
  684MOL0     H92294   3.032   4.330   2.028 -0.0200  0.2298 -0.0413
  684MOL0     H92295   2.986   4.208   1.916 -2.2583 -1.6880  2.4426
  684MOL0     H92296   3.045   4.501   1.871  0.4970 -0.8571  2.5147
  684MOL0     H92297   2.947   4.407   1.745  0.0928 -2.3660 -1.2620
  684MOL0     H92298   3.148   4.410   1.655 -0.4553 -0.7758 -0.7642
  684MOL0     H92299   3.119   4.246   1.701  0.6411  1.0323 -1.3220
  684MOL0     H92300   3.363   4.286   1.584  1.0806 -1.6970 -0.1285
  684MOL0     H92301   3.563   4.356   1.493  0.0643  0.6120 -0.0676
  684MOL0     H92302   4.005   4.504   1.492 -0.0467 -3.5861  2.7354
  684MOL0     H92303   4.226   4.610   1.431  0.4575 -0.5467 -0.1103
  684MOL0     H92304   4.365   4.924   1.745  2.8670  3.2238 -0.2848
  684MOL0     H92305   4.438   4.767   1.785  1.5218 -0.6625 -1.0653
  684MOL0     H92306   4.612   4.940   1.782  2.1708 -0.8657 -0.1131
  684MOL0     H92307   4.635   4.810   1.661 -2.5573 -1.9680 -0.7740
  684MOL0     H92308   4.563   4.948   1.472 -1.8471 -0.2372  0.3656
  684MOL0     H92309   4.552   5.090   1.586  2.4006  1.1639  0.1922
  684MOL0     H92310   4.800   4.945   1.512  0.4033  1.0715  0.5394
  684MOL0     H92311   4.781   5.064   1.632 -0.7267 -0.7642 -0.0253
  684MOL0     H92312   4.691   5.232   1.478 -1.5802 -1.8913  1.7052
  684MOL0     H92313   4.683   5.112   1.341 -1.8706 -5.0981  1.2696
  684MOL0     H92314   4.922   5.145   1.313 -3.9305 -3.1396 -1.0192
  684MOL0     H92315   4.842   5.296   1.339 -1.2042  0.5593  1.4964
  684MOL0     H92316   4.985   5.122   1.551  0.2372  0.0327 -0.6197
  684MOL0     H92317   4.938   5.285   1.593 -1.2435 -1.6626 -0.4342
  684MOL0     H92318   5.177   5.251   1.555  0.1886  2.5861 -0.1747
  684MOL0     H92319   5.139   5.186   1.396 -1.6217 -0.3811 -1.1121
  684MOL0     H92320   4.218   4.816   1.811  0.8318  2.6504 -2.4209
  684MOL0     H92321   4.002   4.704   1.863 -0.1471  0.6233 -0.4273
  684MOL0     H92322   3.671   4.526   1.886  1.4890 -5.1228  1.1472
  684MOL0     H92323   3.448   4.467   1.957  0.1979  0.1553  0.1559
  684MOL0     H92324   1.486   4.319   2.420 -1.5680  0.7897 -1.9413
  684MOL0     H92325   1.239   4.278   2.476 -2.2773 -0.3246  0.8452
  684MOL0     H92326   0.926   4.103   2.585 -1.0609  4.9910 -0.9672
  684MOL0     H92327   0.700   4.164   2.627  0.6412 -0.4493 -0.5724
  684MOL0     H92328   0.500   4.076   2.769 -1.7419 -0.4545  0.4672
  684MOL0     H92329   0.502   4.225   2.684  0.5607 -0.2491 -0.5703
  684MOL0     H92330   0.288   4.162   2.785 -0.4918  1.0184  0.1238
  684MOL0     H92331   0.338   4.327   2.814  3.2747  0.7552  0.0971
  684MOL0     H92332   0.241   4.238   3.016 -0.2055 -0.1156 -0.0484
  684MOL0     H92333   0.404   4.257   3.048 -1.9484  0.9846  2.3465
  684MOL0     H92334   0.328   4.001   2.912  1.6696 -0.5149 -0.7744
  684MOL0     H92335   0.455   4.031   3.030 -0.0348  2.4801 -0.1136
  684MOL0     H92336   0.135   3.932   3.282  1.0823 -0.3218  1.0526
  684MOL0     H92337   0.786   4.221   3.043 -0.7382  1.5388 -0.6431
  684MOL0     H92338   1.087   4.031   3.033  0.1096 -0.7177  2.1723
  684MOL0     H92339   1.119   4.215   3.026  1.3502 -1.9688 -2.0516
  684MOL0     H92340   0.999   4.129   3.129  1.9755 -2.5264  1.6564
  685MOL0     O92341   6.771   0.714   7.934 -0.1316  0.3572  0.2645
  685MOL0     C92342   6.799   0.598   7.971 -0.7669 -0.4881  0.5823
  685MOL0     O92343   6.914   0.529   7.954 -0.5929 -0.6706  0.7686
  685MOL0     C92344   7.032   0.601   7.924 -0.6177  0.4055  0.0080
  685MOL0     C92345   7.119   0.648   8.020  0.6022 -0.5001  0.0859
  685MOL0     C92346   7.227   0.729   7.985  0.0841 -0.0266  0.3360
  685MOL0     C92347   7.258   0.742   7.844 -0.1645 -0.3320  0.2631
  685MOL0     O92348   7.364   0.821   7.801 -0.0423 -0.6223  0.4732
  685MOL0     C92349   7.380   0.948   7.865  0.1127  0.3153 -0.7589
  685MOL0     C92350   7.454   1.046   7.759  0.4603  0.5711  0.1760
  685MOL0     C92351   7.595   1.008   7.721  0.7148  0.5778  0.2411
  685MOL0     C92352   7.693   1.115   7.663 -0.6005  0.0877  0.1959
  685MOL0     C92353   7.826   1.058   7.607  0.1797 -0.1400 -0.0701
  685MOL0     C92354   7.926   1.161   7.558 -0.6319 -0.2816  0.0828
  685MOL0     C92355   8.082   1.131   7.581  1.6092  0.3822  0.3541
  685MOL0     C92356   8.173   1.235   7.515  0.6333  0.6543  0.3827
  685MOL0     N92357   8.297   1.278   7.591  0.8318 -0.0783 -0.1410
  685MOL0     C92358   8.318   1.394   7.662 -0.3212 -0.8287  0.2802
  685MOL0     C92359   8.436   1.374   7.735 -0.3429 -1.1281 -0.3526
  685MOL0     C92360   8.520   1.452   7.837  0.0765 -0.7033  0.1521
  685MOL0     C92361   8.638   1.516   7.763 -0.6537  0.2265  0.4125
  685MOL0     C92362   8.717   1.625   7.841  0.1635  0.0974 -0.5490
  685MOL0     C92363   8.762   1.587   7.988  0.5139 -0.0478  0.0154
  685MOL0     O92364   8.834   1.692   8.050  0.0779  0.6970  0.0974
  685MOL0     C92365   8.966   1.702   8.053 -0.2176  0.6657 -0.8294
  685MOL0     C92366   9.055   1.628   7.971 -0.5120 -0.4232  0.6464
  685MOL0     C92367   9.190   1.672   7.959 -0.1198  0.0166 -0.3228
  685MOL0     C92368   9.243   1.767   8.055 -0.5991 -0.4622 -0.1943
  685MOL0     C92369   9.386   1.797   8.049 -0.5877 -0.7467  0.0354
  685MOL0     O92370   9.460   1.707   7.986 -0.5014 -0.3784  0.0145
  685MOL0     C92371   9.580   1.748   7.929  0.0170 -0.9210 -0.5300
  685MOL0     C92372   9.594   1.863   7.843  0.2299 -0.5854 -0.9801
  685MOL0     C92373   9.721   1.889   7.786 -0.7183  0.1217  0.0496
  685MOL0     C92374   9.831   1.806   7.811  0.2152 -0.3260  0.0936
  685MOL0     O92375   9.954   1.812   7.746 -0.7986  0.4194 -0.1229
  685MOL0     C92376  10.024   1.945   7.760 -0.5058  0.1647 -0.0423
  685MOL0     C92377  10.165   1.906   7.719 -0.1076 -0.9214  0.0981
  685MOL0     C92378  10.177   1.901   7.561  0.2980 -0.5175  0.4156
  685MOL0     C92379  10.324   1.889   7.533  0.5593 -0.4095  0.5410
  685MOL0     C92380  10.349   1.886   7.380 -0.5944 -0.2232 -0.2603
  685MOL0     C92381  10.502   1.899   7.365  0.4134  0.2404 -0.2349
  685MOL0     C92382  10.532   1.849   7.227 -0.0666  0.8548 -0.1968
  685MOL0     C92383  10.678   1.861   7.194 -0.2153 -1.2529  0.9837
  685MOL0    Cl92384  10.787   1.749   7.277  0.3111 -0.4025  0.2058
  685MOL0     C92385   9.813   1.700   7.897 -0.5590 -0.1597 -0.0779
  685MOL0     C92386   9.692   1.669   7.953  0.3688 -0.3062  0.0138
  685MOL0     O92387   9.427   1.902   8.086 -0.3745 -0.5662 -0.8003
  685MOL0     C92388   9.152   1.830   8.144  0.3199  0.2501  0.4299
  685MOL0     C92389   9.010   1.798   8.140  0.4950 -1.4236 -0.1513
  685MOL0     N92390   8.478   1.246   7.705  0.7695  0.2854 -0.5820
  685MOL0     N92391   8.407   1.192   7.614 -0.1796 -0.7887  0.2444
  685MOL0     C92392   7.198   0.665   7.750  0.4368  0.1640 -0.6988
  685MOL0     C92393   7.072   0.605   7.792 -0.0945 -0.7538  0.0433
  685MOL0     C92394   6.693   0.523   8.040  0.9591 -0.0705  1.1041
  685MOL0     C92395   6.719   0.510   8.174  0.7297  0.5302 -0.4957
  685MOL0     C92396   6.628   0.435   8.248  0.5567 -0.1619 -0.3160
  685MOL0     C92397   6.512   0.385   8.192 -0.2709 -0.0060 -0.5911
  685MOL0     O92398   6.415   0.324   8.270  0.2155 -0.3062  0.3616
  685MOL0     C92399   6.287   0.400   8.275 -0.1530 -0.2683  0.1710
  685MOL0     C92400   6.203   0.356   8.389  0.0621 -0.0110 -0.3925
  685MOL0     C92401   6.064   0.415   8.395 -0.2677 -0.9394  0.4293
  685MOL0     C92402   5.983   0.355   8.506  0.1740  0.8507  0.3390
  685MOL0     C92403   5.852   0.413   8.522 -0.4277 -0.2556 -0.6983
  685MOL0     C92404   5.736   0.455   8.527  0.1833 -0.3911  0.5389
  685MOL0     C92405   6.498   0.397   8.055 -0.3029  0.1992  0.2149
  685MOL0     C92406   6.584   0.462   7.973  0.6121  0.6794 -0.5918
  685MOL0     C92407   6.565   0.469   7.821  0.4810  0.1738 -0.0316
  685MOL0     H92408   7.098   0.625   8.124  2.4902  0.9174  0.8423
  685MOL0     H92409   7.281   0.780   8.064 -2.3930  1.5638  1.1231
  685MOL0     H92410   7.281   0.992   7.883  0.4233  1.0078 -0.7071
  685MOL0     H92411   7.430   0.932   7.961  1.1803  2.0984 -0.9656
  685MOL0     H92412   7.464   1.146   7.800  0.9012  0.4286  0.4218
  685MOL0     H92413   7.388   1.039   7.672  0.1915  0.6315  0.3715
  685MOL0     H92414   7.590   0.924   7.651  2.0545  0.8209 -0.1558
  685MOL0     H92415   7.643   0.966   7.810  2.8606  1.0182 -0.6625
  685MOL0     H92416   7.651   1.171   7.578 -1.0728 -1.6295 -0.7456
  685MOL0     H92417   7.715   1.186   7.743  0.8969  1.5057 -1.3878
  685MOL0     H92418   7.865   1.000   7.692 -4.5878 -2.6819  0.7580
  685MOL0     H92419   7.803   0.978   7.536  0.3384 -0.9685  0.7807
  685MOL0     H92420   7.910   1.181   7.452  0.5606 -1.2968 -0.3131
  685MOL0     H92421   7.920   1.254   7.616 -0.6254 -1.6325  2.3963
  685MOL0     H92422   8.111   1.031   7.547  2.2530 -0.4443  3.0964
  685MOL0     H92423   8.092   1.136   7.690 -2.7316 -0.4499  1.0120
  685MOL0     H92424   8.211   1.197   7.420  1.6452  1.1036  0.6055
  685MOL0     H92425   8.109   1.321   7.493  1.3766  0.9111 -0.8546
  685MOL0     H92426   8.263   1.487   7.673 -1.8618 -1.8122  1.2336
  685MOL0     H92427   8.462   1.525   7.893 -0.3890 -0.6193 -0.4356
  685MOL0     H92428   8.571   1.386   7.909  2.3491 -0.1728 -0.8938
  685MOL0     H92429   8.703   1.444   7.712  1.1482  1.8077  0.3695
  685MOL0     H92430   8.592   1.569   7.679  1.0351 -0.6786 -1.1490
  685MOL0     H92431   8.653   1.711   7.863  1.1602  0.6468  0.3025
  685MOL0     H92432   8.810   1.656   7.791  0.0213  0.8976 -0.3349
  685MOL0     H92433   8.814   1.490   7.993 -0.3264 -0.4661  1.2842
  685MOL0     H92434   8.669   1.565   8.042 -0.4996 -0.0483 -1.6518
  685MOL0     H92435   9.016   1.557   7.899  0.6523  0.3840 -0.8419
  685MOL0     H92436   9.252   1.621   7.886  1.1933  1.7172 -0.4538
  685MOL0     H92437   9.502   1.913   7.815  1.0106  0.2271 -2.1493
  685MOL0     H92438   9.742   1.973   7.720  2.4332  1.2120  2.2160
  685MOL0     H92439   9.983   2.026   7.699  0.4743 -0.3599 -1.4486
  685MOL0     H92440  10.036   1.966   7.866 -1.0730 -3.7276  0.9659
  685MOL0     H92441  10.231   1.977   7.770 -1.9540  0.2715  0.9070
  685MOL0     H92442  10.192   1.806   7.754 -0.2204 -1.4825 -1.3556
  685MOL0     H92443  10.123   1.815   7.522 -0.6925  0.5930 -0.7597
  685MOL0     H92444  10.140   1.990   7.509 -0.3714 -1.3323 -0.5349
  685MOL0     H92445  10.358   1.796   7.579 -1.2933 -1.1867  0.4323
  685MOL0     H92446  10.367   1.978   7.581 -2.4826  1.3200  0.3532
  685MOL0     H92447  10.286   1.951   7.318 -2.1290 -2.0285 -0.6877
  685MOL0     H92448  10.321   1.786   7.345  0.6250 -0.7445  0.1809
  685MOL0     H92449  10.534   2.003   7.375 -0.0986  0.2179  2.4123
  685MOL0     H92450  10.556   1.846   7.443 -0.2059  0.9822  0.7191
  685MOL0     H92451  10.483   1.914   7.154 -0.8699  0.6500  0.1409
  685MOL0     H92452  10.502   1.745   7.213  2.1529  0.4947 -3.6956
  685MOL0     H92453  10.689   1.858   7.085  5.4292  1.4055  1.1252
  685MOL0     H92454  10.715   1.955   7.235  3.6164 -1.4478 -1.5434
  685MOL0     H92455   9.899   1.640   7.925  1.1398  2.0115 -0.3478
  685MOL0     H92456   9.679   1.582   8.017  0.6267  0.0534  0.5651
  685MOL0     H92457   9.194   1.898   8.217  4.1425 -0.1770 -1.1534
  685MOL0     H92458   8.947   1.860   8.203  1.1045  0.6319 -1.4810
  685MOL0     H92459   7.228   0.670   7.645 -3.9819 -1.0643 -2.2604
  685MOL0     H92460   7.014   0.571   7.707 -0.5458  1.9991 -0.8528
  685MOL0     H92461   6.802   0.567   8.216  0.0654  1.3379 -0.2485
  685MOL0     H92462   6.629   0.437   8.357 -2.8131 -0.1646 -0.1836
  685MOL0     H92463   6.224   0.393   8.186 -1.3131 -1.9742  1.0863
  685MOL0     H92464   6.309   0.508   8.278 -0.2290 -0.0377 -3.1957
  685MOL0     H92465   6.254   0.399   8.476  0.9013 -1.0786 -0.3440
  685MOL0     H92466   6.205   0.248   8.400 -1.5975 -0.2780 -2.2495
  685MOL0     H92467   6.013   0.402   8.299  1.8998  2.8883 -1.4823
  685MOL0     H92468   6.072   0.523   8.414  2.4140 -1.0821  0.3746
  685MOL0     H92469   5.970   0.248   8.483  2.4481  1.4400 -5.5797
  685MOL0     H92470   6.039   0.370   8.598 -0.5925  1.4554  0.7157
  685MOL0     H92471   5.634   0.488   8.531  0.7858  1.4920  1.5194
  685MOL0     H92472   6.421   0.337   8.006  0.0209 -0.8722  0.9760
  685MOL0     H92473   6.480   0.531   7.791  1.2964 -0.7381 -5.1846
  685MOL0     H92474   6.655   0.512   7.775  0.7052 -0.4690 -0.2007
  685MOL0     H92475   6.559   0.368   7.779  0.0248 -1.3357  3.3272
  686MOL0     O92476   8.248   5.173   7.377 -0.5700  0.1531 -0.3312
  686MOL0     C92477   8.128   5.142   7.369  0.7718 -0.6884 -0.8661
  686MOL0     O92478   8.027   5.242   7.367  1.2224 -0.1754  0.0681
  686MOL0     C92479   8.065   5.369   7.407  0.5874 -0.5542  0.5161
  686MOL0     C92480   8.029   5.404   7.540 -0.1813  0.5110  0.2785
  686MOL0     C92481   8.075   5.528   7.577 -0.2765 -0.8534 -0.5567
  686MOL0     C92482   8.142   5.616   7.496 -0.0415 -0.2319 -1.0459
  686MOL0     O92483   8.180   5.745   7.535 -0.7409  0.1997  1.2023
  686MOL0     C92484   8.100   5.812   7.630 -0.0837 -0.2083 -0.5990
  686MOL0     C92485   8.145   5.956   7.657 -0.4576 -0.4927  0.4351
  686MOL0     C92486   8.072   6.038   7.552  0.1031 -0.5170 -0.8391
  686MOL0     C92487   8.129   6.186   7.555  0.4073  0.0117  0.4403
  686MOL0     C92488   8.042   6.267   7.467 -0.9284 -0.1418  0.1973
  686MOL0     C92489   8.100   6.411   7.473  0.8592 -0.5512  0.5876
  686MOL0     C92490   8.002   6.515   7.400  0.0049 -0.5205  0.0139
  686MOL0     C92491   7.875   6.555   7.483  0.2598  0.3357 -0.3552
  686MOL0     N92492   7.774   6.445   7.453  0.6099  0.1625 -0.2189
  686MOL0     C92493   7.720   6.409   7.324  0.5447  0.1098 -0.5625
  686MOL0     C92494   7.621   6.322   7.353 -0.7918  0.0184 -0.3208
  686MOL0     C92495   7.555   6.227   7.259  0.9051  0.2887  0.1926
  686MOL0     C92496   7.407   6.176   7.294 -0.3964  0.6023 -0.2112
  686MOL0     C92497   7.359   6.059   7.212 -0.4135  0.4006  0.9327
  686MOL0     C92498   7.436   5.923   7.229  0.5273 -0.1292  0.6356
  686MOL0     O92499   7.444   5.872   7.362 -0.3407  0.3657 -0.0723
  686MOL0     C92500   7.332   5.805   7.416 -0.6471  0.8784  0.3954
  686MOL0     C92501   7.354   5.756   7.539  0.4423  0.3998 -1.2952
  686MOL0     C92502   7.255   5.683   7.610  0.7489 -0.3069 -0.4521
  686MOL0     C92503   7.132   5.655   7.554 -0.0022 -0.7356  0.2816
  686MOL0     C92504   7.027   5.594   7.643 -0.3463  0.9693  0.2034
  686MOL0     O92505   6.912   5.562   7.575  0.3253  0.6230  0.0942
  686MOL0     C92506   6.794   5.532   7.630 -0.1692  0.5932 -0.4854
  686MOL0     C92507   6.684   5.536   7.539 -0.0406  0.9418 -0.8734
  686MOL0     C92508   6.551   5.505   7.587 -0.2365 -0.2423 -0.0367
  686MOL0     C92509   6.535   5.468   7.717 -0.6859  0.6760  0.5027
  686MOL0     O92510   6.410   5.451   7.759  0.3324 -0.2155 -0.0099
  686MOL0     C92511   6.380   5.504   7.880  0.4761 -0.1722  0.4066
  686MOL0     C92512   6.232   5.513   7.887  0.3995 -0.4731 -0.1771
  686MOL0     C92513   6.186   5.551   8.030 -0.4621 -0.1100 -0.2673
  686MOL0     C92514   6.040   5.587   8.039  1.0679 -0.1845 -0.0520
  686MOL0     C92515   5.978   5.606   8.184  0.7080  0.0787  0.1403
  686MOL0     C92516   6.001   5.475   8.271 -0.6885  0.4789 -0.2305
  686MOL0     C92517   5.930   5.497   8.402 -0.3059 -0.2653 -0.2432
  686MOL0     C92518   5.953   5.379   8.495 -0.3899  0.2410 -0.2202
  686MOL0    Cl92519   6.116   5.380   8.585 -0.0916 -0.5032  0.2104
  686MOL0     C92520   6.645   5.452   7.802  0.4402  0.4444  1.0649
  686MOL0     C92521   6.771   5.500   7.761  0.2208 -0.5677  0.1403
  686MOL0     O92522   7.050   5.582   7.761 -0.0861  0.0012  0.5576
  686MOL0     C92523   7.114   5.702   7.420  0.1420  0.3196 -0.0542
  686MOL0     C92524   7.214   5.778   7.352  0.8680  0.9190 -0.1444
  686MOL0     N92525   7.616   6.307   7.493  0.7544  0.6555 -0.2577
  686MOL0     N92526   7.712   6.371   7.548  0.3962  0.2443  0.2114
  686MOL0     C92527   8.154   5.589   7.358 -0.3294  0.0985 -0.0313
  686MOL0     C92528   8.120   5.461   7.318  0.2251  0.1302  0.0586
  686MOL0     C92529   8.075   5.008   7.389 -0.5068  0.9548  0.4109
  686MOL0     C92530   7.964   4.996   7.471 -0.9013 -0.6978  0.3348
  686MOL0     C92531   7.911   4.875   7.504  0.0395 -0.4028 -0.0730
  686MOL0     C92532   7.946   4.760   7.447 -0.2861  0.0581  0.0622
  686MOL0     O92533   7.887   4.647   7.500 -0.4454 -0.3347  0.5437
  686MOL0     C92534   7.875   4.529   7.406 -0.2389 -0.9327 -0.6574
  686MOL0     C92535   7.794   4.421   7.485 -0.3466  0.1935  0.2064
  686MOL0     C92536   7.646   4.468   7.513 -0.5565  0.3873 -0.7630
  686MOL0     C92537   7.568   4.497   7.390  0.7190  0.3066  0.1980
  686MOL0     C92538   7.523   4.386   7.312  0.3228 -0.0610  0.1708
  686MOL0     C92539   7.505   4.281   7.256  0.2358  0.1892 -0.4423
  686MOL0     C92540   8.042   4.764   7.348  0.4386  0.8054  0.1667
  686MOL0     C92541   8.115   4.879   7.322  0.5051 -0.0950 -0.9986
  686MOL0     C92542   8.216   4.880   7.207 -0.0023 -0.1379  0.6487
  686MOL0     H92543   7.986   5.333   7.609  2.5083 -2.8065 -1.1887
  686MOL0     H92544   8.056   5.555   7.680  0.7154 -0.2956 -0.5072
  686MOL0     H92545   7.994   5.811   7.606 -0.2008 -1.7731 -0.1268
  686MOL0     H92546   8.127   5.758   7.722  0.7870  0.5970 -0.3666
  686MOL0     H92547   8.251   5.971   7.635 -0.9435  1.9722 -0.5430
  686MOL0     H92548   8.118   5.992   7.756  2.3133  0.4582  0.9397
  686MOL0     H92549   7.963   6.023   7.554  0.1440 -0.7700 -0.0463
  686MOL0     H92550   8.100   5.990   7.458 -2.7809 -0.4955 -1.8208
  686MOL0     H92551   8.131   6.226   7.657  0.8639 -0.3568  0.5781
  686MOL0     H92552   8.228   6.187   7.508  0.4146  1.7145  0.4214
  686MOL0     H92553   8.046   6.223   7.366  1.7202 -0.4176  0.3445
  686MOL0     H92554   7.938   6.249   7.494 -1.2922 -0.7179 -1.4567
  686MOL0     H92555   8.101   6.442   7.577  0.0620  0.2194  0.3748
  686MOL0     H92556   8.204   6.415   7.439  0.1856  1.9413 -1.4948
  686MOL0     H92557   7.981   6.478   7.299  2.4517  2.7339 -1.8889
  686MOL0     H92558   8.067   6.603   7.395 -0.3324 -0.2517  0.2631
  686MOL0     H92559   7.896   6.570   7.590 -0.5748  4.0592 -0.5758
  686MOL0     H92560   7.829   6.650   7.453  1.7400  0.6755 -1.7064
  686MOL0     H92561   7.756   6.433   7.225 -1.2362 -1.8084 -1.7394
  686MOL0     H92562   7.547   6.285   7.167  0.2840  1.4061  0.9313
  686MOL0     H92563   7.628   6.147   7.246  0.5419  0.1665 -1.2730
  686MOL0     H92564   7.415   6.150   7.400 -0.1227 -1.9157 -0.7959
  686MOL0     H92565   7.341   6.264   7.296 -1.9164 -0.4700 -0.9546
  686MOL0     H92566   7.347   6.095   7.109 -2.5418 -1.1666  0.5561
  686MOL0     H92567   7.257   6.031   7.242  0.2365 -0.7495  2.2097
  686MOL0     H92568   7.535   5.933   7.182 -0.7651  1.8608 -1.9136
  686MOL0     H92569   7.395   5.848   7.162  0.2497  0.3321  0.2784
  686MOL0     H92570   7.445   5.777   7.595 -0.5314  1.2553 -0.0006
  686MOL0     H92571   7.275   5.656   7.713  2.0652 -0.8607 -0.8270
  686MOL0     H92572   6.689   5.555   7.432 -3.0090 -1.4218 -1.5738
  686MOL0     H92573   6.466   5.509   7.520 -0.9286 -0.8942  0.7845
  686MOL0     H92574   6.426   5.452   7.965  1.9441 -0.8721 -0.7787
  686MOL0     H92575   6.419   5.606   7.890 -3.6060  1.4956  1.2851
  686MOL0     H92576   6.203   5.592   7.816  3.4103 -0.5047 -1.6056
  686MOL0     H92577   6.187   5.418   7.856  0.7511 -0.4866 -0.6615
  686MOL0     H92578   6.226   5.478   8.101  2.1096  2.0832  0.7049
  686MOL0     H92579   6.235   5.643   8.063  2.3572 -0.1247 -3.7579
  686MOL0     H92580   5.979   5.502   8.006 -0.9786  0.3150  2.1114
  686MOL0     H92581   6.018   5.680   7.986 -1.4450 -0.9032 -0.4179
  686MOL0     H92582   5.870   5.623   8.178  0.7037  0.5330  1.2202
  686MOL0     H92583   6.022   5.684   8.247  4.8221  1.0151 -3.4236
  686MOL0     H92584   5.952   5.391   8.221 -0.2937 -0.3290  0.7091
  686MOL0     H92585   6.107   5.451   8.280 -1.1134 -0.7084  2.5123
  686MOL0     H92586   5.821   5.503   8.391 -0.7521 -1.1771  2.6963
  686MOL0     H92587   5.961   5.588   8.454  0.0175  0.3696 -1.5201
  686MOL0     H92588   5.877   5.388   8.573 -0.4880  3.1393 -0.5473
  686MOL0     H92589   5.934   5.282   8.450 -3.6201 -0.8857  3.1507
  686MOL0     H92590   6.629   5.413   7.901  0.2729 -0.7557  0.5772
  686MOL0     H92591   6.853   5.489   7.832  0.7936  2.2701  0.0189
  686MOL0     H92592   7.015   5.699   7.374 -0.6169 -0.2751  1.5671
  686MOL0     H92593   7.196   5.809   7.249 -1.2917  0.5022  0.0560
  686MOL0     H92594   8.192   5.659   7.285  1.7978 -1.5662 -0.6635
  686MOL0     H92595   8.132   5.417   7.220  1.2948 -2.7842  1.3756
  686MOL0     H92596   7.928   5.083   7.526 -0.2167 -1.9517  2.9612
  686MOL0     H92597   7.830   4.877   7.576 -0.0007 -0.5495 -0.1137
  686MOL0     H92598   7.972   4.485   7.379  0.7763  0.6103  0.2914
  686MOL0     H92599   7.826   4.556   7.312 -1.7567 -1.3641 -0.0154
  686MOL0     H92600   7.847   4.404   7.579 -2.4639 -0.1312  1.4091
  686MOL0     H92601   7.795   4.324   7.435 -4.0568 -0.0425  0.2958
  686MOL0     H92602   7.652   4.558   7.575 -2.6488 -0.5553  0.9333
  686MOL0     H92603   7.599   4.389   7.573  0.6551  0.3405  0.1636
  686MOL0     H92604   7.481   4.542   7.438  1.3613 -0.0333  1.7791
  686MOL0     H92605   7.610   4.560   7.312  2.0629 -2.1936 -1.2594
  686MOL0     H92606   7.489   4.189   7.204  1.3365  0.6218 -1.5940
  686MOL0     H92607   8.072   4.675   7.294 -2.3191 -1.7149  2.5127
  686MOL0     H92608   8.161   4.896   7.113 -0.7426  1.6368  1.3361
  686MOL0     H92609   8.287   4.960   7.229  1.3964 -0.2079 -2.9693
  686MOL0     H92610   8.267   4.786   7.184 -1.4110 -0.7226 -0.2670
  687MOL0     O92611   1.775   5.294   3.441 -0.0930 -0.3252 -1.1997
  687MOL0     C92612   1.727   5.401   3.463 -0.1475 -0.2292 -0.0724
  687MOL0     O92613   1.788   5.525   3.462 -0.0734 -0.3423  0.6603
  687MOL0     C92614   1.916   5.534   3.416  0.2856  0.7065  0.0492
  687MOL0     C92615   1.971   5.465   3.306  0.3008 -0.1014 -0.2370
  687MOL0     C92616   2.099   5.495   3.260  0.4991  0.6153 -0.0436
  687MOL0     C92617   2.180   5.593   3.318  0.1227  0.1320  0.2141
  687MOL0     O92618   2.306   5.625   3.263 -0.3670 -0.0074 -0.4652
  687MOL0     C92619   2.376   5.742   3.311  0.6281  0.2924 -0.6072
  687MOL0     C92620   2.519   5.735   3.273  0.2429 -0.0147  0.0664
  687MOL0     C92621   2.584   5.864   3.318 -0.6237 -1.1568 -0.8532
  687MOL0     C92622   2.552   5.911   3.464  0.8297 -0.0391  0.5959
  687MOL0     C92623   2.625   6.047   3.491 -0.1328 -0.0668 -0.2208
  687MOL0     C92624   2.603   6.099   3.635  0.2135 -1.1827 -0.4175
  687MOL0     C92625   2.455   6.123   3.671  0.0179 -0.3847 -0.1772
  687MOL0     C92626   2.389   6.228   3.580  0.0135  0.4188 -0.4431
  687MOL0     N92627   2.472   6.354   3.576  0.3683 -0.1965  0.5968
  687MOL0     C92628   2.560   6.380   3.475  0.1727 -1.2926  0.4520
  687MOL0     C92629   2.621   6.498   3.511  0.5017 -0.2885  0.9073
  687MOL0     C92630   2.724   6.567   3.440 -0.3713 -0.9193  0.5150
  687MOL0     C92631   2.849   6.536   3.511 -0.1782 -0.5784 -0.0422
  687MOL0     C92632   2.970   6.620   3.468 -0.1290  0.1532 -0.0648
  687MOL0     C92633   3.092   6.555   3.533 -0.0348  1.0506  0.1153
  687MOL0     O92634   3.100   6.553   3.673  0.1996  0.4069  0.0267
  687MOL0     C92635   3.217   6.527   3.742  0.1119 -0.6503 -0.4866
  687MOL0     C92636   3.206   6.535   3.884  0.3531 -0.1723 -0.3834
  687MOL0     C92637   3.312   6.494   3.963 -0.7915  0.6247 -0.0758
  687MOL0     C92638   3.433   6.454   3.901  0.4232  0.1029 -0.3121
  687MOL0     C92639   3.549   6.412   3.984  0.1984  0.2033 -0.2248
  687MOL0     O92640   3.511   6.378   4.113 -0.7565 -0.2872 -0.0659
  687MOL0     C92641   3.593   6.324   4.206  0.9139 -0.2693 -0.4703
  687MOL0     C92642   3.727   6.360   4.203 -0.1766 -0.0393  0.5997
  687MOL0     C92643   3.812   6.304   4.298 -0.7066  0.9956  0.3940
  687MOL0     C92644   3.769   6.226   4.411  0.2367  0.8584  0.2380
  687MOL0     O92645   3.862   6.188   4.507  0.4325  0.5086 -0.1406
  687MOL0     C92646   3.823   6.084   4.593  0.1628 -0.4333 -1.0600
  687MOL0     C92647   3.948   6.014   4.656 -0.0158  0.2078  0.6468
  687MOL0     C92648   4.019   5.928   4.553  0.1756 -0.5842 -0.8352
  687MOL0     C92649   4.145   5.986   4.494  0.5742 -0.1175  0.0183
  687MOL0     C92650   4.194   5.912   4.367 -0.1308  0.2900  0.5038
  687MOL0     C92651   4.239   5.767   4.389  0.2855 -0.7029 -0.0037
  687MOL0     C92652   4.255   5.700   4.247 -0.1768 -0.9518 -0.2566
  687MOL0     C92653   4.336   5.573   4.247 -0.2127  0.8498 -0.2109
  687MOL0    Cl92654   4.242   5.442   4.340  0.3220 -0.0455 -0.5554
  687MOL0     C92655   3.630   6.214   4.424 -0.0300  0.4037 -0.6509
  687MOL0     C92656   3.546   6.257   4.318  0.1288  0.8554  0.6242
  687MOL0     O92657   3.660   6.394   3.927  0.7937 -0.0146  0.2004
  687MOL0     C92658   3.451   6.460   3.760 -0.8844  0.1386 -0.7682
  687MOL0     C92659   3.343   6.489   3.685  0.2290  0.2640  0.0811
  687MOL0     N92660   2.572   6.532   3.638 -0.1254  0.2810 -0.2946
  687MOL0     N92661   2.481   6.445   3.671  0.7559 -0.4423  0.3351
  687MOL0     C92662   2.120   5.661   3.426 -0.5225 -0.0601 -0.2849
  687MOL0     C92663   1.992   5.634   3.475 -0.0335 -0.2441 -0.1849
  687MOL0     C92664   1.592   5.398   3.512 -0.2939  0.3951  0.4869
  687MOL0     C92665   1.547   5.505   3.589 -0.4377  0.7363  0.1528
  687MOL0     C92666   1.416   5.514   3.645  0.6916  0.7333  0.4888
  687MOL0     C92667   1.324   5.411   3.608  0.1567  0.0751 -1.0188
  687MOL0     O92668   1.194   5.426   3.648 -0.3183  0.0749  0.3102
  687MOL0     C92669   1.145   5.313   3.726 -0.1536 -0.5900 -0.5162
  687MOL0     C92670   1.145   5.377   3.871  1.1781  0.5757  0.6385
  687MOL0     C92671   1.064   5.509   3.867  0.1294  0.0588  0.4948
  687MOL0     C92672   1.028   5.549   4.005 -0.7891 -0.0231 -0.0040
  687MOL0     C92673   0.933   5.658   4.024 -0.5440  0.0585 -0.7017
  687MOL0     C92674   0.853   5.744   4.040  0.9295 -0.1878  0.2512
  687MOL0     C92675   1.368   5.300   3.540  0.0362  0.3543  0.3613
  687MOL0     C92676   1.496   5.294   3.481  0.5775  0.2002 -1.8235
  687MOL0     C92677   1.519   5.180   3.382  0.0210  0.2315 -0.8911
  687MOL0     H92678   1.910   5.388   3.259 -0.3131  0.4229 -0.3140
  687MOL0     H92679   2.142   5.440   3.177  0.5887  0.1876  0.2908
  687MOL0     H92680   2.333   5.836   3.275  0.3147 -0.3476 -1.9848
  687MOL0     H92681   2.363   5.744   3.420  2.2024  3.3506 -0.3877
  687MOL0     H92682   2.530   5.723   3.165  0.1193 -0.2862  0.0815
  687MOL0     H92683   2.567   5.644   3.312  0.5417  0.4822  0.8891
  687MOL0     H92684   2.550   5.942   3.250 -0.9795 -1.6578 -1.2600
  687MOL0     H92685   2.692   5.846   3.319 -0.3835 -1.6471  5.4036
  687MOL0     H92686   2.445   5.932   3.471  0.6860  1.0771 -2.9677
  687MOL0     H92687   2.582   5.837   3.539  2.6472 -0.0152 -0.0595
  687MOL0     H92688   2.731   6.021   3.480 -0.2132 -0.2789 -0.5151
  687MOL0     H92689   2.595   6.121   3.416 -0.7452 -1.1191 -1.0365
  687MOL0     H92690   2.625   6.024   3.710 -1.3258  0.5399  1.9175
  687MOL0     H92691   2.655   6.193   3.653 -2.9090  0.5029  0.7346
  687MOL0     H92692   2.457   6.157   3.775 -0.7085 -0.2440 -0.2114
  687MOL0     H92693   2.399   6.029   3.670  0.2863 -0.5878  1.0698
  687MOL0     H92694   2.382   6.192   3.477 -1.4254  0.8183 -0.5055
  687MOL0     H92695   2.291   6.255   3.621  0.7197 -0.4642  1.9813
  687MOL0     H92696   2.571   6.318   3.387 -0.8854 -0.4143 -0.3376
  687MOL0     H92697   2.726   6.529   3.337  1.2914 -0.7983  0.4802
  687MOL0     H92698   2.707   6.675   3.429 -0.0252 -0.5561  2.9875
  687MOL0     H92699   2.834   6.529   3.619 -2.5717  3.3677  0.1083
  687MOL0     H92700   2.870   6.436   3.473 -2.3031 -0.8723 -0.5694
  687MOL0     H92701   2.959   6.724   3.500  1.2754  0.4301 -0.3982
  687MOL0     H92702   2.982   6.622   3.360 -1.0726 -2.5526 -0.2911
  687MOL0     H92703   3.169   6.616   3.485  0.0105 -0.8532 -2.4217
  687MOL0     H92704   3.094   6.451   3.500 -0.4009  0.7578  0.9832
  687MOL0     H92705   3.113   6.559   3.935  0.1394 -1.3297 -0.1900
  687MOL0     H92706   3.295   6.474   4.069  0.2289 -1.3413 -0.2354
  687MOL0     H92707   3.773   6.423   4.128  1.5860  1.5362  2.8640
  687MOL0     H92708   3.917   6.331   4.300  0.0132 -1.5901  2.3437
  687MOL0     H92709   3.760   6.117   4.676  1.2178  1.8260 -1.0824
  687MOL0     H92710   3.765   6.007   4.540 -3.2540  0.6121  0.8598
  687MOL0     H92711   4.028   6.083   4.688 -0.4518  0.5102  1.0987
  687MOL0     H92712   3.924   5.953   4.743  0.6292 -0.1987  0.5476
  687MOL0     H92713   4.055   5.837   4.603 -0.3118  0.5768  1.7545
  687MOL0     H92714   3.942   5.900   4.482  0.1408 -0.2529 -0.9285
  687MOL0     H92715   4.218   6.001   4.573  2.7283  2.3594 -2.2547
  687MOL0     H92716   4.118   6.087   4.461 -0.0182  0.4068  1.9855
  687MOL0     H92717   4.267   5.977   4.320  0.4650 -0.3621  0.5134
  687MOL0     H92718   4.109   5.922   4.299 -0.1480  1.0735  0.6314
  687MOL0     H92719   4.328   5.774   4.452 -0.1396 -0.6672  0.6038
  687MOL0     H92720   4.163   5.704   4.437  1.0389 -1.8948 -0.3395
  687MOL0     H92721   4.308   5.773   4.186 -0.9964 -1.0261 -1.0790
  687MOL0     H92722   4.159   5.685   4.196 -0.5689 -0.5832  0.3646
  687MOL0     H92723   4.349   5.551   4.141 -2.5782  1.5338 -0.7177
  687MOL0     H92724   4.429   5.597   4.300 -1.0278 -0.6324  2.0505
  687MOL0     H92725   3.579   6.178   4.513  1.2767 -2.0457 -0.8214
  687MOL0     H92726   3.438   6.251   4.325 -0.0964 -1.1969 -2.4635
  687MOL0     H92727   3.547   6.435   3.718 -1.0418 -1.4888 -0.2370
  687MOL0     H92728   3.351   6.483   3.577 -1.4531  2.5323 -0.2622
  687MOL0     H92729   2.174   5.748   3.462  0.3288  0.2639 -2.2301
  687MOL0     H92730   1.952   5.690   3.559  0.7723  1.5636 -0.9439
  687MOL0     H92731   1.621   5.581   3.611  1.3603 -0.2506 -2.1130
  687MOL0     H92732   1.387   5.591   3.715 -0.4984 -1.1347  2.1601
  687MOL0     H92733   1.216   5.231   3.735  0.3559 -0.0947  0.1306
  687MOL0     H92734   1.048   5.292   3.681  0.6860 -2.0800 -1.7117
  687MOL0     H92735   1.249   5.397   3.897  0.7862 -0.1445  3.0297
  687MOL0     H92736   1.086   5.307   3.931  0.4513 -0.6471 -1.4003
  687MOL0     H92737   0.972   5.495   3.810  0.8056  1.9079 -1.1488
  687MOL0     H92738   1.116   5.594   3.823 -0.2030  0.1529  0.2833
  687MOL0     H92739   0.970   5.468   4.051  1.0506 -0.3475  1.8746
  687MOL0     H92740   1.119   5.573   4.061  0.3467 -1.1464 -1.2987
  687MOL0     H92741   0.799   5.836   4.055  1.3686 -0.3025  3.0470
  687MOL0     H92742   1.296   5.222   3.518 -3.4645  3.6616 -1.1889
  687MOL0     H92743   1.430   5.117   3.370 -1.0056  1.1449  1.3572
  687MOL0     H92744   1.542   5.230   3.287 -0.4490  0.2870 -0.9798
  687MOL0     H92745   1.598   5.111   3.412  1.2201  2.6336  2.0181
  688MOL0     O92746   0.704   0.132   2.258  0.3866 -0.0928  0.7031
  688MOL0     C92747   0.719   0.248   2.215 -0.3250 -0.2034 -0.2866
  688MOL0     O92748   0.808   0.291   2.113 -0.9297  0.5770  0.3826
  688MOL0     C92749   0.888   0.203   2.048  0.5267 -0.5439 -0.8989
  688MOL0     C92750   0.896   0.214   1.907  0.4388  0.1644 -0.2736
  688MOL0     C92751   0.968   0.115   1.840 -0.2661  0.1919  0.5178
  688MOL0     C92752   1.027   0.004   1.907 -0.3397  0.5211 -1.0494
  688MOL0     O92753   1.081  -0.084   1.820  0.1224 -0.5457 -1.0258
  688MOL0     C92754   1.093  -0.213   1.878 -0.2825  0.6353  0.4181
  688MOL0     C92755   1.128  -0.314   1.763  0.3179 -0.7591 -0.3957
  688MOL0     C92756   1.150  -0.455   1.824 -0.8586 -1.1254 -0.0037
  688MOL0     C92757   1.292  -0.464   1.881  0.2658  0.7652  0.0819
  688MOL0     C92758   1.329  -0.614   1.896  0.3980 -0.5011  0.9443
  688MOL0     C92759   1.474  -0.611   1.944 -0.0980 -0.5338 -0.8032
  688MOL0     C92760   1.526  -0.755   1.962  1.1059 -0.0953 -0.3883
  688MOL0     C92761   1.584  -0.809   1.832  0.1641 -0.0524  0.1102
  688MOL0     N92762   1.661  -0.932   1.863 -0.1135 -0.3855  0.4712
  688MOL0     C92763   1.744  -0.942   1.973 -0.1060  1.3534  0.5470
  688MOL0     C92764   1.803  -1.063   1.953 -0.6381 -0.4144  0.0319
  688MOL0     C92765   1.921  -1.116   2.028 -0.1116 -0.5747  0.5369
  688MOL0     C92766   2.034  -1.008   2.033  0.4335 -0.0240 -0.1235
  688MOL0     C92767   2.163  -1.041   2.110  0.6760 -0.6007 -0.2729
  688MOL0     C92768   2.255  -0.917   2.119 -0.0802  0.7494 -0.2407
  688MOL0     O92769   2.378  -0.939   2.192 -0.6764 -0.2016 -0.3584
  688MOL0     C92770   2.483  -0.853   2.168  0.3352  0.2364  0.3808
  688MOL0     C92771   2.612  -0.894   2.206 -0.1552  0.5835 -0.2220
  688MOL0     C92772   2.721  -0.812   2.210 -0.1096  0.1262  1.1318
  688MOL0     C92773   2.714  -0.684   2.150  0.2231 -1.1791 -0.3081
  688MOL0     C92774   2.827  -0.601   2.125  0.1864 -0.7331 -0.7993
  688MOL0     O92775   2.945  -0.666   2.125  0.7096 -0.6309  0.3761
  688MOL0     C92776   3.066  -0.592   2.118  0.2343 -0.4401 -0.6466
  688MOL0     C92777   3.185  -0.672   2.146  0.3180 -0.3418 -0.4706
  688MOL0     C92778   3.315  -0.615   2.133 -0.4370  0.2704 -0.0541
  688MOL0     C92779   3.334  -0.480   2.107 -0.0573  0.3035 -0.2372
  688MOL0     O92780   3.450  -0.414   2.118 -0.5704  1.0032  0.9090
  688MOL0     C92781   3.566  -0.498   2.123 -1.0079  0.3955 -0.1979
  688MOL0     C92782   3.692  -0.421   2.113 -0.0822  0.3359 -0.0919
  688MOL0     C92783   3.711  -0.332   2.228  1.5378 -0.0895 -0.6255
  688MOL0     C92784   3.849  -0.264   2.240 -0.7216  0.3849  0.1560
  688MOL0     C92785   3.972  -0.355   2.266  0.5267  0.2737 -0.1930
  688MOL0     C92786   3.990  -0.394   2.413 -0.5096 -0.4183 -0.2409
  688MOL0     C92787   4.116  -0.489   2.436  0.3551  0.2470  0.2137
  688MOL0     C92788   4.249  -0.414   2.419 -0.1644  0.4874  0.6875
  688MOL0    Cl92789   4.259  -0.272   2.530  0.1839  0.1664 -0.0763
  688MOL0     C92790   3.217  -0.401   2.087 -0.0279 -0.3082 -0.1883
  688MOL0     C92791   3.093  -0.458   2.081  0.5725 -0.5147 -0.3126
  688MOL0     O92792   2.805  -0.477   2.108  0.5326  0.2640 -0.5092
  688MOL0     C92793   2.592  -0.644   2.103  0.1806 -0.9229 -0.6580
  688MOL0     C92794   2.475  -0.725   2.111  0.2477  0.8064  0.1667
  688MOL0     N92795   1.748  -1.127   1.845 -0.4459 -0.3031  0.5773
  688MOL0     N92796   1.668  -1.047   1.783  0.1721  0.1705 -0.1118
  688MOL0     C92797   1.007  -0.004   2.047 -0.0359 -0.3774 -0.6406
  688MOL0     C92798   0.937   0.097   2.114  0.1708 -0.4439 -0.6101
  688MOL0     C92799   0.644   0.348   2.294  0.4408 -0.5458 -0.0476
  688MOL0     C92800   0.500   0.340   2.285  0.1938  0.0473  0.9389
  688MOL0     C92801   0.421   0.430   2.354  0.5330  0.0087 -0.3074
  688MOL0     C92802   0.473   0.541   2.417 -0.2908 -0.2817  0.9632
  688MOL0     O92803   0.391   0.633   2.481 -0.6887  0.0977  0.5177
  688MOL0     C92804   0.451   0.748   2.535  0.2092 -0.1040  0.4506
  688MOL0     C92805   0.344   0.819   2.606  0.2538 -0.1034 -0.3536
  688MOL0     C92806   0.393   0.954   2.661  0.1829  0.2444  0.0965
  688MOL0     C92807   0.302   1.008   2.765  0.2873  0.2362  0.0510
  688MOL0     C92808   0.364   1.119   2.832 -0.2635  0.4468 -0.8648
  688MOL0     C92809   0.407   1.221   2.878  0.3707 -0.5185  0.1021
  688MOL0     C92810   0.616   0.557   2.420  0.1003 -0.2965 -0.4692
  688MOL0     C92811   0.699   0.460   2.356 -0.9220 -0.7076 -1.2204
  688MOL0     C92812   0.843   0.486   2.348 -0.2895  0.7017  0.7251
  688MOL0     H92813   0.837   0.290   1.856 -0.5610  0.5408  1.3478
  688MOL0     H92814   0.972   0.128   1.732  2.8308  2.4433  0.7578
  688MOL0     H92815   1.182  -0.208   1.941  0.4415  2.4300 -0.6795
  688MOL0     H92816   1.003  -0.248   1.930 -0.7972  2.5854  0.9344
  688MOL0     H92817   1.212  -0.279   1.704 -0.3318 -1.2365 -1.6337
  688MOL0     H92818   1.037  -0.320   1.703 -0.3585 -2.4675  0.7219
  688MOL0     H92819   1.143  -0.528   1.742 -2.4668  0.1087 -1.0249
  688MOL0     H92820   1.078  -0.483   1.901 -2.9033 -1.7980 -2.0492
  688MOL0     H92821   1.362  -0.409   1.818  2.2965  1.3985  2.7404
  688MOL0     H92822   1.286  -0.407   1.974 -1.0811 -0.1539  0.5917
  688MOL0     H92823   1.266  -0.659   1.973  1.1154  1.1405  2.5578
  688MOL0     H92824   1.321  -0.666   1.800 -0.8836 -0.0471  0.7830
  688MOL0     H92825   1.537  -0.542   1.887  0.7615 -0.8357 -0.2322
  688MOL0     H92826   1.474  -0.566   2.043  0.5203  1.6834 -1.7475
  688MOL0     H92827   1.439  -0.816   1.988  0.9146  0.6110  0.7077
  688MOL0     H92828   1.599  -0.752   2.043  2.0417 -0.2448 -1.2023
  688MOL0     H92829   1.507  -0.818   1.755 -1.0195 -0.4929  1.3166
  688MOL0     H92830   1.658  -0.742   1.787  0.1837 -0.9191 -1.2357
  688MOL0     H92831   1.775  -0.876   2.053 -0.9892 -0.0563  2.1307
  688MOL0     H92832   1.893  -1.145   2.130  0.1160 -4.4542 -0.3241
  688MOL0     H92833   1.957  -1.208   1.980 -1.1657 -0.1969 -1.0346
  688MOL0     H92834   2.074  -0.992   1.932  1.2201  1.1942  0.3579
  688MOL0     H92835   2.000  -0.918   2.086 -0.7365 -1.0776  0.9508
  688MOL0     H92836   2.205  -1.119   2.045  1.3715  0.0614 -0.6346
  688MOL0     H92837   2.142  -1.095   2.202 -4.7745  0.1945 -0.6931
  688MOL0     H92838   2.199  -0.835   2.166 -1.2870  1.6243 -2.9776
  688MOL0     H92839   2.281  -0.889   2.016  1.3780  2.2562  0.4969
  688MOL0     H92840   2.634  -0.987   2.256  0.5192  0.3621 -0.9017
  688MOL0     H92841   2.814  -0.856   2.243  0.6546 -0.8695 -1.9803
  688MOL0     H92842   3.177  -0.776   2.174 -0.2960 -0.4999 -1.1796
  688MOL0     H92843   3.398  -0.669   2.177 -0.7064 -0.0996  0.0123
  688MOL0     H92844   3.562  -0.563   2.210  1.7037 -1.3656 -1.2762
  688MOL0     H92845   3.546  -0.567   2.041 -2.1223  0.7039 -0.2017
  688MOL0     H92846   3.773  -0.493   2.098 -1.0375 -0.7631 -0.0898
  688MOL0     H92847   3.682  -0.351   2.029 -3.6330 -0.6113 -0.6045
  688MOL0     H92848   3.636  -0.253   2.234 -0.9067 -2.4000  3.0065
  688MOL0     H92849   3.683  -0.397   2.311  2.8482 -0.5235 -0.5053
  688MOL0     H92850   3.850  -0.184   2.314  2.8809  2.2756 -1.6552
  688MOL0     H92851   3.866  -0.218   2.142 -0.6495 -0.5965 -0.3034
  688MOL0     H92852   4.060  -0.294   2.240  0.0200  2.2202  2.2571
  688MOL0     H92853   3.966  -0.442   2.201 -0.8935 -0.0906  0.4029
  688MOL0     H92854   3.996  -0.305   2.475 -1.8587 -0.2257 -0.3499
  688MOL0     H92855   3.894  -0.428   2.452 -0.5860  1.6629  1.5564
  688MOL0     H92856   4.113  -0.581   2.376  3.2163 -2.0915  3.2928
  688MOL0     H92857   4.107  -0.528   2.537 -0.8546  1.0458  0.4259
  688MOL0     H92858   4.337  -0.478   2.433 -0.6473 -0.7619 -1.5101
  688MOL0     H92859   4.251  -0.390   2.312 -1.9723 -0.2609  0.4347
  688MOL0     H92860   3.217  -0.297   2.055  0.0965 -0.1749  0.2361
  688MOL0     H92861   3.017  -0.385   2.056 -0.8481 -0.0846  4.2798
  688MOL0     H92862   2.592  -0.547   2.055  3.4318  0.5783  1.8884
  688MOL0     H92863   2.382  -0.684   2.074  0.8152  1.0299 -1.0531
  688MOL0     H92864   1.046  -0.081   2.113  1.8153  1.1406  0.1208
  688MOL0     H92865   0.926   0.078   2.221 -0.8269  0.2982 -0.5629
  688MOL0     H92866   0.453   0.247   2.254 -0.4485  0.4949  0.5549
  688MOL0     H92867   0.313   0.419   2.347  0.3386  1.2301  0.5807
  688MOL0     H92868   0.488   0.816   2.458  2.2117 -0.6859  0.8307
  688MOL0     H92869   0.525   0.733   2.615 -1.0048  2.7328  2.2573
  688MOL0     H92870   0.300   0.761   2.687 -0.7430 -0.6968 -1.2909
  688MOL0     H92871   0.269   0.841   2.529 -0.1355  2.2159  0.5970
  688MOL0     H92872   0.396   1.022   2.575 -0.4934 -0.7221 -0.7276
  688MOL0     H92873   0.492   0.941   2.704  0.3255  0.6729 -0.1047
  688MOL0     H92874   0.210   1.035   2.713 -1.3126 -3.2381  0.8420
  688MOL0     H92875   0.281   0.927   2.834 -0.9294  0.7277  0.2868
  688MOL0     H92876   0.434   1.313   2.927  1.0371  1.0811 -3.0338
  688MOL0     H92877   0.662   0.643   2.468  1.2659 -0.9388 -0.4059
  688MOL0     H92878   0.883   0.568   2.408 -0.7149 -1.4759  4.3216
  688MOL0     H92879   0.897   0.399   2.388  0.4649  0.3759 -0.9213
  688MOL0     H92880   0.874   0.491   2.244 -0.4205 -2.6781  0.3927
  689MOL0     O92881  10.184   8.773   5.599  0.1941 -0.1546 -0.3242
  689MOL0     C92882  10.190   8.853   5.504  0.1615  0.8429 -0.2313
  689MOL0     O92883  10.304   8.906   5.458  0.4494  0.3594 -0.8640
  689MOL0     C92884  10.424   8.853   5.508 -0.6535 -0.0571 -1.0760
  689MOL0     C92885  10.464   8.887   5.641  0.4790  0.5287  0.7633
  689MOL0     C92886  10.590   8.830   5.690 -0.5056  0.0603  0.3298
  689MOL0     C92887  10.654   8.730   5.615 -0.1609  0.4798 -0.2181
  689MOL0     O92888  10.774   8.682   5.657  0.0728 -0.9136  0.1758
  689MOL0     C92889  10.842   8.597   5.563 -0.2193  0.7667  0.9296
  689MOL0     C92890  10.988   8.579   5.601  0.2070 -0.0245  0.4328
  689MOL0     C92891  11.006   8.497   5.732 -0.2725  0.3283  0.5888
  689MOL0     C92892  11.155   8.449   5.744  0.1292 -0.4656  0.2523
  689MOL0     C92893  11.205   8.337   5.650 -0.0473  0.1649  0.2552
  689MOL0     C92894  11.344   8.285   5.691 -0.4321  0.1097 -0.5227
  689MOL0     C92895  11.378   8.170   5.592  0.0442  0.0320  0.1532
  689MOL0     C92896  11.488   8.213   5.487 -0.5392 -0.4746 -0.7823
  689MOL0     N92897  11.629   8.206   5.534  0.0409 -0.1020 -0.3858
  689MOL0     C92898  11.729   8.130   5.483  0.9678  0.2280 -0.3122
  689MOL0     C92899  11.837   8.157   5.554 -0.7499 -0.4649 -0.3220
  689MOL0     C92900  11.973   8.097   5.565  0.3392  0.6858  0.5624
  689MOL0     C92901  12.066   8.203   5.508 -0.2674 -0.3149 -0.1853
  689MOL0     C92902  12.085   8.188   5.350 -0.3867 -0.3239 -0.2215
  689MOL0     C92903  12.184   8.296   5.303 -0.1072  0.5306 -0.1941
  689MOL0     O92904  12.315   8.259   5.352  0.4365  0.1932 -0.3426
  689MOL0     C92905  12.419   8.338   5.313 -0.1974 -0.2372  0.8734
  689MOL0     C92906  12.546   8.283   5.324 -0.9920  0.5303  0.9954
  689MOL0     C92907  12.660   8.359   5.289  0.1763 -0.5406  0.7507
  689MOL0     C92908  12.637   8.494   5.238  0.5848  0.7717  0.5676
  689MOL0     C92909  12.754   8.581   5.203  0.0670  0.3416 -0.1716
  689MOL0     O92910  12.863   8.544   5.269 -0.1177 -0.1499 -0.3489
  689MOL0     C92911  12.986   8.616   5.254 -0.1132 -0.3108 -0.5252
  689MOL0     C92912  13.110   8.542   5.242  0.2840 -0.1083 -0.0811
  689MOL0     C92913  13.230   8.608   5.264 -0.7148  0.5104 -0.4965
  689MOL0     C92914  13.225   8.752   5.262 -0.3991  0.1348 -0.7408
  689MOL0     O92915  13.332   8.831   5.269  0.1878 -0.1528  0.3183
  689MOL0     C92916  13.448   8.771   5.338  0.9832 -0.5690  0.2562
  689MOL0     C92917  13.556   8.876   5.351 -0.2862  0.4951 -0.0076
  689MOL0     C92918  13.665   8.871   5.240 -0.2378  0.2181 -0.2568
  689MOL0     C92919  13.798   8.804   5.286  0.0178 -0.4654  0.4192
  689MOL0     C92920  13.918   8.847   5.198 -0.6151 -0.0454 -0.3518
  689MOL0     C92921  14.055   8.855   5.275  0.1286  0.4476  0.1918
  689MOL0     C92922  14.169   8.887   5.185  0.4052 -0.4635  0.3288
  689MOL0     C92923  14.204   8.773   5.099 -0.1359  0.0196 -0.1749
  689MOL0    Cl92924  14.327   8.809   4.985 -0.3355 -0.5815 -0.4641
  689MOL0     C92925  13.110   8.820   5.268  0.5352  0.0734 -0.3763
  689MOL0     C92926  12.987   8.755   5.265 -0.1372 -0.0582 -0.6120
  689MOL0     O92927  12.733   8.685   5.142  0.0704 -0.8729 -0.3087
  689MOL0     C92928  12.507   8.548   5.226 -0.2554 -0.0075  0.4919
  689MOL0     C92929  12.405   8.469   5.261  0.0501 -0.2656 -0.0533
  689MOL0     N92930  11.801   8.254   5.651  0.0486  0.6798 -0.4797
  689MOL0     N92931  11.679   8.283   5.638  0.8381  0.2058 -0.5518
  689MOL0     C92932  10.613   8.698   5.485  0.0631 -0.3969  0.1845
  689MOL0     C92933  10.501   8.757   5.432 -0.3561  0.7504  0.5013
  689MOL0     C92934  10.076   8.866   5.418 -0.9797  0.0242 -0.4957
  689MOL0     C92935  10.097   8.823   5.282 -0.0823  0.6672 -0.9006
  689MOL0     C92936   9.995   8.824   5.190  1.0958  0.4801  0.4916
  689MOL0     C92937   9.868   8.866   5.225  0.0625  0.0691  0.2789
  689MOL0     O92938   9.776   8.861   5.125 -0.2278 -1.2228  0.0219
  689MOL0     C92939   9.644   8.908   5.143 -0.3890  0.2540  0.2575
  689MOL0     C92940   9.578   8.950   5.012 -0.4729  0.2433  0.0870
  689MOL0     C92941   9.548   8.844   4.919 -0.5418  0.2197  0.1628
  689MOL0     C92942   9.488   8.896   4.784 -0.3714 -0.6953  0.3944
  689MOL0     C92943   9.411   8.789   4.720 -0.7514  0.3821 -0.6694
  689MOL0     C92944   9.367   8.675   4.690 -0.5812  0.5061  0.5418
  689MOL0     C92945   9.848   8.904   5.359 -0.4819 -0.1266  0.7273
  689MOL0     C92946   9.946   8.897   5.458  0.5190  0.5282 -0.7681
  689MOL0     C92947   9.918   8.939   5.596  0.1463  0.5282 -0.0721
  689MOL0     H92948  10.393   8.946   5.699 -0.7527 -1.8814  1.8719
  689MOL0     H92949  10.630   8.861   5.786 -0.1733  1.1681 -0.1468
  689MOL0     H92950  10.802   8.496   5.563 -0.1747  0.7478  1.0718
  689MOL0     H92951  10.854   8.647   5.466 -0.7160 -1.3399 -0.2617
  689MOL0     H92952  11.037   8.675   5.618 -0.8737  0.3517  1.6497
  689MOL0     H92953  11.049   8.523   5.530 -1.4579 -0.0966 -1.0012
  689MOL0     H92954  10.965   8.399   5.707  2.2185 -0.5402 -0.4639
  689MOL0     H92955  10.970   8.553   5.819 -1.3168  2.0330 -0.8743
  689MOL0     H92956  11.220   8.536   5.733 -3.3785  2.2281 -0.8427
  689MOL0     H92957  11.159   8.409   5.845  2.7950 -0.5220  0.1874
  689MOL0     H92958  11.135   8.253   5.658  2.0465 -2.0248 -2.2970
  689MOL0     H92959  11.210   8.354   5.542 -0.1286  1.2408  0.4118
  689MOL0     H92960  11.414   8.367   5.678 -0.2214 -0.0336 -0.3064
  689MOL0     H92961  11.347   8.243   5.793  1.5061 -0.3744 -0.7459
  689MOL0     H92962  11.290   8.144   5.532  0.6289  1.1624 -1.2410
  689MOL0     H92963  11.411   8.094   5.663  0.2039 -0.1444 -0.1101
  689MOL0     H92964  11.472   8.147   5.401 -2.0022 -3.2857  1.4651
  689MOL0     H92965  11.468   8.317   5.457  1.5759  0.9045  2.1609
  689MOL0     H92966  11.732   8.065   5.396  2.5153  0.8633 -0.7832
  689MOL0     H92967  11.996   8.069   5.669  0.6404 -2.0824 -0.1668
  689MOL0     H92968  11.988   8.004   5.509 -1.2779  1.4789 -1.2953
  689MOL0     H92969  12.019   8.300   5.525  0.0147 -0.7327  4.1508
  689MOL0     H92970  12.155   8.195   5.571 -1.7247 -0.1261  1.9918
  689MOL0     H92971  11.987   8.210   5.308 -0.2877  1.9393  0.5668
  689MOL0     H92972  12.121   8.091   5.315 -3.8328 -0.7991 -3.0403
  689MOL0     H92973  12.154   8.393   5.346  1.0865  0.4640  0.8620
  689MOL0     H92974  12.184   8.301   5.194 -2.8965 -0.5812 -0.3290
  689MOL0     H92975  12.565   8.185   5.366 -0.3049  0.2939  0.1597
  689MOL0     H92976  12.757   8.313   5.278  2.3223  3.1379  2.3600
  689MOL0     H92977  13.105   8.434   5.232  0.6397 -0.1391  0.0804
  689MOL0     H92978  13.321   8.549   5.266 -0.4597  0.9091 -0.5090
  689MOL0     H92979  13.419   8.733   5.436 -2.1526 -1.2727 -0.8224
  689MOL0     H92980  13.477   8.686   5.275 -0.1875  0.4161 -1.7275
  689MOL0     H92981  13.507   8.973   5.353 -0.9203  0.3338  4.6271
  689MOL0     H92982  13.608   8.870   5.448 -2.7990  0.1351  1.3888
  689MOL0     H92983  13.612   8.831   5.153 -0.3736 -0.2637  0.0395
  689MOL0     H92984  13.682   8.977   5.219  0.4820  0.2113  0.2569
  689MOL0     H92985  13.785   8.695   5.290 -2.3572 -0.2576 -0.0013
  689MOL0     H92986  13.828   8.831   5.388  0.4534  1.7120 -0.2215
  689MOL0     H92987  13.889   8.944   5.156  0.4165  1.4979  2.2555
  689MOL0     H92988  13.927   8.783   5.110  0.1637 -0.7723  0.2446
  689MOL0     H92989  14.046   8.927   5.357  0.9510  0.6785  0.0859
  689MOL0     H92990  14.074   8.756   5.317 -1.1143 -0.0666 -0.4159
  689MOL0     H92991  14.255   8.917   5.246 -0.1458 -1.3662  1.6067
  689MOL0     H92992  14.146   8.973   5.122  0.2625  0.1129  1.1494
  689MOL0     H92993  14.233   8.680   5.149 -0.1955 -1.4270 -2.6766
  689MOL0     H92994  14.115   8.758   5.037 -0.7155 -0.8195  0.8252
  689MOL0     H92995  13.109   8.928   5.283  0.4476 -0.0611  0.6931
  689MOL0     H92996  12.901   8.820   5.275 -1.5505 -1.8538 -0.4328
  689MOL0     H92997  12.482   8.647   5.189 -0.1512  0.3590  1.3781
  689MOL0     H92998  12.307   8.513   5.247  0.5632  1.1393  0.6091
  689MOL0     H92999  10.657   8.627   5.415 -0.4137  1.3874 -2.0593
  689MOL0     H93000  10.482   8.725   5.330  1.1113 -3.1311  1.2859
  689MOL0     H93001  10.198   8.804   5.249 -0.3703 -0.9968 -0.9059
  689MOL0     H93002  10.022   8.816   5.085  1.4847  2.1737  0.4441
  689MOL0     H93003   9.643   9.004   5.196  1.0823  3.0176 -4.1576
  689MOL0     H93004   9.584   8.836   5.200 -0.1947  0.4785  0.7514
  689MOL0     H93005   9.650   9.011   4.958 -0.0725  1.1488  1.6089
  689MOL0     H93006   9.486   9.008   5.023 -1.0399 -0.2767 -1.5026
  689MOL0     H93007   9.483   8.766   4.961  0.8791 -0.0353  2.0308
  689MOL0     H93008   9.639   8.794   4.885 -0.6760  0.0705  0.0197
  689MOL0     H93009   9.420   8.982   4.790  2.8897  2.0876  0.3442
  689MOL0     H93010   9.576   8.921   4.724 -0.9350 -1.3900 -0.7524
  689MOL0     H93011   9.325   8.578   4.673  0.0848  0.0308  1.5611
  689MOL0     H93012   9.753   8.949   5.387 -0.9645  1.0415 -2.3312
  689MOL0     H93013   9.970   8.881   5.673 -2.3865 -0.4535  1.0158
  689MOL0     H93014   9.931   9.046   5.613  0.9353  0.8109 -2.2347
  689MOL0     H93015   9.809   8.942   5.610  0.1433  2.3863 -0.2198
  690MOL0     O93016   4.601   6.187   5.412  0.2265 -0.1556 -0.2548
  690MOL0     C93017   4.538   6.163   5.515 -0.2586 -0.4254  0.0972
  690MOL0     O93018   4.586   6.104   5.630 -0.2102  0.2297 -0.4636
  690MOL0     C93019   4.720   6.086   5.623  0.0347  1.1225  0.1232
  690MOL0     C93020   4.806   6.189   5.650  0.0173  1.0302 -0.6933
  690MOL0     C93021   4.938   6.174   5.616  0.1982 -0.0539 -0.3509
  690MOL0     C93022   4.993   6.059   5.561 -0.5192  0.0434  0.4265
  690MOL0     O93023   5.131   6.040   5.541 -0.6359  0.7369  0.0737
  690MOL0     C93024   5.224   6.114   5.614  0.8555  0.1088  0.0689
  690MOL0     C93025   5.356   6.042   5.615  0.7578 -0.3853  0.2957
  690MOL0     C93026   5.456   6.106   5.713 -0.0483  0.2949  0.3786
  690MOL0     C93027   5.598   6.060   5.702  0.6906  0.1511 -0.1913
  690MOL0     C93028   5.697   6.149   5.781 -0.8494 -0.1788 -0.0663
  690MOL0     C93029   5.839   6.085   5.775 -0.2952 -0.7654 -0.2751
  690MOL0     C93030   5.937   6.183   5.843  0.3130  0.1745  0.2230
  690MOL0     C93031   6.078   6.149   5.805 -0.5714  0.3777  0.0682
  690MOL0     N93032   6.173   6.244   5.862  0.1407 -0.1723  0.3179
  690MOL0     C93033   6.217   6.357   5.798 -0.0206 -0.1062  0.2209
  690MOL0     C93034   6.331   6.401   5.864  0.3606  0.0184  0.6054
  690MOL0     C93035   6.426   6.513   5.834  0.4131  0.7537 -1.0153
  690MOL0     C93036   6.560   6.458   5.779 -0.3356  0.3388 -0.1501
  690MOL0     C93037   6.655   6.563   5.726 -1.6840  1.0881 -0.1318
  690MOL0     C93038   6.798   6.514   5.714 -0.3764 -0.3418 -0.3198
  690MOL0     O93039   6.862   6.547   5.836 -0.3145  0.1721 -1.2137
  690MOL0     C93040   6.963   6.472   5.882  0.0575  0.4413  0.4081
  690MOL0     C93041   7.018   6.355   5.828  0.4412  0.5425  0.4031
  690MOL0     C93042   7.132   6.296   5.883 -0.6847  1.2436 -0.1823
  690MOL0     C93043   7.192   6.360   5.992  1.0347 -1.2268  0.8911
  690MOL0     C93044   7.317   6.299   6.060  0.1954  0.2483 -0.3198
  690MOL0     O93045   7.355   6.172   6.024 -0.8674  0.0650 -0.3580
  690MOL0     C93046   7.467   6.126   6.085 -0.4609  0.2782 -0.4364
  690MOL0     C93047   7.451   6.044   6.194  0.1014 -1.0325 -1.0414
  690MOL0     C93048   7.565   6.018   6.269 -0.1807  1.3670  0.4562
  690MOL0     C93049   7.694   6.056   6.224 -0.9874  0.8038 -0.2356
  690MOL0     O93050   7.804   6.001   6.285  0.1467 -0.2285  0.3276
  690MOL0     C93051   7.814   5.994   6.430 -0.3634  0.5144  0.5651
  690MOL0     C93052   7.807   5.853   6.481 -0.4415 -0.0942  0.0447
  690MOL0     C93053   7.809   5.841   6.638  0.5801 -0.3758  0.0814
  690MOL0     C93054   7.931   5.905   6.704  0.6132 -0.1840 -0.5289
  690MOL0     C93055   8.064   5.850   6.661 -0.1728 -0.1809 -0.4679
  690MOL0     C93056   8.173   5.961   6.668 -0.8041  0.1217  0.1479
  690MOL0     C93057   8.315   5.912   6.672  0.4260 -0.1198  0.2684
  690MOL0     C93058   8.407   5.980   6.770  0.2582  0.4071  0.4925
  690MOL0    Cl93059   8.427   6.161   6.722 -0.4068  0.5024 -0.4279
  690MOL0     C93060   7.699   6.142   6.117 -0.1019 -0.6098 -0.2220
  690MOL0     C93061   7.588   6.183   6.047  1.1107  0.4138 -0.8307
  690MOL0     O93062   7.364   6.358   6.155 -0.2248  0.2637  0.6752
  690MOL0     C93063   7.131   6.477   6.049  0.3419 -0.1246 -0.5982
  690MOL0     C93064   7.027   6.535   5.990 -0.2144  0.3515 -0.1151
  690MOL0     N93065   6.361   6.307   5.958 -0.2392 -0.0296  0.0136
  690MOL0     N93066   6.261   6.227   5.965  0.7303 -0.2167 -0.3259
  690MOL0     C93067   4.910   5.951   5.541  0.4578  0.1468  0.4851
  690MOL0     C93068   4.770   5.966   5.562 -1.0285 -0.0103  0.0385
  690MOL0     C93069   4.388   6.183   5.519  0.1388  0.2138 -1.2180
  690MOL0     C93070   4.311   6.109   5.606  0.5015  0.3059 -0.5266
  690MOL0     C93071   4.173   6.126   5.616 -0.0567  0.0149 -0.5664
  690MOL0     C93072   4.107   6.208   5.531 -0.4568  0.4372 -0.0391
  690MOL0     O93073   3.971   6.229   5.551 -0.0121 -0.2298 -0.9463
  690MOL0     C93074   3.902   6.344   5.502 -0.3487 -0.1485  0.1580
  690MOL0     C93075   3.753   6.313   5.487  0.4211  0.7375 -0.8481
  690MOL0     C93076   3.692   6.305   5.628  0.1045  0.1762 -0.1141
  690MOL0     C93077   3.537   6.317   5.615 -0.0320 -0.7468 -0.0565
  690MOL0     C93078   3.486   6.200   5.549  0.1796 -0.3281 -1.2310
  690MOL0     C93079   3.434   6.115   5.482  0.0015 -0.7361  0.0056
  690MOL0     C93080   4.186   6.275   5.432 -0.0345  0.4885 -0.6415
  690MOL0     C93081   4.326   6.267   5.426  0.4644 -0.3321 -0.6535
  690MOL0     C93082   4.394   6.341   5.308 -0.6107 -0.5937 -1.0379
  690MOL0     H93083   4.778   6.285   5.692  1.1522  1.2010 -0.2979
  690MOL0     H93084   5.003   6.261   5.624 -1.1734  1.0344 -0.5891
  690MOL0     H93085   5.235   6.215   5.572  3.5829 -0.5551 -1.0264
  690MOL0     H93086   5.187   6.120   5.717 -0.1457 -1.0839 -0.2075
  690MOL0     H93087   5.408   6.051   5.519  1.0229  0.8176  0.5360
  690MOL0     H93088   5.350   5.935   5.636  4.5586 -0.5943  0.9152
  690MOL0     H93089   5.423   6.094   5.817  2.4029  0.1063  1.2062
  690MOL0     H93090   5.453   6.212   5.683 -1.6209 -0.1899 -1.3798
  690MOL0     H93091   5.614   5.958   5.737  0.3068 -0.5244 -1.8554
  690MOL0     H93092   5.624   6.063   5.595 -1.2387  1.0304 -0.6769
  690MOL0     H93093   5.697   6.246   5.729 -1.4295 -0.4880 -0.6532
  690MOL0     H93094   5.664   6.156   5.885  2.9007 -0.0610  1.2759
  690MOL0     H93095   5.850   5.998   5.841  2.9747  1.0155  1.7906
  690MOL0     H93096   5.866   6.067   5.671 -1.0179  0.5619 -0.7202
  690MOL0     H93097   5.917   6.176   5.950 -2.9538 -1.5747 -0.3428
  690MOL0     H93098   5.906   6.282   5.810 -2.0017 -0.4262  0.4042
  690MOL0     H93099   6.100   6.047   5.838 -4.1713 -0.6934 -0.4315
  690MOL0     H93100   6.087   6.144   5.696 -1.8217  0.5050 -0.0515
  690MOL0     H93101   6.174   6.401   5.708 -2.0276 -1.0322  0.6640
  690MOL0     H93102   6.389   6.584   5.760 -0.6827 -1.9322 -3.2242
  690MOL0     H93103   6.446   6.562   5.931  0.4598  4.4579 -2.7214
  690MOL0     H93104   6.601   6.401   5.863 -1.4116  1.0840  0.9223
  690MOL0     H93105   6.539   6.380   5.705 -2.4829 -1.0517  1.7459
  690MOL0     H93106   6.655   6.651   5.791 -0.6583  0.1872  1.1381
  690MOL0     H93107   6.628   6.595   5.624  2.7277  0.5843 -1.6592
  690MOL0     H93108   6.845   6.572   5.634 -0.6299 -0.4989 -0.5905
  690MOL0     H93109   6.796   6.407   5.689  2.0550 -0.1893 -1.3990
  690MOL0     H93110   6.971   6.301   5.747 -0.3048  1.7705 -0.0158
  690MOL0     H93111   7.168   6.201   5.846 -0.7828  0.3699  1.8476
  690MOL0     H93112   7.354   6.003   6.218 -0.9546  2.1919  0.7383
  690MOL0     H93113   7.561   5.955   6.357  0.7859 -0.0293 -0.4454
  690MOL0     H93114   7.906   6.039   6.470  0.8458 -1.9768  0.7884
  690MOL0     H93115   7.727   6.050   6.465  0.1317  1.7330 -0.0750
  690MOL0     H93116   7.714   5.799   6.459  0.1382 -1.2964  0.4608
  690MOL0     H93117   7.895   5.808   6.433  0.7320  2.1985 -0.0870
  690MOL0     H93118   7.717   5.888   6.674  0.1801 -1.6443  0.8079
  690MOL0     H93119   7.811   5.737   6.672  0.4934  0.0316  1.4212
  690MOL0     H93120   7.916   5.901   6.813  1.3982  1.2532 -0.3516
  690MOL0     H93121   7.918   6.012   6.685 -0.8564 -0.0172  1.1061
  690MOL0     H93122   8.071   5.821   6.555  2.3734  0.8566 -0.6670
  690MOL0     H93123   8.094   5.768   6.726  3.3194  1.1043 -0.2041
  690MOL0     H93124   8.175   6.039   6.592  3.3716  0.3528  0.2734
  690MOL0     H93125   8.159   6.020   6.759  0.9057 -2.4608  2.2597
  690MOL0     H93126   8.355   5.917   6.571 -0.1250  0.1892  0.0628
  690MOL0     H93127   8.305   5.805   6.695 -2.0032  0.0878  0.4890
  690MOL0     H93128   8.358   5.954   6.864 -2.3187 -3.0145 -1.5879
  690MOL0     H93129   8.511   5.945   6.776 -0.0002 -0.2874  1.1917
  690MOL0     H93130   7.803   6.160   6.091  1.0800 -1.8817  3.0704
  690MOL0     H93131   7.590   6.240   5.955  1.2948 -0.3608 -1.3129
  690MOL0     H93132   7.178   6.530   6.132  2.1385 -5.3711  2.2443
  690MOL0     H93133   6.981   6.628   6.022 -4.9578 -1.4011 -0.9614
  690MOL0     H93134   4.934   5.846   5.525 -5.7232 -1.7223  1.1708
  690MOL0     H93135   4.700   5.887   5.538 -1.7562  0.9426 -1.0935
  690MOL0     H93136   4.363   6.028   5.656  0.4855  1.4669  1.4405
  690MOL0     H93137   4.120   6.073   5.695  0.5753  1.7083  1.0662
  690MOL0     H93138   3.939   6.364   5.401  0.5682  0.8285  0.6637
  690MOL0     H93139   3.916   6.428   5.570 -2.8779  0.4551  0.0031
  690MOL0     H93140   3.738   6.223   5.427  0.5237 -0.0407  0.2628
  690MOL0     H93141   3.708   6.395   5.431  1.9088  2.9733  1.0193
  690MOL0     H93142   3.727   6.384   5.696 -0.0191  0.8346 -0.8071
  690MOL0     H93143   3.721   6.206   5.665 -0.9248 -0.3563 -0.6967
  690MOL0     H93144   3.503   6.323   5.719  0.2267 -0.0223 -0.0069
  690MOL0     H93145   3.504   6.407   5.563  0.1933 -1.2631 -1.1098
  690MOL0     H93146   3.407   6.025   5.430  0.2213 -0.0410 -1.3651
  690MOL0     H93147   4.133   6.341   5.365  1.0662  0.4278 -1.6055
  690MOL0     H93148   4.320   6.402   5.255 -0.2882  0.9630  0.2217
  690MOL0     H93149   4.474   6.403   5.347 -1.1338  0.1795 -1.1783
  690MOL0     H93150   4.448   6.269   5.244  3.2142 -0.4075  1.6347
  691MOL0     O93151   6.608   4.341   8.104  0.0632 -0.4431 -0.5111
  691MOL0     C93152   6.619   4.358   8.223  0.2205  0.8867 -0.1399
  691MOL0     O93153   6.738   4.357   8.292  0.0676 -0.1656 -0.4814
  691MOL0     C93154   6.858   4.354   8.229  0.4578  0.5101 -0.0745
  691MOL0     C93155   6.898   4.244   8.154 -0.6107  0.2524  0.6926
  691MOL0     C93156   7.031   4.234   8.113 -0.4146 -0.1402 -0.5461
  691MOL0     C93157   7.122   4.340   8.133 -0.5803  0.2859  0.0229
  691MOL0     O93158   7.257   4.320   8.103 -0.1424 -0.3948 -0.2384
  691MOL0     C93159   7.296   4.251   7.983 -0.9705 -0.0081 -0.2337
  691MOL0     C93160   7.442   4.258   7.968 -0.9001 -0.6675 -0.4249
  691MOL0     C93161   7.494   4.399   7.943  0.6124  0.3147  0.0452
  691MOL0     C93162   7.647   4.408   7.928 -0.3987  0.9249  0.5452
  691MOL0     C93163   7.697   4.548   7.911  0.5310 -0.1204  1.2160
  691MOL0     C93164   7.836   4.564   7.854  0.2240 -0.2461  0.2525
  691MOL0     C93165   7.885   4.708   7.870  0.1874  0.2382 -0.3822
  691MOL0     C93166   8.040   4.709   7.825  0.1788  0.7182 -0.2187
  691MOL0     N93167   8.100   4.840   7.840  0.1047 -0.8092  0.9760
  691MOL0     C93168   8.169   4.915   7.736 -0.2181 -0.4031  0.9506
  691MOL0     C93169   8.203   5.028   7.801 -0.0664 -0.3725  0.3151
  691MOL0     C93170   8.284   5.126   7.732 -0.7957  0.2332 -0.0450
  691MOL0     C93171   8.425   5.122   7.799 -0.0903 -0.4107 -0.6705
  691MOL0     C93172   8.522   5.173   7.695 -0.2064 -0.2322 -0.3256
  691MOL0     C93173   8.495   5.308   7.619  0.3516  0.4807  0.8324
  691MOL0     O93174   8.619   5.384   7.614  0.2318  0.3052  0.0568
  691MOL0     C93175   8.613   5.510   7.562  0.2861 -0.0707 -0.2657
  691MOL0     C93176   8.497   5.582   7.515  0.2979  0.0284  0.3215
  691MOL0     C93177   8.508   5.722   7.480 -0.3628  0.8317 -0.3414
  691MOL0     C93178   8.631   5.797   7.501 -0.4230  0.8265 -0.2723
  691MOL0     C93179   8.640   5.936   7.484 -0.5599 -0.7095 -0.4674
  691MOL0     O93180   8.766   5.983   7.462 -0.1730  0.0859 -0.0074
  691MOL0     C93181   8.807   6.115   7.461  0.1728 -0.4866  0.0909
  691MOL0     C93182   8.721   6.226   7.462  0.6364  0.2952 -0.4611
  691MOL0     C93183   8.767   6.357   7.471  0.8730  0.2210 -0.3876
  691MOL0     C93184   8.905   6.384   7.486 -0.0167  0.2434 -0.5506
  691MOL0     O93185   8.943   6.513   7.497  0.2323  0.4544 -0.0445
  691MOL0     C93186   9.086   6.546   7.476 -0.0523  0.2982 -0.4706
  691MOL0     C93187   9.091   6.699   7.477  0.8034 -0.4287 -0.2671
  691MOL0     C93188   9.229   6.751   7.453  0.0256 -0.4722 -0.4541
  691MOL0     C93189   9.258   6.784   7.299 -0.3089 -0.1917 -0.0782
  691MOL0     C93190   9.399   6.846   7.260 -0.6756  0.2342 -0.1801
  691MOL0     C93191   9.414   6.858   7.112 -0.1413  0.4342  0.5682
  691MOL0     C93192   9.537   6.924   7.061 -0.4145 -0.5016 -0.2224
  691MOL0     C93193   9.641   6.817   7.002 -0.0858  0.7076  0.0583
  691MOL0    Cl93194   9.709   6.723   7.140 -0.2093 -0.3756 -0.2839
  691MOL0     C93195   8.995   6.268   7.483 -0.2442  0.5762 -0.5634
  691MOL0     C93196   8.942   6.135   7.451 -0.0503  0.0190 -1.6351
  691MOL0     O93197   8.533   6.003   7.493 -0.0331  0.4597 -0.4250
  691MOL0     C93198   8.744   5.714   7.545  0.8513 -0.0692 -0.4260
  691MOL0     C93199   8.738   5.580   7.575  0.2401 -0.2893  0.1645
  691MOL0     N93200   8.160   5.025   7.936 -0.4845  0.3381 -0.4052
  691MOL0     N93201   8.097   4.908   7.953  0.2968 -0.2701  0.4099
  691MOL0     C93202   7.080   4.452   8.202 -0.5112  0.1183  0.4575
  691MOL0     C93203   6.948   4.461   8.261  0.6419  1.1276 -0.4655
  691MOL0     C93204   6.497   4.349   8.310  1.0184  0.4570 -0.5007
  691MOL0     C93205   6.384   4.301   8.249  0.4325 -0.6737 -1.1642
  691MOL0     C93206   6.267   4.305   8.319  0.9009 -0.9994 -0.3918
  691MOL0     C93207   6.254   4.358   8.448 -0.8707  0.8928  0.2257
  691MOL0     O93208   6.129   4.364   8.503 -0.1293 -0.6455  0.2540
  691MOL0     C93209   6.104   4.417   8.632  0.4582  0.7957 -0.3654
  691MOL0     C93210   6.077   4.315   8.738 -0.6542  0.9143  0.1922
  691MOL0     C93211   6.036   4.391   8.861 -0.3676  0.7654 -0.2440
  691MOL0     C93212   6.011   4.298   8.983 -0.4065 -0.6597 -0.0466
  691MOL0     C93213   6.128   4.261   9.066  0.1389  0.1098  0.7226
  691MOL0     C93214   6.218   4.241   9.141 -0.6389 -0.2587  0.1197
  691MOL0     C93215   6.367   4.396   8.515  0.7572  0.4608 -0.0059
  691MOL0     C93216   6.491   4.387   8.451  0.3130 -0.0585  0.5614
  691MOL0     C93217   6.610   4.423   8.530 -0.5665 -0.6652  0.1429
  691MOL0     H93218   6.831   4.161   8.136  0.1090 -0.2535  0.2738
  691MOL0     H93219   7.067   4.154   8.049 -2.0306 -1.8292  0.5508
  691MOL0     H93220   7.270   4.145   7.986 -2.1870  0.2864  0.8516
  691MOL0     H93221   7.256   4.292   7.889  2.6022  3.1198 -0.6368
  691MOL0     H93222   7.468   4.200   7.879 -0.0556 -1.2438  0.1840
  691MOL0     H93223   7.491   4.211   8.054 -2.2650  1.3674  1.5828
  691MOL0     H93224   7.473   4.455   8.035 -1.1177 -3.5040  2.1765
  691MOL0     H93225   7.441   4.447   7.860  1.3238  0.7101 -0.1943
  691MOL0     H93226   7.689   4.363   8.018 -2.4842  3.3053  2.8531
  691MOL0     H93227   7.688   4.344   7.849 -0.1371  1.0661  0.5633
  691MOL0     H93228   7.629   4.591   7.837  2.0948 -1.9345 -1.4681
  691MOL0     H93229   7.675   4.595   8.007 -1.3247  1.2139  0.1882
  691MOL0     H93230   7.901   4.496   7.910  1.1885  1.0298  0.7225
  691MOL0     H93231   7.835   4.523   7.752 -0.0415 -1.6079  0.7813
  691MOL0     H93232   7.882   4.738   7.975  1.7789 -0.1174 -0.1975
  691MOL0     H93233   7.833   4.777   7.804 -3.4841 -0.7194  1.2625
  691MOL0     H93234   8.085   4.639   7.895 -0.3432  0.0474 -0.5452
  691MOL0     H93235   8.048   4.671   7.722  1.2882  3.3520 -1.2018
  691MOL0     H93236   8.199   4.888   7.635 -2.2309 -2.5079  0.8377
  691MOL0     H93237   8.280   5.112   7.624  1.6520  2.1477 -0.4577
  691MOL0     H93238   8.246   5.225   7.761 -0.7554  0.4019 -0.5558
  691MOL0     H93239   8.426   5.179   7.892  0.6412 -0.3567 -0.7101
  691MOL0     H93240   8.454   5.017   7.814  1.0716  0.1453  1.3428
  691MOL0     H93241   8.537   5.098   7.617  0.4011 -0.3504 -0.1044
  691MOL0     H93242   8.623   5.183   7.738  0.0077  0.5301 -0.9906
  691MOL0     H93243   8.413   5.367   7.661  1.0801  2.0399  0.1639
  691MOL0     H93244   8.462   5.287   7.517 -0.1001  1.6269  0.7342
  691MOL0     H93245   8.398   5.537   7.512 -0.0290  0.7941 -0.9256
  691MOL0     H93246   8.412   5.763   7.448 -1.6360 -0.9181  1.0696
  691MOL0     H93247   8.615   6.207   7.466  0.4997  0.5658 -2.1767
  691MOL0     H93248   8.691   6.434   7.474 -0.5033 -0.9976 -2.0512
  691MOL0     H93249   9.142   6.513   7.564 -1.0921  1.8415  0.8306
  691MOL0     H93250   9.126   6.510   7.380  1.1659 -1.6318  0.6853
  691MOL0     H93251   9.036   6.745   7.395  1.0674  1.7684  0.7212
  691MOL0     H93252   9.059   6.739   7.574 -1.1576 -2.5030  0.0175
  691MOL0     H93253   9.245   6.831   7.526  0.3361  0.0163 -1.0503
  691MOL0     H93254   9.299   6.672   7.484 -1.1683 -1.2087  0.4545
  691MOL0     H93255   9.187   6.858   7.260 -0.9156  0.5848  2.3100
  691MOL0     H93256   9.260   6.686   7.252  3.2307  0.5142 -1.7138
  691MOL0     H93257   9.485   6.790   7.298  0.4373  0.9533 -1.5363
  691MOL0     H93258   9.411   6.938   7.319 -0.0039 -0.0423  0.1336
  691MOL0     H93259   9.414   6.754   7.078  0.3918  0.5012  0.3472
  691MOL0     H93260   9.327   6.904   7.065  0.0831  0.0121 -0.2900
  691MOL0     H93261   9.589   6.983   7.137  1.9898 -1.4382 -1.0353
  691MOL0     H93262   9.530   6.996   6.979 -0.1008 -1.2352 -0.9194
  691MOL0     H93263   9.592   6.745   6.936  0.9720  0.1378 -0.1329
  691MOL0     H93264   9.726   6.861   6.948  0.6651  0.1597  0.7677
  691MOL0     H93265   9.100   6.272   7.511 -0.4174  0.2055  0.1802
  691MOL0     H93266   9.007   6.049   7.437  2.3643  1.8967 -2.4417
  691MOL0     H93267   8.846   5.747   7.560  0.3938  1.2571 -0.0627
  691MOL0     H93268   8.828   5.552   7.629 -0.7978  0.3332  2.3630
  691MOL0     H93269   7.156   4.530   8.210  1.6950 -1.9874  1.3364
  691MOL0     H93270   6.910   4.547   8.316  1.8708  0.1635  2.0436
  691MOL0     H93271   6.380   4.274   8.144 -1.9747 -2.2259 -0.7496
  691MOL0     H93272   6.179   4.280   8.260 -1.7616 -1.1995  3.2987
  691MOL0     H93273   6.013   4.478   8.631  0.0835  0.2523 -0.0857
  691MOL0     H93274   6.181   4.479   8.679  0.4677 -1.3078  2.6741
  691MOL0     H93275   6.165   4.254   8.763 -0.8947  1.0663  1.4670
  691MOL0     H93276   6.003   4.244   8.700  2.2471 -1.7084 -1.0037
  691MOL0     H93277   5.940   4.442   8.847  0.0257  1.6479  0.2117
  691MOL0     H93278   6.117   4.461   8.883 -1.0255  1.1605  1.0309
  691MOL0     H93279   5.948   4.358   9.050  0.6040  0.4684 -0.0657
  691MOL0     H93280   5.964   4.205   8.951  1.6997 -2.1924  1.0846
  691MOL0     H93281   6.296   4.213   9.210  0.1396  1.3318 -0.0786
  691MOL0     H93282   6.371   4.437   8.615  2.3297  1.1530 -0.3082
  691MOL0     H93283   6.674   4.334   8.533  0.1677 -0.1402  0.2806
  691MOL0     H93284   6.663   4.504   8.479  1.0312  0.2825  3.0898
  691MOL0     H93285   6.586   4.453   8.632  0.3857 -0.3304  0.2758
  692MOL0     O93286   1.722   6.904   7.545  0.2571  0.5758 -0.1047
  692MOL0     C93287   1.679   6.813   7.617 -0.0163 -0.2895 -0.1680
  692MOL0     O93288   1.745   6.703   7.655 -0.2420 -0.1770 -0.7473
  692MOL0     C93289   1.868   6.664   7.621 -0.1549  0.3979  0.1929
  692MOL0     C93290   1.918   6.669   7.494 -0.4824  0.0465 -0.5339
  692MOL0     C93291   2.051   6.631   7.478  0.7796  0.4929  0.3788
  692MOL0     C93292   2.128   6.575   7.580  0.3447  0.6784 -0.2084
  692MOL0     O93293   2.261   6.534   7.574 -0.1778 -0.1338 -0.1482
  692MOL0     C93294   2.350   6.607   7.480 -0.1241 -0.4451  0.3994
  692MOL0     C93295   2.486   6.543   7.504 -1.3281  0.5932 -0.2892
  692MOL0     C93296   2.582   6.577   7.391 -0.4701  0.0434  0.2778
  692MOL0     C93297   2.723   6.606   7.447  0.0705 -0.0057 -0.6107
  692MOL0     C93298   2.822   6.672   7.341 -0.1884  0.4765  0.0612
  692MOL0     C93299   2.956   6.709   7.398 -0.3207  0.2345 -0.5269
  692MOL0     C93300   3.038   6.787   7.295  0.6516  0.1294 -0.3258
  692MOL0     C93301   3.175   6.818   7.341  0.5723 -0.8446  0.2299
  692MOL0     N93302   3.177   6.926   7.439 -0.5617  0.4109 -0.2502
  692MOL0     C93303   3.228   6.922   7.560  0.4011 -0.8369  0.2262
  692MOL0     C93304   3.211   7.043   7.614 -0.3435 -0.6765  0.4324
  692MOL0     C93305   3.258   7.090   7.745  0.6200 -0.2652  0.0250
  692MOL0     C93306   3.398   7.145   7.741  0.6772 -0.1155  0.0554
  692MOL0     C93307   3.503   7.049   7.658 -0.4676  0.1117 -0.2680
  692MOL0     C93308   3.643   7.116   7.662  0.0269  0.6906  0.2581
  692MOL0     O93309   3.731   7.030   7.595 -0.1175 -0.3126 -0.3428
  692MOL0     C93310   3.861   7.079   7.578 -0.3239 -0.4051  0.4005
  692MOL0     C93311   3.923   7.206   7.606  0.9103  0.5863 -0.0971
  692MOL0     C93312   4.055   7.236   7.560  0.3095  0.0067  0.1926
  692MOL0     C93313   4.135   7.135   7.489  0.3623  0.3305 -0.5809
  692MOL0     C93314   4.282   7.165   7.461  0.6930  0.4172 -0.6970
  692MOL0     O93315   4.327   7.286   7.512  0.1863 -0.4360  0.0135
  692MOL0     C93316   4.461   7.326   7.480  0.2181  0.1982  0.0811
  692MOL0     C93317   4.544   7.334   7.585 -0.7440  0.2239 -1.0333
  692MOL0     C93318   4.677   7.377   7.568  1.3357  0.3311 -1.1111
  692MOL0     C93319   4.711   7.436   7.450 -0.2556  0.7595  0.2487
  692MOL0     O93320   4.834   7.476   7.424  0.4530  0.0897  0.1338
  692MOL0     C93321   4.854   7.612   7.409 -0.0559  0.0517 -0.2587
  692MOL0     C93322   4.981   7.636   7.323  0.2855 -0.1912  0.9333
  692MOL0     C93323   5.092   7.710   7.398  1.1433  0.0191  0.1426
  692MOL0     C93324   5.188   7.777   7.305  0.2394 -0.1907 -0.0185
  692MOL0     C93325   5.278   7.863   7.395 -0.1759  0.0253  0.0790
  692MOL0     C93326   5.353   7.973   7.316  0.7936  0.9049 -0.4544
  692MOL0     C93327   5.430   8.064   7.408  0.7716  0.3589  0.4824
  692MOL0     C93328   5.528   8.145   7.338 -0.4067  0.0368 -0.4558
  692MOL0    Cl93329   5.668   8.037   7.285 -0.4512 -0.2163 -0.0526
  692MOL0     C93330   4.624   7.432   7.337 -0.2179  0.1486 -0.6093
  692MOL0     C93331   4.493   7.384   7.355 -0.5060 -0.4440 -0.0169
  692MOL0     O93332   4.353   7.075   7.406  0.5647 -0.3181  0.3358
  692MOL0     C93333   4.076   7.005   7.473 -0.6440 -0.0077 -1.0601
  692MOL0     C93334   3.940   6.983   7.510  1.0256  0.0040  0.9829
  692MOL0     N93335   3.136   7.125   7.528  0.1744 -0.1990  0.5723
  692MOL0     N93336   3.118   7.043   7.420 -0.0713  0.1541 -0.5004
  692MOL0     C93337   2.067   6.556   7.702  0.4268  0.0845 -1.3414
  692MOL0     C93338   1.938   6.596   7.724 -0.0475 -0.2798  0.3289
  692MOL0     C93339   1.548   6.818   7.676  0.9603  0.6309  0.8192
  692MOL0     C93340   1.519   6.912   7.778 -0.4587  0.4637  1.3858
  692MOL0     C93341   1.393   6.921   7.840  0.2583 -0.6498  0.5243
  692MOL0     C93342   1.287   6.831   7.797  0.0130 -0.2285 -0.4552
  692MOL0     O93343   1.155   6.846   7.848  0.2885  0.9064 -0.3366
  692MOL0     C93344   1.126   6.888   7.982  0.3629 -0.0955 -0.3488
  692MOL0     C93345   0.976   6.903   8.011 -0.7528 -0.3768  0.4130
  692MOL0     C93346   0.914   7.009   7.921 -0.6364  0.6278  0.3728
  692MOL0     C93347   0.791   7.064   7.984 -0.0692  1.0462 -0.4686
  692MOL0     C93348   0.688   6.952   8.000 -0.3177 -0.5236 -0.4408
  692MOL0     C93349   0.591   6.879   8.012 -0.3155 -0.5997 -0.0004
  692MOL0     C93350   1.319   6.734   7.693  0.6995 -0.4726 -0.0776
  692MOL0     C93351   1.445   6.729   7.634 -0.0930 -0.6240  0.5138
  692MOL0     C93352   1.463   6.626   7.534 -0.3589 -0.4258 -0.2863
  692MOL0     H93353   1.863   6.701   7.407 -0.3363  1.7753 -0.0165
  692MOL0     H93354   2.103   6.651   7.385  1.2809  0.8904  0.7393
  692MOL0     H93355   2.322   6.584   7.377  0.7490  0.6937 -0.1036
  692MOL0     H93356   2.342   6.715   7.493  0.4838  0.0275 -2.5930
  692MOL0     H93357   2.465   6.436   7.495 -2.6303  0.9852 -3.0297
  692MOL0     H93358   2.525   6.567   7.603  1.7226 -2.4123 -0.5705
  692MOL0     H93359   2.552   6.671   7.343  0.5989  0.0008 -0.5135
  692MOL0     H93360   2.583   6.503   7.310  2.2008 -2.0593  2.0787
  692MOL0     H93361   2.704   6.672   7.532 -2.2879  0.8860 -1.7622
  692MOL0     H93362   2.768   6.515   7.489  3.3093  1.3333 -0.9015
  692MOL0     H93363   2.838   6.618   7.247  2.2543  1.1257  0.0161
  692MOL0     H93364   2.774   6.764   7.309  2.6747  1.6887 -1.1469
  692MOL0     H93365   2.940   6.777   7.483  0.7624 -0.1687  0.0186
  692MOL0     H93366   2.999   6.617   7.438 -0.5710 -0.7020 -2.3477
  692MOL0     H93367   2.987   6.882   7.277  1.9148  1.2867  1.8309
  692MOL0     H93368   3.041   6.730   7.202 -0.3579  0.6578 -0.6970
  692MOL0     H93369   3.222   6.723   7.369 -2.3896 -1.6440  3.0595
  692MOL0     H93370   3.228   6.859   7.253  1.7946  0.5712  1.5540
  692MOL0     H93371   3.277   6.835   7.603  2.2269 -0.4681 -0.9689
  692MOL0     H93372   3.190   7.163   7.790  0.9516 -0.5951  1.0977
  692MOL0     H93373   3.259   7.010   7.819 -0.5915 -0.8413 -0.5605
  692MOL0     H93374   3.387   7.234   7.680  0.7572 -0.9780 -1.2556
  692MOL0     H93375   3.445   7.167   7.838  0.5689  1.0977 -0.1606
  692MOL0     H93376   3.484   7.027   7.553 -0.4048 -2.4206  0.1817
  692MOL0     H93377   3.512   6.952   7.708 -0.7194  0.0439 -0.3535
  692MOL0     H93378   3.680   7.133   7.763 -0.2128  0.6078  0.3574
  692MOL0     H93379   3.638   7.213   7.613 -3.2008  0.8283  0.6940
  692MOL0     H93380   3.871   7.288   7.655  1.4078  1.7025 -1.3594
  692MOL0     H93381   4.094   7.334   7.586  1.0812  0.3778 -2.0752
  692MOL0     H93382   4.515   7.287   7.678 -1.1456 -0.0383 -1.2861
  692MOL0     H93383   4.740   7.367   7.655 -1.7031  0.9099  1.3254
  692MOL0     H93384   4.765   7.658   7.367 -2.0659 -2.0962  1.3784
  692MOL0     H93385   4.871   7.647   7.511  1.8729 -3.5434  0.8626
  692MOL0     H93386   5.014   7.535   7.296 -3.2341 -2.0991  3.0093
  692MOL0     H93387   4.957   7.701   7.239 -1.4017  2.0004  2.9524
  692MOL0     H93388   5.042   7.777   7.469  1.1884  1.0950 -0.7992
  692MOL0     H93389   5.142   7.639   7.463 -0.3053  0.0087  1.2818
  692MOL0     H93390   5.133   7.846   7.241 -1.0346 -0.6582  0.5534
  692MOL0     H93391   5.250   7.704   7.251  5.2480  1.1760  3.1750
  692MOL0     H93392   5.343   7.799   7.454 -0.0733 -0.3550 -0.4463
  692MOL0     H93393   5.214   7.917   7.465 -2.0079 -1.4151 -0.3969
  692MOL0     H93394   5.412   7.940   7.230 -0.4853  0.8323 -1.3498
  692MOL0     H93395   5.287   8.027   7.247  3.1072  0.1847 -3.4400
  692MOL0     H93396   5.481   8.011   7.488 -2.4599 -4.7041 -0.3781
  692MOL0     H93397   5.352   8.120   7.462 -3.8524 -1.7708 -3.1884
  692MOL0     H93398   5.480   8.199   7.256 -2.0269  1.1986  1.1892
  692MOL0     H93399   5.571   8.215   7.410  0.7801 -0.1649 -0.9361
  692MOL0     H93400   4.647   7.484   7.245  1.6437 -0.4875 -0.5382
  692MOL0     H93401   4.417   7.392   7.278  0.1899  1.5386 -0.5711
  692MOL0     H93402   4.142   6.927   7.436  1.3205 -0.5446  3.0134
  692MOL0     H93403   3.889   6.889   7.491 -1.0041  0.9832  1.3661
  692MOL0     H93404   2.127   6.510   7.780 -0.6477  0.1056 -0.4649
  692MOL0     H93405   1.900   6.574   7.823 -1.4533 -3.9011 -0.8573
  692MOL0     H93406   1.590   6.992   7.794  1.9024 -1.0587 -0.6258
  692MOL0     H93407   1.367   6.995   7.914 -1.2108 -1.0345  0.4163
  692MOL0     H93408   1.176   6.984   8.001  1.3611 -0.1418 -2.5065
  692MOL0     H93409   1.173   6.812   8.046  1.7603 -1.1258 -2.5072
  692MOL0     H93410   0.969   6.923   8.118  0.6464 -2.9160  1.0356
  692MOL0     H93411   0.920   6.811   7.993 -1.2797  0.2998 -1.7982
  692MOL0     H93412   0.887   6.948   7.834 -0.4644  1.7226 -0.4766
  692MOL0     H93413   0.977   7.092   7.888  0.7128 -0.5410 -0.0890
  692MOL0     H93414   0.809   7.104   8.084  0.8321  1.2249 -0.6943
  692MOL0     H93415   0.757   7.146   7.920 -1.1486  0.7080 -0.3541
  692MOL0     H93416   0.506   6.814   8.014 -0.1141 -0.9693 -1.9242
  692MOL0     H93417   1.241   6.662   7.668 -0.0969 -0.2657  1.6643
  692MOL0     H93418   1.552   6.561   7.541  0.8014  0.0658 -5.9076
  692MOL0     H93419   1.383   6.552   7.534  0.2302 -1.0772 -0.7175
  692MOL0     H93420   1.452   6.660   7.431 -1.7380  1.1241  0.3241
  693MOL0     O93421  10.699   0.271   1.409 -0.2917 -1.2400 -0.5936
  693MOL0     C93422  10.743   0.330   1.510  0.3351  0.6077  0.0926
  693MOL0     O93423  10.861   0.388   1.527 -0.4631  0.0081 -0.3265
  693MOL0     C93424  10.962   0.355   1.437 -1.0342  0.3390 -0.1220
  693MOL0     C93425  10.990   0.227   1.394 -0.2824  0.6898  0.5142
  693MOL0     C93426  11.099   0.191   1.310  0.1934  0.1022 -0.7840
  693MOL0     C93427  11.181   0.292   1.268  0.1990 -0.1372 -0.2351
  693MOL0     O93428  11.281   0.273   1.178  0.1329 -1.1482  0.6991
  693MOL0     C93429  11.321   0.137   1.148  0.4973 -0.1115 -0.4758
  693MOL0     C93430  11.431   0.148   1.047 -0.3025  0.4053 -0.0067
  693MOL0     C93431  11.488   0.004   1.030  0.5827 -0.5288 -0.0247
  693MOL0     C93432  11.620   0.012   0.948  0.6847 -0.1542  0.3103
  693MOL0     C93433  11.701  -0.120   0.966 -0.3174  0.0584  0.8111
  693MOL0     C93434  11.764  -0.160   0.836  0.1779  0.4654 -1.0907
  693MOL0     C93435  11.873  -0.061   0.779  0.1777 -0.1743 -0.7804
  693MOL0     C93436  11.996  -0.047   0.868 -0.9662  0.0321  0.0241
  693MOL0     N93437  12.106   0.032   0.803 -0.0038  0.0671 -0.1643
  693MOL0     C93438  12.176  -0.003   0.689  0.6890 -0.2825 -0.6061
  693MOL0     C93439  12.280   0.080   0.687 -0.2698 -0.6795  0.8171
  693MOL0     C93440  12.393   0.094   0.584  0.1279  0.3827  0.7189
  693MOL0     C93441  12.531   0.067   0.653 -0.0016 -0.3228  0.2286
  693MOL0     C93442  12.658   0.062   0.555 -0.3724 -0.1734 -0.1579
  693MOL0     C93443  12.790   0.038   0.634  0.9036  0.0509 -0.4108
  693MOL0     O93444  12.905   0.099   0.568  0.5467 -0.9036  0.2673
  693MOL0     C93445  13.043   0.081   0.585 -0.1677  0.0072 -0.6400
  693MOL0     C93446  13.098  -0.012   0.679  0.6514 -0.1794 -0.0590
  693MOL0     C93447  13.237  -0.029   0.684 -0.3588 -0.3096 -0.4081
  693MOL0     C93448  13.328   0.038   0.607  0.7493  0.5242  1.4836
  693MOL0     C93449  13.472   0.031   0.616 -0.3519  0.6287  0.4995
  693MOL0     O93450  13.541   0.124   0.545 -0.6005 -0.5376 -0.5670
  693MOL0     C93451  13.676   0.148   0.555 -0.2139  0.6740 -1.1070
  693MOL0     C93452  13.729   0.281   0.544  0.7690  0.0794 -0.6655
  693MOL0     C93453  13.859   0.316   0.569 -0.8457  0.3389 -0.2359
  693MOL0     C93454  13.957   0.216   0.594  0.0954 -0.2399 -0.0477
  693MOL0     O93455  14.088   0.228   0.608 -0.8161 -0.0002 -0.1206
  693MOL0     C93456  14.137   0.366   0.624  0.4871  0.2750 -0.2480
  693MOL0     C93457  14.168   0.430   0.487  0.0555  0.2373 -0.6409
  693MOL0     C93458  14.314   0.473   0.488 -0.4347 -0.0058 -0.0135
  693MOL0     C93459  14.362   0.481   0.343  0.7319  0.2575  0.2037
  693MOL0     C93460  14.487   0.582   0.329  0.7998  0.3569  0.4731
  693MOL0     C93461  14.607   0.545   0.422 -0.1056  0.4484 -0.0999
  693MOL0     C93462  14.733   0.623   0.389  0.5844  0.7656  0.0425
  693MOL0     C93463  14.861   0.567   0.454  0.7786 -0.2385  0.3951
  693MOL0    Cl93464  14.990   0.681   0.400 -0.2300 -0.2441  0.0484
  693MOL0     C93465  13.910   0.086   0.600  0.0579  0.2153 -0.3451
  693MOL0     C93466  13.777   0.048   0.576  0.2864 -0.9948 -0.0854
  693MOL0     O93467  13.519  -0.052   0.695 -0.3055 -0.1311 -0.0174
  693MOL0     C93468  13.265   0.129   0.509 -0.3773  1.0282  0.0571
  693MOL0     C93469  13.129   0.151   0.500  0.1420  0.2733  0.6662
  693MOL0     N93470  12.275   0.168   0.802 -0.3969  0.9540  0.1799
  693MOL0     N93471  12.170   0.131   0.867  1.3073  0.1840  0.5359
  693MOL0     C93472  11.161   0.421   1.310 -0.4783 -0.2809 -0.7178
  693MOL0     C93473  11.055   0.451   1.402 -0.0176 -0.3816  0.4871
  693MOL0     C93474  10.639   0.367   1.617 -0.3307  0.5175  0.1810
  693MOL0     C93475  10.503   0.365   1.583 -0.0381 -0.6879  0.0318
  693MOL0     C93476  10.402   0.401   1.671 -0.2398  0.6743 -0.1683
  693MOL0     C93477  10.434   0.453   1.798 -0.5902  0.7168 -0.3696
  693MOL0     O93478  10.333   0.468   1.894  0.2073  0.5028  0.2058
  693MOL0     C93479  10.358   0.577   1.996  0.3191 -0.5017 -0.6774
  693MOL0     C93480  10.406   0.516   2.130  0.6347 -0.1004 -0.0224
  693MOL0     C93481  10.439   0.623   2.231  0.0914 -0.5961  0.7474
  693MOL0     C93482  10.312   0.696   2.290 -0.6452  0.0818 -0.4846
  693MOL0     C93483  10.353   0.806   2.378 -1.0501  0.8931  0.1900
  693MOL0     C93484  10.408   0.879   2.460  0.9205  0.6602  0.5068
  693MOL0     C93485  10.574   0.461   1.834  0.1420 -0.4790  0.0826
  693MOL0     C93486  10.679   0.418   1.741 -0.2064  0.2479  0.4192
  693MOL0     C93487  10.821   0.434   1.792 -0.7819  0.1697 -0.0284
  693MOL0     H93488  10.919   0.150   1.425  0.1693 -0.2910 -0.7930
  693MOL0     H93489  11.119   0.088   1.283  0.6792  0.1614 -0.6704
  693MOL0     H93490  11.359   0.099   1.243  1.5020  1.6365 -0.1399
  693MOL0     H93491  11.235   0.083   1.107 -1.6272  2.1713  0.6758
  693MOL0     H93492  11.505   0.223   1.075 -1.2943  2.5140 -2.6593
  693MOL0     H93493  11.388   0.184   0.953 -1.8312 -0.1713  0.4359
  693MOL0     H93494  11.422  -0.061   0.973  1.5654  1.0956 -3.2191
  693MOL0     H93495  11.512  -0.027   1.133  1.7288  1.3938  0.3400
  693MOL0     H93496  11.596   0.033   0.843 -1.1579 -3.3566 -0.0522
  693MOL0     H93497  11.679   0.093   0.992 -1.5015  0.6292  1.9591
  693MOL0     H93498  11.774  -0.106   1.046  0.6220  1.1799 -0.2110
  693MOL0     H93499  11.626  -0.195   0.994 -1.6079 -0.0709 -2.4950
  693MOL0     H93500  11.805  -0.260   0.855 -1.2226  0.3009  1.6663
  693MOL0     H93501  11.684  -0.163   0.761 -2.7563  0.5700  1.7981
  693MOL0     H93502  11.830   0.038   0.763 -0.8440 -0.4392  0.2310
  693MOL0     H93503  11.896  -0.103   0.681 -0.4381  0.9542 -1.4251
  693MOL0     H93504  11.963  -0.002   0.962  0.2195  0.3690  0.2884
  693MOL0     H93505  12.037  -0.147   0.886  1.2557  1.2475  2.3575
  693MOL0     H93506  12.154  -0.080   0.616  2.8045 -0.4185 -1.1510
  693MOL0     H93507  12.376   0.018   0.508  1.8866 -0.0370  0.7203
  693MOL0     H93508  12.391   0.197   0.548 -0.5823 -1.3468 -5.1187
  693MOL0     H93509  12.556   0.144   0.726 -2.3460  1.4114 -0.6926
  693MOL0     H93510  12.529  -0.028   0.708 -2.2531 -0.3494  0.1617
  693MOL0     H93511  12.661   0.165   0.519 -2.4443 -0.1191 -0.2840
  693MOL0     H93512  12.644  -0.008   0.472  1.4118  0.5862 -1.1596
  693MOL0     H93513  12.813  -0.067   0.654 -1.8713 -0.6362 -0.4908
  693MOL0     H93514  12.781   0.079   0.735 -1.8431 -0.0016 -0.5639
  693MOL0     H93515  13.018  -0.057   0.738 -1.2240  0.8296 -1.7162
  693MOL0     H93516  13.283  -0.093   0.758 -2.0196 -2.6016 -1.2314
  693MOL0     H93517  13.661   0.362   0.519  0.6129  0.5643  1.2112
  693MOL0     H93518  13.885   0.419   0.549 -2.4368  0.8472  0.1900
  693MOL0     H93519  14.066   0.429   0.678 -0.3943 -0.4999 -0.4911
  693MOL0     H93520  14.225   0.360   0.689  0.6974  2.6976 -0.2198
  693MOL0     H93521  14.154   0.354   0.409  1.0518 -0.5361 -0.1024
  693MOL0     H93522  14.105   0.518   0.478 -1.6812 -0.8393  0.4621
  693MOL0     H93523  14.331   0.572   0.530 -1.7358  1.6565 -3.0643
  693MOL0     H93524  14.380   0.399   0.535  0.3295  0.0213 -1.0020
  693MOL0     H93525  14.286   0.502   0.268 -0.0461 -3.2582 -0.1700
  693MOL0     H93526  14.390   0.376   0.327 -0.4929 -0.2584  1.1678
  693MOL0     H93527  14.445   0.680   0.353 -2.4924  0.0872 -3.2872
  693MOL0     H93528  14.527   0.582   0.228 -0.9843 -0.2269 -0.2762
  693MOL0     H93529  14.582   0.570   0.526  1.9206 -1.3933  0.9125
  693MOL0     H93530  14.627   0.438   0.431  2.7133  1.0102  2.0640
  693MOL0     H93531  14.719   0.730   0.407  0.7137  0.7174  0.4434
  693MOL0     H93532  14.745   0.605   0.281  2.1639  1.6275  0.0375
  693MOL0     H93533  14.853   0.563   0.563 -0.6753  3.2536  0.5525
  693MOL0     H93534  14.878   0.469   0.408  0.8744 -0.0976  0.1263
  693MOL0     H93535  13.975   0.003   0.627 -2.7049 -1.6086  1.1782
  693MOL0     H93536  13.750  -0.055   0.599 -1.7965 -0.9806 -2.1106
  693MOL0     H93537  13.325   0.185   0.439  0.0085  2.1149  1.2156
  693MOL0     H93538  13.090   0.226   0.432 -2.1371 -1.2554  0.1714
  693MOL0     H93539  11.241   0.493   1.292  1.9058 -2.2083  1.3284
  693MOL0     H93540  11.034   0.552   1.434 -2.5718 -0.3249 -1.1327
  693MOL0     H93541  10.460   0.344   1.486  0.2700 -1.9674  0.1626
  693MOL0     H93542  10.296   0.381   1.659 -0.2886 -1.1823  2.3686
  693MOL0     H93543  10.268   0.638   2.010 -0.0995 -1.1920 -0.3047
  693MOL0     H93544  10.434   0.649   1.965  0.3528 -1.3943 -2.7965
  693MOL0     H93545  10.498   0.458   2.114  1.2783  0.7609  0.4688
  693MOL0     H93546  10.329   0.448   2.166  1.1730  0.6077  2.6767
  693MOL0     H93547  10.525   0.684   2.201 -0.6277  2.0484  3.5249
  693MOL0     H93548  10.475   0.568   2.318 -1.4575 -0.6269  1.3943
  693MOL0     H93549  10.251   0.744   2.213  0.5284  0.2296 -1.3274
  693MOL0     H93550  10.254   0.627   2.353  2.0020  1.6616  4.1964
  693MOL0     H93551  10.459   0.950   2.522  1.7139  0.7920 -0.2846
  693MOL0     H93552  10.603   0.508   1.928  0.4730  0.3578 -0.4299
  693MOL0     H93553  10.818   0.483   1.889 -3.0251  0.4152 -0.1707
  693MOL0     H93554  10.892   0.351   1.787 -0.4384  0.3476  1.4794
  693MOL0     H93555  10.867   0.514   1.733 -0.4020  1.5103  1.9788
  694MOL0     O93556   5.911   1.625   6.611 -0.7126 -0.4834  0.0816
  694MOL0     C93557   5.856   1.547   6.537  0.3891 -0.4935 -0.5256
  694MOL0     O93558   5.925   1.466   6.441 -0.3023 -0.0180  0.2769
  694MOL0     C93559   6.060   1.445   6.460  0.0580  0.0192 -0.4426
  694MOL0     C93560   6.099   1.326   6.525 -0.0433 -0.1444  0.5777
  694MOL0     C93561   6.231   1.285   6.539  0.1379 -0.3049 -0.4036
  694MOL0     C93562   6.329   1.364   6.481  0.7891 -0.4583  0.2721
  694MOL0     O93563   6.462   1.313   6.486  0.8005  0.3573 -0.8338
  694MOL0     C93564   6.570   1.387   6.442 -0.3289 -0.4056  0.9497
  694MOL0     C93565   6.686   1.285   6.443  0.1139 -0.6526  0.6646
  694MOL0     C93566   6.814   1.363   6.404 -0.2303  0.0763  0.8377
  694MOL0     C93567   6.953   1.288   6.413  0.3043 -0.4877 -0.0151
  694MOL0     C93568   7.066   1.370   6.354  0.8579 -0.6400  0.4092
  694MOL0     C93569   7.062   1.398   6.202  0.1222  0.0410  0.1585
  694MOL0     C93570   7.156   1.511   6.164 -0.6446  0.3420 -0.4526
  694MOL0     C93571   7.148   1.545   6.015 -0.4568 -0.7005 -0.0391
  694MOL0     N93572   7.227   1.661   5.977  0.1670  0.0503  0.1003
  694MOL0     C93573   7.360   1.676   5.976 -0.3406 -0.5609  0.2100
  694MOL0     C93574   7.386   1.790   5.905 -0.8991 -1.5735  0.4775
  694MOL0     C93575   7.521   1.858   5.865  0.5326 -0.0346  0.0401
  694MOL0     C93576   7.635   1.763   5.835 -0.1372 -0.0610 -0.2424
  694MOL0     C93577   7.765   1.845   5.825 -0.9028 -0.5704  0.1996
  694MOL0     C93578   7.762   1.947   5.713 -1.5964 -0.3278  0.3826
  694MOL0     O93579   7.897   2.002   5.712  1.1456 -0.1006 -0.7741
  694MOL0     C93580   7.993   1.931   5.648  0.0656  0.4997 -0.5550
  694MOL0     C93581   7.972   1.800   5.580 -0.3744  0.0882 -0.2847
  694MOL0     C93582   8.072   1.742   5.507 -0.2607  0.4324  0.0589
  694MOL0     C93583   8.194   1.804   5.488 -0.0977 -0.4256 -0.0423
  694MOL0     C93584   8.309   1.738   5.429  0.6891  0.7245  0.3004
  694MOL0     O93585   8.427   1.814   5.420 -0.1949  0.4780  0.1373
  694MOL0     C93586   8.547   1.748   5.413  0.1448 -0.2353  0.4565
  694MOL0     C93587   8.586   1.631   5.484  0.2224  0.1704  0.4638
  694MOL0     C93588   8.710   1.573   5.460  0.0772 -0.4185  0.5651
  694MOL0     C93589   8.798   1.643   5.380  0.1338  0.2074 -0.7362
  694MOL0     O93590   8.931   1.594   5.366  0.8432 -0.4331  0.1533
  694MOL0     C93591   8.992   1.492   5.444  0.1659  0.4642  0.1354
  694MOL0     C93592   9.148   1.516   5.447  0.6178  0.1593  0.3407
  694MOL0     C93593   9.188   1.662   5.486 -0.7777  0.4085 -0.5447
  694MOL0     C93594   9.325   1.664   5.548  0.9243 -0.4125 -0.7631
  694MOL0     C93595   9.340   1.605   5.689 -0.6324  0.7699  0.2752
  694MOL0     C93596   9.475   1.614   5.765 -0.2403  0.9241  0.3896
  694MOL0     C93597   9.475   1.549   5.903 -0.0730 -0.5632  0.2727
  694MOL0     C93598   9.611   1.543   5.962  0.3977  0.2719  0.1791
  694MOL0    Cl93599   9.708   1.700   5.940  0.1886 -0.0931 -0.2651
  694MOL0     C93600   8.767   1.750   5.305 -0.2398  0.0328 -1.0548
  694MOL0     C93601   8.642   1.808   5.325  1.1404 -0.9392  0.0931
  694MOL0     O93602   8.305   1.618   5.396 -0.3354 -0.6675 -0.4177
  694MOL0     C93603   8.217   1.932   5.547 -0.0800  0.4082  0.5758
  694MOL0     C93604   8.117   1.988   5.639  0.3251 -0.3518  1.0452
  694MOL0     N93605   7.269   1.834   5.859  0.1182 -0.1027 -0.3447
  694MOL0     N93606   7.174   1.763   5.903 -0.1148 -0.5876 -0.0849
  694MOL0     C93607   6.298   1.488   6.415  0.2627 -0.2120  1.2554
  694MOL0     C93608   6.161   1.529   6.406 -0.8207  0.1168 -0.3510
  694MOL0     C93609   5.709   1.520   6.548  0.4220 -1.5192  1.0309
  694MOL0     C93610   5.645   1.455   6.438 -0.0106 -0.3626 -0.1924
  694MOL0     C93611   5.508   1.451   6.425  0.7055 -0.1375  0.1541
  694MOL0     C93612   5.425   1.489   6.527  0.4660 -0.1641  0.1088
  694MOL0     O93613   5.296   1.470   6.505 -0.3664  0.0055 -0.1110
  694MOL0     C93614   5.195   1.499   6.595 -0.2819  0.1585 -0.6863
  694MOL0     C93615   5.122   1.378   6.650 -0.3479 -0.7227 -0.1710
  694MOL0     C93616   4.991   1.423   6.711 -0.2713 -0.7700 -0.6883
  694MOL0     C93617   4.914   1.300   6.753  0.0699 -0.3402 -0.2077
  694MOL0     C93618   4.785   1.349   6.802  0.5374  0.5038 -0.2114
  694MOL0     C93619   4.683   1.399   6.845  0.6498  0.3249 -0.1540
  694MOL0     C93620   5.485   1.553   6.641 -0.2370 -0.4615  0.5138
  694MOL0     C93621   5.628   1.568   6.650 -0.8466 -0.1403  0.6126
  694MOL0     C93622   5.676   1.636   6.776 -0.1999  0.5788  0.3615
  694MOL0     H93623   6.016   1.266   6.561 -1.7535  0.5297 -1.9347
  694MOL0     H93624   6.243   1.203   6.610  0.2861  1.9335  2.3719
  694MOL0     H93625   6.557   1.421   6.339  0.2277 -1.6643  0.4370
  694MOL0     H93626   6.596   1.469   6.509  2.6432  1.9354 -2.7382
  694MOL0     H93627   6.674   1.206   6.368  1.2994  0.2364 -0.5266
  694MOL0     H93628   6.697   1.239   6.541  1.9730 -1.1158  0.2944
  694MOL0     H93629   6.825   1.451   6.468 -0.5866  0.4393  0.4058
  694MOL0     H93630   6.799   1.389   6.298  1.8383  2.4797  1.0432
  694MOL0     H93631   6.983   1.261   6.514  1.2768  1.6925  0.3310
  694MOL0     H93632   6.940   1.188   6.371 -0.6290 -0.4238  0.1031
  694MOL0     H93633   7.057   1.470   6.397 -1.4855 -1.2626  1.5326
  694MOL0     H93634   7.151   1.307   6.381  1.4998 -0.3151 -0.7497
  694MOL0     H93635   7.071   1.303   6.148  1.4817 -1.4947  2.8670
  694MOL0     H93636   6.959   1.428   6.180 -0.6968 -0.3694  3.0213
  694MOL0     H93637   7.259   1.481   6.186 -1.1764 -0.8727  0.5058
  694MOL0     H93638   7.128   1.603   6.216  0.0454 -0.7256  1.9550
  694MOL0     H93639   7.199   1.460   5.968 -0.1996 -0.0860 -0.8986
  694MOL0     H93640   7.044   1.555   5.985 -0.6020  0.1314  0.6974
  694MOL0     H93641   7.445   1.617   6.009  2.5014  1.7001 -2.4223
  694MOL0     H93642   7.491   1.924   5.783  3.3928  2.1688  0.6255
  694MOL0     H93643   7.572   1.918   5.940  3.5625 -0.1835 -1.7376
  694MOL0     H93644   7.639   1.680   5.906  0.1991 -0.5124 -0.7887
  694MOL0     H93645   7.626   1.712   5.739 -1.8149  0.7105 -0.5359
  694MOL0     H93646   7.839   1.767   5.806 -0.7749 -0.7281  1.2722
  694MOL0     H93647   7.790   1.889   5.921 -2.7173 -3.4573  2.1643
  694MOL0     H93648   7.696   2.031   5.735 -0.3396  0.2536  2.1077
  694MOL0     H93649   7.734   1.912   5.613 -1.6888  1.4836 -0.2581
  694MOL0     H93650   7.881   1.741   5.577  0.4272 -1.1811 -0.3781
  694MOL0     H93651   8.053   1.644   5.466 -0.5281 -0.0678  1.3249
  694MOL0     H93652   8.514   1.589   5.554  0.9598  1.0694  1.8203
  694MOL0     H93653   8.729   1.474   5.500  0.1773 -0.3759  0.6236
  694MOL0     H93654   8.961   1.500   5.549  1.3590  1.7236  0.4222
  694MOL0     H93655   8.963   1.397   5.398  0.1525 -1.6034  3.9890
  694MOL0     H93656   9.193   1.430   5.498  1.1089  0.6816  0.8094
  694MOL0     H93657   9.176   1.499   5.343 -2.8678 -1.3427 -0.4659
  694MOL0     H93658   9.195   1.722   5.395  1.6583  0.8579 -0.1341
  694MOL0     H93659   9.109   1.706   5.547 -2.8649  1.9873 -4.0807
  694MOL0     H93660   9.357   1.769   5.546  1.5358 -0.5859 -0.3544
  694MOL0     H93661   9.400   1.616   5.484  1.2790  1.2774 -1.6903
  694MOL0     H93662   9.312   1.500   5.699  2.3128 -0.0458  1.0337
  694MOL0     H93663   9.263   1.650   5.753  0.8612  1.1371  1.9148
  694MOL0     H93664   9.557   1.569   5.708 -0.2248  3.3793 -1.7039
  694MOL0     H93665   9.504   1.719   5.766  3.0959  0.1263 -0.7443
  694MOL0     H93666   9.445   1.444   5.893 -3.7910  0.4414 -0.6649
  694MOL0     H93667   9.404   1.596   5.973 -0.4656 -2.9897  1.6514
  694MOL0     H93668   9.607   1.512   6.067  1.5469  0.2074  0.2241
  694MOL0     H93669   9.676   1.474   5.908  0.6474  1.1028 -0.6031
  694MOL0     H93670   8.838   1.812   5.251  1.8754  0.3552  1.8105
  694MOL0     H93671   8.614   1.893   5.263 -0.7940 -1.9714 -0.5432
  694MOL0     H93672   8.310   1.982   5.521  0.7103 -1.0181  0.5744
  694MOL0     H93673   8.126   2.083   5.691 -2.1981  1.2758 -1.2512
  694MOL0     H93674   6.373   1.549   6.366 -1.3202  1.4908  0.8501
  694MOL0     H93675   6.137   1.631   6.379  0.1486  0.4797  0.1373
  694MOL0     H93676   5.702   1.418   6.354 -4.2826 -0.5696 -3.3370
  694MOL0     H93677   5.460   1.407   6.337  0.9152 -3.2085  1.4381
  694MOL0     H93678   5.132   1.564   6.533 -1.6505 -1.5802 -1.2131
  694MOL0     H93679   5.225   1.566   6.676  0.0024  0.0550 -0.7053
  694MOL0     H93680   5.186   1.326   6.723  1.9238  2.8446  0.6506
  694MOL0     H93681   5.102   1.322   6.558  0.5635 -1.1883 -0.1014
  694MOL0     H93682   4.942   1.502   6.654  0.7289  0.8380  0.6084
  694MOL0     H93683   5.015   1.481   6.800  1.4437 -2.8736  0.3187
  694MOL0     H93684   4.903   1.248   6.658 -0.2557  1.7068 -1.3682
  694MOL0     H93685   4.967   1.238   6.826 -0.2482 -1.8077 -1.1827
  694MOL0     H93686   4.588   1.427   6.885  1.1399 -0.3788  1.5852
  694MOL0     H93687   5.422   1.592   6.720 -1.3268  0.8151 -0.9340
  694MOL0     H93688   5.747   1.568   6.825 -0.1629 -0.9965 -1.7011
  694MOL0     H93689   5.727   1.726   6.742 -0.0987  0.7354  0.9174
  694MOL0     H93690   5.591   1.657   6.841 -0.0567  0.0504  0.7290
  695MOL0     O93691   9.238   2.266   3.123 -0.3867 -0.1219 -0.2135
  695MOL0     C93692   9.267   2.152   3.080 -0.1093 -0.1808 -0.1511
  695MOL0     O93693   9.389   2.097   3.041  0.0528  0.1118 -0.1736
  695MOL0     C93694   9.498   2.180   3.065 -0.3153  0.3624  0.3792
  695MOL0     C93695   9.536   2.234   3.187  0.0358 -0.4853  0.1928
  695MOL0     C93696   9.650   2.316   3.197 -0.1277 -0.2547  0.3644
  695MOL0     C93697   9.738   2.329   3.090  0.8477  0.5761 -0.3277
  695MOL0     O93698   9.849   2.410   3.107 -1.1598  0.3963  0.0076
  695MOL0     C93699   9.966   2.400   3.023  0.4079 -0.0192 -0.2407
  695MOL0     C93700  10.040   2.273   3.076  0.2594  0.1071 -0.1476
  695MOL0     C93701  10.169   2.249   2.996  0.9299  0.2442 -0.5380
  695MOL0     C93702  10.267   2.367   3.017 -0.7404 -0.9051  0.7230
  695MOL0     C93703  10.408   2.334   2.964 -0.1705  0.3892  1.0767
  695MOL0     C93704  10.506   2.436   3.014 -0.9844 -0.8694 -0.8423
  695MOL0     C93705  10.649   2.374   3.005  0.3061 -0.9934 -0.1529
  695MOL0     C93706  10.745   2.473   3.071  1.1714 -0.6729 -0.4759
  695MOL0     N93707  10.875   2.456   3.025  0.3749 -0.2243  0.8819
  695MOL0     C93708  10.982   2.487   3.105  0.0241  0.2529 -0.8686
  695MOL0     C93709  11.090   2.437   3.041 -0.5460  0.6287 -0.4659
  695MOL0     C93710  11.225   2.422   3.091 -0.2003  0.3610 -0.6594
  695MOL0     C93711  11.303   2.542   3.130  0.3813 -1.1819 -0.0551
  695MOL0     C93712  11.334   2.642   3.014  0.2535  0.0838 -0.2028
  695MOL0     C93713  11.417   2.579   2.903 -0.1752 -0.2065 -0.6988
  695MOL0     O93714  11.531   2.510   2.956 -0.2993 -0.3924  0.5340
  695MOL0     C93715  11.657   2.552   2.922  0.3443 -0.1422 -0.9627
  695MOL0     C93716  11.707   2.670   2.972 -1.2194 -0.0838 -0.0740
  695MOL0     C93717  11.841   2.710   2.943  0.6649 -0.0007 -0.1215
  695MOL0     C93718  11.924   2.636   2.858 -0.6677 -0.1490 -0.2279
  695MOL0     C93719  12.063   2.667   2.838  0.3337 -0.2743 -0.2194
  695MOL0     O93720  12.143   2.584   2.758 -0.0497 -0.4819  0.2164
  695MOL0     C93721  12.282   2.597   2.775 -0.2134 -0.6908  0.8184
  695MOL0     C93722  12.358   2.593   2.658  0.2724 -0.2403  0.1215
  695MOL0     C93723  12.497   2.593   2.654  0.0944  0.2733 -0.3610
  695MOL0     C93724  12.576   2.606   2.775 -0.1605  0.9163  0.4976
  695MOL0     O93725  12.713   2.630   2.773  0.4649  0.4543  0.4229
  695MOL0     C93726  12.756   2.726   2.684 -0.5273  0.3867  0.2341
  695MOL0     C93727  12.895   2.779   2.722  0.0509 -0.3348  0.6988
  695MOL0     C93728  12.941   2.898   2.628 -0.1624 -0.3196  0.8013
  695MOL0     C93729  13.081   2.955   2.659  0.2373  0.3710 -0.4297
  695MOL0     C93730  13.107   3.065   2.553 -0.3818  0.7979 -0.3043
  695MOL0     C93731  13.252   3.117   2.567 -0.1927  0.0120  0.5940
  695MOL0     C93732  13.291   3.207   2.686  0.0683 -0.8253 -0.5674
  695MOL0     C93733  13.439   3.214   2.723 -0.6773  0.2797  0.5306
  695MOL0    Cl93734  13.467   3.369   2.815 -0.3391  0.5059  0.6591
  695MOL0     C93735  12.495   2.625   2.891 -0.0797  0.5008  0.4298
  695MOL0     C93736  12.357   2.619   2.897 -0.6153  1.4787 -0.9238
  695MOL0     O93737  12.103   2.771   2.902 -0.1327 -0.4550  0.0483
  695MOL0     C93738  11.874   2.520   2.813  0.1933 -0.4344 -0.5223
  695MOL0     C93739  11.738   2.475   2.839  0.9313  0.6163 -0.0356
  695MOL0     N93740  11.047   2.382   2.927 -0.2555  0.0492  0.4003
  695MOL0     N93741  10.914   2.382   2.916 -0.7199 -0.4431  0.0096
  695MOL0     C93742   9.706   2.260   2.970 -0.2256 -0.1919  0.1291
  695MOL0     C93743   9.588   2.191   2.960 -0.2582 -0.7464  0.4679
  695MOL0     C93744   9.148   2.062   3.076 -0.6996  0.7513 -0.4954
  695MOL0     C93745   9.068   2.054   3.194  0.6273 -0.4828  0.7559
  695MOL0     C93746   8.957   1.967   3.190 -0.2015 -0.7847 -0.7434
  695MOL0     C93747   8.929   1.892   3.078 -0.1332  0.4621 -0.3644
  695MOL0     O93748   8.815   1.823   3.088  0.4467 -0.6632  0.5436
  695MOL0     C93749   8.726   1.830   2.986 -0.1820  0.2975  0.3382
  695MOL0     C93750   8.589   1.833   3.038  0.0414  0.0456  0.2882
  695MOL0     C93751   8.542   1.703   3.100  1.4524 -0.2457  0.5845
  695MOL0     C93752   8.428   1.736   3.187  0.6488  0.0093 -0.6052
  695MOL0     C93753   8.379   1.606   3.233 -0.4376  0.0747 -0.1934
  695MOL0     C93754   8.343   1.499   3.286 -0.3104 -0.6165 -0.6327
  695MOL0     C93755   9.008   1.888   2.964  0.5106 -0.5075 -0.2047
  695MOL0     C93756   9.119   1.973   2.964  0.2860 -0.1085  0.1424
  695MOL0     C93757   9.195   1.985   2.842 -0.5753  0.4530  0.6044
  695MOL0     H93758   9.478   2.235   3.279  0.1136  1.2164  0.2572
  695MOL0     H93759   9.658   2.383   3.283 -0.2278  0.8642 -0.4774
  695MOL0     H93760   9.942   2.402   2.916  0.3112 -0.6901 -0.2302
  695MOL0     H93761  10.030   2.485   3.051  0.5655  0.3053 -1.5069
  695MOL0     H93762   9.980   2.183   3.066  2.9046 -1.9348  1.2110
  695MOL0     H93763  10.056   2.283   3.183 -3.4119 -0.4924  0.5932
  695MOL0     H93764  10.144   2.231   2.891  0.6519 -2.4598 -0.0831
  695MOL0     H93765  10.204   2.154   3.038 -4.7571 -2.2227 -0.4801
  695MOL0     H93766  10.249   2.452   2.952  1.5482  1.6611  3.1563
  695MOL0     H93767  10.277   2.389   3.124  0.7103  0.5573  0.3355
  695MOL0     H93768  10.426   2.234   3.005  1.3655  0.8702  1.6181
  695MOL0     H93769  10.400   2.320   2.855  1.6474  1.8015  0.7242
  695MOL0     H93770  10.501   2.526   2.952 -1.4727 -0.2683  0.0652
  695MOL0     H93771  10.493   2.457   3.120  0.5217 -0.2847 -0.7555
  695MOL0     H93772  10.660   2.358   2.898 -2.3503 -1.0780 -0.4946
  695MOL0     H93773  10.649   2.279   3.060  1.2211 -1.1198 -0.3598
  695MOL0     H93774  10.717   2.572   3.033  2.8686 -1.2368 -3.5815
  695MOL0     H93775  10.730   2.462   3.179 -1.9426  1.2382 -0.5934
  695MOL0     H93776  10.989   2.555   3.189 -0.8558  1.5722 -1.8264
  695MOL0     H93777  11.225   2.348   3.171  0.8258  1.2027  0.1587
  695MOL0     H93778  11.287   2.369   3.018  1.2709  1.1824 -0.0449
  695MOL0     H93779  11.245   2.601   3.202 -0.4618  1.5206 -2.7192
  695MOL0     H93780  11.390   2.506   3.186  1.3067 -2.6775 -2.3228
  695MOL0     H93781  11.390   2.727   3.053 -1.6646  1.5939 -0.5850
  695MOL0     H93782  11.247   2.683   2.961  0.5677 -1.0121 -1.6197
  695MOL0     H93783  11.446   2.660   2.835  2.6373  1.5116  2.3110
  695MOL0     H93784  11.355   2.504   2.852 -0.4603 -0.2812 -0.2465
  695MOL0     H93785  11.638   2.734   3.025 -0.0291  0.0141  1.4183
  695MOL0     H93786  11.880   2.803   2.983 -0.4025 -0.2691  1.6140
  695MOL0     H93787  12.293   2.579   2.573 -0.4119 -1.8100  0.8708
  695MOL0     H93788  12.548   2.583   2.559  0.9847  0.6021  0.0755
  695MOL0     H93789  12.776   2.668   2.594 -3.6944  0.3869 -0.5954
  695MOL0     H93790  12.678   2.799   2.660 -0.6995 -0.1519 -0.9150
  695MOL0     H93791  12.887   2.813   2.825  1.7675  1.3218  0.3422
  695MOL0     H93792  12.971   2.702   2.704  2.6856  1.5736  2.9007
  695MOL0     H93793  12.940   2.866   2.524  2.4789 -1.5526  1.0682
  695MOL0     H93794  12.861   2.971   2.643 -0.6632 -0.8222  0.5999
  695MOL0     H93795  13.157   2.877   2.659  1.6096  1.6567 -0.1867
  695MOL0     H93796  13.093   2.984   2.764 -0.7587 -3.4862  0.8897
  695MOL0     H93797  13.033   3.141   2.578 -0.0307  0.3873  2.2704
  695MOL0     H93798  13.094   3.028   2.451 -0.9448  0.5244 -0.1399
  695MOL0     H93799  13.325   3.036   2.561 -0.4324 -0.1594 -0.1117
  695MOL0     H93800  13.270   3.183   2.482  0.0622  0.9120  1.3224
  695MOL0     H93801  13.240   3.175   2.778 -0.0159 -1.0676 -0.6984
  695MOL0     H93802  13.256   3.306   2.654 -2.7743 -0.9357  1.7542
  695MOL0     H93803  13.471   3.128   2.782  2.3763 -1.2158 -2.9262
  695MOL0     H93804  13.508   3.222   2.638 -1.6761  0.1352 -0.3191
  695MOL0     H93805  12.543   2.638   2.987 -1.9319 -3.9802  2.2244
  695MOL0     H93806  12.309   2.627   2.994  2.8097 -1.1028  1.2050
  695MOL0     H93807  11.927   2.454   2.744  1.4401 -0.4779  0.4370
  695MOL0     H93808  11.702   2.379   2.804 -0.6243  0.2658  2.2675
  695MOL0     H93809   9.771   2.252   2.884 -0.8476 -1.2772 -0.2525
  695MOL0     H93810   9.571   2.135   2.868  0.3696 -0.5584  0.2338
  695MOL0     H93811   9.081   2.116   3.282  0.8696  2.1815 -1.0479
  695MOL0     H93812   8.895   1.971   3.279  2.0361  0.3694  0.8795
  695MOL0     H93813   8.745   1.743   2.922  2.8020  0.1888  1.1991
  695MOL0     H93814   8.746   1.921   2.928  0.0183 -0.9455 -1.6648
  695MOL0     H93815   8.532   1.849   2.947  3.4420  1.3053 -1.8098
  695MOL0     H93816   8.581   1.926   3.095  0.5419  0.5125 -0.4028
  695MOL0     H93817   8.625   1.664   3.160  2.3463 -0.7173 -0.9131
  695MOL0     H93818   8.517   1.628   3.025  0.8693 -0.6903  1.2115
  695MOL0     H93819   8.469   1.785   3.276 -0.0079  0.4066 -0.5123
  695MOL0     H93820   8.348   1.796   3.141 -1.9223 -1.4071  1.7131
  695MOL0     H93821   8.298   1.411   3.328 -1.3025 -0.6419 -1.7131
  695MOL0     H93822   8.976   1.844   2.870 -0.0043 -0.5873  0.0007
  695MOL0     H93823   9.124   1.987   2.758 -0.3489 -0.3738  0.3877
  695MOL0     H93824   9.245   2.082   2.833  1.4216 -0.4856  0.9522
  695MOL0     H93825   9.260   1.902   2.814 -2.6808 -0.4047 -2.3174
  696MOL0     O93826   9.922   8.246   6.021  0.0258  0.7894 -0.1387
  696MOL0     C93827   9.812   8.264   5.990  0.5175  0.1932  1.4909
  696MOL0     O93828   9.751   8.388   5.965 -0.1623 -0.6167  0.3926
  696MOL0     C93829   9.830   8.507   5.976  0.4106 -0.1586 -0.4665
  696MOL0     C93830   9.902   8.562   5.869  0.0371 -0.7618  0.4525
  696MOL0     C93831   9.983   8.678   5.881  0.0278 -0.0340 -1.0079
  696MOL0     C93832  10.001   8.739   6.009 -0.0944  0.3907 -0.1695
  696MOL0     O93833  10.080   8.850   6.034 -0.3338 -0.2758 -0.1747
  696MOL0     C93834  10.075   8.945   5.927  0.3385  0.8424  0.3889
  696MOL0     C93835  10.167   9.053   5.956 -0.3442 -1.0147  0.3318
  696MOL0     C93836  10.151   9.122   6.089 -0.3406 -0.2174  0.1817
  696MOL0     C93837  10.271   9.224   6.113 -0.1451 -0.4039  0.5239
  696MOL0     C93838  10.235   9.302   6.245 -0.5403 -0.5886  0.3972
  696MOL0     C93839  10.353   9.344   6.335  0.9444  0.1870 -0.3120
  696MOL0     C93840  10.307   9.402   6.478 -0.9249 -0.8736 -0.9362
  696MOL0     C93841  10.243   9.539   6.477 -0.0048 -0.0742  0.1151
  696MOL0     N93842  10.332   9.645   6.435 -0.0118 -0.1201  0.9621
  696MOL0     C93843  10.433   9.703   6.510 -0.1146  0.1062 -0.2107
  696MOL0     C93844  10.494   9.787   6.414 -0.3635  0.0076 -0.7450
  696MOL0     C93845  10.620   9.868   6.413  0.2986 -0.1333 -0.6478
  696MOL0     C93846  10.730   9.805   6.496  0.1236  0.3402  0.5453
  696MOL0     C93847  10.863   9.884   6.484  0.2974  0.1029 -0.0286
  696MOL0     C93848  10.964   9.850   6.371 -0.4317  0.4124 -0.3260
  696MOL0     O93849  11.087   9.929   6.390 -1.1803 -0.2688 -1.1507
  696MOL0     C93850  11.180   9.936   6.290  0.7061 -0.5254  0.5218
  696MOL0     C93851  11.172   9.861   6.179  0.2373  0.0229  0.2360
  696MOL0     C93852  11.271   9.876   6.073 -0.4202  0.4112 -0.4146
  696MOL0     C93853  11.361   9.982   6.068 -0.6991  0.4308  0.8882
  696MOL0     C93854  11.455  10.002   5.954 -0.5049 -0.1053  0.4146
  696MOL0     O93855  11.462   9.902   5.860 -0.0537  0.2023  0.3598
  696MOL0     C93856  11.545   9.915   5.750  0.0087 -0.2555 -0.4311
  696MOL0     C93857  11.490   9.894   5.625  0.6575  0.0641  0.2510
  696MOL0     C93858  11.567   9.907   5.505  0.0427  1.5770 -0.1285
  696MOL0     C93859  11.699   9.941   5.512 -0.3241 -0.1171  0.5670
  696MOL0     O93860  11.775   9.948   5.395 -0.3117 -0.4603  0.2647
  696MOL0     C93861  11.770   9.837   5.304  0.8827  0.9557 -0.0467
  696MOL0     C93862  11.915   9.820   5.250 -0.0080 -0.1866 -0.3490
  696MOL0     C93863  11.936   9.705   5.148  0.2467 -0.4027 -0.6817
  696MOL0     C93864  11.870   9.568   5.171 -0.6014 -1.3213 -0.3259
  696MOL0     C93865  11.932   9.470   5.068  0.4237 -0.3403 -0.0202
  696MOL0     C93866  12.083   9.447   5.089  0.4949 -0.2670  0.0821
  696MOL0     C93867  12.144   9.338   4.998 -0.2488  0.3661  0.7903
  696MOL0     C93868  12.129   9.352   4.848  0.1439 -1.2925 -0.8198
  696MOL0    Cl93869  12.234   9.235   4.773  0.1629  0.4676  0.0253
  696MOL0     C93870  11.758   9.954   5.641 -0.1837 -0.2688  0.5201
  696MOL0     C93871  11.681   9.945   5.754 -1.2074  0.5134  0.6733
  696MOL0     O93872  11.534  10.098   5.958  0.1190  0.2812  0.2879
  696MOL0     C93873  11.361  10.054   6.189  0.0058  0.7038 -0.1675
  696MOL0     C93874  11.275  10.035   6.297  0.1438 -0.3246 -0.6393
  696MOL0     N93875  10.428   9.773   6.294  0.3607 -0.5924 -0.8639
  696MOL0     N93876  10.335   9.690   6.301 -0.5783 -0.3819  0.1180
  696MOL0     C93877   9.940   8.675   6.122 -0.4219  0.4582  0.8967
  696MOL0     C93878   9.857   8.560   6.104  0.3913 -0.3188  0.1259
  696MOL0     C93879   9.715   8.147   5.994 -0.0828  0.2662 -0.1453
  696MOL0     C93880   9.579   8.168   5.979  0.5655 -0.3363  1.0112
  696MOL0     C93881   9.490   8.063   5.971 -0.1081  0.6498  0.1324
  696MOL0     C93882   9.523   7.935   6.004 -1.1359 -0.7921 -0.1967
  696MOL0     O93883   9.436   7.835   5.988  0.9815  1.2338 -0.4959
  696MOL0     C93884   9.449   7.709   6.067 -0.2706  0.3905  0.2389
  696MOL0     C93885   9.310   7.654   6.104 -0.0596  0.2084  0.2383
  696MOL0     C93886   9.179   7.691   6.012 -0.5653 -0.0110 -1.1037
  696MOL0     C93887   9.059   7.639   6.083  0.5479 -1.0021  0.3891
  696MOL0     C93888   8.950   7.636   5.995  0.4893 -0.4740 -0.2078
  696MOL0     C93889   8.863   7.618   5.908 -0.3973  0.8661  0.0017
  696MOL0     C93890   9.659   7.912   6.024 -0.7887 -0.0912 -0.0767
  696MOL0     C93891   9.759   8.010   6.010 -0.1673  0.0720  0.1263
  696MOL0     C93892   9.904   7.964   6.028 -0.7836  0.4617  0.0394
  696MOL0     H93893   9.900   8.523   5.768  0.1783 -0.3083  0.2693
  696MOL0     H93894  10.038   8.712   5.794 -0.9357 -2.3910 -2.6551
  696MOL0     H93895  10.111   8.901   5.833 -2.1378 -2.1718  0.6895
  696MOL0     H93896   9.973   8.978   5.909 -0.0784 -1.3602 -1.9743
  696MOL0     H93897  10.159   9.130   5.879  0.8616 -1.1418  0.0591
  696MOL0     H93898  10.268   9.011   5.948  1.7770  3.7891 -2.3969
  696MOL0     H93899  10.135   9.049   6.169 -0.9189 -1.8226 -1.3392
  696MOL0     H93900  10.067   9.193   6.091  2.9466  4.1679 -1.1722
  696MOL0     H93901  10.368   9.177   6.131  0.9029  1.7002  0.6635
  696MOL0     H93902  10.294   9.288   6.027  0.0021 -0.1488  0.7514
  696MOL0     H93903  10.177   9.393   6.226 -1.0013 -1.2966 -1.9600
  696MOL0     H93904  10.174   9.242   6.312 -0.2913  1.4002  2.5418
  696MOL0     H93905  10.412   9.253   6.341 -0.8623 -1.0172  0.0212
  696MOL0     H93906  10.408   9.420   6.278 -1.0226  1.0945 -1.1239
  696MOL0     H93907  10.397   9.414   6.538 -0.9605  2.2762 -1.3068
  696MOL0     H93908  10.247   9.329   6.533  0.6039  0.4980  2.8886
  696MOL0     H93909  10.156   9.534   6.411 -0.1149  1.4219  0.1051
  696MOL0     H93910  10.201   9.565   6.574 -1.4899 -0.8153 -0.3029
  696MOL0     H93911  10.449   9.679   6.615 -0.9497  2.8235  0.6085
  696MOL0     H93912  10.655   9.884   6.311 -2.1719 -0.5827 -1.6232
  696MOL0     H93913  10.599   9.969   6.449 -0.9380 -0.1083 -1.3937
  696MOL0     H93914  10.698   9.796   6.600  0.7422  1.4374  0.8476
  696MOL0     H93915  10.736   9.702   6.460 -0.2214 -0.2174  2.0277
  696MOL0     H93916  10.919   9.871   6.577 -0.1716 -0.6243  0.1557
  696MOL0     H93917  10.837   9.991   6.484  0.9723  0.3464  2.5410
  696MOL0     H93918  10.915   9.859   6.273  1.2741 -2.3305 -1.5558
  696MOL0     H93919  11.001   9.747   6.376  1.6868  1.0756 -1.2403
  696MOL0     H93920  11.100   9.781   6.167 -0.0196 -0.1561  2.5693
  696MOL0     H93921  11.272   9.809   5.988  1.2999  1.7241 -1.4900
  696MOL0     H93922  11.384   9.871   5.615  1.1447 -2.6383  0.6591
  696MOL0     H93923  11.516   9.889   5.410 -2.7516  1.0343  1.3753
  696MOL0     H93924  11.732   9.752   5.362 -2.3907  1.3807 -1.3784
  696MOL0     H93925  11.702   9.870   5.226  1.5953  0.6542 -0.8058
  696MOL0     H93926  11.954   9.914   5.210  2.4752 -0.3560  1.4383
  696MOL0     H93927  11.986   9.793   5.329 -2.3098 -2.4179  1.1014
  696MOL0     H93928  11.900   9.745   5.053 -2.1555  0.8965  0.6860
  696MOL0     H93929  12.044   9.688   5.157  0.2748 -1.1166 -2.0773
  696MOL0     H93930  11.763   9.587   5.158 -0.0916  3.9960  1.1112
  696MOL0     H93931  11.890   9.532   5.272  3.0839 -0.8244 -0.7510
  696MOL0     H93932  11.909   9.515   4.971 -0.6966 -1.9461 -0.5316
  696MOL0     H93933  11.884   9.372   5.067  2.0878 -1.3456  3.3310
  696MOL0     H93934  12.140   9.539   5.070  0.3194 -0.6179 -2.4838
  696MOL0     H93935  12.093   9.421   5.195 -2.6485  1.5830  0.9381
  696MOL0     H93936  12.107   9.243   5.036 -3.4522  0.8170 -0.8886
  696MOL0     H93937  12.252   9.344   5.016 -0.0801 -0.2996  0.0465
  696MOL0     H93938  12.024   9.346   4.818 -0.6869  1.1420  1.2420
  696MOL0     H93939  12.165   9.454   4.833 -0.2412 -0.7886  1.3371
  696MOL0     H93940  11.865   9.973   5.640  0.1646 -2.0206 -0.3777
  696MOL0     H93941  11.733   9.950   5.849  2.5991 -4.0740 -0.7896
  696MOL0     H93942  11.447  10.118   6.204  1.2460 -0.8056 -0.6470
  696MOL0     H93943  11.278  10.095   6.387  2.5535 -1.9747  0.4929
  696MOL0     H93944   9.935   8.733   6.213 -1.9792  2.4938 -0.3863
  696MOL0     H93945   9.813   8.532   6.199 -2.8163  1.2851 -0.7583
  696MOL0     H93946   9.535   8.261   5.947 -3.8285 -2.4803  0.0075
  696MOL0     H93947   9.386   8.077   5.943  0.7422  3.6147 -2.0890
  696MOL0     H93948   9.506   7.724   6.159  0.3675 -1.0068  0.0940
  696MOL0     H93949   9.502   7.628   6.016 -2.3472 -1.1531  0.3971
  696MOL0     H93950   9.293   7.693   6.204  1.3076 -0.7779  0.8870
  696MOL0     H93951   9.308   7.545   6.111  2.3512  0.2002  1.9645
  696MOL0     H93952   9.182   7.652   5.910 -2.4436  3.9006 -2.8596
  696MOL0     H93953   9.172   7.799   6.000  0.9055 -0.0140 -2.3739
  696MOL0     H93954   9.073   7.550   6.144  2.4135 -1.9465 -1.2968
  696MOL0     H93955   9.051   7.727   6.148 -4.0637 -0.7774 -0.1624
  696MOL0     H93956   8.787   7.589   5.838 -0.7648 -0.6164  0.9722
  696MOL0     H93957   9.672   7.805   6.038 -1.5587 -0.1167  0.4751
  696MOL0     H93958   9.954   7.988   5.934 -3.2738 -1.6363 -1.9831
  696MOL0     H93959   9.947   8.003   6.120  0.6389  0.6253 -0.6703
  696MOL0     H93960   9.910   7.857   6.052  1.6298  0.5503  0.0700
  697MOL0     O93961   3.362   1.674  10.908  0.5745  0.3620 -0.8610
  697MOL0     C93962   3.376   1.596  10.817  0.1577  0.2739 -0.0761
  697MOL0     O93963   3.497   1.581  10.749  0.2214 -0.1712  0.0742
  697MOL0     C93964   3.612   1.649  10.799  0.2335  0.8172 -0.4605
  697MOL0     C93965   3.655   1.688  10.933  0.2468  0.8321  0.8867
  697MOL0     C93966   3.771   1.771  10.947  0.3720  0.2696 -0.2413
  697MOL0     C93967   3.854   1.805  10.837 -0.0384  0.3021 -0.4177
  697MOL0     O93968   3.974   1.880  10.860 -0.0839  0.2561  0.0874
  697MOL0     C93969   4.055   1.856  10.974  0.7434  0.4473  0.0920
  697MOL0     C93970   4.199   1.918  10.952  0.7152  0.2071 -0.1615
  697MOL0     C93971   4.293   1.887  11.067 -0.0464  0.1581  0.1198
  697MOL0     C93972   4.421   1.979  11.082  0.3725 -0.0104  0.6944
  697MOL0     C93973   4.507   1.963  10.959 -0.5736 -0.1112  0.4975
  697MOL0     C93974   4.624   2.068  10.949  0.3277  0.2536  1.0415
  697MOL0     C93975   4.709   2.053  10.820  0.2118  0.3918 -0.2266
  697MOL0     C93976   4.803   1.932  10.813  0.2442  0.2436  0.6371
  697MOL0     N93977   4.918   1.948  10.915  0.5181  0.3804  0.1805
  697MOL0     C93978   5.038   1.882  10.907 -0.1335  0.3470 -0.4626
  697MOL0     C93979   5.105   1.896  11.026  0.2437 -0.3035 -0.0757
  697MOL0     C93980   5.240   1.832  11.039  1.0512 -0.1701  0.1250
  697MOL0     C93981   5.258   1.766  11.181  0.5366  0.4786 -0.2374
  697MOL0     C93982   5.332   1.857  11.274 -0.1750  0.5492 -1.4651
  697MOL0     C93983   5.350   1.791  11.411 -0.1321 -0.3292 -0.0795
  697MOL0     O93984   5.387   1.661  11.408  1.0255  0.4748  0.2950
  697MOL0     C93985   5.506   1.615  11.359  0.7417 -0.4288  0.2023
  697MOL0     C93986   5.515   1.476  11.332 -0.0644 -0.2374  0.7505
  697MOL0     C93987   5.623   1.430  11.264 -0.4339 -1.5089 -0.2020
  697MOL0     C93988   5.743   1.506  11.236 -0.0544  0.3869 -0.1105
  697MOL0     C93989   5.868   1.455  11.174  0.3274 -0.0948 -0.7582
  697MOL0     O93990   5.960   1.539  11.115  0.4688  0.0893  0.1569
  697MOL0     C93991   6.085   1.491  11.078  0.4987  0.1879 -0.1915
  697MOL0     C93992   6.124   1.478  10.945  0.6577 -0.2517 -0.3239
  697MOL0     C93993   6.253   1.437  10.920 -1.3243  0.0841  0.4133
  697MOL0     C93994   6.348   1.417  11.023 -0.7986  0.1470 -0.3498
  697MOL0     O93995   6.483   1.379  11.010  0.0536  0.0783 -0.3400
  697MOL0     C93996   6.529   1.366  10.879  0.4755  0.2400 -0.2082
  697MOL0     C93997   6.676   1.319  10.875  0.2844  0.4516 -0.4734
  697MOL0     C93998   6.684   1.172  10.929  0.2654 -0.1995 -0.1064
  697MOL0     C93999   6.810   1.135  10.999  0.8258  0.1581  0.7136
  697MOL0     C94000   6.811   0.983  11.017  0.4065  0.0366  0.1400
  697MOL0     C94001   6.924   0.938  11.104  0.3410  0.5562 -0.4998
  697MOL0     C94002   6.928   0.787  11.112 -0.4975  0.5298 -0.3257
  697MOL0     C94003   7.067   0.732  11.181 -0.3492  0.3569 -0.0177
  697MOL0    Cl94004   7.073   0.748  11.357  0.5056 -0.2620  0.2906
  697MOL0     C94005   6.308   1.437  11.154  0.6634 -0.1761 -0.0070
  697MOL0     C94006   6.178   1.478  11.184 -0.1303 -0.0510  0.0409
  697MOL0     O94007   5.886   1.336  11.206 -0.0223 -0.3519  0.0360
  697MOL0     C94008   5.727   1.646  11.261  0.5940 -0.4372  0.3987
  697MOL0     C94009   5.616   1.701  11.326  0.8787  0.1165 -0.5691
  697MOL0     N94010   5.032   1.980  11.107 -0.5585  0.4474  0.0240
  697MOL0     N94011   4.931   2.011  11.039  0.5435  0.2545  0.5347
  697MOL0     C94012   3.813   1.767  10.714  0.3045  0.4913  0.0142
  697MOL0     C94013   3.697   1.692  10.699 -0.6707 -0.2446 -0.0781
  697MOL0     C94014   3.266   1.513  10.764  0.1154 -0.4531 -0.6928
  697MOL0     C94015   3.288   1.420  10.665  1.4849  0.0164  0.0255
  697MOL0     C94016   3.189   1.333  10.613 -0.1630 -0.6018 -0.4169
  697MOL0     C94017   3.055   1.345  10.656 -0.7208  0.3509  0.1014
  697MOL0     O94018   2.952   1.273  10.604 -0.1112  0.0411 -0.5727
  697MOL0     C94019   2.980   1.154  10.534 -0.0771  0.3487  0.5980
  697MOL0     C94020   2.838   1.101  10.490 -0.0568  0.4583 -1.0056
  697MOL0     C94021   2.742   1.097  10.620 -0.3008  0.4071  0.4301
  697MOL0     C94022   2.609   1.031  10.584 -1.0650 -1.5576  0.0167
  697MOL0     C94023   2.626   0.886  10.621 -0.3772 -0.0359  0.2577
  697MOL0     C94024   2.644   0.769  10.665 -0.0414 -0.4047 -0.0566
  697MOL0     C94025   3.026   1.444  10.752  0.1789  0.0533  0.3609
  697MOL0     C94026   3.131   1.521  10.809 -0.2039 -0.8343  0.0659
  697MOL0     C94027   3.076   1.633  10.901 -0.1366 -0.9233 -0.0296
  697MOL0     H94028   3.604   1.656  11.023  0.2505  0.7293  0.8532
  697MOL0     H94029   3.806   1.787  11.048 -1.9150 -0.7218  0.7758
  697MOL0     H94030   4.002   1.905  11.055 -0.5223 -0.6313 -0.0494
  697MOL0     H94031   4.064   1.750  11.001  1.8700  0.6180  0.4491
  697MOL0     H94032   4.182   2.025  10.944  2.3465  0.4607 -0.5475
  697MOL0     H94033   4.236   1.880  10.856 -0.7715  0.7231 -0.9691
  697MOL0     H94034   4.328   1.784  11.060  0.7070  0.3103  1.4159
  697MOL0     H94035   4.250   1.883  11.167 -2.7010 -4.6149 -0.8806
  697MOL0     H94036   4.383   2.080  11.103 -1.4966 -0.2602 -1.2400
  697MOL0     H94037   4.480   1.941  11.167  2.0627  2.2154  0.6095
  697MOL0     H94038   4.555   1.865  10.959  0.3470  0.3091 -0.6099
  697MOL0     H94039   4.450   1.972  10.867  0.2446  0.4328  0.0239
  697MOL0     H94040   4.579   2.167  10.955 -4.7647 -1.7826  2.9558
  697MOL0     H94041   4.682   2.048  11.039  0.2034 -3.7569  0.4221
  697MOL0     H94042   4.772   2.142  10.822  1.7927 -0.6533  3.2749
  697MOL0     H94043   4.644   2.060  10.732  0.0456  3.9243  0.0478
  697MOL0     H94044   4.745   1.839  10.821  1.2718 -0.5262 -0.5694
  697MOL0     H94045   4.843   1.920  10.712  0.3712 -1.3612  0.8554
  697MOL0     H94046   5.064   1.814  10.827 -1.5916 -0.3916 -0.3514
  697MOL0     H94047   5.231   1.760  10.958  0.1150 -0.7885  0.7509
  697MOL0     H94048   5.315   1.908  11.017 -0.9328  1.4510 -1.5075
  697MOL0     H94049   5.164   1.733  11.226  0.3077 -0.1090 -1.1173
  697MOL0     H94050   5.312   1.671  11.177  0.4051  0.4281 -1.0018
  697MOL0     H94051   5.270   1.945  11.291 -1.5082 -0.6768  0.5312
  697MOL0     H94052   5.430   1.891  11.240  0.6157  1.2517  1.2289
  697MOL0     H94053   5.252   1.802  11.458 -0.3045 -0.8059 -0.3226
  697MOL0     H94054   5.430   1.850  11.457  0.2837 -1.4761  0.7172
  697MOL0     H94055   5.430   1.413  11.360 -0.5629 -0.8207 -1.8462
  697MOL0     H94056   5.600   1.329  11.234 -0.3029 -2.1573  1.7326
  697MOL0     H94057   6.070   1.494  10.852  0.3612  3.3675  0.3174
  697MOL0     H94058   6.290   1.433  10.818 -1.2639 -0.9642  0.4712
  697MOL0     H94059   6.477   1.289  10.821  0.9150 -0.2503  0.0408
  697MOL0     H94060   6.516   1.458  10.822 -2.5350  0.1745  0.2179
  697MOL0     H94061   6.716   1.329  10.773  0.5982 -0.7521 -0.4762
  697MOL0     H94062   6.730   1.390  10.939 -1.0631 -1.1065  2.5738
  697MOL0     H94063   6.603   1.159  11.001  0.9041  2.3807  1.2048
  697MOL0     H94064   6.669   1.106  10.844 -2.6703  2.0660 -1.5210
  697MOL0     H94065   6.812   1.186  11.096 -1.0443 -0.8988  1.3756
  697MOL0     H94066   6.899   1.170  10.946 -0.2194 -1.4453 -2.3177
  697MOL0     H94067   6.827   0.939  10.918  0.6095 -2.7854  1.3409
  697MOL0     H94068   6.712   0.948  11.048 -0.8810  0.7514 -2.8107
  697MOL0     H94069   7.017   0.985  11.071  0.2633 -0.2107 -1.8339
  697MOL0     H94070   6.904   0.979  11.204 -1.8467 -0.2980 -0.5390
  697MOL0     H94071   6.909   0.734  11.018 -2.3712 -1.2431  0.9748
  697MOL0     H94072   6.844   0.750  11.171  0.5146 -2.9676 -0.8536
  697MOL0     H94073   7.107   0.633  11.155  0.7996  1.2021 -1.5623
  697MOL0     H94074   7.140   0.801  11.139 -0.5103  0.2016 -0.5582
  697MOL0     H94075   6.383   1.433  11.233 -1.4695  1.0183  2.2030
  697MOL0     H94076   6.130   1.482  11.281  1.4754 -0.6771  0.9081
  697MOL0     H94077   5.815   1.705  11.235  1.3540 -2.5228 -2.2497
  697MOL0     H94078   5.619   1.806  11.355 -1.5111 -0.0763  0.5385
  697MOL0     H94079   3.863   1.784  10.619  1.4085 -1.0217  0.2841
  697MOL0     H94080   3.666   1.672  10.598  0.7624  2.3474 -1.1485
  697MOL0     H94081   3.389   1.415  10.626  0.9467  0.7858 -1.5537
  697MOL0     H94082   3.221   1.273  10.528  1.2262 -2.3396  1.2190
  697MOL0     H94083   3.046   1.083  10.585  1.1209 -0.8175 -2.3487
  697MOL0     H94084   3.021   1.175  10.435 -0.0038  0.2235  0.6011
  697MOL0     H94085   2.847   1.000  10.448 -5.5094 -1.4195  1.4171
  697MOL0     H94086   2.794   1.158  10.409 -1.5109  0.5204 -0.1976
  697MOL0     H94087   2.720   1.203  10.637 -0.8895  0.2754  0.5152
  697MOL0     H94088   2.788   1.044  10.704 -0.7707 -0.2943  0.2465
  697MOL0     H94089   2.529   1.068  10.649 -1.7119  1.9248 -2.4604
  697MOL0     H94090   2.573   1.041  10.481  0.8668 -2.3652 -0.8026
  697MOL0     H94091   2.644   0.671  10.708  0.6766 -0.5886 -0.4689
  697MOL0     H94092   2.921   1.450  10.780 -0.1757 -0.7185 -0.7386
  697MOL0     H94093   3.121   1.636  11.001  0.8625  1.3994 -0.4914
  697MOL0     H94094   3.105   1.730  10.860 -0.8374 -0.6482  0.1297
  697MOL0     H94095   2.968   1.635  10.913  0.0292  2.7249  2.1715
  698MOL0     O94096  10.935   0.301   3.859  0.4387 -0.4637  0.3347
  698MOL0     C94097  10.867   0.333   3.757  0.7102 -0.4641 -0.9298
  698MOL0     O94098  10.910   0.403   3.647 -0.1469  0.8437 -0.4439
  698MOL0     C94099  11.038   0.450   3.652  0.6997 -0.1129 -0.8565
  698MOL0     C94100  11.050   0.588   3.633 -0.4686  0.3648  0.5721
  698MOL0     C94101  11.172   0.640   3.606  0.3131 -0.3420 -0.3017
  698MOL0     C94102  11.285   0.562   3.589 -0.9308  0.5091 -0.5235
  698MOL0     O94103  11.407   0.618   3.555 -0.5061 -0.1142  0.1848
  698MOL0     C94104  11.416   0.637   3.415  0.8559 -0.0400 -0.2566
  698MOL0     C94105  11.558   0.643   3.380 -0.3583 -0.0264 -0.0109
  698MOL0     C94106  11.629   0.514   3.428 -0.1037  0.1915 -1.0316
  698MOL0     C94107  11.750   0.468   3.344  0.1600  0.0315 -0.4204
  698MOL0     C94108  11.827   0.365   3.426  0.2979 -0.0737 -0.7475
  698MOL0     C94109  11.951   0.310   3.348  0.8919 -0.7759  0.2289
  698MOL0     C94110  11.992   0.182   3.426 -0.5209  0.3410 -0.7505
  698MOL0     C94111  12.105   0.092   3.367  0.3017 -1.0218 -0.4538
  698MOL0     N94112  12.234   0.160   3.340 -0.8583 -1.0647  0.3137
  698MOL0     C94113  12.320   0.153   3.228 -0.3352  0.7132  0.5578
  698MOL0     C94114  12.444   0.198   3.277  0.1564 -0.3290  0.4436
  698MOL0     C94115  12.569   0.202   3.211 -0.3556  0.5245  0.5093
  698MOL0     C94116  12.673   0.109   3.255  0.8084 -0.5547 -0.2623
  698MOL0     C94117  12.643  -0.028   3.212 -0.1037  0.1539  1.5996
  698MOL0     C94118  12.746  -0.136   3.264  0.1059  0.5482  0.4390
  698MOL0     O94119  12.868  -0.116   3.187  0.3032  0.2365 -0.1010
  698MOL0     C94120  12.969  -0.038   3.237  0.9187 -0.1709  0.9110
  698MOL0     C94121  13.074  -0.003   3.149  0.3940 -0.1246 -0.9005
  698MOL0     C94122  13.190   0.072   3.192  0.0482 -0.5433  0.4683
  698MOL0     C94123  13.195   0.121   3.320 -0.8775  0.0957  0.2045
  698MOL0     C94124  13.314   0.200   3.363  0.3945  0.3586 -0.3896
  698MOL0     O94125  13.427   0.208   3.287  0.3803  0.0831  0.5523
  698MOL0     C94126  13.540   0.279   3.315  0.3407  0.1941  0.2765
  698MOL0     C94127  13.586   0.318   3.441  0.0324  0.5681  0.5946
  698MOL0     C94128  13.710   0.377   3.464 -0.3748 -0.5149 -0.7167
  698MOL0     C94129  13.800   0.400   3.365 -0.1101 -0.6491  0.3447
  698MOL0     O94130  13.925   0.459   3.382 -0.2506  0.8584  0.4921
  698MOL0     C94131  13.980   0.432   3.509  0.0307 -0.1979  0.0388
  698MOL0     C94132  14.123   0.447   3.490 -0.0738  1.4175 -0.2515
  698MOL0     C94133  14.176   0.347   3.392 -0.0153 -0.4902 -0.0266
  698MOL0     C94134  14.331   0.348   3.404  0.5152  0.9130 -0.3732
  698MOL0     C94135  14.383   0.467   3.316  0.3385  0.0703  0.5210
  698MOL0     C94136  14.539   0.460   3.278 -0.5900 -0.0197  0.5592
  698MOL0     C94137  14.584   0.536   3.152 -0.3405 -0.0701  0.0840
  698MOL0     C94138  14.652   0.666   3.183  0.4142  0.1063 -0.3606
  698MOL0    Cl94139  14.666   0.766   3.034  0.1876  0.1045 -0.1843
  698MOL0     C94140  13.755   0.359   3.235 -0.1515 -0.9747 -0.3721
  698MOL0     C94141  13.633   0.301   3.214  0.1126  0.3571 -0.9204
  698MOL0     O94142  13.296   0.264   3.465  0.2180  0.0186 -0.0808
  698MOL0     C94143  13.094   0.089   3.409 -0.1676 -0.6055  0.4362
  698MOL0     C94144  12.985   0.013   3.368  1.2139  0.2499  0.4026
  698MOL0     N94145  12.435   0.243   3.408  0.1099  0.2825 -0.6733
  698MOL0     N94146  12.309   0.209   3.438 -0.6014 -0.1213 -0.0765
  698MOL0     C94147  11.281   0.423   3.627 -0.5173  0.4306  0.6934
  698MOL0     C94148  11.154   0.366   3.647  0.4271  0.4446 -0.0646
  698MOL0     C94149  10.725   0.299   3.755 -0.5538  0.9239  0.9513
  698MOL0     C94150  10.636   0.369   3.665 -0.5415  0.3253 -0.4092
  698MOL0     C94151  10.503   0.335   3.647 -0.3527 -0.8967  0.2563
  698MOL0     C94152  10.448   0.223   3.710 -0.0657 -0.0199 -0.7261
  698MOL0     O94153  10.315   0.201   3.681  0.0388 -0.2472 -0.9806
  698MOL0     C94154  10.252   0.089   3.749  0.0173  0.2311 -0.2783
  698MOL0     C94155  10.120   0.044   3.692  0.2431 -0.3678  0.3243
  698MOL0     C94156  10.014   0.158   3.716  0.1638 -0.3876 -0.1817
  698MOL0     C94157   9.878   0.133   3.651 -0.2498 -0.0224 -0.3164
  698MOL0     C94158   9.883   0.163   3.499 -0.3413  0.7725 -1.0782
  698MOL0     C94159   9.894   0.193   3.380 -0.1084  0.7077 -0.6275
  698MOL0     C94160  10.535   0.149   3.796 -0.7015 -0.5842 -0.2699
  698MOL0     C94161  10.665   0.194   3.832 -1.0535 -0.3446 -1.0323
  698MOL0     C94162  10.740   0.122   3.946  0.2247 -0.3091 -0.0202
  698MOL0     H94163  10.959   0.647   3.635 -0.6660  0.1044 -0.1630
  698MOL0     H94164  11.179   0.748   3.596 -0.6846 -0.2277  0.0805
  698MOL0     H94165  11.366   0.554   3.364  0.1663  0.1593  0.0764
  698MOL0     H94166  11.359   0.727   3.392 -3.7741 -1.5038  3.8114
  698MOL0     H94167  11.605   0.729   3.429 -0.4826 -0.4769  0.9178
  698MOL0     H94168  11.568   0.651   3.271 -1.6644  0.3543 -0.1143
  698MOL0     H94169  11.558   0.431   3.430 -1.8144  1.5619  1.8260
  698MOL0     H94170  11.663   0.530   3.531 -2.6793 -1.7570  0.2688
  698MOL0     H94171  11.713   0.426   3.250 -0.9162  3.2765 -1.5617
  698MOL0     H94172  11.815   0.552   3.318  0.5836 -0.4366 -0.9035
  698MOL0     H94173  11.874   0.405   3.517 -0.5984  0.8753 -0.6871
  698MOL0     H94174  11.765   0.282   3.461  0.1780  1.3244  2.7679
  698MOL0     H94175  11.912   0.285   3.249 -0.2291 -0.4617  0.5750
  698MOL0     H94176  12.036   0.379   3.339  0.9808 -0.7759  1.0332
  698MOL0     H94177  11.905   0.119   3.447 -0.5887 -0.2319 -2.6097
  698MOL0     H94178  12.028   0.214   3.524  1.1823 -2.1270 -0.5032
  698MOL0     H94179  12.126   0.015   3.441  2.5928  2.6318  3.1373
  698MOL0     H94180  12.067   0.050   3.273 -0.1877  2.4672 -1.9701
  698MOL0     H94181  12.315   0.115   3.127  1.5089  2.9380 -0.4473
  698MOL0     H94182  12.539   0.182   3.107 -0.2226  5.7788 -0.8477
  698MOL0     H94183  12.616   0.301   3.211  1.4522 -0.1812 -2.6618
  698MOL0     H94184  12.772   0.136   3.219  1.4742 -1.1449  1.0457
  698MOL0     H94185  12.670   0.119   3.364 -0.4735  0.5888 -0.3655
  698MOL0     H94186  12.625  -0.048   3.105 -0.6391 -1.4357  1.9488
  698MOL0     H94187  12.547  -0.057   3.256 -1.3686 -1.2339 -1.7123
  698MOL0     H94188  12.708  -0.238   3.253  1.7662 -0.3453  2.4724
  698MOL0     H94189  12.751  -0.132   3.373 -0.7253  0.9457  0.4737
  698MOL0     H94190  13.055  -0.026   3.044  2.4167 -1.7604 -0.9807
  698MOL0     H94191  13.270   0.077   3.119  0.6193  1.5144  1.1630
  698MOL0     H94192  13.540   0.271   3.528  1.3928 -0.5312  0.7486
  698MOL0     H94193  13.751   0.399   3.562  1.0849 -1.2412 -1.1266
  698MOL0     H94194  13.961   0.507   3.586  2.3602 -1.1770  1.6898
  698MOL0     H94195  13.958   0.329   3.537 -0.4694 -0.6369 -1.8006
  698MOL0     H94196  14.149   0.545   3.448  2.8722  0.9248  0.2730
  698MOL0     H94197  14.174   0.442   3.586  3.6232  1.3536 -2.0471
  698MOL0     H94198  14.149   0.243   3.412  0.7438 -0.4393  1.3524
  698MOL0     H94199  14.144   0.359   3.288 -3.3018  0.3576  0.9655
  698MOL0     H94200  14.363   0.252   3.362 -2.3821  0.9116 -2.9342
  698MOL0     H94201  14.378   0.350   3.502  4.2379 -4.5192 -1.6250
  698MOL0     H94202  14.363   0.559   3.372 -0.8990  0.3823 -0.4108
  698MOL0     H94203  14.333   0.460   3.219  0.9133  0.7523  0.1650
  698MOL0     H94204  14.597   0.500   3.361  0.3896 -0.6741  0.2010
  698MOL0     H94205  14.558   0.354   3.263 -2.0404 -0.1883 -0.3381
  698MOL0     H94206  14.493   0.558   3.096  0.2573  0.6525 -0.6282
  698MOL0     H94207  14.652   0.473   3.094 -1.8379 -1.0474 -0.6591
  698MOL0     H94208  14.598   0.729   3.254  2.3151  0.6888  0.6209
  698MOL0     H94209  14.753   0.647   3.219  0.6171 -1.3150 -1.5665
  698MOL0     H94210  13.809   0.384   3.144 -2.5572  0.6804 -1.4536
  698MOL0     H94211  13.611   0.265   3.114  0.2810 -0.0294 -0.8206
  698MOL0     H94212  13.102   0.126   3.510  1.5486  1.4713 -0.3654
  698MOL0     H94213  12.916  -0.011   3.447  2.4341 -1.6824  0.9349
  698MOL0     H94214  11.371   0.363   3.630 -1.6692 -1.3677  0.7070
  698MOL0     H94215  11.134   0.260   3.649  0.8341  0.2239 -3.0312
  698MOL0     H94216  10.654   0.468   3.623 -1.8135 -0.0400 -1.9273
  698MOL0     H94217  10.441   0.392   3.579  0.2149  1.4506  1.5683
  698MOL0     H94218  10.223   0.111   3.853  0.6119  1.4740 -0.3651
  698MOL0     H94219  10.320   0.003   3.745 -0.1241  0.1761 -1.9186
  698MOL0     H94220  10.072  -0.042   3.739 -1.8548 -0.1945 -1.3266
  698MOL0     H94221  10.137   0.036   3.584  0.8705  3.0822  0.0333
  698MOL0     H94222  10.051   0.255   3.682 -1.7075 -0.0837 -1.5274
  698MOL0     H94223   9.984   0.162   3.822 -0.9495 -0.5955 -0.4722
  698MOL0     H94224   9.845   0.031   3.677  0.0696 -0.2506 -0.7923
  698MOL0     H94225   9.804   0.201   3.693  0.2098  0.8121 -0.8331
  698MOL0     H94226   9.889   0.222   3.276 -0.2646 -0.2774 -0.9023
  698MOL0     H94227  10.498   0.061   3.848  2.1310 -0.9762  1.3036
  698MOL0     H94228  10.757   0.186   4.033 -0.1747  2.8351 -2.0827
  698MOL0     H94229  10.664   0.054   3.984 -3.2482  3.8602  1.3877
  698MOL0     H94230  10.831   0.074   3.907  0.0156  0.5352 -1.6330
  699MOL0     O94231   2.937   4.324   0.764  1.3001  0.2632 -0.0265
  699MOL0     C94232   2.856   4.326   0.671 -0.4211 -0.9618  0.2281
  699MOL0     O94233   2.845   4.427   0.587 -0.2441  0.3270  0.2325
  699MOL0     C94234   2.956   4.503   0.559  0.7262  0.0110 -1.1649
  699MOL0     C94235   3.050   4.468   0.461  0.1370 -0.2836 -0.9859
  699MOL0     C94236   3.161   4.550   0.445  1.1101 -0.2011 -0.0999
  699MOL0     C94237   3.178   4.673   0.517  0.2145 -0.0623  1.7785
  699MOL0     O94238   3.281   4.761   0.495 -0.3233  1.0801  0.0793
  699MOL0     C94239   3.420   4.715   0.461  0.1303  0.3324 -0.3907
  699MOL0     C94240   3.508   4.707   0.590  0.1107 -0.1038  0.7020
  699MOL0     C94241   3.449   4.621   0.708  0.3693  0.1537  0.6576
  699MOL0     C94242   3.441   4.476   0.679 -0.7305  0.1071  0.4677
  699MOL0     C94243   3.365   4.404   0.790 -0.7576  0.2630  0.1920
  699MOL0     C94244   3.375   4.255   0.776 -0.1238  0.1576 -0.2424
  699MOL0     C94245   3.269   4.190   0.867 -0.4748 -0.1880  0.2048
  699MOL0     C94246   3.232   4.054   0.809  0.4789  0.2801 -0.7918
  699MOL0     N94247   3.119   3.984   0.880 -0.4053  0.2924 -0.2486
  699MOL0     C94248   3.086   3.983   1.010 -0.7965  0.0962 -0.8021
  699MOL0     C94249   3.001   3.877   1.033 -1.0708 -0.2338 -0.1219
  699MOL0     C94250   2.928   3.842   1.165 -0.3491  0.7442  0.1198
  699MOL0     C94251   2.776   3.850   1.132 -0.8824  0.0948  0.3727
  699MOL0     C94252   2.704   3.794   1.257  0.4063 -0.3319  1.3808
  699MOL0     C94253   2.551   3.790   1.217 -0.1735  0.9823  0.7040
  699MOL0     O94254   2.473   3.744   1.332  0.3460  0.2724  0.0864
  699MOL0     C94255   2.338   3.768   1.325 -0.2462 -0.2083 -0.9068
  699MOL0     C94256   2.274   3.718   1.434 -0.2377  0.2384 -0.9714
  699MOL0     C94257   2.140   3.731   1.444 -0.2042  0.8619 -0.9463
  699MOL0     C94258   2.064   3.800   1.346 -0.4358 -0.6177 -0.3788
  699MOL0     C94259   1.915   3.799   1.361 -0.1634  0.6933  0.0603
  699MOL0     O94260   1.847   3.867   1.275 -0.1052 -0.6555  0.0145
  699MOL0     C94261   1.711   3.847   1.269 -0.5250  1.0305 -0.2634
  699MOL0     C94262   1.665   3.788   1.154 -0.1996  0.2342  0.2672
  699MOL0     C94263   1.526   3.765   1.141  0.1597 -0.2670  0.4855
  699MOL0     C94264   1.434   3.811   1.239 -0.1446 -1.3261  0.3102
  699MOL0     O94265   1.299   3.799   1.218 -0.4976  0.0415 -0.4764
  699MOL0     C94266   1.215   3.857   1.317 -0.1324  0.5125  0.9123
  699MOL0     C94267   1.078   3.823   1.275  0.1306 -0.3574  0.1776
  699MOL0     C94268   0.981   3.930   1.337  0.5219 -0.1834  0.5181
  699MOL0     C94269   0.831   3.897   1.335 -0.2325 -0.5306  0.5946
  699MOL0     C94270   0.754   4.005   1.416  0.7422  0.1274  0.3348
  699MOL0     C94271   0.753   4.153   1.375 -0.1518  0.4106  0.0973
  699MOL0     C94272   0.673   4.177   1.248 -0.6434 -0.7417 -0.0514
  699MOL0     C94273   0.703   4.306   1.179 -0.1488 -0.4897 -0.1316
  699MOL0    Cl94274   0.629   4.439   1.279 -0.2678 -0.1563 -0.0790
  699MOL0     C94275   1.492   3.877   1.348  0.4735  0.1020  0.4553
  699MOL0     C94276   1.627   3.888   1.371  0.0116  0.4297 -0.0043
  699MOL0     O94277   1.866   3.731   1.452 -0.3144  0.2462  0.2851
  699MOL0     C94278   2.134   3.857   1.237  0.4916  0.5242 -1.1901
  699MOL0     C94279   2.270   3.842   1.231  0.0238 -0.6576  0.3435
  699MOL0     N94280   2.983   3.817   0.913  0.5738  0.5410 -0.2098
  699MOL0     N94281   3.061   3.871   0.828  0.0578 -0.0171 -0.3926
  699MOL0     C94282   3.068   4.715   0.595 -0.8302  0.1622  0.1924
  699MOL0     C94283   2.963   4.627   0.629  0.3256 -0.3904  0.7595
  699MOL0     C94284   2.758   4.217   0.667  0.4420 -0.7752 -0.1542
  699MOL0     C94285   2.780   4.117   0.765  0.4346 -0.4056  0.3632
  699MOL0     C94286   2.689   4.012   0.775 -1.0121 -0.5081 -0.1970
  699MOL0     C94287   2.576   4.000   0.699 -0.6237 -0.0323  0.2259
  699MOL0     O94288   2.483   3.897   0.716 -0.1091  0.2824  0.0105
  699MOL0     C94289   2.484   3.824   0.836 -0.2683 -0.3818 -0.1910
  699MOL0     C94290   2.356   3.739   0.849  0.0795 -0.2298 -1.2426
  699MOL0     C94291   2.239   3.836   0.845  0.0048 -1.0102  1.4381
  699MOL0     C94292   2.098   3.765   0.863  0.3370 -0.1632  0.2017
  699MOL0     C94293   1.996   3.871   0.879 -0.4055 -0.6108 -0.4333
  699MOL0     C94294   1.908   3.954   0.889  0.3728  0.1274  0.3451
  699MOL0     C94295   2.563   4.094   0.600 -0.5236 -0.6454 -0.4051
  699MOL0     C94296   2.646   4.203   0.581  0.0662 -0.3272  0.8528
  699MOL0     C94297   2.626   4.305   0.466 -0.4886  0.3978  0.2710
  699MOL0     H94298   3.036   4.373   0.411 -0.2996 -0.0160 -1.3786
  699MOL0     H94299   3.245   4.519   0.383  0.8996 -0.7884 -0.0963
  699MOL0     H94300   3.432   4.616   0.415  0.5044 -0.6997  1.7977
  699MOL0     H94301   3.449   4.795   0.392  4.5722 -1.9117 -1.5132
  699MOL0     H94302   3.532   4.807   0.626  4.0174 -0.7360  0.3623
  699MOL0     H94303   3.604   4.667   0.557  0.3828  1.2845 -0.2509
  699MOL0     H94304   3.351   4.654   0.743  0.5480  1.4936 -0.0577
  699MOL0     H94305   3.524   4.636   0.787  2.7345  0.7741 -1.5895
  699MOL0     H94306   3.397   4.467   0.579  0.3923  0.7662 -0.1036
  699MOL0     H94307   3.540   4.430   0.674 -1.4685 -1.4987 -0.0669
  699MOL0     H94308   3.399   4.438   0.888  0.3833 -2.1115  0.7116
  699MOL0     H94309   3.262   4.438   0.778 -0.2153  2.3139  1.0190
  699MOL0     H94310   3.343   4.228   0.675 -2.0830 -1.1681  0.6595
  699MOL0     H94311   3.476   4.226   0.805  0.4687  1.0229 -1.3411
  699MOL0     H94312   3.178   4.250   0.865 -0.6288 -0.4300 -0.2466
  699MOL0     H94313   3.308   4.177   0.968 -0.4837 -3.3109 -0.1204
  699MOL0     H94314   3.196   4.064   0.706 -0.8124 -1.1175 -0.5140
  699MOL0     H94315   3.324   3.995   0.817 -0.2844 -0.8586 -0.0233
  699MOL0     H94316   3.147   4.025   1.090 -1.2923  0.6891 -0.7226
  699MOL0     H94317   2.961   3.745   1.203  3.3628  0.4649 -3.0417
  699MOL0     H94318   2.950   3.913   1.245 -3.1613 -0.1569  1.8235
  699MOL0     H94319   2.741   3.951   1.107  0.8690  1.2380  2.2099
  699MOL0     H94320   2.755   3.788   1.045  2.7159  0.2139 -0.7465
  699MOL0     H94321   2.711   3.869   1.336 -1.1712  3.8058 -2.0038
  699MOL0     H94322   2.737   3.692   1.279 -0.9742 -1.4694 -1.3532
  699MOL0     H94323   2.526   3.716   1.140  2.1472 -0.8012  1.5462
  699MOL0     H94324   2.525   3.890   1.182 -0.3680  0.2125 -1.4996
  699MOL0     H94325   2.340   3.667   1.503 -0.5419 -1.1297 -1.6587
  699MOL0     H94326   2.094   3.669   1.520  2.2725 -1.6455 -1.3452
  699MOL0     H94327   1.731   3.741   1.082 -0.2767 -0.6921  0.7895
  699MOL0     H94328   1.501   3.716   1.048  0.6930 -1.1151  0.7781
  699MOL0     H94329   1.236   3.818   1.417 -1.7548 -0.9420  0.7236
  699MOL0     H94330   1.228   3.966   1.313  0.7023  0.3918 -0.0521
  699MOL0     H94331   1.061   3.830   1.167 -1.3447  3.7805  0.5001
  699MOL0     H94332   1.046   3.723   1.307  2.8994 -0.9992  1.1795
  699MOL0     H94333   1.016   3.946   1.439 -1.6343 -0.8583  1.4085
  699MOL0     H94334   1.009   4.022   1.284  3.7214  0.6471  3.3149
  699MOL0     H94335   0.819   3.793   1.367  3.1742 -1.1521  0.1984
  699MOL0     H94336   0.795   3.900   1.232 -0.0612  0.4301  0.5562
  699MOL0     H94337   0.803   3.997   1.514  1.3978 -4.5914 -0.1564
  699MOL0     H94338   0.653   3.966   1.430  0.7066  0.7989  2.3873
  699MOL0     H94339   0.694   4.207   1.449 -2.7013 -2.4461  0.3530
  699MOL0     H94340   0.852   4.199   1.366 -0.4953  1.1127 -0.1876
  699MOL0     H94341   0.564   4.169   1.258 -1.1760  4.1486  0.8734
  699MOL0     H94342   0.699   4.101   1.174  1.1350 -0.7299  0.5188
  699MOL0     H94343   0.811   4.319   1.186  0.3083  0.7340 -5.4493
  699MOL0     H94344   0.674   4.308   1.074  1.3881 -1.9385 -0.6222
  699MOL0     H94345   1.438   3.905   1.438  0.2202  2.2918 -0.3169
  699MOL0     H94346   1.668   3.941   1.457  4.4786 -2.6935  0.1569
  699MOL0     H94347   2.076   3.899   1.156 -0.8664 -3.3302 -2.4258
  699MOL0     H94348   2.326   3.874   1.144  0.1519  0.4491  0.8226
  699MOL0     H94349   3.073   4.813   0.641 -1.7040  2.4210 -4.0943
  699MOL0     H94350   2.889   4.664   0.699 -1.5837 -0.3104 -1.1627
  699MOL0     H94351   2.863   4.119   0.835  2.5456  2.6569 -1.9220
  699MOL0     H94352   2.700   3.939   0.853  1.5046 -0.9269 -0.8572
  699MOL0     H94353   2.492   3.888   0.925  2.2620 -1.5081  0.4796
  699MOL0     H94354   2.567   3.752   0.841 -1.3904 -1.8262 -1.4796
  699MOL0     H94355   2.359   3.683   0.943 -1.0837 -0.7184 -1.4792
  699MOL0     H94356   2.355   3.667   0.767  0.9388  0.4831 -1.8956
  699MOL0     H94357   2.226   3.892   0.752 -3.1922  0.0926  2.3952
  699MOL0     H94358   2.251   3.907   0.927  2.3178 -0.8521  1.0051
  699MOL0     H94359   2.062   3.707   0.777 -2.3727  0.8873  0.5205
  699MOL0     H94360   2.091   3.705   0.954 -0.9848  0.4350  0.5294
  699MOL0     H94361   1.820   4.014   0.900  0.4241 -0.0482  1.8794
  699MOL0     H94362   2.475   4.085   0.536 -0.6367  1.5159 -0.6330
  699MOL0     H94363   2.627   4.407   0.505 -0.2566  1.0858 -1.4633
  699MOL0     H94364   2.695   4.292   0.382 -2.2734 -0.1348 -1.1802
  699MOL0     H94365   2.530   4.296   0.415  0.2990 -2.9484 -0.8998
  700MOL0     O94366   0.966   0.549   1.174  0.0467 -0.7983 -0.6079
  700MOL0     C94367   0.905   0.656   1.155  0.4340  0.6039 -1.0295
  700MOL0     O94368   0.961   0.783   1.172  0.0566 -0.0562 -0.1077
  700MOL0     C94369   1.097   0.788   1.189 -0.3314  0.2853  0.0461
  700MOL0     C94370   1.161   0.832   1.308 -0.2499  0.1171 -0.2006
  700MOL0     C94371   1.302   0.838   1.315  0.0988  0.7938 -0.6947
  700MOL0     C94372   1.388   0.800   1.203 -0.0601 -1.0383  1.1036
  700MOL0     O94373   1.523   0.808   1.214  1.0087  0.0555  0.0903
  700MOL0     C94374   1.583   0.683   1.170 -0.9110 -0.3388  0.4711
  700MOL0     C94375   1.728   0.704   1.221 -0.2455  0.1583 -0.3705
  700MOL0     C94376   1.790   0.577   1.280 -0.3455  0.9933  0.0218
  700MOL0     C94377   1.905   0.619   1.370 -0.1184  0.4971 -0.4421
  700MOL0     C94378   1.985   0.503   1.427 -0.9490  0.4686 -0.4879
  700MOL0     C94379   1.913   0.391   1.495  0.8063 -0.0034  0.6633
  700MOL0     C94380   2.012   0.280   1.549 -0.5812 -0.5882 -0.7941
  700MOL0     C94381   1.955   0.149   1.608 -0.4464 -0.1982 -0.1201
  700MOL0     N94382   2.062   0.063   1.666  0.5847 -0.2954  0.0132
  700MOL0     C94383   2.121  -0.042   1.603  0.0559  0.0394  0.4746
  700MOL0     C94384   2.215  -0.095   1.688  0.2979 -0.2740 -0.7901
  700MOL0     C94385   2.309  -0.209   1.656 -0.3310  0.0913  0.8861
  700MOL0     C94386   2.451  -0.174   1.691 -0.0828 -0.6907  0.1398
  700MOL0     C94387   2.489  -0.174   1.842  0.2229 -0.4087 -0.1746
  700MOL0     C94388   2.634  -0.161   1.868  0.0951  0.7652 -0.1967
  700MOL0     O94389   2.697  -0.061   1.792  0.5522  0.1733  0.1420
  700MOL0     C94390   2.822  -0.017   1.810  1.1909  0.1507  0.4071
  700MOL0     C94391   2.870   0.079   1.725  0.2399  0.2684  0.0943
  700MOL0     C94392   3.013   0.113   1.723  0.0351 -0.3971 -0.1598
  700MOL0     C94393   3.101   0.057   1.820 -0.1378 -0.0560  0.8075
  700MOL0     C94394   3.248   0.079   1.815 -0.0515 -0.7059  0.3373
  700MOL0     O94395   3.318   0.007   1.901 -1.1557  0.0135 -0.1976
  700MOL0     C94396   3.447   0.039   1.930  0.0289  0.3325 -0.1204
  700MOL0     C94397   3.551  -0.058   1.904 -1.4550 -0.4811 -0.2633
  700MOL0     C94398   3.687  -0.016   1.926  0.0989  0.2187  0.1107
  700MOL0     C94399   3.712   0.108   1.992 -0.0849 -0.3329  0.3349
  700MOL0     O94400   3.838   0.144   2.031  0.4882  0.4488  0.1729
  700MOL0     C94401   3.862   0.265   2.089  0.2385 -0.7865  0.1447
  700MOL0     C94402   4.014   0.287   2.091  0.5562 -0.3010 -0.3779
  700MOL0     C94403   4.090   0.156   2.147 -0.3471  0.8791  1.2465
  700MOL0     C94404   4.242   0.176   2.123 -0.0186  0.3115  0.0055
  700MOL0     C94405   4.289   0.258   2.235 -0.6578  0.5862 -0.1906
  700MOL0     C94406   4.449   0.256   2.244 -0.1724 -1.0093  0.1364
  700MOL0     C94407   4.498   0.375   2.324  0.0411  0.7246 -0.0036
  700MOL0     C94408   4.642   0.384   2.328  0.8124 -0.0386 -0.2015
  700MOL0    Cl94409   4.695   0.510   2.450  0.0662 -0.1812  0.0870
  700MOL0     C94410   3.602   0.183   2.029 -0.1773  0.4509  0.2022
  700MOL0     C94411   3.481   0.157   1.995 -0.0521  0.7506  0.2637
  700MOL0     O94412   3.278   0.180   1.750 -0.5876 -0.0063  0.6724
  700MOL0     C94413   3.050  -0.048   1.902 -0.4393 -0.2619  0.9208
  700MOL0     C94414   2.911  -0.081   1.903  0.0400  0.2758  1.0079
  700MOL0     N94415   2.195  -0.030   1.811  0.2291  0.6006 -0.3914
  700MOL0     N94416   2.098   0.069   1.796 -1.1206  0.2278 -0.2484
  700MOL0     C94417   1.317   0.760   1.077 -0.1833 -0.0781 -0.3596
  700MOL0     C94418   1.174   0.758   1.074 -0.0857 -0.2595 -0.5034
  700MOL0     C94419   0.760   0.646   1.140  0.6911  0.0176 -0.2865
  700MOL0     C94420   0.687   0.765   1.143  0.0035  0.2995  0.7163
  700MOL0     C94421   0.550   0.761   1.131  0.5846  0.4560 -0.2796
  700MOL0     C94422   0.486   0.649   1.088  0.5481  0.7571 -0.0810
  700MOL0     O94423   0.346   0.654   1.058  0.8434  0.5650  0.0532
  700MOL0     C94424   0.264   0.538   1.090 -0.3939 -0.0391  0.2460
  700MOL0     C94425   0.239   0.513   1.244  0.2200 -0.2193 -0.1530
  700MOL0     C94426   0.186   0.652   1.311 -0.6435  0.5087 -0.3346
  700MOL0     C94427   0.106   0.636   1.442 -1.0224 -0.8363 -1.2344
  700MOL0     C94428   0.203   0.616   1.556  0.2087  0.2967  0.4067
  700MOL0     C94429   0.286   0.597   1.647  0.2301 -0.1783  0.4696
  700MOL0     C94430   0.558   0.530   1.082  0.6731 -0.0759  0.0229
  700MOL0     C94431   0.693   0.519   1.108  0.8360  0.4441  0.1214
  700MOL0     C94432   0.767   0.387   1.107  0.2639 -0.0036 -0.2412
  700MOL0     H94433   1.106   0.833   1.402  0.5775 -0.1941  0.3009
  700MOL0     H94434   1.347   0.866   1.410 -0.5210  0.6836 -0.3684
  700MOL0     H94435   1.536   0.601   1.225 -1.2455  0.3110  1.1746
  700MOL0     H94436   1.575   0.658   1.064 -0.8510 -1.9964  0.8222
  700MOL0     H94437   1.731   0.787   1.292 -0.8652  1.5023 -1.8333
  700MOL0     H94438   1.794   0.735   1.139  0.1157  0.8097  0.1511
  700MOL0     H94439   1.829   0.512   1.201 -2.3698 -1.8222  1.1749
  700MOL0     H94440   1.724   0.524   1.348  0.7684  1.1661  1.2667
  700MOL0     H94441   1.976   0.687   1.322  0.4882 -1.2518 -2.1465
  700MOL0     H94442   1.864   0.673   1.456  1.2382 -2.3912  2.2111
  700MOL0     H94443   2.038   0.460   1.341  0.0640  1.0369 -0.1737
  700MOL0     H94444   2.060   0.540   1.498  0.1094  0.3959 -1.5349
  700MOL0     H94445   1.857   0.433   1.579  0.8164  0.6630  0.3393
  700MOL0     H94446   1.843   0.341   1.427  0.5028 -1.4123  1.9675
  700MOL0     H94447   2.058   0.329   1.635 -0.3577  0.0668 -1.2778
  700MOL0     H94448   2.089   0.256   1.475 -1.2745 -0.9835 -1.4078
  700MOL0     H94449   1.886   0.176   1.689 -0.5554  1.1564 -0.6396
  700MOL0     H94450   1.901   0.098   1.528  0.9388 -0.8668 -0.6573
  700MOL0     H94451   2.111  -0.062   1.497  0.8173  1.1024  0.1781
  700MOL0     H94452   2.288  -0.298   1.715 -0.7887  1.0569  2.2386
  700MOL0     H94453   2.303  -0.226   1.549  0.3530  1.1165  0.6635
  700MOL0     H94454   2.513  -0.248   1.639 -0.5004  0.5842 -2.2837
  700MOL0     H94455   2.483  -0.079   1.647 -0.6235 -0.6335 -0.1278
  700MOL0     H94456   2.448  -0.259   1.899  0.3231 -0.3381  0.0011
  700MOL0     H94457   2.445  -0.078   1.871 -1.1317 -0.1733 -2.7435
  700MOL0     H94458   2.683  -0.252   1.832  2.0684  1.7992 -0.2712
  700MOL0     H94459   2.648  -0.139   1.974 -0.6569 -1.2829  0.3849
  700MOL0     H94460   2.800   0.125   1.655 -0.3732 -1.9504 -0.8366
  700MOL0     H94461   3.045   0.197   1.663 -1.3169  1.0351  1.0223
  700MOL0     H94462   3.515  -0.150   1.859 -2.9771  0.2218 -0.5728
  700MOL0     H94463   3.780  -0.065   1.898 -2.2881 -4.3166 -0.7844
  700MOL0     H94464   3.812   0.351   2.044  0.7585 -0.9012 -0.6783
  700MOL0     H94465   3.829   0.268   2.194  0.8553 -0.5090  0.3364
  700MOL0     H94466   4.045   0.306   1.988  2.1962 -0.4983  0.0442
  700MOL0     H94467   4.030   0.382   2.142 -2.7874  1.0027 -1.5032
  700MOL0     H94468   4.063   0.149   2.252  0.5574  0.9160  1.4943
  700MOL0     H94469   4.062   0.067   2.090 -1.7601  1.6887  0.6323
  700MOL0     H94470   4.272   0.215   2.025  2.0011  2.9636  1.5246
  700MOL0     H94471   4.289   0.078   2.128  0.8142  0.4560 -3.0200
  700MOL0     H94472   4.253   0.207   2.325  2.9384 -0.7187  0.6692
  700MOL0     H94473   4.259   0.363   2.239  0.0212  0.7534  2.5073
  700MOL0     H94474   4.487   0.163   2.287 -0.5791 -0.2128  2.3077
  700MOL0     H94475   4.489   0.262   2.142 -0.5359  1.5468  0.0943
  700MOL0     H94476   4.481   0.378   2.432 -0.3932 -0.9891  0.0016
  700MOL0     H94477   4.457   0.468   2.285  1.6227  0.6175 -2.1023
  700MOL0     H94478   4.666   0.291   2.381  0.4376  0.3079  0.5978
  700MOL0     H94479   4.687   0.407   2.231  0.8912 -1.0806 -0.4238
  700MOL0     H94480   3.619   0.276   2.082 -0.9789  1.1021 -0.6566
  700MOL0     H94481   3.401   0.219   2.033  0.8195  1.8370  0.3730
  700MOL0     H94482   3.119  -0.105   1.964  3.1572  1.4194 -1.1730
  700MOL0     H94483   2.883  -0.163   1.969  1.5575  0.1799  1.5666
  700MOL0     H94484   1.366   0.738   0.982 -1.5314 -0.0538 -1.0802
  700MOL0     H94485   1.116   0.730   0.987 -3.1514  1.7065  0.7346
  700MOL0     H94486   0.731   0.861   1.163  1.2207  0.2769 -1.5541
  700MOL0     H94487   0.481   0.843   1.144  0.4846  0.3353 -0.0441
  700MOL0     H94488   0.306   0.457   1.030 -1.9498  0.5029 -1.6480
  700MOL0     H94489   0.170   0.538   1.035 -0.6953  0.9254  0.7397
  700MOL0     H94490   0.332   0.480   1.291 -0.0104  1.7514  1.8360
  700MOL0     H94491   0.170   0.433   1.274 -0.6640  0.8573  0.7939
  700MOL0     H94492   0.119   0.695   1.236 -0.0407 -0.9347 -1.7647
  700MOL0     H94493   0.266   0.726   1.323 -0.9451  0.9686 -1.0824
  700MOL0     H94494   0.057   0.734   1.449  1.7768  0.7223 -1.9539
  700MOL0     H94495   0.037   0.552   1.441 -0.3737 -1.3764 -2.2519
  700MOL0     H94496   0.359   0.572   1.721 -0.0186 -0.1894  0.7093
  700MOL0     H94497   0.511   0.441   1.041  0.8677 -0.5263  0.7521
  700MOL0     H94498   0.705   0.303   1.075  0.3553 -0.0979 -0.1676
  700MOL0     H94499   0.849   0.391   1.034 -1.0563 -1.0240 -1.8399
  700MOL0     H94500   0.799   0.359   1.208  0.5884 -0.6047 -0.5043
  701MOL0     O94501   5.815   7.153   0.322  1.1714 -0.6082 -0.5444
  701MOL0     C94502   5.810   7.031   0.311 -0.3989 -0.1291 -0.0182
  701MOL0     O94503   5.905   6.958   0.255 -0.2023 -0.4513  0.3688
  701MOL0     C94504   6.034   6.996   0.238  1.3071 -0.1168  0.1403
  701MOL0     C94505   6.093   6.950   0.121 -0.0254  0.6608 -0.2402
  701MOL0     C94506   6.230   6.975   0.100 -0.4362 -0.1345 -0.5825
  701MOL0     C94507   6.308   7.043   0.194  0.3981 -0.2228 -0.1803
  701MOL0     O94508   6.442   7.077   0.176 -0.3782 -0.3487 -0.1128
  701MOL0     C94509   6.519   6.998   0.089 -0.0367  0.2633  0.2192
  701MOL0     C94510   6.664   7.029   0.104  0.1985  0.0665  0.0893
  701MOL0     C94511   6.706   7.153   0.021  0.5087  0.1110 -0.6481
  701MOL0     C94512   6.865   7.155   0.029  0.0896  0.2347  0.1301
  701MOL0     C94513   6.921   7.293  -0.017  0.2067  0.0375 -0.7232
  701MOL0     C94514   7.072   7.285  -0.020 -0.6131 -0.2473  1.0915
  701MOL0     C94515   7.136   7.418  -0.059 -0.3448 -0.0455 -0.0337
  701MOL0     C94516   7.288   7.425  -0.070 -1.5243 -0.4286  0.6599
  701MOL0     N94517   7.345   7.387   0.062 -0.7560 -0.4565  0.8705
  701MOL0     C94518   7.314   7.449   0.180 -0.0002 -0.4407  0.5131
  701MOL0     C94519   7.397   7.386   0.274  0.7229  0.5897  0.7794
  701MOL0     C94520   7.394   7.396   0.422 -0.0488 -0.5292 -0.6424
  701MOL0     C94521   7.533   7.412   0.488 -0.7277 -0.9884  0.2974
  701MOL0     C94522   7.589   7.283   0.555  0.1218 -1.1106  0.7876
  701MOL0     C94523   7.740   7.280   0.565  0.2953  0.1882  0.1427
  701MOL0     O94524   7.784   7.146   0.617  0.8141 -0.8402  0.5333
  701MOL0     C94525   7.920   7.125   0.624  0.3627 -0.6300  0.7298
  701MOL0     C94526   7.964   7.024   0.717 -0.3826  0.4505 -0.1693
  701MOL0     C94527   8.098   7.005   0.730  0.1337 -0.1697 -0.4425
  701MOL0     C94528   8.203   7.081   0.666 -0.3698  0.1262 -0.4891
  701MOL0     C94529   8.347   7.069   0.688  0.0274  0.1113  0.7242
  701MOL0     O94530   8.380   6.977   0.782  0.1282  0.0453 -0.4284
  701MOL0     C94531   8.514   6.953   0.823  0.1471  0.0781  1.1626
  701MOL0     C94532   8.547   6.832   0.889 -0.4743 -0.7309 -0.2596
  701MOL0     C94533   8.676   6.792   0.928  0.4473 -0.6702  0.8254
  701MOL0     C94534   8.781   6.877   0.893 -0.4247 -0.4234 -0.0115
  701MOL0     O94535   8.910   6.847   0.911 -0.2967  0.7149 -0.6723
  701MOL0     C94536   8.954   6.868   1.053  0.3956  0.2473 -0.2499
  701MOL0     C94537   9.102   6.855   1.054 -0.5527  0.6372 -0.1922
  701MOL0     C94538   9.166   6.955   0.952 -0.7009 -0.1777  0.3033
  701MOL0     C94539   9.319   6.964   0.960  0.6908  0.6092  1.0828
  701MOL0     C94540   9.354   7.083   0.863 -0.9222 -0.3036 -0.5385
  701MOL0     C94541   9.498   7.111   0.862 -0.1069 -0.2301  0.2215
  701MOL0     C94542   9.521   7.224   0.753  0.9748  0.1182 -0.0006
  701MOL0     C94543   9.483   7.360   0.807  0.1802 -0.2567  0.6040
  701MOL0    Cl94544   9.575   7.398   0.962  0.0042 -0.0851  0.3322
  701MOL0     C94545   8.758   6.998   0.831  0.6263  0.1327  0.5996
  701MOL0     C94546   8.629   7.034   0.793  0.3622 -0.0410  0.2803
  701MOL0     O94547   8.425   7.136   0.626  0.2097 -0.1518  0.1275
  701MOL0     C94548   8.156   7.167   0.567  0.1879 -0.6008  0.2971
  701MOL0     C94549   8.018   7.191   0.551  0.2590 -0.2005 -0.8438
  701MOL0     N94550   7.483   7.289   0.216 -0.3415 -0.0126  0.2270
  701MOL0     N94551   7.451   7.297   0.088 -0.0222  0.3763  1.0636
  701MOL0     C94552   6.244   7.102   0.305  0.3872 -0.2320 -0.1319
  701MOL0     C94553   6.104   7.084   0.321 -0.3077 -0.4164 -0.3855
  701MOL0     C94554   5.676   6.968   0.306 -0.1105 -0.2208 -0.6040
  701MOL0     C94555   5.678   6.830   0.277 -0.1521  0.1052 -0.6024
  701MOL0     C94556   5.558   6.760   0.284  0.3038  0.8962 -0.2223
  701MOL0     C94557   5.436   6.817   0.318 -0.0173 -0.3520 -0.2788
  701MOL0     O94558   5.332   6.731   0.317 -0.0991  0.1121 -0.0309
  701MOL0     C94559   5.196   6.787   0.315  0.1580  0.0588 -0.2745
  701MOL0     C94560   5.094   6.678   0.281  0.2739 -0.2214  0.1899
  701MOL0     C94561   4.958   6.751   0.260  0.2821 -0.0136  0.8680
  701MOL0     C94562   4.841   6.657   0.261  0.0985  0.1098  0.9910
  701MOL0     C94563   4.827   6.608   0.393 -0.2452 -0.7708  0.8999
  701MOL0     C94564   4.790   6.578   0.510 -0.0828 -0.8759 -0.0585
  701MOL0     C94565   5.429   6.954   0.341 -0.6096  0.7046  0.4271
  701MOL0     C94566   5.550   7.033   0.338  1.4133  0.6728  0.4011
  701MOL0     C94567   5.531   7.179   0.349  0.2169 -0.1596  0.0233
  701MOL0     H94568   6.024   6.897   0.056  0.4209 -1.7984  1.1607
  701MOL0     H94569   6.276   6.933   0.011 -2.3426  1.5862 -2.4862
  701MOL0     H94570   6.510   6.891   0.112  0.5158 -0.4395 -2.4604
  701MOL0     H94571   6.486   7.014  -0.014  0.0347 -0.9415 -0.0052
  701MOL0     H94572   6.718   6.938   0.076  0.5099 -0.1939  1.4769
  701MOL0     H94573   6.675   7.036   0.213 -2.9768  0.9247  0.4535
  701MOL0     H94574   6.661   7.246   0.055  1.2702  1.6410 -3.5256
  701MOL0     H94575   6.686   7.144  -0.086  1.8208  0.6967 -0.9661
  701MOL0     H94576   6.899   7.125   0.129  1.8572 -0.8059 -0.7491
  701MOL0     H94577   6.901   7.083  -0.045 -1.5302  1.6639 -2.1894
  701MOL0     H94578   6.883   7.322  -0.115 -1.7441 -1.0933 -0.3569
  701MOL0     H94579   6.892   7.367   0.059  5.3056 -0.2816  1.9769
  701MOL0     H94580   7.094   7.260   0.084 -1.2556  0.5003  1.4167
  701MOL0     H94581   7.103   7.202  -0.083 -3.0411 -1.2635  1.1455
  701MOL0     H94582   7.104   7.493   0.013  0.2939 -1.9536  2.3659
  701MOL0     H94583   7.103   7.457  -0.156  1.1422  0.6749 -0.2776
  701MOL0     H94584   7.339   7.373  -0.151 -1.3814 -0.1192  0.5472
  701MOL0     H94585   7.322   7.529  -0.081  2.9273 -1.6206  1.2600
  701MOL0     H94586   7.240   7.526   0.199  3.0881  2.2971  2.6774
  701MOL0     H94587   7.328   7.474   0.461 -0.5025 -2.3657  2.7054
  701MOL0     H94588   7.348   7.300   0.449  0.6200 -0.6225  0.2233
  701MOL0     H94589   7.600   7.452   0.411 -1.1508  0.5667  0.6944
  701MOL0     H94590   7.528   7.480   0.574  0.1025 -2.6309  1.7203
  701MOL0     H94591   7.541   7.202   0.498 -2.3878  0.7452  0.0617
  701MOL0     H94592   7.544   7.280   0.655 -2.3872 -0.0284 -0.1990
  701MOL0     H94593   7.768   7.362   0.632 -1.5022  1.2362 -0.3253
  701MOL0     H94594   7.781   7.302   0.466 -0.2378 -0.8156 -0.3159
  701MOL0     H94595   7.896   6.965   0.779 -1.3740  0.6721 -1.0137
  701MOL0     H94596   8.137   6.933   0.801  1.1856  0.3912 -0.4365
  701MOL0     H94597   8.468   6.765   0.922  0.5276 -0.9966  1.6681
  701MOL0     H94598   8.692   6.692   0.965  0.2434 -1.1608 -0.3811
  701MOL0     H94599   8.934   6.969   1.089  2.0803  0.8011 -0.7651
  701MOL0     H94600   8.897   6.801   1.118 -1.4753  0.1674 -1.8829
  701MOL0     H94601   9.131   6.886   1.155  0.1358  1.5952 -0.6688
  701MOL0     H94602   9.141   6.756   1.031  0.9379  1.0907  0.2729
  701MOL0     H94603   9.147   6.918   0.851  1.5109 -2.6118  0.6612
  701MOL0     H94604   9.112   7.050   0.958  0.0581  0.2579  0.4104
  701MOL0     H94605   9.362   6.870   0.925  1.2139  1.5508 -0.9094
  701MOL0     H94606   9.348   6.988   1.063  2.3758  0.9168  0.5607
  701MOL0     H94607   9.307   7.171   0.909 -1.5664 -2.2879  2.9535
  701MOL0     H94608   9.311   7.065   0.764 -0.6265 -2.1429 -0.3567
  701MOL0     H94609   9.532   7.142   0.961  1.2397  1.2121 -0.6493
  701MOL0     H94610   9.550   7.020   0.830  0.2151 -2.0937  5.2184
  701MOL0     H94611   9.477   7.195   0.657 -1.9796  0.6212  1.0824
  701MOL0     H94612   9.628   7.237   0.734  1.2560  6.2002  3.1146
  701MOL0     H94613   9.512   7.432   0.730 -1.4875 -0.7089 -0.4972
  701MOL0     H94614   9.374   7.359   0.815 -0.1120  3.6549 -0.8296
  701MOL0     H94615   8.841   7.059   0.798  0.1616  0.6936  0.4458
  701MOL0     H94616   8.625   7.131   0.744 -3.3290 -0.3255 -0.3022
  701MOL0     H94617   8.218   7.235   0.510  0.6021 -2.0289 -1.0367
  701MOL0     H94618   7.992   7.274   0.487  0.6388  0.8662  0.3513
  701MOL0     H94619   6.302   7.170   0.368  1.7771 -1.4535 -0.0429
  701MOL0     H94620   6.049   7.112   0.410  0.3702  2.0253 -0.6622
  701MOL0     H94621   5.764   6.765   0.261  3.4367  3.8400  1.6979
  701MOL0     H94622   5.556   6.652   0.275  2.7089  0.6803  1.1055
  701MOL0     H94623   5.202   6.866   0.239  2.2404 -1.3561 -1.6766
  701MOL0     H94624   5.166   6.836   0.408 -1.4361 -1.2955 -0.0385
  701MOL0     H94625   5.093   6.603   0.360 -0.1133 -1.6013 -1.0839
  701MOL0     H94626   5.107   6.632   0.183 -0.8747 -0.1405 -0.0174
  701MOL0     H94627   4.961   6.813   0.170  2.9964 -0.2499  0.7188
  701MOL0     H94628   4.948   6.813   0.350  1.5836  2.5519 -0.6381
  701MOL0     H94629   4.749   6.707   0.230 -0.7473  0.6533  4.0475
  701MOL0     H94630   4.861   6.574   0.192  0.0245  0.8852  0.0105
  701MOL0     H94631   4.754   6.556   0.608 -0.3774 -4.9719 -0.9263
  701MOL0     H94632   5.331   6.996   0.360 -0.7041  0.4041  0.6085
  701MOL0     H94633   5.558   7.231   0.256 -0.1603 -0.5227 -0.2973
  701MOL0     H94634   5.430   7.205   0.382 -0.6121 -2.3049 -0.6354
  701MOL0     H94635   5.605   7.219   0.418 -1.3978  1.2453  1.0135
  702MOL0     O94636   6.408   4.175   1.476 -0.3556  0.7869  0.6899
  702MOL0     C94637   6.504   4.163   1.548  0.4603 -0.6421 -0.4134
  702MOL0     O94638   6.639   4.143   1.505 -0.4113 -0.1939  0.1212
  702MOL0     C94639   6.671   4.173   1.373 -0.4471  0.4110 -0.5884
  702MOL0     C94640   6.633   4.285   1.307 -0.8030  0.2884 -0.7079
  702MOL0     C94641   6.689   4.320   1.185 -0.7262 -0.3599 -0.2294
  702MOL0     C94642   6.774   4.226   1.124 -1.2663 -0.5599  0.5841
  702MOL0     O94643   6.825   4.230   1.001 -0.1430 -0.4781  0.3578
  702MOL0     C94644   6.824   4.360   0.936 -0.4436 -0.7514  0.5528
  702MOL0     C94645   6.938   4.456   1.000 -0.5334  0.3951  0.2331
  702MOL0     C94646   7.073   4.384   0.995 -1.1260  0.7370 -0.2255
  702MOL0     C94647   7.183   4.484   1.034 -0.1588  1.0828 -0.5271
  702MOL0     C94648   7.310   4.459   0.950 -0.2556  0.7012  0.0423
  702MOL0     C94649   7.358   4.313   0.975  0.5920  0.4100 -0.5731
  702MOL0     C94650   7.501   4.283   0.944  0.2086  0.3669 -1.1192
  702MOL0     C94651   7.522   4.137   0.969 -0.1517 -0.0028  0.2101
  702MOL0     N94652   7.660   4.106   0.939  0.4055 -0.3306 -0.3520
  702MOL0     C94653   7.706   3.980   0.952  1.5167 -0.0678 -0.3231
  702MOL0     C94654   7.803   3.960   0.866  0.4949 -0.3094 -0.3483
  702MOL0     C94655   7.893   3.843   0.848  0.0458 -0.4072 -0.6712
  702MOL0     C94656   7.954   3.774   0.979 -0.3280  0.6173  0.1040
  702MOL0     C94657   8.057   3.871   1.043 -0.7958  0.9714 -0.7651
  702MOL0     C94658   8.182   3.885   0.962  0.2894 -0.1373 -0.4855
  702MOL0     O94659   8.273   3.945   1.051  0.0320 -0.3334 -0.2811
  702MOL0     C94660   8.402   3.952   1.020  0.1071 -0.1647  0.0942
  702MOL0     C94661   8.457   3.910   0.899  0.4278  0.2057  0.8521
  702MOL0     C94662   8.589   3.914   0.870  0.0869  0.5876 -0.3409
  702MOL0     C94663   8.684   3.959   0.964  0.6289 -0.2780 -1.0653
  702MOL0     C94664   8.827   3.958   0.953 -0.3453 -0.5629  0.8787
  702MOL0     O94665   8.889   4.055   1.017 -0.8612 -0.1035  0.3216
  702MOL0     C94666   9.023   4.080   1.025 -0.4936 -0.5376 -0.7136
  702MOL0     C94667   9.075   4.118   1.154 -0.8132  0.0326  0.0794
  702MOL0     C94668   9.207   4.150   1.180  0.7188  0.7456  0.5779
  702MOL0     C94669   9.303   4.141   1.073 -0.0732  0.2426 -0.0192
  702MOL0     O94670   9.432   4.159   1.096 -0.2003  0.0818  0.1981
  702MOL0     C94671   9.477   4.207   1.223  0.3272 -0.8215 -0.1714
  702MOL0     C94672   9.624   4.210   1.251 -0.0990 -0.2848  1.1713
  702MOL0     C94673   9.705   4.288   1.149 -0.2321 -0.2542 -0.1332
  702MOL0     C94674   9.836   4.332   1.215  0.9261  0.2416  0.5429
  702MOL0     C94675   9.925   4.412   1.113  0.7098 -0.4756 -0.2018
  702MOL0     C94676  10.056   4.466   1.160 -0.6055  0.0010  0.5507
  702MOL0     C94677  10.152   4.368   1.232  0.2361  0.9091  0.4411
  702MOL0     C94678  10.282   4.431   1.273 -0.8185 -1.3725  0.5471
  702MOL0    Cl94679  10.390   4.467   1.127 -0.2727 -0.0895 -0.2736
  702MOL0     C94680   9.259   4.089   0.948  0.5953 -0.1263  0.0626
  702MOL0     C94681   9.120   4.062   0.922  0.6905 -1.3708 -0.0457
  702MOL0     O94682   8.872   3.878   0.871 -0.6127 -0.7467 -0.0875
  702MOL0     C94683   8.630   4.004   1.085  0.1830  0.0231 -0.4160
  702MOL0     C94684   8.494   4.004   1.107  0.7633  0.0906  0.0362
  702MOL0     N94685   7.829   4.085   0.808 -0.2155 -0.5360  0.3042
  702MOL0     N94686   7.742   4.173   0.850 -0.2609 -0.7934  1.0772
  702MOL0     C94687   6.805   4.110   1.181 -0.2458  0.5770 -0.8208
  702MOL0     C94688   6.761   4.087   1.316 -0.2805  0.1983  0.1450
  702MOL0     C94689   6.461   4.170   1.697 -0.1670  0.6531 -0.6971
  702MOL0     C94690   6.326   4.155   1.731 -0.0732  0.0773 -0.0599
  702MOL0     C94691   6.290   4.151   1.867  0.8174  0.1561  0.0296
  702MOL0     C94692   6.381   4.153   1.972 -1.3242  0.5289  0.2865
  702MOL0     O94693   6.352   4.146   2.109  0.3220  0.9401 -0.5495
  702MOL0     C94694   6.209   4.151   2.139 -0.6024  0.1010 -0.2064
  702MOL0     C94695   6.184   4.146   2.291  0.3718 -0.4866 -0.7368
  702MOL0     C94696   6.034   4.189   2.312 -0.7434  0.0131  0.1067
  702MOL0     C94697   6.023   4.298   2.418 -0.0666 -0.0040 -0.1844
  702MOL0     C94698   6.064   4.239   2.546 -0.3943  0.2676 -0.7449
  702MOL0     C94699   6.108   4.189   2.650 -0.5786  0.0387  0.1805
  702MOL0     C94700   6.512   4.177   1.936 -1.1444  0.2955  0.5663
  702MOL0     C94701   6.560   4.188   1.803  0.4352 -0.1694 -0.1435
  702MOL0     C94702   6.706   4.209   1.786  0.1473 -0.7099  0.3025
  702MOL0     H94703   6.574   4.358   1.362  1.0859  1.2616  0.1328
  702MOL0     H94704   6.663   4.409   1.128  2.0050 -0.0882 -1.1749
  702MOL0     H94705   6.851   4.335   0.833  1.5611  3.6519 -0.1884
  702MOL0     H94706   6.728   4.410   0.925 -0.1479  0.3304  2.5506
  702MOL0     H94707   6.915   4.487   1.103 -1.2975  2.8575 -0.6006
  702MOL0     H94708   6.937   4.544   0.935 -2.5545 -1.1220 -1.9659
  702MOL0     H94709   7.089   4.364   0.889 -2.1595  2.9623 -0.8523
  702MOL0     H94710   7.074   4.294   1.058  2.5028  0.8703  0.1628
  702MOL0     H94711   7.149   4.583   1.002 -1.9068  0.1944 -1.5912
  702MOL0     H94712   7.197   4.472   1.142 -0.3633 -1.2220 -0.7019
  702MOL0     H94713   7.307   4.465   0.841  2.7376 -1.9021 -0.3383
  702MOL0     H94714   7.386   4.533   0.977  0.1297 -0.5586  2.8395
  702MOL0     H94715   7.346   4.293   1.082 -0.9002 -1.3026 -1.0175
  702MOL0     H94716   7.289   4.241   0.930 -1.8432 -0.5797  4.0720
  702MOL0     H94717   7.558   4.340   1.018  0.5558 -0.1948 -0.9421
  702MOL0     H94718   7.529   4.312   0.842 -1.8320 -1.1359 -2.1788
  702MOL0     H94719   7.503   4.109   1.074 -0.4256  0.5229  0.3029
  702MOL0     H94720   7.458   4.077   0.904  3.3086 -0.5689 -2.9445
  702MOL0     H94721   7.659   3.909   1.019 -0.5852  0.7541 -0.8283
  702MOL0     H94722   7.831   3.760   0.813 -4.0928  1.5045  1.4786
  702MOL0     H94723   7.973   3.866   0.777  1.2367  1.4103  1.1365
  702MOL0     H94724   7.881   3.733   1.048  0.0489 -1.7611 -0.8119
  702MOL0     H94725   8.009   3.684   0.949  1.1805  2.0096 -1.5984
  702MOL0     H94726   8.081   3.829   1.141 -3.0148 -1.5905 -1.2021
  702MOL0     H94727   8.005   3.964   1.066 -2.6391  0.2664 -1.8144
  702MOL0     H94728   8.163   3.950   0.877 -2.3363  2.1330  1.6516
  702MOL0     H94729   8.211   3.786   0.925 -0.2656 -0.1814 -0.8037
  702MOL0     H94730   8.401   3.878   0.812  1.0996  2.0853 -0.3105
  702MOL0     H94731   8.616   3.892   0.767 -1.3071 -2.5556 -0.1530
  702MOL0     H94732   9.018   4.109   1.246 -1.3223 -1.7272 -0.3674
  702MOL0     H94733   9.223   4.165   1.287 -0.0050 -2.3575  1.1965
  702MOL0     H94734   9.427   4.302   1.244  2.3223  0.7893 -2.1167
  702MOL0     H94735   9.439   4.147   1.307  0.2983  1.3995  1.5090
  702MOL0     H94736   9.638   4.251   1.352 -0.9777  2.7087  0.1739
  702MOL0     H94737   9.665   4.109   1.255 -3.2641 -1.6666  1.5955
  702MOL0     H94738   9.740   4.221   1.069 -0.9131 -0.1415 -0.5352
  702MOL0     H94739   9.649   4.370   1.103  3.9016  1.6258 -2.3972
  702MOL0     H94740   9.884   4.242   1.253  2.1457  0.2620 -0.8383
  702MOL0     H94741   9.811   4.390   1.304  3.3077  0.1329  1.3541
  702MOL0     H94742   9.868   4.496   1.072 -0.3272 -0.2955  1.5227
  702MOL0     H94743   9.947   4.342   1.032  0.1723  1.7950 -2.4621
  702MOL0     H94744  10.112   4.509   1.076 -0.6160  0.7385  0.9122
  702MOL0     H94745  10.034   4.546   1.232  0.1580 -1.2731  2.2855
  702MOL0     H94746  10.171   4.283   1.167  0.2645  1.2597 -0.0134
  702MOL0     H94747  10.104   4.332   1.324  2.4881 -1.5141  0.7709
  702MOL0     H94748  10.266   4.508   1.349  0.8063  1.5476 -1.8269
  702MOL0     H94749  10.340   4.366   1.340  1.7898  0.3230  0.1140
  702MOL0     H94750   9.334   4.085   0.870 -0.2038  0.8246 -0.7770
  702MOL0     H94751   9.079   4.028   0.828  1.0609  3.4321 -2.2720
  702MOL0     H94752   8.681   4.031   1.177 -0.2221 -0.7822  0.0546
  702MOL0     H94753   8.474   4.031   1.210 -0.2849 -1.3645  0.2613
  702MOL0     H94754   6.872   4.043   1.129 -1.3683 -0.2422 -1.2598
  702MOL0     H94755   6.781   3.989   1.358  1.1190  0.0958 -0.6909
  702MOL0     H94756   6.257   4.139   1.648  0.5143  0.2008 -0.5798
  702MOL0     H94757   6.188   4.120   1.886  2.4209 -4.7825  2.2649
  702MOL0     H94758   6.153   4.067   2.097  0.1597 -1.8636  2.4140
  702MOL0     H94759   6.174   4.245   2.095  1.2068  1.5499  1.2858
  702MOL0     H94760   6.254   4.220   2.331  0.8159 -2.9748  3.7912
  702MOL0     H94761   6.216   4.049   2.332  1.7369 -0.6817 -2.2053
  702MOL0     H94762   5.975   4.101   2.339  0.4972 -0.5693  1.0057
  702MOL0     H94763   5.990   4.224   2.219  1.9887 -0.9659 -1.6637
  702MOL0     H94764   6.092   4.379   2.395  0.1248  0.4522  1.8086
  702MOL0     H94765   5.921   4.337   2.414 -0.9384 -2.2353 -1.7605
  702MOL0     H94766   6.150   4.158   2.744  2.7527  1.7801 -0.5784
  702MOL0     H94767   6.590   4.164   2.010 -1.5465 -1.4601  0.7035
  702MOL0     H94768   6.745   4.139   1.712 -1.1230  0.6486 -1.7458
  702MOL0     H94769   6.720   4.312   1.751 -5.2191  0.4058  0.5692
  702MOL0     H94770   6.757   4.192   1.882 -0.6676 -1.5589  0.5928
  703MOL0     O94771   7.940   7.317   3.822 -0.8551 -0.0132  0.5078
  703MOL0     C94772   7.875   7.314   3.716 -0.5015 -0.8641 -0.6634
  703MOL0     O94773   7.929   7.338   3.597  0.0365 -0.0933  0.0898
  703MOL0     C94774   8.070   7.340   3.574  0.2922  0.1037  0.9212
  703MOL0     C94775   8.110   7.274   3.460 -0.0910 -0.3008 -0.6450
  703MOL0     C94776   8.251   7.269   3.431  0.9019  0.3527  0.3664
  703MOL0     C94777   8.340   7.311   3.523  0.4510  0.1936  0.4937
  703MOL0     O94778   8.470   7.284   3.488 -0.5775  0.0797  0.3803
  703MOL0     C94779   8.579   7.314   3.567  0.6148  1.1445  0.5226
  703MOL0     C94780   8.621   7.186   3.644 -0.0975 -0.0708  0.9112
  703MOL0     C94781   8.756   7.195   3.721  0.2247 -0.3942 -0.7812
  703MOL0     C94782   8.793   7.063   3.779 -0.1474  0.2098  0.4090
  703MOL0     C94783   8.918   7.081   3.876  0.1460  1.0133 -0.7969
  703MOL0     C94784   8.964   6.944   3.920  0.4668 -0.0363  0.4166
  703MOL0     C94785   9.059   6.942   4.039 -0.6168  0.8148 -1.0664
  703MOL0     C94786   9.189   7.021   4.003  0.6400  0.7555 -0.2419
  703MOL0     N94787   9.295   7.017   4.106  0.3534 -1.4036  0.7154
  703MOL0     C94788   9.292   7.017   4.242 -0.6942 -1.2758  0.1685
  703MOL0     C94789   9.422   6.996   4.281  0.5328  1.0787 -0.4395
  703MOL0     C94790   9.455   6.989   4.426 -0.8893 -0.6879 -0.9075
  703MOL0     C94791   9.603   6.955   4.454  0.0214 -0.4073 -1.3472
  703MOL0     C94792   9.613   6.925   4.606 -0.5240 -0.2593  0.8866
  703MOL0     C94793   9.752   6.871   4.642  0.3352 -0.4932 -0.0276
  703MOL0     O94794   9.856   6.958   4.578  0.8088 -0.0219  0.2268
  703MOL0     C94795   9.989   6.920   4.586  0.2139 -0.2908  0.2609
  703MOL0     C94796  10.073   7.018   4.533  0.7277  0.4281  0.1031
  703MOL0     C94797  10.206   6.984   4.514  0.4860 -0.1753  0.1406
  703MOL0     C94798  10.255   6.856   4.545  0.5460 -0.0552 -0.2733
  703MOL0     C94799  10.391   6.811   4.504  0.8593 -1.0068  0.5612
  703MOL0     O94800  10.464   6.902   4.426 -0.6085 -0.4232  0.4599
  703MOL0     C94801  10.591   6.860   4.397  0.3176  0.0939  0.6181
  703MOL0     C94802  10.703   6.864   4.486 -0.0487 -0.2635 -0.4070
  703MOL0     C94803  10.823   6.818   4.440 -0.0448  0.6711 -0.5803
  703MOL0     C94804  10.843   6.777   4.315 -0.3489 -0.1217  0.0869
  703MOL0     O94805  10.971   6.733   4.279  0.2825  0.1310  0.2935
  703MOL0     C94806  11.004   6.674   4.145  0.3075 -0.3041  0.3700
  703MOL0     C94807  11.156   6.633   4.149 -0.4578  0.5853 -0.0752
  703MOL0     C94808  11.183   6.488   4.184  0.0230  0.5477 -0.6068
  703MOL0     C94809  11.110   6.434   4.304  0.3723 -0.0363 -0.2525
  703MOL0     C94810  11.137   6.280   4.325 -0.7254  0.1014 -0.2303
  703MOL0     C94811  11.040   6.218   4.431  0.1002  0.1429 -0.0842
  703MOL0     C94812  11.110   6.101   4.508  0.4945  0.1276 -0.0428
  703MOL0     C94813  11.032   6.055   4.618  0.0507  0.2427 -0.9401
  703MOL0    Cl94814  11.125   5.955   4.734 -0.0397  0.3098 -0.0737
  703MOL0     C94815  10.744   6.782   4.223 -0.2560 -0.1657  0.2913
  703MOL0     C94816  10.622   6.828   4.265 -0.4458 -1.1638 -0.3905
  703MOL0     O94817  10.429   6.702   4.548 -0.3131 -0.3255 -0.7216
  703MOL0     C94818  10.169   6.759   4.607  0.9845  0.2873  0.7494
  703MOL0     C94819  10.032   6.786   4.616 -0.1717  0.0493 -0.9349
  703MOL0     N94820   9.499   6.990   4.173 -0.2371 -0.5495 -0.3721
  703MOL0     N94821   9.425   7.007   4.067 -0.3382  0.0326  0.0625
  703MOL0     C94822   8.293   7.377   3.632 -0.3042  0.0449 -0.3137
  703MOL0     C94823   8.160   7.406   3.657 -0.2617  0.3454 -0.0150
  703MOL0     C94824   7.734   7.316   3.748  0.2046  0.5913  0.1549
  703MOL0     C94825   7.680   7.294   3.876  0.2851  0.3871  0.3131
  703MOL0     C94826   7.541   7.292   3.897 -1.0247  0.1576 -0.4419
  703MOL0     C94827   7.448   7.307   3.802  0.1281  0.3703 -1.0043
  703MOL0     O94828   7.315   7.304   3.847  0.2208  0.0156  0.1633
  703MOL0     C94829   7.219   7.248   3.758  0.4976  0.0970 -0.1715
  703MOL0     C94830   7.153   7.355   3.668 -0.5431  0.7979 -0.8977
  703MOL0     C94831   7.068   7.448   3.742 -0.1347  0.1405 -1.1777
  703MOL0     C94832   6.920   7.408   3.761  0.5162 -0.0514  0.0290
  703MOL0     C94833   6.865   7.396   3.629  1.0509  0.0559  0.5987
  703MOL0     C94834   6.808   7.404   3.514 -0.0066 -1.3348 -0.3699
  703MOL0     C94835   7.497   7.309   3.673 -1.0593  0.8610 -0.2550
  703MOL0     C94836   7.638   7.318   3.646  1.2626  0.3083  0.3991
  703MOL0     C94837   7.667   7.324   3.496  0.3174  0.3597 -0.7555
  703MOL0     H94838   8.031   7.244   3.393 -0.0888  0.7294 -1.1355
  703MOL0     H94839   8.293   7.216   3.346 -2.5034 -1.9100 -0.0662
  703MOL0     H94840   8.669   7.339   3.509 -1.0202  0.6316 -2.4325
  703MOL0     H94841   8.560   7.397   3.636  0.4077  0.5342  1.2187
  703MOL0     H94842   8.637   7.112   3.565  0.2929  0.8872  0.0699
  703MOL0     H94843   8.543   7.158   3.715 -0.5848  3.6250  2.0792
  703MOL0     H94844   8.746   7.278   3.792 -1.3926  0.2812 -1.7339
  703MOL0     H94845   8.839   7.219   3.654 -1.5198  3.3620 -1.8764
  703MOL0     H94846   8.704   7.028   3.833 -0.3532 -2.3871 -1.4486
  703MOL0     H94847   8.821   6.994   3.699  0.3255 -2.8845  3.0547
  703MOL0     H94848   9.002   7.134   3.830 -0.6786  1.1534 -2.1711
  703MOL0     H94849   8.887   7.123   3.973 -2.6433 -3.4449  0.5624
  703MOL0     H94850   8.877   6.890   3.958 -0.0589  0.8677  0.5469
  703MOL0     H94851   9.009   6.889   3.837  0.7032  1.1929 -0.3074
  703MOL0     H94852   9.092   6.840   4.060  0.3941  1.1869 -0.7996
  703MOL0     H94853   9.009   6.974   4.130  0.9229  1.3057 -0.3580
  703MOL0     H94854   9.231   6.984   3.909  0.5780  1.6249 -0.6150
  703MOL0     H94855   9.155   7.124   3.994 -1.3778  0.2964  1.3654
  703MOL0     H94856   9.207   7.018   4.310 -0.5513  0.6971  0.3554
  703MOL0     H94857   9.445   7.088   4.471  1.5151 -0.1755 -1.4054
  703MOL0     H94858   9.400   6.912   4.481  1.5616 -0.7109  1.7425
  703MOL0     H94859   9.639   6.867   4.399  1.4212 -1.6402  1.3724
  703MOL0     H94860   9.652   7.048   4.426 -1.2545  0.7511  0.1157
  703MOL0     H94861   9.539   6.848   4.631  0.5732 -2.5082 -2.1555
  703MOL0     H94862   9.613   7.022   4.656  3.9342  1.3338 -1.5784
  703MOL0     H94863   9.754   6.770   4.600  1.9018  0.3252 -2.1176
  703MOL0     H94864   9.771   6.874   4.749 -1.8513  1.1504  0.3845
  703MOL0     H94865  10.044   7.112   4.489 -1.9918 -0.8008 -0.8844
  703MOL0     H94866  10.265   7.062   4.467  1.7061 -0.9133  0.3872
  703MOL0     H94867  10.675   6.906   4.583 -1.5907  1.9569 -1.7067
  703MOL0     H94868  10.911   6.822   4.502  0.7181 -1.1805 -1.4579
  703MOL0     H94869  10.940   6.590   4.120 -1.1955  1.2170 -1.1693
  703MOL0     H94870  10.994   6.757   4.074  3.5886 -0.4615 -0.4244
  703MOL0     H94871  11.196   6.654   4.050  1.1374  2.7545  0.9563
  703MOL0     H94872  11.202   6.697   4.225 -0.5747 -1.2287  1.6001
  703MOL0     H94873  11.166   6.426   4.095 -1.6909  1.9614 -1.3279
  703MOL0     H94874  11.289   6.490   4.212 -0.1967 -0.8137  0.4391
  703MOL0     H94875  11.003   6.456   4.290  0.7696  1.4470 -1.1274
  703MOL0     H94876  11.132   6.503   4.386  3.5535  2.7610 -3.1339
  703MOL0     H94877  11.244   6.274   4.349 -0.2835 -0.5523 -2.2082
  703MOL0     H94878  11.132   6.230   4.228 -0.9736 -1.6935  0.6698
  703MOL0     H94879  11.006   6.297   4.499  0.1975  2.3597 -2.4148
  703MOL0     H94880  10.960   6.170   4.373  0.1845  1.9161 -1.7829
  703MOL0     H94881  11.206   6.134   4.550  0.1401 -1.7438  2.4653
  703MOL0     H94882  11.135   6.018   4.442  0.9484  0.8008 -0.7325
  703MOL0     H94883  10.994   6.140   4.676 -1.5182 -0.5984 -0.6969
  703MOL0     H94884  10.942   6.003   4.586 -0.8761  1.6023 -0.6348
  703MOL0     H94885  10.751   6.742   4.122 -0.9745  2.2592 -0.8034
  703MOL0     H94886  10.552   6.841   4.183  0.6113 -0.8855 -1.2861
  703MOL0     H94887  10.203   6.660   4.637  0.1553  0.4331  2.2604
  703MOL0     H94888   9.964   6.705   4.639 -1.0686  1.1347  0.4014
  703MOL0     H94889   8.369   7.405   3.704 -0.2621  1.1011 -0.7463
  703MOL0     H94890   8.131   7.457   3.749 -1.3434 -0.0063 -0.1579
  703MOL0     H94891   7.738   7.283   3.967 -0.2647  1.9185  0.8734
  703MOL0     H94892   7.530   7.279   4.005  5.0657 -2.9461  0.2336
  703MOL0     H94893   7.147   7.200   3.825  0.3578  0.6957  0.1196
  703MOL0     H94894   7.264   7.178   3.687 -0.1647 -0.4158 -0.0984
  703MOL0     H94895   7.098   7.320   3.581 -0.0824  2.0505 -1.7232
  703MOL0     H94896   7.238   7.415   3.635 -1.2478  1.6255 -1.2297
  703MOL0     H94897   7.065   7.540   3.683 -0.6381 -1.1590 -3.2951
  703MOL0     H94898   7.107   7.473   3.841 -1.3473 -1.5189 -0.2203
  703MOL0     H94899   6.918   7.308   3.806  3.1590 -0.7196 -1.1342
  703MOL0     H94900   6.861   7.473   3.826  1.9554  2.0092 -0.6044
  703MOL0     H94901   6.744   7.399   3.428 -0.2900 -0.6175 -0.2044
  703MOL0     H94902   7.429   7.303   3.589  1.3422  0.4124 -2.2932
  703MOL0     H94903   7.673   7.430   3.469 -1.9363  1.2300  1.7195
  703MOL0     H94904   7.754   7.263   3.470  4.0945  5.3290 -1.3095
  703MOL0     H94905   7.578   7.286   3.445  0.9696 -1.6572 -0.5077
  704MOL0     O94906   7.992   1.217   0.020  0.1659  0.6391  0.1095
  704MOL0     C94907   7.915   1.128   0.038 -0.1412  0.1314  0.5471
  704MOL0     O94908   7.948   0.991   0.042  0.1122 -0.0130 -0.6609
  704MOL0     C94909   8.081   0.963   0.011  0.0642  0.1350 -0.1809
  704MOL0     C94910   8.119   0.917  -0.118 -0.6225  0.2463 -0.1624
  704MOL0     C94911   8.255   0.909  -0.147  0.3374 -0.2587  0.4851
  704MOL0     C94912   8.345   0.934  -0.053  0.2082  0.5416  0.7126
  704MOL0     O94913   8.476   0.933  -0.096  0.4027 -0.0973 -0.4059
  704MOL0     C94914   8.582   0.961  -0.007 -0.3339 -0.3477 -0.6088
  704MOL0     C94915   8.714   0.916  -0.074  0.2440 -0.4899  0.2480
  704MOL0     C94916   8.836   0.934   0.015  0.3322  0.1537  1.0257
  704MOL0     C94917   8.834   1.073   0.076  0.1311 -0.8800  0.4902
  704MOL0     C94918   8.964   1.105   0.145  0.1958 -0.0726 -0.1898
  704MOL0     C94919   8.978   1.262   0.163  0.0589  0.1615 -0.6504
  704MOL0     C94920   9.095   1.296   0.261  0.2290  0.8313 -0.3537
  704MOL0     C94921   9.156   1.437   0.256 -0.1648 -0.3489 -0.3600
  704MOL0     N94922   9.240   1.468   0.141  0.2795  0.4629 -0.1851
  704MOL0     C94923   9.357   1.405   0.130 -0.5311 -0.0460  0.0247
  704MOL0     C94924   9.419   1.459   0.017 -1.0057  0.5418  0.1269
  704MOL0     C94925   9.554   1.411  -0.044 -0.2626  0.2597  0.0495
  704MOL0     C94926   9.630   1.535  -0.081  0.3828  0.0041  0.7075
  704MOL0     C94927   9.779   1.506  -0.123  0.0674  0.6215 -0.4201
  704MOL0     C94928   9.804   1.434  -0.255  0.1432 -0.6839  0.4278
  704MOL0     O94929   9.946   1.419  -0.264  0.1459 -0.2671 -0.3255
  704MOL0     C94930  10.015   1.505  -0.342  0.0595 -0.1057 -0.4218
  704MOL0     C94931  10.148   1.465  -0.368 -0.1833 -0.5951  0.6369
  704MOL0     C94932  10.237   1.544  -0.441  0.6807  0.6316  0.1133
  704MOL0     C94933  10.204   1.674  -0.492  1.1849  0.7856 -0.4900
  704MOL0     C94934  10.300   1.765  -0.546  0.4416  0.0238  0.9826
  704MOL0     O94935  10.413   1.704  -0.579  0.0611 -0.5275  0.5575
  704MOL0     C94936  10.511   1.794  -0.618  0.0289 -0.5983 -0.1341
  704MOL0     C94937  10.548   1.909  -0.541  0.5925  0.6006 -0.4738
  704MOL0     C94938  10.638   2.003  -0.581 -0.0032  0.0131  0.1415
  704MOL0     C94939  10.694   1.993  -0.706 -0.8690  0.2225  0.9800
  704MOL0     O94940  10.782   2.091  -0.738 -0.0310  0.2525 -1.4737
  704MOL0     C94941  10.865   2.093  -0.858  1.4848  0.8781  1.1051
  704MOL0     C94942  10.936   2.226  -0.876 -0.4446  0.5394 -0.3978
  704MOL0     C94943  11.037   2.256  -0.760 -0.1518  0.0094 -0.1822
  704MOL0     C94944  11.135   2.138  -0.750  0.6687  0.0645  0.0747
  704MOL0     C94945  11.265   2.161  -0.660 -0.2183  0.1282  0.0134
  704MOL0     C94946  11.236   2.201  -0.509 -0.1746 -0.3591 -0.5205
  704MOL0     C94947  11.360   2.235  -0.436  0.0838 -0.3860 -0.4191
  704MOL0     C94948  11.353   2.381  -0.391  0.7963  0.9460  0.2151
  704MOL0    Cl94949  11.394   2.507  -0.518 -0.2638  0.4496  0.2952
  704MOL0     C94950  10.652   1.882  -0.788 -0.2932 -0.1599 -0.1816
  704MOL0     C94951  10.562   1.780  -0.737  0.4401 -0.1290 -0.4498
  704MOL0     O94952  10.269   1.877  -0.569  0.2404  1.1594  0.0255
  704MOL0     C94953  10.070   1.699  -0.486  0.3312  0.7001  0.2460
  704MOL0     C94954   9.974   1.622  -0.409 -1.0203 -0.2555  1.4563
  704MOL0     N94955   9.329   1.542  -0.039 -0.2099 -0.2147  0.3378
  704MOL0     N94956   9.226   1.554   0.032 -0.1377 -0.7628  0.0230
  704MOL0     C94957   8.308   0.985   0.074 -0.3822  0.1315  0.2983
  704MOL0     C94958   8.176   0.994   0.109  0.4425 -0.2675  0.6945
  704MOL0     C94959   7.767   1.167   0.034 -1.2498  0.7790 -0.5057
  704MOL0     C94960   7.683   1.086  -0.043  0.0488  0.5107 -0.5304
  704MOL0     C94961   7.555   1.122  -0.075  0.5898  0.9573  0.1048
  704MOL0     C94962   7.499   1.244  -0.021 -0.3174  0.1553 -0.2437
  704MOL0     O94963   7.374   1.297  -0.051 -0.4591 -0.5848  0.4456
  704MOL0     C94964   7.286   1.236  -0.149 -0.7380 -1.0159 -0.8427
  704MOL0     C94965   7.186   1.153  -0.086  0.6217  0.5386  0.1374
  704MOL0     C94966   7.117   1.199   0.046 -0.3406  0.3240  0.7086
  704MOL0     C94967   7.042   1.334   0.034 -0.6459  0.4726 -0.8085
  704MOL0     C94968   6.959   1.370   0.155 -0.3895 -0.2029  1.2540
  704MOL0     C94969   6.884   1.398   0.246 -0.6154  0.3421  0.0455
  704MOL0     C94970   7.580   1.318   0.068  0.0165 -0.5027  0.2766
  704MOL0     C94971   7.711   1.284   0.092  0.0497 -0.0589  1.0974
  704MOL0     C94972   7.788   1.383   0.168  0.0617 -0.6283  0.1952
  704MOL0     H94973   8.047   0.882  -0.192  0.4972 -3.4056  0.2833
  704MOL0     H94974   8.294   0.892  -0.247 -1.0652  2.6626 -0.7088
  704MOL0     H94975   8.574   1.067   0.021  1.3658  0.1539 -1.8454
  704MOL0     H94976   8.574   0.901   0.084 -0.6918  0.5902 -0.0037
  704MOL0     H94977   8.728   0.972  -0.167  0.7257  1.1178  1.2391
  704MOL0     H94978   8.702   0.810  -0.098  0.8100 -0.6558  0.6581
  704MOL0     H94979   8.923   0.915  -0.048 -1.4831 -4.4020 -0.5649
  704MOL0     H94980   8.836   0.871   0.104 -0.3476  1.5771  2.0753
  704MOL0     H94981   8.816   1.156   0.006  3.2754  3.0671  3.8308
  704MOL0     H94982   8.755   1.077   0.152 -1.0549 -0.9334 -0.7068
  704MOL0     H94983   8.971   1.041   0.234 -2.9024  2.2063  1.9561
  704MOL0     H94984   9.043   1.080   0.074 -0.1207 -0.7974 -0.2968
  704MOL0     H94985   8.999   1.304   0.064  2.1234  2.5729  0.6921
  704MOL0     H94986   8.884   1.302   0.200  0.1453  0.1730 -0.4406
  704MOL0     H94987   9.180   1.232   0.239  0.0275 -0.5108  2.4162
  704MOL0     H94988   9.061   1.274   0.363  0.5246  1.8333 -0.0237
  704MOL0     H94989   9.086   1.520   0.262  0.1544 -0.1735  1.6481
  704MOL0     H94990   9.227   1.447   0.339 -2.7410  1.6819  1.8186
  704MOL0     H94991   9.401   1.325   0.190 -0.4232 -0.6957 -0.8970
  704MOL0     H94992   9.618   1.349   0.020  1.9188  4.4872  2.4497
  704MOL0     H94993   9.532   1.357  -0.136  0.3007  0.0938  0.0069
  704MOL0     H94994   9.589   1.590  -0.166  0.3868 -1.0102  0.0343
  704MOL0     H94995   9.630   1.601   0.007  0.4396  0.0978  0.6371
  704MOL0     H94996   9.823   1.458  -0.035 -2.4069  2.2892  1.8822
  704MOL0     H94997   9.818   1.608  -0.134 -3.2977  1.9177 -1.6743
  704MOL0     H94998   9.768   1.481  -0.347 -0.9055 -1.0884  0.6095
  704MOL0     H94999   9.760   1.334  -0.248 -2.2670  0.3913  2.3301
  704MOL0     H95000  10.185   1.380  -0.312  2.3753 -0.3732 -0.5742
  704MOL0     H95001  10.343   1.524  -0.454  1.1958  4.3461 -3.9963
  704MOL0     H95002  10.506   1.918  -0.441  3.9148  2.5224  0.9276
  704MOL0     H95003  10.647   2.091  -0.518 -0.6592 -0.2092  0.5455
  704MOL0     H95004  10.935   2.010  -0.847 -0.9288 -1.4562 -0.1341
  704MOL0     H95005  10.788   2.086  -0.935 -1.2362  2.8241  3.4472
  704MOL0     H95006  10.987   2.228  -0.973  2.0317 -1.0243  0.7795
  704MOL0     H95007  10.866   2.310  -0.868  0.7940  1.6207 -0.5933
  704MOL0     H95008  11.090   2.350  -0.775 -0.7165  0.0790 -1.9882
  704MOL0     H95009  10.981   2.273  -0.668 -0.0544  1.4525 -0.3615
  704MOL0     H95010  11.170   2.108  -0.850 -2.3894 -3.9542 -0.0341
  704MOL0     H95011  11.078   2.058  -0.703 -0.2602  2.2456  2.9279
  704MOL0     H95012  11.316   2.239  -0.716  0.5700 -0.4389 -0.0774
  704MOL0     H95013  11.328   2.072  -0.658  0.9711  0.9331 -0.5957
  704MOL0     H95014  11.166   2.285  -0.505 -1.4093 -1.3852  3.0312
  704MOL0     H95015  11.196   2.114  -0.456  1.2536 -0.3360  0.6536
  704MOL0     H95016  11.453   2.215  -0.491  0.2339 -3.1554  0.6778
  704MOL0     H95017  11.374   2.181  -0.342  0.2722  1.1508  0.4587
  704MOL0     H95018  11.261   2.406  -0.338  1.5646  1.2460  1.4545
  704MOL0     H95019  11.433   2.382  -0.316  0.5804 -2.1410  0.5969
  704MOL0     H95020  10.699   1.860  -0.884  0.8296 -0.6875  0.4714
  704MOL0     H95021  10.522   1.696  -0.793 -0.6224  0.7285 -1.0274
  704MOL0     H95022  10.028   1.785  -0.537 -2.1594 -1.4232 -1.5502
  704MOL0     H95023   9.871   1.655  -0.408 -0.2576  2.2821  1.7838
  704MOL0     H95024   8.385   1.017   0.143  0.0511 -0.5431  0.1359
  704MOL0     H95025   8.141   1.021   0.208 -2.9132  0.3879 -0.5435
  704MOL0     H95026   7.716   0.993  -0.090  0.3473  0.1330  0.3967
  704MOL0     H95027   7.505   1.058  -0.147  1.0934 -1.0970  1.4975
  704MOL0     H95028   7.353   1.180  -0.215  3.3703  0.2690  1.8576
  704MOL0     H95029   7.240   1.310  -0.215 -1.8166 -1.9522 -1.1643
  704MOL0     H95030   7.237   1.058  -0.068  0.1921  0.4447  0.8931
  704MOL0     H95031   7.104   1.153  -0.159  2.0258  0.3767 -1.5201
  704MOL0     H95032   7.184   1.200   0.132  0.5151 -2.9956  0.1846
  704MOL0     H95033   7.052   1.116   0.073  2.0702 -1.8621  0.1755
  704MOL0     H95034   7.115   1.412   0.008  0.7454 -0.8443 -0.9547
  704MOL0     H95035   6.975   1.321  -0.051 -0.6853  0.9087 -0.8486
  704MOL0     H95036   6.809   1.417   0.320 -0.2811 -0.1652  0.5162
  704MOL0     H95037   7.540   1.413   0.102 -1.8334 -0.1330 -2.5345
  704MOL0     H95038   7.868   1.329   0.220  1.0251 -2.8211 -3.2433
  704MOL0     H95039   7.831   1.456   0.099 -1.8221 -0.3576 -0.7475
  704MOL0     H95040   7.718   1.432   0.236 -0.7806  0.3559 -1.3302
  705MOL0     O95041   2.681   4.800   7.611 -0.4829 -0.7222 -0.7082
  705MOL0     C95042   2.569   4.753   7.588 -0.3982 -0.3989 -0.6274
  705MOL0     O95043   2.539   4.619   7.570  0.5146  0.3634  0.1606
  705MOL0     C95044   2.635   4.531   7.538 -0.2595 -0.7630  0.3014
  705MOL0     C95045   2.733   4.497   7.630  0.0994 -0.6679 -0.1414
  705MOL0     C95046   2.832   4.401   7.601 -0.9620  1.1445 -0.2542
  705MOL0     C95047   2.827   4.335   7.480  0.8546  0.0478  0.2259
  705MOL0     O95048   2.898   4.229   7.442  0.2172 -0.7339  0.5815
  705MOL0     C95049   3.041   4.246   7.407  0.2839 -0.6337  0.4547
  705MOL0     C95050   3.092   4.207   7.262  0.5212  0.0298  0.3077
  705MOL0     C95051   3.253   4.222   7.253  0.1631 -1.0747  0.4848
  705MOL0     C95052   3.301   4.345   7.194  0.0708  0.0652  1.0594
  705MOL0     C95053   3.458   4.361   7.182 -0.0459  0.1489 -0.3970
  705MOL0     C95054   3.494   4.504   7.147  0.2985  0.3379 -0.8104
  705MOL0     C95055   3.643   4.536   7.165  0.1937 -0.5994 -0.5737
  705MOL0     C95056   3.670   4.691   7.149 -0.0337 -0.4883  0.7120
  705MOL0     N95057   3.809   4.735   7.161 -0.5641  0.4741  0.6096
  705MOL0     C95058   3.918   4.694   7.079  0.3791 -0.9164  0.5395
  705MOL0     C95059   4.020   4.765   7.129  0.1142  0.4849  0.7912
  705MOL0     C95060   4.149   4.776   7.065 -0.4691  0.9382  0.3577
  705MOL0     C95061   4.257   4.704   7.155  0.0975  0.0319  0.7476
  705MOL0     C95062   4.392   4.777   7.131  0.2987  1.1284 -0.5972
  705MOL0     C95063   4.514   4.710   7.193 -0.2313  0.0993  0.3364
  705MOL0     O95064   4.621   4.710   7.098 -0.8500  0.0598  1.0358
  705MOL0     C95065   4.691   4.825   7.055  0.6248 -0.0398  0.0303
  705MOL0     C95066   4.674   4.951   7.106  0.9495 -0.8492 -0.3856
  705MOL0     C95067   4.752   5.060   7.061 -0.6132 -1.4593  0.7466
  705MOL0     C95068   4.846   5.034   6.964  0.2160 -0.3347 -0.1112
  705MOL0     C95069   4.935   5.150   6.904  0.3133  0.4077  0.3995
  705MOL0     O95070   5.020   5.115   6.814 -0.1981  0.1865  0.5249
  705MOL0     C95071   5.122   5.203   6.776 -0.0172 -0.1213 -0.8147
  705MOL0     C95072   5.233   5.207   6.865  0.3102  0.8285 -0.7475
  705MOL0     C95073   5.343   5.288   6.835 -1.1591 -0.0220  0.1338
  705MOL0     C95074   5.333   5.386   6.732 -0.6875 -0.5987 -0.4441
  705MOL0     O95075   5.423   5.482   6.698 -0.7479 -0.0540 -0.2337
  705MOL0     C95076   5.556   5.452   6.738 -0.0208 -0.5537 -0.0512
  705MOL0     C95077   5.659   5.549   6.674  0.5372 -0.0109  0.7576
  705MOL0     C95078   5.801   5.524   6.726 -0.2660 -0.0137  0.1371
  705MOL0     C95079   5.899   5.602   6.642  0.8870 -0.3911  0.2242
  705MOL0     C95080   6.041   5.590   6.692 -0.1983  0.4064  0.5695
  705MOL0     C95081   6.145   5.687   6.643 -0.1741 -1.3416  0.1213
  705MOL0     C95082   6.279   5.665   6.704  1.5124 -1.4030 -0.0235
  705MOL0     C95083   6.289   5.633   6.858 -0.4787  0.4577 -0.0529
  705MOL0    Cl95084   6.456   5.640   6.924 -0.3847 -0.1371 -0.1914
  705MOL0     C95085   5.210   5.386   6.655 -0.3602  0.0904  0.3235
  705MOL0     C95086   5.107   5.293   6.675 -0.1401 -0.4912 -0.2794
  705MOL0     O95087   4.922   5.261   6.947  0.7982 -0.0880 -0.3513
  705MOL0     C95088   4.867   4.905   6.921 -0.2860 -0.9692 -0.2692
  705MOL0     C95089   4.787   4.798   6.962 -0.6485  0.3302 -0.9232
  705MOL0     N95090   3.984   4.828   7.241  0.0482  0.2346  0.3059
  705MOL0     N95091   3.850   4.811   7.260 -0.0784  0.4913  0.5286
  705MOL0     C95092   2.716   4.361   7.389 -0.2827  1.2071 -0.2565
  705MOL0     C95093   2.626   4.464   7.419  0.1434 -0.0708  1.4839
  705MOL0     C95094   2.456   4.850   7.558  0.4600  0.4677 -0.0750
  705MOL0     C95095   2.344   4.796   7.486 -0.1404  0.5228  0.4362
  705MOL0     C95096   2.245   4.873   7.439  0.2933  0.1670 -0.1249
  705MOL0     C95097   2.246   5.013   7.461  0.3307  0.2449 -0.2377
  705MOL0     O95098   2.140   5.081   7.404 -0.4365 -0.2702  0.0281
  705MOL0     C95099   2.157   5.222   7.376 -0.3951  0.4161 -0.4253
  705MOL0     C95100   2.066   5.263   7.266  0.1584  0.9120  0.3043
  705MOL0     C95101   1.928   5.195   7.270 -0.0466 -0.7025 -0.0382
  705MOL0     C95102   1.857   5.187   7.409  0.1053  0.4543  0.7236
  705MOL0     C95103   1.807   5.315   7.456 -0.7160  0.3528 -0.8289
  705MOL0     C95104   1.758   5.420   7.503 -1.2401 -0.0873  0.2858
  705MOL0     C95105   2.349   5.065   7.542  0.4960 -0.2569 -0.1063
  705MOL0     C95106   2.458   4.988   7.583 -0.4410  0.1434 -0.6368
  705MOL0     C95107   2.567   5.063   7.667  0.1611 -0.6036  0.1981
  705MOL0     H95108   2.744   4.556   7.721  0.0931  1.2569 -1.3256
  705MOL0     H95109   2.908   4.386   7.678 -1.6484 -0.4635  0.1673
  705MOL0     H95110   3.074   4.348   7.427 -0.9126  0.0358 -0.8400
  705MOL0     H95111   3.089   4.180   7.480  0.0591  1.2395  2.4050
  705MOL0     H95112   3.038   4.254   7.180 -2.8348 -0.2071  2.1907
  705MOL0     H95113   3.077   4.099   7.266 -1.0318  0.2472  2.2655
  705MOL0     H95114   3.289   4.141   7.188 -0.0993  1.1453 -2.6587
  705MOL0     H95115   3.295   4.210   7.353  4.0656 -2.1601 -1.1030
  705MOL0     H95116   3.248   4.353   7.099  2.5156 -1.3093 -0.5423
  705MOL0     H95117   3.271   4.429   7.257  0.4201  1.6671 -0.8359
  705MOL0     H95118   3.509   4.332   7.274 -1.1345  1.3559  0.6233
  705MOL0     H95119   3.499   4.294   7.106 -1.2632 -2.5460  1.1535
  705MOL0     H95120   3.472   4.524   7.041 -1.0519 -1.6910 -0.9698
  705MOL0     H95121   3.438   4.572   7.212  0.0647  0.9911 -1.6676
  705MOL0     H95122   3.705   4.483   7.092  0.5628 -0.6996 -0.1906
  705MOL0     H95123   3.677   4.516   7.267 -1.1102  1.1117  0.2535
  705MOL0     H95124   3.635   4.709   7.047  0.6675  0.1222  0.5695
  705MOL0     H95125   3.596   4.737   7.216  0.7832  1.1604  0.5405
  705MOL0     H95126   3.928   4.633   6.990  0.7437 -1.6524  1.0787
  705MOL0     H95127   4.159   4.735   6.964  0.3887  1.5872  0.1581
  705MOL0     H95128   4.186   4.879   7.050  1.9588  0.1278  0.2705
  705MOL0     H95129   4.225   4.712   7.260 -4.9023  5.0614 -0.6542
  705MOL0     H95130   4.266   4.603   7.115  1.3785  0.5105 -0.2434
  705MOL0     H95131   4.370   4.880   7.158 -2.1870  1.3160 -2.8924
  705MOL0     H95132   4.410   4.782   7.023 -1.3831  0.4261 -0.9414
  705MOL0     H95133   4.504   4.612   7.239 -1.0598  0.2971  0.5853
  705MOL0     H95134   4.552   4.768   7.278  2.2570  0.2979 -0.8157
  705MOL0     H95135   4.593   4.967   7.177 -1.4499 -2.5340 -2.5852
  705MOL0     H95136   4.729   5.158   7.100 -3.4946 -1.0089 -1.7037
  705MOL0     H95137   5.250   5.131   6.941  2.0458  2.8737  1.0449
  705MOL0     H95138   5.433   5.268   6.893 -1.0416  0.0948 -0.0069
  705MOL0     H95139   5.564   5.462   6.847  0.4959  1.2133 -0.2244
  705MOL0     H95140   5.575   5.350   6.704  2.9223 -0.1784  0.2447
  705MOL0     H95141   5.664   5.519   6.568  1.3706 -0.4638  0.9095
  705MOL0     H95142   5.637   5.654   6.692 -2.7415 -0.6194  0.9316
  705MOL0     H95143   5.795   5.553   6.831  0.3058 -1.1558  0.5163
  705MOL0     H95144   5.823   5.416   6.724 -0.5264 -0.0665  0.1691
  705MOL0     H95145   5.864   5.706   6.640  3.1669  0.5980  3.1453
  705MOL0     H95146   5.895   5.550   6.546  0.1426 -1.0470  0.6059
  705MOL0     H95147   6.075   5.486   6.685  0.9468  0.7920  0.2242
  705MOL0     H95148   6.047   5.598   6.800 -2.5615  0.4361  0.7506
  705MOL0     H95149   6.156   5.692   6.534 -1.4028 -0.6720  0.0050
  705MOL0     H95150   6.103   5.780   6.681  0.8258 -0.5940 -0.5676
  705MOL0     H95151   6.338   5.755   6.688  0.6751 -0.7263  0.6206
  705MOL0     H95152   6.325   5.578   6.656  0.4529 -3.4012  2.3209
  705MOL0     H95153   6.221   5.690   6.921 -0.2395 -0.7175  1.3200
  705MOL0     H95154   6.257   5.529   6.869 -0.8188  0.5699  0.0304
  705MOL0     H95155   5.203   5.460   6.576  2.0761  1.0132  0.8963
  705MOL0     H95156   5.014   5.290   6.619  0.3981 -2.8151 -1.1337
  705MOL0     H95157   4.934   4.872   6.841 -0.7802 -2.8655  0.0421
  705MOL0     H95158   4.780   4.698   6.921 -0.5634 -0.8696  1.7934
  705MOL0     H95159   2.705   4.300   7.299  0.8598  0.3823  0.1343
  705MOL0     H95160   2.540   4.477   7.355  0.4566  0.7148  1.2127
  705MOL0     H95161   2.325   4.689   7.476 -3.3723  1.1585 -1.5763
  705MOL0     H95162   2.158   4.822   7.400  1.1167 -1.1900 -0.2533
  705MOL0     H95163   2.255   5.261   7.350 -1.0762  2.7153  0.2326
  705MOL0     H95164   2.131   5.278   7.466  0.1116  1.5555 -0.9703
  705MOL0     H95165   2.117   5.238   7.173  0.6793  0.0128  0.8207
  705MOL0     H95166   2.058   5.372   7.263 -1.7875  0.8078 -0.0806
  705MOL0     H95167   1.946   5.092   7.240  1.4343 -1.5266  3.2280
  705MOL0     H95168   1.857   5.245   7.204  0.1494 -1.2016 -0.6326
  705MOL0     H95169   1.764   5.132   7.393  1.0783 -1.4567  1.4186
  705MOL0     H95170   1.913   5.129   7.483  0.1901 -0.6348 -0.1816
  705MOL0     H95171   1.709   5.504   7.549  0.5491  0.5748  1.1260
  705MOL0     H95172   2.346   5.169   7.573  0.5686  0.1010 -1.2643
  705MOL0     H95173   2.558   5.172   7.662  0.9918 -0.5606 -0.5531
  705MOL0     H95174   2.562   5.025   7.770  1.1769  0.0761  0.5080
  705MOL0     H95175   2.665   5.035   7.628  0.7202 -1.6604  2.2165
  706MOL0     O95176   2.060   1.422   5.052 -0.2499 -0.0643  0.4851
  706MOL0     C95177   1.995   1.447   4.956  0.8517 -0.8878 -0.0528
  706MOL0     O95178   2.038   1.513   4.845  0.6099 -0.3294  0.2512
  706MOL0     C95179   2.166   1.544   4.847 -0.5456 -0.2578 -0.5206
  706MOL0     C95180   2.263   1.461   4.790 -0.1431  0.5855 -0.1257
  706MOL0     C95181   2.397   1.499   4.796  0.3718 -0.7720 -0.1009
  706MOL0     C95182   2.440   1.618   4.865  0.0542  0.3472  0.7978
  706MOL0     O95183   2.569   1.654   4.877 -0.2621  0.0363  0.0664
  706MOL0     C95184   2.674   1.632   4.774  0.3212 -1.0940  0.3311
  706MOL0     C95185   2.763   1.506   4.810 -0.0106  0.2669  0.5343
  706MOL0     C95186   2.826   1.452   4.678 -0.0760 -0.2462 -1.4428
  706MOL0     C95187   2.910   1.325   4.707  0.3348  0.1064  0.8398
  706MOL0     C95188   3.009   1.290   4.587  0.2867  0.3565 -0.7883
  706MOL0     C95189   3.104   1.177   4.630 -0.2311  0.6460  0.3193
  706MOL0     C95190   3.187   1.115   4.515 -0.2643  0.6351  0.2307
  706MOL0     C95191   3.259   0.989   4.548  0.2567 -0.3939 -0.1765
  706MOL0     N95192   3.340   0.933   4.436 -0.7372  0.6508  0.3975
  706MOL0     C95193   3.477   0.963   4.418  0.8655  0.6199 -0.5377
  706MOL0     C95194   3.512   0.877   4.315 -0.6187  0.1053  0.8356
  706MOL0     C95195   3.653   0.851   4.272 -0.0451  0.2180 -0.1787
  706MOL0     C95196   3.737   0.772   4.385  0.0033  0.3985  0.0935
  706MOL0     C95197   3.890   0.765   4.345  0.0512  0.3750 -1.3765
  706MOL0     C95198   3.935   0.684   4.224  0.9054 -0.2163  0.0909
  706MOL0     O95199   3.918   0.754   4.097 -0.2750 -0.0620  0.3738
  706MOL0     C95200   3.999   0.710   3.985  0.6540  0.0320  0.7713
  706MOL0     C95201   4.062   0.591   3.976 -0.5561  0.0539  0.6565
  706MOL0     C95202   4.149   0.567   3.871  0.3914 -0.6309  0.7912
  706MOL0     C95203   4.160   0.655   3.758  0.4878 -0.0486  0.3853
  706MOL0     C95204   4.240   0.616   3.637  0.0070  0.8981 -1.0638
  706MOL0     O95205   4.308   0.499   3.657 -0.0392 -0.1108 -0.0036
  706MOL0     C95206   4.390   0.465   3.554 -0.1316 -0.2867  0.1038
  706MOL0     C95207   4.340   0.391   3.445 -0.6696 -0.4834 -0.4395
  706MOL0     C95208   4.428   0.357   3.341  0.7194  0.4529 -0.2793
  706MOL0     C95209   4.563   0.402   3.327 -0.6561 -0.2957 -1.5365
  706MOL0     O95210   4.647   0.388   3.223 -0.0874  0.3044  0.1964
  706MOL0     C95211   4.609   0.286   3.121  0.5263 -0.4571  0.0118
  706MOL0     C95212   4.653   0.152   3.179  0.3936  0.1050  0.7004
  706MOL0     C95213   4.693   0.052   3.075 -0.3122 -0.2807  0.1478
  706MOL0     C95214   4.787  -0.048   3.151  0.0472 -0.4082 -0.0234
  706MOL0     C95215   4.842  -0.169   3.072 -0.4259  1.0013 -0.4024
  706MOL0     C95216   4.719  -0.270   3.050 -0.5872  0.4099 -0.0714
  706MOL0     C95217   4.705  -0.322   2.905  0.1854  0.4559  0.8697
  706MOL0     C95218   4.566  -0.387   2.881 -0.0485  0.0311  0.2677
  706MOL0    Cl95219   4.549  -0.433   2.717 -0.0528 -0.0847  0.3150
  706MOL0     C95220   4.611   0.481   3.439 -0.2164 -0.0310 -0.6800
  706MOL0     C95221   4.524   0.505   3.550 -0.6413  0.7958  0.0010
  706MOL0     O95222   4.249   0.693   3.539 -0.8011  0.4857 -1.0795
  706MOL0     C95223   4.092   0.776   3.763  0.1752 -0.0937  0.0484
  706MOL0     C95224   4.008   0.795   3.874  0.1877  0.1343 -0.0812
  706MOL0     N95225   3.398   0.814   4.271 -0.0449 -0.2638 -0.5826
  706MOL0     N95226   3.298   0.842   4.352 -0.7195 -0.1137 -0.0467
  706MOL0     C95227   2.336   1.687   4.929  0.0061  0.0177  0.1955
  706MOL0     C95228   2.203   1.662   4.919  0.2323  0.7493  0.6039
  706MOL0     C95229   1.853   1.405   4.963 -0.6054  0.3655  0.3289
  706MOL0     C95230   1.784   1.377   4.849 -0.0319 -0.2058  0.2590
  706MOL0     C95231   1.645   1.340   4.860  0.3723  0.4632 -0.7206
  706MOL0     C95232   1.577   1.326   4.979  1.0288 -0.7934 -0.7163
  706MOL0     O95233   1.444   1.291   4.992  0.1912  0.9745  0.2736
  706MOL0     C95234   1.423   1.149   5.023 -0.5344  0.3855  0.6511
  706MOL0     C95235   1.330   1.135   5.148 -0.8952 -0.4828  0.2027
  706MOL0     C95236   1.263   0.996   5.154 -0.0823  0.3740 -0.7218
  706MOL0     C95237   1.190   0.977   5.289  0.4399  0.4649  0.1525
  706MOL0     C95238   1.280   0.924   5.394  0.2994  0.4847  0.1569
  706MOL0     C95239   1.363   0.886   5.471 -0.1047  0.0011  0.4855
  706MOL0     C95240   1.647   1.351   5.096  0.4541 -0.1916 -0.0632
  706MOL0     C95241   1.787   1.385   5.097  0.3051  0.0687  0.3667
  706MOL0     C95242   1.853   1.388   5.232  0.1797 -0.3837  0.0173
  706MOL0     H95243   2.241   1.364   4.748 -3.2759  0.8844  0.5892
  706MOL0     H95244   2.478   1.441   4.754 -0.2234 -2.1789  0.6273
  706MOL0     H95245   2.624   1.628   4.677  3.2437 -2.3141 -1.2378
  706MOL0     H95246   2.737   1.721   4.774 -0.0962 -0.7694  1.9279
  706MOL0     H95247   2.705   1.424   4.853 -0.6114  0.9903  1.1560
  706MOL0     H95248   2.841   1.530   4.883 -1.1722  2.2427  1.2180
  706MOL0     H95249   2.894   1.530   4.642 -1.4768  0.7377 -2.0520
  706MOL0     H95250   2.745   1.429   4.608 -1.7558  0.1598  0.2960
  706MOL0     H95251   2.966   1.337   4.801  0.6384 -0.3833  0.7243
  706MOL0     H95252   2.838   1.245   4.726  0.0881  0.1112 -0.0251
  706MOL0     H95253   2.950   1.261   4.499  1.0780  0.8608 -1.5018
  706MOL0     H95254   3.064   1.384   4.573 -1.7734  1.6373 -0.6968
  706MOL0     H95255   3.180   1.209   4.702  2.4297 -2.1093 -1.0359
  706MOL0     H95256   3.049   1.099   4.685  1.0827  1.5392  3.0714
  706MOL0     H95257   3.260   1.177   4.461  0.7004 -1.1510 -0.5993
  706MOL0     H95258   3.119   1.072   4.441  1.3174 -3.3345  0.8176
  706MOL0     H95259   3.328   1.009   4.631  1.1305 -0.0475 -0.9563
  706MOL0     H95260   3.177   0.924   4.578 -1.6334  1.1799 -1.6807
  706MOL0     H95261   3.531   1.027   4.487  0.0930 -0.3212  0.9916
  706MOL0     H95262   3.644   0.793   4.180  0.3775 -2.2459  1.2364
  706MOL0     H95263   3.692   0.953   4.264 -2.0690  1.1914  1.6042
  706MOL0     H95264   3.727   0.815   4.485 -3.4393  0.6774 -0.2478
  706MOL0     H95265   3.690   0.673   4.386 -1.0823  0.8768  2.0590
  706MOL0     H95266   3.940   0.714   4.428 -0.8352 -0.9582 -1.6264
  706MOL0     H95267   3.930   0.867   4.346  1.4026 -0.1365 -0.3171
  706MOL0     H95268   3.880   0.589   4.222  2.6104 -1.2476 -0.2371
  706MOL0     H95269   4.041   0.661   4.238  0.1594 -2.2306  4.0961
  706MOL0     H95270   4.064   0.513   4.052  0.6897 -0.2762  0.3059
  706MOL0     H95271   4.181   0.464   3.868 -0.6018 -0.9963  1.8680
  706MOL0     H95272   4.236   0.362   3.437 -0.9703  0.4362  0.0603
  706MOL0     H95273   4.380   0.302   3.262 -1.6333 -1.2017  2.1190
  706MOL0     H95274   4.503   0.304   3.100  0.8411 -0.1359 -1.4495
  706MOL0     H95275   4.655   0.301   3.023  1.5308 -1.0648  0.3711
  706MOL0     H95276   4.747   0.176   3.229  1.3926 -1.9624 -0.0801
  706MOL0     H95277   4.574   0.106   3.240  1.3925 -2.2856  0.3075
  706MOL0     H95278   4.613  -0.005   3.029 -2.1231  0.3272  2.3483
  706MOL0     H95279   4.747   0.094   2.990  0.9521 -0.3986  0.8677
  706MOL0     H95280   4.746  -0.087   3.244  3.2737 -1.2643  1.1745
  706MOL0     H95281   4.867   0.020   3.182 -3.2964  2.3212  3.6249
  706MOL0     H95282   4.917  -0.217   3.135 -1.2045  0.4819  0.1475
  706MOL0     H95283   4.896  -0.134   2.984  1.8006  0.1021  0.5410
  706MOL0     H95284   4.734  -0.354   3.119  1.2476  1.5454  0.9922
  706MOL0     H95285   4.627  -0.216   3.076 -1.0613  0.8360 -2.3563
  706MOL0     H95286   4.797  -0.380   2.895  1.5020  2.5100  0.4609
  706MOL0     H95287   4.710  -0.236   2.838 -2.2088 -1.6650 -2.3079
  706MOL0     H95288   4.550  -0.468   2.952  1.1064 -1.7002 -1.3589
  706MOL0     H95289   4.497  -0.302   2.889 -0.9951 -0.4044 -2.3411
  706MOL0     H95290   4.715   0.515   3.440 -0.5185  1.0216 -1.8682
  706MOL0     H95291   4.572   0.565   3.627 -0.0040 -1.2132  1.2278
  706MOL0     H95292   4.097   0.851   3.685 -0.8670 -0.7487 -0.6616
  706MOL0     H95293   3.954   0.888   3.883 -1.7808 -1.1164  1.6562
  706MOL0     H95294   2.375   1.776   4.977  2.7327 -0.4582 -0.9378
  706MOL0     H95295   2.130   1.729   4.966  1.9911  0.4816  4.0467
  706MOL0     H95296   1.827   1.386   4.750  2.0046  0.1455  1.1307
  706MOL0     H95297   1.592   1.328   4.766  1.4862  0.8076 -1.4180
  706MOL0     H95298   1.521   1.101   5.033 -0.2891  1.1322  2.0794
  706MOL0     H95299   1.368   1.110   4.937 -3.4070  0.6483  2.2541
  706MOL0     H95300   1.252   1.211   5.137 -1.6662 -0.6114  3.8209
  706MOL0     H95301   1.394   1.167   5.230 -1.7937  0.5847  0.5127
  706MOL0     H95302   1.327   0.907   5.150 -2.5325 -1.4946 -0.4792
  706MOL0     H95303   1.182   0.996   5.080 -0.4873 -2.0279 -0.3412
  706MOL0     H95304   1.155   1.074   5.327  2.9084  2.8950 -3.1289
  706MOL0     H95305   1.103   0.913   5.272 -0.7814  1.1696  3.1334
  706MOL0     H95306   1.430   0.855   5.549  3.9657  4.4653 -0.7623
  706MOL0     H95307   1.592   1.324   5.186 -1.8384 -1.0481 -1.6135
  706MOL0     H95308   1.786   1.393   5.318  0.7364  1.2206  0.3828
  706MOL0     H95309   1.924   1.304   5.239  1.9157  1.0336  0.2477
  706MOL0     H95310   1.925   1.470   5.239  1.1807 -1.1595 -0.7930
  707MOL0     O95311   6.132   3.828   4.214  0.0979  0.3784  0.4884
  707MOL0     C95312   6.085   3.760   4.302 -0.0571 -0.3078  0.3247
  707MOL0     O95313   6.149   3.725   4.415  0.0936  0.6496 -0.1241
  707MOL0     C95314   6.282   3.755   4.421 -0.2826 -0.4163  0.7587
  707MOL0     C95315   6.309   3.844   4.524 -0.3859  0.5180  0.8986
  707MOL0     C95316   6.431   3.890   4.544 -0.8700 -0.0181 -0.0413
  707MOL0     C95317   6.549   3.844   4.468 -0.2180  0.8453 -0.1407
  707MOL0     O95318   6.683   3.886   4.484  0.4962  0.1466 -0.3147
  707MOL0     C95319   6.717   3.966   4.596 -0.0584 -0.0596  0.0408
  707MOL0     C95320   6.872   3.981   4.594  0.7394  0.5988  0.2657
  707MOL0     C95321   6.949   3.857   4.647  0.2508  0.1877  0.2883
  707MOL0     C95322   7.095   3.882   4.663  0.0632  0.6527 -0.2495
  707MOL0     C95323   7.167   3.740   4.691 -0.8879 -0.1005  0.3717
  707MOL0     C95324   7.317   3.751   4.651 -0.2760  0.1028 -0.4841
  707MOL0     C95325   7.411   3.815   4.753 -0.2412 -0.1941 -0.2412
  707MOL0     C95326   7.421   3.733   4.877  0.1596 -0.2824 -0.3346
  707MOL0     N95327   7.488   3.810   4.980 -0.0353 -0.5925 -0.3551
  707MOL0     C95328   7.623   3.844   4.988  0.4745 -0.5078 -0.1416
  707MOL0     C95329   7.640   3.876   5.114 -0.2410 -0.9523  0.7407
  707MOL0     C95330   7.766   3.928   5.190 -0.4487  0.0336 -0.6429
  707MOL0     C95331   7.825   3.815   5.278 -0.4489 -0.2264 -0.6753
  707MOL0     C95332   7.869   3.871   5.415  0.2507 -0.2485 -0.1654
  707MOL0     C95333   7.951   3.771   5.499 -0.3738 -0.1160 -0.0286
  707MOL0     O95334   8.069   3.734   5.416 -0.2765 -0.8908  0.5386
  707MOL0     C95335   8.180   3.712   5.491 -0.0921 -0.2304 -0.3220
  707MOL0     C95336   8.299   3.766   5.439  0.8674 -0.0812 -1.0588
  707MOL0     C95337   8.418   3.755   5.509 -0.3996 -0.0022  0.2652
  707MOL0     C95338   8.418   3.695   5.632  0.3184 -1.1971  0.2651
  707MOL0     C95339   8.549   3.688   5.709 -0.7199  0.2579 -0.3141
  707MOL0     O95340   8.638   3.796   5.687  0.8108 -0.1595  0.5035
  707MOL0     C95341   8.741   3.816   5.771  0.4326 -0.4666  0.5247
  707MOL0     C95342   8.826   3.722   5.829  0.9382 -0.5434  0.1246
  707MOL0     C95343   8.951   3.752   5.875 -0.3053 -0.5936 -0.4250
  707MOL0     C95344   8.990   3.885   5.885  1.0204 -0.6971  0.0369
  707MOL0     O95345   9.109   3.903   5.955  0.2730 -0.2651  0.5349
  707MOL0     C95346   9.141   4.045   5.971 -0.2077  0.3231 -0.4848
  707MOL0     C95347   9.274   4.056   6.053 -0.2934  0.1269 -0.3144
  707MOL0     C95348   9.336   4.196   6.029 -0.0234 -0.4063  0.4810
  707MOL0     C95349   9.414   4.184   5.906  0.6465  0.0932 -0.0979
  707MOL0     C95350   9.504   4.309   5.892 -0.0895 -0.5336  0.1026
  707MOL0     C95351   9.607   4.289   5.781 -0.0317  0.2928  0.1104
  707MOL0     C95352   9.731   4.368   5.797 -0.3367  0.2189 -0.2052
  707MOL0     C95353   9.799   4.375   5.674  0.5511  0.7739  0.9690
  707MOL0    Cl95354   9.932   4.489   5.681 -0.0002 -0.6379 -0.0299
  707MOL0     C95355   8.910   3.985   5.827 -0.1617 -0.1451 -0.2452
  707MOL0     C95356   8.782   3.953   5.769 -0.1838  0.7498 -0.1998
  707MOL0     O95357   8.566   3.598   5.787 -0.0790 -0.7429  0.2549
  707MOL0     C95358   8.299   3.651   5.692 -0.5756  0.1502 -0.3494
  707MOL0     C95359   8.181   3.657   5.619  0.6535 -0.5554 -0.4479
  707MOL0     N95360   7.520   3.872   5.185 -1.1505 -0.1233  0.3152
  707MOL0     N95361   7.442   3.822   5.103  0.2136 -0.1126  0.5395
  707MOL0     C95362   6.518   3.747   4.369  0.0735 -0.4459 -0.6516
  707MOL0     C95363   6.389   3.699   4.353  1.0600  0.5882 -0.7646
  707MOL0     C95364   5.945   3.714   4.288 -0.4638  0.2158  0.6634
  707MOL0     C95365   5.853   3.805   4.237 -0.2291  0.3130  0.9378
  707MOL0     C95366   5.718   3.795   4.243 -0.1559 -0.0561 -0.8276
  707MOL0     C95367   5.660   3.673   4.286 -0.2718  0.5653  0.7411
  707MOL0     O95368   5.522   3.661   4.308  0.1089 -0.5441  0.3136
  707MOL0     C95369   5.434   3.765   4.260 -0.8094 -0.7603  0.3569
  707MOL0     C95370   5.291   3.720   4.254  0.2552 -0.2628 -0.3605
  707MOL0     C95371   5.203   3.825   4.190 -0.0173  0.6041  0.3562
  707MOL0     C95372   5.046   3.793   4.199  0.4522 -0.3720 -0.6068
  707MOL0     C95373   5.009   3.675   4.126 -0.5109 -0.0808  0.5089
  707MOL0     C95374   4.987   3.571   4.062  0.7253  0.9056  0.5653
  707MOL0     C95375   5.747   3.574   4.322  0.0301 -0.4296 -0.0518
  707MOL0     C95376   5.893   3.598   4.330 -0.4013  1.1793  0.7275
  707MOL0     C95377   5.970   3.477   4.379 -0.3779 -0.3141 -0.8545
  707MOL0     H95378   6.231   3.896   4.580 -2.5325 -2.5145  0.9900
  707MOL0     H95379   6.461   3.964   4.619 -0.8377  0.3452 -0.4072
  707MOL0     H95380   6.668   4.063   4.597  0.2668  0.1267  2.2002
  707MOL0     H95381   6.688   3.917   4.689 -1.9572  0.3074 -0.3185
  707MOL0     H95382   6.891   4.063   4.663  0.1120  1.6239 -0.7356
  707MOL0     H95383   6.911   3.995   4.493  0.7650 -1.7540 -0.1132
  707MOL0     H95384   6.940   3.775   4.576  0.7663 -0.5171  1.0188
  707MOL0     H95385   6.912   3.825   4.745  2.0394 -2.4393  0.2194
  707MOL0     H95386   7.130   3.933   4.573 -0.3890  0.5725 -0.4760
  707MOL0     H95387   7.110   3.949   4.748  1.8756  0.7003 -0.5667
  707MOL0     H95388   7.149   3.708   4.794 -2.3352  0.0257  0.1794
  707MOL0     H95389   7.128   3.663   4.625  3.7782 -2.5696  0.0300
  707MOL0     H95390   7.363   3.654   4.627  0.5139 -0.8794  3.9481
  707MOL0     H95391   7.314   3.802   4.555 -2.3729 -2.1562 -1.7193
  707MOL0     H95392   7.368   3.912   4.782  2.2656  1.4258 -1.6170
  707MOL0     H95393   7.508   3.839   4.709 -1.3685  1.4813 -1.9905
  707MOL0     H95394   7.323   3.696   4.910 -0.4498  2.1665  0.7804
  707MOL0     H95395   7.489   3.648   4.862  1.1037  0.5276 -0.6994
  707MOL0     H95396   7.692   3.846   4.904  3.1939 -1.0448  1.9779
  707MOL0     H95397   7.844   3.964   5.122 -1.7494  2.1939 -1.0672
  707MOL0     H95398   7.745   4.016   5.251 -0.5770 -0.8888  0.6739
  707MOL0     H95399   7.753   3.734   5.287 -0.0936 -0.3367  2.0496
  707MOL0     H95400   7.910   3.775   5.221  0.2516  0.7325 -0.3469
  707MOL0     H95401   7.774   3.897   5.462  0.4580  0.4135 -0.1040
  707MOL0     H95402   7.926   3.963   5.399 -0.1619  0.3224  1.4604
  707MOL0     H95403   7.902   3.673   5.512 -1.2364 -0.0493 -2.3072
  707MOL0     H95404   7.969   3.814   5.597  0.3809 -1.5100  0.4674
  707MOL0     H95405   8.300   3.828   5.350 -2.4299  1.3072 -0.2747
  707MOL0     H95406   8.510   3.781   5.459  0.5365 -2.3207  0.6520
  707MOL0     H95407   8.809   3.615   5.831  1.7136 -0.6896 -0.5997
  707MOL0     H95408   9.021   3.677   5.909  1.5975  0.5640 -1.5538
  707MOL0     H95409   9.162   4.076   5.868 -1.3790 -1.3247 -1.2649
  707MOL0     H95410   9.058   4.098   6.019 -1.7429 -1.1994 -1.3172
  707MOL0     H95411   9.249   4.054   6.159  0.3452  0.3044 -0.1532
  707MOL0     H95412   9.347   3.977   6.031 -0.2052 -1.1356  3.6374
  707MOL0     H95413   9.266   4.279   6.025  2.1860  1.5278 -0.8632
  707MOL0     H95414   9.404   4.212   6.113 -0.1143 -1.6110  0.8079
  707MOL0     H95415   9.348   4.177   5.819  2.7375 -1.2614 -1.6881
  707MOL0     H95416   9.483   4.099   5.906  0.7957  0.1677 -1.9317
  707MOL0     H95417   9.559   4.342   5.981  0.9806  1.4240 -1.1921
  707MOL0     H95418   9.438   4.395   5.875 -2.7415 -2.3869  0.5241
  707MOL0     H95419   9.631   4.184   5.767  1.7173  0.9133 -2.0924
  707MOL0     H95420   9.550   4.315   5.691 -1.7050  0.0424  1.0644
  707MOL0     H95421   9.791   4.326   5.878 -0.2176  3.5244  1.5976
  707MOL0     H95422   9.708   4.471   5.828 -0.5823  0.5098 -1.3176
  707MOL0     H95423   9.836   4.275   5.651  0.4022  0.9408 -0.0522
  707MOL0     H95424   9.743   4.417   5.590  3.8030 -1.5427 -2.7173
  707MOL0     H95425   8.937   4.090   5.820  0.6773 -0.3391 -0.1116
  707MOL0     H95426   8.715   4.018   5.714 -0.3123  0.3010 -0.5831
  707MOL0     H95427   8.303   3.608   5.792  2.2325 -0.0081 -0.4628
  707MOL0     H95428   8.089   3.618   5.662  0.1760  0.8344 -0.1455
  707MOL0     H95429   6.599   3.707   4.309 -0.1155 -0.5735 -0.8186
  707MOL0     H95430   6.365   3.623   4.279 -1.9920 -1.1543  1.7834
  707MOL0     H95431   5.889   3.904   4.210 -2.6385  0.7745 -0.9320
  707MOL0     H95432   5.662   3.883   4.214  0.1190  0.7851  1.0242
  707MOL0     H95433   5.457   3.787   4.155 -0.8278 -5.2668 -0.7788
  707MOL0     H95434   5.465   3.845   4.328  3.8017 -2.3490  0.4744
  707MOL0     H95435   5.253   3.691   4.352  2.2213  0.9171  0.8000
  707MOL0     H95436   5.287   3.627   4.197 -1.1308  0.7914 -2.0971
  707MOL0     H95437   5.218   3.841   4.083 -1.2586 -2.3941 -0.3384
  707MOL0     H95438   5.226   3.919   4.243  0.1753  0.4892  0.4791
  707MOL0     H95439   5.011   3.786   4.302 -3.0063  0.6031 -1.5728
  707MOL0     H95440   4.993   3.874   4.147  0.2684 -0.5343 -0.6784
  707MOL0     H95441   4.966   3.490   3.995 -4.4856  2.2728  0.0760
  707MOL0     H95442   5.704   3.482   4.359 -1.3044 -0.1587 -0.8725
  707MOL0     H95443   5.999   3.492   4.483 -0.3195 -4.5415 -0.1151
  707MOL0     H95444   5.910   3.389   4.357 -1.9858  1.1687 -2.8160
  707MOL0     H95445   6.066   3.471   4.327  0.9368  1.1741  1.2208
  708MOL0     O95446   7.349   3.281   9.376  0.0053 -0.5843 -0.1286
  708MOL0     C95447   7.380   3.360   9.469  0.0648  0.1730  0.2180
  708MOL0     O95448   7.497   3.359   9.537 -0.5605  0.8114 -0.2395
  708MOL0     C95449   7.561   3.243   9.542  0.2195  0.0186 -0.0245
  708MOL0     C95450   7.685   3.216   9.478 -0.5105 -0.2591 -0.0891
  708MOL0     C95451   7.757   3.104   9.508  0.9247 -0.2272  0.5042
  708MOL0     C95452   7.700   3.000   9.584 -0.3089  0.9889  0.3050
  708MOL0     O95453   7.751   2.880   9.609 -0.3450  0.2906  0.1936
  708MOL0     C95454   7.875   2.844   9.532 -0.6216 -0.0203  0.3746
  708MOL0     C95455   7.916   2.707   9.590  0.3513 -0.2595 -0.1418
  708MOL0     C95456   8.004   2.625   9.496  0.1994 -0.6365  0.5793
  708MOL0     C95457   8.080   2.518   9.579  0.6232 -0.0930 -0.6467
  708MOL0     C95458   8.222   2.490   9.521  0.1881 -0.3094 -0.2516
  708MOL0     C95459   8.282   2.384   9.612 -0.0254 -0.3207 -0.3131
  708MOL0     C95460   8.429   2.353   9.566  0.0816 -0.4229 -1.2750
  708MOL0     C95461   8.462   2.224   9.637 -0.4748  0.4123 -0.5001
  708MOL0     N95462   8.602   2.177   9.618  0.4702 -0.4082  0.2851
  708MOL0     C95463   8.663   2.109   9.516 -0.3808  0.0757  0.3147
  708MOL0     C95464   8.800   2.103   9.545 -0.8825 -0.0113  0.6375
  708MOL0     C95465   8.908   2.026   9.472 -0.7659  0.6637  0.3140
  708MOL0     C95466   9.032   2.123   9.446  1.7913 -0.4925 -0.2008
  708MOL0     C95467   9.142   2.051   9.370 -0.6504  1.3254  0.3486
  708MOL0     C95468   9.255   2.144   9.354  0.7501  0.1171  0.2940
  708MOL0     O95469   9.311   2.173   9.481  0.3899 -0.1639 -0.1649
  708MOL0     C95470   9.413   2.267   9.498  0.0153  0.5308 -0.2493
  708MOL0     C95471   9.485   2.317   9.386  0.4405 -0.4459 -0.0261
  708MOL0     C95472   9.588   2.405   9.399  0.3984  0.6756  0.0537
  708MOL0     C95473   9.640   2.437   9.532 -0.2357  0.1567  1.1165
  708MOL0     C95474   9.770   2.512   9.549  0.3670  0.0955 -0.5727
  708MOL0     O95475   9.789   2.562   9.679 -0.1055 -1.3029  0.0647
  708MOL0     C95476   9.899   2.649   9.693 -0.2768  0.1751 -0.6038
  708MOL0     C95477  10.036   2.611   9.682 -0.1595  0.3138 -0.1173
  708MOL0     C95478  10.144   2.700   9.690  0.2472 -0.2642  0.7548
  708MOL0     C95479  10.112   2.841   9.715 -0.1604 -0.0314 -0.2595
  708MOL0     O95480  10.208   2.943   9.725 -0.1021  0.3220  0.4258
  708MOL0     C95481  10.339   2.920   9.673  1.6331  0.3561  0.8086
  708MOL0     C95482  10.440   3.030   9.710 -1.0815 -0.1124  0.3743
  708MOL0     C95483  10.570   3.010   9.627  0.5602 -0.5398 -0.3205
  708MOL0     C95484  10.636   2.874   9.624  0.1829  0.1297  0.6686
  708MOL0     C95485  10.787   2.878   9.602 -0.0882  0.1951 -0.1902
  708MOL0     C95486  10.816   2.929   9.458 -0.0366  0.4484  0.1729
  708MOL0     C95487  10.960   2.908   9.417 -0.3501  0.1200 -0.2424
  708MOL0     C95488  11.060   2.958   9.516 -0.3362  0.5447  0.4456
  708MOL0    Cl95489  11.109   2.834   9.648  0.2670  0.8096  0.3307
  708MOL0     C95490   9.972   2.875   9.728  0.1235 -0.6220 -0.9023
  708MOL0     C95491   9.870   2.784   9.716 -0.4604  0.6723 -1.0528
  708MOL0     O95492   9.841   2.533   9.451  0.0185  0.3466 -0.1216
  708MOL0     C95493   9.566   2.388   9.637 -0.5040  1.1574 -0.0028
  708MOL0     C95494   9.457   2.299   9.617 -0.3142 -0.4444 -0.2244
  708MOL0     N95495   8.820   2.195   9.644  0.2003 -0.1668 -0.5349
  708MOL0     N95496   8.701   2.253   9.671  0.5377  0.4815 -0.3581
  708MOL0     C95497   7.576   3.024   9.646  0.1392  0.2061 -0.2200
  708MOL0     C95498   7.508   3.144   9.624 -0.8139 -0.4025  0.3857
  708MOL0     C95499   7.287   3.469   9.516 -0.1776  1.1257  0.2578
  708MOL0     C95500   7.295   3.510   9.644  0.9806 -0.8174 -1.1102
  708MOL0     C95501   7.209   3.614   9.694 -0.0682  0.1182  0.1140
  708MOL0     C95502   7.139   3.696   9.603 -0.4001  0.3990  0.1440
  708MOL0     O95503   7.065   3.795   9.664 -0.4247 -0.8631  0.1762
  708MOL0     C95504   6.931   3.830   9.619 -0.3128 -0.4430 -0.4906
  708MOL0     C95505   6.941   3.982   9.584 -1.0427 -0.1319  0.8306
  708MOL0     C95506   6.950   4.071   9.712 -0.2906 -0.8795  0.6628
  708MOL0     C95507   6.992   4.213   9.674 -0.3430 -0.8057  0.2177
  708MOL0     C95508   7.119   4.207   9.600  0.9522 -0.2792  0.4960
  708MOL0     C95509   7.227   4.214   9.547  0.4566  0.1464  0.7423
  708MOL0     C95510   7.137   3.659   9.467 -0.0774 -0.0493 -0.6766
  708MOL0     C95511   7.197   3.539   9.426  0.0684 -0.5804 -0.3975
  708MOL0     C95512   7.149   3.504   9.287 -0.3539  0.7746 -0.0083
  708MOL0     H95513   7.713   3.306   9.424 -0.4537  0.5982  1.3147
  708MOL0     H95514   7.857   3.094   9.467 -0.2004 -1.7018 -2.1186
  708MOL0     H95515   7.871   2.843   9.422  0.2974 -0.0573  0.3316
  708MOL0     H95516   7.953   2.917   9.556 -0.8051  0.5958 -0.7880
  708MOL0     H95517   7.828   2.647   9.611  0.3608  0.4437  2.1924
  708MOL0     H95518   7.969   2.730   9.683  1.7946  2.4337 -1.4967
  708MOL0     H95519   8.080   2.695   9.460  0.9833 -2.4376 -1.4948
  708MOL0     H95520   7.955   2.594   9.404  2.7229 -0.6187 -0.8802
  708MOL0     H95521   8.089   2.548   9.684 -3.7488 -1.0736  0.2062
  708MOL0     H95522   8.032   2.420   9.568  2.7511 -1.2141 -0.4638
  708MOL0     H95523   8.215   2.456   9.417 -0.7703 -0.8825 -0.0100
  708MOL0     H95524   8.269   2.588   9.525  0.0957 -0.3165  1.9259
  708MOL0     H95525   8.273   2.409   9.718 -2.7686 -0.1751 -0.5156
  708MOL0     H95526   8.229   2.291   9.591  1.2935 -0.9888 -0.8060
  708MOL0     H95527   8.495   2.438   9.588 -0.2551 -1.1276  3.2704
  708MOL0     H95528   8.430   2.347   9.457 -0.2699 -1.5700 -1.2291
  708MOL0     H95529   8.456   2.233   9.746  4.2899 -0.5351  0.0682
  708MOL0     H95530   8.392   2.145   9.607  0.7049 -1.2962  1.0143
  708MOL0     H95531   8.611   2.061   9.433 -1.8904 -1.1093  1.8770
  708MOL0     H95532   8.946   1.943   9.533 -0.4930  1.3921  1.1522
  708MOL0     H95533   8.863   1.985   9.381  1.1608 -1.0077  0.0400
  708MOL0     H95534   8.993   2.211   9.395 -0.1351 -1.0627  0.2201
  708MOL0     H95535   9.074   2.167   9.537  1.9925  0.9846 -0.9757
  708MOL0     H95536   9.094   2.021   9.277 -1.2980 -0.9998  1.3316
  708MOL0     H95537   9.181   1.960   9.417 -2.1824 -1.2690 -3.0063
  708MOL0     H95538   9.209   2.232   9.308 -0.6991 -0.3193  0.8293
  708MOL0     H95539   9.324   2.086   9.292  0.4046 -1.5438  1.3949
  708MOL0     H95540   9.466   2.289   9.283  0.6398  2.1110 -0.8244
  708MOL0     H95541   9.655   2.446   9.325  0.2668  0.7805 -0.0087
  708MOL0     H95542  10.056   2.507   9.658 -2.5259 -0.1753 -0.2543
  708MOL0     H95543  10.245   2.661   9.692 -0.9031 -3.5350  2.8798
  708MOL0     H95544  10.383   2.821   9.689  1.9731  0.0988 -1.3422
  708MOL0     H95545  10.326   2.918   9.564 -0.6841  1.3615  1.0113
  708MOL0     H95546  10.398   3.130   9.698 -1.9470 -0.5367 -0.2887
  708MOL0     H95547  10.469   3.028   9.816 -1.7931 -0.6752  0.5748
  708MOL0     H95548  10.566   3.045   9.523  1.4604  0.0176 -0.1789
  708MOL0     H95549  10.641   3.083   9.667 -0.9355  1.9668 -1.9383
  708MOL0     H95550  10.595   2.804   9.550  0.5110  0.5582  0.0756
  708MOL0     H95551  10.612   2.824   9.718 -1.1976 -0.0187  0.2626
  708MOL0     H95552  10.823   2.775   9.600 -1.9391 -0.6292  2.6858
  708MOL0     H95553  10.828   2.945   9.678 -1.7561  0.8048  0.2108
  708MOL0     H95554  10.752   2.863   9.398  0.4665  0.6783 -0.6309
  708MOL0     H95555  10.782   3.032   9.448 -0.5242  0.7023  3.4094
  708MOL0     H95556  10.970   2.959   9.320 -2.7655  0.6177 -0.2917
  708MOL0     H95557  10.986   2.802   9.408  0.2818 -0.2491  4.0447
  708MOL0     H95558  11.148   2.972   9.451  1.4184 -0.8723  2.3680
  708MOL0     H95559  11.037   3.054   9.562 -1.6724  1.4086 -1.8371
  708MOL0     H95560   9.932   2.973   9.752  2.6595  0.1923  0.3418
  708MOL0     H95561   9.766   2.812   9.728  0.5205  4.1682  0.5418
  708MOL0     H95562   9.598   2.396   9.740 -0.7651 -3.0495  0.5802
  708MOL0     H95563   9.404   2.257   9.703  0.3834 -1.8235 -0.4323
  708MOL0     H95564   7.529   2.954   9.714 -0.3030  0.2603 -0.4673
  708MOL0     H95565   7.408   3.157   9.663 -1.9443 -1.3603 -2.0234
  708MOL0     H95566   7.368   3.464   9.708  2.0268 -3.0157 -3.6895
  708MOL0     H95567   7.200   3.627   9.801  1.1757 -1.2154  0.4110
  708MOL0     H95568   6.870   3.818   9.709  0.5365 -1.9882 -0.0932
  708MOL0     H95569   6.884   3.780   9.534 -1.4667  1.0852 -0.7957
  708MOL0     H95570   6.850   4.010   9.530 -0.3622  1.4987  0.4707
  708MOL0     H95571   7.030   3.996   9.523 -1.2342  2.2094  0.9933
  708MOL0     H95572   7.019   4.031   9.786  0.2091  0.2640  0.8311
  708MOL0     H95573   6.845   4.073   9.741 -1.2530 -4.3140 -1.8776
  708MOL0     H95574   6.924   4.260   9.601  3.1750  2.0968 -1.4916
  708MOL0     H95575   7.003   4.268   9.768 -0.3366 -0.4282 -0.0023
  708MOL0     H95576   7.327   4.213   9.507 -0.3826  2.0152 -1.6728
  708MOL0     H95577   7.078   3.727   9.406 -1.7641 -0.2192  0.6579
  708MOL0     H95578   7.071   3.571   9.251  0.3526  1.1791 -0.7974
  708MOL0     H95579   7.233   3.497   9.217 -0.8672 -0.5789 -0.5322
  708MOL0     H95580   7.103   3.405   9.283 -1.2523  1.1785  0.1699
  709MOL0     O95581   0.158   7.394   3.269 -0.4233  0.8510  0.6656
  709MOL0     C95582   0.097   7.486   3.305  1.0969 -0.3027  0.7239
  709MOL0     O95583   0.143   7.610   3.318 -0.4992  0.1350  0.3805
  709MOL0     C95584   0.277   7.640   3.295  0.3496  0.2174  0.4492
  709MOL0     C95585   0.375   7.555   3.346 -0.6139 -0.6110 -0.4914
  709MOL0     C95586   0.506   7.601   3.347  0.2585 -1.1550 -0.4011
  709MOL0     C95587   0.550   7.711   3.270  0.3455  0.9327  0.1977
  709MOL0     O95588   0.686   7.730   3.275  0.3074  0.3838 -0.3603
  709MOL0     C95589   0.739   7.825   3.186 -0.8143  0.4474  0.4117
  709MOL0     C95590   0.872   7.780   3.133 -0.8926  0.5553  1.0060
  709MOL0     C95591   0.867   7.638   3.061 -0.3959  0.6094 -0.1375
  709MOL0     C95592   0.946   7.546   3.153 -0.0678 -0.1277 -0.0195
  709MOL0     C95593   0.970   7.406   3.105 -0.5172 -0.2574 -0.0284
  709MOL0     C95594   0.855   7.310   3.066 -0.2747  0.8199 -0.4672
  709MOL0     C95595   0.890   7.172   3.010  0.1658 -0.0461 -0.6911
  709MOL0     C95596   0.966   7.078   3.108  0.6080  0.1190  0.0418
  709MOL0     N95597   1.009   6.949   3.043  0.4181  0.5798  0.5858
  709MOL0     C95598   1.127   6.928   2.974  0.6660 -0.5446  0.1813
  709MOL0     C95599   1.110   6.805   2.920 -0.4250  0.8476 -0.5008
  709MOL0     C95600   1.201   6.726   2.827 -0.0497 -0.5441  0.1120
  709MOL0     C95601   1.322   6.667   2.901 -0.5718  0.1882  0.1267
  709MOL0     C95602   1.378   6.532   2.829  0.1060 -1.0349 -0.6655
  709MOL0     C95603   1.521   6.512   2.856 -0.5768  0.9974 -0.5914
  709MOL0     O95604   1.567   6.407   2.777  0.4779 -0.3352 -0.7052
  709MOL0     C95605   1.697   6.410   2.731  0.9931  0.2014 -0.3501
  709MOL0     C95606   1.801   6.329   2.779  0.3093 -0.3392  0.6185
  709MOL0     C95607   1.934   6.360   2.742  0.5754  0.2303  0.1166
  709MOL0     C95608   1.968   6.464   2.663 -0.2080 -0.1432 -1.0006
  709MOL0     C95609   2.109   6.502   2.639 -0.3368  0.1710  0.5721
  709MOL0     O95610   2.213   6.424   2.690 -0.6909 -0.3315 -0.4689
  709MOL0     C95611   2.346   6.457   2.684  0.6043 -0.4212  0.2472
  709MOL0     C95612   2.431   6.361   2.740 -0.3136 -0.1145  0.1047
  709MOL0     C95613   2.571   6.379   2.732 -0.5034 -0.4584  0.7058
  709MOL0     C95614   2.631   6.498   2.681 -0.7996  0.7689  0.1864
  709MOL0     O95615   2.765   6.522   2.676  0.5652  0.4086 -0.4007
  709MOL0     C95616   2.859   6.426   2.713  0.2081  0.2850 -0.9188
  709MOL0     C95617   2.998   6.485   2.717  0.4756  0.1346  0.2550
  709MOL0     C95618   3.105   6.385   2.728  0.5081  0.0700 -0.1025
  709MOL0     C95619   3.239   6.450   2.754  0.5280 -0.6073 -0.4683
  709MOL0     C95620   3.345   6.351   2.777 -0.1023  0.7246  0.0140
  709MOL0     C95621   3.484   6.417   2.766 -0.6509 -0.4441  0.3631
  709MOL0     C95622   3.600   6.320   2.796  0.5809  0.1761 -0.4588
  709MOL0     C95623   3.726   6.401   2.755 -0.2179  0.0041  0.0599
  709MOL0    Cl95624   3.861   6.289   2.746  0.0080 -0.1376  0.0937
  709MOL0     C95625   2.547   6.597   2.624  0.2514  0.7379 -0.1085
  709MOL0     C95626   2.410   6.570   2.628  0.1643 -0.1094  0.0663
  709MOL0     O95627   2.121   6.595   2.562  0.0327 -0.4107  0.4112
  709MOL0     C95628   1.858   6.539   2.608  0.1150  0.5905 -0.2332
  709MOL0     C95629   1.728   6.511   2.646  0.5770  0.3615  0.1470
  709MOL0     N95630   0.997   6.752   2.976 -0.2009  0.6416  0.1084
  709MOL0     N95631   0.937   6.834   3.054  0.0043  0.2095  0.8644
  709MOL0     C95632   0.443   7.790   3.213 -0.4821  0.1154 -0.5374
  709MOL0     C95633   0.309   7.752   3.223 -0.5666 -0.3371 -0.0852
  709MOL0     C95634  -0.041   7.455   3.348 -0.2331 -0.2671  0.3592
  709MOL0     C95635  -0.062   7.422   3.483 -0.0154  0.0289 -0.2812
  709MOL0     C95636  -0.190   7.404   3.535 -1.1665 -0.3200  0.2829
  709MOL0     C95637  -0.304   7.438   3.457  0.4403 -0.4378  0.0391
  709MOL0     O95638  -0.433   7.452   3.501 -0.1120 -0.3767  0.0602
  709MOL0     C95639  -0.465   7.403   3.630 -0.0213  0.6293  1.0337
  709MOL0     C95640  -0.610   7.427   3.644  0.5920 -0.3277 -0.3709
  709MOL0     C95641  -0.696   7.323   3.566 -0.0355  0.4012  0.6405
  709MOL0     C95642  -0.841   7.376   3.554 -0.2849 -0.9021 -0.2041
  709MOL0     C95643  -0.927   7.261   3.510 -0.1926 -0.4799 -0.6689
  709MOL0     C95644  -1.000   7.171   3.470  0.1718  0.2775  0.2585
  709MOL0     C95645  -0.285   7.473   3.324 -0.0731  0.3510 -0.5583
  709MOL0     C95646  -0.155   7.483   3.273  0.0206 -0.8459  1.4030
  709MOL0     C95647  -0.126   7.505   3.124  0.0390  0.1471  0.3547
  709MOL0     H95648   0.354   7.463   3.401 -1.1390 -1.8314 -2.5949
  709MOL0     H95649   0.574   7.547   3.413  0.2590  0.5595  1.0789
  709MOL0     H95650   0.678   7.844   3.097 -0.0159 -0.9366 -0.4658
  709MOL0     H95651   0.748   7.918   3.244 -0.1069 -0.0893  1.1888
  709MOL0     H95652   0.943   7.783   3.215  0.9800 -0.1861 -0.5201
  709MOL0     H95653   0.920   7.853   3.067  0.0185 -0.0802  0.9589
  709MOL0     H95654   0.906   7.654   2.960 -0.9821  1.7383 -0.2005
  709MOL0     H95655   0.768   7.592   3.062  0.8331 -2.2477  0.6988
  709MOL0     H95656   1.038   7.593   3.188 -2.0905  2.8322  1.7447
  709MOL0     H95657   0.892   7.536   3.247  0.5706 -1.1016  0.2644
  709MOL0     H95658   1.043   7.413   3.024  0.7880  0.4458  1.1737
  709MOL0     H95659   1.016   7.348   3.185  1.4413  0.1949 -0.7643
  709MOL0     H95660   0.788   7.302   3.153  3.4416  2.2680  2.8166
  709MOL0     H95661   0.790   7.359   2.993  0.3154  0.4860 -1.2258
  709MOL0     H95662   0.945   7.188   2.917  0.1485  0.1053 -0.6760
  709MOL0     H95663   0.801   7.116   2.982 -0.1148  0.6577 -1.2438
  709MOL0     H95664   1.055   7.124   3.152  0.6925  1.4886 -1.4687
  709MOL0     H95665   0.906   7.053   3.195 -1.0802  0.5169 -0.9702
  709MOL0     H95666   1.214   6.992   2.961  0.7440 -0.9118 -1.2431
  709MOL0     H95667   1.153   6.640   2.778  3.3549 -3.6063  1.6893
  709MOL0     H95668   1.236   6.788   2.745 -0.2465 -0.3320  0.1866
  709MOL0     H95669   1.400   6.743   2.895  1.7014 -1.9442  0.9207
  709MOL0     H95670   1.296   6.640   3.004  1.3567 -1.9328  0.1233
  709MOL0     H95671   1.365   6.536   2.721  0.2106 -2.8008 -0.7668
  709MOL0     H95672   1.334   6.437   2.862  2.3251 -1.5179  1.1285
  709MOL0     H95673   1.530   6.484   2.961  0.5774  0.1788 -0.8955
  709MOL0     H95674   1.577   6.604   2.834  1.9812 -0.9306 -3.0016
  709MOL0     H95675   1.786   6.239   2.838 -0.0286  0.8784  2.4984
  709MOL0     H95676   2.013   6.296   2.780  1.9566  2.9727  2.1544
  709MOL0     H95677   2.389   6.274   2.789  0.0580 -0.4365 -0.1436
  709MOL0     H95678   2.633   6.301   2.775  1.0117 -1.8049 -3.3602
  709MOL0     H95679   2.847   6.380   2.812  0.7937  2.3626  0.1697
  709MOL0     H95680   2.850   6.343   2.642  1.4120  0.1944 -0.9795
  709MOL0     H95681   3.014   6.535   2.621 -1.5418  1.9447  0.8011
  709MOL0     H95682   3.005   6.556   2.800  2.2422 -0.8365  0.9898
  709MOL0     H95683   3.080   6.321   2.813 -1.7421  0.5141 -0.3707
  709MOL0     H95684   3.105   6.310   2.647 -1.6293  1.1051 -1.1276
  709MOL0     H95685   3.235   6.525   2.834 -0.0441 -0.6134 -0.4883
  709MOL0     H95686   3.269   6.506   2.665 -0.4133 -0.4808 -0.7097
  709MOL0     H95687   3.327   6.269   2.707  0.1415 -0.5145  1.3549
  709MOL0     H95688   3.343   6.310   2.878  0.2781  0.9684  0.1194
  709MOL0     H95689   3.501   6.459   2.667  1.8267 -0.2858  0.7924
  709MOL0     H95690   3.493   6.492   2.845  1.4847 -0.5808  0.2941
  709MOL0     H95691   3.606   6.220   2.753  0.4037 -1.6254  3.3351
  709MOL0     H95692   3.609   6.289   2.900  1.8800 -0.7154 -0.8111
  709MOL0     H95693   3.709   6.443   2.655  0.3494  1.5905  0.5975
  709MOL0     H95694   3.742   6.486   2.822  1.3213 -0.0756 -0.1653
  709MOL0     H95695   2.588   6.685   2.576  1.3930 -0.0923 -0.6710
  709MOL0     H95696   2.347   6.652   2.596  2.3960  1.8783  0.4887
  709MOL0     H95697   1.876   6.625   2.544  0.5008 -0.6977 -1.8901
  709MOL0     H95698   1.651   6.576   2.608  1.1898  1.3257  0.5306
  709MOL0     H95699   0.467   7.876   3.152  3.3735 -0.7781 -0.5573
  709MOL0     H95700   0.232   7.816   3.180 -0.1240  0.6584  0.5510
  709MOL0     H95701   0.025   7.411   3.548 -0.6145  0.0661  0.5383
  709MOL0     H95702  -0.194   7.373   3.639 -0.4092 -2.4374 -0.2797
  709MOL0     H95703  -0.402   7.453   3.704  1.7959 -2.2254  1.5595
  709MOL0     H95704  -0.439   7.299   3.650 -2.3775 -0.7511 -2.1610
  709MOL0     H95705  -0.631   7.529   3.612 -0.7597  0.4320  2.6130
  709MOL0     H95706  -0.638   7.419   3.750  1.6296 -0.1039 -0.0779
  709MOL0     H95707  -0.701   7.229   3.621 -0.2404  0.0762  0.0793
  709MOL0     H95708  -0.654   7.308   3.466  3.9563 -2.0303  2.4486
  709MOL0     H95709  -0.880   7.401   3.653  2.4139  0.3602  0.6264
  709MOL0     H95710  -0.854   7.466   3.493  2.5071 -0.4435 -0.2373
  709MOL0     H95711  -1.058   7.086   3.441  1.7632 -1.8877  2.9167
  709MOL0     H95712  -0.377   7.503   3.275 -2.4003 -1.4027  2.3917
  709MOL0     H95713  -0.217   7.539   3.074  0.6783  2.6438  0.7533
  709MOL0     H95714  -0.046   7.580   3.122 -1.5604  1.9599  0.9827
  709MOL0     H95715  -0.099   7.414   3.071  2.5037  1.7121 -1.2437
  710MOL0     O95716   8.679   7.772   2.478 -0.2048  0.3875 -0.0951
  710MOL0     C95717   8.764   7.788   2.562 -0.1065  0.4305 -0.2584
  710MOL0     O95718   8.731   7.801   2.695  0.6043 -0.2483 -0.5475
  710MOL0     C95719   8.612   7.748   2.751  0.0013 -0.1188 -0.2250
  710MOL0     C95720   8.583   7.801   2.875  0.0718  0.0389 -0.3954
  710MOL0     C95721   8.484   7.757   2.963  1.1750  0.0227 -0.1585
  710MOL0     C95722   8.413   7.644   2.923  0.1111  0.0559  0.6014
  710MOL0     O95723   8.332   7.579   3.006  0.2250 -0.3034  0.0560
  710MOL0     C95724   8.197   7.588   2.980  0.6838 -0.5814 -0.0405
  710MOL0     C95725   8.127   7.494   3.080  0.0289 -0.6322  0.1325
  710MOL0     C95726   7.969   7.499   3.070 -0.4221  0.5063 -0.1003
  710MOL0     C95727   7.914   7.384   3.169  0.2173  0.0828  0.5481
  710MOL0     C95728   7.769   7.362   3.140 -0.1421  0.7934  0.1888
  710MOL0     C95729   7.671   7.478   3.169  0.8720 -0.4217  0.4835
  710MOL0     C95730   7.528   7.444   3.119  0.7284  0.2428 -1.8391
  710MOL0     C95731   7.430   7.556   3.136 -0.6477 -0.3247 -0.4208
  710MOL0     N95732   7.405   7.600   3.277 -0.6022  0.4227 -0.3131
  710MOL0     C95733   7.460   7.712   3.335  0.2771  0.7277  0.2123
  710MOL0     C95734   7.429   7.701   3.469 -0.1778 -0.8377  0.8180
  710MOL0     C95735   7.483   7.807   3.568 -1.1412  1.3076  0.5944
  710MOL0     C95736   7.395   7.827   3.700 -0.6447 -1.0214 -0.7724
  710MOL0     C95737   7.372   7.709   3.791  0.2404  0.0490 -0.9089
  710MOL0     C95738   7.510   7.664   3.848 -0.7274 -0.2263  0.4218
  710MOL0     O95739   7.582   7.776   3.901  0.3340 -0.7631  0.7065
  710MOL0     C95740   7.719   7.763   3.892  0.5119 -0.2456  0.1419
  710MOL0     C95741   7.789   7.643   3.906  0.3544  0.5340  0.6932
  710MOL0     C95742   7.927   7.649   3.898  0.0727  1.0501 -0.0374
  710MOL0     C95743   7.997   7.770   3.904  0.0281  0.4073  0.2426
  710MOL0     C95744   8.145   7.768   3.916  0.8497  0.1400 -0.0947
  710MOL0     O95745   8.206   7.650   3.934  0.3804  0.4298  0.3680
  710MOL0     C95746   8.343   7.664   3.961 -0.1129  0.2989 -0.1553
  710MOL0     C95747   8.434   7.693   3.855 -0.5162 -0.0692  0.5178
  710MOL0     C95748   8.565   7.704   3.892 -0.6148 -0.5827  0.5718
  710MOL0     C95749   8.618   7.688   4.018  0.2106 -0.5257 -0.3546
  710MOL0     O95750   8.746   7.734   4.027  0.1129  0.9148 -0.4839
  710MOL0     C95751   8.806   7.727   4.154 -0.8218 -0.4592  0.1086
  710MOL0     C95752   8.942   7.777   4.131 -0.9121  0.1625  0.3854
  710MOL0     C95753   9.034   7.753   4.253  0.9006  0.0923  0.3428
  710MOL0     C95754   9.178   7.772   4.228 -0.0835 -0.3282  0.1488
  710MOL0     C95755   9.252   7.750   4.362  0.3306 -0.7481 -0.5482
  710MOL0     C95756   9.218   7.861   4.469  0.4139  0.8168  0.8693
  710MOL0     C95757   9.307   7.871   4.590  0.0914 -1.1335 -0.3908
  710MOL0     C95758   9.270   7.991   4.689  0.5515 -0.2499  0.5545
  710MOL0    Cl95759   9.363   7.998   4.842 -0.1341 -0.1758 -0.1274
  710MOL0     C95760   8.536   7.648   4.122 -0.1065  0.1291 -0.1863
  710MOL0     C95761   8.398   7.652   4.091 -0.2235  0.1576 -0.7887
  710MOL0     O95762   8.207   7.873   3.922  0.5197  0.4392 -0.8644
  710MOL0     C95763   7.928   7.891   3.894 -0.7297 -0.6844  0.5965
  710MOL0     C95764   7.789   7.884   3.882 -0.9776  0.7141  0.0906
  710MOL0     N95765   7.352   7.577   3.490 -0.5415  0.0572  0.1196
  710MOL0     N95766   7.345   7.527   3.368 -0.0220  0.8236 -0.3493
  710MOL0     C95767   8.434   7.584   2.798 -0.3676 -0.5023  0.1171
  710MOL0     C95768   8.543   7.628   2.720  0.1846 -0.0653 -0.7352
  710MOL0     C95769   8.907   7.811   2.537 -0.3485 -1.1374 -0.5722
  710MOL0     C95770   9.004   7.708   2.560  0.4696 -0.3696  0.1559
  710MOL0     C95771   9.140   7.722   2.527 -0.2494 -0.1450  0.4022
  710MOL0     C95772   9.186   7.838   2.465  1.6588  0.0725 -0.2390
  710MOL0     O95773   9.322   7.850   2.435  0.6049  0.5148  0.1597
  710MOL0     C95774   9.377   7.979   2.407  0.7699 -0.3295  0.3254
  710MOL0     C95775   9.524   7.970   2.383 -0.8067 -0.5824  0.4110
  710MOL0     C95776   9.593   7.947   2.515 -0.3167  0.5548 -0.2610
  710MOL0     C95777   9.739   7.899   2.501 -0.3069 -0.0613  0.6107
  710MOL0     C95778   9.816   7.876   2.627  0.3524  0.1393  0.1023
  710MOL0     C95779   9.877   7.854   2.722 -0.1240 -0.4394 -0.8470
  710MOL0     C95780   9.087   7.940   2.447 -0.4916  0.6519  0.0726
  710MOL0     C95781   8.952   7.929   2.482 -0.1215 -0.4725  0.1538
  710MOL0     C95782   8.850   8.048   2.461 -0.1775 -0.1824  0.4240
  710MOL0     H95783   8.635   7.894   2.895 -2.5284  2.4452 -3.6681
  710MOL0     H95784   8.478   7.802   3.062  1.1949  1.6018 -0.8553
  710MOL0     H95785   8.180   7.692   3.011 -0.8477 -0.5291 -0.9606
  710MOL0     H95786   8.178   7.572   2.873  3.7565 -1.9751 -0.4832
  710MOL0     H95787   8.159   7.530   3.178  3.4328  0.0133 -1.0633
  710MOL0     H95788   8.171   7.396   3.058  0.5881  0.1457 -2.5713
  710MOL0     H95789   7.937   7.465   2.971  1.4025 -0.2163 -0.4902
  710MOL0     H95790   7.935   7.602   3.088  1.7610  0.8467  2.9305
  710MOL0     H95791   7.975   7.297   3.144  0.6519  1.2247 -2.8585
  710MOL0     H95792   7.934   7.409   3.273 -1.0717  0.1627  0.7905
  710MOL0     H95793   7.746   7.324   3.039 -0.4793 -1.8372  1.1659
  710MOL0     H95794   7.740   7.282   3.209  1.1270 -1.2539 -1.5154
  710MOL0     H95795   7.684   7.512   3.272  1.1117 -0.1766  0.3734
  710MOL0     H95796   7.699   7.561   3.103  1.1872  2.5513  4.0468
  710MOL0     H95797   7.483   7.357   3.167  0.1030  1.4264 -0.1682
  710MOL0     H95798   7.532   7.424   3.012 -3.6754  0.6578 -2.2499
  710MOL0     H95799   7.458   7.642   3.074 -3.0546  1.4108  0.7355
  710MOL0     H95800   7.334   7.523   3.094 -0.9624 -3.0962  2.0880
  710MOL0     H95801   7.526   7.782   3.285  1.3539 -1.6192 -1.8796
  710MOL0     H95802   7.578   7.770   3.607 -1.6284 -0.3513  0.2941
  710MOL0     H95803   7.502   7.904   3.522 -0.7113  0.8398 -0.2589
  710MOL0     H95804   7.442   7.899   3.767 -0.1076 -3.5012  1.7376
  710MOL0     H95805   7.297   7.864   3.667  0.0435 -1.2883 -3.2806
  710MOL0     H95806   7.323   7.631   3.733  0.3291  1.8024 -3.5308
  710MOL0     H95807   7.304   7.738   3.871  0.7730 -1.1163 -0.0065
  710MOL0     H95808   7.564   7.613   3.767 -2.7115 -0.2155 -0.9661
  710MOL0     H95809   7.502   7.585   3.924  0.1273 -0.7668 -0.0315
  710MOL0     H95810   7.728   7.553   3.911  0.1396  0.4368 -2.0186
  710MOL0     H95811   7.990   7.560   3.899  1.3105  1.8949 -0.7414
  710MOL0     H95812   8.394   7.700   3.755 -0.9852 -1.1533  0.6175
  710MOL0     H95813   8.637   7.742   3.820 -0.3519 -1.6673  0.2419
  710MOL0     H95814   8.750   7.778   4.233  0.2664  0.7107  0.1464
  710MOL0     H95815   8.822   7.620   4.171 -1.8182 -1.3483 -3.5678
  710MOL0     H95816   8.990   7.736   4.042 -1.0925  1.2801 -0.2543
  710MOL0     H95817   8.951   7.881   4.097  1.2922  0.2762  1.1233
  710MOL0     H95818   8.999   7.819   4.333  0.2610  1.3773 -0.9421
  710MOL0     H95819   9.020   7.648   4.279 -1.1520  0.7675  2.2606
  710MOL0     H95820   9.207   7.870   4.190  3.3737 -1.9529 -1.9763
  710MOL0     H95821   9.210   7.695   4.156 -1.4003 -0.3572 -0.4375
  710MOL0     H95822   9.360   7.760   4.351  0.6378  0.2942  2.4570
  710MOL0     H95823   9.243   7.649   4.405  3.0426 -0.6644  0.3855
  710MOL0     H95824   9.221   7.957   4.417  1.6082 -0.1251 -0.9002
  710MOL0     H95825   9.116   7.853   4.507  0.9219  0.6442  2.2564
  710MOL0     H95826   9.413   7.879   4.565  0.1662 -1.0738 -0.0573
  710MOL0     H95827   9.298   7.780   4.650 -4.5965 -1.4672 -1.1996
  710MOL0     H95828   9.294   8.085   4.637 -1.1468  0.1660  0.4545
  710MOL0     H95829   9.165   7.992   4.719 -0.0660 -0.2092 -1.4456
  710MOL0     H95830   8.558   7.647   4.228 -2.2310  1.8126  0.3528
  710MOL0     H95831   8.337   7.655   4.181  3.6071  0.9764  2.0970
  710MOL0     H95832   7.987   7.982   3.899 -0.6746 -0.7554  1.5814
  710MOL0     H95833   7.741   7.982   3.876  1.0840  1.6688 -2.6249
  710MOL0     H95834   8.378   7.498   2.760  1.6775 -0.8310 -2.4589
  710MOL0     H95835   8.564   7.571   2.630 -0.3741 -0.7637 -0.4399
  710MOL0     H95836   8.980   7.611   2.602  0.6867 -0.7268 -0.5190
  710MOL0     H95837   9.200   7.633   2.541 -1.4181 -1.0081  0.0453
  710MOL0     H95838   9.345   8.054   2.480  0.6452  1.0525 -1.0946
  710MOL0     H95839   9.329   8.030   2.323 -1.3714 -1.8902  0.5379
  710MOL0     H95840   9.560   8.062   2.335 -2.3743  1.7104  3.3163
  710MOL0     H95841   9.530   7.883   2.317 -4.2633 -1.2028  0.7670
  710MOL0     H95842   9.541   7.875   2.580 -0.8942 -0.2040 -1.5329
  710MOL0     H95843   9.604   8.044   2.564  6.3140  0.1006  0.1118
  710MOL0     H95844   9.755   7.811   2.438  1.9066 -0.7444  2.0249
  710MOL0     H95845   9.796   7.981   2.456  0.2109 -1.0918 -0.7071
  710MOL0     H95846   9.936   7.851   2.812  2.3027  1.1807 -2.2671
  710MOL0     H95847   9.129   8.034   2.412 -1.7115  0.8229 -1.0331
  710MOL0     H95848   8.767   8.054   2.532 -0.1753 -2.3340  0.6586
  710MOL0     H95849   8.900   8.145   2.457 -0.0858 -0.2525 -2.2488
  710MOL0     H95850   8.814   8.050   2.358  1.6250 -1.2628 -0.2717
  711MOL0     O95851   5.895   4.248   6.644 -0.1394 -0.0521  0.1215
  711MOL0     C95852   5.884   4.321   6.743  0.6552  0.1165  0.4191
  711MOL0     O95853   5.991   4.379   6.810  0.1802 -0.2603  0.0390
  711MOL0     C95854   6.115   4.389   6.758  0.2474  0.3200  0.0245
  711MOL0     C95855   6.224   4.367   6.845  0.0875 -0.1183  1.0735
  711MOL0     C95856   6.350   4.384   6.802  0.5494 -0.4555 -0.3784
  711MOL0     C95857   6.384   4.403   6.666 -0.5960  0.7639 -0.0990
  711MOL0     O95858   6.518   4.398   6.635  0.6256  0.6027 -0.9459
  711MOL0     C95859   6.569   4.488   6.532  0.3204 -0.4026 -0.8917
  711MOL0     C95860   6.714   4.470   6.516  0.5824 -0.3876 -0.6418
  711MOL0     C95861   6.786   4.517   6.641 -0.3536 -0.6142 -0.3320
  711MOL0     C95862   6.936   4.499   6.643 -0.3643 -0.4884  0.0725
  711MOL0     C95863   6.994   4.520   6.793 -0.4089 -0.0119  0.5883
  711MOL0     C95864   7.143   4.471   6.803 -0.7185 -0.0912 -0.6044
  711MOL0     C95865   7.222   4.538   6.922  0.1984 -0.5927 -0.4047
  711MOL0     C95866   7.173   4.464   7.052  0.7847  0.5671  0.6702
  711MOL0     N95867   7.157   4.562   7.154 -0.0150 -0.3375 -0.4315
  711MOL0     C95868   7.056   4.658   7.141 -0.5546 -0.8242 -0.9536
  711MOL0     C95869   7.081   4.744   7.241 -0.6594 -0.2696 -0.7398
  711MOL0     C95870   7.030   4.882   7.282  0.0042 -1.2248  0.4810
  711MOL0     C95871   6.879   4.893   7.284 -0.1274  1.0136 -0.4010
  711MOL0     C95872   6.822   4.831   7.406  0.2418  0.4073  0.3048
  711MOL0     C95873   6.673   4.843   7.422  0.3629 -0.4364 -0.7346
  711MOL0     O95874   6.607   4.754   7.328  0.7344  0.4425  0.7664
  711MOL0     C95875   6.468   4.751   7.358  0.2752 -0.1804 -0.7532
  711MOL0     C95876   6.387   4.861   7.373  0.4304  0.0966 -0.5506
  711MOL0     C95877   6.255   4.844   7.435 -0.3809 -0.3162  0.7667
  711MOL0     C95878   6.211   4.731   7.497  0.0538  0.9438 -0.7923
  711MOL0     C95879   6.074   4.720   7.556  0.5409  0.1411 -0.5292
  711MOL0     O95880   6.073   4.656   7.678 -0.0712  0.5181  0.0909
  711MOL0     C95881   5.952   4.620   7.728  0.5048  0.3232 -0.5796
  711MOL0     C95882   5.884   4.509   7.680 -0.3793 -0.3872 -0.0545
  711MOL0     C95883   5.752   4.474   7.722 -0.5984  0.9606  0.0073
  711MOL0     C95884   5.683   4.569   7.807  0.1501 -0.5626 -0.5903
  711MOL0     O95885   5.556   4.561   7.853  0.2233  0.5321  0.1206
  711MOL0     C95886   5.498   4.431   7.855 -0.1922 -0.0928 -1.1251
  711MOL0     C95887   5.350   4.439   7.869 -0.5975  0.1276  0.6230
  711MOL0     C95888   5.294   4.461   8.001  0.3365 -0.7461  0.6338
  711MOL0     C95889   5.136   4.473   8.004 -0.2074 -0.4873 -0.5609
  711MOL0     C95890   5.086   4.508   8.150  0.5690  1.0752  0.4900
  711MOL0     C95891   4.932   4.527   8.164 -0.2967  0.1200  0.8651
  711MOL0     C95892   4.877   4.632   8.066 -0.2019  0.2583  0.5461
  711MOL0     C95893   4.750   4.708   8.118 -0.5879  0.4605 -0.4575
  711MOL0    Cl95894   4.670   4.792   7.992  0.0480 -0.0527 -0.2555
  711MOL0     C95895   5.759   4.680   7.852  0.3920  0.3596 -0.7139
  711MOL0     C95896   5.892   4.699   7.820 -0.0591  0.0023  0.4248
  711MOL0     O95897   5.985   4.791   7.509  0.4882 -0.0376 -0.1548
  711MOL0     C95898   6.296   4.621   7.483  0.1955  0.3781  0.0883
  711MOL0     C95899   6.426   4.635   7.423 -0.0146  0.2907  0.2350
  711MOL0     N95900   7.186   4.690   7.318  0.3822 -0.0983  0.4856
  711MOL0     N95901   7.236   4.588   7.259  0.1056  0.0555 -0.2431
  711MOL0     C95902   6.277   4.418   6.574  0.6850  0.4811 -0.5460
  711MOL0     C95903   6.145   4.404   6.623  0.2973 -0.5403 -0.2448
  711MOL0     C95904   5.748   4.341   6.808  0.6661 -0.3298  0.1310
  711MOL0     C95905   5.746   4.340   6.942 -0.0270  0.5037 -1.2939
  711MOL0     C95906   5.632   4.370   7.018 -0.7168 -0.2581 -0.2075
  711MOL0     C95907   5.513   4.411   6.954  0.1019  0.5816 -0.2449
  711MOL0     O95908   5.404   4.452   7.024  0.1481 -0.8574  0.1665
  711MOL0     C95909   5.288   4.369   6.994 -0.0980  0.8320  0.3982
  711MOL0     C95910   5.160   4.448   7.010  0.3530  0.0503  0.1129
  711MOL0     C95911   5.042   4.365   7.028 -0.2896  0.4740  0.7226
  711MOL0     C95912   4.916   4.433   7.066 -0.2873 -0.0840 -1.1351
  711MOL0     C95913   4.803   4.337   7.089 -0.5537 -0.4394 -0.3389
  711MOL0     C95914   4.713   4.256   7.103  0.0057  1.1613  0.4920
  711MOL0     C95915   5.517   4.422   6.818  0.3259  0.2254  0.5412
  711MOL0     C95916   5.630   4.390   6.740  0.4515  0.6110  0.9290
  711MOL0     C95917   5.630   4.420   6.593 -0.1389  0.0111 -0.7931
  711MOL0     H95918   6.209   4.353   6.952 -4.1544  2.4400  1.0665
  711MOL0     H95919   6.438   4.372   6.865 -0.5907  0.7556  1.5474
  711MOL0     H95920   6.526   4.460   6.436 -3.5119 -1.5671  0.9760
  711MOL0     H95921   6.533   4.587   6.559 -4.0365 -2.3518  1.6065
  711MOL0     H95922   6.750   4.533   6.433 -0.9189 -0.2798 -1.2400
  711MOL0     H95923   6.740   4.368   6.486  0.4300 -0.4606 -0.5264
  711MOL0     H95924   6.753   4.455   6.725 -1.5135 -1.6486 -1.5210
  711MOL0     H95925   6.767   4.624   6.642 -1.3893 -0.7296 -2.6226
  711MOL0     H95926   6.962   4.397   6.613 -1.8243 -0.5056 -1.3231
  711MOL0     H95927   6.986   4.567   6.573  3.0051 -2.0407  0.7735
  711MOL0     H95928   6.996   4.628   6.806  1.1682 -0.0354  0.6481
  711MOL0     H95929   6.926   4.473   6.866 -3.8499 -0.1559 -2.4262
  711MOL0     H95930   7.152   4.363   6.810 -0.4513  0.0365  1.9937
  711MOL0     H95931   7.188   4.505   6.709 -0.4562 -0.0068 -0.4490
  711MOL0     H95932   7.193   4.643   6.932 -1.1477 -0.8104 -1.6627
  711MOL0     H95933   7.329   4.518   6.915  0.0703 -1.9318  0.9857
  711MOL0     H95934   7.075   4.420   7.034  1.1722 -0.4950  1.0969
  711MOL0     H95935   7.241   4.383   7.078 -0.5361 -0.4215  1.1350
  711MOL0     H95936   6.984   4.658   7.060 -0.8582  0.8767 -0.7340
  711MOL0     H95937   7.070   4.912   7.380 -2.0979 -1.8450  1.5719
  711MOL0     H95938   7.073   4.955   7.212 -2.9877 -0.0977 -0.3469
  711MOL0     H95939   6.842   4.995   7.266 -1.2774  0.1064 -4.3600
  711MOL0     H95940   6.839   4.851   7.191  1.8290 -1.2944 -0.2849
  711MOL0     H95941   6.861   4.881   7.495 -1.0428 -0.6129  1.4898
  711MOL0     H95942   6.849   4.725   7.407 -0.2015  0.2889  0.2111
  711MOL0     H95943   6.642   4.947   7.412  2.0204  0.3160  1.0641
  711MOL0     H95944   6.661   4.808   7.525  3.0257  0.4943 -0.0220
  711MOL0     H95945   6.424   4.958   7.341  2.9335 -0.7597 -0.4752
  711MOL0     H95946   6.194   4.934   7.438  1.5778  1.0712  1.6366
  711MOL0     H95947   5.932   4.461   7.595  2.0555  0.2795  0.8401
  711MOL0     H95948   5.715   4.376   7.695  0.6961  0.2110  0.8757
  711MOL0     H95949   5.526   4.366   7.772 -0.7209 -2.3106  0.3651
  711MOL0     H95950   5.547   4.398   7.947  0.6355  1.4202 -0.9788
  711MOL0     H95951   5.319   4.512   7.793  1.0473  0.8612  0.6116
  711MOL0     H95952   5.310   4.341   7.843  0.8489 -0.7542  1.5884
  711MOL0     H95953   5.321   4.379   8.068  1.6169 -0.3986  0.5556
  711MOL0     H95954   5.337   4.555   8.037 -2.4356  2.3825 -3.3342
  711MOL0     H95955   5.087   4.378   7.983 -1.5545  0.3448 -1.3104
  711MOL0     H95956   5.098   4.538   7.925 -0.8022 -0.7530 -0.4931
  711MOL0     H95957   5.136   4.595   8.192  2.5003  0.6410 -0.7408
  711MOL0     H95958   5.115   4.419   8.207  0.1511  0.1547 -0.6745
  711MOL0     H95959   4.883   4.431   8.146 -0.5297  0.1954  1.1016
  711MOL0     H95960   4.913   4.555   8.268  2.8556  2.8678  0.8739
  711MOL0     H95961   4.842   4.575   7.980  0.4403  0.0822  0.4012
  711MOL0     H95962   4.958   4.703   8.050  0.2496 -0.2796  0.4519
  711MOL0     H95963   4.683   4.629   8.154 -1.3460  1.4124  0.2595
  711MOL0     H95964   4.767   4.779   8.199 -0.5113  1.9698 -1.7315
  711MOL0     H95965   5.728   4.745   7.934 -1.4078  0.7056 -1.6194
  711MOL0     H95966   5.957   4.773   7.865  0.2261 -1.3566  2.3797
  711MOL0     H95967   6.277   4.523   7.526  0.8072 -0.3869 -1.3281
  711MOL0     H95968   6.490   4.548   7.414 -2.4156 -1.6647  0.9723
  711MOL0     H95969   6.296   4.429   6.467 -2.5404  0.3814 -1.2262
  711MOL0     H95970   6.060   4.419   6.558  2.3379  1.1346 -2.7484
  711MOL0     H95971   5.824   4.297   7.004 -0.8884 -0.6134 -0.9454
  711MOL0     H95972   5.619   4.365   7.125 -1.4357  0.9883 -0.2159
  711MOL0     H95973   5.296   4.299   7.078  2.3552  0.4927 -0.0353
  711MOL0     H95974   5.295   4.309   6.902  0.1679 -0.2229  1.0869
  711MOL0     H95975   5.148   4.502   6.916 -1.7862 -0.1146  0.2447
  711MOL0     H95976   5.168   4.530   7.082 -0.2718 -1.5410  2.0864
  711MOL0     H95977   5.073   4.302   7.112  0.2950  0.1411  0.2711
  711MOL0     H95978   5.040   4.289   6.949  1.1485  1.1521 -0.0170
  711MOL0     H95979   4.930   4.501   7.151 -0.1870 -0.5891 -0.7459
  711MOL0     H95980   4.897   4.499   6.981 -2.8877  1.4436  0.5232
  711MOL0     H95981   4.631   4.189   7.119  0.8367  0.0431  0.2044
  711MOL0     H95982   5.434   4.462   6.761  0.8230 -1.8426 -1.8338
  711MOL0     H95983   5.583   4.347   6.527 -1.4276  0.6714 -0.6407
  711MOL0     H95984   5.572   4.511   6.576 -2.3907 -1.2276 -0.1070
  711MOL0     H95985   5.734   4.438   6.563  1.2028 -0.6581  2.9771
  712MOL0     O95986   1.382   2.812   6.865 -0.5838 -0.1803 -0.8002
  712MOL0     C95987   1.331   2.733   6.787 -0.5514  0.6230 -0.0248
  712MOL0     O95988   1.381   2.699   6.664 -0.2164 -0.2517  0.6304
  712MOL0     C95989   1.517   2.725   6.624  0.8769 -0.4190 -0.1496
  712MOL0     C95990   1.546   2.699   6.486 -0.0113 -0.2283 -0.4418
  712MOL0     C95991   1.672   2.712   6.437 -1.2388 -0.8742 -0.3861
  712MOL0     C95992   1.777   2.771   6.518 -0.0504  0.2857  0.2422
  712MOL0     O95993   1.912   2.782   6.483  0.2698  0.2899 -0.1426
  712MOL0     C95994   1.953   2.770   6.345 -0.7200 -0.2903 -0.2570
  712MOL0     C95995   2.088   2.843   6.313 -0.0835  0.1174 -0.2260
  712MOL0     C95996   2.203   2.811   6.405  0.7309  0.8138 -0.6074
  712MOL0     C95997   2.340   2.842   6.336  0.0931  0.1104  0.1060
  712MOL0     C95998   2.439   2.845   6.450  0.5309 -0.3750  0.2988
  712MOL0     C95999   2.590   2.851   6.394  0.0473 -0.3424 -1.1113
  712MOL0     C96000   2.686   2.848   6.514 -0.9771  0.3526 -0.2470
  712MOL0     C96001   2.811   2.934   6.467  0.7976  0.4981 -0.6799
  712MOL0     N96002   2.906   2.944   6.581  0.2789 -0.1991 -0.3209
  712MOL0     C96003   3.002   2.848   6.609  0.8016 -0.1690 -0.4714
  712MOL0     C96004   3.055   2.892   6.726  0.4014 -0.5806  0.1893
  712MOL0     C96005   3.167   2.825   6.788  0.1025  0.3378 -1.1553
  712MOL0     C96006   3.290   2.809   6.692 -1.1283 -0.6367  0.0730
  712MOL0     C96007   3.334   2.947   6.641  0.3313 -0.8845  0.7607
  712MOL0     C96008   3.473   2.928   6.573 -1.2515  1.2115  0.5483
  712MOL0     O96009   3.516   3.060   6.551 -0.1728  0.4045 -0.3682
  712MOL0     C96010   3.634   3.065   6.483  1.3292  0.0603 -0.7641
  712MOL0     C96011   3.722   2.956   6.462 -0.1641 -0.2489  0.4375
  712MOL0     C96012   3.850   2.974   6.406  0.4359 -1.1631 -0.9307
  712MOL0     C96013   3.893   3.099   6.381  0.2511 -0.1380 -0.4271
  712MOL0     C96014   4.027   3.116   6.335  0.1559 -0.0464  0.7942
  712MOL0     O96015   4.105   3.018   6.339  0.1005  0.4419  0.7617
  712MOL0     C96016   4.238   3.023   6.292  0.3665 -0.2229  0.0415
  712MOL0     C96017   4.310   3.120   6.221  0.1670  0.5000  0.2951
  712MOL0     C96018   4.441   3.105   6.179 -0.2401 -0.1312 -0.3206
  712MOL0     C96019   4.515   2.998   6.228 -0.9890 -0.3359  0.5858
  712MOL0     O96020   4.637   2.986   6.164  0.4629 -0.2816 -0.1704
  712MOL0     C96021   4.735   2.922   6.240  0.3159 -0.1723 -0.3434
  712MOL0     C96022   4.877   2.945   6.187 -0.3719  0.1054 -0.6453
  712MOL0     C96023   4.913   3.096   6.151  0.2645  1.1674  0.0994
  712MOL0     C96024   4.981   3.172   6.254  0.2441  0.1859  0.3637
  712MOL0     C96025   5.009   3.311   6.195  0.4043  0.0726 -0.2460
  712MOL0     C96026   5.113   3.388   6.283 -0.5158 -0.8856  0.3635
  712MOL0     C96027   5.148   3.521   6.213  0.0402 -0.3155 -0.7241
  712MOL0     C96028   5.227   3.498   6.084  0.1419  0.4275  0.1175
  712MOL0    Cl96029   5.374   3.391   6.126  0.0852 -0.0117  0.2667
  712MOL0     C96030   4.444   2.894   6.308 -0.3039 -0.0130  0.6125
  712MOL0     C96031   4.312   2.912   6.340  0.2443 -0.2073  0.3684
  712MOL0     O96032   4.060   3.235   6.316 -0.5222  0.0052  0.2541
  712MOL0     C96033   3.803   3.214   6.391 -0.1136  0.0279 -0.1393
  712MOL0     C96034   3.679   3.194   6.447  0.1908  0.2162 -0.3817
  712MOL0     N96035   2.988   3.000   6.759  0.9513 -0.5679 -0.0006
  712MOL0     N96036   2.899   3.036   6.681 -0.6677  0.1122  0.3754
  712MOL0     C96037   1.748   2.795   6.652 -0.0352  0.3831 -0.5768
  712MOL0     C96038   1.620   2.767   6.709  0.8308 -0.1217  0.1292
  712MOL0     C96039   1.199   2.677   6.832 -0.5632 -0.4017 -0.4427
  712MOL0     C96040   1.127   2.592   6.744  0.4284  0.7822  0.3331
  712MOL0     C96041   0.992   2.551   6.766 -0.8880  0.4854  0.5641
  712MOL0     C96042   0.923   2.592   6.882 -0.1307 -0.4010  1.0550
  712MOL0     O96043   0.807   2.542   6.906  0.6901 -0.2841 -0.7151
  712MOL0     C96044   0.714   2.606   6.995 -0.9038 -1.1385  0.0773
  712MOL0     C96045   0.578   2.533   6.992 -0.1564 -0.0570  0.6111
  712MOL0     C96046   0.587   2.384   7.029  0.6592  0.1000  0.2694
  712MOL0     C96047   0.524   2.328   7.156  0.8826  0.1620 -0.4273
  712MOL0     C96048   0.385   2.363   7.178  0.0803 -0.2649 -0.5850
  712MOL0     C96049   0.268   2.396   7.199 -0.5284  0.7101  0.0166
  712MOL0     C96050   0.986   2.686   6.969  0.5117  1.0720  0.5606
  712MOL0     C96051   1.119   2.726   6.940  0.2867  0.5705 -0.3764
  712MOL0     C96052   1.170   2.820   7.050 -0.7381  0.4337 -0.4323
  712MOL0     H96053   1.480   2.659   6.410 -1.1110 -2.4023  1.5558
  712MOL0     H96054   1.681   2.684   6.333 -1.9428  2.0298 -1.3236
  712MOL0     H96055   1.973   2.662   6.340  1.8953  0.1776 -3.6271
  712MOL0     H96056   1.881   2.796   6.267  1.6599  2.3665 -1.7676
  712MOL0     H96057   2.080   2.952   6.307 -1.0416  0.0517 -0.4254
  712MOL0     H96058   2.115   2.813   6.211  1.8307  1.2783 -0.1095
  712MOL0     H96059   2.215   2.704   6.424  0.7039  1.3113  2.8303
  712MOL0     H96060   2.196   2.865   6.500 -0.3354 -1.6295  0.7714
  712MOL0     H96061   2.360   2.766   6.260 -1.6863  1.1233 -1.4704
  712MOL0     H96062   2.342   2.939   6.285  0.0480  0.3745  0.6074
  712MOL0     H96063   2.420   2.934   6.510  0.1291 -0.8061  0.8198
  712MOL0     H96064   2.427   2.764   6.522  0.9768  0.1180  0.9384
  712MOL0     H96065   2.598   2.760   6.334  0.4211 -0.7688 -0.4283
  712MOL0     H96066   2.610   2.932   6.323 -0.3672 -0.1191 -0.9779
  712MOL0     H96067   2.721   2.747   6.535 -1.6530 -0.1542 -1.5269
  712MOL0     H96068   2.642   2.895   6.603  1.4570  0.1765  1.1517
  712MOL0     H96069   2.862   2.895   6.379  1.0387  0.5717 -0.5747
  712MOL0     H96070   2.779   3.035   6.440  0.6312  1.7213  3.3644
  712MOL0     H96071   3.023   2.758   6.553 -2.7263 -1.2795 -0.2432
  712MOL0     H96072   3.195   2.865   6.885 -1.8829 -0.8240 -0.0332
  712MOL0     H96073   3.136   2.723   6.814 -3.8085  2.2350  2.7844
  712MOL0     H96074   3.369   2.759   6.750  0.6139  0.3284 -1.3579
  712MOL0     H96075   3.268   2.744   6.606 -0.1504 -1.7522  0.6261
  712MOL0     H96076   3.332   3.021   6.722 -0.4325  1.2397 -1.1025
  712MOL0     H96077   3.266   2.991   6.567 -2.1324 -4.0591  0.9444
  712MOL0     H96078   3.470   2.859   6.488 -0.5626  0.3998  1.1635
  712MOL0     H96079   3.541   2.876   6.641 -0.6120 -0.0202 -0.9755
  712MOL0     H96080   3.693   2.854   6.484 -2.1829 -0.1448 -1.3694
  712MOL0     H96081   3.900   2.883   6.374  2.8351  0.4045 -1.8781
  712MOL0     H96082   4.264   3.212   6.186  0.1540 -0.0703 -1.2738
  712MOL0     H96083   4.488   3.180   6.118  0.3447 -0.0977  0.1578
  712MOL0     H96084   4.736   2.966   6.340  1.9583  0.3842 -0.5653
  712MOL0     H96085   4.714   2.815   6.241 -0.1624 -0.1038  1.7294
  712MOL0     H96086   4.952   2.916   6.261 -2.0147 -1.1529  0.6297
  712MOL0     H96087   4.888   2.888   6.094  2.1457 -0.9435  0.2172
  712MOL0     H96088   4.968   3.089   6.057  1.0340 -1.0162  0.6394
  712MOL0     H96089   4.824   3.157   6.132  0.5432  1.5376 -0.0157
  712MOL0     H96090   5.075   3.121   6.276 -0.2517 -0.2748  1.4865
  712MOL0     H96091   4.924   3.178   6.347 -3.5248 -1.6752 -1.6221
  712MOL0     H96092   4.918   3.371   6.186  0.4909  0.1365 -0.6994
  712MOL0     H96093   5.051   3.287   6.097  0.4522  1.8202 -0.6726
  712MOL0     H96094   5.063   3.404   6.379 -1.1077 -0.7687  0.0426
  712MOL0     H96095   5.201   3.328   6.309 -0.1644 -0.7368 -0.4571
  712MOL0     H96096   5.210   3.590   6.270  1.1260  1.3232 -3.7198
  712MOL0     H96097   5.048   3.561   6.197 -0.2672 -0.6673  0.2111
  712MOL0     H96098   5.166   3.462   6.001  1.7856  0.1602 -1.0177
  712MOL0     H96099   5.262   3.597   6.052 -0.4243  1.0648  1.3948
  712MOL0     H96100   4.513   2.815   6.336  0.8759 -0.1013 -2.2292
  712MOL0     H96101   4.265   2.832   6.396  0.1705  0.5138  1.3791
  712MOL0     H96102   3.843   3.313   6.370 -2.2013  1.4337  1.9826
  712MOL0     H96103   3.615   3.281   6.461  0.3629  0.5193 -1.4047
  712MOL0     H96104   1.831   2.813   6.719  0.7255  1.3699 -1.7571
  712MOL0     H96105   1.608   2.784   6.815 -0.0827  3.0861 -0.3929
  712MOL0     H96106   1.174   2.532   6.666 -0.9550 -1.2360  0.9861
  712MOL0     H96107   0.946   2.476   6.703  1.0914 -2.3867  2.3099
  712MOL0     H96108   0.705   2.713   6.977  1.9167 -1.0716 -1.6038
  712MOL0     H96109   0.759   2.596   7.094  0.2291 -0.6516 -0.3632
  712MOL0     H96110   0.530   2.532   6.894  0.2178 -2.6709  0.3785
  712MOL0     H96111   0.517   2.592   7.061 -0.5309 -1.3418  1.4335
  712MOL0     H96112   0.688   2.348   7.046 -0.6407 -4.0814  0.2579
  712MOL0     H96113   0.560   2.332   6.937  3.5794 -1.6632  0.3048
  712MOL0     H96114   0.525   2.219   7.148  1.3464  0.0194  1.1248
  712MOL0     H96115   0.576   2.356   7.248 -0.4714 -1.5424  0.9303
  712MOL0     H96116   0.168   2.434   7.205 -0.5659  0.3676  4.0381
  712MOL0     H96117   0.926   2.728   7.049 -3.0984  0.2710 -1.5197
  712MOL0     H96118   1.148   2.923   7.020 -2.9472  0.4782  1.1296
  712MOL0     H96119   1.134   2.791   7.149  0.8360 -0.0798  0.0204
  712MOL0     H96120   1.278   2.828   7.065 -0.5343 -1.0333 -0.9628
  713MOL0     O96121   1.240  10.416   3.025  0.3738 -0.1840  0.3951
  713MOL0     C96122   1.216  10.393   3.142  0.5697 -0.0959 -0.7247
  713MOL0     O96123   1.311  10.356   3.235 -0.3395 -0.0953  0.0828
  713MOL0     C96124   1.447  10.363   3.220  1.2488 -0.2158 -0.3075
  713MOL0     C96125   1.512  10.389   3.339  0.4921  0.0947  0.7078
  713MOL0     C96126   1.653  10.408   3.343  0.2632  0.1924 -0.4332
  713MOL0     C96127   1.718  10.409   3.229 -0.0545  0.3805 -0.5987
  713MOL0     O96128   1.855  10.429   3.210  0.1699 -0.0585  0.5595
  713MOL0     C96129   1.936  10.428   3.322 -0.5789 -0.1260  0.5009
  713MOL0     C96130   1.965  10.569   3.381  0.2157 -0.1839  0.1318
  713MOL0     C96131   2.064  10.568   3.499 -0.0271 -0.1263  0.5046
  713MOL0     C96132   2.214  10.540   3.451 -0.0699 -0.5345  0.2661
  713MOL0     C96133   2.301  10.527   3.580 -0.2519  0.0723 -0.5097
  713MOL0     C96134   2.451  10.488   3.542  0.7755 -0.3660  0.5504
  713MOL0     C96135   2.495  10.356   3.602 -0.1124  0.5157  0.4919
  713MOL0     C96136   2.642  10.326   3.588 -0.5731 -0.7669  0.7987
  713MOL0     N96137   2.684  10.219   3.678  0.2734 -0.1757 -0.7796
  713MOL0     C96138   2.774  10.241   3.778  0.9200 -0.7885 -0.0673
  713MOL0     C96139   2.788  10.115   3.827  0.2641  1.2019  0.9547
  713MOL0     C96140   2.870  10.079   3.939  0.1128 -0.3994  0.0909
  713MOL0     C96141   2.993   9.993   3.914  0.2004  0.4986 -0.5127
  713MOL0     C96142   3.078  10.045   3.794  0.9849  0.3376  0.2875
  713MOL0     C96143   3.215  10.085   3.839 -0.4128 -0.2243 -0.0681
  713MOL0     O96144   3.289  10.138   3.731 -0.4687  0.2214  0.2850
  713MOL0     C96145   3.420  10.147   3.755  0.0239 -0.9782 -0.5798
  713MOL0     C96146   3.507  10.093   3.657  1.4631 -0.0885 -0.6970
  713MOL0     C96147   3.647  10.100   3.673  0.3497  0.3930 -0.1376
  713MOL0     C96148   3.704  10.194   3.768 -0.2309  0.5857 -0.1891
  713MOL0     C96149   3.852  10.224   3.776 -0.0629 -0.3196  0.3047
  713MOL0     O96150   3.926  10.161   3.679  0.6657 -0.0958 -0.5345
  713MOL0     C96151   4.055  10.140   3.706 -1.5865  0.1537 -0.6517
  713MOL0     C96152   4.155  10.249   3.731  0.1895 -0.4547 -0.3376
  713MOL0     C96153   4.285  10.224   3.762 -1.4847 -0.4886 -0.2571
  713MOL0     C96154   4.328  10.082   3.776  0.1272 -0.0538  0.0879
  713MOL0     O96155   4.447  10.041   3.823 -0.7259  0.4500  0.2008
  713MOL0     C96156   4.499  10.113   3.932  0.8278  0.8615  0.6114
  713MOL0     C96157   4.606  10.025   4.004 -0.9001  0.8442  1.1041
  713MOL0     C96158   4.664  10.102   4.123  0.6861  0.7712  0.6344
  713MOL0     C96159   4.568  10.119   4.247 -0.2250  0.0029 -0.3229
  713MOL0     C96160   4.657  10.120   4.376  0.2045  0.2401  0.4737
  713MOL0     C96161   4.746  10.241   4.401  0.3575  0.1086  0.1677
  713MOL0     C96162   4.839  10.221   4.514  0.3247  0.8941 -0.3167
  713MOL0     C96163   4.981  10.254   4.462  0.2089 -0.8281  0.0373
  713MOL0    Cl96164   5.025  10.137   4.334  0.1968  0.2330  0.3675
  713MOL0     C96165   4.237   9.978   3.745 -0.8850  0.5310  0.4161
  713MOL0     C96166   4.105  10.014   3.712  1.4331  0.2685 -0.5937
  713MOL0     O96167   3.901  10.304   3.856  0.2381  0.0579  0.1667
  713MOL0     C96168   3.620  10.268   3.843  0.1839  0.1480 -1.0737
  713MOL0     C96169   3.474  10.241   3.849 -0.8002  0.7100  0.4110
  713MOL0     N96170   2.726  10.026   3.739  0.5384 -0.6098 -0.2894
  713MOL0     N96171   2.655  10.090   3.658  0.1686  0.0060 -0.3399
  713MOL0     C96172   1.648  10.392   3.103  0.1761 -0.3924 -0.3999
  713MOL0     C96173   1.515  10.365   3.106  0.8627 -0.9053 -0.7503
  713MOL0     C96174   1.076  10.394   3.190  0.3458  1.0833 -0.3904
  713MOL0     C96175   1.054  10.362   3.327  0.0170  0.1364  1.0246
  713MOL0     C96176   0.922  10.342   3.375  0.0558  1.2294  0.8648
  713MOL0     C96177   0.817  10.350   3.292 -0.2759 -0.7539  0.3283
  713MOL0     O96178   0.693  10.326   3.338  0.5582 -0.2009  0.0271
  713MOL0     C96179   0.579  10.401   3.288 -0.2858  0.7112 -0.7148
  713MOL0     C96180   0.465  10.366   3.378  0.8215 -0.4538  0.7255
  713MOL0     C96181   0.336  10.449   3.341 -0.1789  0.1762  0.3890
  713MOL0     C96182   0.269  10.405   3.209 -0.5688  0.0439  0.9930
  713MOL0     C96183   0.220  10.271   3.219  0.1419 -0.6580  0.4266
  713MOL0     C96184   0.176  10.158   3.219 -0.7157 -0.6864 -0.9038
  713MOL0     C96185   0.835  10.395   3.157 -0.1160  0.3579 -0.1379
  713MOL0     C96186   0.961  10.418   3.107 -0.6553  0.3157 -0.9557
  713MOL0     C96187   0.968  10.474   2.968  0.8728  0.2267  0.3913
  713MOL0     H96188   1.438  10.386   3.418 -1.7064 -1.1037 -1.2568
  713MOL0     H96189   1.696  10.420   3.442 -1.7470  1.5502  0.3464
  713MOL0     H96190   1.905  10.351   3.393  0.6593  0.8443  2.1821
  713MOL0     H96191   2.032  10.398   3.280  0.6834  1.9548  1.7173
  713MOL0     H96192   1.868  10.592   3.426 -0.9220 -0.6626 -1.9552
  713MOL0     H96193   1.989  10.650   3.312  2.2341 -0.1655  0.7781
  713MOL0     H96194   2.032  10.489   3.568  0.9530 -1.4465 -0.5138
  713MOL0     H96195   2.052  10.666   3.547 -0.1901  0.3064 -0.3830
  713MOL0     H96196   2.220  10.451   3.387 -2.9124 -0.7554  0.1658
  713MOL0     H96197   2.253  10.620   3.389 -1.1518 -1.3674 -1.5651
  713MOL0     H96198   2.298  10.622   3.634 -0.5228  0.5718 -1.3950
  713MOL0     H96199   2.250  10.449   3.637 -0.3561  0.0164 -0.6802
  713MOL0     H96200   2.471  10.493   3.434  2.9608 -0.2003  0.9091
  713MOL0     H96201   2.521  10.556   3.592  0.0870 -0.1670  1.2594
  713MOL0     H96202   2.431  10.284   3.551  1.1044  0.4349 -1.0072
  713MOL0     H96203   2.477  10.347   3.709 -3.4690 -0.0379 -0.0178
  713MOL0     H96204   2.660  10.298   3.483 -0.2697  0.3829  0.5330
  713MOL0     H96205   2.690  10.421   3.610 -1.4575 -0.0485 -0.2942
  713MOL0     H96206   2.809  10.332   3.825  0.5086 -1.0369  0.7381
  713MOL0     H96207   2.898  10.170   3.992 -1.1201 -0.8366  1.5470
  713MOL0     H96208   2.800  10.023   4.002  0.3527 -2.8202 -1.6482
  713MOL0     H96209   3.053   9.996   4.006 -1.0177 -0.3658  0.3325
  713MOL0     H96210   2.963   9.888   3.903  3.4410 -0.6929  0.6452
  713MOL0     H96211   3.030  10.136   3.759  1.6600  1.0378  1.1288
  713MOL0     H96212   3.076   9.980   3.706 -2.1069  0.3368  0.2629
  713MOL0     H96213   3.252   9.998   3.895 -0.2654  0.6330  1.2112
  713MOL0     H96214   3.216  10.156   3.922  0.0570 -1.3012  0.8829
  713MOL0     H96215   3.467  10.040   3.571  0.1034  1.5623 -1.1265
  713MOL0     H96216   3.722  10.048   3.614 -1.4110 -1.3950 -0.9049
  713MOL0     H96217   4.129  10.353   3.711  2.3899 -0.2191 -2.4234
  713MOL0     H96218   4.366  10.293   3.783  0.1504 -1.1304 -3.6329
  713MOL0     H96219   4.540  10.209   3.899 -0.8165  1.8111  1.2192
  713MOL0     H96220   4.422  10.135   4.006  0.4705 -0.2726  0.5981
  713MOL0     H96221   4.560   9.933   4.041 -0.0205 -1.0424 -2.0606
  713MOL0     H96222   4.685  10.014   3.929 -1.8908  0.5829  0.0680
  713MOL0     H96223   4.748  10.044   4.162  1.1318  2.1421  1.7945
  713MOL0     H96224   4.709  10.200   4.103  1.4846  0.3658  0.4132
  713MOL0     H96225   4.497  10.037   4.246  1.5348 -1.5888  0.0422
  713MOL0     H96226   4.518  10.216   4.236 -0.0218  0.3797  1.7118
  713MOL0     H96227   4.729  10.038   4.377  1.4838  1.2501 -1.4426
  713MOL0     H96228   4.586  10.107   4.458  0.0034 -0.0131  0.2612
  713MOL0     H96229   4.801  10.268   4.310 -0.7089  3.7436  0.4491
  713MOL0     H96230   4.690  10.329   4.435 -0.5514 -1.3404  2.6588
  713MOL0     H96231   4.847  10.115   4.538 -0.0758  1.0319  0.4933
  713MOL0     H96232   4.803  10.275   4.602  0.4201  0.6918 -0.1528
  713MOL0     H96233   4.972  10.353   4.416  1.8979 -0.3571  0.6483
  713MOL0     H96234   5.053  10.255   4.544  0.9383 -2.9257 -0.5049
  713MOL0     H96235   4.277   9.877   3.744 -1.0714  0.4007 -2.3347
  713MOL0     H96236   4.032   9.939   3.685 -0.7276  1.7690  0.7675
  713MOL0     H96237   3.658  10.337   3.917  2.2002 -3.1584  1.2441
  713MOL0     H96238   3.413  10.311   3.906 -2.2248 -0.8914  0.9450
  713MOL0     H96239   1.703  10.403   3.010  0.7618 -0.2635 -0.0418
  713MOL0     H96240   1.457  10.362   3.014 -1.6199 -0.2881  0.6835
  713MOL0     H96241   1.140  10.370   3.393  2.9203 -1.1870 -2.2559
  713MOL0     H96242   0.908  10.294   3.471  0.7419  0.9710  0.8356
  713MOL0     H96243   0.557  10.360   3.189  0.4191  0.9235 -0.9698
  713MOL0     H96244   0.596  10.509   3.279  1.6576  0.6564  1.3570
  713MOL0     H96245   0.497  10.417   3.468  2.5961  1.9228 -1.1206
  713MOL0     H96246   0.438  10.260   3.390  0.7568 -0.7991 -1.8748
  713MOL0     H96247   0.346  10.558   3.340 -1.3040  0.3259  1.8195
  713MOL0     H96248   0.262  10.435   3.420 -1.2218 -3.8085 -1.0646
  713MOL0     H96249   0.193  10.483   3.195 -2.2976 -1.8342 -0.7616
  713MOL0     H96250   0.329  10.408   3.117  0.5371 -2.4050  1.5648
  713MOL0     H96251   0.130  10.061   3.212  1.3132 -1.5722 -4.8288
  713MOL0     H96252   0.752  10.404   3.087 -0.2290 -2.4117 -0.4558
  713MOL0     H96253   0.983  10.403   2.887 -1.1266  0.7438 -0.4980
  713MOL0     H96254   0.873  10.515   2.932  0.9865  0.3470  0.2279
  713MOL0     H96255   1.038  10.557   2.959  2.0150 -0.6444  1.0929
  714MOL0     O96256   7.653   6.673   2.671  0.4458 -0.4523 -0.5385
  714MOL0     C96257   7.578   6.688   2.765 -0.6476  0.3455  0.4552
  714MOL0     O96258   7.600   6.632   2.890  0.1535 -0.0080  0.0907
  714MOL0     C96259   7.693   6.533   2.903 -0.6964 -0.3948 -0.0435
  714MOL0     C96260   7.644   6.405   2.897 -0.3846 -0.2864 -0.3239
  714MOL0     C96261   7.725   6.306   2.943 -0.5668 -0.2733 -0.2008
  714MOL0     C96262   7.864   6.331   2.971 -0.2643 -0.6541 -0.1296
  714MOL0     O96263   7.952   6.233   3.006  0.4808  0.1804  0.7670
  714MOL0     C96264   7.927   6.161   3.130 -0.8260  0.0775 -0.0895
  714MOL0     C96265   7.843   6.037   3.117 -0.1157  0.9130  0.5720
  714MOL0     C96266   7.857   5.991   2.974 -0.4742  0.0078  0.4658
  714MOL0     C96267   7.809   5.848   2.943  0.0463  0.2584 -0.4251
  714MOL0     C96268   7.726   5.823   2.822  0.1334 -0.0862 -0.1274
  714MOL0     C96269   7.648   5.691   2.816  0.2647 -0.1673  0.1420
  714MOL0     C96270   7.568   5.688   2.691 -0.1078  0.0152  0.3021
  714MOL0     C96271   7.447   5.583   2.694 -0.6871 -0.6737 -0.0331
  714MOL0     N96272   7.357   5.601   2.814  0.2353 -0.2332  0.5314
  714MOL0     C96273   7.245   5.681   2.808  0.0077 -0.7775 -0.3761
  714MOL0     C96274   7.201   5.666   2.933 -0.0699  0.1301  1.2963
  714MOL0     C96275   7.074   5.737   2.982 -1.2262  1.0430  0.1395
  714MOL0     C96276   6.960   5.686   2.889 -0.2349  0.4010  0.4123
  714MOL0     C96277   6.817   5.751   2.915  0.0066 -0.2329  0.0162
  714MOL0     C96278   6.816   5.900   2.881  0.3424 -0.3598 -0.0809
  714MOL0     O96279   6.711   5.959   2.957  0.3788  0.7857 -0.2274
  714MOL0     C96280   6.625   6.046   2.905  0.1256 -0.1507  0.7279
  714MOL0     C96281   6.648   6.128   2.792  0.5898  0.8757  0.0790
  714MOL0     C96282   6.554   6.225   2.761 -1.1553  0.8970  0.4510
  714MOL0     C96283   6.434   6.239   2.833  0.0590 -0.0581 -0.3854
  714MOL0     C96284   6.351   6.356   2.804  0.3414 -0.5569  0.4022
  714MOL0     O96285   6.245   6.377   2.894 -0.3221 -0.2247  0.5172
  714MOL0     C96286   6.166   6.488   2.887 -0.2272 -0.0061 -0.1552
  714MOL0     C96287   6.038   6.456   2.928  0.8020 -0.0309  0.1328
  714MOL0     C96288   5.943   6.559   2.952  0.6655 -0.0286  0.0844
  714MOL0     C96289   5.972   6.689   2.917 -0.6431  0.1941 -0.1061
  714MOL0     O96290   5.872   6.778   2.944  0.5327  0.3817  0.3164
  714MOL0     C96291   5.894   6.887   3.026  0.0217 -0.0529  0.2767
  714MOL0     C96292   5.818   7.000   2.949 -0.3828  0.0907  0.5499
  714MOL0     C96293   5.815   7.130   3.033  0.2465 -0.0224  0.0258
  714MOL0     C96294   5.677   7.194   3.034 -0.0119 -0.0819 -0.3703
  714MOL0     C96295   5.660   7.311   3.129 -0.2701  0.4007 -0.1839
  714MOL0     C96296   5.507   7.347   3.146  0.7327  0.0364 -0.6385
  714MOL0     C96297   5.455   7.290   3.274 -0.0031  0.3991  0.5504
  714MOL0     C96298   5.309   7.262   3.273  0.6618  0.1010  0.2456
  714MOL0    Cl96299   5.210   7.398   3.229  0.0927  0.2265 -0.1796
  714MOL0     C96300   6.098   6.725   2.865 -0.0492 -0.2572  0.2649
  714MOL0     C96301   6.194   6.621   2.853 -0.0747  0.1720 -0.5152
  714MOL0     O96302   6.377   6.425   2.703 -0.1303  0.4101 -0.6028
  714MOL0     C96303   6.410   6.157   2.932 -0.3361  0.2974 -0.1623
  714MOL0     C96304   6.509   6.065   2.970 -0.3139  0.0225 -0.2551
  714MOL0     N96305   7.273   5.571   3.004 -0.4659 -0.7910  0.0448
  714MOL0     N96306   7.366   5.536   2.930 -0.1946  0.1563 -0.3424
  714MOL0     C96307   7.912   6.464   2.957 -0.4563 -0.2995  0.2035
  714MOL0     C96308   7.826   6.564   2.932 -0.1765 -0.4415  0.7465
  714MOL0     C96309   7.461   6.767   2.754 -0.2743 -0.2547 -0.1565
  714MOL0     C96310   7.389   6.794   2.872  0.5278  0.8737 -0.9498
  714MOL0     C96311   7.259   6.840   2.871 -0.9549 -0.1116 -0.0314
  714MOL0     C96312   7.194   6.884   2.755  0.0497 -0.5991  0.4994
  714MOL0     O96313   7.069   6.947   2.766 -0.0946 -0.5101 -0.7464
  714MOL0     C96314   7.001   6.997   2.656 -0.0435  0.3501  0.9132
  714MOL0     C96315   6.856   7.032   2.676  0.3185  0.3014 -0.1792
  714MOL0     C96316   6.807   7.105   2.553  0.6050 -0.2538 -0.9085
  714MOL0     C96317   6.649   7.132   2.562 -0.2949  0.1481 -0.1163
  714MOL0     C96318   6.600   7.184   2.429  0.0091 -0.3127 -0.5027
  714MOL0     C96319   6.565   7.216   2.319  0.3794 -0.2108 -0.2009
  714MOL0     C96320   7.273   6.873   2.637  0.0995 -0.3049 -0.0171
  714MOL0     C96321   7.400   6.812   2.634  1.1356 -0.3196 -0.9337
  714MOL0     C96322   7.447   6.792   2.487  0.4488 -0.6485 -0.2120
  714MOL0     H96323   7.540   6.394   2.868 -1.3021  0.4441  2.3522
  714MOL0     H96324   7.686   6.206   2.954  1.6795 -1.3012 -0.9883
  714MOL0     H96325   8.021   6.140   3.181 -0.6924  2.4024  0.7160
  714MOL0     H96326   7.870   6.230   3.193  0.1754  0.0323  0.9059
  714MOL0     H96327   7.739   6.053   3.144 -0.1253  3.5933 -0.7049
  714MOL0     H96328   7.878   5.953   3.178  1.8240  1.9231  0.9407
  714MOL0     H96329   7.960   5.974   2.941 -0.5425  0.6083 -0.0779
  714MOL0     H96330   7.795   6.051   2.906 -1.3752  1.5426  2.5389
  714MOL0     H96331   7.893   5.778   2.934  0.4930  0.8596 -1.0270
  714MOL0     H96332   7.736   5.826   3.021  0.1440  0.3195 -0.3158
  714MOL0     H96333   7.653   5.904   2.812  1.1463  1.1031  1.5902
  714MOL0     H96334   7.795   5.809   2.739  0.9832 -0.0170  0.5591
  714MOL0     H96335   7.710   5.602   2.832 -2.0314 -1.6416  1.4609
  714MOL0     H96336   7.580   5.679   2.901 -0.9385  1.3183 -0.5689
  714MOL0     H96337   7.626   5.655   2.605  2.3140  2.0719  1.0413
  714MOL0     H96338   7.529   5.788   2.671  1.3413  0.4107 -0.6432
  714MOL0     H96339   7.394   5.601   2.600 -0.7605 -0.5246  0.0358
  714MOL0     H96340   7.477   5.478   2.688 -3.1642 -1.4114 -0.7865
  714MOL0     H96341   7.205   5.753   2.736 -0.5153 -0.4870  0.1965
  714MOL0     H96342   7.067   5.713   3.088  1.8920 -2.3912 -0.2168
  714MOL0     H96343   7.081   5.845   2.967 -0.5013  1.1506  1.1991
  714MOL0     H96344   6.984   5.696   2.783 -0.4469 -0.5087  0.2681
  714MOL0     H96345   6.961   5.578   2.904 -0.0905  0.4527  0.8001
  714MOL0     H96346   6.796   5.716   3.016 -0.5138  1.8492  0.6626
  714MOL0     H96347   6.747   5.701   2.847 -2.2501 -0.3985  2.3237
  714MOL0     H96348   6.794   5.906   2.774 -2.0390  0.9615  0.4249
  714MOL0     H96349   6.906   5.957   2.905 -0.6479  1.0555  0.3645
  714MOL0     H96350   6.735   6.100   2.733  0.7369 -0.8227  1.0278
  714MOL0     H96351   6.572   6.294   2.680  1.4713  0.8667  0.9285
  714MOL0     H96352   6.001   6.354   2.928  0.3888  0.0878  1.8960
  714MOL0     H96353   5.848   6.529   2.993  1.9130 -1.1086  2.3883
  714MOL0     H96354   5.843   6.865   3.121  0.8000 -3.5192  0.0410
  714MOL0     H96355   5.999   6.916   3.035  0.5320 -0.2377 -3.4252
  714MOL0     H96356   5.873   7.021   2.857  0.6822  1.5051  1.4858
  714MOL0     H96357   5.716   6.971   2.919  1.0272 -2.0320 -2.8040
  714MOL0     H96358   5.850   7.122   3.136  2.1669  2.8912 -0.2580
  714MOL0     H96359   5.888   7.195   2.983  1.3903 -1.7406 -0.6377
  714MOL0     H96360   5.618   7.111   3.073  1.0151 -0.3528  0.6884
  714MOL0     H96361   5.659   7.210   2.927 -0.8065 -3.5797 -0.8570
  714MOL0     H96362   5.702   7.398   3.077  1.6068 -0.8767 -0.8946
  714MOL0     H96363   5.714   7.309   3.224 -2.7904  0.6249  1.3357
  714MOL0     H96364   5.491   7.455   3.158 -1.2807 -0.5117  3.7388
  714MOL0     H96365   5.444   7.320   3.061 -1.0792  1.5169  0.1772
  714MOL0     H96366   5.478   7.364   3.351  1.0152  3.8690 -2.8190
  714MOL0     H96367   5.499   7.194   3.302 -0.6106 -0.5602 -1.6043
  714MOL0     H96368   5.294   7.175   3.208 -2.3460  1.6649 -1.3970
  714MOL0     H96369   5.280   7.229   3.373 -0.6223  0.8252  0.1340
  714MOL0     H96370   6.120   6.827   2.837 -2.6756 -0.2785 -2.3402
  714MOL0     H96371   6.292   6.649   2.816  0.3424 -1.2497 -0.5500
  714MOL0     H96372   6.319   6.160   2.992 -0.1034 -0.9652  0.2767
  714MOL0     H96373   6.502   6.001   3.057  2.5851 -0.6730 -0.4176
  714MOL0     H96374   8.015   6.477   2.988 -0.5621  1.9234 -0.2489
  714MOL0     H96375   7.867   6.665   2.926 -2.3936  0.4497 -0.3904
  714MOL0     H96376   7.412   6.747   2.967  1.1033  2.8438 -0.0667
  714MOL0     H96377   7.202   6.848   2.963 -2.2304  2.2777 -0.9440
  714MOL0     H96378   7.010   6.921   2.577  0.2758 -0.2166  1.4855
  714MOL0     H96379   7.056   7.086   2.625 -2.5659  2.0409  1.0209
  714MOL0     H96380   6.844   7.089   2.769 -1.3442 -1.5242  0.8220
  714MOL0     H96381   6.805   6.936   2.694  1.9082 -0.3257  1.2929
  714MOL0     H96382   6.828   7.042   2.466 -1.7647 -2.1365 -0.2166
  714MOL0     H96383   6.860   7.201   2.547  0.3789  0.0026  0.7441
  714MOL0     H96384   6.593   7.039   2.570  0.7260 -0.4535  0.1594
  714MOL0     H96385   6.631   7.197   2.648 -0.6664 -1.4074  1.0292
  714MOL0     H96386   6.541   7.260   2.224 -1.1174 -0.7982 -0.1281
  714MOL0     H96387   7.234   6.904   2.541 -0.9386  2.1263  1.1073
  714MOL0     H96388   7.370   6.743   2.427  2.6435  0.1153 -3.9003
  714MOL0     H96389   7.482   6.890   2.454 -3.8646  0.4510 -2.2015
  714MOL0     H96390   7.527   6.718   2.475 -0.2472 -1.0051 -3.7598
  715MOL0     O96391   7.484  10.132   1.064  0.6797 -0.0148  0.7263
  715MOL0     C96392   7.389  10.196   1.109 -0.2751 -0.3703 -0.2320
  715MOL0     O96393   7.401  10.325   1.158 -0.0526 -0.0955  1.0850
  715MOL0     C96394   7.529  10.372   1.194  0.3706  0.5054  0.2663
  715MOL0     C96395   7.561  10.504   1.171  0.3405 -0.0944  0.4723
  715MOL0     C96396   7.687  10.554   1.210 -0.2591  0.2213  0.2731
  715MOL0     C96397   7.775  10.485   1.284 -0.6319 -0.1742  0.7852
  715MOL0     O96398   7.883  10.553   1.329  0.1068 -0.5287 -0.2776
  715MOL0     C96399   7.994  10.489   1.399  0.5352  0.2488 -0.2628
  715MOL0     C96400   8.113  10.575   1.374 -0.0351  0.3483 -0.2302
  715MOL0     C96401   8.177  10.538   1.243 -0.3822 -0.9729  0.4352
  715MOL0     C96402   8.282  10.646   1.215  0.3317 -0.1626 -0.0853
  715MOL0     C96403   8.300  10.668   1.060 -0.0312 -0.6614  0.3786
  715MOL0     C96404   8.422  10.761   1.035  0.0259 -0.3313 -0.3963
  715MOL0     C96405   8.437  10.791   0.881 -0.5935  0.2417  0.0156
  715MOL0     C96406   8.496  10.660   0.808  0.2783  0.2314 -0.0967
  715MOL0     N96407   8.625  10.627   0.856 -0.2390  0.5314  0.4407
  715MOL0     C96408   8.742  10.624   0.789 -0.7613 -0.1391  0.6987
  715MOL0     C96409   8.822  10.545   0.871  0.0774 -0.3782 -0.5455
  715MOL0     C96410   8.941  10.467   0.826  0.9166  0.0800 -0.0628
  715MOL0     C96411   9.041  10.560   0.739  0.3098  0.5236 -0.4348
  715MOL0     C96412   9.185  10.515   0.760  0.4645 -0.0705 -0.6121
  715MOL0     C96413   9.212  10.377   0.723  1.2261 -0.1518  1.0662
  715MOL0     O96414   9.204  10.363   0.576 -0.8607  0.1948  0.1173
  715MOL0     C96415   9.324  10.399   0.506 -0.4540 -0.2575 -0.6246
  715MOL0     C96416   9.426  10.475   0.558 -0.5797 -0.5258 -0.1176
  715MOL0     C96417   9.505  10.546   0.467  0.2618  0.5118 -0.4584
  715MOL0     C96418   9.509  10.516   0.329  0.2978 -0.4043 -0.1086
  715MOL0     C96419   9.602  10.592   0.238  0.5126 -0.0922 -0.0910
  715MOL0     O96420   9.594  10.563   0.106  0.3813  0.6012 -0.0553
  715MOL0     C96421   9.661  10.654   0.022  0.4684  0.3718  0.1839
  715MOL0     C96422   9.613  10.781   0.009  0.0231 -0.0075  1.0402
  715MOL0     C96423   9.689  10.869  -0.066 -0.1542 -0.9925  0.7694
  715MOL0     C96424   9.801  10.828  -0.152 -0.2108 -0.3713  0.1333
  715MOL0     O96425   9.857  10.932  -0.230 -0.3093  0.4871  0.0559
  715MOL0     C96426   9.967  10.894  -0.323  0.3286  0.3218 -0.8955
  715MOL0     C96427  10.020  11.024  -0.373 -0.9297 -1.0604 -0.0110
  715MOL0     C96428  10.124  11.024  -0.486  0.5328  0.9456  0.0156
  715MOL0     C96429  10.211  11.158  -0.490 -0.2570 -0.5665 -0.3867
  715MOL0     C96430  10.305  11.153  -0.604 -0.5881  0.8861  0.4100
  715MOL0     C96431  10.414  11.263  -0.600  0.0844 -0.2562 -0.5223
  715MOL0     C96432  10.495  11.274  -0.724 -0.0648 -0.1961 -0.5959
  715MOL0     C96433  10.593  11.389  -0.719 -0.2426  0.5389  0.4335
  715MOL0    Cl96434  10.687  11.404  -0.875  0.3100 -0.1074  0.1313
  715MOL0     C96435   9.845  10.695  -0.132  0.6078  0.5239  0.2365
  715MOL0     C96436   9.774  10.612  -0.041  0.3210  0.2950  0.7849
  715MOL0     O96437   9.689  10.667   0.293 -0.1891 -0.0287 -0.4322
  715MOL0     C96438   9.404  10.429   0.280 -0.0630  0.3532  0.0248
  715MOL0     C96439   9.323  10.374   0.375 -0.5997 -0.1877  0.4831
  715MOL0     N96440   8.760  10.509   0.988 -0.6712 -0.2299 -0.0196
  715MOL0     N96441   8.641  10.556   0.970  0.1958 -0.1127  0.0363
  715MOL0     C96442   7.739  10.352   1.319 -0.2073 -0.9378 -0.1598
  715MOL0     C96443   7.618  10.293   1.270 -0.7141  0.2285 -0.7062
  715MOL0     C96444   7.259  10.125   1.080  0.3890  0.4682  1.0375
  715MOL0     C96445   7.266   9.983   1.061  0.0276  0.6389  0.8766
  715MOL0     C96446   7.149   9.913   1.047 -0.1254  0.3328  0.3754
  715MOL0     C96447   7.025   9.975   1.055  1.0346  0.0198  0.3267
  715MOL0     O96448   6.914   9.896   1.044  0.4122 -0.7351  0.2528
  715MOL0     C96449   6.831   9.915   0.930  0.7211  0.2045  0.2583
  715MOL0     C96450   6.773   9.782   0.897  1.1736 -0.3797  0.1022
  715MOL0     C96451   6.672   9.789   0.780 -0.0892 -0.1182  0.5411
  715MOL0     C96452   6.553   9.684   0.776 -0.2846 -0.3614  0.0325
  715MOL0     C96453   6.478   9.698   0.897  0.5735  0.4825 -0.4776
  715MOL0     C96454   6.423   9.700   1.008  0.4555  0.1762  0.5685
  715MOL0     C96455   7.018  10.109   1.087  1.1825  0.4151 -0.4681
  715MOL0     C96456   7.133  10.188   1.082 -0.1483 -0.7479  0.5317
  715MOL0     C96457   7.117  10.340   1.089  0.1931  0.1074  0.1205
  715MOL0     H96458   7.496  10.568   1.112  0.8846 -1.3605 -1.5988
  715MOL0     H96459   7.707  10.660   1.203  0.8377  0.2932  3.2100
  715MOL0     H96460   7.975  10.482   1.506  1.2746  0.6236 -0.0982
  715MOL0     H96461   8.013  10.392   1.351  1.4031  1.0230 -1.5706
  715MOL0     H96462   8.185  10.554   1.453 -1.1442 -3.1714 -0.0047
  715MOL0     H96463   8.090  10.682   1.367  0.0863  0.2908 -1.8577
  715MOL0     H96464   8.111  10.533   1.155  0.2410 -0.4130 -0.0802
  715MOL0     H96465   8.218  10.439   1.263  1.1421 -0.6631 -0.9664
  715MOL0     H96466   8.258  10.743   1.259 -0.4147 -1.3585  2.3269
  715MOL0     H96467   8.373  10.625   1.273  1.2501 -0.1349 -1.4597
  715MOL0     H96468   8.309  10.575   1.003 -1.9462  0.1828 -1.4158
  715MOL0     H96469   8.210  10.705   1.011 -0.9675 -0.9773  1.8157
  715MOL0     H96470   8.408  10.862   1.075  1.3384 -0.3101  0.0631
  715MOL0     H96471   8.505  10.722   1.095 -1.6958 -2.4458  0.7442
  715MOL0     H96472   8.513  10.869   0.880 -0.7528  0.3978  0.0114
  715MOL0     H96473   8.346  10.838   0.841  0.5463  1.2889 -1.4393
  715MOL0     H96474   8.427  10.576   0.825  1.6028 -0.5440  1.7828
  715MOL0     H96475   8.487  10.673   0.699  2.3687  0.7831 -0.2304
  715MOL0     H96476   8.766  10.644   0.685  0.4410  0.2199  1.0307
  715MOL0     H96477   8.980  10.433   0.922 -0.3853  1.3258  0.9464
  715MOL0     H96478   8.908  10.384   0.764  3.4302  0.2627 -1.8014
  715MOL0     H96479   9.014  10.553   0.633  1.0899  0.6925 -0.6552
  715MOL0     H96480   9.041  10.666   0.766 -2.3697  0.3463  0.4992
  715MOL0     H96481   9.204  10.519   0.867 -3.5775 -1.1848  0.3070
  715MOL0     H96482   9.253  10.589   0.718 -0.0924  2.3595  2.4223
  715MOL0     H96483   9.134  10.315   0.768 -1.1963  2.0285  0.1205
  715MOL0     H96484   9.305  10.346   0.772  0.9575  1.0770  2.4275
  715MOL0     H96485   9.445  10.511   0.658  1.6468 -0.7793 -0.4052
  715MOL0     H96486   9.569  10.626   0.502 -1.1347  0.9548  1.2116
  715MOL0     H96487   9.521  10.812   0.057 -0.1747  2.1691 -0.5662
  715MOL0     H96488   9.669  10.975  -0.078  0.8450 -0.8453  0.2402
  715MOL0     H96489  10.049  10.838  -0.278 -1.5941 -3.0497 -1.2298
  715MOL0     H96490   9.932  10.842  -0.413 -3.1124  3.0200 -1.3546
  715MOL0     H96491   9.937  11.076  -0.422  2.2166  0.9683 -3.7242
  715MOL0     H96492  10.051  11.085  -0.288 -0.3571 -0.9019 -0.3306
  715MOL0     H96493  10.195  10.943  -0.470  0.5617  1.2942  1.8143
  715MOL0     H96494  10.066  11.019  -0.579  0.8023 -0.2671 -0.0985
  715MOL0     H96495  10.266  11.168  -0.396  0.3348  3.0819 -0.9989
  715MOL0     H96496  10.151  11.250  -0.495  1.8596  1.0955  2.2257
  715MOL0     H96497  10.254  11.154  -0.701  1.0801 -0.8587 -0.5665
  715MOL0     H96498  10.361  11.059  -0.599 -0.4576  0.8852 -0.7806
  715MOL0     H96499  10.377  11.364  -0.579  2.4887  0.8606 -1.2880
  715MOL0     H96500  10.474  11.232  -0.513  0.3901 -2.4041 -1.4414
  715MOL0     H96501  10.426  11.302  -0.804  1.6149  0.0849 -2.0087
  715MOL0     H96502  10.543  11.179  -0.747 -1.7600 -0.7732 -2.0564
  715MOL0     H96503  10.533  11.480  -0.709 -1.2213  0.1035 -1.0957
  715MOL0     H96504  10.655  11.372  -0.631  1.8190  2.4827 -0.5407
  715MOL0     H96505   9.923  10.647  -0.189 -0.8710 -2.3836  0.4879
  715MOL0     H96506   9.800  10.507  -0.043 -1.4011 -0.1838  1.5039
  715MOL0     H96507   9.377  10.407   0.177 -2.5758 -0.5049  0.8003
  715MOL0     H96508   9.243  10.306   0.347  0.4527 -1.9415  1.5519
  715MOL0     H96509   7.801  10.281   1.374  1.5280 -0.7958 -1.8203
  715MOL0     H96510   7.602  10.189   1.298 -1.4940 -0.2741 -2.8293
  715MOL0     H96511   7.361   9.931   1.069  0.1726  0.9312  1.0685
  715MOL0     H96512   7.135   9.805   1.046  3.4757 -0.3028 -2.7013
  715MOL0     H96513   6.895   9.939   0.844  0.8367  0.2130  0.3466
  715MOL0     H96514   6.758   9.993   0.953  0.5655 -0.6896  3.2051
  715MOL0     H96515   6.711   9.741   0.977 -0.0679  2.6579  0.8020
  715MOL0     H96516   6.847   9.706   0.867 -0.1598 -1.1022 -1.5021
  715MOL0     H96517   6.736   9.779   0.692 -1.5803  1.9570 -0.8639
  715MOL0     H96518   6.627   9.888   0.769 -2.2103 -1.0183  0.6786
  715MOL0     H96519   6.498   9.708   0.684 -2.7829 -0.4974  1.4166
  715MOL0     H96520   6.582   9.578   0.772 -0.8685 -0.5231  0.0704
  715MOL0     H96521   6.372   9.678   1.099 -0.6101  1.7882  0.3992
  715MOL0     H96522   6.919  10.153   1.094  0.8213 -0.2501 -1.1265
  715MOL0     H96523   7.134  10.379   1.190 -0.1156  1.6906 -0.4147
  715MOL0     H96524   7.178  10.394   1.017 -1.0493 -0.6979 -1.6283
  715MOL0     H96525   7.016  10.374   1.063 -0.5019  0.2331  2.6834
  716MOL0     O96526   1.918   4.207   0.635  0.6809 -0.5407  0.8077
  716MOL0     C96527   1.828   4.247   0.552  0.6564 -0.2876  0.3603
  716MOL0     O96528   1.848   4.282   0.420 -0.1559  0.4344 -0.0090
  716MOL0     C96529   1.977   4.307   0.374 -0.0322  0.5559 -0.9464
  716MOL0     C96530   2.079   4.368   0.456  0.7478  0.5043 -0.1848
  716MOL0     C96531   2.192   4.425   0.393 -0.5441  0.6736 -0.2143
  716MOL0     C96532   2.200   4.425   0.251 -0.5453  1.0317 -0.6229
  716MOL0     O96533   2.310   4.498   0.206 -0.4959  0.6445  1.3602
  716MOL0     C96534   2.318   4.533   0.067 -0.4702  0.2882  0.1413
  716MOL0     C96535   2.288   4.683   0.058  0.7302 -0.0742  0.0409
  716MOL0     C96536   2.412   4.759   0.108  0.4860  0.8347 -0.1283
  716MOL0     C96537   2.391   4.900   0.064  0.1382  0.1348  0.1067
  716MOL0     C96538   2.517   4.987   0.099 -0.8991 -0.3815 -0.8602
  716MOL0     C96539   2.493   5.128   0.081 -0.0935  0.3492  0.5665
  716MOL0     C96540   2.626   5.218   0.118 -1.1118  0.6963 -0.5040
  716MOL0     C96541   2.672   5.198   0.257  0.1794  0.0207 -0.1862
  716MOL0     N96542   2.787   5.272   0.297  0.2586 -0.1068  0.0714
  716MOL0     C96543   2.900   5.269   0.221  0.2587 -0.0159 -0.2834
  716MOL0     C96544   2.982   5.352   0.292  0.5090 -0.9006  0.4359
  716MOL0     C96545   3.116   5.379   0.249  0.1502  0.0954 -0.1471
  716MOL0     C96546   3.212   5.437   0.350 -0.2631  0.4784  0.8923
  716MOL0     C96547   3.362   5.432   0.303 -0.4109  0.1145 -0.8032
  716MOL0     C96548   3.443   5.554   0.345  0.4015  0.2407 -1.9833
  716MOL0     O96549   3.563   5.571   0.268  0.0059 -0.0414 -0.3641
  716MOL0     C96550   3.691   5.526   0.309 -0.5036 -0.1296 -0.3279
  716MOL0     C96551   3.802   5.567   0.230  0.0877  0.1424  0.0486
  716MOL0     C96552   3.932   5.529   0.274  0.0142  0.1226 -0.5502
  716MOL0     C96553   3.950   5.439   0.376 -1.1005 -0.3101  0.2183
  716MOL0     C96554   4.085   5.413   0.419  0.7504  0.2434 -0.0273
  716MOL0     O96555   4.187   5.479   0.353 -0.1271 -0.1640 -0.5495
  716MOL0     C96556   4.323   5.451   0.357  0.7556 -0.3190 -0.6008
  716MOL0     C96557   4.403   5.511   0.262  0.1946  0.0812  0.5985
  716MOL0     C96558   4.545   5.492   0.264 -0.3281 -0.5115 -0.5643
  716MOL0     C96559   4.601   5.412   0.368  0.5629  0.2725  0.5944
  716MOL0     O96560   4.736   5.384   0.383  0.4032  0.1552  0.0743
  716MOL0     C96561   4.829   5.448   0.288 -0.0760  0.1334 -0.2970
  716MOL0     C96562   4.878   5.587   0.318  0.1974 -0.4556 -1.2014
  716MOL0     C96563   4.946   5.598   0.454  0.4799  0.8672 -0.1674
  716MOL0     C96564   5.008   5.732   0.484  0.4878 -0.5641  0.1968
  716MOL0     C96565   5.080   5.742   0.616 -1.2467  0.3779 -0.0139
  716MOL0     C96566   5.000   5.747   0.745 -0.4887  0.0289 -1.1287
  716MOL0     C96567   4.884   5.857   0.733 -0.6472  0.0336 -0.3884
  716MOL0     C96568   4.830   5.896   0.873 -0.1218 -0.3593 -0.2650
  716MOL0    Cl96569   4.939   6.019   0.943 -0.1134 -0.1603  0.0446
  716MOL0     C96570   4.516   5.361   0.468  0.5282  1.0903 -0.5611
  716MOL0     C96571   4.380   5.368   0.458  0.9461  0.4562  0.3166
  716MOL0     O96572   4.097   5.325   0.502 -0.6821  0.1585  0.4068
  716MOL0     C96573   3.838   5.385   0.437 -0.0673 -0.3678  1.0284
  716MOL0     C96574   3.709   5.438   0.415  0.1081 -0.5966 -0.1105
  716MOL0     N96575   2.918   5.404   0.405  0.8622 -0.7743  0.8758
  716MOL0     N96576   2.803   5.351   0.408  0.0058  0.2529  0.2267
  716MOL0     C96577   2.100   4.355   0.172  0.9109  0.8225 -0.2827
  716MOL0     C96578   1.991   4.298   0.238 -0.2041 -0.0340 -0.2156
  716MOL0     C96579   1.693   4.282   0.596  0.8873 -0.3509 -0.9195
  716MOL0     C96580   1.669   4.320   0.730  0.2406  0.2240 -0.0385
  716MOL0     C96581   1.552   4.373   0.784  0.0195 -0.9038  0.4968
  716MOL0     C96582   1.448   4.390   0.696  0.1755 -0.0562  0.5612
  716MOL0     O96583   1.334   4.445   0.746  0.5343  0.0606  0.2163
  716MOL0     C96584   1.212   4.372   0.727 -0.0940  0.4376  0.0114
  716MOL0     C96585   1.103   4.475   0.695 -0.2853  0.5539 -0.6359
  716MOL0     C96586   1.071   4.551   0.822  0.4534  0.2182 -0.3549
  716MOL0     C96587   1.009   4.457   0.928  0.3653  0.5537 -0.3947
  716MOL0     C96588   0.901   4.528   1.001  0.2576  0.7319 -0.0002
  716MOL0     C96589   0.819   4.586   1.069  0.5900  0.5765  0.1352
  716MOL0     C96590   1.453   4.340   0.566  0.7099 -0.7159  0.3303
  716MOL0     C96591   1.576   4.283   0.515 -1.2151  0.4458 -0.4937
  716MOL0     C96592   1.570   4.206   0.388  0.8316  0.6408 -0.4892
  716MOL0     H96593   2.069   4.392   0.561  0.3419  0.2987 -0.1727
  716MOL0     H96594   2.255   4.489   0.453  1.2403  0.1013 -1.3787
  716MOL0     H96595   2.419   4.504   0.037 -0.6303 -0.6811  0.5031
  716MOL0     H96596   2.237   4.483   0.012  0.9032 -1.5357 -0.3075
  716MOL0     H96597   2.198   4.711   0.113 -0.0747 -1.6182 -0.4543
  716MOL0     H96598   2.267   4.714  -0.045 -2.4114 -1.8500  0.0295
  716MOL0     H96599   2.509   4.718   0.076 -0.3677  0.5112 -2.5037
  716MOL0     H96600   2.422   4.745   0.216  0.0851  1.9446  0.0731
  716MOL0     H96601   2.356   4.892  -0.039 -3.3253  2.5088  0.9122
  716MOL0     H96602   2.307   4.946   0.118  1.1867 -0.5513  2.4628
  716MOL0     H96603   2.539   4.970   0.205  2.3607  0.7444 -1.2599
  716MOL0     H96604   2.608   4.966   0.042 -1.5440  2.0026 -2.9154
  716MOL0     H96605   2.457   5.155  -0.019 -0.1171  1.9526  0.9692
  716MOL0     H96606   2.412   5.163   0.146 -0.7606 -2.6828  1.5105
  716MOL0     H96607   2.602   5.322   0.092  1.3689  1.2053 -0.9537
  716MOL0     H96608   2.705   5.195   0.047 -1.6122 -1.6787 -0.3697
  716MOL0     H96609   2.600   5.212   0.339  0.5289 -1.2605  0.3781
  716MOL0     H96610   2.698   5.092   0.266  0.9545  0.2516  0.3637
  716MOL0     H96611   2.913   5.216   0.126 -0.0741  0.0970 -0.3921
  716MOL0     H96612   3.150   5.283   0.209 -0.7279  0.0881 -0.9042
  716MOL0     H96613   3.107   5.459   0.175 -1.0546  0.9994  0.9227
  716MOL0     H96614   3.193   5.539   0.382  0.3062 -0.4268  4.5553
  716MOL0     H96615   3.194   5.391   0.448 -0.6082  2.4093  1.7828
  716MOL0     H96616   3.365   5.419   0.195  0.6779 -1.3056 -0.6211
  716MOL0     H96617   3.403   5.341   0.348 -0.2991  0.2667 -0.5948
  716MOL0     H96618   3.481   5.566   0.447  3.1342 -2.1644 -2.5832
  716MOL0     H96619   3.393   5.650   0.330  1.0421  0.5131 -2.4101
  716MOL0     H96620   3.776   5.636   0.151 -2.1905 -0.8528 -0.1756
  716MOL0     H96621   4.015   5.567   0.214 -0.2222  0.9304 -0.3626
  716MOL0     H96622   4.358   5.565   0.180  0.5014 -2.3336 -1.2838
  716MOL0     H96623   4.598   5.537   0.180  1.2586  0.2611  0.8026
  716MOL0     H96624   4.912   5.381   0.267 -0.3490 -0.4018  0.3289
  716MOL0     H96625   4.788   5.464   0.187 -0.0787  0.7259 -0.2064
  716MOL0     H96626   4.956   5.622   0.249  0.7227  2.8498  0.8214
  716MOL0     H96627   4.794   5.656   0.307 -0.3142 -0.2968  2.4041
  716MOL0     H96628   4.870   5.577   0.530  0.7410 -0.3220 -0.2007
  716MOL0     H96629   5.020   5.517   0.458 -1.8653 -1.3953  0.2052
  716MOL0     H96630   4.926   5.804   0.479  0.5452 -0.5543 -1.1324
  716MOL0     H96631   5.078   5.763   0.405 -0.9049 -0.5569 -1.0660
  716MOL0     H96632   5.129   5.839   0.623  0.3520 -0.4349  0.9320
  716MOL0     H96633   5.169   5.679   0.626 -1.4092  0.1596  0.0731
  716MOL0     H96634   4.971   5.643   0.763 -1.5951  0.9680  4.1734
  716MOL0     H96635   5.066   5.786   0.823  0.5742  2.6900 -3.1717
  716MOL0     H96636   4.806   5.803   0.679 -0.0040 -0.5848 -0.7101
  716MOL0     H96637   4.918   5.944   0.676  1.7217 -2.0769 -2.4176
  716MOL0     H96638   4.729   5.935   0.859 -0.2517  0.4398  2.3407
  716MOL0     H96639   4.824   5.812   0.943 -0.2409  2.0489  2.8824
  716MOL0     H96640   4.568   5.294   0.536 -1.8222 -0.8619 -0.5703
  716MOL0     H96641   4.322   5.303   0.524 -1.4737  1.2187 -0.9366
  716MOL0     H96642   3.834   5.310   0.516 -2.8848  1.0252  2.3453
  716MOL0     H96643   3.619   5.404   0.466 -1.1886  0.4646 -1.5880
  716MOL0     H96644   2.103   4.333   0.066  1.4832 -0.3159 -0.0464
  716MOL0     H96645   1.914   4.245   0.182 -0.1271 -0.2221 -0.1457
  716MOL0     H96646   1.755   4.324   0.795  0.3818 -0.6146 -0.1524
  716MOL0     H96647   1.549   4.402   0.888 -3.2492 -5.0750  1.8803
  716MOL0     H96648   1.196   4.312   0.817 -2.4833  2.5674  1.1335
  716MOL0     H96649   1.214   4.291   0.654 -2.0875  0.1855  0.1792
  716MOL0     H96650   1.016   4.425   0.651  1.1170 -1.4475 -1.2805
  716MOL0     H96651   1.143   4.534   0.612  1.1216  1.7052  0.7839
  716MOL0     H96652   0.999   4.631   0.804 -0.9449 -0.6619  1.0652
  716MOL0     H96653   1.156   4.600   0.870 -1.8072  1.3325  2.8724
  716MOL0     H96654   0.959   4.371   0.883 -2.1223  0.0122  2.9540
  716MOL0     H96655   1.084   4.408   0.990  0.7415  0.6313 -0.7867
  716MOL0     H96656   0.736   4.637   1.113  0.5376  0.7129 -0.1249
  716MOL0     H96657   1.360   4.341   0.509  0.8674  1.8099  0.0251
  716MOL0     H96658   1.468   4.168   0.376  2.1268 -2.7318 -1.9518
  716MOL0     H96659   1.574   4.282   0.309 -1.8061  1.2254 -0.1558
  716MOL0     H96660   1.646   4.127   0.382 -0.6690 -0.9628  0.6407
  717MOL0     O96661   0.855   6.217   3.809  0.2887  0.0707 -0.2218
  717MOL0     C96662   0.757   6.147   3.843  0.5839 -0.0965  0.4217
  717MOL0     O96663   0.687   6.063   3.755  0.9750 -0.7557 -0.2665
  717MOL0     C96664   0.760   6.001   3.664  0.0101 -0.2318  0.2351
  717MOL0     C96665   0.788   6.061   3.537 -0.0461  1.0848  0.1613
  717MOL0     C96666   0.854   5.986   3.438  0.2243  0.3129 -0.5998
  717MOL0     C96667   0.904   5.860   3.469  0.1161 -0.9087  0.5934
  717MOL0     O96668   0.980   5.787   3.379  0.7353  0.2717 -0.1944
  717MOL0     C96669   1.057   5.837   3.270 -0.6745 -0.4546  0.1515
  717MOL0     C96670   1.181   5.902   3.324 -0.2785 -0.1597 -0.7830
  717MOL0     C96671   1.259   5.808   3.418  0.2181 -0.3009 -0.9295
  717MOL0     C96672   1.385   5.860   3.484 -0.8386 -0.1664  0.0455
  717MOL0     C96673   1.519   5.880   3.399  0.5411  0.2578 -0.5734
  717MOL0     C96674   1.627   5.945   3.483 -0.5534 -0.5346 -0.4461
  717MOL0     C96675   1.759   5.963   3.409  0.1815  1.1830 -0.1873
  717MOL0     C96676   1.866   6.000   3.513  0.4537  0.3019  0.2138
  717MOL0     N96677   1.989   6.068   3.459 -0.4747  0.0415  0.4766
  717MOL0     C96678   1.974   6.177   3.379 -0.0034  0.3737 -0.1251
  717MOL0     C96679   2.086   6.199   3.318  0.3310 -0.4109  0.5258
  717MOL0     C96680   2.116   6.317   3.234 -0.1509 -0.4246 -0.6803
  717MOL0     C96681   2.270   6.331   3.217  0.0600  0.6210 -0.5054
  717MOL0     C96682   2.290   6.444   3.110  0.4516 -0.4233 -0.6478
  717MOL0     C96683   2.432   6.482   3.109 -0.6885 -0.1373 -0.6462
  717MOL0     O96684   2.525   6.377   3.064  0.3883  0.2525  0.2815
  717MOL0     C96685   2.662   6.368   3.099  0.7963  0.5205 -0.9189
  717MOL0     C96686   2.749   6.468   3.066 -0.7877 -0.2578 -0.2951
  717MOL0     C96687   2.882   6.460   3.106 -0.9646 -0.2862 -0.5507
  717MOL0     C96688   2.932   6.336   3.158 -0.6032  0.1632 -0.3264
  717MOL0     C96689   3.071   6.326   3.195 -0.9100 -0.9117  0.1308
  717MOL0     O96690   3.158   6.423   3.150 -0.4958  0.1947  0.5607
  717MOL0     C96691   3.289   6.435   3.204  0.4826  1.5209 -0.3279
  717MOL0     C96692   3.336   6.560   3.241  0.5238 -0.8764 -0.5609
  717MOL0     C96693   3.453   6.571   3.313 -0.4161 -0.0114 -0.1379
  717MOL0     C96694   3.531   6.465   3.351 -0.6636  0.3376  0.5057
  717MOL0     O96695   3.646   6.456   3.425  0.1151  0.1693 -0.3722
  717MOL0     C96696   3.711   6.580   3.460 -0.7988  0.6439  0.2934
  717MOL0     C96697   3.842   6.546   3.536 -0.5201  0.5281 -0.0928
  717MOL0     C96698   3.934   6.441   3.465  0.4487 -0.1305  0.5302
  717MOL0     C96699   4.071   6.413   3.529 -0.0062  0.2012  0.5083
  717MOL0     C96700   4.142   6.542   3.564 -0.0317 -0.1648 -0.0955
  717MOL0     C96701   4.288   6.518   3.592 -0.2428 -0.1999  0.0658
  717MOL0     C96702   4.319   6.420   3.706 -0.6124 -0.1174 -0.1536
  717MOL0     C96703   4.457   6.447   3.764  0.6074 -0.4680 -0.3904
  717MOL0    Cl96704   4.580   6.457   3.634 -0.1640 -0.4530 -0.3544
  717MOL0     C96705   3.488   6.337   3.307  0.1057  0.0791  0.2654
  717MOL0     C96706   3.363   6.322   3.235  0.2587 -0.1121  1.0135
  717MOL0     O96707   3.094   6.238   3.275 -0.2524  0.0650 -0.2364
  717MOL0     C96708   2.847   6.226   3.161 -0.1028 -0.4368  0.3962
  717MOL0     C96709   2.709   6.241   3.149  0.5156 -0.0560  0.8335
  717MOL0     N96710   2.178   6.095   3.357 -0.8309 -0.1240 -0.2618
  717MOL0     N96711   2.118   6.017   3.439  0.4583  0.2055 -0.3360
  717MOL0     C96712   0.890   5.806   3.601  0.4717  0.6203  0.3922
  717MOL0     C96713   0.808   5.873   3.691  0.5156  0.5908  0.4311
  717MOL0     C96714   0.693   6.165   3.979  0.3390  0.0622  0.2405
  717MOL0     C96715   0.556   6.136   3.995  0.3572 -0.2490  0.9149
  717MOL0     C96716   0.495   6.152   4.119  0.1787 -0.8571  0.3556
  717MOL0     C96717   0.558   6.215   4.228  0.7521  0.1235  0.7680
  717MOL0     O96718   0.501   6.230   4.348  0.0024  0.6395 -0.2435
  717MOL0     C96719   0.428   6.116   4.402  0.2691  0.5115 -0.0829
  717MOL0     C96720   0.519   5.988   4.419  0.0060 -0.7960 -0.1052
  717MOL0     C96721   0.646   6.015   4.495  0.2547 -1.0575 -0.3121
  717MOL0     C96722   0.728   5.891   4.534 -0.4254 -0.1036  0.1236
  717MOL0     C96723   0.682   5.853   4.668 -0.3403 -0.3516  0.6092
  717MOL0     C96724   0.638   5.812   4.775  0.1340  0.0092  0.6705
  717MOL0     C96725   0.696   6.239   4.208  0.5059 -0.1554 -0.8801
  717MOL0     C96726   0.758   6.222   4.085  0.1155  0.2123 -0.4663
  717MOL0     C96727   0.905   6.251   4.082 -0.4924  0.2525 -0.5002
  717MOL0     H96728   0.760   6.165   3.524 -0.5458  1.3942  3.0301
  717MOL0     H96729   0.868   6.027   3.338 -2.2579  1.3831 -0.5527
  717MOL0     H96730   1.093   5.754   3.209 -1.1628  1.0558 -2.3683
  717MOL0     H96731   0.998   5.906   3.209  0.2909  0.6627  0.4354
  717MOL0     H96732   1.158   6.000   3.366  2.9565 -0.4125  1.9209
  717MOL0     H96733   1.244   5.927   3.238  0.2803  3.9876  0.6204
  717MOL0     H96734   1.275   5.715   3.364 -0.0586 -1.2429  0.5534
  717MOL0     H96735   1.193   5.797   3.505 -0.6114 -0.1778 -1.5317
  717MOL0     H96736   1.359   5.958   3.526  1.7376  1.1013 -1.0643
  717MOL0     H96737   1.402   5.793   3.569  0.0902 -1.0795 -0.8250
  717MOL0     H96738   1.539   5.784   3.350  3.1045  1.6295 -2.4749
  717MOL0     H96739   1.510   5.957   3.322  3.7093  0.6512 -0.6919
  717MOL0     H96740   1.588   6.039   3.523 -1.4651 -0.8209 -0.6438
  717MOL0     H96741   1.650   5.872   3.561 -1.6919  0.2356  0.6365
  717MOL0     H96742   1.752   6.051   3.344 -2.0079  3.2829  2.6209
  717MOL0     H96743   1.791   5.875   3.353  1.6928 -0.3203  2.7881
  717MOL0     H96744   1.821   6.065   3.589 -1.2261 -2.1938  1.5196
  717MOL0     H96745   1.893   5.906   3.563 -1.1096 -0.6454 -0.6354
  717MOL0     H96746   1.886   6.240   3.372 -0.0530  0.5722  1.8115
  717MOL0     H96747   2.076   6.317   3.132 -0.4438  2.0948 -0.6426
  717MOL0     H96748   2.080   6.402   3.293 -2.2493  0.7878 -3.4607
  717MOL0     H96749   2.312   6.356   3.315  0.0656 -1.1044 -0.0375
  717MOL0     H96750   2.317   6.235   3.191  0.0556  0.4610  0.0677
  717MOL0     H96751   2.238   6.535   3.141 -0.3012 -0.9741 -0.2459
  717MOL0     H96752   2.253   6.412   3.012 -1.1746  2.0643 -0.9501
  717MOL0     H96753   2.463   6.502   3.212 -0.3054  0.2383 -0.8322
  717MOL0     H96754   2.455   6.570   3.047  1.1583 -0.2829 -0.2299
  717MOL0     H96755   2.716   6.559   3.019 -0.2495 -0.1809 -0.5347
  717MOL0     H96756   2.949   6.545   3.091 -1.8161  0.3983 -0.5566
  717MOL0     H96757   3.282   6.652   3.222 -0.1664 -1.6149 -2.3659
  717MOL0     H96758   3.489   6.667   3.348  2.5983 -0.9561 -0.3605
  717MOL0     H96759   3.743   6.634   3.370  4.0756  1.0884  1.9565
  717MOL0     H96760   3.648   6.642   3.525 -0.0168  0.7605  0.9576
  717MOL0     H96761   3.896   6.639   3.556  3.5399 -1.6985  0.3070
  717MOL0     H96762   3.822   6.494   3.630 -0.1538 -0.9972 -0.8294
  717MOL0     H96763   3.879   6.346   3.463  0.5344 -0.2260  1.9412
  717MOL0     H96764   3.941   6.456   3.357  3.8759 -0.1069  0.6570
  717MOL0     H96765   4.137   6.367   3.455  0.5212  2.4047 -0.4878
  717MOL0     H96766   4.057   6.343   3.612 -2.0669  1.0243  0.9008
  717MOL0     H96767   4.102   6.589   3.654 -0.2364 -0.3466 -0.0874
  717MOL0     H96768   4.137   6.613   3.482  0.8864 -0.9744 -0.8762
  717MOL0     H96769   4.314   6.486   3.491 -1.9305 -1.3481 -0.0423
  717MOL0     H96770   4.341   6.612   3.610  2.7293 -1.0834 -3.0545
  717MOL0     H96771   4.320   6.314   3.680  0.6310 -0.1261 -0.1348
  717MOL0     H96772   4.243   6.437   3.783  1.3171  0.4992  1.7160
  717MOL0     H96773   4.457   6.541   3.821 -1.5914  0.5316 -1.9351
  717MOL0     H96774   4.487   6.362   3.827 -0.4267 -0.1434  0.5650
  717MOL0     H96775   3.545   6.252   3.342 -0.3200  0.3283  1.6228
  717MOL0     H96776   3.335   6.220   3.211 -1.4755  0.0636  2.1423
  717MOL0     H96777   2.887   6.136   3.207  0.0566 -0.4551  0.2264
  717MOL0     H96778   2.641   6.160   3.174  1.8105 -1.3128  0.4737
  717MOL0     H96779   0.935   5.708   3.616 -2.1991 -0.4508  2.0342
  717MOL0     H96780   0.779   5.831   3.787 -1.4176  0.0961 -0.3077
  717MOL0     H96781   0.501   6.105   3.907 -2.7359  3.9952  1.0739
  717MOL0     H96782   0.391   6.122   4.130  0.2822 -1.1775  0.4710
  717MOL0     H96783   0.342   6.098   4.337 -1.3427 -3.3935  2.6790
  717MOL0     H96784   0.383   6.133   4.501 -0.8928  0.1035 -0.5191
  717MOL0     H96785   0.551   5.954   4.320  2.5777  1.6992 -0.2493
  717MOL0     H96786   0.459   5.909   4.465  0.4742  0.3686  2.6912
  717MOL0     H96787   0.622   6.074   4.584 -1.5518 -1.2595 -0.6273
  717MOL0     H96788   0.711   6.079   4.436  2.9029 -4.5403 -1.5359
  717MOL0     H96789   0.698   5.805   4.472 -3.2249 -0.5433  1.9296
  717MOL0     H96790   0.836   5.905   4.539 -0.3600 -0.1939 -0.8139
  717MOL0     H96791   0.585   5.763   4.855  0.1666 -0.0015  0.6853
  717MOL0     H96792   0.745   6.279   4.296 -0.0831 -1.8217  0.2424
  717MOL0     H96793   0.941   6.333   4.020 -0.1270 -0.1566 -0.8392
  717MOL0     H96794   0.932   6.268   4.187 -1.8119  2.3948 -0.4452
  717MOL0     H96795   0.951   6.156   4.052  2.4567  1.1751  0.7272
  718MOL0     O96796   4.802  10.030   1.195 -0.1248 -0.1263  0.0008
  718MOL0     C96797   4.744   9.927   1.231  0.0286 -0.3344  0.8188
  718MOL0     O96798   4.774   9.848   1.343  0.5547 -0.0191 -0.1538
  718MOL0     C96799   4.875   9.875   1.437  1.1082  0.5226  0.2831
  718MOL0     C96800   4.848   9.856   1.573  0.3551 -0.7721 -0.4913
  718MOL0     C96801   4.942   9.874   1.673  0.1936  0.4444  0.7097
  718MOL0     C96802   5.058   9.934   1.634 -0.2950  0.9836  0.0032
  718MOL0     O96803   5.158   9.945   1.724 -0.0310  0.4767 -0.3775
  718MOL0     C96804   5.164   9.846   1.831  0.4738  0.6924 -0.1418
  718MOL0     C96805   5.309   9.834   1.888 -0.0869 -0.4817 -0.6702
  718MOL0     C96806   5.345   9.976   1.934 -0.0078 -0.8057  0.4740
  718MOL0     C96807   5.476   9.971   2.017 -0.0030 -0.2004  0.2067
  718MOL0     C96808   5.515  10.112   2.066  0.3003  0.5826  0.7290
  718MOL0     C96809   5.664  10.110   2.103 -0.1350 -0.0656 -0.2241
  718MOL0     C96810   5.682  10.020   2.226  0.5119  0.5718  0.3259
  718MOL0     C96811   5.818  10.058   2.288 -0.3365  1.7059  1.1969
  718MOL0     N96812   5.932  10.005   2.206  0.8243 -0.7284  0.8321
  718MOL0     C96813   6.011  10.081   2.128 -0.0609 -0.5839 -0.4130
  718MOL0     C96814   6.130  10.009   2.131  0.5293  0.4124  0.0452
  718MOL0     C96815   6.250  10.056   2.047  0.1698 -0.3618  1.4244
  718MOL0     C96816   6.381  10.024   2.106  0.4722  0.9378  1.4323
  718MOL0     C96817   6.503  10.081   2.026 -0.1215 -0.3949 -0.3887
  718MOL0     C96818   6.635  10.043   2.079 -0.1007  0.1017  0.6378
  718MOL0     O96819   6.631  10.057   2.222  0.1939 -0.2821 -0.1518
  718MOL0     C96820   6.745  10.022   2.299  0.3615  0.3399  0.7366
  718MOL0     C96821   6.870  10.017   2.239  0.2840 -0.1299 -0.6367
  718MOL0     C96822   6.981   9.981   2.323 -0.0051  0.5644  0.0220
  718MOL0     C96823   6.959   9.958   2.460  0.4994 -0.7085 -0.0013
  718MOL0     C96824   7.063   9.923   2.553  0.2664  0.0429  0.5023
  718MOL0     O96825   7.035   9.934   2.688  0.1989 -0.2370 -0.1496
  718MOL0     C96826   7.128   9.939   2.790 -0.7234 -0.4287  0.1814
  718MOL0     C96827   7.065   9.968   2.913 -0.1264 -0.4236 -0.7258
  718MOL0     C96828   7.145   9.983   3.030 -0.9982  0.0273 -0.2788
  718MOL0     C96829   7.289   9.976   3.016  0.6051  0.2848 -0.7237
  718MOL0     O96830   7.370   9.976   3.126 -0.1662  0.8040 -0.7142
  718MOL0     C96831   7.442  10.095   3.141  0.3484 -0.0485  0.3152
  718MOL0     C96832   7.449  10.128   3.292  0.7277  0.0292 -0.2008
  718MOL0     C96833   7.557  10.226   3.340  0.6955 -0.4205 -0.5640
  718MOL0     C96834   7.546  10.256   3.495 -0.3182  0.2039 -0.9735
  718MOL0     C96835   7.683  10.300   3.555 -1.4759  0.7955  0.4457
  718MOL0     C96836   7.667  10.337   3.702  0.7638 -0.1514 -0.4951
  718MOL0     C96837   7.793  10.354   3.777  0.3591  0.0952  0.3230
  718MOL0     C96838   7.763  10.443   3.895  0.2790  0.3126  0.5250
  718MOL0    Cl96839   7.631  10.363   3.989  0.1952  0.1731  0.1878
  718MOL0     C96840   7.350   9.960   2.889 -0.7080 -0.5889  0.0174
  718MOL0     C96841   7.268   9.946   2.774 -0.0517 -0.0469  0.0737
  718MOL0     O96842   7.171   9.893   2.502 -0.0124  0.3726  0.5039
  718MOL0     C96843   6.825   9.970   2.512 -0.2252  0.4332 -0.4097
  718MOL0     C96844   6.724  10.006   2.435 -0.5981  0.3796  0.0923
  718MOL0     N96845   6.104   9.882   2.193 -0.2767  0.7762  0.4657
  718MOL0     N96846   5.989   9.886   2.246  0.7432 -0.3766 -0.4562
  718MOL0     C96847   5.082   9.973   1.501  0.3213 -0.2165  0.7587
  718MOL0     C96848   4.986   9.954   1.406  0.2553 -0.3777  0.3772
  718MOL0     C96849   4.634   9.869   1.142  0.4649 -0.0118 -0.0194
  718MOL0     C96850   4.542   9.783   1.195 -0.1584  1.1722 -0.4439
  718MOL0     C96851   4.454   9.709   1.116 -0.4848 -0.1936  0.5453
  718MOL0     C96852   4.453   9.735   0.973  0.0394  0.4995  0.1468
  718MOL0     O96853   4.362   9.665   0.896 -0.0242 -0.3943 -0.4286
  718MOL0     C96854   4.368   9.682   0.753 -0.2142  0.2455 -0.1648
  718MOL0     C96855   4.255   9.615   0.676  1.1858 -0.6678  0.6985
  718MOL0     C96856   4.138   9.721   0.662 -0.0259  0.2347  1.2298
  718MOL0     C96857   4.009   9.684   0.583 -0.1110  0.1536 -0.1496
  718MOL0     C96858   3.928   9.623   0.685  1.0732  0.4229  0.7407
  718MOL0     C96859   3.853   9.580   0.772 -0.1377  0.2933  0.2132
  718MOL0     C96860   4.542   9.828   0.928  0.1399 -0.1411  0.7073
  718MOL0     C96861   4.627   9.893   1.003 -0.0361 -0.3529  0.2944
  718MOL0     C96862   4.718   9.996   0.925 -0.3936 -0.2227 -0.4117
  718MOL0     H96863   4.752   9.810   1.592 -1.5045  1.8189 -2.8306
  718MOL0     H96864   4.905   9.835   1.768 -1.1872  2.7460  1.1882
  718MOL0     H96865   5.105   9.880   1.917  1.5231  1.7914  0.1700
  718MOL0     H96866   5.126   9.749   1.799 -1.7075  1.0571  1.1508
  718MOL0     H96867   5.371   9.808   1.801 -0.4716  5.0601 -3.0286
  718MOL0     H96868   5.314   9.765   1.973  2.4129 -1.0603 -1.2266
  718MOL0     H96869   5.278  10.026   2.004  0.2350 -0.1827  0.2680
  718MOL0     H96870   5.353  10.041   1.846 -0.2987 -1.2925  0.0780
  718MOL0     H96871   5.479   9.891   2.091  0.6233 -2.2666 -1.8984
  718MOL0     H96872   5.557   9.946   1.948 -0.7826  3.8076 -2.5085
  718MOL0     H96873   5.489  10.181   1.985 -1.2260 -1.3186 -0.5011
  718MOL0     H96874   5.449  10.128   2.152 -2.7021 -0.6195 -1.1907
  718MOL0     H96875   5.738  10.074   2.032  2.3052  0.3253  1.9594
  718MOL0     H96876   5.698  10.211   2.131  0.7710 -0.1103 -1.1155
  718MOL0     H96877   5.706   9.917   2.200  0.4543  0.0544  2.1755
  718MOL0     H96878   5.601  10.034   2.298 -0.0563  0.3658 -0.2715
  718MOL0     H96879   5.822  10.166   2.306 -1.4244  2.8151 -3.7611
  718MOL0     H96880   5.826  10.003   2.382  0.9429  1.2271  0.8258
  718MOL0     H96881   5.989  10.181   2.092 -1.3676 -0.7305 -0.0696
  718MOL0     H96882   6.237  10.019   1.945 -1.7384 -2.8176  2.4483
  718MOL0     H96883   6.240  10.164   2.030 -1.8279 -1.1302 -4.1367
  718MOL0     H96884   6.386  10.072   2.204  2.0558  2.6368  0.5943
  718MOL0     H96885   6.383   9.915   2.115 -1.2488  0.5232 -1.7394
  718MOL0     H96886   6.480  10.188   2.034 -2.1472 -0.8171  0.1805
  718MOL0     H96887   6.492  10.055   1.921 -1.3112  1.2392 -0.7046
  718MOL0     H96888   6.707  10.106   2.026  0.8447 -2.2485 -1.1130
  718MOL0     H96889   6.661   9.941   2.049 -0.2567 -0.5287  2.5049
  718MOL0     H96890   6.890  10.040   2.135  2.2746  1.2660  0.0047
  718MOL0     H96891   7.076   9.984   2.270 -0.3632  0.1058 -0.6674
  718MOL0     H96892   6.957   9.959   2.919 -0.1875  0.2292 -0.7970
  718MOL0     H96893   7.093   9.981   3.125 -1.4471  1.0453 -0.4885
  718MOL0     H96894   7.544  10.086   3.103  0.3552 -1.1015  0.5607
  718MOL0     H96895   7.398  10.171   3.076  1.4851  1.0271  0.7614
  718MOL0     H96896   7.353  10.172   3.320 -0.9406 -1.2537 -3.4209
  718MOL0     H96897   7.464  10.030   3.339  3.3825 -0.2443 -1.4499
  718MOL0     H96898   7.653  10.177   3.325  0.0624 -1.8156 -0.2366
  718MOL0     H96899   7.553  10.316   3.277  0.2308 -0.9161 -1.2504
  718MOL0     H96900   7.511  10.165   3.546  1.7884 -0.0558  0.1307
  718MOL0     H96901   7.484  10.345   3.497  3.2699  2.9274 -0.3568
  718MOL0     H96902   7.729  10.381   3.498 -0.2551 -0.3735 -0.2963
  718MOL0     H96903   7.745  10.210   3.548 -2.7517 -0.2187  1.4987
  718MOL0     H96904   7.611  10.431   3.700  0.1232 -0.4590  1.0522
  718MOL0     H96905   7.603  10.264   3.754 -0.9856  1.9793  0.5470
  718MOL0     H96906   7.864  10.405   3.712  0.8946  0.1881  0.9666
  718MOL0     H96907   7.846  10.265   3.812  0.1546  0.6027  2.0669
  718MOL0     H96908   7.853  10.455   3.955  0.5075 -0.5318  0.3679
  718MOL0     H96909   7.724  10.541   3.866 -2.5323 -0.0096  2.7438
  718MOL0     H96910   7.456   9.948   2.873 -0.9908 -1.4809 -1.3974
  718MOL0     H96911   7.323   9.948   2.681  0.3809  1.3277  0.3363
  718MOL0     H96912   6.804   9.944   2.616  1.1183  3.2940  0.6753
  718MOL0     H96913   6.622  10.010   2.472 -0.6786 -1.7958  0.2212
  718MOL0     H96914   5.182  10.011   1.482  0.4882 -1.5958 -1.5435
  718MOL0     H96915   5.015   9.991   1.308 -1.1893 -0.0779  0.0324
  718MOL0     H96916   4.551   9.761   1.302  3.2901 -0.5459 -0.9272
  718MOL0     H96917   4.379   9.648   1.165 -2.4252  0.4221 -1.4622
  718MOL0     H96918   4.464   9.642   0.718 -0.2445 -0.2013  0.2537
  718MOL0     H96919   4.366   9.790   0.741  0.8236  0.5016  1.5177
  718MOL0     H96920   4.223   9.528   0.735 -0.6173  0.1567  1.0208
  718MOL0     H96921   4.294   9.597   0.576  2.8471 -0.4815  1.2831
  718MOL0     H96922   4.169   9.807   0.600 -3.5236  2.7448  2.6273
  718MOL0     H96923   4.114   9.761   0.761 -2.1084 -2.6676  2.0154
  718MOL0     H96924   3.962   9.778   0.554 -0.6126  0.8146  2.5182
  718MOL0     H96925   4.016   9.618   0.497 -0.9299  1.5062 -1.3041
  718MOL0     H96926   3.778   9.548   0.841 -0.1837  1.3472  0.6655
  718MOL0     H96927   4.533   9.857   0.824 -1.8817 -1.6945  0.3801
  718MOL0     H96928   4.824   9.981   0.951 -0.4033 -1.2522 -0.9044
  718MOL0     H96929   4.704   9.979   0.818 -0.6013 -2.6569 -0.0687
  718MOL0     H96930   4.669  10.090   0.952 -2.1736 -0.8019 -1.4836
  719MOL0     O96931   6.451   5.368   2.440  0.5837 -0.2994 -0.3596
  719MOL0     C96932   6.392   5.272   2.402  0.4167 -1.0074 -0.1445
  719MOL0     O96933   6.452   5.157   2.344  0.2260  0.1026  0.5959
  719MOL0     C96934   6.585   5.159   2.308  1.0160 -0.1660 -0.7679
  719MOL0     C96935   6.646   5.269   2.246 -0.9629  0.9779  0.4362
  719MOL0     C96936   6.786   5.267   2.208  0.6026  0.0935  0.3139
  719MOL0     C96937   6.862   5.157   2.238 -0.4267  0.2110 -0.5409
  719MOL0     O96938   7.002   5.152   2.233  0.4446 -0.1544 -0.3358
  719MOL0     C96939   7.066   5.220   2.131 -0.5732 -0.8233  0.0278
  719MOL0     C96940   7.211   5.201   2.152  0.4262  0.5044  0.6759
  719MOL0     C96941   7.264   5.069   2.097 -0.2358 -0.0300  0.4627
  719MOL0     C96942   7.410   5.081   2.059 -0.1592 -0.2842 -0.6220
  719MOL0     C96943   7.493   4.948   2.070 -0.1808 -0.3130  0.4503
  719MOL0     C96944   7.638   4.983   2.050 -0.5455  0.4496  0.2399
  719MOL0     C96945   7.712   4.854   2.013 -0.7376  0.0446 -0.1333
  719MOL0     C96946   7.868   4.881   2.007  0.1187  0.2759 -0.0885
  719MOL0     N96947   7.941   4.752   2.014  0.1930 -0.3872  1.6038
  719MOL0     C96948   7.951   4.659   2.120 -0.2046  0.6990  0.8354
  719MOL0     C96949   8.050   4.573   2.085  0.2762  0.2044 -0.1731
  719MOL0     C96950   8.101   4.450   2.160  0.5866 -0.7569 -0.3826
  719MOL0     C96951   7.987   4.345   2.173 -0.3553  0.2090  0.2696
  719MOL0     C96952   8.040   4.202   2.195  0.0728 -0.6011 -0.5558
  719MOL0     C96953   8.140   4.205   2.315  1.1852 -0.6132  0.3606
  719MOL0     O96954   8.100   4.278   2.432  0.3350  0.0576  0.2171
  719MOL0     C96955   8.023   4.209   2.529 -0.6575  0.2338 -0.0177
  719MOL0     C96956   7.974   4.079   2.525  0.3939  0.5753  0.9016
  719MOL0     C96957   7.914   4.021   2.635 -0.2195  0.1733 -0.1400
  719MOL0     C96958   7.908   4.096   2.753  0.1684  0.3750 -0.6149
  719MOL0     C96959   7.836   4.048   2.870  0.5037  0.1609 -0.1302
  719MOL0     O96960   7.859   4.110   2.989 -0.1318 -0.1381  0.7883
  719MOL0     C96961   7.785   4.064   3.090 -1.4108 -0.0223  0.2815
  719MOL0     C96962   7.855   4.013   3.201  0.4940  0.1996  0.9420
  719MOL0     C96963   7.775   3.979   3.323 -0.0602 -0.4271 -0.2849
  719MOL0     C96964   7.635   3.993   3.328  0.1659 -0.8071  0.1970
  719MOL0     O96965   7.584   3.954   3.448  0.1762 -0.3352 -0.6191
  719MOL0     C96966   7.443   3.912   3.448 -0.0984 -0.8625 -0.1726
  719MOL0     C96967   7.440   3.777   3.385 -0.3056  0.0516  0.0984
  719MOL0     C96968   7.289   3.716   3.390  0.1631 -0.4771 -0.6337
  719MOL0     C96969   7.283   3.564   3.382 -0.2554 -0.1306  0.1572
  719MOL0     C96970   7.143   3.509   3.373 -0.2248 -0.6498 -0.0806
  719MOL0     C96971   7.147   3.360   3.329 -0.2040  0.0411  0.6311
  719MOL0     C96972   7.006   3.297   3.342  0.3027 -0.2526 -0.2974
  719MOL0     C96973   6.996   3.151   3.331  0.4656  0.5934  0.1453
  719MOL0    Cl96974   7.138   3.065   3.413  0.4262 -0.5061  0.1244
  719MOL0     C96975   7.576   4.051   3.217  0.3050 -0.0941 -0.1402
  719MOL0     C96976   7.647   4.081   3.102 -0.4316  0.4083 -0.0393
  719MOL0     O96977   7.775   3.939   2.855 -0.2750 -0.0815 -0.2713
  719MOL0     C96978   7.969   4.227   2.762  0.0654 -0.5895 -0.6033
  719MOL0     C96979   8.024   4.279   2.646 -0.7365  0.0683  0.3948
  719MOL0     N96980   8.084   4.607   1.953  0.1217  0.4970 -0.0339
  719MOL0     N96981   8.023   4.713   1.916  0.0281  0.6907 -0.3648
  719MOL0     C96982   6.799   5.048   2.298  0.3958 -0.7348 -0.3095
  719MOL0     C96983   6.663   5.050   2.327 -0.5522 -0.1351 -0.3937
  719MOL0     C96984   6.244   5.272   2.423 -0.1663 -0.9925  0.4569
  719MOL0     C96985   6.177   5.166   2.351 -0.0394  0.1543 -0.6634
  719MOL0     C96986   6.048   5.128   2.382  0.6876 -0.9045  0.4035
  719MOL0     C96987   5.985   5.194   2.490  0.3278  0.1869 -0.0936
  719MOL0     O96988   5.851   5.160   2.508  0.0051 -0.7538  0.8119
  719MOL0     C96989   5.760   5.250   2.432 -0.7001  0.3740 -0.4148
  719MOL0     C96990   5.755   5.198   2.288  0.2684 -0.6100 -0.6184
  719MOL0     C96991   5.638   5.270   2.227 -0.1345 -0.0750  0.1010
  719MOL0     C96992   5.652   5.260   2.074  0.4984 -0.0942  0.0974
  719MOL0     C96993   5.722   5.373   2.017  0.5258 -0.7734 -0.3261
  719MOL0     C96994   5.762   5.482   1.975 -1.2259  0.5463 -0.1518
  719MOL0     C96995   6.041   5.292   2.561  0.2380  0.4061 -0.0722
  719MOL0     C96996   6.174   5.334   2.531  0.4402 -0.4470 -0.1402
  719MOL0     C96997   6.225   5.445   2.622 -0.0706  0.6238  0.1758
  719MOL0     H96998   6.600   5.366   2.233 -1.1173  0.7115 -1.2631
  719MOL0     H96999   6.826   5.363   2.177 -0.7345 -0.1275 -2.4123
  719MOL0     H97000   7.031   5.194   2.031 -4.5582 -1.3276  1.3678
  719MOL0     H97001   7.039   5.323   2.158 -0.3951 -0.7596 -0.0415
  719MOL0     H97002   7.227   5.198   2.260 -3.0604 -0.7887  1.2619
  719MOL0     H97003   7.271   5.281   2.108  2.5138 -1.0514  0.4996
  719MOL0     H97004   7.210   5.031   2.010 -0.8034 -0.9142  1.1836
  719MOL0     H97005   7.247   4.987   2.168  1.2414 -0.7108  0.0510
  719MOL0     H97006   7.415   5.124   1.958  0.7633  4.2427  1.1421
  719MOL0     H97007   7.449   5.145   2.138  0.0680  2.3312 -2.6958
  719MOL0     H97008   7.476   4.905   2.169 -2.0338  1.9214  1.2080
  719MOL0     H97009   7.461   4.887   1.985  1.7535  0.2441 -0.7292
  719MOL0     H97010   7.653   5.053   1.968  0.1710 -1.0586 -0.9754
  719MOL0     H97011   7.674   5.033   2.140 -1.5165  0.6001  0.5574
  719MOL0     H97012   7.674   4.818   1.917 -2.6818 -1.7937  1.2241
  719MOL0     H97013   7.688   4.771   2.080  0.0901 -0.1812 -0.1018
  719MOL0     H97014   7.895   4.928   1.912  1.1140 -0.6615 -0.2923
  719MOL0     H97015   7.904   4.947   2.087  1.5414  0.4083 -0.8058
  719MOL0     H97016   7.895   4.657   2.213 -2.0861 -2.6693 -0.1643
  719MOL0     H97017   8.185   4.409   2.102  1.1133 -2.1370  1.2820
  719MOL0     H97018   8.143   4.471   2.259 -0.2401 -3.0755  0.5252
  719MOL0     H97019   7.920   4.378   2.253 -1.0515 -2.4497  0.8983
  719MOL0     H97020   7.935   4.349   2.076  1.7684 -4.0613 -1.3095
  719MOL0     H97021   8.093   4.169   2.105 -2.1263 -1.1077 -1.7431
  719MOL0     H97022   7.965   4.124   2.210 -0.0353 -0.5421 -0.7751
  719MOL0     H97023   8.220   4.256   2.260 -0.3890 -0.5857 -2.0581
  719MOL0     H97024   8.167   4.101   2.339  0.2737 -1.2827 -1.3308
  719MOL0     H97025   7.997   4.011   2.444  0.4892 -0.5227  1.8271
  719MOL0     H97026   7.854   3.932   2.615 -1.2192  0.6067  0.8017
  719MOL0     H97027   7.960   3.989   3.191  0.1631 -1.3588  1.0002
  719MOL0     H97028   7.827   3.941   3.411  3.9911 -0.1868 -2.3381
  719MOL0     H97029   7.416   3.899   3.553  1.6128  0.4587  0.4747
  719MOL0     H97030   7.380   3.984   3.395  2.4804 -0.4301 -2.9459
  719MOL0     H97031   7.473   3.791   3.281  1.3872 -0.1187  0.5860
  719MOL0     H97032   7.519   3.716   3.429  1.1851  1.0671 -1.0376
  719MOL0     H97033   7.242   3.750   3.483  1.9191  0.9940 -0.2190
  719MOL0     H97034   7.238   3.756   3.302 -1.3967  0.6156  0.7011
  719MOL0     H97035   7.331   3.523   3.471  0.5926 -0.0669 -0.2607
  719MOL0     H97036   7.343   3.530   3.298  0.8607 -0.3657  1.0223
  719MOL0     H97037   7.079   3.568   3.307  1.0972  0.5942 -0.3147
  719MOL0     H97038   7.107   3.509   3.476 -1.2754 -0.6790 -0.4366
  719MOL0     H97039   7.182   3.351   3.225 -0.0277 -2.0405  0.8166
  719MOL0     H97040   7.211   3.311   3.402  0.6119  2.0972  1.3605
  719MOL0     H97041   6.935   3.340   3.270  1.6689  1.9714 -0.4119
  719MOL0     H97042   6.964   3.323   3.439 -0.2874 -0.1360 -0.5749
  719MOL0     H97043   6.904   3.105   3.370  0.6897 -2.4069 -2.4122
  719MOL0     H97044   7.001   3.126   3.225 -0.6096  1.8601 -0.2324
  719MOL0     H97045   7.468   4.064   3.208  0.3250 -0.9345 -2.1320
  719MOL0     H97046   7.602   4.131   3.017 -1.2227 -1.2648 -0.6362
  719MOL0     H97047   7.940   4.284   2.849 -1.4295 -1.3776 -0.5662
  719MOL0     H97048   8.077   4.373   2.635 -3.0926  1.3332 -0.7224
  719MOL0     H97049   6.853   4.957   2.323  0.4560 -0.6785 -0.2299
  719MOL0     H97050   6.625   4.965   2.383 -1.1833 -0.2404 -0.9651
  719MOL0     H97051   6.231   5.119   2.269  0.0879 -0.5746 -0.1676
  719MOL0     H97052   5.987   5.064   2.318  0.4406 -0.6234  0.3570
  719MOL0     H97053   5.788   5.356   2.438  0.1234  0.0815  2.0579
  719MOL0     H97054   5.659   5.245   2.474 -1.2680 -0.2858 -1.7665
  719MOL0     H97055   5.747   5.089   2.292  2.6704 -0.8364 -0.7830
  719MOL0     H97056   5.845   5.225   2.232  1.7599 -2.8195  0.5945
  719MOL0     H97057   5.627   5.375   2.252 -0.3840 -0.6261  2.5538
  719MOL0     H97058   5.544   5.221   2.255 -0.1585 -1.6214 -2.3240
  719MOL0     H97059   5.692   5.165   2.037  0.9302  0.2541 -0.3511
  719MOL0     H97060   5.549   5.264   2.037  0.0230 -3.1125  0.8809
  719MOL0     H97061   5.796   5.567   1.919 -2.9490  0.4290 -1.4529
  719MOL0     H97062   5.988   5.343   2.641  0.7715  0.3474  0.3324
  719MOL0     H97063   6.296   5.516   2.579  1.3252 -1.0387 -0.3832
  719MOL0     H97064   6.144   5.513   2.650  0.4482  1.0952  0.5440
  719MOL0     H97065   6.267   5.402   2.713  0.1866 -1.4846 -0.8676
  720MOL0     O97066   7.638   2.285   5.822 -0.0021  0.0132  0.2493
  720MOL0     C97067   7.624   2.379   5.899  0.0079 -1.2819  0.1496
  720MOL0     O97068   7.720   2.445   5.973  0.1709  0.2592  0.6137
  720MOL0     C97069   7.851   2.412   5.952  1.2472  0.0331 -0.9570
  720MOL0     C97070   7.945   2.505   5.922  1.2751 -0.8090  0.3615
  720MOL0     C97071   8.076   2.466   5.906 -0.0015 -0.3758 -0.9449
  720MOL0     C97072   8.114   2.329   5.919  0.3095 -0.2363 -0.2893
  720MOL0     O97073   8.238   2.286   5.899 -0.2790  0.1753 -0.1257
  720MOL0     C97074   8.342   2.378   5.859 -0.7507  0.4466  0.1424
  720MOL0     C97075   8.472   2.293   5.859  0.5302 -0.9430  0.2928
  720MOL0     C97076   8.595   2.380   5.837 -0.0968 -0.1277 -0.2809
  720MOL0     C97077   8.616   2.444   5.696  0.7615 -0.7894 -0.8932
  720MOL0     C97078   8.726   2.554   5.691 -0.5137 -0.2751  0.1182
  720MOL0     C97079   8.870   2.490   5.665 -0.5423 -0.1949  0.2174
  720MOL0     C97080   8.973   2.593   5.625  0.0304  0.1441 -0.0483
  720MOL0     C97081   9.114   2.556   5.645  0.3692 -0.2166 -0.2873
  720MOL0     N97082   9.143   2.429   5.585  0.9044 -0.5967  0.1580
  720MOL0     C97083   9.153   2.310   5.653 -0.9863 -0.1535  0.3875
  720MOL0     C97084   9.210   2.222   5.565 -0.1746  0.0269  0.0425
  720MOL0     C97085   9.264   2.081   5.576 -0.4247  0.5850  0.0312
  720MOL0     C97086   9.424   2.068   5.593  0.3138 -0.4835 -0.2063
  720MOL0     C97087   9.507   2.101   5.469 -0.1527 -0.3738 -0.1521
  720MOL0     C97088   9.446   2.054   5.333 -0.0227 -0.3479 -0.1754
  720MOL0     O97089   9.440   1.910   5.308 -0.3062  0.2624 -0.6754
  720MOL0     C97090   9.552   1.834   5.269  0.2377  0.0074 -0.4542
  720MOL0     C97091   9.682   1.872   5.267 -0.1556 -0.0657  0.5279
  720MOL0     C97092   9.795   1.793   5.234  0.1456 -0.2598  0.5715
  720MOL0     C97093   9.771   1.659   5.187 -0.1657 -0.2664 -0.6654
  720MOL0     C97094   9.883   1.574   5.157  0.2307  1.1142  1.1612
  720MOL0     O97095   9.853   1.456   5.097 -0.1386  0.2718 -0.9302
  720MOL0     C97096   9.955   1.373   5.073 -0.9169  0.0300 -0.4622
  720MOL0     C97097  10.000   1.288   5.181  0.9282 -0.2489 -0.2360
  720MOL0     C97098  10.085   1.186   5.162  0.2736  0.2082 -0.4921
  720MOL0     C97099  10.147   1.164   5.042  0.3885  0.7869  0.7654
  720MOL0     O97100  10.236   1.059   5.045  0.1755  0.6689  0.0697
  720MOL0     C97101  10.353   1.074   4.967 -0.3392 -0.6128  0.4448
  720MOL0     C97102  10.344   0.982   4.844 -0.3416 -0.1252 -0.6623
  720MOL0     C97103  10.462   1.032   4.763  0.0936 -0.4504  0.6893
  720MOL0     C97104  10.589   0.967   4.821  1.4032 -1.0186 -0.1344
  720MOL0     C97105  10.712   1.012   4.737 -0.4903  0.2657  0.7282
  720MOL0     C97106  10.796   1.127   4.805 -0.7276  0.0652 -0.0367
  720MOL0     C97107  10.911   1.199   4.727 -0.6491 -0.0956  0.9933
  720MOL0     C97108  11.023   1.103   4.679  0.0677 -0.8644 -1.3346
  720MOL0    Cl97109  11.144   1.064   4.802 -0.1967  0.0707 -0.4558
  720MOL0     C97110  10.121   1.254   4.932 -0.0890 -0.2268 -0.7653
  720MOL0     C97111  10.028   1.358   4.953 -0.2104  0.0658  0.1542
  720MOL0     O97112   9.989   1.607   5.199 -0.0527  0.0588  0.5371
  720MOL0     C97113   9.637   1.619   5.183  0.2783 -0.5433  0.3051
  720MOL0     C97114   9.533   1.697   5.236  0.3766  0.6226 -0.3647
  720MOL0     N97115   9.230   2.288   5.444  0.6690 -0.4207  0.7153
  720MOL0     N97116   9.193   2.413   5.460 -0.5832  0.7749 -0.2202
  720MOL0     C97117   8.021   2.237   5.958 -0.0839 -1.7809  0.0039
  720MOL0     C97118   7.892   2.279   5.979 -0.5263  0.5205 -0.3493
  720MOL0     C97119   7.486   2.425   5.917  0.3173 -0.4900  0.6766
  720MOL0     C97120   7.392   2.420   5.808  0.3919 -0.2660 -0.0391
  720MOL0     C97121   7.259   2.455   5.817 -0.2266 -0.9256  0.0624
  720MOL0     C97122   7.218   2.504   5.937  0.7555  0.5239 -0.1114
  720MOL0     O97123   7.089   2.549   5.923 -0.1039  0.1386  0.1093
  720MOL0     C97124   7.041   2.642   6.021 -0.0012 -0.1066  0.8603
  720MOL0     C97125   6.898   2.685   6.001 -0.3573  0.7212  0.6246
  720MOL0     C97126   6.810   2.560   6.026  0.1768 -0.3198 -0.1725
  720MOL0     C97127   6.664   2.593   6.014  0.1825  0.5306 -0.3904
  720MOL0     C97128   6.586   2.475   6.053  1.2371  0.1885  0.6481
  720MOL0     C97129   6.514   2.378   6.075 -0.2315 -0.8154  0.3734
  720MOL0     C97130   7.306   2.518   6.044 -0.0167 -0.1311  0.0523
  720MOL0     C97131   7.441   2.473   6.043 -0.5201 -0.1486 -0.1118
  720MOL0     C97132   7.518   2.469   6.173  0.1684  0.2062  0.0647
  720MOL0     H97133   7.916   2.606   5.896 -0.7115 -1.8741 -1.8848
  720MOL0     H97134   8.151   2.530   5.861 -0.0221 -0.3478 -0.9392
  720MOL0     H97135   8.317   2.416   5.759  1.4058  1.1914 -0.1593
  720MOL0     H97136   8.358   2.463   5.926 -1.8138  0.6402  0.1740
  720MOL0     H97137   8.468   2.225   5.774  1.1210  0.8491 -1.2404
  720MOL0     H97138   8.485   2.228   5.946  3.2599 -0.4763  0.2936
  720MOL0     H97139   8.681   2.317   5.862 -1.5374 -1.7896  0.7223
  720MOL0     H97140   8.604   2.460   5.911  3.0557 -0.2167 -0.4473
  720MOL0     H97141   8.640   2.370   5.619  1.4427 -2.3222  0.7222
  720MOL0     H97142   8.520   2.492   5.675  0.0894 -1.6471  0.1166
  720MOL0     H97143   8.689   2.605   5.602  0.9888  1.1739  0.2894
  720MOL0     H97144   8.723   2.621   5.777  1.2919  0.3474 -0.2680
  720MOL0     H97145   8.912   2.447   5.757 -1.2398  1.8953  1.5681
  720MOL0     H97146   8.863   2.418   5.583  1.1078  1.0327 -1.0619
  720MOL0     H97147   8.955   2.679   5.690 -1.9135 -2.3012  2.9105
  720MOL0     H97148   8.957   2.612   5.519  0.4434 -0.8911 -0.3097
  720MOL0     H97149   9.184   2.630   5.604 -0.2644  0.6724  0.1983
  720MOL0     H97150   9.119   2.539   5.753  0.0924 -0.2427 -0.2776
  720MOL0     H97151   9.126   2.300   5.758 -1.4642  3.0534  0.6681
  720MOL0     H97152   9.209   2.049   5.665 -1.8725 -0.2296 -1.1015
  720MOL0     H97153   9.234   2.018   5.492  3.5380 -1.9799  0.2691
  720MOL0     H97154   9.467   2.130   5.673 -0.3814 -2.6912  2.0268
  720MOL0     H97155   9.440   1.964   5.621  0.6751 -0.1483  0.8780
  720MOL0     H97156   9.606   2.058   5.486  1.1761  3.0781  2.0572
  720MOL0     H97157   9.516   2.210   5.460  0.2574 -0.1670  2.1052
  720MOL0     H97158   9.512   2.101   5.259 -2.6098  3.3794 -0.3903
  720MOL0     H97159   9.348   2.102   5.324 -0.3338 -0.2129  2.8522
  720MOL0     H97160   9.711   1.976   5.270  1.8314 -0.5420 -0.2053
  720MOL0     H97161   9.898   1.827   5.241  0.1076 -0.1188  0.4644
  720MOL0     H97162   9.947   1.286   5.276 -2.4070  1.3428 -1.8859
  720MOL0     H97163  10.107   1.131   5.253 -2.3203 -0.1649 -0.0029
  720MOL0     H97164  10.368   1.176   4.930  0.7377 -2.1273 -3.9056
  720MOL0     H97165  10.441   1.047   5.026  1.4257  1.2426 -1.1480
  720MOL0     H97166  10.355   0.876   4.868  2.7486  0.2899  0.2695
  720MOL0     H97167  10.252   0.987   4.785  0.9215 -0.3265 -2.7424
  720MOL0     H97168  10.450   1.003   4.658 -1.9343  0.6461  0.5703
  720MOL0     H97169  10.466   1.141   4.759  1.6233 -0.5122 -0.4010
  720MOL0     H97170  10.570   0.860   4.813 -4.6254 -0.5268  2.1113
  720MOL0     H97171  10.594   0.993   4.927 -1.3791 -3.9515  0.8660
  720MOL0     H97172  10.691   1.033   4.632  1.0433 -0.7247  0.1806
  720MOL0     H97173  10.781   0.927   4.728 -1.9292 -0.7925 -0.9415
  720MOL0     H97174  10.720   1.203   4.828 -0.5150 -0.3943  2.4489
  720MOL0     H97175  10.837   1.098   4.901 -0.6445 -0.9237 -0.3669
  720MOL0     H97176  10.945   1.290   4.776 -2.0759  0.3674  1.1653
  720MOL0     H97177  10.859   1.243   4.641 -2.1093 -2.5174  0.5316
  720MOL0     H97178  10.980   1.005   4.659 -1.6655 -0.0990 -1.5324
  720MOL0     H97179  11.076   1.139   4.590  0.0449 -0.7350 -1.2967
  720MOL0     H97180  10.170   1.246   4.836  2.9807  1.2317  0.5527
  720MOL0     H97181  10.005   1.433   4.877 -0.0650  0.2523  0.2932
  720MOL0     H97182   9.611   1.520   5.146 -1.4506  1.0029 -2.9978
  720MOL0     H97183   9.439   1.646   5.247 -0.1168  1.2233 -1.6155
  720MOL0     H97184   8.044   2.131   5.963 -0.5836 -1.9869 -1.5300
  720MOL0     H97185   7.824   2.205   6.020  3.2873 -2.4034  1.3477
  720MOL0     H97186   7.417   2.376   5.712 -3.5010 -1.1307 -0.8587
  720MOL0     H97187   7.193   2.445   5.731  0.8847 -0.2617 -0.8806
  720MOL0     H97188   7.100   2.734   6.026  0.3457 -0.1466 -1.2497
  720MOL0     H97189   7.050   2.597   6.120 -0.6946 -3.3508 -0.4108
  720MOL0     H97190   6.886   2.725   5.900  0.8805 -1.3314 -0.4035
  720MOL0     H97191   6.870   2.761   6.074 -1.0627 -0.3036  1.4601
  720MOL0     H97192   6.828   2.522   6.127  1.6226 -3.1426 -1.3760
  720MOL0     H97193   6.829   2.472   5.965 -1.1430 -1.1395  0.5504
  720MOL0     H97194   6.631   2.678   6.075  0.2474  0.0544  0.3107
  720MOL0     H97195   6.651   2.617   5.908 -0.5448  0.8789 -0.2299
  720MOL0     H97196   6.458   2.293   6.109 -0.8777 -0.5783 -0.0846
  720MOL0     H97197   7.267   2.561   6.135  0.0671  0.3078 -0.1191
  720MOL0     H97198   7.569   2.372   6.180  0.8340  0.5150 -0.4089
  720MOL0     H97199   7.592   2.550   6.168 -0.7783  1.0958  0.1506
  720MOL0     H97200   7.441   2.480   6.249 -0.6462 -1.2824 -0.5074
  721MOL0     O97201   2.403  10.056   9.000  0.2074 -0.8370  0.6326
  721MOL0     C97202   2.372   9.978   9.091 -0.8654  0.2269  0.9156
  721MOL0     O97203   2.453   9.939   9.194  0.3147 -0.1157  0.5337
  721MOL0     C97204   2.582   9.991   9.182 -0.2135  0.4570 -0.5754
  721MOL0     C97205   2.667   9.965   9.077  0.2016  0.0298  0.7774
  721MOL0     C97206   2.803  10.006   9.073 -0.3254  0.6535 -0.0305
  721MOL0     C97207   2.847  10.076   9.183  0.3635 -1.0979  0.5221
  721MOL0     O97208   2.975  10.120   9.180 -0.9092 -0.7233  0.5953
  721MOL0     C97209   3.023  10.183   9.300 -1.3532  0.5767 -1.0754
  721MOL0     C97210   3.162  10.229   9.268 -0.3586  0.3736 -0.7903
  721MOL0     C97211   3.242  10.265   9.398  0.1019 -0.5305 -1.2014
  721MOL0     C97212   3.289  10.414   9.398  0.2260 -0.4443 -0.3876
  721MOL0     C97213   3.323  10.466   9.529 -0.6074 -0.6367 -1.0530
  721MOL0     C97214   3.430  10.578   9.517 -0.6010 -0.9117  0.2979
  721MOL0     C97215   3.464  10.631   9.647  0.5884  0.0545 -0.0391
  721MOL0     C97216   3.576  10.721   9.623 -0.7043  0.4214 -0.5394
  721MOL0     N97217   3.651  10.733   9.750 -0.5091  0.8081 -0.3576
  721MOL0     C97218   3.624  10.798   9.866 -0.4355 -0.7904 -0.1815
  721MOL0     C97219   3.742  10.800   9.937 -0.2501  0.2024  0.2509
  721MOL0     C97220   3.777  10.857  10.068 -1.0527  0.6848 -0.1608
  721MOL0     C97221   3.884  10.964  10.063 -0.2912 -0.6930  0.2157
  721MOL0     C97222   3.880  11.062   9.945  0.0212 -0.1813 -0.0236
  721MOL0     C97223   3.977  11.177   9.958  0.3500 -0.0539 -0.6616
  721MOL0     O97224   4.113  11.154   9.908 -0.0506  0.3313  0.0409
  721MOL0     C97225   4.210  11.253   9.933 -0.0308  0.0523 -0.2464
  721MOL0     C97226   4.330  11.242   9.871 -0.0361 -0.4037  0.4346
  721MOL0     C97227   4.437  11.326   9.884 -0.1766  1.1194 -1.1606
  721MOL0     C97228   4.416  11.438   9.966 -0.5422  0.3172 -0.2880
  721MOL0     C97229   4.526  11.527   9.997  0.1670 -0.2165  0.3091
  721MOL0     O97230   4.660  11.503   9.957  0.4685  0.4633 -0.4623
  721MOL0     C97231   4.757  11.576  10.017  0.0229 -0.1579  0.7767
  721MOL0     C97232   4.825  11.678   9.945 -0.2730 -0.7792 -0.0993
  721MOL0     C97233   4.929  11.745  10.007  0.2253  0.7130  0.0703
  721MOL0     C97234   4.977  11.712  10.135 -0.5810  0.1256 -0.0940
  721MOL0     O97235   5.075  11.787  10.195  0.3774 -0.1539 -0.0565
  721MOL0     C97236   5.026  11.901  10.261  0.8333 -0.8867  0.0113
  721MOL0     C97237   5.126  12.006  10.289  0.3871  0.5101 -0.2135
  721MOL0     C97238   5.226  11.977  10.401 -0.5570  1.5862 -0.7690
  721MOL0     C97239   5.320  12.103  10.414  0.6650  0.6424  0.3825
  721MOL0     C97240   5.404  12.100  10.543 -0.3923  0.5054 -0.3764
  721MOL0     C97241   5.474  12.229  10.567 -0.0557 -0.6356  0.8211
  721MOL0     C97242   5.590  12.230  10.658  0.4046  0.9561 -0.9011
  721MOL0     C97243   5.721  12.162  10.600  0.3381  0.4475 -0.6314
  721MOL0    Cl97244   5.875  12.195  10.691  0.6653 -0.2253 -0.0182
  721MOL0     C97245   4.906  11.613  10.206  0.6825  1.1467 -0.0136
  721MOL0     C97246   4.798  11.544  10.149  0.1246 -0.9629  0.8603
  721MOL0     O97247   4.497  11.615  10.077 -0.6931  0.2351 -0.2238
  721MOL0     C97248   4.290  11.456  10.021  0.8507 -0.6258 -0.4185
  721MOL0     C97249   4.190  11.369   9.999 -0.1054  0.7637 -0.0541
  721MOL0     N97250   3.832  10.707   9.881 -0.5217 -0.7583  0.4992
  721MOL0     N97251   3.776  10.676   9.769  0.3125 -0.7210  0.0774
  721MOL0     C97252   2.757  10.115   9.286 -0.7767  0.3901 -0.3142
  721MOL0     C97253   2.632  10.061   9.292  0.2307 -0.2584  0.1323
  721MOL0     C97254   2.233   9.953   9.106 -0.1659  1.7928 -0.8877
  721MOL0     C97255   2.148   9.982   8.993  0.0771  0.1488  0.5107
  721MOL0     C97256   2.008   9.972   8.997  0.8552  0.0440  0.4824
  721MOL0     C97257   1.955   9.913   9.112  0.4194  0.0381  0.5662
  721MOL0     O97258   1.826   9.882   9.140  0.6610 -0.7926 -0.6734
  721MOL0     C97259   1.725   9.949   9.061  0.6109  0.7639 -0.2849
  721MOL0     C97260   1.591   9.886   9.100  0.1717 -0.3862  1.0893
  721MOL0     C97261   1.591   9.734   9.109 -0.4949 -0.2294  0.7172
  721MOL0     C97262   1.629   9.665   8.969  0.2159  1.1687 -0.7477
  721MOL0     C97263   1.565   9.536   8.950  1.0344  0.1136 -0.6720
  721MOL0     C97264   1.496   9.439   8.937 -0.4589 -0.4308  0.0222
  721MOL0     C97265   2.039   9.866   9.213 -0.0413  0.1218  0.4556
  721MOL0     C97266   2.174   9.886   9.216 -0.6975 -0.6764  0.7113
  721MOL0     C97267   2.247   9.837   9.338 -0.4675 -0.1327 -0.5906
  721MOL0     H97268   2.615   9.909   9.000 -1.6915  2.9625 -0.2184
  721MOL0     H97269   2.876  10.000   8.993 -1.0380 -1.3330 -0.5725
  721MOL0     H97270   2.975  10.278   9.327  0.0198  0.7030  1.1463
  721MOL0     H97271   3.018  10.121   9.390  0.7323  0.3008 -1.0875
  721MOL0     H97272   3.137  10.319   9.212  1.1860  1.2819 -0.0972
  721MOL0     H97273   3.212  10.157   9.203  0.4071 -1.0360  1.2254
  721MOL0     H97274   3.335  10.209   9.410 -0.1918 -0.5612  1.5087
  721MOL0     H97275   3.178  10.249   9.485 -0.8246  3.6052 -0.9127
  721MOL0     H97276   3.381  10.422   9.340  2.2471 -1.5987  2.4655
  721MOL0     H97277   3.216  10.482   9.352  0.3434 -0.4338 -0.5605
  721MOL0     H97278   3.232  10.509   9.574 -1.1285 -1.3425 -1.4181
  721MOL0     H97279   3.369  10.395   9.599  1.3795  2.0935  0.6459
  721MOL0     H97280   3.517  10.547   9.459  0.4219  0.8115  0.8230
  721MOL0     H97281   3.384  10.649   9.447 -1.9544 -1.9404  0.1084
  721MOL0     H97282   3.493  10.556   9.721  0.5661  0.3124  0.2328
  721MOL0     H97283   3.376  10.689   9.674  0.8715  0.5818 -0.2287
  721MOL0     H97284   3.645  10.704   9.540  1.3100  2.4429  0.6176
  721MOL0     H97285   3.545  10.824   9.607  2.0490  2.0374  3.1089
  721MOL0     H97286   3.533  10.850   9.891 -0.5196 -0.2780 -1.4669
  721MOL0     H97287   3.684  10.896  10.111 -0.5187  3.6521 -1.4619
  721MOL0     H97288   3.821  10.772  10.120 -0.0726  2.2396  1.6759
  721MOL0     H97289   3.889  11.019  10.158  1.4249  1.0789 -0.8141
  721MOL0     H97290   3.982  10.915  10.061  1.4953  2.6037  0.5586
  721MOL0     H97291   3.776  11.095   9.934 -0.3518 -0.5656  1.9575
  721MOL0     H97292   3.907  11.012   9.851 -0.7810 -1.3580  0.3540
  721MOL0     H97293   3.984  11.204  10.064 -0.6930 -0.4834 -0.4704
  721MOL0     H97294   3.935  11.258   9.899 -1.0111 -0.3263 -0.1210
  721MOL0     H97295   4.343  11.163   9.798 -0.4209  2.1254 -2.6064
  721MOL0     H97296   4.526  11.304   9.825 -0.4629  0.9399 -1.5368
  721MOL0     H97297   4.807  11.701   9.841  0.4264  1.5085  0.2433
  721MOL0     H97298   4.991  11.821   9.960 -3.8028  3.1905 -1.8575
  721MOL0     H97299   4.947  11.947  10.201  0.2883 -1.3363  0.3706
  721MOL0     H97300   4.976  11.866  10.352 -0.9916  0.1061 -0.5614
  721MOL0     H97301   5.181  12.037  10.199  2.4963  1.9163  1.4595
  721MOL0     H97302   5.067  12.095  10.311  0.8424  1.1031 -1.2673
  721MOL0     H97303   5.178  11.954  10.496  1.7336  0.9939  0.3049
  721MOL0     H97304   5.280  11.885  10.380 -0.0757  1.2050  1.8479
  721MOL0     H97305   5.252  12.188  10.421  0.6016  0.7895 -1.5348
  721MOL0     H97306   5.385  12.103  10.327 -1.5742  1.2771 -1.3932
  721MOL0     H97307   5.475  12.017  10.543  0.4453  1.1363  2.0181
  721MOL0     H97308   5.344  12.084  10.633  2.4488 -3.0572  1.1512
  721MOL0     H97309   5.493  12.283  10.473 -1.4260  0.2052  0.9947
  721MOL0     H97310   5.402  12.295  10.615 -2.9885 -1.0396 -2.5551
  721MOL0     H97311   5.577  12.183  10.756 -0.5836  1.5267 -0.7486
  721MOL0     H97312   5.619  12.332  10.687  0.7615  0.0219  2.4114
  721MOL0     H97313   5.705  12.054  10.601  1.3506  0.1844  3.1376
  721MOL0     H97314   5.742  12.196  10.498  0.5981 -2.3061 -1.5783
  721MOL0     H97315   4.941  11.577  10.302  2.5288 -0.6609 -1.2976
  721MOL0     H97316   4.737  11.472  10.202 -0.0419 -2.3793 -1.1500
  721MOL0     H97317   4.267  11.544  10.080 -3.2194 -1.4021 -0.5126
  721MOL0     H97318   4.095  11.399  10.041  0.6548  3.4515 -0.0344
  721MOL0     H97319   2.785  10.172   9.374  0.0937 -3.0138  1.7886
  721MOL0     H97320   2.575  10.083   9.382 -0.9535 -1.4531 -0.2800
  721MOL0     H97321   2.187  10.015   8.898  2.7303  0.1552  1.5324
  721MOL0     H97322   1.949   9.997   8.909  2.5871 -0.5049 -0.8813
  721MOL0     H97323   1.741   9.926   8.955  0.9027 -0.7236  0.0491
  721MOL0     H97324   1.733  10.056   9.080 -0.5054  0.4050  2.5901
  721MOL0     H97325   1.515   9.922   9.030  0.4421  1.0604  1.4926
  721MOL0     H97326   1.553   9.932   9.192 -0.6706  1.6641 -0.1978
  721MOL0     H97327   1.491   9.689   9.115  0.3020 -2.6579 -2.0523
  721MOL0     H97328   1.649   9.695   9.193  1.8787 -4.9249 -2.6218
  721MOL0     H97329   1.599   9.723   8.880 -1.5237  1.4614 -0.0061
  721MOL0     H97330   1.738   9.651   8.964 -0.1089 -1.7577 -0.9999
  721MOL0     H97331   1.439   9.348   8.932 -2.0947  0.5344  0.3178
  721MOL0     H97332   1.992   9.797   9.283 -0.8945 -0.1660 -0.3833
  721MOL0     H97333   2.316   9.755   9.315  0.7882  1.3726 -2.5225
  721MOL0     H97334   2.293   9.922   9.390 -2.5174  1.2992 -0.9808
  721MOL0     H97335   2.165   9.793   9.396 -2.1684  2.3806 -0.9128
  722MOL0     O97336   0.489   4.715   5.114 -0.4346 -0.2951  0.3812
  722MOL0     C97337   0.392   4.706   5.037 -0.0084 -0.6551  0.1216
  722MOL0     O97338   0.359   4.584   4.975 -0.0013 -0.4389 -0.0032
  722MOL0     C97339   0.437   4.478   4.990  0.4267  0.8916  0.8061
  722MOL0     C97340   0.389   4.362   5.067 -0.1987 -0.4687 -0.6581
  722MOL0     C97341   0.468   4.246   5.088 -0.2303  0.0116 -0.3647
  722MOL0     C97342   0.588   4.233   5.028 -0.6719 -0.3003  0.1593
  722MOL0     O97343   0.659   4.116   5.041  0.7434  0.3416 -0.1682
  722MOL0     C97344   0.717   4.053   4.928 -0.1040 -0.1771  0.0049
  722MOL0     C97345   0.839   3.966   4.974  0.4156  0.7420 -0.5725
  722MOL0     C97346   0.876   3.885   4.855  0.2507  0.6832 -0.2893
  722MOL0     C97347   0.964   3.962   4.756  0.2581 -0.0647  0.1384
  722MOL0     C97348   0.992   3.891   4.623  0.7113 -0.9668 -0.2430
  722MOL0     C97349   1.063   3.758   4.630  0.2354 -0.1534  0.0536
  722MOL0     C97350   1.211   3.762   4.679  0.3655 -0.2142 -1.0338
  722MOL0     C97351   1.287   3.629   4.687 -0.3993 -0.0606 -0.4909
  722MOL0     N97352   1.243   3.547   4.804 -0.1471  0.0254 -0.0310
  722MOL0     C97353   1.322   3.477   4.891 -0.1854  0.4403  0.1178
  722MOL0     C97354   1.237   3.386   4.949  0.8363 -0.3242  0.9893
  722MOL0     C97355   1.258   3.273   5.047  0.3332  0.0775  0.2376
  722MOL0     C97356   1.225   3.312   5.188  0.0290  1.1210 -0.1963
  722MOL0     C97357   1.235   3.189   5.284 -1.0453 -0.2517 -0.2444
  722MOL0     C97358   1.170   3.214   5.417  0.3845 -0.3216 -1.2681
  722MOL0     O97359   1.234   3.310   5.502 -1.1747  0.0361  0.2849
  722MOL0     C97360   1.357   3.274   5.560  0.8441 -1.3800  1.2089
  722MOL0     C97361   1.465   3.337   5.508  0.0717 -0.5024 -0.4679
  722MOL0     C97362   1.580   3.302   5.582 -0.3892  0.6276 -0.1008
  722MOL0     C97363   1.583   3.216   5.692 -0.1567  0.4682 -0.2491
  722MOL0     C97364   1.704   3.198   5.786 -0.5581 -0.2097  0.6434
  722MOL0     O97365   1.825   3.263   5.750  0.5523 -0.4125 -0.5729
  722MOL0     C97366   1.936   3.253   5.832 -0.6398 -0.0137  0.1531
  722MOL0     C97367   1.978   3.128   5.883 -1.0016  0.3902 -0.5192
  722MOL0     C97368   2.088   3.113   5.973 -0.1087  0.1291  0.0243
  722MOL0     C97369   2.161   3.229   5.997 -0.1193  0.4776  0.2854
  722MOL0     O97370   2.268   3.212   6.081  0.1414  0.2146 -0.7137
  722MOL0     C97371   2.279   3.308   6.185 -0.6204 -0.0681  0.0097
  722MOL0     C97372   2.362   3.254   6.297  0.4131  0.1776 -0.9404
  722MOL0     C97373   2.423   3.379   6.354 -0.9908 -0.1505 -0.3949
  722MOL0     C97374   2.509   3.339   6.476 -0.2329  0.5200  0.8815
  722MOL0     C97375   2.548   3.467   6.544  0.1174 -0.0330  0.3075
  722MOL0     C97376   2.645   3.547   6.469 -0.5719 -0.4261  0.3174
  722MOL0     C97377   2.722   3.642   6.568 -0.4204  0.5299 -0.2290
  722MOL0     C97378   2.650   3.781   6.579 -0.0205 -0.5502 -0.9486
  722MOL0    Cl97379   2.693   3.856   6.735  0.3349 -0.2154  0.0288
  722MOL0     C97380   2.135   3.355   5.934  0.6873 -0.2459  0.6661
  722MOL0     C97381   2.016   3.362   5.853  0.3659 -0.2472  0.1693
  722MOL0     O97382   1.697   3.124   5.876 -0.2392 -0.6704 -0.2907
  722MOL0     C97383   1.467   3.164   5.745  0.0751  0.4844 -0.1071
  722MOL0     C97384   1.349   3.193   5.672  0.1651  0.3188 -0.3672
  722MOL0     N97385   1.114   3.396   4.881  0.0642 -0.5845 -0.2383
  722MOL0     N97386   1.121   3.487   4.792  0.0129 -0.0375 -0.3323
  722MOL0     C97387   0.628   4.345   4.941  0.3258 -0.1819  0.1357
  722MOL0     C97388   0.551   4.463   4.914 -0.6265  0.4150 -0.3236
  722MOL0     C97389   0.307   4.830   5.015 -0.0492 -0.1569  0.5832
  722MOL0     C97390   0.349   4.955   5.062 -0.5989 -0.9474 -0.1224
  722MOL0     C97391   0.281   5.073   5.035 -1.4624 -0.3023  0.2154
  722MOL0     C97392   0.169   5.068   4.957  0.3164  0.3834 -0.2073
  722MOL0     O97393   0.092   5.180   4.920 -1.0399  0.8452 -0.3197
  722MOL0     C97394   0.069   5.286   5.012 -0.2144  0.5758 -0.5641
  722MOL0     C97395  -0.062   5.254   5.085  0.1631 -0.1187  0.1926
  722MOL0     C97396  -0.085   5.359   5.194 -0.0330 -0.3237 -0.5448
  722MOL0     C97397  -0.210   5.320   5.280  0.1960 -0.3532  0.2428
  722MOL0     C97398  -0.183   5.320   5.427 -0.8028 -0.9911  0.3493
  722MOL0     C97399  -0.166   5.303   5.541  0.5919  0.0162 -1.0102
  722MOL0     C97400   0.122   4.942   4.903  0.0496 -1.3536  0.5013
  722MOL0     C97401   0.186   4.824   4.940 -0.2696 -0.7949 -0.3950
  722MOL0     C97402   0.115   4.703   4.905 -0.3170 -0.4462  0.0530
  722MOL0     H97403   0.302   4.383   5.129  2.5809  2.2199  2.7248
  722MOL0     H97404   0.440   4.162   5.151 -1.1928  0.7847  0.2657
  722MOL0     H97405   0.636   3.994   4.884 -0.9186 -0.5977  1.9848
  722MOL0     H97406   0.739   4.129   4.852  2.4005 -0.0903  0.7360
  722MOL0     H97407   0.792   3.904   5.050 -5.0085  5.2239  0.4799
  722MOL0     H97408   0.919   4.027   5.017  0.2578 -0.3963  1.4482
  722MOL0     H97409   0.789   3.842   4.805  0.7773 -1.1875  0.3105
  722MOL0     H97410   0.936   3.798   4.883 -0.5866  0.3337  0.4547
  722MOL0     H97411   0.919   4.058   4.727 -0.1093 -0.1108  0.5451
  722MOL0     H97412   1.061   3.981   4.802 -0.2186  0.3240  1.0267
  722MOL0     H97413   0.898   3.894   4.566  0.4735 -0.7811  0.1489
  722MOL0     H97414   1.050   3.962   4.563 -0.5143  2.3384  2.1908
  722MOL0     H97415   1.005   3.689   4.692 -0.5892  0.8641  0.4520
  722MOL0     H97416   1.067   3.714   4.530 -0.6431 -0.7130  0.2517
  722MOL0     H97417   1.192   3.800   4.780 -1.2781 -2.5495 -0.3863
  722MOL0     H97418   1.259   3.828   4.606 -2.1575 -0.6140 -3.2232
  722MOL0     H97419   1.273   3.584   4.589 -0.5851 -1.7080  0.2482
  722MOL0     H97420   1.396   3.644   4.694  0.2799 -4.0927  0.1447
  722MOL0     H97421   1.430   3.477   4.900  0.1433 -2.0119 -2.4523
  722MOL0     H97422   1.180   3.206   5.011 -3.1096  4.1540 -0.6997
  722MOL0     H97423   1.352   3.218   5.050  0.2935  0.0194  0.4738
  722MOL0     H97424   1.293   3.390   5.223 -1.2960  2.5351 -0.6116
  722MOL0     H97425   1.122   3.350   5.190 -0.4232  0.4581 -3.7509
  722MOL0     H97426   1.338   3.155   5.294 -0.4601  1.1052 -1.2772
  722MOL0     H97427   1.170   3.114   5.237 -1.1917 -0.1571 -0.1915
  722MOL0     H97428   1.171   3.117   5.468 -1.1551 -0.1841 -0.9433
  722MOL0     H97429   1.068   3.250   5.400  0.8866  1.8001 -0.1811
  722MOL0     H97430   1.452   3.410   5.429  1.8516  0.8455  0.4078
  722MOL0     H97431   1.673   3.348   5.549 -0.7755  0.4962 -1.4449
  722MOL0     H97432   1.916   3.043   5.856 -0.5123  0.1768 -0.9704
  722MOL0     H97433   2.111   3.015   6.014 -2.6094 -1.4523 -2.0575
  722MOL0     H97434   2.336   3.391   6.143 -1.0355  1.2836  1.9832
  722MOL0     H97435   2.177   3.340   6.210 -0.7693  1.9897 -2.7730
  722MOL0     H97436   2.299   3.203   6.370 -0.3628  1.7781 -0.4556
  722MOL0     H97437   2.430   3.171   6.275  3.1769  1.7222  1.0799
  722MOL0     H97438   2.503   3.426   6.297  0.5917 -1.4661  0.6540
  722MOL0     H97439   2.342   3.443   6.391  0.7720  1.7262  0.3877
  722MOL0     H97440   2.597   3.284   6.443 -2.0580 -2.1656  0.2069
  722MOL0     H97441   2.456   3.272   6.544 -3.0358  1.9991  0.3179
  722MOL0     H97442   2.590   3.432   6.640 -1.0301  1.6630  1.4796
  722MOL0     H97443   2.461   3.525   6.575  1.5825  2.1862  0.4762
  722MOL0     H97444   2.719   3.473   6.437 -0.4805 -1.3093  2.3730
  722MOL0     H97445   2.609   3.607   6.385  1.9828  0.7691 -0.0271
  722MOL0     H97446   2.814   3.658   6.512 -1.0468 -1.0842 -1.8494
  722MOL0     H97447   2.746   3.596   6.664  2.3106 -1.1564 -1.5932
  722MOL0     H97448   2.684   3.855   6.506 -1.5754  1.2294  0.0262
  722MOL0     H97449   2.540   3.778   6.576 -0.2622  0.6868  2.2786
  722MOL0     H97450   2.197   3.444   5.933  1.1485 -0.5587  0.6997
  722MOL0     H97451   1.986   3.460   5.817 -0.7824 -0.1868  1.2001
  722MOL0     H97452   1.456   3.096   5.828 -0.0590 -2.2354 -2.2136
  722MOL0     H97453   1.257   3.143   5.700  0.1517 -0.7006 -2.1380
  722MOL0     H97454   0.722   4.346   4.887 -0.0048  1.3156 -0.4551
  722MOL0     H97455   0.591   4.545   4.856  3.4744  0.5925  2.3223
  722MOL0     H97456   0.442   4.955   5.119 -1.9024 -1.9218  2.1255
  722MOL0     H97457   0.323   5.172   5.052 -0.5436 -0.5408 -0.5817
  722MOL0     H97458   0.058   5.374   4.949  0.2946 -0.0105 -1.4955
  722MOL0     H97459   0.152   5.300   5.083  0.7280 -3.0902 -0.7352
  722MOL0     H97460  -0.061   5.152   5.125 -0.4838 -0.2813 -0.1972
  722MOL0     H97461  -0.142   5.254   5.010 -1.2998  0.9117  1.6828
  722MOL0     H97462  -0.097   5.457   5.146 -2.8380 -0.1401  0.3267
  722MOL0     H97463   0.001   5.374   5.260 -1.6301  0.1859  1.5427
  722MOL0     H97464  -0.297   5.382   5.254 -1.2954 -1.2399  2.8000
  722MOL0     H97465  -0.238   5.217   5.255 -0.4780 -0.2092  0.3780
  722MOL0     H97466  -0.161   5.284   5.646 -1.1881 -5.1277 -1.5887
  722MOL0     H97467   0.031   4.954   4.845 -1.5375  1.8968  3.2981
  722MOL0     H97468   0.131   4.631   4.986  2.5623  0.9300  0.8359
  722MOL0     H97469   0.008   4.723   4.891 -0.5083 -3.2595 -4.3854
  722MOL0     H97470   0.142   4.667   4.806 -1.9241  2.2359 -1.4959
  723MOL0     O97471   3.792   8.896   5.728  0.2714  0.7123 -0.4863
  723MOL0     C97472   3.757   8.868   5.843 -0.3660  0.1031  0.2598
  723MOL0     O97473   3.833   8.879   5.950 -0.0353 -0.1942 -0.4248
  723MOL0     C97474   3.964   8.920   5.935 -0.1016 -0.1132  1.4278
  723MOL0     C97475   4.057   8.818   5.916  0.5747  0.0317  0.7135
  723MOL0     C97476   4.190   8.841   5.878  0.6590 -0.2366  0.4195
  723MOL0     C97477   4.228   8.966   5.880 -0.5908 -0.0587 -0.0804
  723MOL0     O97478   4.368   8.982   5.857 -0.1223 -0.2222 -0.1758
  723MOL0     C97479   4.436   9.114   5.895  0.8270  0.0167  0.9751
  723MOL0     C97480   4.579   9.094   5.875 -1.0426  0.3045  0.2502
  723MOL0     C97481   4.661   9.212   5.915  0.6474  0.5597  0.0213
  723MOL0     C97482   4.803   9.208   5.871  0.0885 -0.7620 -0.4572
  723MOL0     C97483   4.892   9.336   5.884 -0.4783  0.0030 -0.3905
  723MOL0     C97484   5.039   9.305   5.835  0.6331 -0.2699 -0.2211
  723MOL0     C97485   5.105   9.441   5.809 -0.0920  0.2740  0.0192
  723MOL0     C97486   5.253   9.434   5.752  0.7424  0.0272 -0.0796
  723MOL0     N97487   5.351   9.381   5.835  0.0162 -0.4580 -0.2384
  723MOL0     C97488   5.376   9.408   5.969 -0.0848 -0.9067  0.6019
  723MOL0     C97489   5.479   9.340   6.013 -0.0251  0.2398  0.1427
  723MOL0     C97490   5.536   9.359   6.148 -0.5107 -0.4694 -0.8212
  723MOL0     C97491   5.542   9.229   6.225  0.4409 -0.1834  0.6170
  723MOL0     C97492   5.584   9.255   6.371 -0.3511  0.6340 -0.4479
  723MOL0     C97493   5.735   9.223   6.365 -0.5100  0.3275 -0.7138
  723MOL0     O97494   5.782   9.230   6.505  0.1842 -0.6916  1.2675
  723MOL0     C97495   5.922   9.244   6.523  0.1054 -0.1180  0.4760
  723MOL0     C97496   6.030   9.229   6.434  0.1306 -0.6190  0.0585
  723MOL0     C97497   6.163   9.240   6.483 -0.2676 -0.0235  0.4938
  723MOL0     C97498   6.189   9.261   6.618  0.3134  0.1889  0.5724
  723MOL0     C97499   6.334   9.271   6.656 -0.7219  0.1154 -0.7612
  723MOL0     O97500   6.360   9.317   6.791  0.1547  0.1683  0.2169
  723MOL0     C97501   6.486   9.302   6.838  0.1597 -0.3267 -0.1772
  723MOL0     C97502   6.527   9.187   6.902 -0.2987  0.2420  0.3105
  723MOL0     C97503   6.660   9.177   6.965 -0.7454  0.6858  0.4557
  723MOL0     C97504   6.748   9.282   6.941 -0.8262  0.0839 -0.1368
  723MOL0     O97505   6.872   9.265   6.996  0.0407  0.0538 -0.6257
  723MOL0     C97506   6.966   9.377   6.990 -0.1552  0.6428 -0.1353
  723MOL0     C97507   7.103   9.339   7.037 -0.5901 -0.2625 -0.2699
  723MOL0     C97508   7.207   9.453   6.994 -0.7330  0.2307  0.7544
  723MOL0     C97509   7.336   9.414   7.057 -0.2147  0.3536  0.0375
  723MOL0     C97510   7.452   9.494   7.003  0.4213 -0.1184 -0.3906
  723MOL0     C97511   7.580   9.459   7.071 -0.9467 -0.0916 -0.7328
  723MOL0     C97512   7.689   9.555   7.033  0.7592 -0.2120 -0.3475
  723MOL0     C97513   7.728   9.546   6.890 -0.0606 -0.3057  0.5272
  723MOL0    Cl97514   7.835   9.407   6.866  0.4977  0.4710  0.1925
  723MOL0     C97515   6.705   9.397   6.877  0.2349  0.7769 -0.4810
  723MOL0     C97516   6.577   9.410   6.830 -0.5890  0.5454 -0.1388
  723MOL0     O97517   6.423   9.238   6.572  0.2095  0.4462 -0.2531
  723MOL0     C97518   6.078   9.274   6.706 -1.0146 -0.4962 -0.2097
  723MOL0     C97519   5.942   9.271   6.663  0.1501  1.2021 -0.7882
  723MOL0     N97520   5.522   9.255   5.906  0.8099 -0.4423 -0.1823
  723MOL0     N97521   5.442   9.281   5.807 -0.3858 -0.2076 -0.0321
  723MOL0     C97522   4.148   9.078   5.898  0.8837 -0.1420 -0.7014
  723MOL0     C97523   4.009   9.055   5.922 -0.4248 -0.1949  0.0385
  723MOL0     C97524   3.616   8.827   5.881 -0.1578 -0.0631 -0.1766
  723MOL0     C97525   3.564   8.880   6.006 -0.0048  0.2785  0.5481
  723MOL0     C97526   3.440   8.860   6.051  0.0543  0.0776  0.2497
  723MOL0     C97527   3.349   8.795   5.973 -0.5740  0.4707 -0.4978
  723MOL0     O97528   3.225   8.764   6.026  0.0032 -0.7024 -0.0311
  723MOL0     C97529   3.125   8.762   5.934  0.3433  0.4739 -0.4005
  723MOL0     C97530   2.988   8.721   5.995  0.5078 -0.2482 -0.2758
  723MOL0     C97531   2.985   8.570   6.040 -0.1530 -0.6385  1.0195
  723MOL0     C97532   3.001   8.474   5.923  0.0583 -0.1878 -0.5754
  723MOL0     C97533   3.124   8.400   5.909 -0.1804  0.6483  1.0543
  723MOL0     C97534   3.226   8.347   5.872  0.2442  0.2199 -0.6148
  723MOL0     C97535   3.392   8.754   5.841  0.4773  0.0535 -0.0375
  723MOL0     C97536   3.525   8.767   5.789  0.4572 -0.4356 -0.3274
  723MOL0     C97537   3.556   8.741   5.647 -0.3394  0.0725 -0.3627
  723MOL0     H97538   4.020   8.717   5.933  1.3291 -0.7080 -1.6238
  723MOL0     H97539   4.262   8.764   5.849  1.4282  0.9596 -0.9981
  723MOL0     H97540   4.410   9.200   5.832  0.1072  0.4626  1.8467
  723MOL0     H97541   4.422   9.152   5.997  0.7519  1.2051  0.5477
  723MOL0     H97542   4.597   9.062   5.773  2.6805  1.1114  0.5094
  723MOL0     H97543   4.605   9.009   5.939 -0.7970 -1.5094 -2.1200
  723MOL0     H97544   4.657   9.222   6.024  0.4719 -0.2733  0.0949
  723MOL0     H97545   4.624   9.301   5.863 -1.1524 -0.0434  0.1956
  723MOL0     H97546   4.841   9.122   5.927  1.4131 -1.0767 -1.7802
  723MOL0     H97547   4.804   9.180   5.766  0.1484 -0.5146 -0.5229
  723MOL0     H97548   4.848   9.410   5.816 -0.6404  2.0012  1.7626
  723MOL0     H97549   4.895   9.365   5.989  2.2431  0.6542 -0.5715
  723MOL0     H97550   5.104   9.262   5.913  1.0462  1.7241  0.5932
  723MOL0     H97551   5.041   9.254   5.739  0.2918 -0.3540 -0.1819
  723MOL0     H97552   5.112   9.492   5.906 -2.7846  0.8906 -0.0354
  723MOL0     H97553   5.044   9.503   5.742 -2.8084 -1.7683  0.3947
  723MOL0     H97554   5.241   9.371   5.663  0.7798 -0.0901 -0.0015
  723MOL0     H97555   5.282   9.529   5.706  0.0445  0.7560  0.9408
  723MOL0     H97556   5.323   9.478   6.032  0.3070 -0.2135  0.1764
  723MOL0     H97557   5.636   9.403   6.136 -0.7947  0.0096 -1.4745
  723MOL0     H97558   5.473   9.431   6.201 -0.8591  1.2661 -3.4011
  723MOL0     H97559   5.448   9.175   6.219  0.8272 -0.7833 -0.1791
  723MOL0     H97560   5.613   9.166   6.171 -1.1749 -0.1831 -1.6725
  723MOL0     H97561   5.537   9.181   6.436  1.0509 -0.2063 -0.3382
  723MOL0     H97562   5.551   9.349   6.416 -1.4300 -0.5932  1.4532
  723MOL0     H97563   5.790   9.296   6.305  0.9003 -1.2801 -1.4369
  723MOL0     H97564   5.758   9.129   6.314 -2.9141  1.1536 -3.6364
  723MOL0     H97565   6.004   9.211   6.330 -0.5248 -0.1095  0.1283
  723MOL0     H97566   6.247   9.230   6.415  0.4137 -0.1483  1.3392
  723MOL0     H97567   6.465   9.098   6.903  1.3117 -0.9838 -1.2385
  723MOL0     H97568   6.688   9.079   7.004 -0.2502 -0.3074 -2.1991
  723MOL0     H97569   6.979   9.394   6.883 -1.9421  2.4508 -0.1357
  723MOL0     H97570   6.920   9.464   7.037 -0.4201  0.2730  0.3102
  723MOL0     H97571   7.099   9.324   7.145  1.6923 -2.5223 -0.3964
  723MOL0     H97572   7.127   9.247   6.982  1.6164  1.3617 -2.2415
  723MOL0     H97573   7.218   9.461   6.886  0.8945 -0.8375  0.8064
  723MOL0     H97574   7.169   9.548   7.032  1.3487  1.1728  0.6105
  723MOL0     H97575   7.358   9.307   7.055 -0.8396  0.2189 -0.1687
  723MOL0     H97576   7.321   9.443   7.161  0.0026 -2.3213  0.8971
  723MOL0     H97577   7.416   9.594   7.027  0.3961 -0.6662  2.1082
  723MOL0     H97578   7.462   9.482   6.895 -0.6319 -3.3128 -0.2374
  723MOL0     H97579   7.576   9.454   7.180  1.9336 -0.7060 -0.5722
  723MOL0     H97580   7.615   9.358   7.046 -1.7727 -0.8683  1.0710
  723MOL0     H97581   7.768   9.542   7.106 -1.3032 -0.7519  1.9020
  723MOL0     H97582   7.640   9.652   7.047  0.4451 -0.3568 -0.4310
  723MOL0     H97583   7.645   9.546   6.818  1.2828  1.8806 -1.1604
  723MOL0     H97584   7.782   9.637   6.861 -0.6297  0.1864  0.9949
  723MOL0     H97585   6.773   9.480   6.858  1.2719  0.2786  0.9086
  723MOL0     H97586   6.540   9.505   6.794 -1.2791 -0.0507 -1.0338
  723MOL0     H97587   6.090   9.276   6.814 -2.0969 -2.3791 -0.0031
  723MOL0     H97588   5.856   9.277   6.729  0.1161  2.9254 -0.9362
  723MOL0     H97589   4.189   9.178   5.893 -0.0785  0.2903 -0.2712
  723MOL0     H97590   3.938   9.135   5.941 -1.3686 -0.6389 -1.4168
  723MOL0     H97591   3.630   8.942   6.066  1.5137  2.4734 -3.1079
  723MOL0     H97592   3.397   8.892   6.145  0.8843 -0.2123  0.7408
  723MOL0     H97593   3.153   8.686   5.861 -1.2315 -1.7961  1.2147
  723MOL0     H97594   3.126   8.862   5.889 -0.9073  1.4558  1.5761
  723MOL0     H97595   2.912   8.725   5.917  1.3115 -0.8651 -1.1020
  723MOL0     H97596   2.971   8.782   6.085  2.2304  0.6526 -0.5009
  723MOL0     H97597   2.891   8.544   6.091 -1.6101 -0.5608 -1.4622
  723MOL0     H97598   3.055   8.552   6.122 -3.0277  1.1162  4.1224
  723MOL0     H97599   2.927   8.394   5.929 -0.1311 -0.0378 -0.8905
  723MOL0     H97600   2.976   8.523   5.829 -0.4630 -2.6665 -1.8101
  723MOL0     H97601   3.311   8.294   5.834 -0.0240 -0.3264 -0.4609
  723MOL0     H97602   3.327   8.699   5.774 -1.5594  3.8225 -1.4050
  723MOL0     H97603   3.480   8.687   5.589  0.7348 -1.3881 -0.4595
  723MOL0     H97604   3.568   8.841   5.605  1.5139 -0.7002 -1.8485
  723MOL0     H97605   3.650   8.688   5.631  0.5621  1.7369 -0.7386
  724MOL0     O97606  10.798   8.760   4.944 -0.4430  1.0452  0.2656
  724MOL0     C97607  10.732   8.830   5.022  0.2626 -0.0705  0.5382
  724MOL0     O97608  10.787   8.885   5.142  0.5400  0.5967 -0.5581
  724MOL0     C97609  10.895   8.830   5.199 -0.6710  0.1267  0.5861
  724MOL0     C97610  10.923   8.694   5.196 -0.6937 -0.8841  0.8993
  724MOL0     C97611  11.046   8.646   5.244 -1.2241  0.1768 -0.5413
  724MOL0     C97612  11.142   8.729   5.300 -0.1910  0.4647  0.0923
  724MOL0     O97613  11.260   8.670   5.317 -0.3010  0.1178 -0.1474
  724MOL0     C97614  11.377   8.732   5.268  0.7537 -0.7564  0.4329
  724MOL0     C97615  11.491   8.640   5.251 -0.0720  0.8753 -0.9083
  724MOL0     C97616  11.481   8.541   5.132 -0.3367  0.8467 -0.2179
  724MOL0     C97617  11.516   8.608   4.995 -0.3744 -0.1625 -0.6208
  724MOL0     C97618  11.428   8.568   4.874 -1.0354 -0.0880 -0.7800
  724MOL0     C97619  11.281   8.615   4.881  0.2788 -0.0617 -0.7011
  724MOL0     C97620  11.177   8.559   4.782  0.0373  0.1370  0.0275
  724MOL0     C97621  11.052   8.643   4.787 -0.5776 -0.2060 -0.6008
  724MOL0     N97622  10.976   8.644   4.666 -0.7541 -0.0234  0.7192
  724MOL0     C97623  10.907   8.753   4.618  0.5674  0.1198  0.5126
  724MOL0     C97624  10.902   8.741   4.485  0.4485  0.0897  0.3720
  724MOL0     C97625  10.829   8.829   4.388  0.4301 -0.1768  0.1324
  724MOL0     C97626  10.675   8.816   4.387  0.3706  0.2384  0.5109
  724MOL0     C97627  10.626   8.683   4.323 -0.7463 -0.8718 -0.4266
  724MOL0     C97628  10.471   8.687   4.325 -0.4776 -0.1539  0.1923
  724MOL0     O97629  10.433   8.746   4.206 -0.9909 -0.5033 -0.6041
  724MOL0     C97630  10.320   8.701   4.161  0.5979 -0.2714 -0.3018
  724MOL0     C97631  10.200   8.748   4.218  0.2703 -0.1084 -0.4838
  724MOL0     C97632  10.079   8.714   4.152  0.5859  0.5481  0.9220
  724MOL0     C97633  10.077   8.617   4.042  0.7805 -0.0186 -0.0031
  724MOL0     C97634   9.956   8.584   3.975  0.3825 -0.2016  0.3556
  724MOL0     O97635   9.962   8.468   3.882 -0.2410 -0.5814  0.4047
  724MOL0     C97636   9.842   8.426   3.826 -0.1801  0.1557  0.1528
  724MOL0     C97637   9.724   8.390   3.896 -0.1699  0.8153  0.2334
  724MOL0     C97638   9.609   8.362   3.830  0.2260 -0.1114  1.2833
  724MOL0     C97639   9.599   8.352   3.685 -0.3460  0.7407  0.0282
  724MOL0     O97640   9.486   8.310   3.620 -0.0506 -0.6254  0.6847
  724MOL0     C97641   9.492   8.202   3.529 -0.9668  0.3267  0.7089
  724MOL0     C97642   9.343   8.147   3.512 -0.1908 -0.2386 -0.3519
  724MOL0     C97643   9.336   8.058   3.386 -1.1459 -0.3060 -0.0859
  724MOL0     C97644   9.197   8.031   3.342  0.2335  0.4298  0.6454
  724MOL0     C97645   9.171   7.896   3.264 -0.0809  1.1407 -0.6764
  724MOL0     C97646   9.026   7.864   3.254  0.6717  0.8049 -0.0079
  724MOL0     C97647   8.930   7.977   3.204  0.1793  0.4061  0.6069
  724MOL0     C97648   8.784   7.923   3.190 -0.1518  0.5530  0.4802
  724MOL0    Cl97649   8.675   8.055   3.144  0.2178 -0.2785 -0.2990
  724MOL0     C97650   9.720   8.377   3.621 -0.0817  0.0643  0.4157
  724MOL0     C97651   9.833   8.420   3.687 -0.5203  0.6629 -0.2280
  724MOL0     O97652   9.852   8.645   4.005 -0.1739 -0.3535  0.3859
  724MOL0     C97653  10.195   8.572   3.999 -0.5675 -0.0552  0.2405
  724MOL0     C97654  10.313   8.612   4.055 -0.2148 -0.2550  0.1012
  724MOL0     N97655  10.963   8.615   4.448  0.0801  0.2790  0.0576
  724MOL0     N97656  10.997   8.555   4.559  0.1077 -0.6499 -0.4251
  724MOL0     C97657  11.120   8.866   5.299  0.9607  0.4011  0.7192
  724MOL0     C97658  10.995   8.915   5.245 -0.4616  0.5010  0.2660
  724MOL0     C97659  10.581   8.854   4.991  0.1666 -0.1919 -0.3004
  724MOL0     C97660  10.506   8.935   5.078 -0.1513  0.3729 -0.2714
  724MOL0     C97661  10.379   8.981   5.052 -0.2024 -0.5843 -0.1033
  724MOL0     C97662  10.320   8.942   4.927 -1.0442 -0.3761  0.7646
  724MOL0     O97663  10.200   8.990   4.880 -0.3786 -0.1751 -0.0458
  724MOL0     C97664  10.134   9.101   4.939  0.0885 -0.1740 -0.6105
  724MOL0     C97665  10.020   9.155   4.849  0.4670 -0.1403  1.0714
  724MOL0     C97666   9.914   9.056   4.800  0.1104  0.1454  0.1508
  724MOL0     C97667   9.851   9.102   4.664 -0.6919 -0.2849  0.1613
  724MOL0     C97668   9.776   9.227   4.702 -0.0267  0.8469  0.1216
  724MOL0     C97669   9.727   9.334   4.729  0.3690  0.5643 -0.4885
  724MOL0     C97670  10.389   8.859   4.836  0.3300  0.2744 -0.6087
  724MOL0     C97671  10.515   8.806   4.875 -0.2758 -0.1561 -0.2536
  724MOL0     C97672  10.569   8.691   4.789 -0.5961 -0.6150  0.5301
  724MOL0     H97673  10.838   8.631   5.173 -2.2047  0.5021  2.4408
  724MOL0     H97674  11.068   8.540   5.237 -0.4302  0.2913  0.0091
  724MOL0     H97675  11.358   8.787   5.175  2.5826 -0.1510  0.3781
  724MOL0     H97676  11.420   8.800   5.342 -0.3018  0.6763 -0.2214
  724MOL0     H97677  11.520   8.579   5.338  3.0118  4.2436  0.6654
  724MOL0     H97678  11.580   8.700   5.231  0.2897  0.6881  0.0715
  724MOL0     H97679  11.380   8.499   5.131 -1.0085  2.2416  1.7958
  724MOL0     H97680  11.538   8.450   5.152 -0.5026  1.0885  1.5335
  724MOL0     H97681  11.502   8.715   5.013  0.3707 -0.1376 -0.1510
  724MOL0     H97682  11.621   8.593   4.969 -0.0703 -1.0197  1.0008
  724MOL0     H97683  11.463   8.616   4.782 -1.0235  0.7067 -0.3632
  724MOL0     H97684  11.438   8.459   4.861 -2.4142 -0.0987 -2.1370
  724MOL0     H97685  11.243   8.590   4.980  1.1976 -3.0392 -1.0021
  724MOL0     H97686  11.284   8.724   4.871 -1.0297  0.1492  0.8344
  724MOL0     H97687  11.152   8.460   4.820 -2.2888  1.0779  1.1335
  724MOL0     H97688  11.225   8.564   4.684  1.0840  0.4985  0.5408
  724MOL0     H97689  10.988   8.594   4.862 -0.6381 -1.1692 -1.2622
  724MOL0     H97690  11.066   8.747   4.818 -1.3228 -0.1649 -0.3615
  724MOL0     H97691  10.874   8.830   4.686 -0.0309  0.7723 -0.4838
  724MOL0     H97692  10.845   8.936   4.402  0.5760 -0.1116 -0.5026
  724MOL0     H97693  10.870   8.795   4.293 -0.1539 -1.9792  0.4853
  724MOL0     H97694  10.637   8.824   4.490  1.6646 -1.1131  1.1208
  724MOL0     H97695  10.633   8.899   4.330  0.2867 -0.5935 -0.6600
  724MOL0     H97696  10.666   8.599   4.380  1.5712  0.4519 -0.0188
  724MOL0     H97697  10.675   8.684   4.225  0.7895  1.0963  0.3205
  724MOL0     H97698  10.441   8.743   4.414 -1.6093  0.7580 -0.7279
  724MOL0     H97699  10.436   8.583   4.336  0.6814 -0.6594 -0.7347
  724MOL0     H97700  10.191   8.816   4.302  0.5926  1.2883 -1.5234
  724MOL0     H97701   9.984   8.749   4.191 -1.2838 -2.4050 -0.6258
  724MOL0     H97702   9.723   8.401   4.005  0.7410 -0.4168  0.3748
  724MOL0     H97703   9.520   8.328   3.881 -0.8367 -1.6612 -1.3998
  724MOL0     H97704   9.523   8.224   3.426  0.0113 -2.6505  0.2792
  724MOL0     H97705   9.550   8.121   3.574  0.9747 -1.1550 -3.8763
  724MOL0     H97706   9.318   8.100   3.608 -0.4558  3.9734  1.8456
  724MOL0     H97707   9.282   8.235   3.492  2.8049  1.8337 -1.0220
  724MOL0     H97708   9.390   8.097   3.299 -1.5579 -0.0062 -0.2109
  724MOL0     H97709   9.386   7.965   3.415  1.7735  0.8414 -1.1185
  724MOL0     H97710   9.166   8.110   3.273 -0.2647 -1.0357 -0.8625
  724MOL0     H97711   9.129   8.036   3.427 -0.5344  0.2786  0.0504
  724MOL0     H97712   9.215   7.816   3.324  0.3232  2.4811  0.8896
  724MOL0     H97713   9.223   7.894   3.167 -2.0629 -4.4769 -2.0118
  724MOL0     H97714   9.011   7.771   3.199  0.7528 -1.0105  2.7844
  724MOL0     H97715   8.991   7.838   3.355 -1.9928 -0.6018 -1.2147
  724MOL0     H97716   8.963   8.016   3.108 -0.5018 -1.7299 -0.5620
  724MOL0     H97717   8.933   8.067   3.266  1.2535  1.9286 -1.5253
  724MOL0     H97718   8.794   7.849   3.109  4.6783  0.5040  0.8290
  724MOL0     H97719   8.760   7.877   3.286  2.8562  0.3349  1.2258
  724MOL0     H97720   9.726   8.358   3.514 -0.4495 -1.9842  0.7143
  724MOL0     H97721   9.912   8.442   3.616  0.8805 -3.3801 -0.1891
  724MOL0     H97722  10.199   8.501   3.917 -0.8527 -0.0601  0.2307
  724MOL0     H97723  10.400   8.582   3.998  0.6310  1.0070  0.7058
  724MOL0     H97724  11.196   8.937   5.330  1.0910  0.3339  0.5570
  724MOL0     H97725  10.972   9.021   5.255 -1.3965  0.7574 -3.1509
  724MOL0     H97726  10.561   8.974   5.163 -0.8460  1.2175 -0.1962
  724MOL0     H97727  10.324   9.045   5.120 -0.9861 -0.0153 -1.2402
  724MOL0     H97728  10.208   9.179   4.957  0.0510 -0.6927  2.2701
  724MOL0     H97729  10.088   9.080   5.037 -4.2601  0.0354 -2.3620
  724MOL0     H97730  10.068   9.214   4.770  0.9064  1.3611  2.3940
  724MOL0     H97731   9.968   9.228   4.912  2.8618  2.0735  0.6816
  724MOL0     H97732   9.837   9.038   4.876 -0.3404  1.7005  0.0983
  724MOL0     H97733   9.963   8.959   4.788  1.5546  0.7503  0.8094
  724MOL0     H97734   9.932   9.117   4.593 -1.4162 -1.3203 -0.9164
  724MOL0     H97735   9.791   9.020   4.625 -0.9982  0.2072 -0.4106
  724MOL0     H97736   9.685   9.426   4.762  0.4850 -0.3957  2.6359
  724MOL0     H97737  10.336   8.812   4.753  2.8023 -1.9133 -1.0842
  724MOL0     H97738  10.644   8.729   4.719 -1.6166 -0.1275 -0.3291
  724MOL0     H97739  10.613   8.610   4.848  0.6017 -0.1985  0.2189
  724MOL0     H97740  10.489   8.645   4.730 -0.9483  1.2699 -0.5194
  725MOL0     O97741   2.902   1.692   9.191  0.7230 -0.4398 -0.2819
  725MOL0     C97742   2.835   1.775   9.120 -1.0527  0.8492 -0.4982
  725MOL0     O97743   2.896   1.874   9.040 -0.0563 -0.4821 -0.9828
  725MOL0     C97744   3.033   1.873   9.025  0.0669  0.4396 -1.1905
  725MOL0     C97745   3.108   1.998   9.059  0.3993  0.0454 -0.3620
  725MOL0     C97746   3.241   2.006   9.042 -0.4643 -0.4743 -0.1032
  725MOL0     C97747   3.312   1.904   8.990 -0.9695 -0.5245 -0.5773
  725MOL0     O97748   3.450   1.932   8.964 -0.2253 -0.5363 -0.3946
  725MOL0     C97749   3.548   1.840   8.932  0.5556 -1.1924  0.3835
  725MOL0     C97750   3.677   1.917   8.913  0.0823  0.4911 -0.6191
  725MOL0     C97751   3.783   1.804   8.876  0.3192 -0.1264  0.0890
  725MOL0     C97752   3.917   1.884   8.869  0.6270  0.2257 -0.3592
  725MOL0     C97753   4.029   1.777   8.866  0.1066 -0.8286 -0.5204
  725MOL0     C97754   4.170   1.843   8.872  0.2022 -0.4313  0.3940
  725MOL0     C97755   4.210   1.929   8.751  0.2979  0.3925 -0.3584
  725MOL0     C97756   4.316   2.042   8.782  1.2611  0.1895  0.2627
  725MOL0     N97757   4.447   1.968   8.799 -0.3462 -0.7958 -0.4138
  725MOL0     C97758   4.536   1.938   8.703 -0.4387 -0.2941  0.4227
  725MOL0     C97759   4.620   1.847   8.756 -0.7233  0.0835  0.1596
  725MOL0     C97760   4.740   1.790   8.679  0.2965 -0.1662  0.3136
  725MOL0     C97761   4.866   1.819   8.741  0.0762  0.3537 -0.4392
  725MOL0     C97762   4.889   1.726   8.859 -0.6877 -1.3591 -0.5275
  725MOL0     C97763   5.030   1.774   8.920 -0.0872  0.0755 -0.2167
  725MOL0     O97764   5.080   1.680   9.015  0.5572 -0.4275  0.2228
  725MOL0     C97765   5.201   1.700   9.080 -0.0062 -0.7451 -0.6336
  725MOL0     C97766   5.252   1.599   9.148  0.1603  1.1416  0.5784
  725MOL0     C97767   5.364   1.615   9.226 -0.3000 -0.0530  0.2391
  725MOL0     C97768   5.443   1.729   9.226  0.3521  0.7684  0.3693
  725MOL0     C97769   5.558   1.743   9.309  0.3460  0.3372  0.2634
  725MOL0     O97770   5.668   1.793   9.246 -0.1308 -0.2284  0.3339
  725MOL0     C97771   5.785   1.814   9.303 -0.2626 -0.4668 -0.8982
  725MOL0     C97772   5.899   1.811   9.234  0.0746  0.2822  0.0790
  725MOL0     C97773   6.024   1.848   9.280  0.1685 -0.1324 -0.3671
  725MOL0     C97774   6.040   1.889   9.409  0.7942 -0.0372  0.0352
  725MOL0     O97775   6.162   1.940   9.452  0.0761 -0.2117 -0.3572
  725MOL0     C97776   6.176   1.965   9.585 -0.5846 -0.2990 -0.0375
  725MOL0     C97777   6.326   1.981   9.631  0.6350  0.9932 -0.7853
  725MOL0     C97778   6.374   2.104   9.565 -0.0981 -1.1466 -0.0443
  725MOL0     C97779   6.518   2.152   9.618  0.7819  0.0728  0.1035
  725MOL0     C97780   6.542   2.289   9.571  0.8155 -0.2378 -0.4302
  725MOL0     C97781   6.579   2.289   9.431  0.7619 -0.0814  0.2967
  725MOL0     C97782   6.647   2.420   9.389 -0.5207 -0.7583  0.5349
  725MOL0     C97783   6.780   2.444   9.461 -0.4436  0.3536 -0.2837
  725MOL0    Cl97784   6.894   2.310   9.431  0.1054  0.0750 -0.3829
  725MOL0     C97785   5.920   1.903   9.485 -0.7229 -0.1091  1.0720
  725MOL0     C97786   5.799   1.864   9.435 -0.0333  0.0457 -0.2947
  725MOL0     O97787   5.554   1.689   9.419  0.2570  0.5646 -0.8553
  725MOL0     C97788   5.404   1.836   9.135 -0.8225 -0.5700  0.1188
  725MOL0     C97789   5.280   1.817   9.064 -0.2749 -0.4207  0.6897
  725MOL0     N97790   4.590   1.832   8.889  0.1946  0.4820 -0.3778
  725MOL0     N97791   4.489   1.910   8.916  0.1652  0.3695 -0.0469
  725MOL0     C97792   3.251   1.782   8.962  0.3169  0.4484  0.3274
  725MOL0     C97793   3.119   1.773   8.988 -0.1451 -0.3558  0.3624
  725MOL0     C97794   2.690   1.788   9.152  0.7821  0.2050 -0.1398
  725MOL0     C97795   2.630   1.915   9.136  0.6410  0.1921 -0.5864
  725MOL0     C97796   2.493   1.927   9.171 -0.9678 -0.7777  0.5861
  725MOL0     C97797   2.416   1.817   9.218  0.4903  0.6939  0.7637
  725MOL0     O97798   2.282   1.821   9.256 -0.3553  1.2156  0.1734
  725MOL0     C97799   2.216   1.947   9.262  0.6050 -0.6318  0.0245
  725MOL0     C97800   2.064   1.904   9.275  0.1708 -0.0750 -0.1293
  725MOL0     C97801   1.958   2.016   9.281  0.3232  1.1007  0.3068
  725MOL0     C97802   1.816   1.968   9.255  0.1316 -0.4823  0.1037
  725MOL0     C97803   1.799   1.945   9.107  0.1663 -0.2676 -0.2908
  725MOL0     C97804   1.778   1.904   8.996  0.0500  0.0202 -0.5237
  725MOL0     C97805   2.472   1.690   9.240 -0.6363 -0.1680 -0.2059
  725MOL0     C97806   2.614   1.670   9.205  0.1110 -0.3007  0.1541
  725MOL0     C97807   2.668   1.535   9.236 -0.1378  0.0888 -0.6388
  725MOL0     H97808   3.051   2.079   9.102  0.7989  0.4884 -0.6581
  725MOL0     H97809   3.287   2.101   9.067  1.1776 -1.1321 -0.4710
  725MOL0     H97810   3.549   1.777   9.022 -2.3576  1.8885  2.8747
  725MOL0     H97811   3.520   1.774   8.850  3.8628 -1.1190 -0.9734
  725MOL0     H97812   3.708   1.967   9.004  1.7541  0.4041 -1.1003
  725MOL0     H97813   3.670   2.004   8.848  0.2309  2.4972  1.9128
  725MOL0     H97814   3.751   1.761   8.780 -3.4207 -1.0128  1.5482
  725MOL0     H97815   3.787   1.728   8.955  0.3907  1.2299  1.4391
  725MOL0     H97816   3.906   1.949   8.782  0.9823  1.6395  0.6169
  725MOL0     H97817   3.931   1.943   8.960  0.2926  0.0085 -0.1642
  725MOL0     H97818   4.022   1.710   8.952 -1.3425 -2.0590 -1.5554
  725MOL0     H97819   4.019   1.716   8.776 -0.7105 -2.3429  0.5534
  725MOL0     H97820   4.175   1.906   8.961 -3.1156  0.4090  0.1006
  725MOL0     H97821   4.240   1.759   8.880  1.1235  0.3617  0.9102
  725MOL0     H97822   4.121   1.981   8.716 -0.7700 -1.3897 -0.3938
  725MOL0     H97823   4.259   1.863   8.678  2.1322 -1.8095  2.6620
  725MOL0     H97824   4.334   2.109   8.697  1.4612  0.0187  0.1714
  725MOL0     H97825   4.303   2.098   8.875  5.4214  1.9875  0.0137
  725MOL0     H97826   4.548   1.980   8.604 -2.0810  3.0853  1.4815
  725MOL0     H97827   4.724   1.682   8.678 -1.6999  0.0360  2.1331
  725MOL0     H97828   4.735   1.823   8.574 -2.4454 -0.7871  0.1824
  725MOL0     H97829   4.952   1.805   8.675 -0.3865  3.5609 -1.9090
  725MOL0     H97830   4.870   1.918   8.787 -0.5575  0.8299 -1.3711
  725MOL0     H97831   4.899   1.625   8.818 -0.3447 -1.4440 -0.2383
  725MOL0     H97832   4.809   1.729   8.933 -0.5099 -1.1868 -0.3404
  725MOL0     H97833   5.035   1.878   8.954 -0.8132  0.3332 -0.8764
  725MOL0     H97834   5.109   1.779   8.845 -0.2368  3.9982 -0.3343
  725MOL0     H97835   5.183   1.517   9.162  0.3595  1.4688  4.6722
  725MOL0     H97836   5.403   1.529   9.279  3.3418  0.0079 -2.0088
  725MOL0     H97837   5.899   1.779   9.130  0.1061  3.0631 -0.8762
  725MOL0     H97838   6.116   1.850   9.223  1.3141  1.5138  1.4183
  725MOL0     H97839   6.124   2.058   9.608  0.2702  0.1525  0.1380
  725MOL0     H97840   6.137   1.883   9.646  1.6680 -2.1105 -0.8814
  725MOL0     H97841   6.316   1.987   9.740 -1.4570 -1.1378 -0.7746
  725MOL0     H97842   6.391   1.899   9.602 -0.0019  0.3128 -0.3180
  725MOL0     H97843   6.378   2.095   9.456  0.4176 -2.1698  0.0452
  725MOL0     H97844   6.299   2.178   9.594  0.1907  0.4947 -3.0700
  725MOL0     H97845   6.599   2.096   9.571  0.2125 -1.4979  0.9228
  725MOL0     H97846   6.515   2.152   9.728 -1.5936 -0.9780  0.0994
  725MOL0     H97847   6.625   2.319   9.636  1.2478 -0.3255 -0.9408
  725MOL0     H97848   6.460   2.360   9.585  1.8553  1.3718 -2.1281
  725MOL0     H97849   6.657   2.216   9.409  0.1600 -1.5503  2.5793
  725MOL0     H97850   6.495   2.276   9.361  2.5178 -1.7726 -1.6453
  725MOL0     H97851   6.598   2.513   9.419  0.4000  0.7606 -2.2834
  725MOL0     H97852   6.658   2.421   9.280  1.1369 -2.2249  0.6448
  725MOL0     H97853   6.811   2.543   9.426 -3.0915  0.8235 -1.5654
  725MOL0     H97854   6.761   2.452   9.569  1.7048  0.9400  0.0887
  725MOL0     H97855   5.923   1.946   9.584 -0.0976 -0.1185  1.0642
  725MOL0     H97856   5.720   1.876   9.508  0.7800  0.6181  0.5017
  725MOL0     H97857   5.457   1.930   9.132  0.9397 -1.5225 -3.5762
  725MOL0     H97858   5.248   1.893   8.994  0.9686  2.2429  2.8265
  725MOL0     H97859   3.302   1.706   8.902 -0.5519 -0.2751  0.4786
  725MOL0     H97860   3.075   1.677   8.963  0.3186  0.0860 -2.4596
  725MOL0     H97861   2.683   2.003   9.102 -0.4594  0.1136 -2.7069
  725MOL0     H97862   2.442   2.022   9.162 -2.7268 -1.3683  3.2729
  725MOL0     H97863   2.220   1.996   9.165 -0.0991 -1.6718 -0.5521
  725MOL0     H97864   2.242   2.017   9.342 -0.6145  1.8999 -1.7005
  725MOL0     H97865   2.061   1.844   9.367 -2.1809  1.0896  0.6216
  725MOL0     H97866   2.051   1.838   9.188 -0.9600  2.2718 -1.8450
  725MOL0     H97867   1.981   2.099   9.214  1.3458 -0.6373 -1.6136
  725MOL0     H97868   1.944   2.067   9.377 -1.5953  2.1515 -0.4702
  725MOL0     H97869   1.797   1.875   9.310  2.5566 -2.0941 -1.5890
  725MOL0     H97870   1.750   2.048   9.289  0.7492 -0.9222  2.5619
  725MOL0     H97871   1.758   1.855   8.903  0.1002  1.5363 -1.3607
  725MOL0     H97872   2.418   1.610   9.289 -0.2654 -1.6314 -2.0620
  725MOL0     H97873   2.749   1.529   9.310 -0.7500  2.1634  0.2626
  725MOL0     H97874   2.594   1.462   9.271 -0.1406  0.1868 -0.4412
  725MOL0     H97875   2.709   1.513   9.137 -1.2506 -0.0723 -1.0738
  726MOL0     O97876   6.712   4.737   2.861 -0.0662  0.5483 -0.8240
  726MOL0     C97877   6.632   4.789   2.781  0.7591 -0.0482 -0.1247
  726MOL0     O97878   6.650   4.796   2.645  0.4841  0.0880 -0.4143
  726MOL0     C97879   6.779   4.770   2.590  0.3561 -0.5425  0.3663
  726MOL0     C97880   6.900   4.820   2.645  0.9625  0.3847 -1.0341
  726MOL0     C97881   7.020   4.785   2.584  0.8221 -0.1833 -0.0071
  726MOL0     C97882   7.020   4.714   2.467 -0.7025 -0.2431 -0.0962
  726MOL0     O97883   7.146   4.687   2.424 -0.3940  0.2875 -0.8676
  726MOL0     C97884   7.157   4.665   2.287 -0.7058 -0.5346 -0.8490
  726MOL0     C97885   7.306   4.672   2.238 -0.1597 -0.5359  0.3485
  726MOL0     C97886   7.385   4.548   2.263  0.4455  0.5125 -0.0764
  726MOL0     C97887   7.537   4.555   2.228  0.0732  0.1526 -0.0834
  726MOL0     C97888   7.615   4.427   2.277 -0.2855 -0.4466 -0.4175
  726MOL0     C97889   7.544   4.294   2.259  0.4958  0.4077 -0.8152
  726MOL0     C97890   7.631   4.185   2.313  0.7051 -0.0172 -0.5016
  726MOL0     C97891   7.555   4.051   2.303 -0.7714  0.3337 -0.2064
  726MOL0     N97892   7.633   3.948   2.363 -0.8068  0.3696  0.2831
  726MOL0     C97893   7.587   3.846   2.447 -0.2870  0.3949 -0.0080
  726MOL0     C97894   7.690   3.766   2.479  0.7923 -0.1743 -0.2773
  726MOL0     C97895   7.683   3.644   2.566 -1.1929 -0.6904  0.5426
  726MOL0     C97896   7.542   3.584   2.586  0.2167  0.0321 -0.2448
  726MOL0     C97897   7.552   3.469   2.695  0.8136  0.4277  0.8822
  726MOL0     C97898   7.444   3.466   2.791 -0.2037  0.4102  0.1876
  726MOL0     O97899   7.315   3.497   2.734 -0.9624 -0.7174  0.9244
  726MOL0     C97900   7.196   3.460   2.793 -0.1246  0.7702 -0.1652
  726MOL0     C97901   7.084   3.483   2.708  0.1752  1.4257  0.2464
  726MOL0     C97902   6.955   3.461   2.746 -0.5398 -0.0339 -0.8576
  726MOL0     C97903   6.925   3.411   2.879 -0.1704  0.6132 -0.3047
  726MOL0     C97904   6.787   3.378   2.914 -0.6149 -0.7437 -0.2914
  726MOL0     O97905   6.770   3.359   3.048 -1.4148 -0.5609 -0.4331
  726MOL0     C97906   6.641   3.341   3.099 -0.4599 -0.4436  1.1149
  726MOL0     C97907   6.564   3.441   3.148  0.5405 -0.1958 -0.0763
  726MOL0     C97908   6.429   3.419   3.184 -0.1174 -0.4031  0.8373
  726MOL0     C97909   6.383   3.285   3.185 -0.3675 -0.5416  0.1915
  726MOL0     O97910   6.262   3.243   3.223  0.7815  0.9794  0.1492
  726MOL0     C97911   6.146   3.339   3.228 -0.4066 -0.3803 -0.8469
  726MOL0     C97912   6.066   3.361   3.096  0.2656 -0.2587  0.7824
  726MOL0     C97913   5.924   3.418   3.114  0.2181  0.4743 -0.5611
  726MOL0     C97914   5.819   3.306   3.129  1.3737  0.6309 -0.1382
  726MOL0     C97915   5.684   3.357   3.191  0.6254 -0.0749  0.4304
  726MOL0     C97916   5.575   3.249   3.193 -0.7517  0.9706  0.0947
  726MOL0     C97917   5.429   3.300   3.225 -0.0825 -0.0200  0.1145
  726MOL0     C97918   5.417   3.410   3.328 -0.3647 -0.3194 -0.1993
  726MOL0    Cl97919   5.241   3.406   3.358 -0.5701  0.4583 -0.4635
  726MOL0     C97920   6.471   3.183   3.136  0.0030  0.4548  0.0359
  726MOL0     C97921   6.598   3.209   3.090  0.6162 -0.2510 -0.1470
  726MOL0     O97922   6.698   3.384   2.836 -0.5820 -0.4264  0.2843
  726MOL0     C97923   7.034   3.378   2.962  0.5149  0.1435  1.2357
  726MOL0     C97924   7.167   3.402   2.922 -0.1970 -1.6186  0.3215
  726MOL0     N97925   7.798   3.804   2.398 -0.1269 -0.1672 -0.8812
  726MOL0     N97926   7.767   3.911   2.328  0.0546  0.3615  0.1355
  726MOL0     C97927   6.901   4.657   2.420 -0.3696 -0.1002 -0.3233
  726MOL0     C97928   6.775   4.689   2.482 -0.0559  0.8606 -0.3239
  726MOL0     C97929   6.501   4.830   2.830 -0.0088  0.1914  0.2407
  726MOL0     C97930   6.434   4.766   2.932  0.4697  1.3788 -0.5631
  726MOL0     C97931   6.310   4.809   2.984 -1.2369 -1.5464  0.3830
  726MOL0     C97932   6.253   4.924   2.925  0.6929 -0.4485 -0.4494
  726MOL0     O97933   6.133   4.966   2.982  0.0147  0.0891  0.2349
  726MOL0     C97934   6.057   5.064   2.908  0.4068  0.2644 -0.8429
  726MOL0     C97935   5.912   5.073   2.965 -0.3129 -0.9911 -0.7493
  726MOL0     C97936   5.873   4.932   2.979  0.3589 -0.1783 -0.0081
  726MOL0     C97937   5.721   4.932   2.977  0.4357  0.5298 -0.4491
  726MOL0     C97938   5.662   5.033   3.071  0.3582  0.2949 -0.0731
  726MOL0     C97939   5.627   5.135   3.131 -0.0429  0.7183 -1.0485
  726MOL0     C97940   6.332   4.999   2.834  0.8535 -0.2265 -0.1401
  726MOL0     C97941   6.455   4.953   2.783  0.5170 -0.3524 -1.1693
  726MOL0     C97942   6.547   5.056   2.715 -0.0019 -1.0089  0.8778
  726MOL0     H97943   6.886   4.875   2.737 -0.6291 -1.0251 -0.3897
  726MOL0     H97944   7.113   4.818   2.628  0.0840 -0.7666  2.1505
  726MOL0     H97945   7.112   4.569   2.260  0.3449 -0.9370 -1.2346
  726MOL0     H97946   7.093   4.744   2.244 -0.5871  1.3734  2.1957
  726MOL0     H97947   7.359   4.757   2.283  1.4674 -1.8224  0.9544
  726MOL0     H97948   7.305   4.683   2.129  0.8198 -1.0281  0.2854
  726MOL0     H97949   7.343   4.468   2.200 -1.3039  0.0921  1.5446
  726MOL0     H97950   7.377   4.524   2.369  2.4509  1.1712  0.2683
  726MOL0     H97951   7.561   4.559   2.121  2.5481 -0.7304  0.3949
  726MOL0     H97952   7.570   4.644   2.281 -2.3431  0.7733  0.5294
  726MOL0     H97953   7.714   4.423   2.230  0.1883  0.1793  0.4903
  726MOL0     H97954   7.643   4.441   2.382 -1.0971 -2.0714  0.0412
  726MOL0     H97955   7.445   4.284   2.305 -0.5492 -0.8308 -3.0938
  726MOL0     H97956   7.536   4.276   2.151  1.1722 -2.8919 -0.4296
  726MOL0     H97957   7.651   4.211   2.418 -2.0219  1.0380 -0.1341
  726MOL0     H97958   7.726   4.173   2.262  0.1076 -0.8836 -1.4517
  726MOL0     H97959   7.458   4.050   2.354 -0.0202  0.1935  1.2836
  726MOL0     H97960   7.539   4.031   2.196 -1.2278 -1.0509  0.1029
  726MOL0     H97961   7.485   3.845   2.485 -0.1147  0.2732  0.4608
  726MOL0     H97962   7.754   3.568   2.531 -1.6993 -0.1359 -1.9049
  726MOL0     H97963   7.725   3.671   2.664  0.9265 -1.0537 -0.2003
  726MOL0     H97964   7.474   3.664   2.616  0.7884  0.4556 -0.0565
  726MOL0     H97965   7.510   3.556   2.485 -0.2237 -1.3184  0.2540
  726MOL0     H97966   7.647   3.471   2.748  1.9406  1.1987 -1.0611
  726MOL0     H97967   7.546   3.377   2.636 -1.7484  0.8196  0.3910
  726MOL0     H97968   7.459   3.535   2.875  2.2641 -0.6790  0.7307
  726MOL0     H97969   7.442   3.368   2.840  1.3246 -1.5626 -3.3101
  726MOL0     H97970   7.096   3.525   2.608 -3.3270 -2.5372 -2.1282
  726MOL0     H97971   6.867   3.479   2.685 -1.9836 -0.3257  1.0612
  726MOL0     H97972   6.613   3.536   3.164 -0.4993  0.1470  1.2020
  726MOL0     H97973   6.362   3.497   3.219 -0.7953 -0.1743 -0.9042
  726MOL0     H97974   6.076   3.279   3.288  1.0615 -1.0051  0.3045
  726MOL0     H97975   6.171   3.427   3.287  2.0537  0.0855 -2.4541
  726MOL0     H97976   6.125   3.428   3.032  0.9836 -0.4764  1.2043
  726MOL0     H97977   6.063   3.264   3.045 -3.4931  0.3609 -0.4786
  726MOL0     H97978   5.924   3.478   3.206 -1.9204  1.0972 -0.9061
  726MOL0     H97979   5.884   3.481   3.034 -0.2771 -1.9013 -2.2712
  726MOL0     H97980   5.861   3.232   3.197  2.2755  0.2072 -1.1184
  726MOL0     H97981   5.798   3.253   3.035  1.2611  1.2829 -0.4885
  726MOL0     H97982   5.644   3.443   3.137 -0.9797  0.8068  2.8390
  726MOL0     H97983   5.708   3.399   3.289  0.7625 -0.8436  0.7412
  726MOL0     H97984   5.567   3.184   3.105  1.1647 -0.2674  0.7863
  726MOL0     H97985   5.603   3.180   3.273  3.7462  2.4434  0.0642
  726MOL0     H97986   5.366   3.213   3.249 -2.1123  1.5052  0.6068
  726MOL0     H97987   5.386   3.346   3.136 -1.2444 -0.2863  0.5210
  726MOL0     H97988   5.474   3.390   3.420 -0.8101  3.5368  1.0816
  726MOL0     H97989   5.432   3.512   3.292 -2.2303 -0.1581 -0.6216
  726MOL0     H97990   6.442   3.079   3.123  0.4544  0.4110 -0.6933
  726MOL0     H97991   6.660   3.127   3.057  0.7892 -1.2645  2.4633
  726MOL0     H97992   7.017   3.337   3.061 -0.1326  2.1299  2.0014
  726MOL0     H97993   7.251   3.375   2.985  1.6729 -0.4214 -1.5574
  726MOL0     H97994   6.898   4.581   2.343 -0.5637 -1.2716  0.8128
  726MOL0     H97995   6.686   4.652   2.430  1.8411  2.6831 -5.4583
  726MOL0     H97996   6.465   4.680   2.991 -2.1369  0.3853 -0.5169
  726MOL0     H97997   6.272   4.754   3.069  0.5051 -1.0034  1.5822
  726MOL0     H97998   6.045   5.042   2.801 -2.5897 -2.6721 -0.0644
  726MOL0     H97999   6.107   5.162   2.908  1.0261  0.0764  2.8854
  726MOL0     H98000   5.845   5.120   2.891 -1.4108 -3.3372 -1.3581
  726MOL0     H98001   5.908   5.116   3.065  2.0988 -0.0949 -0.9760
  726MOL0     H98002   5.911   4.894   3.074 -1.4585 -1.3959  0.2762
  726MOL0     H98003   5.919   4.870   2.901  0.7666 -1.2993  1.1007
  726MOL0     H98004   5.681   4.955   2.878  0.5829  2.4098 -0.1047
  726MOL0     H98005   5.679   4.841   3.022 -2.7447  1.7787 -0.6447
  726MOL0     H98006   5.597   5.229   3.174  0.2840 -0.5598  2.2040
  726MOL0     H98007   6.315   5.104   2.817 -1.4014 -0.9275 -2.9723
  726MOL0     H98008   6.533   5.054   2.606  0.3875 -2.4175  0.8362
  726MOL0     H98009   6.544   5.160   2.749  2.6570 -1.0565  1.4536
  726MOL0     H98010   6.652   5.033   2.737  1.2547  2.3719 -0.8837
  727MOL0     O98011   8.476   4.736   4.486  0.8145  0.0885 -0.2653
  727MOL0     C98012   8.595   4.750   4.494 -0.5630  0.2891 -0.9480
  727MOL0     O98013   8.664   4.862   4.465 -0.0352  0.2244  0.2288
  727MOL0     C98014   8.601   4.971   4.411  0.1339 -0.0537 -0.2629
  727MOL0     C98015   8.651   5.092   4.449 -0.3516 -0.4383  0.0516
  727MOL0     C98016   8.605   5.209   4.402  0.9022  0.6566  0.2017
  727MOL0     C98017   8.505   5.206   4.300  0.1638 -0.3976  0.3940
  727MOL0     O98018   8.461   5.335   4.261 -0.3015 -0.1107  0.2126
  727MOL0     C98019   8.365   5.339   4.153 -0.2116 -0.6054  0.6820
  727MOL0     C98020   8.220   5.335   4.205 -0.6260 -0.8697  0.2601
  727MOL0     C98021   8.129   5.431   4.125  0.1148 -0.3770 -0.6385
  727MOL0     C98022   7.987   5.413   4.166  1.0790 -0.6258  0.3908
  727MOL0     C98023   7.884   5.521   4.129  0.0105  0.6969  0.1435
  727MOL0     C98024   7.881   5.554   3.988  0.3712 -1.2351  0.1051
  727MOL0     C98025   7.849   5.447   3.888 -0.0664 -0.7820 -0.7501
  727MOL0     C98026   7.872   5.490   3.742 -0.2159 -0.5217  0.5356
  727MOL0     N98027   8.003   5.540   3.704  0.4854 -0.6512 -0.6144
  727MOL0     C98028   8.127   5.484   3.745 -0.4529 -0.3982 -0.2193
  727MOL0     C98029   8.219   5.570   3.688 -0.5430  0.3640 -0.1235
  727MOL0     C98030   8.374   5.565   3.706  0.2829 -0.0436  0.1537
  727MOL0     C98031   8.404   5.639   3.841  0.7222 -0.2967  0.2681
  727MOL0     C98032   8.558   5.629   3.843  0.5591  0.5154 -0.4998
  727MOL0     C98033   8.612   5.698   3.969  0.0197 -0.7621 -0.0462
  727MOL0     O98034   8.751   5.670   3.987 -0.1309 -0.4019  0.8446
  727MOL0     C98035   8.803   5.545   4.024  0.7201 -0.3263  0.5284
  727MOL0     C98036   8.942   5.539   4.035  0.0698 -0.3349 -0.4207
  727MOL0     C98037   9.009   5.423   4.077  0.2123  0.3197  0.1507
  727MOL0     C98038   8.939   5.308   4.123 -0.2095  0.3903 -0.5323
  727MOL0     C98039   9.015   5.183   4.166  0.4856 -0.1886  0.0601
  727MOL0     O98040   8.938   5.094   4.224 -0.0976  0.0552 -0.5088
  727MOL0     C98041   8.975   4.966   4.253  0.3188 -0.3890 -0.9290
  727MOL0     C98042   8.887   4.859   4.242 -0.5864  0.1855 -0.0128
  727MOL0     C98043   8.930   4.725   4.271 -0.2441 -0.1009 -0.4127
  727MOL0     C98044   9.063   4.698   4.320 -0.5725 -0.2294  0.3983
  727MOL0     O98045   9.117   4.580   4.359 -0.2171 -1.1696  0.0305
  727MOL0     C98046   9.036   4.463   4.331  0.1136 -0.1294 -0.5260
  727MOL0     C98047   9.061   4.426   4.189 -0.1057  0.2042  0.8333
  727MOL0     C98048   9.212   4.394   4.166  0.6459 -0.0814  0.0397
  727MOL0     C98049   9.232   4.314   4.039 -0.3759  0.1634  1.4087
  727MOL0     C98050   9.380   4.336   4.012 -0.9388  0.3943 -0.2563
  727MOL0     C98051   9.415   4.256   3.887 -0.9629 -0.9725 -0.2126
  727MOL0     C98052   9.563   4.295   3.835  0.5212  0.6319  0.3278
  727MOL0     C98053   9.607   4.189   3.736 -0.0488  0.4685  0.1205
  727MOL0    Cl98054   9.623   4.021   3.800  0.6053 -0.0795  0.1823
  727MOL0     C98055   9.146   4.809   4.328  0.1043 -0.2624  0.0059
  727MOL0     C98056   9.100   4.938   4.308  0.6533 -0.0491  0.3118
  727MOL0     O98057   9.135   5.163   4.131  0.0955 -0.3097  0.7912
  727MOL0     C98058   8.799   5.316   4.107  1.2119  0.6669  0.1918
  727MOL0     C98059   8.732   5.430   4.059  0.3730 -0.1758  0.0567
  727MOL0     N98060   8.160   5.676   3.622 -0.6307  0.0479 -0.2567
  727MOL0     N98061   8.031   5.658   3.635 -0.0700  0.4386  0.4944
  727MOL0     C98062   8.468   5.080   4.252 -0.4574 -0.6796 -0.4085
  727MOL0     C98063   8.515   4.964   4.302  0.0696 -0.0785  0.8522
  727MOL0     C98064   8.676   4.638   4.547 -0.2891  0.5789  0.0347
  727MOL0     C98065   8.797   4.676   4.612  0.4777 -1.0259  0.0061
  727MOL0     C98066   8.883   4.578   4.658 -0.0839 -0.9747  0.2617
  727MOL0     C98067   8.847   4.442   4.657 -0.3400 -0.5748 -0.0762
  727MOL0     O98068   8.929   4.341   4.714  0.6945 -0.4868 -0.1431
  727MOL0     C98069   9.040   4.361   4.794  0.0872  0.1625 -0.7059
  727MOL0     C98070   9.178   4.331   4.717  0.5419 -0.5803  0.7915
  727MOL0     C98071   9.284   4.423   4.776 -0.6423  0.0517 -0.0622
  727MOL0     C98072   9.419   4.411   4.710 -0.7048 -0.1841 -0.6691
  727MOL0     C98073   9.439   4.488   4.595  0.9762 -0.6555 -0.0497
  727MOL0     C98074   9.462   4.563   4.504  0.1766  0.8775 -0.3741
  727MOL0     C98075   8.735   4.403   4.590  0.4110  0.6279 -0.7764
  727MOL0     C98076   8.645   4.499   4.538  0.1988 -0.5990 -0.1672
  727MOL0     C98077   8.512   4.440   4.476 -0.7589  0.0744  0.0115
  727MOL0     H98078   8.727   5.086   4.527 -3.2091 -1.3292  2.9735
  727MOL0     H98079   8.644   5.297   4.452  2.4635 -0.5348  1.1571
  727MOL0     H98080   8.378   5.435   4.104 -2.8655  0.5859  2.1129
  727MOL0     H98081   8.384   5.267   4.073  1.5742 -0.1681  0.6826
  727MOL0     H98082   8.230   5.381   4.304  1.7686  1.9495 -1.1378
  727MOL0     H98083   8.182   5.234   4.188 -0.3961 -0.9018 -0.0589
  727MOL0     H98084   8.143   5.411   4.019  0.8877 -0.9003 -0.4503
  727MOL0     H98085   8.166   5.531   4.152  0.7507 -1.0132  1.0214
  727MOL0     H98086   7.949   5.323   4.116 -2.9739  1.7024 -1.2523
  727MOL0     H98087   7.989   5.395   4.274  0.6419 -4.5099 -0.1156
  727MOL0     H98088   7.781   5.490   4.150  0.5678 -1.2176  0.2560
  727MOL0     H98089   7.913   5.603   4.195  1.4977 -1.3643  2.2163
  727MOL0     H98090   7.807   5.634   4.000  2.1857  0.8888 -1.9364
  727MOL0     H98091   7.975   5.605   3.968  0.6460 -1.3483  1.0810
  727MOL0     H98092   7.744   5.420   3.900 -0.0851 -0.4053 -0.0488
  727MOL0     H98093   7.919   5.369   3.921  0.9756  1.0400  1.6409
  727MOL0     H98094   7.863   5.403   3.677 -1.7162  0.9282 -1.3513
  727MOL0     H98095   7.794   5.566   3.724  0.9378  1.1324  2.0875
  727MOL0     H98096   8.162   5.399   3.804 -1.0526 -0.7580 -0.3776
  727MOL0     H98097   8.399   5.460   3.718 -1.5623 -0.3229  2.1836
  727MOL0     H98098   8.430   5.622   3.631 -0.0486  1.4443  0.9917
  727MOL0     H98099   8.363   5.740   3.834  1.5068  0.3731  3.6758
  727MOL0     H98100   8.362   5.588   3.927 -1.6003 -0.8601 -1.1037
  727MOL0     H98101   8.598   5.667   3.748  2.0806 -0.5198 -0.3188
  727MOL0     H98102   8.587   5.524   3.840 -1.5092 -0.0646 -1.6609
  727MOL0     H98103   8.556   5.657   4.054 -3.9442 -1.7533 -2.8596
  727MOL0     H98104   8.602   5.806   3.956 -2.4970 -0.8412  0.5666
  727MOL0     H98105   8.991   5.631   4.005 -2.2675  0.5077 -1.9120
  727MOL0     H98106   9.118   5.419   4.077  0.3167 -1.0460 -4.0739
  727MOL0     H98107   8.790   4.893   4.207 -0.0869  0.2003 -1.4543
  727MOL0     H98108   8.861   4.644   4.247 -1.3860  1.5911 -3.4470
  727MOL0     H98109   9.067   4.383   4.399  0.5873  1.5436  1.3315
  727MOL0     H98110   8.929   4.471   4.350  0.5360  0.7849  1.7826
  727MOL0     H98111   9.007   4.333   4.173 -0.4403  0.5218  0.0128
  727MOL0     H98112   9.028   4.508   4.124  1.7207  1.0490  0.9149
  727MOL0     H98113   9.273   4.485   4.165  0.3446  0.1661  1.4181
  727MOL0     H98114   9.247   4.330   4.248 -1.2293 -3.4102 -1.5672
  727MOL0     H98115   9.170   4.358   3.959  1.0976  0.9225  0.6471
  727MOL0     H98116   9.206   4.208   4.047  1.6500 -0.3702  1.2831
  727MOL0     H98117   9.452   4.320   4.093  0.0856  2.9451 -0.5674
  727MOL0     H98118   9.393   4.441   3.982  1.3587  0.6186  1.2468
  727MOL0     H98119   9.409   4.154   3.926 -4.5699  0.2138  3.0357
  727MOL0     H98120   9.334   4.273   3.815  0.6702 -0.1175 -1.9089
  727MOL0     H98121   9.635   4.297   3.917  0.3793 -1.1272  0.5389
  727MOL0     H98122   9.571   4.386   3.775  0.2930  0.3350 -0.1679
  727MOL0     H98123   9.529   4.185   3.660  0.3850 -0.0322 -0.3114
  727MOL0     H98124   9.706   4.219   3.699  0.0616  1.1241  0.9105
  727MOL0     H98125   9.250   4.798   4.357 -0.3012 -1.5615  1.0722
  727MOL0     H98126   9.176   5.012   4.330  2.6365 -2.0224  0.4297
  727MOL0     H98127   8.745   5.225   4.131  1.6916 -0.1259 -1.5912
  727MOL0     H98128   8.625   5.435   4.042  0.8725  1.5467 -3.3515
  727MOL0     H98129   8.388   5.066   4.180 -1.5094  1.6670  0.2228
  727MOL0     H98130   8.468   4.867   4.285  2.6562 -1.3147  0.3660
  727MOL0     H98131   8.838   4.776   4.614  3.1291 -2.0292  0.6838
  727MOL0     H98132   8.976   4.616   4.698  0.5040 -1.4118 -0.6634
  727MOL0     H98133   9.037   4.291   4.877  0.5324  1.3740  0.3770
  727MOL0     H98134   9.028   4.467   4.820 -1.4733  0.2292 -1.5812
  727MOL0     H98135   9.175   4.358   4.611 -1.2387 -0.7491  0.7755
  727MOL0     H98136   9.198   4.224   4.730  0.0303 -0.7907 -0.0749
  727MOL0     H98137   9.299   4.371   4.872 -0.5600  1.4897  0.7332
  727MOL0     H98138   9.256   4.525   4.801 -0.0958 -0.1015  1.2491
  727MOL0     H98139   9.499   4.442   4.778  1.3237  0.7770 -3.3457
  727MOL0     H98140   9.432   4.304   4.691 -2.0768 -0.3679 -0.7184
  727MOL0     H98141   9.490   4.628   4.424  0.5308  1.7835  0.4703
  727MOL0     H98142   8.694   4.303   4.593  1.3130  0.2444 -0.8306
  727MOL0     H98143   8.512   4.330   4.478  1.1559  0.0375  0.1783
  727MOL0     H98144   8.430   4.472   4.540  0.0772  0.9104  0.6835
  727MOL0     H98145   8.503   4.480   4.374  2.2922  1.7505  0.2827
  728MOL0     O98146   4.489   9.114   6.287  0.4237 -0.2215 -0.2333
  728MOL0     C98147   4.540   9.005   6.320 -0.3171  0.1035  1.0759
  728MOL0     O98148   4.471   8.895   6.357  0.1113 -0.0578  0.4671
  728MOL0     C98149   4.338   8.901   6.379  0.2578  0.0262 -0.1025
  728MOL0     C98150   4.307   8.854   6.507 -0.2820 -0.2374 -0.3067
  728MOL0     C98151   4.170   8.869   6.544 -0.7853 -0.6645 -0.0842
  728MOL0     C98152   4.066   8.896   6.453  0.0575  0.8455  0.2667
  728MOL0     O98153   3.930   8.884   6.487  0.1238  0.6661 -0.0907
  728MOL0     C98154   3.839   8.992   6.444  0.6679  0.0145  0.0825
  728MOL0     C98155   3.693   8.966   6.497 -0.5664  0.6208  0.3781
  728MOL0     C98156   3.645   8.826   6.443  0.0633 -0.4237  0.5705
  728MOL0     C98157   3.499   8.793   6.494  0.0917  1.2298  0.4910
  728MOL0     C98158   3.474   8.641   6.489  0.6679  0.1474  0.7989
  728MOL0     C98159   3.450   8.613   6.339  0.0206  0.6353 -0.6613
  728MOL0     C98160   3.416   8.463   6.319  0.0392  0.0613  0.0496
  728MOL0     C98161   3.378   8.429   6.170  0.1536  0.5138 -0.7859
  728MOL0     N98162   3.492   8.390   6.077  0.3023 -0.0695 -0.4395
  728MOL0     C98163   3.586   8.467   6.014 -0.2358 -0.1675 -0.2889
  728MOL0     C98164   3.659   8.387   5.931  0.0180 -0.1314  0.7065
  728MOL0     C98165   3.764   8.428   5.831 -0.8467 -0.3872 -0.1660
  728MOL0     C98166   3.878   8.319   5.818 -0.1531  0.8743 -0.2665
  728MOL0     C98167   3.958   8.338   5.690  0.1886  0.1661 -0.8132
  728MOL0     C98168   4.084   8.251   5.704  0.0650 -0.3127 -0.1119
  728MOL0     O98169   4.066   8.136   5.626  0.4785  0.7093  0.0829
  728MOL0     C98170   4.168   8.057   5.578  0.0249  0.1370 -0.1861
  728MOL0     C98171   4.161   7.976   5.470 -0.8902 -0.0551  0.1108
  728MOL0     C98172   4.261   7.881   5.442 -0.0880 -0.5575 -1.0359
  728MOL0     C98173   4.369   7.870   5.532  0.5576 -0.2737 -0.2705
  728MOL0     C98174   4.486   7.779   5.519  0.0324 -0.3188  0.0799
  728MOL0     O98175   4.559   7.754   5.628 -0.0821 -0.0454 -0.2376
  728MOL0     C98176   4.670   7.666   5.625 -0.7510  0.8730  1.0789
  728MOL0     C98177   4.772   7.670   5.524 -1.0338 -0.2884 -0.2953
  728MOL0     C98178   4.881   7.585   5.526  0.5782  0.4773 -0.2664
  728MOL0     C98179   4.893   7.485   5.626 -0.0143  0.5044  0.6990
  728MOL0     O98180   4.996   7.390   5.648  0.6047 -0.0371 -0.2104
  728MOL0     C98181   5.085   7.378   5.537 -0.2484 -0.6744  0.4753
  728MOL0     C98182   5.193   7.281   5.591  0.2243  0.7445  0.5297
  728MOL0     C98183   5.309   7.263   5.488 -0.6006  0.4158  0.6112
  728MOL0     C98184   5.408   7.165   5.552 -0.3225 -0.2064  0.1874
  728MOL0     C98185   5.546   7.177   5.493 -0.5465 -0.4984 -0.4413
  728MOL0     C98186   5.618   7.050   5.524 -0.0317 -0.1808 -0.1344
  728MOL0     C98187   5.759   7.035   5.451 -0.8930  0.0023  0.2017
  728MOL0     C98188   5.840   7.160   5.427 -1.1856  0.6067 -0.1657
  728MOL0    Cl98189   6.001   7.122   5.366 -0.3889  0.0450  0.1540
  728MOL0     C98190   4.783   7.471   5.716 -0.2345  0.5667  0.1246
  728MOL0     C98191   4.675   7.563   5.718 -0.3590 -0.2006 -0.2945
  728MOL0     O98192   4.503   7.722   5.410  0.8734 -0.1419  0.9908
  728MOL0     C98193   4.385   7.958   5.642  0.2464  0.1702 -0.0834
  728MOL0     C98194   4.287   8.052   5.663  0.6217 -0.1694 -0.5044
  728MOL0     N98195   3.609   8.255   5.947  0.7496 -0.0899 -0.1697
  728MOL0     N98196   3.509   8.263   6.034 -0.3410  0.3165 -0.1867
  728MOL0     C98197   4.102   8.930   6.319 -0.6415  0.2459 -0.6227
  728MOL0     C98198   4.239   8.940   6.288 -0.0884  0.2891 -0.7349
  728MOL0     C98199   4.684   8.995   6.299 -0.2881  0.1639  0.1485
  728MOL0     C98200   4.719   8.875   6.246 -0.1002 -0.2165 -0.2867
  728MOL0     C98201   4.841   8.862   6.186  0.4557  0.0643 -0.3432
  728MOL0     C98202   4.938   8.954   6.200  0.4662  0.2089 -0.1356
  728MOL0     O98203   5.054   8.919   6.134  0.2056  0.2103 -0.6107
  728MOL0     C98204   5.163   9.014   6.134 -0.2710  0.2560  0.5142
  728MOL0     C98205   5.250   8.976   6.012 -0.4625  0.0111  0.3318
  728MOL0     C98206   5.351   8.863   6.047 -0.3213  0.1105  0.1252
  728MOL0     C98207   5.482   8.892   6.112 -0.1034  0.3112 -0.6690
  728MOL0     C98208   5.553   8.770   6.153 -0.0505  0.2323 -0.1390
  728MOL0     C98209   5.611   8.665   6.183  0.3585 -0.6951 -0.3813
  728MOL0     C98210   4.905   9.071   6.271  0.6253  0.0111 -0.1420
  728MOL0     C98211   4.773   9.096   6.316 -0.5781  0.4141  0.1747
  728MOL0     C98212   4.739   9.232   6.377 -0.1643 -0.0396  0.2384
  728MOL0     H98213   4.387   8.831   6.576 -0.0742  1.0572 -0.0754
  728MOL0     H98214   4.141   8.844   6.645  1.3188 -0.4830  0.6102
  728MOL0     H98215   3.877   9.090   6.473 -0.6326  0.6718 -0.3437
  728MOL0     H98216   3.823   8.991   6.336  0.9220 -3.4228 -0.0349
  728MOL0     H98217   3.623   9.033   6.447 -1.8955 -0.6932  0.4067
  728MOL0     H98218   3.687   8.964   6.606  0.0704 -1.1424  0.4149
  728MOL0     H98219   3.712   8.749   6.481  0.9032  0.1293  0.2388
  728MOL0     H98220   3.652   8.816   6.334  1.1605 -2.6866  0.7897
  728MOL0     H98221   3.496   8.823   6.599 -0.0862  0.1898  0.7876
  728MOL0     H98222   3.426   8.851   6.436  0.7976 -1.1573 -3.1386
  728MOL0     H98223   3.559   8.587   6.533  1.7973  1.6522  0.5533
  728MOL0     H98224   3.381   8.622   6.544  0.4400 -3.0239 -0.5240
  728MOL0     H98225   3.367   8.672   6.299  0.2543  2.3251  1.1927
  728MOL0     H98226   3.540   8.630   6.278 -0.2456  0.0807 -1.2202
  728MOL0     H98227   3.334   8.438   6.386 -0.5568  0.7182 -0.4276
  728MOL0     H98228   3.502   8.406   6.357 -0.6509 -0.2324  1.2025
  728MOL0     H98229   3.312   8.344   6.189 -3.5340  2.7165 -2.5137
  728MOL0     H98230   3.323   8.511   6.123  0.3494 -0.0963 -2.1104
  728MOL0     H98231   3.602   8.571   6.038 -2.7503  0.0283  0.8353
  728MOL0     H98232   3.722   8.449   5.732  1.4941  0.6287 -1.0293
  728MOL0     H98233   3.809   8.525   5.853  1.8798 -1.5492 -0.2508
  728MOL0     H98234   3.941   8.322   5.907  0.0961  1.9889 -0.4633
  728MOL0     H98235   3.838   8.217   5.817  1.0794  0.3017  2.1342
  728MOL0     H98236   3.989   8.443   5.682  3.4088 -0.7660 -2.3138
  728MOL0     H98237   3.909   8.321   5.594  0.1380 -0.1323 -0.7356
  728MOL0     H98238   4.105   8.224   5.808 -2.5858  0.6545  0.7752
  728MOL0     H98239   4.171   8.302   5.663 -1.2132 -0.1425 -2.8659
  728MOL0     H98240   4.074   7.981   5.405 -1.4576 -2.5315  0.5486
  728MOL0     H98241   4.241   7.815   5.358 -1.0490  1.6756 -2.6572
  728MOL0     H98242   4.760   7.739   5.441 -1.7148  1.0078  0.8390
  728MOL0     H98243   4.961   7.598   5.453  0.1295  0.8495 -0.6985
  728MOL0     H98244   5.031   7.332   5.454 -2.4343 -1.8194  2.4346
  728MOL0     H98245   5.130   7.471   5.499 -1.4870 -0.5549 -0.7954
  728MOL0     H98246   5.227   7.311   5.691 -1.5293  1.2465  1.0071
  728MOL0     H98247   5.142   7.185   5.601 -2.9898  1.9030 -2.7619
  728MOL0     H98248   5.279   7.227   5.389 -0.6324 -1.4412  1.2488
  728MOL0     H98249   5.364   7.357   5.490  4.1209 -2.0317  2.4102
  728MOL0     H98250   5.370   7.065   5.534 -0.5824 -0.1496  0.4134
  728MOL0     H98251   5.409   7.169   5.661 -1.7536  0.8305  0.1945
  728MOL0     H98252   5.594   7.269   5.528  1.8478 -1.7371 -0.2587
  728MOL0     H98253   5.546   7.177   5.384 -2.0100 -0.5648 -0.4598
  728MOL0     H98254   5.632   7.051   5.633  0.7982 -1.6775 -0.1959
  728MOL0     H98255   5.555   6.966   5.493 -1.1967  0.4968  0.3321
  728MOL0     H98256   5.754   6.985   5.354  1.2208  0.1662 -0.0515
  728MOL0     H98257   5.822   6.971   5.513 -0.1482 -0.4242 -0.9689
  728MOL0     H98258   5.787   7.210   5.345 -0.6205  2.0259  0.3092
  728MOL0     H98259   5.849   7.223   5.515 -2.8091 -0.7236  1.0382
  728MOL0     H98260   4.778   7.389   5.787 -1.0988 -1.3710 -2.0375
  728MOL0     H98261   4.600   7.552   5.795 -0.2178  0.8257 -0.0048
  728MOL0     H98262   4.467   7.945   5.712 -1.5726  0.0942  2.1442
  728MOL0     H98263   4.299   8.105   5.757  0.4890  0.4803 -0.8466
  728MOL0     H98264   4.035   8.940   6.234  2.3702 -1.5160 -3.4548
  728MOL0     H98265   4.271   8.968   6.188 -1.2589  2.7195 -0.5104
  728MOL0     H98266   4.650   8.794   6.228  2.2899 -2.2480 -0.8885
  728MOL0     H98267   4.864   8.774   6.126 -1.1822 -1.9136  1.7124
  728MOL0     H98268   5.216   9.016   6.230 -1.9619  0.3329  1.4792
  728MOL0     H98269   5.112   9.107   6.107 -2.6182 -1.5885 -1.8936
  728MOL0     H98270   5.314   9.062   5.991 -1.5007  0.9420  0.8421
  728MOL0     H98271   5.194   8.949   5.922 -0.4599  0.7160  0.1106
  728MOL0     H98272   5.379   8.820   5.950 -0.0809 -1.1166  0.7181
  728MOL0     H98273   5.289   8.792   6.103  0.1189 -1.4335 -1.2602
  728MOL0     H98274   5.552   8.953   6.053 -1.6058  0.5702 -2.2732
  728MOL0     H98275   5.468   8.947   6.205 -1.9449  2.2482 -2.0196
  728MOL0     H98276   5.661   8.573   6.205 -0.9135 -1.3176  0.0023
  728MOL0     H98277   4.986   9.144   6.282 -0.0456  0.8730 -0.8082
  728MOL0     H98278   4.667   9.289   6.318 -2.7539 -2.3891  0.9136
  728MOL0     H98279   4.699   9.217   6.477  0.3626  2.8862  0.9786
  728MOL0     H98280   4.826   9.290   6.410  1.3703 -2.9770  1.7864
  729MOL0     O98281   5.010   8.329   4.807 -0.5018  0.3489  0.5844
  729MOL0     C98282   4.932   8.241   4.769  0.3190 -0.6629  0.4739
  729MOL0     O98283   4.960   8.110   4.775  0.0726  0.5278  0.7786
  729MOL0     C98284   5.091   8.060   4.799  0.1482 -0.2316 -0.8330
  729MOL0     C98285   5.209   8.113   4.749 -0.4102 -0.0815 -0.6542
  729MOL0     C98286   5.331   8.061   4.782 -0.6853  0.1650 -0.2837
  729MOL0     C98287   5.343   7.944   4.851 -0.8133 -0.6538  0.1073
  729MOL0     O98288   5.465   7.891   4.871  0.3525 -0.0942  0.3158
  729MOL0     C98289   5.475   7.798   4.978 -0.4295  0.7489 -0.1802
  729MOL0     C98290   5.622   7.756   4.991  1.0499 -0.6930  0.0373
  729MOL0     C98291   5.651   7.641   5.074  0.1440  0.1745  0.0465
  729MOL0     C98292   5.645   7.669   5.224  0.0002 -0.1299 -0.2197
  729MOL0     C98293   5.717   7.563   5.309 -0.7937 -0.0679  0.0872
  729MOL0     C98294   5.867   7.580   5.321  0.4792 -0.6963 -0.2394
  729MOL0     C98295   5.951   7.492   5.233  0.3718 -0.0603 -0.1131
  729MOL0     C98296   6.106   7.515   5.269 -0.1235  0.4265  0.0478
  729MOL0     N98297   6.184   7.405   5.207  0.2222  0.2108  0.5800
  729MOL0     C98298   6.203   7.389   5.073  0.7219  1.0678 -0.1711
  729MOL0     C98299   6.285   7.284   5.051  0.1349 -0.2355 -0.2115
  729MOL0     C98300   6.311   7.224   4.917  0.3525 -0.6006 -0.4311
  729MOL0     C98301   6.455   7.192   4.885  0.4105  0.0487  0.2602
  729MOL0     C98302   6.465   7.128   4.748 -1.0357 -0.1500 -0.2696
  729MOL0     C98303   6.612   7.139   4.707  0.3933  0.5078  0.2855
  729MOL0     O98304   6.657   7.272   4.693 -0.4409  0.2481 -0.4249
  729MOL0     C98305   6.785   7.314   4.711 -0.2514 -0.8581  0.3604
  729MOL0     C98306   6.900   7.242   4.685  0.0489  0.7025 -0.1275
  729MOL0     C98307   7.025   7.302   4.696 -0.0387  0.0919  0.9600
  729MOL0     C98308   7.040   7.432   4.745 -0.1564  0.1207  0.0505
  729MOL0     C98309   7.169   7.488   4.778 -0.6054 -0.5354  0.2620
  729MOL0     O98310   7.174   7.618   4.823  0.0667  0.5242 -0.0214
  729MOL0     C98311   7.281   7.673   4.881  1.0553  0.2155 -0.2563
  729MOL0     C98312   7.372   7.608   4.966 -0.5732  1.0342 -0.2990
  729MOL0     C98313   7.488   7.676   5.018 -0.4515  0.2664  0.0099
  729MOL0     C98314   7.504   7.818   4.994  0.4920  0.5543  1.0332
  729MOL0     O98315   7.611   7.893   5.033 -0.0792  0.1471 -0.0114
  729MOL0     C98316   7.708   7.835   5.126 -0.3898 -0.1021  0.6182
  729MOL0     C98317   7.801   7.951   5.164 -0.2210  0.2666 -0.1949
  729MOL0     C98318   7.908   7.914   5.259  0.4960 -0.5167  0.2682
  729MOL0     C98319   8.012   8.029   5.249 -0.6443  0.2317  0.3114
  729MOL0     C98320   8.116   8.003   5.352 -0.3567 -0.5625 -0.3842
  729MOL0     C98321   8.221   8.111   5.344 -0.8187 -0.0717 -0.3044
  729MOL0     C98322   8.332   8.108   5.453  0.1915  0.6669  0.6092
  729MOL0     C98323   8.403   8.242   5.480 -0.0663 -0.3834  0.4887
  729MOL0    Cl98324   8.454   8.312   5.324 -0.0292  0.4677 -0.1727
  729MOL0     C98325   7.404   7.879   4.924 -0.1768 -1.1085 -0.3853
  729MOL0     C98326   7.292   7.814   4.868 -0.4318  0.6932 -0.0243
  729MOL0     O98327   7.265   7.416   4.762 -0.3650 -0.9545  0.2086
  729MOL0     C98328   6.922   7.511   4.767 -0.2808 -0.6132 -0.1817
  729MOL0     C98329   6.805   7.445   4.745  0.1281 -0.0521  0.4655
  729MOL0     N98330   6.313   7.237   5.179 -0.3919  1.1179 -0.1418
  729MOL0     N98331   6.263   7.320   5.269 -0.1323 -0.3981  0.2378
  729MOL0     C98332   5.227   7.880   4.889  0.9370 -0.1671  0.1602
  729MOL0     C98333   5.100   7.942   4.866  0.6857  0.4668  0.1260
  729MOL0     C98334   4.787   8.279   4.732 -0.4967 -0.5682 -0.2671
  729MOL0     C98335   4.691   8.181   4.738  0.2839  0.3189  0.0965
  729MOL0     C98336   4.556   8.198   4.726 -0.6372 -0.5203 -0.0262
  729MOL0     C98337   4.502   8.328   4.718  1.4004  0.5389  0.6000
  729MOL0     O98338   4.365   8.331   4.728  0.4359  0.1329  0.5283
  729MOL0     C98339   4.304   8.466   4.733 -0.3070  0.8001  0.0396
  729MOL0     C98340   4.159   8.459   4.785  0.4174  0.0874  0.1391
  729MOL0     C98341   4.074   8.370   4.704 -0.0796  0.0885  0.3934
  729MOL0     C98342   3.930   8.331   4.754  0.0069  0.3741 -0.6532
  729MOL0     C98343   3.872   8.445   4.831 -0.1847 -0.1620  0.7888
  729MOL0     C98344   3.822   8.537   4.881  0.0021  0.0880  0.1446
  729MOL0     C98345   4.588   8.433   4.703  0.4930 -0.1427 -0.2637
  729MOL0     C98346   4.735   8.411   4.708  0.2169  0.5091 -1.0413
  729MOL0     C98347   4.825   8.538   4.712  0.1567  0.2665  0.5789
  729MOL0     H98348   5.213   8.200   4.684  1.2916  1.4569  1.3654
  729MOL0     H98349   5.417   8.121   4.753  1.4779 -2.5936 -0.0163
  729MOL0     H98350   5.439   7.847   5.069 -1.5234 -0.1956 -0.0803
  729MOL0     H98351   5.408   7.716   4.950 -1.1159  2.0151 -2.5171
  729MOL0     H98352   5.683   7.836   5.034 -0.4491 -0.1652  1.2713
  729MOL0     H98353   5.643   7.725   4.889 -3.4865 -1.6419 -0.8248
  729MOL0     H98354   5.747   7.598   5.045  1.3798  2.9306 -0.2474
  729MOL0     H98355   5.577   7.563   5.054 -1.5521  1.2451  1.7781
  729MOL0     H98356   5.693   7.765   5.245  2.2031 -1.7784  3.0069
  729MOL0     H98357   5.541   7.672   5.260  0.1161  0.1858  0.0905
  729MOL0     H98358   5.670   7.565   5.408  0.4524  0.5888  0.6978
  729MOL0     H98359   5.695   7.461   5.277  0.0157  0.4486 -2.2566
  729MOL0     H98360   5.892   7.682   5.293 -3.1965  1.1296  2.3235
  729MOL0     H98361   5.895   7.571   5.427  3.2688  2.0421 -0.5991
  729MOL0     H98362   5.939   7.530   5.131  2.0848 -0.5809 -0.5394
  729MOL0     H98363   5.925   7.386   5.237  0.3135 -0.2688 -3.3587
  729MOL0     H98364   6.147   7.611   5.235  0.4659  0.5193  0.9588
  729MOL0     H98365   6.112   7.502   5.378 -1.6594  3.5814  0.6157
  729MOL0     H98366   6.145   7.447   5.001  0.3496  1.2411  0.2636
  729MOL0     H98367   6.251   7.133   4.914  0.3612 -0.5770 -1.6156
  729MOL0     H98368   6.280   7.300   4.845 -0.5783 -2.1685 -1.7518
  729MOL0     H98369   6.519   7.281   4.892 -0.5996  0.8190 -0.1002
  729MOL0     H98370   6.478   7.117   4.962  0.9596  0.0451  0.0975
  729MOL0     H98371   6.402   7.183   4.677 -1.7311 -0.6864 -0.0872
  729MOL0     H98372   6.427   7.026   4.757 -0.9398 -0.1625 -0.0077
  729MOL0     H98373   6.627   7.084   4.613 -2.3687 -2.4290  1.3559
  729MOL0     H98374   6.667   7.081   4.782 -1.6604 -1.5024  0.3655
  729MOL0     H98375   6.905   7.136   4.662  3.3104  0.1629  2.2950
  729MOL0     H98376   7.112   7.237   4.689 -0.2456 -0.0923 -0.0023
  729MOL0     H98377   7.358   7.509   5.009 -1.3111  1.6523  0.9248
  729MOL0     H98378   7.566   7.628   5.076  0.6188 -1.9786 -3.0366
  729MOL0     H98379   7.655   7.801   5.215 -0.6251 -4.2316 -0.9238
  729MOL0     H98380   7.777   7.756   5.095 -0.0771 -0.6433  2.5671
  729MOL0     H98381   7.851   7.987   5.074  1.7980 -1.0255  0.3592
  729MOL0     H98382   7.741   8.033   5.205  0.1254  0.5507 -0.2572
  729MOL0     H98383   7.862   7.912   5.359 -3.2080  2.5117 -1.1101
  729MOL0     H98384   7.949   7.816   5.234 -3.4393 -2.2530 -0.1427
  729MOL0     H98385   7.956   8.122   5.264 -1.2050  0.0642 -0.6672
  729MOL0     H98386   8.061   8.027   5.151 -2.1180 -0.0357 -0.4531
  729MOL0     H98387   8.166   7.908   5.335  0.4198  0.1582 -2.3821
  729MOL0     H98388   8.063   8.006   5.448 -0.6661 -0.1884 -0.5635
  729MOL0     H98389   8.275   8.108   5.249 -0.6145 -1.6097 -0.1660
  729MOL0     H98390   8.174   8.210   5.350  2.0429  1.2995  2.3919
  729MOL0     H98391   8.411   8.037   5.428  0.0316  0.4146  0.8082
  729MOL0     H98392   8.285   8.075   5.546  2.9417 -3.2214  0.8309
  729MOL0     H98393   8.330   8.302   5.535  1.0218  0.8404  0.6511
  729MOL0     H98394   8.482   8.234   5.555 -2.5790  0.8531  3.4879
  729MOL0     H98395   7.419   7.984   4.904 -3.9187 -0.5363 -0.9690
  729MOL0     H98396   7.215   7.865   4.811 -2.6323 -2.5189 -0.2275
  729MOL0     H98397   6.938   7.613   4.799  1.5999 -0.0449 -2.5874
  729MOL0     H98398   6.715   7.503   4.765 -1.1379 -1.7572 -0.0166
  729MOL0     H98399   5.208   7.785   4.937 -0.6301  0.8041  1.5405
  729MOL0     H98400   5.006   7.895   4.894  0.3368  1.3803  0.5285
  729MOL0     H98401   4.724   8.079   4.748 -3.0668 -1.2830 -2.9720
  729MOL0     H98402   4.493   8.110   4.738 -1.9993  0.1525 -1.8332
  729MOL0     H98403   4.302   8.514   4.634  1.8742 -1.8863 -1.4492
  729MOL0     H98404   4.367   8.524   4.801  3.0170 -0.8111 -1.4698
  729MOL0     H98405   4.117   8.559   4.772 -2.9756 -1.3687 -1.3363
  729MOL0     H98406   4.153   8.435   4.891  0.2433  0.7552  0.2853
  729MOL0     H98407   4.128   8.276   4.690 -0.2059  0.3980 -2.9138
  729MOL0     H98408   4.069   8.406   4.601  2.1246 -0.6057 -0.0115
  729MOL0     H98409   3.868   8.302   4.669 -0.4590 -2.7267  0.5918
  729MOL0     H98410   3.936   8.247   4.825  0.4674 -0.4635 -1.6475
  729MOL0     H98411   3.758   8.605   4.934 -1.5242 -0.9002 -0.3898
  729MOL0     H98412   4.545   8.533   4.695 -4.7331 -2.2031 -2.0426
  729MOL0     H98413   4.780   8.623   4.661  0.2531 -0.5482 -0.9304
  729MOL0     H98414   4.834   8.554   4.820 -0.1890 -1.4087  0.8825
  729MOL0     H98415   4.924   8.519   4.668 -0.5306 -1.7822 -0.1914
  730MOL0     O98416   8.489   6.581  10.315 -0.3589 -0.0391 -0.2544
  730MOL0     C98417   8.437   6.631  10.417 -0.2959 -0.0378 -1.0086
  730MOL0     O98418   8.505   6.713  10.496  0.3861 -0.3924 -0.0748
  730MOL0     C98419   8.645   6.699  10.495 -0.0819 -0.3294 -0.1018
  730MOL0     C98420   8.722   6.808  10.493 -0.1134  0.1036  0.1701
  730MOL0     C98421   8.861   6.800  10.499  0.1821  0.5036  0.0651
  730MOL0     C98422   8.934   6.672  10.491 -0.8043 -0.2735 -0.1803
  730MOL0     O98423   9.073   6.648  10.480 -0.3867  0.4968  1.2148
  730MOL0     C98424   9.156   6.750  10.526 -0.2108  0.8082 -0.1671
  730MOL0     C98425   9.302   6.707  10.513 -0.3563  0.1147 -0.7759
  730MOL0     C98426   9.401   6.826  10.490  0.9620 -0.1831 -0.5402
  730MOL0     C98427   9.550   6.789  10.481 -0.3141 -1.0807  0.8558
  730MOL0     C98428   9.635   6.908  10.435  0.4043 -0.1025 -0.6234
  730MOL0     C98429   9.778   6.862  10.410 -0.4209  0.3637  0.4138
  730MOL0     C98430   9.875   6.980  10.399 -0.3245 -0.3181 -0.3182
  730MOL0     C98431   9.922   7.019  10.543  0.1855 -0.3146  0.1609
  730MOL0     N98432  10.013   6.926  10.592 -0.5512 -0.5015 -0.5837
  730MOL0     C98433  10.141   6.902  10.539  0.3229  1.0591 -0.1787
  730MOL0     C98434  10.188   6.792  10.602  0.4735 -0.1697 -0.3488
  730MOL0     C98435  10.339   6.754  10.588  0.8284 -0.0479  0.2126
  730MOL0     C98436  10.432   6.847  10.671  0.0162 -0.2805  0.4447
  730MOL0     C98437  10.449   6.792  10.821 -0.2279  0.4224  0.9390
  730MOL0     C98438  10.529   6.660  10.819 -0.2187 -0.0354  0.0030
  730MOL0     O98439  10.645   6.678  10.740  0.1381 -0.5352  0.1513
  730MOL0     C98440  10.744   6.593  10.753  0.1966 -0.4180 -0.4135
  730MOL0     C98441  10.746   6.484  10.839  0.6627  0.0133 -0.5623
  730MOL0     C98442  10.858   6.407  10.860 -1.2214 -0.0988 -0.3901
  730MOL0     C98443  10.974   6.422  10.788  0.6282  0.2851  0.7158
  730MOL0     C98444  11.090   6.332  10.800 -0.0981  0.2296 -0.0882
  730MOL0     O98445  11.095   6.242  10.907 -0.2233 -0.7951  0.3470
  730MOL0     C98446  11.204   6.155  10.911  0.8994 -0.2641  0.0874
  730MOL0     C98447  11.337   6.200  10.934  0.6702  1.0779  0.2624
  730MOL0     C98448  11.435   6.109  10.931 -0.3467 -0.3955  0.2144
  730MOL0     C98449  11.413   5.971  10.906 -0.8219 -0.7227  1.0533
  730MOL0     O98450  11.519   5.881  10.886  0.4432  0.5395 -0.1122
  730MOL0     C98451  11.627   5.932  10.804 -1.0753 -0.1445  0.4450
  730MOL0     C98452  11.699   5.818  10.722 -0.9633  0.1832 -1.0475
  730MOL0     C98453  11.836   5.857  10.668  0.2258 -0.3923 -0.1620
  730MOL0     C98454  11.935   5.744  10.647  0.6378 -0.3771  0.4529
  730MOL0     C98455  12.031   5.767  10.523 -0.2779  0.9486  0.0599
  730MOL0     C98456  12.150   5.670  10.534 -0.2582  0.5123  0.0380
  730MOL0     C98457  12.230   5.700  10.661  0.4954  0.5522 -0.3412
  730MOL0     C98458  12.362   5.638  10.645 -0.5462 -1.0315  0.0868
  730MOL0    Cl98459  12.368   5.459  10.642 -0.3172 -0.2765  0.2806
  730MOL0     C98460  11.278   5.930  10.874 -0.2409 -0.1571  0.2483
  730MOL0     C98461  11.177   6.021  10.878 -0.0716  0.1033 -0.0232
  730MOL0     O98462  11.177   6.334  10.719  0.3722  0.0030  0.1297
  730MOL0     C98463  10.979   6.532  10.706 -0.1905 -0.4385  0.0613
  730MOL0     C98464  10.867   6.612  10.682  0.3410 -0.5044 -0.1686
  730MOL0     N98465  10.080   6.752  10.688 -0.0160 -0.4218  0.0453
  730MOL0     N98466   9.979   6.831  10.672 -0.1504 -0.1117  0.1587
  730MOL0     C98467   8.846   6.561  10.487 -0.3264 -0.2849 -0.2931
  730MOL0     C98468   8.707   6.570  10.500 -0.4583 -0.2853  0.2528
  730MOL0     C98469   8.295   6.600  10.434 -0.2941  0.0193 -0.2608
  730MOL0     C98470   8.264   6.467  10.403 -0.1800  0.2946  0.2946
  730MOL0     C98471   8.141   6.428  10.432  0.2275 -0.3589 -0.5069
  730MOL0     C98472   8.041   6.518  10.480  0.3168  0.2742 -0.0643
  730MOL0     O98473   7.916   6.470  10.503  0.2766  0.6663 -0.4049
  730MOL0     C98474   7.813   6.552  10.457 -0.8818 -0.2315 -0.6804
  730MOL0     C98475   7.685   6.472  10.433 -1.0323  0.9710  0.4908
  730MOL0     C98476   7.583   6.554  10.370  0.2236  0.1197 -0.1552
  730MOL0     C98477   7.511   6.652  10.467  0.5447  0.1148  1.0275
  730MOL0     C98478   7.402   6.727  10.400 -0.2337  0.5530  0.1368
  730MOL0     C98479   7.305   6.758  10.341  0.1453 -0.4769  0.4672
  730MOL0     C98480   8.076   6.646  10.513 -0.1642  0.5834 -0.1812
  730MOL0     C98481   8.208   6.688  10.494 -0.0669 -0.4715 -0.7072
  730MOL0     C98482   8.246   6.827  10.537  0.0761 -0.5672  0.8288
  730MOL0     H98483   8.672   6.905  10.497 -0.0284  0.0999  1.6113
  730MOL0     H98484   8.905   6.899  10.498 -1.9445  1.5062 -0.2075
  730MOL0     H98485   9.134   6.839  10.466 -1.3231  1.6905  1.4736
  730MOL0     H98486   9.138   6.786  10.627  0.1737 -0.3003  0.3069
  730MOL0     H98487   9.314   6.634  10.432  0.2266 -0.2976 -0.3246
  730MOL0     H98488   9.329   6.644  10.598 -2.6409 -2.2064 -1.6289
  730MOL0     H98489   9.387   6.887  10.580  1.4272 -1.6617  0.5980
  730MOL0     H98490   9.368   6.892  10.410 -0.0481  0.1344  0.1205
  730MOL0     H98491   9.591   6.746  10.573  1.8755 -3.3331 -1.0376
  730MOL0     H98492   9.560   6.709  10.407 -2.1407 -2.5081  2.0577
  730MOL0     H98493   9.593   6.967  10.353  0.4098  0.6048 -0.1187
  730MOL0     H98494   9.637   6.983  10.514 -1.0305 -0.3643 -0.2885
  730MOL0     H98495   9.811   6.784  10.479  3.0288  0.8895 -0.4731
  730MOL0     H98496   9.774   6.805  10.317 -0.8935  1.4440 -0.2545
  730MOL0     H98497   9.828   7.066  10.352 -2.5927  0.5982  3.2922
  730MOL0     H98498   9.960   6.961  10.332  0.0058  0.7257 -0.2167
  730MOL0     H98499   9.971   7.116  10.529 -1.4040  0.7991  1.8315
  730MOL0     H98500   9.844   7.038  10.618  0.6009  1.6762  0.1514
  730MOL0     H98501  10.192   6.958  10.462  1.1954  0.8190  0.2010
  730MOL0     H98502  10.358   6.653  10.627  0.5605  1.2479  4.1784
  730MOL0     H98503  10.364   6.754  10.482 -0.1625 -1.8754 -0.0676
  730MOL0     H98504  10.525   6.877  10.622  0.1703  1.4122  1.6801
  730MOL0     H98505  10.373   6.938  10.681  0.4154  0.1337 -0.8522
  730MOL0     H98506  10.351   6.761  10.858 -1.2542  0.6020 -1.4556
  730MOL0     H98507  10.498   6.870  10.879  3.8974 -1.2762  0.1147
  730MOL0     H98508  10.468   6.577  10.782  1.5202 -1.4684  0.1998
  730MOL0     H98509  10.550   6.637  10.924 -1.3198  1.3887  0.5594
  730MOL0     H98510  10.665   6.460  10.907  0.9380 -4.4112 -1.4992
  730MOL0     H98511  10.861   6.313  10.914  1.1602 -0.4151 -0.9541
  730MOL0     H98512  11.363   6.305  10.949  0.6730  1.6250 -2.8028
  730MOL0     H98513  11.539   6.141  10.938 -0.0103 -1.3604 -0.2623
  730MOL0     H98514  11.581   6.002  10.733 -1.2985 -1.7658 -1.0529
  730MOL0     H98515  11.699   5.983  10.870  1.3260 -0.1118 -2.0405
  730MOL0     H98516  11.712   5.724  10.776 -1.0833 -0.8466 -2.7286
  730MOL0     H98517  11.640   5.791  10.633  0.1051  0.3086 -1.8193
  730MOL0     H98518  11.842   5.929  10.587  3.5398  1.7689  1.7801
  730MOL0     H98519  11.895   5.922  10.733 -0.3563  3.2298 -2.9346
  730MOL0     H98520  11.878   5.653  10.629 -0.6275  1.0182 -3.6895
  730MOL0     H98521  11.989   5.727  10.740  0.5083 -2.4102  0.1925
  730MOL0     H98522  12.067   5.870  10.530 -0.6198  1.1554 -1.0237
  730MOL0     H98523  11.976   5.760  10.429  0.6425  0.2483 -0.4478
  730MOL0     H98524  12.122   5.564  10.534  2.3638 -0.2509 -0.2864
  730MOL0     H98525  12.214   5.682  10.446 -1.3031 -0.5399 -0.8995
  730MOL0     H98526  12.190   5.654  10.751 -0.3058 -1.4145 -1.6473
  730MOL0     H98527  12.240   5.807  10.683 -0.7893  0.6830 -0.3164
  730MOL0     H98528  12.434   5.679  10.574 -0.4888 -3.8549 -1.6285
  730MOL0     H98529  12.416   5.652  10.739  0.4272  0.4246 -0.6426
  730MOL0     H98530  11.259   5.824  10.856 -2.0012 -0.0950  1.4628
  730MOL0     H98531  11.076   5.983  10.864  0.2643 -0.2317 -1.8340
  730MOL0     H98532  11.069   6.554  10.649 -0.7044 -1.4151 -1.1802
  730MOL0     H98533  10.879   6.680  10.599  0.0284  0.1687  0.3303
  730MOL0     H98534   8.895   6.464  10.479  0.5434  0.0961  0.3203
  730MOL0     H98535   8.640   6.485  10.504 -1.5244  0.1577 -3.7914
  730MOL0     H98536   8.337   6.400  10.358 -1.3265  0.6269 -2.2211
  730MOL0     H98537   8.118   6.323  10.417  0.4748 -0.3354 -1.0822
  730MOL0     H98538   7.845   6.588  10.359 -0.5761 -1.4811 -1.0620
  730MOL0     H98539   7.801   6.630  10.533  0.5199 -2.1153  1.6376
  730MOL0     H98540   7.645   6.426  10.524 -0.7204 -0.6474 -0.1488
  730MOL0     H98541   7.711   6.388  10.368 -0.3939  1.3561  0.2409
  730MOL0     H98542   7.515   6.477  10.330  0.9074 -0.0987 -0.9118
  730MOL0     H98543   7.632   6.612  10.292  1.7770 -1.2735 -0.2542
  730MOL0     H98544   7.463   6.604  10.552  0.9471  1.0825  1.8115
  730MOL0     H98545   7.590   6.711  10.515  0.0662 -0.6896  2.8951
  730MOL0     H98546   7.212   6.790  10.300  1.6018  0.2102 -2.6245
  730MOL0     H98547   8.007   6.718  10.556  1.7742  3.0267 -0.9166
  730MOL0     H98548   8.328   6.825  10.609 -0.6199 -0.8857  1.6245
  730MOL0     H98549   8.279   6.883  10.449 -2.2135  0.5522  0.5991
  730MOL0     H98550   8.163   6.885  10.578  0.6300  0.3162  0.7309
  731MOL0     O98551   6.725  10.256   6.287  0.6480 -0.0799 -0.5166
  731MOL0     C98552   6.654  10.165   6.253 -0.1564  0.1661 -0.2134
  731MOL0     O98553   6.571  10.093   6.336  0.5115 -0.0501 -0.5639
  731MOL0     C98554   6.551  10.134   6.468 -0.6898 -0.0688 -0.0535
  731MOL0     C98555   6.648  10.166   6.554 -0.0108 -0.7017  0.2371
  731MOL0     C98556   6.624  10.223   6.684  0.2484  0.7111  0.5885
  731MOL0     C98557   6.495  10.234   6.730 -1.2691  0.7879  0.7717
  731MOL0     O98558   6.477  10.298   6.851 -0.6699  0.1674  0.2634
  731MOL0     C98559   6.372  10.403   6.853  0.8591 -1.3227 -0.4318
  731MOL0     C98560   6.394  10.522   6.763  0.2541 -0.2049 -0.1443
  731MOL0     C98561   6.280  10.619   6.780  0.0135  0.1305  0.5395
  731MOL0     C98562   6.298  10.741   6.682  0.6638  1.0536  0.0924
  731MOL0     C98563   6.403  10.844   6.741 -0.1243  0.3357 -0.1653
  731MOL0     C98564   6.334  10.908   6.857  0.1958  0.2339  0.2672
  731MOL0     C98565   6.419  11.021   6.902  0.2484  0.2460 -0.4308
  731MOL0     C98566   6.357  11.104   7.018 -0.2901  0.6362  0.6998
  731MOL0     N98567   6.452  11.204   7.067  0.2651 -0.0013 -0.3402
  731MOL0     C98568   6.520  11.196   7.188 -0.0143 -0.1967 -0.1109
  731MOL0     C98569   6.593  11.321   7.189  0.1580  0.1358  0.5362
  731MOL0     C98570   6.680  11.371   7.303 -0.6587  1.0577 -1.3048
  731MOL0     C98571   6.792  11.259   7.329  0.1964  0.9946 -0.8582
  731MOL0     C98572   6.870  11.284   7.464 -0.6662  0.1252  0.3132
  731MOL0     C98573   7.011  11.218   7.459  0.5430 -0.2865 -0.0187
  731MOL0     O98574   6.994  11.082   7.429 -0.5123  0.5868 -0.0682
  731MOL0     C98575   7.102  11.008   7.455 -1.1550 -0.5746 -0.3693
  731MOL0     C98576   7.088  10.877   7.502  0.5617  0.2350 -0.7465
  731MOL0     C98577   7.198  10.806   7.546  0.3185 -0.3223  0.3888
  731MOL0     C98578   7.328  10.861   7.550 -0.5639  0.4424  0.6738
  731MOL0     C98579   7.441  10.780   7.597  0.1887 -0.1732  0.3884
  731MOL0     O98580   7.568  10.830   7.584  0.3966 -0.1443  0.4039
  731MOL0     C98581   7.676  10.761   7.625 -0.8963 -0.1231 -0.3749
  731MOL0     C98582   7.780  10.743   7.534 -0.4715 -0.0344  0.6865
  731MOL0     C98583   7.898  10.677   7.567  1.3963  0.5774  0.9518
  731MOL0     C98584   7.906  10.614   7.692 -0.5405 -0.0565  0.1094
  731MOL0     O98585   8.029  10.542   7.711 -0.1522  0.4592  0.0330
  731MOL0     C98586   8.073  10.557   7.852 -0.3165  1.0916 -0.2551
  731MOL0     C98587   8.195  10.471   7.882  0.4088  0.0669  0.0061
  731MOL0     C98588   8.256  10.539   8.009 -0.2519 -0.5761  0.5163
  731MOL0     C98589   8.382  10.459   8.063  0.1293 -0.2307 -1.0626
  731MOL0     C98590   8.521  10.528   8.064  0.1959 -0.0863 -0.1189
  731MOL0     C98591   8.569  10.557   7.920 -1.2619 -0.0816  0.7335
  731MOL0     C98592   8.695  10.645   7.921 -0.6603  0.6178 -0.4821
  731MOL0     C98593   8.711  10.719   7.793 -0.5846  0.3688 -0.6061
  731MOL0    Cl98594   8.599  10.861   7.813 -0.0187  0.3055  0.4483
  731MOL0     C98595   7.801  10.628   7.786 -0.7614  1.5945 -0.3038
  731MOL0     C98596   7.691  10.700   7.750  0.4199  0.6789  0.3184
  731MOL0     O98597   7.414  10.663   7.628 -0.8361  0.3786 -0.0598
  731MOL0     C98598   7.343  10.988   7.496  0.2658 -0.9840  0.2766
  731MOL0     C98599   7.230  11.055   7.435  0.1448 -0.1847 -0.1599
  731MOL0     N98600   6.571  11.380   7.066 -0.6982  0.0028  0.5327
  731MOL0     N98601   6.480  11.315   6.998 -0.3167 -0.7698  0.1749
  731MOL0     C98602   6.396  10.200   6.637  0.3330  0.2469  0.9151
  731MOL0     C98603   6.421  10.145   6.515  0.7919  0.0541 -0.2422
  731MOL0     C98604   6.651  10.124   6.109  0.6648  0.2463  0.4141
  731MOL0     C98605   6.547  10.030   6.071  0.7804 -0.1462  0.4033
  731MOL0     C98606   6.527   9.988   5.938  0.0206  1.0832  0.6688
  731MOL0     C98607   6.618  10.030   5.840  0.5480 -0.0377  0.6186
  731MOL0     O98608   6.624  10.000   5.706  0.1860  0.6824 -0.2400
  731MOL0     C98609   6.530   9.905   5.649 -1.0831 -0.5003 -0.8968
  731MOL0     C98610   6.526   9.930   5.494 -0.5141  0.4701 -0.1043
  731MOL0     C98611   6.439   9.828   5.423  0.8691  0.5807  0.2187
  731MOL0     C98612   6.431   9.864   5.272  0.9785  0.5387 -0.8115
  731MOL0     C98613   6.353   9.981   5.249  0.4017  0.1625 -0.2429
  731MOL0     C98614   6.287  10.081   5.236 -0.8012  0.2136 -0.3199
  731MOL0     C98615   6.708  10.124   5.877  0.0368 -0.7658  0.0180
  731MOL0     C98616   6.740  10.169   6.008  0.1414  0.4450 -0.0802
  731MOL0     C98617   6.859  10.262   6.024  0.1197 -0.0637  0.0495
  731MOL0     H98618   6.746  10.170   6.509 -0.6605 -0.6994 -1.2468
  731MOL0     H98619   6.701  10.266   6.748 -0.2194 -0.7020  2.1666
  731MOL0     H98620   6.276  10.359   6.824 -0.1438  0.6388 -0.2599
  731MOL0     H98621   6.357  10.444   6.953 -1.7876  1.2729 -1.7218
  731MOL0     H98622   6.389  10.489   6.659 -1.7334  2.6603 -1.0805
  731MOL0     H98623   6.494  10.562   6.782  0.3579  0.4308 -1.8270
  731MOL0     H98624   6.264  10.654   6.883  1.2364  0.5464  0.5993
  731MOL0     H98625   6.192  10.556   6.762  0.2464  0.6583 -3.2203
  731MOL0     H98626   6.321  10.711   6.580  0.8750 -1.9552  0.9493
  731MOL0     H98627   6.204  10.796   6.672  0.5803  1.1092  1.1115
  731MOL0     H98628   6.498  10.799   6.769  0.7241  1.7429 -0.6914
  731MOL0     H98629   6.430  10.915   6.663  2.7386 -2.0555 -1.5613
  731MOL0     H98630   6.242  10.944   6.811  1.0626  0.0046 -1.7300
  731MOL0     H98631   6.305  10.842   6.939  0.8395 -0.5239 -0.0937
  731MOL0     H98632   6.449  11.091   6.824 -1.1130  1.6594  0.2757
  731MOL0     H98633   6.512  10.977   6.940 -0.1596  1.1963  1.8455
  731MOL0     H98634   6.272  11.148   6.965  0.7355  1.3331 -0.4222
  731MOL0     H98635   6.324  11.034   7.096 -2.6209 -0.4604 -1.1415
  731MOL0     H98636   6.508  11.137   7.278 -0.8098 -0.4906 -0.3989
  731MOL0     H98637   6.726  11.471   7.298  0.6391  0.5016 -0.8357
  731MOL0     H98638   6.615  11.378   7.391  0.3917  2.9173 -0.6097
  731MOL0     H98639   6.749  11.158   7.326  1.3940  0.4858 -2.0822
  731MOL0     H98640   6.869  11.254   7.251  0.3372 -0.6514 -0.6550
  731MOL0     H98641   6.807  11.246   7.545 -0.8628 -3.5943 -1.3523
  731MOL0     H98642   6.886  11.391   7.477 -0.9842  0.5019 -2.0160
  731MOL0     H98643   7.071  11.246   7.547 -0.8154  0.6272  0.6478
  731MOL0     H98644   7.065  11.261   7.374 -0.9568  1.0729 -0.3295
  731MOL0     H98645   6.991  10.828   7.508  0.1832  0.7789 -2.0970
  731MOL0     H98646   7.179  10.703   7.573  1.2632 -0.1550  1.8473
  731MOL0     H98647   7.757  10.793   7.441  1.7193 -0.8713 -0.3888
  731MOL0     H98648   7.969  10.654   7.487  1.8186  1.2166  1.1329
  731MOL0     H98649   8.095  10.662   7.872 -0.1624  0.9921  0.1065
  731MOL0     H98650   7.999  10.523   7.925  2.0796 -2.3287  0.8584
  731MOL0     H98651   8.171  10.367   7.902 -2.7961  1.0372  1.9351
  731MOL0     H98652   8.272  10.480   7.805  0.6928  1.1177  0.3959
  731MOL0     H98653   8.280  10.641   7.977  0.0972 -0.8908 -0.2343
  731MOL0     H98654   8.186  10.549   8.093  1.9073  0.1711  2.3253
  731MOL0     H98655   8.400  10.361   8.017 -0.0056 -0.4062 -0.7428
  731MOL0     H98656   8.358  10.442   8.169 -1.5104 -0.5778 -1.4690
  731MOL0     H98657   8.602  10.472   8.110  0.1265 -0.2774 -0.2274
  731MOL0     H98658   8.517  10.610   8.136  2.7355 -0.3278  0.3527
  731MOL0     H98659   8.594  10.466   7.864  0.6531  0.4600  0.6320
  731MOL0     H98660   8.496  10.606   7.855  2.5729  1.4152 -2.9443
  731MOL0     H98661   8.778  10.575   7.930 -1.6147 -0.4342  0.3768
  731MOL0     H98662   8.696  10.712   8.008  1.3684 -0.8997  0.7403
  731MOL0     H98663   8.817  10.743   7.776  0.0457 -0.5906  1.5352
  731MOL0     H98664   8.689  10.652   7.710 -1.1720 -1.6962  1.1279
  731MOL0     H98665   7.798  10.577   7.882 -2.1490  1.4950 -0.3895
  731MOL0     H98666   7.605  10.700   7.817  1.3380  0.9446  1.5315
  731MOL0     H98667   7.444  11.025   7.485  1.2326 -3.8994 -1.7034
  731MOL0     H98668   7.249  11.155   7.397  0.7059  0.2930  1.3104
  731MOL0     H98669   6.291  10.195   6.666 -0.6734 -0.4553 -2.4246
  731MOL0     H98670   6.345  10.115   6.443  1.8704 -2.7106 -0.3473
  731MOL0     H98671   6.472   9.998   6.142 -1.4789 -1.4572 -2.3914
  731MOL0     H98672   6.450   9.916   5.912  0.4320  1.5634 -2.1771
  731MOL0     H98673   6.440   9.898   5.711  1.8162 -1.2338  3.7361
  731MOL0     H98674   6.569   9.803   5.663 -2.3369 -0.6106  3.3967
  731MOL0     H98675   6.627   9.906   5.461 -0.7908 -1.2887  0.2250
  731MOL0     H98676   6.500  10.035   5.476  1.0981  1.2768  1.8807
  731MOL0     H98677   6.336   9.831   5.458  0.5218  1.4389 -0.8144
  731MOL0     H98678   6.483   9.728   5.429  0.7552  0.5320  0.2201
  731MOL0     H98679   6.531   9.879   5.231  0.7325  1.2968 -1.1529
  731MOL0     H98680   6.383   9.785   5.214 -3.1178  0.5410  2.1549
  731MOL0     H98681   6.224  10.168   5.232  0.0645  1.0811  2.5708
  731MOL0     H98682   6.765  10.155   5.791 -1.1978 -3.0800 -1.7496
  731MOL0     H98683   6.928  10.218   6.096 -0.6975 -3.0177 -0.8519
  731MOL0     H98684   6.909  10.275   5.928 -0.0945 -1.1835 -0.2231
  731MOL0     H98685   6.837  10.362   6.063  0.8711 -0.8050  2.5538
  732MOL0     O98686   0.414  11.146   3.169  0.2427 -0.3326 -0.5224
  732MOL0     C98687   0.533  11.176   3.178  0.5205 -0.5929  0.0217
  732MOL0     O98688   0.614  11.171   3.291  0.2733  0.6752 -0.1771
  732MOL0     C98689   0.560  11.145   3.420 -0.4520  0.0969  0.4122
  732MOL0     C98690   0.423  11.147   3.457  0.0072 -0.2374 -0.1090
  732MOL0     C98691   0.395  11.106   3.585 -0.0353 -0.0702  0.3605
  732MOL0     C98692   0.491  11.077   3.684  0.5609  1.0550 -0.4540
  732MOL0     O98693   0.458  11.055   3.818  0.0510  0.2352  0.3569
  732MOL0     C98694   0.319  11.052   3.855 -0.6292 -0.2001 -0.7868
  732MOL0     C98695   0.303  11.029   4.008  0.1528  0.1469  1.0537
  732MOL0     C98696   0.158  10.991   4.033  0.5469  0.3223  0.2177
  732MOL0     C98697   0.072  11.115   4.034  0.1772 -0.4767  0.9708
  732MOL0     C98698  -0.042  11.099   4.136  0.1437 -0.2668 -0.4514
  732MOL0     C98699  -0.133  11.227   4.163  0.1774  0.3294 -1.0759
  732MOL0     C98700  -0.237  11.203   4.278 -0.1934 -0.4114 -0.1858
  732MOL0     C98701  -0.345  11.108   4.233  0.2447  0.2493  0.3522
  732MOL0     N98702  -0.460  11.109   4.332 -0.2356 -0.6219 -0.1639
  732MOL0     C98703  -0.491  11.007   4.415  0.2226  1.0666 -0.4467
  732MOL0     C98704  -0.590  11.048   4.495  0.2163 -0.0965 -0.8577
  732MOL0     C98705  -0.650  10.968   4.613  0.1537 -0.6243 -0.0841
  732MOL0     C98706  -0.803  10.948   4.612  0.2900 -0.0044  0.3960
  732MOL0     C98707  -0.878  11.084   4.635 -0.2049  0.2883  0.5571
  732MOL0     C98708  -0.845  11.161   4.759  0.6572  0.5640 -0.5717
  732MOL0     O98709  -0.894  11.096   4.882 -0.0372 -0.2412  0.2895
  732MOL0     C98710  -1.026  11.098   4.898  0.9726  0.2924  0.3344
  732MOL0     C98711  -1.100  10.981   4.889  0.0867  0.7751 -0.6318
  732MOL0     C98712  -1.238  10.973   4.899  0.1509 -0.2701  0.1836
  732MOL0     C98713  -1.309  11.088   4.926 -0.0902 -0.6530  0.1758
  732MOL0     C98714  -1.461  11.089   4.923  0.5972 -0.6980  0.4476
  732MOL0     O98715  -1.512  10.972   4.880  0.1903  0.6026 -0.3128
  732MOL0     C98716  -1.647  10.939   4.895  0.6033 -0.1051  0.0634
  732MOL0     C98717  -1.733  11.036   4.843  1.0777 -0.0447 -0.0594
  732MOL0     C98718  -1.874  11.021   4.850  0.7764  0.1413 -0.2862
  732MOL0     C98719  -1.931  10.907   4.919 -0.5851  0.1946 -0.4513
  732MOL0     O98720  -2.068  10.874   4.926 -0.2445 -0.8279 -0.2783
  732MOL0     C98721  -2.159  10.969   4.882  0.2401  0.0901 -0.5016
  732MOL0     C98722  -2.298  10.941   4.944 -0.4674  0.9504  0.4993
  732MOL0     C98723  -2.354  10.804   4.893 -0.5136  0.0149  0.0530
  732MOL0     C98724  -2.462  10.765   4.985 -0.0242  0.6397  0.2223
  732MOL0     C98725  -2.519  10.626   4.957 -0.2360  0.2513  0.6888
  732MOL0     C98726  -2.632  10.601   5.049  0.3536 -0.4098 -0.8850
  732MOL0     C98727  -2.705  10.468   5.005 -1.4869 -0.4338  0.1890
  732MOL0     C98728  -2.851  10.451   5.071 -0.5740  0.1977  0.0746
  732MOL0    Cl98729  -2.817  10.454   5.243  0.2709  0.4790 -0.5534
  732MOL0     C98730  -1.842  10.819   4.980  0.2512  0.3363  0.0460
  732MOL0     C98731  -1.701  10.831   4.967 -0.3878  0.2114 -0.4529
  732MOL0     O98732  -1.521  11.195   4.963  0.4276  0.3860 -0.3358
  732MOL0     C98733  -1.235  11.214   4.921  0.2292  0.3919  0.1576
  732MOL0     C98734  -1.094  11.216   4.901  1.2205 -0.1188 -0.5927
  732MOL0     N98735  -0.603  11.184   4.466 -0.1604  0.8593  0.0275
  732MOL0     N98736  -0.532  11.217   4.361  0.1760 -0.0247 -1.4910
  732MOL0     C98737   0.622  11.085   3.642 -0.5538  0.2325 -0.4950
  732MOL0     C98738   0.660  11.114   3.514  0.0117  0.8267  0.1358
  732MOL0     C98739   0.598  11.220   3.053 -0.0177 -0.3308 -0.1651
  732MOL0     C98740   0.741  11.192   3.033 -1.6806  0.8386  0.0901
  732MOL0     C98741   0.804  11.211   2.909  0.1963  0.2669  0.2206
  732MOL0     C98742   0.730  11.267   2.802 -0.5570 -0.8179  0.8343
  732MOL0     O98743   0.803  11.293   2.686 -0.1482  0.6673  1.0006
  732MOL0     C98744   0.764  11.212   2.570 -0.3831 -1.0184  0.7836
  732MOL0     C98745   0.865  11.225   2.455 -0.8417  0.3598 -1.0459
  732MOL0     C98746   0.998  11.146   2.489 -0.1038 -0.2679  0.2378
  732MOL0     C98747   1.106  11.221   2.557  0.1147 -0.2591  0.4511
  732MOL0     C98748   1.213  11.122   2.572 -0.0673 -0.1015 -0.0972
  732MOL0     C98749   1.305  11.038   2.576 -0.1705 -0.5793 -0.8467
  732MOL0     C98750   0.604  11.304   2.820 -0.4905  0.1628  0.8335
  732MOL0     C98751   0.534  11.284   2.943 -0.2550 -0.1166 -0.2386
  732MOL0     C98752   0.394  11.341   2.959 -0.5999 -0.6346 -0.4069
  732MOL0     H98753   0.334  11.172   3.399 -0.3738 -3.5354 -1.1701
  732MOL0     H98754   0.291  11.091   3.612 -0.2865  1.5998  0.3899
  732MOL0     H98755   0.281  11.154   3.843 -1.0293 -0.1372  0.8510
  732MOL0     H98756   0.273  10.968   3.800 -2.2664 -0.4139  0.8208
  732MOL0     H98757   0.333  11.121   4.060  0.7694  0.7497 -0.3409
  732MOL0     H98758   0.369  10.954   4.053  1.5220  1.2709  0.9943
  732MOL0     H98759   0.173  10.957   4.136  6.5824 -0.9839 -0.7629
  732MOL0     H98760   0.120  10.914   3.965 -0.9143  2.2371 -1.2255
  732MOL0     H98761   0.140  11.199   4.053 -0.2993  1.0210 -2.9985
  732MOL0     H98762   0.041  11.130   3.931 -0.2742 -0.6728  1.0776
  732MOL0     H98763  -0.096  11.007   4.108 -0.3596 -0.5436  1.3077
  732MOL0     H98764   0.004  11.078   4.233  0.5922 -0.1138 -0.6273
  732MOL0     H98765  -0.071  11.305   4.206  0.0846 -0.9290  1.4906
  732MOL0     H98766  -0.180  11.257   4.068  3.0812 -0.0747 -2.7666
  732MOL0     H98767  -0.276  11.295   4.323 -2.2524 -2.7874  3.3372
  732MOL0     H98768  -0.179  11.159   4.360 -0.3941  0.9764  0.7511
  732MOL0     H98769  -0.377  11.154   4.139  3.8125  0.6282 -0.8225
  732MOL0     H98770  -0.314  11.005   4.214  0.2208 -0.5996  4.1788
  732MOL0     H98771  -0.451  10.906   4.415 -1.2222  0.3945  2.2824
  732MOL0     H98772  -0.610  10.866   4.600 -0.0747 -0.6574 -0.5740
  732MOL0     H98773  -0.617  11.010   4.708 -1.1850  2.2141 -0.7886
  732MOL0     H98774  -0.837  10.904   4.517  1.6562 -1.9786  0.7417
  732MOL0     H98775  -0.831  10.874   4.688 -1.8169  1.2891  0.9384
  732MOL0     H98776  -0.987  11.070   4.638 -0.0876 -0.6441  2.8600
  732MOL0     H98777  -0.849  11.151   4.554  2.0450 -0.6872  0.4807
  732MOL0     H98778  -0.903  11.253   4.740 -0.1593 -0.0889 -1.3387
  732MOL0     H98779  -0.749  11.212   4.765  0.1249  1.9157 -2.4697
  732MOL0     H98780  -1.043  10.890   4.870  1.3469  1.2352  0.7818
  732MOL0     H98781  -1.289  10.878   4.892  1.1414 -0.9673  1.8031
  732MOL0     H98782  -1.696  11.117   4.780  2.6010 -1.3175 -0.8688
  732MOL0     H98783  -1.939  11.094   4.803 -1.7576 -0.8514  1.4042
  732MOL0     H98784  -2.132  11.069   4.917  0.5803 -0.0753 -0.2845
  732MOL0     H98785  -2.162  10.996   4.776 -2.8259  1.4335 -0.1606
  732MOL0     H98786  -2.297  10.937   5.053 -4.3405 -2.5560  0.6531
  732MOL0     H98787  -2.359  11.027   4.916 -2.7704 -1.0549 -1.0948
  732MOL0     H98788  -2.397  10.813   4.793 -2.8204  2.7483  1.1664
  732MOL0     H98789  -2.270  10.734   4.897  0.3969  1.1580  1.3219
  732MOL0     H98790  -2.538  10.844   4.979  0.4146  1.1188  0.8738
  732MOL0     H98791  -2.432  10.763   5.090 -0.4998 -1.3599  0.3626
  732MOL0     H98792  -2.442  10.548   4.963  0.7529  1.2285  1.1344
  732MOL0     H98793  -2.547  10.627   4.852  2.4076  0.2540 -0.0882
  732MOL0     H98794  -2.591  10.596   5.150  0.6823 -1.6995 -1.0645
  732MOL0     H98795  -2.703  10.684   5.041  2.1241  1.1748 -1.0954
  732MOL0     H98796  -2.641  10.387   5.040  0.8982  2.0531  2.0358
  732MOL0     H98797  -2.719  10.452   4.897 -2.6583 -0.1184  0.2749
  732MOL0     H98798  -2.921  10.529   5.039  0.3574  0.6601 -0.9094
  732MOL0     H98799  -2.879  10.350   5.041  1.9711 -0.7039  0.4976
  732MOL0     H98800  -1.877  10.726   5.025 -2.0448  0.7595 -0.7250
  732MOL0     H98801  -1.636  10.752   5.004 -0.7502 -0.6561 -1.6080
  732MOL0     H98802  -1.298  11.296   4.956  0.2925 -0.2291  1.8432
  732MOL0     H98803  -1.044  11.313   4.908 -0.7512  0.8891  0.2176
  732MOL0     H98804   0.702  11.066   3.713 -0.1647  1.5116 -0.5654
  732MOL0     H98805   0.767  11.131   3.502  0.8871  0.9650  5.5594
  732MOL0     H98806   0.802  11.154   3.115  0.8802 -1.0005 -2.4724
  732MOL0     H98807   0.908  11.183   2.892 -0.1254 -1.5324  1.0311
  732MOL0     H98808   0.663  11.245   2.544 -0.0016 -2.6367 -3.4977
  732MOL0     H98809   0.760  11.108   2.605  3.1190 -0.7866  2.3070
  732MOL0     H98810   0.895  11.329   2.436  3.7314 -0.1827  1.7988
  732MOL0     H98811   0.821  11.173   2.369 -1.2508 -1.7989  0.3862
  732MOL0     H98812   1.036  11.111   2.392  0.4839  0.2968  0.2576
  732MOL0     H98813   0.975  11.057   2.548 -0.0782  0.9586  2.1726
  732MOL0     H98814   1.137  11.306   2.495 -1.0449  2.1929  3.0306
  732MOL0     H98815   1.082  11.261   2.655 -0.0156 -1.8230  1.0890
  732MOL0     H98816   1.387  10.972   2.555  0.6615  0.1049  0.1439
  732MOL0     H98817   0.549  11.350   2.739  3.2734 -0.9174 -2.6942
  732MOL0     H98818   0.362  11.342   3.063 -1.1102 -1.1884 -0.5529
  732MOL0     H98819   0.397  11.444   2.920  1.4735 -0.5394 -0.1071
  732MOL0     H98820   0.322  11.284   2.898 -0.9856 -0.9658  0.3462
  733MOL0     O98821   7.212   6.401   3.357 -0.1392 -0.6293 -0.0614
  733MOL0     C98822   7.230   6.494   3.278 -0.3568 -0.1320  0.4259
  733MOL0     O98823   7.344   6.554   3.252 -0.4001 -0.4491 -0.5033
  733MOL0     C98824   7.451   6.523   3.323  0.0721  0.2050 -0.8882
  733MOL0     C98825   7.468   6.532   3.460  0.0962 -0.0288 -0.9785
  733MOL0     C98826   7.586   6.480   3.517  0.7935  0.2265  0.4863
  733MOL0     C98827   7.695   6.455   3.433  0.2811  0.1881  0.0235
  733MOL0     O98828   7.806   6.415   3.496 -0.3382  0.0985  0.2538
  733MOL0     C98829   7.922   6.494   3.462  0.1023  0.4410  0.0024
  733MOL0     C98830   8.007   6.456   3.340  0.6000  0.7965 -0.3432
  733MOL0     C98831   8.147   6.526   3.343  0.4359  1.1675 -0.8856
  733MOL0     C98832   8.212   6.537   3.209  1.0961  0.3848 -0.7372
  733MOL0     C98833   8.344   6.604   3.219 -0.1254 -0.6181 -0.3587
  733MOL0     C98834   8.410   6.604   3.079  0.1620  0.3819  0.3780
  733MOL0     C98835   8.536   6.683   3.076  0.1774 -0.7341 -0.4408
  733MOL0     C98836   8.608   6.711   2.934  0.3869  0.5199  0.3759
  733MOL0     N98837   8.746   6.749   2.957 -0.2075  0.0324  0.4526
  733MOL0     C98838   8.777   6.877   2.994 -0.0673 -0.8433  0.7401
  733MOL0     C98839   8.917   6.887   2.987  1.0174  0.9217  0.4686
  733MOL0     C98840   8.995   7.007   3.005  0.1565  0.1388  0.4633
  733MOL0     C98841   9.098   6.984   3.115 -0.2453  0.2796  0.5640
  733MOL0     C98842   9.165   7.122   3.126 -0.1506 -0.1794 -0.0485
  733MOL0     C98843   9.280   7.120   3.235 -1.1302 -0.2710 -0.2679
  733MOL0     O98844   9.409   7.063   3.190 -0.9059 -0.1592  0.4615
  733MOL0     C98845   9.492   7.163   3.145 -0.7836  0.0129  0.3747
  733MOL0     C98846   9.563   7.235   3.243  0.2030  0.2737 -0.3400
  733MOL0     C98847   9.660   7.330   3.205  0.1817 -0.8968  0.9607
  733MOL0     C98848   9.695   7.359   3.071 -0.0095  0.5294 -1.0085
  733MOL0     C98849   9.810   7.438   3.039  0.1119  0.0844  1.2364
  733MOL0     O98850   9.886   7.490   3.146 -0.6996  0.9795 -0.9943
  733MOL0     C98851  10.011   7.542   3.119 -0.2693 -0.0272 -0.0929
  733MOL0     C98852  10.102   7.452   3.070 -0.7244  0.5673  0.2995
  733MOL0     C98853  10.237   7.488   3.057  0.0490 -0.2811  0.3412
  733MOL0     C98854  10.283   7.624   3.088 -0.4363  0.4926 -0.9696
  733MOL0     O98855  10.418   7.658   3.092  0.4684  0.1603 -0.4019
  733MOL0     C98856  10.480   7.626   3.217  0.0375 -0.4139  0.6298
  733MOL0     C98857  10.620   7.567   3.184 -0.3830  0.0534  0.1138
  733MOL0     C98858  10.620   7.432   3.097  0.6437  0.6085 -0.5929
  733MOL0     C98859  10.757   7.399   3.036 -0.1565  0.1382 -1.1778
  733MOL0     C98860  10.757   7.290   2.938  0.0133 -0.0569 -0.6558
  733MOL0     C98861  10.900   7.230   2.904 -0.8624 -0.5322 -0.5880
  733MOL0     C98862  10.881   7.110   2.800 -0.4453  0.3006 -0.4254
  733MOL0     C98863  10.994   7.005   2.808  0.7991  0.1453 -0.0182
  733MOL0    Cl98864  11.159   7.070   2.807  0.1177 -0.5397  0.0257
  733MOL0     C98865  10.181   7.709   3.133 -0.0276 -0.3159 -0.3226
  733MOL0     C98866  10.046   7.674   3.143 -0.0527 -0.2837  0.0208
  733MOL0     O98867   9.828   7.463   2.923 -0.1933 -0.3635 -0.1160
  733MOL0     C98868   9.618   7.289   2.975  0.2399 -0.1863  0.4354
  733MOL0     C98869   9.522   7.189   3.015 -0.0535  0.6367 -0.8655
  733MOL0     N98870   8.967   6.761   2.973 -0.2653 -0.0090  0.0231
  733MOL0     N98871   8.863   6.684   2.940 -0.2168  0.3636 -0.3674
  733MOL0     C98872   7.678   6.443   3.300 -0.3486  0.0463  0.6040
  733MOL0     C98873   7.559   6.486   3.243 -0.6660 -0.4578  0.0620
  733MOL0     C98874   7.117   6.566   3.229  0.7496 -0.0495 -0.2761
  733MOL0     C98875   7.130   6.705   3.198 -0.4057 -0.1634 -0.0326
  733MOL0     C98876   7.020   6.777   3.147 -0.7992  0.3933 -0.4833
  733MOL0     C98877   6.892   6.726   3.142 -0.1826 -0.0604  0.4284
  733MOL0     O98878   6.778   6.790   3.108  0.6739  0.7034 -0.3641
  733MOL0     C98879   6.774   6.913   3.033  0.0962 -0.3494  0.1627
  733MOL0     C98880   6.629   6.964   3.010  0.9577  0.9187  0.1384
  733MOL0     C98881   6.552   6.886   2.907  0.2932  0.0164 -0.3367
  733MOL0     C98882   6.413   6.923   2.876  0.1531 -0.5236  0.1032
  733MOL0     C98883   6.320   6.938   2.988 -0.3000 -0.4961  0.0058
  733MOL0     C98884   6.265   6.933   3.097  0.0432  0.0224  0.3331
  733MOL0     C98885   6.874   6.599   3.188  0.0805  0.1233  0.2569
  733MOL0     C98886   6.983   6.512   3.225  0.1361  0.0655 -0.6503
  733MOL0     C98887   6.963   6.359   3.224  0.1052  0.5249 -0.5075
  733MOL0     H98888   7.376   6.558   3.511 -0.7430  0.5716 -2.7309
  733MOL0     H98889   7.595   6.472   3.624  3.4229  0.4545  0.3431
  733MOL0     H98890   7.894   6.599   3.452 -0.9114  0.5527  2.9190
  733MOL0     H98891   7.976   6.501   3.557 -0.3799  1.9063  0.1857
  733MOL0     H98892   7.956   6.496   3.253 -2.8269 -1.9517  0.1384
  733MOL0     H98893   7.993   6.347   3.334 -2.0384  0.8031  2.5777
  733MOL0     H98894   8.204   6.466   3.414 -1.5336 -0.8513 -0.8857
  733MOL0     H98895   8.132   6.630   3.375 -1.1161 -0.2441  3.7916
  733MOL0     H98896   8.231   6.438   3.166  1.3406 -0.0532  0.3427
  733MOL0     H98897   8.148   6.590   3.138  2.0672  0.3079 -1.7030
  733MOL0     H98898   8.329   6.707   3.253  0.9400  0.9581 -4.1600
  733MOL0     H98899   8.412   6.547   3.282  0.8473 -0.1527 -0.9704
  733MOL0     H98900   8.442   6.502   3.056 -1.6922 -0.2932  0.6101
  733MOL0     H98901   8.338   6.632   3.001  0.7495  1.1828  0.1084
  733MOL0     H98902   8.610   6.638   3.142  2.1851  0.5583 -1.6988
  733MOL0     H98903   8.523   6.782   3.122  3.2569 -2.3681  4.8005
  733MOL0     H98904   8.600   6.619   2.874 -0.2617  1.9199 -1.7940
  733MOL0     H98905   8.565   6.791   2.875 -0.4631  1.1651  1.8173
  733MOL0     H98906   8.712   6.949   3.043  0.7916 -0.6599  1.6534
  733MOL0     H98907   9.040   7.027   2.907 -0.9993 -0.3376 -0.1773
  733MOL0     H98908   8.941   7.100   3.024  0.9424  0.9016 -0.8795
  733MOL0     H98909   9.039   6.950   3.201  1.2114 -5.6353 -0.3114
  733MOL0     H98910   9.169   6.907   3.083 -0.2831  0.0827  0.9467
  733MOL0     H98911   9.089   7.192   3.162 -1.4711 -1.9621  0.7713
  733MOL0     H98912   9.209   7.157   3.033 -2.0072  1.8277 -0.2441
  733MOL0     H98913   9.238   7.065   3.320  0.8453 -0.7886  0.4249
  733MOL0     H98914   9.295   7.226   3.258  1.4745  0.1076 -3.0576
  733MOL0     H98915   9.534   7.211   3.345  0.9311  1.8696  0.2725
  733MOL0     H98916   9.722   7.366   3.286  1.2419  1.1920 -0.6744
  733MOL0     H98917  10.078   7.355   3.028  1.5861 -0.7930  1.9055
  733MOL0     H98918  10.314   7.418   3.028 -0.3884  0.4228 -2.8235
  733MOL0     H98919  10.496   7.722   3.266 -2.1960 -1.7055  4.2887
  733MOL0     H98920  10.420   7.560   3.281 -0.9469 -0.6962 -0.5395
  733MOL0     H98921  10.673   7.642   3.126  2.9171 -1.6271  0.7131
  733MOL0     H98922  10.677   7.541   3.273  0.3321 -0.7196 -0.5518
  733MOL0     H98923  10.584   7.346   3.154  0.5899 -0.0102 -1.5386
  733MOL0     H98924  10.554   7.450   3.011 -1.2954 -0.6067  0.5539
  733MOL0     H98925  10.823   7.382   3.122 -1.5369 -3.1963 -0.5952
  733MOL0     H98926  10.793   7.492   2.992  0.6114  1.2480  1.6049
  733MOL0     H98927  10.715   7.325   2.843 -1.1019 -1.4582 -0.6956
  733MOL0     H98928  10.692   7.209   2.970  1.1811 -0.7017  0.1501
  733MOL0     H98929  10.968   7.297   2.850  1.5643 -1.7652  0.7949
  733MOL0     H98930  10.933   7.199   3.004 -1.7363  4.6655  1.6450
  733MOL0     H98931  10.864   7.147   2.698  2.8532 -0.8636 -1.5391
  733MOL0     H98932  10.791   7.056   2.831 -0.9961  1.3855 -0.1074
  733MOL0     H98933  10.980   6.937   2.892 -0.3734  1.3644  0.8035
  733MOL0     H98934  11.007   6.949   2.715  0.0094  1.8273 -1.1922
  733MOL0     H98935  10.210   7.809   3.163  0.8053 -0.4371 -0.7041
  733MOL0     H98936   9.972   7.750   3.165 -0.2110 -0.0768 -1.1768
  733MOL0     H98937   9.637   7.303   2.869  1.6890 -3.0666  0.2272
  733MOL0     H98938   9.464   7.146   2.934 -1.0298  1.7836 -0.7984
  733MOL0     H98939   7.757   6.416   3.231 -1.0733 -1.4003  0.3112
  733MOL0     H98940   7.546   6.496   3.136  0.6007 -0.2599 -0.0790
  733MOL0     H98941   7.230   6.747   3.206  0.4434 -2.2270  0.7686
  733MOL0     H98942   7.039   6.881   3.126  0.3875  0.7144  1.8410
  733MOL0     H98943   6.814   6.905   2.931 -1.9683  1.3684 -0.8685
  733MOL0     H98944   6.828   6.993   3.084 -2.6138  1.6149  0.1892
  733MOL0     H98945   6.638   7.071   2.990 -0.5147  1.8084  3.5013
  733MOL0     H98946   6.569   6.962   3.102 -2.1226  1.0607 -1.7116
  733MOL0     H98947   6.561   6.781   2.935 -2.9286 -0.8393 -2.0240
  733MOL0     H98948   6.608   6.901   2.814  0.7198  1.0460  0.0695
  733MOL0     H98949   6.409   7.016   2.819  1.9580 -2.0839 -2.8109
  733MOL0     H98950   6.358   6.851   2.814 -0.1954 -2.3357  2.3686
  733MOL0     H98951   6.216   6.921   3.192  1.1828  1.9003  1.2127
  733MOL0     H98952   6.779   6.548   3.182  0.5020 -0.9081  1.7643
  733MOL0     H98953   6.989   6.319   3.323 -1.5202 -1.6986 -0.8851
  733MOL0     H98954   6.858   6.337   3.203 -0.0232  0.4964  0.1285
  733MOL0     H98955   7.025   6.316   3.145  0.1328  1.2920 -0.9049
  734MOL0     O98956   9.914   6.653   2.713  0.1469  0.4632 -0.3295
  734MOL0     C98957   9.975   6.756   2.689 -1.0473  0.2535 -0.1947
  734MOL0     O98958  10.108   6.754   2.650 -0.0522 -0.3834 -0.1766
  734MOL0     C98959  10.183   6.634   2.664  0.8770 -0.7583  0.5605
  734MOL0     C98960  10.234   6.581   2.550 -0.7107 -0.0030  0.5370
  734MOL0     C98961  10.313   6.469   2.556 -0.0552  0.4786 -1.2636
  734MOL0     C98962  10.350   6.415   2.681  0.7739  0.4561  0.8725
  734MOL0     O98963  10.436   6.307   2.677  0.3491 -0.3836 -0.7630
  734MOL0     C98964  10.549   6.311   2.764 -0.2954 -0.2766  0.7100
  734MOL0     C98965  10.681   6.347   2.688  0.0863  0.5511 -0.1602
  734MOL0     C98966  10.655   6.468   2.600  0.5698 -0.2372 -0.2458
  734MOL0     C98967  10.778   6.534   2.551  0.2621  0.5702 -0.3453
  734MOL0     C98968  10.766   6.683   2.525  0.2162  0.7407  0.4666
  734MOL0     C98969  10.887   6.725   2.445 -0.4946 -0.5298 -0.6013
  734MOL0     C98970  10.903   6.884   2.420  0.4175  0.1397  0.0256
  734MOL0     C98971  11.030   6.933   2.360  0.3284  0.7451 -0.1706
  734MOL0     N98972  11.030   7.082   2.362  0.5672  0.0636  0.3704
  734MOL0     C98973  11.071   7.139   2.485 -0.3343  0.1244 -0.4045
  734MOL0     C98974  11.052   7.268   2.451  0.8896 -0.9986  0.2921
  734MOL0     C98975  11.049   7.380   2.553 -0.4314 -0.9162  0.2649
  734MOL0     C98976  11.180   7.407   2.630  0.6524 -0.5554 -0.2248
  734MOL0     C98977  11.301   7.391   2.544 -0.4186 -0.1471 -0.1637
  734MOL0     C98978  11.304   7.471   2.412  0.2069 -0.9593  0.2540
  734MOL0     O98979  11.420   7.409   2.345 -1.3495 -0.0293 -0.1732
  734MOL0     C98980  11.449   7.428   2.213  0.0548  0.7574 -0.3956
  734MOL0     C98981  11.564   7.367   2.168  0.1087 -0.7225  0.0077
  734MOL0     C98982  11.601   7.377   2.031 -0.3517 -0.2953  0.5608
  734MOL0     C98983  11.531   7.451   1.935  0.4490 -0.0567 -0.8586
  734MOL0     C98984  11.554   7.438   1.792  0.4975  0.8239  0.4547
  734MOL0     O98985  11.484   7.527   1.712  0.0538  0.5332 -0.3937
  734MOL0     C98986  11.502   7.530   1.574 -0.3294  0.0019 -0.4044
  734MOL0     C98987  11.520   7.647   1.497  0.3018 -0.2590 -0.6377
  734MOL0     C98988  11.521   7.649   1.361  0.0366 -0.0027 -0.0226
  734MOL0     C98989  11.509   7.527   1.297  0.3766  0.9953 -1.0525
  734MOL0     O98990  11.531   7.521   1.168 -0.1433 -0.4765  0.8264
  734MOL0     C98991  11.451   7.615   1.094 -0.6629  0.4391 -0.3766
  734MOL0     C98992  11.465   7.573   0.951 -0.0243 -0.1501  0.5685
  734MOL0     C98993  11.375   7.641   0.839 -0.4981 -0.0060 -0.0303
  734MOL0     C98994  11.401   7.792   0.806  0.1332  1.0359  0.2787
  734MOL0     C98995  11.326   7.829   0.675  0.6866 -0.5567 -0.4321
  734MOL0     C98996  11.178   7.817   0.709 -0.1793 -0.2690  0.6142
  734MOL0     C98997  11.093   7.850   0.590  0.0004  0.1667 -0.1912
  734MOL0     C98998  10.970   7.914   0.651  0.6010 -0.1278 -0.6571
  734MOL0    Cl98999  10.846   7.983   0.531 -0.4557 -0.0387 -0.2808
  734MOL0     C99000  11.484   7.401   1.367 -0.5194  0.5862  0.2283
  734MOL0     C99001  11.487   7.403   1.508  0.1624  0.7959  0.7768
  734MOL0     O99002  11.647   7.361   1.748  0.0568  0.2634  0.3085
  734MOL0     C99003  11.406   7.510   1.978 -0.1345  0.2012 -0.1594
  734MOL0     C99004  11.368   7.491   2.118 -1.1653  0.1279  0.4264
  734MOL0     N99005  11.016   7.281   2.315  1.0277  0.8670 -0.6115
  734MOL0     N99006  11.001   7.161   2.260  0.6994  0.2659 -0.2113
  734MOL0     C99007  10.296   6.468   2.799  1.0675 -0.4833 -0.7996
  734MOL0     C99008  10.219   6.583   2.786  0.2921  0.1286 -0.6152
  734MOL0     C99009   9.903   6.887   2.686  0.3006 -0.2046  0.1960
  734MOL0     C99010   9.770   6.884   2.638 -0.0845  0.2035 -0.4070
  734MOL0     C99011   9.696   7.007   2.603 -0.0291 -0.3715 -0.6075
  734MOL0     C99012   9.758   7.134   2.616 -0.6213 -0.0899 -0.0717
  734MOL0     O99013   9.701   7.259   2.596 -0.7046 -0.9404  0.5324
  734MOL0     C99014   9.567   7.274   2.560  0.2935 -0.5049  0.9202
  734MOL0     C99015   9.549   7.422   2.579  0.8660 -0.2086 -0.6186
  734MOL0     C99016   9.604   7.504   2.463 -0.3844 -0.1421  0.0779
  734MOL0     C99017   9.510   7.599   2.394 -0.5112  0.7723  0.3045
  734MOL0     C99018   9.466   7.532   2.274 -0.2130 -0.2667  0.3991
  734MOL0     C99019   9.439   7.483   2.165 -0.0134 -0.0692 -0.7462
  734MOL0     C99020   9.891   7.132   2.661  0.3228 -0.2287  1.0817
  734MOL0     C99021   9.962   7.013   2.700 -0.2855  0.8438 -0.2843
  734MOL0     C99022  10.089   7.048   2.770 -0.4129  0.7293 -0.2513
  734MOL0     H99023  10.200   6.616   2.453  1.1210  1.2350  0.2872
  734MOL0     H99024  10.343   6.416   2.467  2.4346 -1.8271  0.7747
  734MOL0     H99025  10.539   6.387   2.843 -0.7660  0.2417  0.1640
  734MOL0     H99026  10.562   6.213   2.811 -1.9021 -1.3452 -0.9376
  734MOL0     H99027  10.723   6.264   2.630  0.9822  1.3571 -0.6930
  734MOL0     H99028  10.750   6.377   2.768 -0.4716 -2.0765  1.4136
  734MOL0     H99029  10.603   6.548   2.653  3.3002 -0.3495  2.9315
  734MOL0     H99030  10.589   6.442   2.517 -0.8753  1.3435  0.3462
  734MOL0     H99031  10.853   6.530   2.631 -0.3520 -0.7526  0.2044
  734MOL0     H99032  10.805   6.484   2.458 -2.0861 -0.9190 -0.3070
  734MOL0     H99033  10.675   6.701   2.467  0.8981  0.4577 -0.7224
  734MOL0     H99034  10.762   6.739   2.619  3.2195  4.0330 -1.1591
  734MOL0     H99035  10.973   6.673   2.489 -3.0876 -3.9197  0.9503
  734MOL0     H99036  10.876   6.689   2.342 -3.4050 -1.4884 -0.0484
  734MOL0     H99037  10.893   6.930   2.519 -0.6921  0.4842 -0.2242
  734MOL0     H99038  10.822   6.924   2.359 -0.2414 -1.5528 -0.2618
  734MOL0     H99039  11.123   6.900   2.407  0.6790  0.7513 -0.8468
  734MOL0     H99040  11.028   6.903   2.255 -3.1839 -0.0576 -0.0157
  734MOL0     H99041  11.113   7.095   2.575  0.9925 -0.8674 -1.4648
  734MOL0     H99042  11.028   7.473   2.500 -1.4832 -0.9096  0.6749
  734MOL0     H99043  10.961   7.380   2.618 -1.0237 -0.2630 -0.5303
  734MOL0     H99044  11.182   7.512   2.661 -0.4995 -0.8476  0.9447
  734MOL0     H99045  11.189   7.345   2.719  1.7280 -1.0783 -0.6747
  734MOL0     H99046  11.333   7.287   2.529 -0.8508  0.0880 -3.4271
  734MOL0     H99047  11.389   7.434   2.594 -2.0531  3.1159  0.1417
  734MOL0     H99048  11.323   7.577   2.433 -0.1081 -0.7350 -0.5969
  734MOL0     H99049  11.208   7.470   2.362  0.0641  3.7233  0.0197
  734MOL0     H99050  11.619   7.316   2.246  2.1125 -0.6433 -1.2902
  734MOL0     H99051  11.689   7.322   2.000 -0.6115 -0.2261 -0.3273
  734MOL0     H99052  11.518   7.740   1.554  0.3134 -1.9614  2.3835
  734MOL0     H99053  11.540   7.744   1.314 -0.0903 -0.1700 -0.4166
  734MOL0     H99054  11.346   7.594   1.116 -0.5341 -0.3658 -0.5190
  734MOL0     H99055  11.466   7.721   1.116  1.8662 -0.3161  2.2320
  734MOL0     H99056  11.574   7.570   0.939 -0.1086 -0.8125 -0.1123
  734MOL0     H99057  11.441   7.467   0.944  1.6782 -0.5296  0.0600
  734MOL0     H99058  11.385   7.579   0.749 -3.5544 -1.2600  0.3751
  734MOL0     H99059  11.273   7.620   0.871 -0.0946 -1.8745  0.1531
  734MOL0     H99060  11.510   7.804   0.808  0.6635 -2.6579  0.1248
  734MOL0     H99061  11.368   7.859   0.886 -1.1771  0.8506 -0.0792
  734MOL0     H99062  11.357   7.766   0.591 -0.2422  0.2258 -1.4041
  734MOL0     H99063  11.347   7.930   0.638  1.7996 -0.5835  0.1032
  734MOL0     H99064  11.158   7.712   0.733  1.2666 -1.1559 -1.7023
  734MOL0     H99065  11.155   7.886   0.792  1.5319  1.0694  0.0409
  734MOL0     H99066  11.068   7.762   0.531 -0.8580  0.3990 -0.1884
  734MOL0     H99067  11.137   7.921   0.520 -1.1159  0.6586 -0.4253
  734MOL0     H99068  10.920   7.847   0.721  1.0686 -0.5734 -0.7397
  734MOL0     H99069  10.999   8.001   0.710  0.5242 -2.3757  2.9499
  734MOL0     H99070  11.469   7.305   1.319 -1.2246 -0.5894  2.6516
  734MOL0     H99071  11.476   7.316   1.572  0.7654  2.5535  3.4524
  734MOL0     H99072  11.339   7.546   1.901 -0.0139  0.5144 -0.1165
  734MOL0     H99073  11.268   7.516   2.152 -1.6959 -1.6517  0.2664
  734MOL0     H99074  10.311   6.423   2.897  1.9609  1.2905 -0.0787
  734MOL0     H99075  10.180   6.638   2.872 -2.4643 -1.0009 -1.0489
  734MOL0     H99076   9.709   6.795   2.623 -1.3612  0.6566  1.6484
  734MOL0     H99077   9.593   7.007   2.568 -0.6080 -1.4227  0.9724
  734MOL0     H99078   9.499   7.222   2.629 -1.4472  1.6174  0.9206
  734MOL0     H99079   9.547   7.239   2.459 -3.5077 -0.8673  1.6434
  734MOL0     H99080   9.599   7.457   2.670  0.9463 -1.9028  0.0238
  734MOL0     H99081   9.445   7.437   2.612  0.7888 -2.2354  0.1580
  734MOL0     H99082   9.636   7.429   2.390  1.9822  1.1570 -0.3274
  734MOL0     H99083   9.690   7.554   2.507 -0.5743 -0.7415  1.1539
  734MOL0     H99084   9.434   7.635   2.464  0.2151  1.0707  0.9552
  734MOL0     H99085   9.574   7.678   2.354  2.6434 -1.2602  0.9720
  734MOL0     H99086   9.420   7.427   2.076  0.1019  1.0450 -1.4870
  734MOL0     H99087   9.940   7.227   2.678 -0.2865  0.4803 -0.8624
  734MOL0     H99088  10.144   7.107   2.696 -1.7487  1.7517 -0.4659
  734MOL0     H99089  10.064   7.116   2.852 -1.6525  0.7425 -0.6217
  734MOL0     H99090  10.150   6.962   2.798 -2.5197 -0.8569 -0.2676
  735MOL0     O99091   9.130   3.104   7.335  0.1492 -0.2529 -0.7136
  735MOL0     C99092   9.108   3.046   7.443 -0.0530 -0.1313  0.4511
  735MOL0     O99093   9.202   2.981   7.517 -0.7804  0.9809 -0.2653
  735MOL0     C99094   9.334   3.005   7.479 -0.0862  0.2280 -0.5520
  735MOL0     C99095   9.412   2.891   7.450 -0.3021 -0.4613  0.3515
  735MOL0     C99096   9.545   2.909   7.404 -0.6657 -0.6051 -0.3301
  735MOL0     C99097   9.599   3.046   7.397  0.1093  0.2883 -0.9208
  735MOL0     O99098   9.734   3.053   7.363 -0.2072 -1.3428  0.4383
  735MOL0     C99099   9.782   3.186   7.326  0.5080  0.0690  0.0062
  735MOL0     C99100   9.921   3.170   7.260  0.2560  0.1331 -0.0841
  735MOL0     C99101   9.985   3.304   7.202 -0.6328 -0.2523 -0.5184
  735MOL0     C99102  10.131   3.295   7.170 -0.5587  0.1580  0.5283
  735MOL0     C99103  10.181   3.413   7.079 -0.0610  0.4952 -0.3075
  735MOL0     C99104  10.170   3.554   7.146  0.5757  0.3683  0.4887
  735MOL0     C99105  10.282   3.653   7.112 -0.2955  0.2846  0.9068
  735MOL0     C99106  10.271   3.687   6.955  1.1491 -0.3768 -0.7268
  735MOL0     N99107  10.384   3.774   6.915 -0.0724 -0.4868 -0.5097
  735MOL0     C99108  10.462   3.863   6.989  0.0935 -1.2895  0.0426
  735MOL0     C99109  10.562   3.896   6.905 -0.2150  1.0304  0.1988
  735MOL0     C99110  10.665   4.000   6.936 -0.4803  0.0466  0.8353
  735MOL0     C99111  10.786   3.937   7.017  1.1219  0.0528 -0.5919
  735MOL0     C99112  10.862   3.831   6.939 -0.2766 -0.0082  0.2547
  735MOL0     C99113  10.947   3.742   7.020 -0.3182  0.2163 -0.1439
  735MOL0     O99114  11.033   3.817   7.103 -0.4047  0.1153  0.5011
  735MOL0     C99115  11.165   3.837   7.054  0.0405  0.9248 -0.5518
  735MOL0     C99116  11.252   3.894   7.151  0.3468 -0.5093 -0.4426
  735MOL0     C99117  11.388   3.914   7.124 -0.4455 -0.6881 -0.5413
  735MOL0     C99118  11.441   3.887   7.001  0.2835 -0.7753  0.0749
  735MOL0     C99119  11.592   3.918   6.974  0.1039 -0.3669 -0.0741
  735MOL0     O99120  11.651   3.862   6.868 -0.0237 -0.1472 -0.0402
  735MOL0     C99121  11.790   3.852   6.865  0.2373 -0.3539  0.2662
  735MOL0     C99122  11.846   3.847   6.737 -0.1430  0.8507  0.0560
  735MOL0     C99123  11.984   3.860   6.722  0.0985 -0.7528  0.6866
  735MOL0     C99124  12.065   3.844   6.837 -0.4459 -0.0842  0.1687
  735MOL0     O99125  12.205   3.858   6.841  0.2865 -0.1056  0.4752
  735MOL0     C99126  12.264   3.918   6.722  0.3632  0.3661 -0.2273
  735MOL0     C99127  12.420   3.901   6.715  0.8255  0.1150 -0.0674
  735MOL0     C99128  12.499   4.013   6.791 -1.0659 -0.0240  0.1963
  735MOL0     C99129  12.491   4.012   6.945  0.2832 -0.6158 -0.1602
  735MOL0     C99130  12.518   3.881   7.015 -0.7713 -0.5951  0.4360
  735MOL0     C99131  12.518   3.875   7.164 -0.2312  0.7258  0.0960
  735MOL0     C99132  12.381   3.905   7.211  1.5718 -0.1660  1.1897
  735MOL0     C99133  12.356   3.868   7.359 -0.2817  0.2558  0.3802
  735MOL0    Cl99134  12.471   3.963   7.452 -0.1316 -0.0513  0.0677
  735MOL0     C99135  12.008   3.833   6.965 -0.1178  0.2748 -0.0219
  735MOL0     C99136  11.873   3.839   6.982 -0.5190 -0.2106  0.2284
  735MOL0     O99137  11.644   3.983   7.065 -0.5126  0.0379 -0.3279
  735MOL0     C99138  11.357   3.824   6.902 -0.1437 -0.0322 -0.1220
  735MOL0     C99139  11.225   3.785   6.936  0.3737  0.8985  0.1389
  735MOL0     N99140  10.550   3.822   6.786  0.0955  0.4276 -0.1109
  735MOL0     N99141  10.442   3.759   6.794 -0.7151  0.3285  0.4668
  735MOL0     C99142   9.518   3.151   7.439  0.3480  0.4729 -0.3526
  735MOL0     C99143   9.389   3.131   7.484 -0.2240 -0.8240  0.2765
  735MOL0     C99144   8.965   3.050   7.496 -0.2411  0.5636 -1.0652
  735MOL0     C99145   8.943   2.960   7.599 -0.1826  0.3805  0.3548
  735MOL0     C99146   8.824   2.956   7.669  0.4069  0.4937 -0.6714
  735MOL0     C99147   8.724   3.043   7.635 -0.1859  0.6410  0.0646
  735MOL0     O99148   8.622   3.067   7.715 -0.2656 -0.3352 -0.7459
  735MOL0     C99149   8.489   3.046   7.654  0.2390 -0.1549  0.1738
  735MOL0     C99150   8.389   2.994   7.751  0.1136  1.1861  0.6568
  735MOL0     C99151   8.445   2.877   7.835 -0.5877  0.0525 -0.0597
  735MOL0     C99152   8.347   2.846   7.958 -0.5465  0.3528 -0.2873
  735MOL0     C99153   8.212   2.799   7.926 -0.6863 -0.0110  0.4545
  735MOL0     C99154   8.096   2.772   7.909  0.6674 -0.2380 -0.7404
  735MOL0     C99155   8.729   3.124   7.522 -0.7819 -0.4394 -0.4274
  735MOL0     C99156   8.858   3.143   7.457  0.0130  0.4292 -0.2975
  735MOL0     C99157   8.875   3.246   7.350 -0.1218  0.1311  0.0343
  735MOL0     H99158   9.385   2.787   7.468  2.2727 -1.2379  0.2625
  735MOL0     H99159   9.613   2.825   7.394 -0.2476 -0.2386 -0.6249
  735MOL0     H99160   9.713   3.236   7.257  0.1714 -0.3088  0.0684
  735MOL0     H99161   9.792   3.241   7.420 -0.6374 -0.3831  0.4100
  735MOL0     H99162   9.894   3.099   7.181  0.4979 -1.3080  1.0808
  735MOL0     H99163   9.987   3.117   7.330 -1.6863  1.5924  3.0514
  735MOL0     H99164   9.975   3.377   7.282  1.0958  1.0926 -1.4562
  735MOL0     H99165   9.934   3.330   7.109 -1.5223 -1.5904 -0.4289
  735MOL0     H99166  10.185   3.286   7.264  3.2729 -2.1122 -1.6370
  735MOL0     H99167  10.163   3.201   7.123  0.1348 -0.3269  1.9193
  735MOL0     H99168  10.284   3.392   7.048  0.2325  1.2081  0.1595
  735MOL0     H99169  10.123   3.416   6.987 -2.7355  1.7728  1.3238
  735MOL0     H99170  10.070   3.596   7.129 -1.2163 -4.3556 -2.5600
  735MOL0     H99171  10.170   3.540   7.255  1.3830 -0.2580  0.4214
  735MOL0     H99172  10.378   3.610   7.141  0.4696  0.4533 -1.2225
  735MOL0     H99173  10.273   3.749   7.164 -1.6942  0.4149  0.4763
  735MOL0     H99174  10.275   3.591   6.902 -0.7707 -0.1890 -1.2661
  735MOL0     H99175  10.177   3.737   6.934  0.7659 -0.7730 -0.0012
  735MOL0     H99176  10.442   3.910   7.084 -0.2165 -2.3467  0.5162
  735MOL0     H99177  10.706   4.034   6.840 -2.0281 -0.6533 -0.1119
  735MOL0     H99178  10.608   4.081   6.982  1.7558  1.8076  0.6313
  735MOL0     H99179  10.855   4.019   7.039 -0.9084  1.4623  0.9408
  735MOL0     H99180  10.740   3.893   7.106 -0.6516  0.8882 -1.0495
  735MOL0     H99181  10.924   3.872   6.859  2.7404 -2.8013  0.9321
  735MOL0     H99182  10.787   3.770   6.886 -1.4412  1.2729  0.3715
  735MOL0     H99183  10.999   3.662   6.967  0.8446  1.1163 -0.3947
  735MOL0     H99184  10.877   3.685   7.083 -0.1307 -1.3906 -1.3284
  735MOL0     H99185  11.209   3.929   7.244  0.6610 -1.7672  0.1955
  735MOL0     H99186  11.447   3.933   7.213 -0.7462  1.1538 -0.7099
  735MOL0     H99187  11.776   3.849   6.654  0.3050 -4.0240 -0.7453
  735MOL0     H99188  12.004   3.869   6.615  0.3767  0.4995  0.8355
  735MOL0     H99189  12.226   3.870   6.631  1.3348  0.4646 -0.6993
  735MOL0     H99190  12.239   4.024   6.721  0.0756  0.3088 -1.5839
  735MOL0     H99191  12.448   3.803   6.755  1.3965  0.4295  0.3164
  735MOL0     H99192  12.428   3.897   6.606 -1.4647 -0.0595 -0.2778
  735MOL0     H99193  12.604   4.010   6.761 -0.9480  3.0588 -0.0171
  735MOL0     H99194  12.469   4.110   6.748  0.0467  1.3343  2.3038
  735MOL0     H99195  12.388   4.035   6.974  0.3693 -0.6167  0.1470
  735MOL0     H99196  12.548   4.101   6.973  0.8162  0.0792 -3.0350
  735MOL0     H99197  12.620   3.855   6.985 -1.1628 -0.8195 -0.7460
  735MOL0     H99198  12.454   3.800   6.979  0.2348 -1.2934  0.1580
  735MOL0     H99199  12.553   3.779   7.202 -1.2322  0.4351  0.3195
  735MOL0     H99200  12.583   3.947   7.214 -3.1740  1.8887  2.5915
  735MOL0     H99201  12.303   3.856   7.151  0.5271  0.6310  1.8548
  735MOL0     H99202  12.357   4.010   7.193  3.0693  0.4341  2.4908
  735MOL0     H99203  12.249   3.879   7.376 -0.2268  3.0303 -0.4631
  735MOL0     H99204  12.389   3.766   7.377  0.5778  0.4724  0.1016
  735MOL0     H99205  12.065   3.831   7.057  1.1313  0.5174 -0.7779
  735MOL0     H99206  11.826   3.843   7.080 -0.0440 -0.5105  0.4728
  735MOL0     H99207  11.405   3.792   6.811  2.2512  4.0376 -0.5168
  735MOL0     H99208  11.154   3.748   6.862 -1.7926  3.0550  0.9956
  735MOL0     H99209   9.562   3.250   7.449 -2.4937  1.7549  0.2838
  735MOL0     H99210   9.341   3.222   7.518  0.1768 -0.2778 -0.5829
  735MOL0     H99211   9.024   2.901   7.639 -1.0017  0.0759  1.6211
  735MOL0     H99212   8.812   2.883   7.748  0.8907  0.4259 -0.6550
  735MOL0     H99213   8.505   2.986   7.564  2.4178  2.8827 -1.6571
  735MOL0     H99214   8.459   3.147   7.625 -0.9190 -0.9598 -1.5995
  735MOL0     H99215   8.305   2.957   7.691  0.0008  2.1772  0.1679
  735MOL0     H99216   8.342   3.074   7.808 -0.4573  0.3480  1.3885
  735MOL0     H99217   8.540   2.909   7.879  1.6691 -3.8798 -1.5451
  735MOL0     H99218   8.458   2.785   7.776  1.2914  0.8340 -0.9259
  735MOL0     H99219   8.400   2.764   8.008 -2.4880 -2.0378 -1.9501
  735MOL0     H99220   8.338   2.926   8.032  0.6279 -0.9397  1.3508
  735MOL0     H99221   7.992   2.750   7.904  1.0193 -1.8762 -1.9093
  735MOL0     H99222   8.643   3.184   7.495 -0.7049  0.5086  1.3241
  735MOL0     H99223   8.957   3.316   7.369 -1.2305  0.7069  3.3102
  735MOL0     H99224   8.888   3.195   7.254  2.9001 -1.6918  1.2702
  735MOL0     H99225   8.786   3.308   7.345  1.0587  1.9439  0.5875
  736MOL0     O99226  11.248   3.355   3.590 -0.5839 -0.4542  0.0907
  736MOL0     C99227  11.179   3.402   3.496  0.4845 -0.5201 -0.0927
  736MOL0     O99228  11.222   3.437   3.371  0.4769  0.4399 -0.1254
  736MOL0     C99229  11.354   3.463   3.351  0.4500 -1.6332  0.4787
  736MOL0     C99230  11.399   3.591   3.401 -0.3837  0.6924 -0.0534
  736MOL0     C99231  11.532   3.620   3.383 -0.7115 -0.3783  0.3557
  736MOL0     C99232  11.620   3.536   3.304  0.2174 -0.6299  0.2880
  736MOL0     O99233  11.757   3.553   3.286 -0.6109 -0.1141 -0.5643
  736MOL0     C99234  11.818   3.671   3.329 -0.6310 -0.3948  0.4089
  736MOL0     C99235  11.970   3.658   3.346  0.0817  0.4491  1.1800
  736MOL0     C99236  12.037   3.795   3.390 -0.7275 -0.8786  0.1150
  736MOL0     C99237  12.196   3.784   3.382  1.0131  1.2636 -0.5422
  736MOL0     C99238  12.245   3.932   3.418  0.2143 -1.1266  0.4315
  736MOL0     C99239  12.393   3.939   3.463  0.6768  0.4895 -0.2105
  736MOL0     C99240  12.417   4.065   3.556  1.1828 -0.2908 -0.1707
  736MOL0     C99241  12.563   4.094   3.582  0.1679  0.3116  0.1979
  736MOL0     N99242  12.665   4.108   3.475 -0.4946 -0.1504 -0.2593
  736MOL0     C99243  12.648   4.205   3.375  0.9128 -0.5852 -0.5770
  736MOL0     C99244  12.754   4.170   3.291  0.3068 -0.1078 -0.3420
  736MOL0     C99245  12.791   4.264   3.182 -0.9237  0.4877  0.3301
  736MOL0     C99246  12.796   4.184   3.046 -1.0222  0.6895 -0.8757
  736MOL0     C99247  12.935   4.124   3.004  0.2884 -0.5495  0.0140
  736MOL0     C99248  12.916   4.010   2.899 -0.0150  0.7930  0.4839
  736MOL0     O99249  13.043   3.973   2.854 -0.3456  0.3602  0.7946
  736MOL0     C99250  13.050   3.869   2.767  0.1438 -0.1845 -1.7718
  736MOL0     C99251  12.936   3.783   2.739  0.3788 -0.3470 -1.4636
  736MOL0     C99252  12.953   3.670   2.667  0.4423 -1.3512  0.1056
  736MOL0     C99253  13.072   3.639   2.602 -1.3069 -0.0724  0.1011
  736MOL0     C99254  13.081   3.517   2.518  0.9484 -0.2428  0.2359
  736MOL0     O99255  13.184   3.501   2.438 -0.7063  0.1317 -0.1476
  736MOL0     C99256  13.192   3.408   2.334 -1.4215  1.5042 -0.1713
  736MOL0     C99257  13.095   3.316   2.305 -0.0538  0.1875  0.4982
  736MOL0     C99258  13.123   3.217   2.201  0.0880  0.0385 -0.5699
  736MOL0     C99259  13.240   3.210   2.134 -0.1763 -0.5067 -0.1556
  736MOL0     O99260  13.252   3.102   2.048  0.5404 -0.2174 -0.7625
  736MOL0     C99261  13.366   3.108   1.958  0.3219 -0.2898 -0.0605
  736MOL0     C99262  13.317   3.023   1.837  0.0469  0.4000  0.7133
  736MOL0     C99263  13.422   3.000   1.731  0.8388  0.1482 -0.0980
  736MOL0     C99264  13.564   2.996   1.789 -0.4569  0.0009 -0.3155
  736MOL0     C99265  13.673   2.985   1.679  0.1504 -0.4257  0.7596
  736MOL0     C99266  13.813   2.983   1.731  0.3764 -0.0113 -0.0402
  736MOL0     C99267  13.915   2.944   1.631 -0.1680 -0.1371  0.7438
  736MOL0     C99268  14.037   2.906   1.709  0.1627 -0.0915  0.4022
  736MOL0    Cl99269  14.154   2.840   1.595 -0.3516 -0.0124  0.3831
  736MOL0     C99270  13.340   3.296   2.174 -0.2251  0.0836 -1.0569
  736MOL0     C99271  13.311   3.397   2.271 -0.1188  0.2155  0.4298
  736MOL0     O99272  12.986   3.430   2.538 -0.0429 -0.4430  0.6674
  736MOL0     C99273  13.180   3.721   2.623 -0.2164 -0.4827  0.1709
  736MOL0     C99274  13.165   3.840   2.693 -0.4495 -0.6371  0.3037
  736MOL0     N99275  12.820   4.056   3.336  0.2823  0.2490 -0.2219
  736MOL0     N99276  12.773   4.025   3.444  0.7196  0.6772 -0.6813
  736MOL0     C99277  11.576   3.413   3.272 -0.2697 -0.5863  0.0839
  736MOL0     C99278  11.448   3.369   3.296  0.3996  0.4652 -0.0993
  736MOL0     C99279  11.032   3.401   3.507 -0.2828  0.1832  0.4169
  736MOL0     C99280  10.959   3.374   3.396 -0.0527 -0.3918  0.1908
  736MOL0     C99281  10.814   3.390   3.399  0.2224  0.3260 -0.1645
  736MOL0     C99282  10.748   3.438   3.512  1.2315  1.0209  0.6571
  736MOL0     O99283  10.608   3.447   3.526 -0.4675 -0.9675  0.4551
  736MOL0     C99284  10.538   3.399   3.421  0.3513 -0.7471 -0.3723
  736MOL0     C99285  10.388   3.405   3.458 -0.2650 -0.3394  0.4140
  736MOL0     C99286  10.316   3.449   3.330  0.1620 -0.8840 -0.2813
  736MOL0     C99287  10.168   3.468   3.346 -0.1583 -0.2946  1.1360
  736MOL0     C99288  10.101   3.335   3.368 -0.2019  0.4125  0.1998
  736MOL0     C99289  10.028   3.234   3.391 -0.4874 -0.6410  0.5149
  736MOL0     C99290  10.819   3.446   3.621 -0.3713 -0.6965 -0.0601
  736MOL0     C99291  10.961   3.436   3.628 -0.2733 -0.7100  1.1847
  736MOL0     C99292  11.038   3.478   3.751 -0.0100  0.2637 -0.1296
  736MOL0     H99293  11.334   3.657   3.457 -3.1233 -3.5511  2.3698
  736MOL0     H99294  11.567   3.711   3.432  0.7132  1.2489 -3.3088
  736MOL0     H99295  11.807   3.756   3.262 -0.6944 -1.2406 -0.6877
  736MOL0     H99296  11.782   3.697   3.429  0.1892  0.2181  0.5500
  736MOL0     H99297  12.005   3.624   3.248 -0.8216  0.6449  0.7815
  736MOL0     H99298  11.995   3.590   3.428  0.2796 -1.1475 -0.1548
  736MOL0     H99299  12.010   3.815   3.494 -0.5294  0.3265 -0.0480
  736MOL0     H99300  12.003   3.878   3.328 -1.2683 -0.2083  1.2780
  736MOL0     H99301  12.239   3.712   3.453  1.4598 -0.2490 -2.2601
  736MOL0     H99302  12.232   3.763   3.281 -0.5205  0.4897 -0.9485
  736MOL0     H99303  12.227   4.007   3.341  1.7062 -1.4587 -0.2688
  736MOL0     H99304  12.177   3.968   3.496  0.2535 -1.8805  0.8209
  736MOL0     H99305  12.438   3.846   3.498  0.1078  1.0138  2.0477
  736MOL0     H99306  12.445   3.968   3.371 -3.7829  4.4129 -1.9594
  736MOL0     H99307  12.359   4.054   3.648 -0.4229  1.5748 -0.8790
  736MOL0     H99308  12.387   4.156   3.503  0.8406  0.8346  1.8588
  736MOL0     H99309  12.570   4.184   3.644 -0.0236  1.5676 -1.5345
  736MOL0     H99310  12.598   4.019   3.653  2.1679  2.2382  1.3860
  736MOL0     H99311  12.579   4.289   3.373  1.4621 -0.1349 -0.9416
  736MOL0     H99312  12.708   4.335   3.174 -2.1973 -0.9831 -0.2022
  736MOL0     H99313  12.890   4.301   3.211 -0.2864 -1.5737  0.9263
  736MOL0     H99314  12.726   4.101   3.057 -0.3655  0.1995 -0.3317
  736MOL0     H99315  12.759   4.252   2.968 -0.7346  1.4527 -0.3522
  736MOL0     H99316  13.000   4.081   3.080  0.8120 -1.8136 -1.0945
  736MOL0     H99317  12.995   4.204   2.959  1.4576 -2.7395 -2.6624
  736MOL0     H99318  12.858   4.041   2.812  0.0058 -1.3050 -0.3270
  736MOL0     H99319  12.863   3.927   2.946  1.9590  0.3476  2.0757
  736MOL0     H99320  12.841   3.794   2.790  0.3029 -0.9676 -1.4610
  736MOL0     H99321  12.866   3.607   2.655  0.8858 -1.6886 -1.7058
  736MOL0     H99322  13.000   3.324   2.355 -0.7564 -0.3226 -0.7011
  736MOL0     H99323  13.038   3.161   2.163  0.8843 -1.5809 -0.0867
  736MOL0     H99324  13.371   3.211   1.924 -2.2706  0.2796  1.0249
  736MOL0     H99325  13.464   3.080   1.998 -0.0325  1.5777  2.3863
  736MOL0     H99326  13.283   2.929   1.880  2.3986 -0.2724  1.2595
  736MOL0     H99327  13.241   3.089   1.794  2.3728  1.5536 -1.9585
  736MOL0     H99328  13.402   2.908   1.676 -1.0951  0.5692 -0.1711
  736MOL0     H99329  13.414   3.088   1.665 -0.8817  0.2676  0.2259
  736MOL0     H99330  13.574   2.911   1.858  0.8841 -0.3269 -0.8805
  736MOL0     H99331  13.595   3.089   1.836 -3.1296  2.3697 -2.8583
  736MOL0     H99332  13.673   3.066   1.606  0.7012 -0.9341  0.1816
  736MOL0     H99333  13.665   2.891   1.623 -1.2186  0.7326 -1.1450
  736MOL0     H99334  13.829   3.084   1.771  0.5661  0.2175 -0.6867
  736MOL0     H99335  13.821   2.905   1.808 -1.9913 -1.2082 -0.9132
  736MOL0     H99336  13.938   3.025   1.561  0.4649 -0.7087  0.2737
  736MOL0     H99337  13.863   2.863   1.578 -2.2082  1.3432  0.3669
  736MOL0     H99338  14.075   2.999   1.751  2.1010  0.1843 -1.7539
  736MOL0     H99339  14.021   2.830   1.786  4.5353 -1.6319  0.0499
  736MOL0     H99340  13.443   3.294   2.140  0.9965  3.6785  1.7687
  736MOL0     H99341  13.389   3.470   2.289  1.7841 -0.7415 -3.0971
  736MOL0     H99342  13.277   3.704   2.577  0.1817  2.2209 -0.1719
  736MOL0     H99343  13.243   3.915   2.703 -2.6986  2.2688 -1.9758
  736MOL0     H99344  11.649   3.343   3.231  2.8706  1.4551  1.7873
  736MOL0     H99345  11.427   3.267   3.266  0.9963 -0.7140  3.1253
  736MOL0     H99346  11.006   3.334   3.306 -1.4320 -4.3482  1.0468
  736MOL0     H99347  10.772   3.364   3.303  0.8951  0.0294 -0.3886
  736MOL0     H99348  10.568   3.296   3.400 -2.8506 -1.8712  0.0751
  736MOL0     H99349  10.571   3.450   3.330 -0.0218 -1.5881 -0.9963
  736MOL0     H99350  10.388   3.472   3.545 -0.2284 -1.4223  1.2704
  736MOL0     H99351  10.360   3.305   3.491  1.9150 -0.7246  1.3115
  736MOL0     H99352  10.331   3.380   3.247 -0.4511 -0.7025 -0.5486
  736MOL0     H99353  10.357   3.544   3.292 -0.1024 -1.5501 -2.3717
  736MOL0     H99354  10.147   3.545   3.420 -1.5312  0.7013 -0.2314
  736MOL0     H99355  10.130   3.508   3.252 -3.1572  1.3525  2.8936
  736MOL0     H99356   9.989   3.137   3.413  0.6186 -0.9702  1.0743
  736MOL0     H99357  10.768   3.471   3.713  0.0777  0.4981 -0.1076
  736MOL0     H99358  11.111   3.551   3.715  0.7098  0.2647  1.2502
  736MOL0     H99359  10.985   3.522   3.836 -1.3418 -1.1916 -0.1628
  736MOL0     H99360  11.085   3.387   3.789  0.5969  0.2239 -0.9505
  737MOL0     O99361   0.111   6.225   7.382 -0.4545 -0.1420 -0.4341
  737MOL0     C99362   0.027   6.266   7.300  0.1981 -0.6412 -0.2623
  737MOL0     O99363   0.044   6.266   7.168  0.0306 -0.3324 -0.4285
  737MOL0     C99364   0.165   6.219   7.123  0.2915  0.0542 -0.3755
  737MOL0     C99365   0.179   6.083   7.091 -0.1572  0.0460 -0.3456
  737MOL0     C99366   0.315   6.035   7.053  0.3304  0.6081 -0.6558
  737MOL0     C99367   0.427   6.123   7.059 -0.0697 -0.6465  0.5632
  737MOL0     O99368   0.559   6.084   7.034 -0.0443 -0.3303  0.0711
  737MOL0     C99369   0.668   6.179   7.017  0.8509  0.3576  0.4393
  737MOL0     C99370   0.782   6.111   6.958  1.4144  0.9497  0.1065
  737MOL0     C99371   0.905   6.208   6.946 -0.4497  0.0033 -0.6507
  737MOL0     C99372   1.020   6.137   6.881 -0.9018 -0.2273  0.7940
  737MOL0     C99373   1.148   6.232   6.871 -0.2619 -0.2202 -0.4008
  737MOL0     C99374   1.260   6.174   6.777  0.4065 -0.1584 -0.2012
  737MOL0     C99375   1.384   6.274   6.783  0.1902  0.0271  0.1966
  737MOL0     C99376   1.488   6.230   6.679 -0.5580  0.4136  0.8920
  737MOL0     N99377   1.616   6.258   6.733 -0.0933 -0.4942  0.0036
  737MOL0     C99378   1.693   6.163   6.803  0.2038 -0.0089 -0.1176
  737MOL0     C99379   1.806   6.221   6.824 -0.0436  0.5747  0.0365
  737MOL0     C99380   1.934   6.139   6.876  0.4621  0.7869 -0.3554
  737MOL0     C99381   1.964   6.012   6.798  0.0305 -0.1049  0.1539
  737MOL0     C99382   2.106   5.949   6.823 -0.5057 -0.1783 -0.9481
  737MOL0     C99383   2.114   5.798   6.786  0.3602 -0.3529  1.2123
  737MOL0     O99384   2.241   5.776   6.728 -0.2902 -0.3188 -0.1030
  737MOL0     C99385   2.353   5.771   6.810  0.2352 -0.5039  0.5498
  737MOL0     C99386   2.478   5.751   6.745  0.9951 -0.3487  0.0568
  737MOL0     C99387   2.596   5.741   6.817  0.3996 -0.2801  0.4747
  737MOL0     C99388   2.597   5.772   6.953  0.5859  0.4027  0.5182
  737MOL0     C99389   2.720   5.786   7.028 -0.7902  0.4459  0.5450
  737MOL0     O99390   2.833   5.818   6.956  0.2962 -0.0334 -0.3538
  737MOL0     C99391   2.967   5.811   7.012  1.5116 -0.0789 -0.2234
  737MOL0     C99392   3.002   5.734   7.122 -0.7050 -0.4975 -0.8924
  737MOL0     C99393   3.136   5.735   7.175 -0.6030 -0.5690  0.2361
  737MOL0     C99394   3.240   5.800   7.107  0.1585 -0.7888  0.9303
  737MOL0     O99395   3.361   5.814   7.167  0.3973 -0.4456  0.0787
  737MOL0     C99396   3.442   5.925   7.149 -0.5402 -0.0667 -0.4870
  737MOL0     C99397   3.523   5.969   7.272  0.3519  0.7984 -0.0013
  737MOL0     C99398   3.659   5.900   7.285  0.8026 -0.2063 -0.1678
  737MOL0     C99399   3.755   5.970   7.195 -0.0085  0.0603 -0.7530
  737MOL0     C99400   3.905   5.941   7.211  0.1085 -0.6230  0.5464
  737MOL0     C99401   3.969   5.800   7.199  1.0125  0.1615  0.4576
  737MOL0     C99402   4.120   5.805   7.224 -0.1531 -0.5961 -0.1435
  737MOL0     C99403   4.179   5.674   7.248 -0.6572  0.7646 -0.2034
  737MOL0    Cl99404   4.167   5.559   7.112  0.0482  0.2051 -0.3447
  737MOL0     C99405   3.201   5.868   6.987 -0.7589  0.0556 -0.3301
  737MOL0     C99406   3.067   5.876   6.945 -0.7093  0.4329 -0.9140
  737MOL0     O99407   2.719   5.779   7.150 -0.3027 -0.4895 -0.1832
  737MOL0     C99408   2.473   5.784   7.018 -0.3196  0.2477 -0.4003
  737MOL0     C99409   2.357   5.780   6.951 -0.3067 -0.7462  0.2854
  737MOL0     N99410   1.797   6.361   6.784 -0.1057 -0.0569  0.3670
  737MOL0     N99411   1.679   6.378   6.717 -0.2244 -0.0576  0.0183
  737MOL0     C99412   0.393   6.253   7.090 -0.0464 -0.6272  1.0200
  737MOL0     C99413   0.270   6.308   7.105  0.3200  0.0095  0.1147
  737MOL0     C99414  -0.104   6.302   7.351 -0.3579 -0.4829 -0.7998
  737MOL0     C99415  -0.202   6.350   7.261  0.5626  0.6393  0.5252
  737MOL0     C99416  -0.330   6.381   7.304 -0.4474 -0.4634 -0.6032
  737MOL0     C99417  -0.368   6.367   7.436  0.1736 -0.5972  0.1158
  737MOL0     O99418  -0.494   6.408   7.466 -0.5535  0.9771 -0.9987
  737MOL0     C99419  -0.553   6.366   7.596  0.0143  0.3859  0.6993
  737MOL0     C99420  -0.709   6.404   7.602  0.0430 -0.0786  0.6058
  737MOL0     C99421  -0.772   6.391   7.743 -0.5209  0.1310  0.0686
  737MOL0     C99422  -0.923   6.421   7.756  0.1148  0.0596  0.2621
  737MOL0     C99423  -1.000   6.324   7.682  0.4138 -0.7777 -0.0297
  737MOL0     C99424  -1.076   6.255   7.623  0.0211 -0.0539 -0.9709
  737MOL0     C99425  -0.276   6.321   7.528  0.6974 -0.6830 -0.0986
  737MOL0     C99426  -0.140   6.292   7.492  0.7350  0.5190 -0.4178
  737MOL0     C99427  -0.050   6.252   7.605 -0.5315  0.1892  0.2961
  737MOL0     H99428   0.110   6.002   7.108 -1.6812  1.9899  4.5640
  737MOL0     H99429   0.334   5.935   7.014 -1.1101 -0.4521  1.2468
  737MOL0     H99430   0.636   6.260   6.952 -0.4280  0.0636  0.6797
  737MOL0     H99431   0.698   6.231   7.109 -0.2755  0.4708  0.7658
  737MOL0     H99432   0.759   6.073   6.858  0.6927 -0.0613  0.6431
  737MOL0     H99433   0.810   6.021   7.013 -0.6195 -1.4564 -2.5559
  737MOL0     H99434   0.923   6.237   7.050  0.8876 -0.8487 -0.6144
  737MOL0     H99435   0.877   6.303   6.900 -3.1612 -0.2592  0.2987
  737MOL0     H99436   1.042   6.046   6.938  0.7201 -0.3451  0.0358
  737MOL0     H99437   0.986   6.122   6.779 -1.1862  1.9815  0.5151
  737MOL0     H99438   1.123   6.330   6.828 -0.7994 -0.3325 -0.3543
  737MOL0     H99439   1.189   6.246   6.971 -0.0656 -0.4120 -0.4551
  737MOL0     H99440   1.284   6.075   6.816 -0.5865 -0.4605 -0.3280
  737MOL0     H99441   1.222   6.166   6.674 -1.9466 -0.6802  0.6522
  737MOL0     H99442   1.428   6.266   6.883 -0.4456  2.0494  0.6870
  737MOL0     H99443   1.367   6.378   6.756 -0.3998  0.3321  1.6928
  737MOL0     H99444   1.494   6.123   6.658  2.5352  0.7000 -0.1180
  737MOL0     H99445   1.469   6.278   6.583  0.4648 -4.2518 -1.9684
  737MOL0     H99446   1.676   6.058   6.820 -2.5546  0.6041  1.5867
  737MOL0     H99447   2.025   6.199   6.861  1.8233 -1.0337  0.2580
  737MOL0     H99448   1.925   6.125   6.984  1.2542 -0.5765 -0.4465
  737MOL0     H99449   1.887   5.942   6.832 -0.7506 -0.6970 -2.5495
  737MOL0     H99450   1.953   6.021   6.689 -0.8120 -1.8879  0.0526
  737MOL0     H99451   2.133   5.954   6.928  1.1681 -2.8082 -1.1603
  737MOL0     H99452   2.170   6.012   6.760 -1.4634 -1.2855 -3.1823
  737MOL0     H99453   2.042   5.776   6.707 -0.4107  0.6024  1.6286
  737MOL0     H99454   2.095   5.737   6.875 -4.6246  1.1282  1.4546
  737MOL0     H99455   2.488   5.722   6.641 -3.5942 -0.3332 -0.5956
  737MOL0     H99456   2.686   5.730   6.758 -0.1603 -2.6326 -0.0491
  737MOL0     H99457   2.922   5.682   7.174 -0.4876  0.4834  0.4846
  737MOL0     H99458   3.161   5.669   7.257  2.6533 -5.1105 -3.8146
  737MOL0     H99459   3.512   5.910   7.067  0.1421 -1.1977  0.2748
  737MOL0     H99460   3.377   6.007   7.118 -1.5292 -0.7391 -0.2535
  737MOL0     H99461   3.538   6.076   7.257  1.5915  0.7992  1.0544
  737MOL0     H99462   3.467   5.954   7.365  2.1306  2.4618  1.3968
  737MOL0     H99463   3.701   5.900   7.386 -0.9877  0.9915  0.6279
  737MOL0     H99464   3.639   5.800   7.246 -2.1192  0.5443 -0.8582
  737MOL0     H99465   3.734   6.077   7.198  0.2583  0.3483 -4.3082
  737MOL0     H99466   3.732   5.939   7.092  0.3737 -4.2451  0.2686
  737MOL0     H99467   3.948   5.982   7.302  0.6697  0.1597 -0.0602
  737MOL0     H99468   3.944   6.008   7.134 -2.3154  0.5169  0.2231
  737MOL0     H99469   3.930   5.731   7.274  0.8379 -0.1269  0.1032
  737MOL0     H99470   3.937   5.761   7.102  0.0342  1.6609  0.1561
  737MOL0     H99471   4.138   5.871   7.309 -0.4188 -1.7431  0.8186
  737MOL0     H99472   4.173   5.846   7.137  1.5479 -2.0294  0.1686
  737MOL0     H99473   4.281   5.685   7.287  0.9396 -1.4674 -3.3226
  737MOL0     H99474   4.123   5.618   7.324  0.6438 -2.0709 -1.1906
  737MOL0     H99475   3.275   5.921   6.928 -0.9489  1.9795  1.0628
  737MOL0     H99476   3.046   5.942   6.861 -2.4382  1.2295  0.0938
  737MOL0     H99477   2.470   5.794   7.126  3.0200 -0.2333 -0.1561
  737MOL0     H99478   2.271   5.799   7.015 -1.1693 -1.9229 -0.4974
  737MOL0     H99479   0.471   6.328   7.097 -1.3107  0.9045 -0.3359
  737MOL0     H99480   0.256   6.411   7.137 -1.4473 -0.4883  1.1142
  737MOL0     H99481  -0.179   6.372   7.157 -0.6918 -0.0958  0.0768
  737MOL0     H99482  -0.398   6.402   7.223 -2.1619  1.0341  1.1194
  737MOL0     H99483  -0.509   6.416   7.683 -0.9009  1.1424  0.7497
  737MOL0     H99484  -0.538   6.259   7.610  0.4448  0.5520  1.5261
  737MOL0     H99485  -0.766   6.338   7.535  0.6002 -1.0445  1.0489
  737MOL0     H99486  -0.724   6.502   7.557 -2.0368 -0.8032 -0.4230
  737MOL0     H99487  -0.715   6.461   7.805 -1.5898  1.4069 -0.3486
  737MOL0     H99488  -0.747   6.288   7.770 -0.0972 -0.5471 -2.5865
  737MOL0     H99489  -0.949   6.407   7.861  2.5890 -3.8476  0.5649
  737MOL0     H99490  -0.943   6.522   7.720 -0.8761  0.3841  1.6727
  737MOL0     H99491  -1.144   6.217   7.549 -0.5243 -0.4083 -0.2979
  737MOL0     H99492  -0.308   6.294   7.628  0.0502 -1.6963 -0.5594
  737MOL0     H99493  -0.010   6.154   7.577 -0.0975  1.4910 -4.3505
  737MOL0     H99494   0.022   6.333   7.622 -3.7029  3.5563 -0.8203
  737MOL0     H99495  -0.099   6.238   7.702  0.1210  1.3621  0.8126
  738MOL0     O99496   5.863   6.226   9.959  0.1607  0.3603 -0.5972
  738MOL0     C99497   5.774   6.218  10.039 -0.7401  0.1005  0.6777
  738MOL0     O99498   5.757   6.102  10.122 -0.1267  0.0984 -0.7319
  738MOL0     C99499   5.845   5.995  10.101 -0.6252 -0.0389 -0.3122
  738MOL0     C99500   5.853   5.921   9.982  0.3497 -0.1646 -0.3310
  738MOL0     C99501   5.956   5.824   9.961  0.3092  0.0391  0.4570
  738MOL0     C99502   6.051   5.812  10.052  0.5825  0.8472 -0.2483
  738MOL0     O99503   6.166   5.733  10.025  0.2522 -0.3860 -0.5901
  738MOL0     C99504   6.217   5.669  10.136  0.7315 -0.8260 -0.0601
  738MOL0     C99505   6.291   5.535  10.097  0.0058 -0.2288 -0.6093
  738MOL0     C99506   6.193   5.435  10.026  0.5172  0.0080 -0.1483
  738MOL0     C99507   6.232   5.288  10.024  0.4804 -0.4587 -0.3317
  738MOL0     C99508   6.120   5.195   9.956 -0.4755 -0.4244 -0.3303
  738MOL0     C99509   6.155   5.048   9.963 -0.0673  0.5808 -0.2410
  738MOL0     C99510   6.304   5.017   9.959 -0.3266  0.4253  0.1672
  738MOL0     C99511   6.318   4.859   9.951 -0.1935 -0.1791 -0.5699
  738MOL0     N99512   6.454   4.821   9.909  0.3439 -0.0522  0.8972
  738MOL0     C99513   6.512   4.843   9.782  0.1854 -0.3916 -0.7534
  738MOL0     C99514   6.643   4.798   9.801  0.4815 -0.0789  0.2992
  738MOL0     C99515   6.730   4.777   9.678 -0.3012  0.6952 -0.5407
  738MOL0     C99516   6.876   4.838   9.697  0.2871  0.4535 -0.0401
  738MOL0     C99517   6.974   4.764   9.782  0.2479 -0.4343 -0.5497
  738MOL0     C99518   6.977   4.607   9.764  0.0398  0.0792  0.1711
  738MOL0     O99519   7.009   4.564   9.633 -0.1245 -0.0080 -0.0561
  738MOL0     C99520   7.123   4.603   9.581  0.8455 -0.4141 -0.2224
  738MOL0     C99521   7.244   4.579   9.641  0.0377  0.3115 -0.5785
  738MOL0     C99522   7.366   4.613   9.581  0.3603 -0.2917 -0.0816
  738MOL0     C99523   7.362   4.685   9.460  0.4708  1.0554 -0.2685
  738MOL0     C99524   7.500   4.726   9.411  1.5897 -1.0059 -0.0848
  738MOL0     O99525   7.611   4.676   9.472 -0.0781  0.3308  0.4327
  738MOL0     C99526   7.728   4.740   9.438  0.0398 -0.2128  0.6057
  738MOL0     C99527   7.753   4.879   9.416 -0.7825 -0.3997 -0.0097
  738MOL0     C99528   7.886   4.919   9.397  0.0202  0.4568  0.1890
  738MOL0     C99529   7.991   4.834   9.394 -0.8713  0.5346  0.0809
  738MOL0     O99530   8.123   4.873   9.383  0.6081  0.2541 -0.6173
  738MOL0     C99531   8.137   4.958   9.268  1.0987  0.9158  0.7032
  738MOL0     C99532   8.272   4.929   9.207  1.0850  0.1095  0.2428
  738MOL0     C99533   8.383   4.977   9.297 -0.2834 -0.8154 -1.1727
  738MOL0     C99534   8.530   5.006   9.236 -0.4114  0.3152  0.0918
  738MOL0     C99535   8.638   5.038   9.340 -0.6852 -0.0131  0.5636
  738MOL0     C99536   8.757   5.097   9.258  0.1253 -0.3340 -1.5176
  738MOL0     C99537   8.844   5.197   9.336 -0.4746  0.3858  0.0091
  738MOL0     C99538   8.959   5.254   9.253  0.4384  0.2376  0.0630
  738MOL0    Cl99539   9.090   5.132   9.254  0.0721  0.1809  0.0858
  738MOL0     C99540   7.965   4.696   9.391  0.7588 -0.7374  0.7167
  738MOL0     C99541   7.837   4.651   9.429  0.7042 -0.4793 -0.4099
  738MOL0     O99542   7.499   4.805   9.314 -0.1076  0.1077 -0.1819
  738MOL0     C99543   7.240   4.720   9.399  0.6583 -0.0090  0.0737
  738MOL0     C99544   7.121   4.678   9.462  0.0438  0.7223  0.1992
  738MOL0     N99545   6.668   4.770   9.931 -0.2193 -0.1565 -0.8911
  738MOL0     N99546   6.553   4.787   9.994 -0.7982 -0.5639  0.0210
  738MOL0     C99547   6.049   5.887  10.171  0.1147  0.2796  0.1720
  738MOL0     C99548   5.949   5.984  10.196 -0.1849  0.0396  0.1185
  738MOL0     C99549   5.689   6.333  10.042  0.2083  0.0243  0.4208
  738MOL0     C99550   5.737   6.453   9.989 -0.2984 -0.0434 -0.6136
  738MOL0     C99551   5.653   6.564   9.980 -0.1630 -0.1317  0.2953
  738MOL0     C99552   5.522   6.559  10.017  1.0318 -0.2104  0.4732
  738MOL0     O99553   5.436   6.661  10.003 -0.2293 -0.2932 -0.2277
  738MOL0     C99554   5.472   6.780  10.069  0.0824  0.6017 -0.4817
  738MOL0     C99555   5.497   6.892   9.967 -0.2969 -0.2530  0.4133
  738MOL0     C99556   5.538   7.020  10.044  0.4783  0.7378 -0.3837
  738MOL0     C99557   5.579   7.141   9.955  0.4995  0.3634 -0.6770
  738MOL0     C99558   5.455   7.209   9.910  0.2382  0.0181  0.2808
  738MOL0     C99559   5.353   7.248   9.850  0.0769  0.0326 -0.4861
  738MOL0     C99560   5.470   6.434  10.049 -0.4463 -0.0402 -0.1240
  738MOL0     C99561   5.546   6.326  10.066  1.3941  0.1114 -1.0629
  738MOL0     C99562   5.477   6.195  10.085 -1.3965  0.6531 -0.3768
  738MOL0     H99563   5.788   5.936   9.897  1.5013  0.6314 -1.1017
  738MOL0     H99564   5.957   5.764   9.870 -2.7909 -2.3467  1.8249
  738MOL0     H99565   6.287   5.739  10.184 -0.0617 -0.4047  0.5103
  738MOL0     H99566   6.146   5.639  10.213  1.4201  0.5011  1.1537
  738MOL0     H99567   6.329   5.494  10.191 -1.3210 -0.1497 -0.0080
  738MOL0     H99568   6.373   5.553  10.027 -1.6240  0.8610 -2.3351
  738MOL0     H99569   6.166   5.471   9.927  4.0371  3.6817 -0.0244
  738MOL0     H99570   6.096   5.437  10.078  1.4641 -2.0781  1.8759
  738MOL0     H99571   6.324   5.274   9.967  1.6601 -1.0926  1.6216
  738MOL0     H99572   6.265   5.268  10.127  0.1432 -1.3204 -0.3905
  738MOL0     H99573   6.027   5.209  10.013 -0.4400  0.1745 -0.4039
  738MOL0     H99574   6.106   5.229   9.853  3.3346 -1.9426 -1.5220
  738MOL0     H99575   6.118   5.010  10.058 -0.7490 -2.1305 -1.5107
  738MOL0     H99576   6.105   5.000   9.879 -3.1067  0.8154  1.3149
  738MOL0     H99577   6.354   5.061  10.045 -0.1561  1.5998 -0.5040
  738MOL0     H99578   6.342   5.052   9.862 -1.8495 -1.1194 -1.0452
  738MOL0     H99579   6.296   4.808  10.045  2.5825  2.4767  1.7081
  738MOL0     H99580   6.241   4.817   9.886 -1.6148  0.6282  0.5632
  738MOL0     H99581   6.454   4.859   9.692 -0.6933  3.6324  0.3051
  738MOL0     H99582   6.737   4.669   9.666 -2.1189  0.7641 -3.0537
  738MOL0     H99583   6.666   4.818   9.599  0.5615  1.6134 -0.7908
  738MOL0     H99584   6.918   4.851   9.596  2.8060 -1.4884  0.6612
  738MOL0     H99585   6.852   4.936   9.738 -2.8014 -1.5301  3.5159
  738MOL0     H99586   6.961   4.794   9.886  0.1061  0.1641 -0.7302
  738MOL0     H99587   7.074   4.805   9.761 -0.5241  0.9041 -1.8008
  738MOL0     H99588   6.881   4.559   9.787  0.7573 -1.5531 -0.0989
  738MOL0     H99589   7.040   4.563   9.842 -0.0494 -0.3743 -0.0127
  738MOL0     H99590   7.247   4.520   9.733 -0.7390 -1.1929 -1.4632
  738MOL0     H99591   7.460   4.578   9.624  1.0979 -1.7719 -2.6617
  738MOL0     H99592   7.671   4.949   9.426 -0.1213  0.4251 -0.2740
  738MOL0     H99593   7.915   5.023   9.392  2.0504 -0.0819  0.0607
  738MOL0     H99594   8.059   4.947   9.193  2.0864  0.5587 -0.3062
  738MOL0     H99595   8.146   5.057   9.313  3.1467  1.2714 -0.3477
  738MOL0     H99596   8.271   4.823   9.179 -2.3230  0.5445 -1.9160
  738MOL0     H99597   8.280   4.988   9.115 -0.2119  1.1897  0.7842
  738MOL0     H99598   8.357   5.073   9.344  0.5002 -0.6838 -0.9876
  738MOL0     H99599   8.414   4.897   9.365  2.4955  0.0932 -1.2302
  738MOL0     H99600   8.523   5.088   9.163  1.5063  2.5243  2.1977
  738MOL0     H99601   8.558   4.912   9.187  0.9298 -0.6422  2.5076
  738MOL0     H99602   8.659   4.952   9.406 -0.9811  0.8881  1.8778
  738MOL0     H99603   8.595   5.114   9.406  0.0933  1.0364 -0.1038
  738MOL0     H99604   8.825   5.020   9.221 -0.6740 -0.9782 -1.6604
  738MOL0     H99605   8.712   5.147   9.171 -1.6912  0.3052 -0.2768
  738MOL0     H99606   8.892   5.140   9.417  1.4716  2.5730  0.5295
  738MOL0     H99607   8.789   5.282   9.377  0.8096  1.1220  0.2752
  738MOL0     H99608   8.919   5.289   9.158 -0.5948  1.2218  0.8402
  738MOL0     H99609   8.993   5.347   9.301 -0.8445  0.9566 -0.3771
  738MOL0     H99610   8.048   4.626   9.391  2.4858  1.1543  2.7753
  738MOL0     H99611   7.820   4.547   9.450  1.9055 -0.6771 -0.3386
  738MOL0     H99612   7.226   4.778   9.308  1.3438 -0.3180 -0.2303
  738MOL0     H99613   7.021   4.696   9.425 -0.2286 -1.3636 -0.1956
  738MOL0     H99614   6.121   5.875  10.251  0.9783  0.4092 -0.5647
  738MOL0     H99615   5.953   6.054  10.279  0.2392  1.3090 -0.9344
  738MOL0     H99616   5.841   6.457   9.957 -0.4811 -1.4930 -1.4431
  738MOL0     H99617   5.698   6.648   9.927  0.2606  1.2947  2.7648
  738MOL0     H99618   5.558   6.770  10.135  0.0808  1.5128 -0.3284
  738MOL0     H99619   5.382   6.812  10.123  2.0115  0.1702  3.2893
  738MOL0     H99620   5.411   6.915   9.903  2.4008  1.9914 -2.7570
  738MOL0     H99621   5.584   6.866   9.905  0.7505  2.5463  0.5962
  738MOL0     H99622   5.630   7.003  10.100  0.5865  1.9753 -0.1652
  738MOL0     H99623   5.457   7.050  10.112  0.6080  1.2493 -0.4510
  738MOL0     H99624   5.638   7.211  10.015  0.0230  1.2380 -1.2125
  738MOL0     H99625   5.630   7.097   9.869  0.7908  2.0787 -1.4277
  738MOL0     H99626   5.260   7.288   9.818 -0.6169 -1.6865 -0.7110
  738MOL0     H99627   5.365   6.431  10.075 -1.5267  0.6869 -3.8049
  738MOL0     H99628   5.495   6.155  10.185  0.3094  2.5174  0.1095
  738MOL0     H99629   5.369   6.204  10.066 -1.3181 -1.7000 -2.6413
  738MOL0     H99630   5.513   6.125  10.008 -0.3739  2.3877 -1.5432
  739MOL0     O99631   2.535   2.607   8.146  0.0558 -0.1681  0.5415
  739MOL0     C99632   2.534   2.520   8.235 -1.0508 -0.3118 -0.4313
  739MOL0     O99633   2.625   2.515   8.338  0.3854  0.5315 -0.1079
  739MOL0     C99634   2.737   2.592   8.342  0.1431 -0.3693  0.4880
  739MOL0     C99635   2.844   2.534   8.407  0.4097  0.0363 -0.4721
  739MOL0     C99636   2.973   2.600   8.409 -0.0380  0.2802  0.4562
  739MOL0     C99637   2.980   2.735   8.374  1.3653 -1.0404  0.0106
  739MOL0     O99638   3.095   2.804   8.384  0.2939 -0.2930  0.0745
  739MOL0     C99639   3.201   2.757   8.296 -0.4471  0.3148  0.1093
  739MOL0     C99640   3.281   2.875   8.249  0.3460 -0.2582 -0.1328
  739MOL0     C99641   3.383   2.819   8.149 -0.8675  0.0423 -0.2995
  739MOL0     C99642   3.458   2.938   8.078 -0.5672 -0.4963  0.1337
  739MOL0     C99643   3.574   2.882   7.990  0.5162  0.4361 -0.1841
  739MOL0     C99644   3.662   2.994   7.936 -0.1862  0.6500  0.1481
  739MOL0     C99645   3.798   2.931   7.900 -0.9529 -0.0952 -0.2793
  739MOL0     C99646   3.899   3.032   7.850 -0.1420  0.3367  0.0365
  739MOL0     N99647   4.026   2.977   7.795  0.4434 -0.2133 -0.2744
  739MOL0     C99648   4.147   3.043   7.795  0.3192  0.4144 -0.3368
  739MOL0     C99649   4.234   2.963   7.730 -0.6971  0.5086 -0.6332
  739MOL0     C99650   4.375   2.996   7.700 -0.2866  0.4843 -0.9639
  739MOL0     C99651   4.410   3.034   7.554 -0.3822 -0.6082 -0.7515
  739MOL0     C99652   4.437   2.910   7.462 -1.1843  0.1645  0.3745
  739MOL0     C99653   4.582   2.862   7.468 -0.0054  0.7822  0.1592
  739MOL0     O99654   4.664   2.952   7.400 -0.4418 -0.3329  0.7333
  739MOL0     C99655   4.803   2.929   7.388 -1.5348 -0.5525 -0.4597
  739MOL0     C99656   4.868   2.807   7.422 -0.2231 -0.0016  0.1523
  739MOL0     C99657   5.006   2.786   7.384  0.0710 -0.8572 -0.0704
  739MOL0     C99658   5.084   2.893   7.346  0.7134 -0.4896 -0.3674
  739MOL0     C99659   5.224   2.880   7.325 -0.8379  0.4825 -0.9779
  739MOL0     O99660   5.276   2.762   7.322 -0.0500  0.2899 -0.5230
  739MOL0     C99661   5.405   2.746   7.285 -0.7702 -0.3644  0.7912
  739MOL0     C99662   5.512   2.721   7.371  0.0137  0.1921 -0.2768
  739MOL0     C99663   5.649   2.714   7.329  1.4044  0.2130 -0.1080
  739MOL0     C99664   5.670   2.741   7.195 -0.4642 -0.3980 -0.0437
  739MOL0     O99665   5.801   2.733   7.155 -0.0892  0.6390 -0.6357
  739MOL0     C99666   5.841   2.743   7.019  0.2859  0.0629 -0.5192
  739MOL0     C99667   6.002   2.736   6.992 -0.6518 -0.2243  0.4690
  739MOL0     C99668   6.064   2.601   7.028  0.4887 -0.8650  0.0354
  739MOL0     C99669   6.217   2.596   7.007  0.5774 -0.5461 -0.2642
  739MOL0     C99670   6.274   2.458   7.049 -0.5234 -0.5816  0.3011
  739MOL0     C99671   6.370   2.421   6.936  0.5514 -0.9050 -0.1680
  739MOL0     C99672   6.412   2.277   6.950  0.1298 -0.0759 -0.1864
  739MOL0     C99673   6.538   2.248   6.859  0.3355 -0.5720  1.1509
  739MOL0    Cl99674   6.486   2.280   6.697 -0.2153 -0.6900  0.2966
  739MOL0     C99675   5.572   2.758   7.103 -0.0569 -0.1813 -0.6170
  739MOL0     C99676   5.440   2.760   7.147  0.3093 -0.1713  0.7131
  739MOL0     O99677   5.287   2.983   7.309 -0.8691  0.4084 -0.3768
  739MOL0     C99678   5.021   3.016   7.325 -0.4618  0.1922  0.1966
  739MOL0     C99679   4.881   3.028   7.337 -0.1829  0.2079  0.1482
  739MOL0     N99680   4.165   2.864   7.675  0.3612 -0.6033  0.1216
  739MOL0     N99681   4.045   2.861   7.725 -0.6675  0.0523 -0.1644
  739MOL0     C99682   2.865   2.801   8.323 -0.0596 -0.1241  0.0555
  739MOL0     C99683   2.743   2.728   8.309  0.3835  0.2672  0.6570
  739MOL0     C99684   2.422   2.419   8.229 -0.1667 -0.1416  0.4900
  739MOL0     C99685   2.351   2.415   8.112  0.0166  0.9912  0.3311
  739MOL0     C99686   2.252   2.314   8.093 -0.4173  0.3172 -1.1556
  739MOL0     C99687   2.219   2.232   8.194 -0.5580  0.4315 -0.1417
  739MOL0     O99688   2.113   2.137   8.173 -0.5378 -0.0082 -0.2067
  739MOL0     C99689   2.145   2.050   8.067  0.1756  0.1013  0.1360
  739MOL0     C99690   2.114   1.906   8.104 -0.1397 -0.8359 -0.0864
  739MOL0     C99691   2.146   1.870   8.247  0.3910  0.9801  0.1848
  739MOL0     C99692   2.167   1.720   8.251  0.0310  0.3673 -0.7982
  739MOL0     C99693   2.212   1.698   8.391  0.4765  1.1871  0.0976
  739MOL0     C99694   2.258   1.687   8.503  0.0317  0.4458 -0.0781
  739MOL0     C99695   2.283   2.237   8.317  0.6434 -0.3422  0.1262
  739MOL0     C99696   2.384   2.331   8.335  0.0281 -0.0896 -0.6968
  739MOL0     C99697   2.451   2.345   8.471  0.3251 -1.1795  1.0840
  739MOL0     H99698   2.823   2.437   8.449  0.6548  0.7580  1.4105
  739MOL0     H99699   3.060   2.541   8.435  0.3926  1.8027  2.7176
  739MOL0     H99700   3.270   2.685   8.341 -0.3246 -0.1129 -0.7414
  739MOL0     H99701   3.152   2.726   8.203 -1.6248  0.2386  0.7319
  739MOL0     H99702   3.338   2.933   8.322  1.7657  0.9006 -2.0759
  739MOL0     H99703   3.215   2.941   8.193 -0.4494 -0.7528  0.2034
  739MOL0     H99704   3.327   2.762   8.075  1.1112 -1.5690 -0.6450
  739MOL0     H99705   3.445   2.747   8.204 -2.8516 -1.3123  0.2956
  739MOL0     H99706   3.392   2.997   8.014  0.4973 -0.2722 -0.7844
  739MOL0     H99707   3.502   3.007   8.151 -0.6365 -0.1570 -0.1418
  739MOL0     H99708   3.635   2.820   8.056 -1.9637 -0.4580  1.3869
  739MOL0     H99709   3.537   2.812   7.914  2.7614 -1.7378  0.5718
  739MOL0     H99710   3.612   3.028   7.845  0.8909 -0.6040 -0.9483
  739MOL0     H99711   3.657   3.066   8.018 -2.8053 -1.3736  1.9348
  739MOL0     H99712   3.781   2.869   7.812  2.1409  0.0285 -1.0948
  739MOL0     H99713   3.844   2.864   7.973  1.8241 -0.8003 -2.4857
  739MOL0     H99714   3.865   3.095   7.767  0.5164  0.8279  0.1352
  739MOL0     H99715   3.927   3.088   7.939  1.0348 -1.4378  0.8407
  739MOL0     H99716   4.178   3.144   7.819 -0.5724  0.8644 -1.0518
  739MOL0     H99717   4.398   3.078   7.769 -0.1317 -0.9338  0.7549
  739MOL0     H99718   4.430   2.908   7.735 -3.0301 -1.2164 -0.5703
  739MOL0     H99719   4.313   3.065   7.515  0.8600  4.4885 -0.4800
  739MOL0     H99720   4.480   3.118   7.546  0.4298 -1.1380  0.5327
  739MOL0     H99721   4.416   2.922   7.355 -1.9109 -2.0543  0.2184
  739MOL0     H99722   4.369   2.831   7.495 -0.1911  0.1819  2.6261
  739MOL0     H99723   4.595   2.760   7.432  0.4264  0.9562 -0.1971
  739MOL0     H99724   4.622   2.856   7.570 -0.2325 -0.9724  0.1676
  739MOL0     H99725   4.812   2.725   7.466 -0.3741  0.0958  0.1411
  739MOL0     H99726   5.039   2.684   7.400 -2.4653 -1.4283  2.6309
  739MOL0     H99727   5.481   2.689   7.470 -0.6607  1.2192 -0.1344
  739MOL0     H99728   5.729   2.704   7.401  0.0519  1.4540  1.6388
  739MOL0     H99729   5.793   2.665   6.958 -1.3518 -0.3033  1.1326
  739MOL0     H99730   5.807   2.836   6.972 -1.4775 -1.5864 -2.7544
  739MOL0     H99731   5.998   2.759   6.885 -1.0929 -1.7116  0.1350
  739MOL0     H99732   6.074   2.804   7.038  3.8323 -4.3760  0.3608
  739MOL0     H99733   6.046   2.581   7.134 -0.0946 -1.1100 -0.1068
  739MOL0     H99734   6.010   2.520   6.979 -1.1218 -0.0814  0.4253
  739MOL0     H99735   6.277   2.665   7.067  0.8121 -0.9742  0.0042
  739MOL0     H99736   6.234   2.621   6.902  0.3438  1.9665  0.2316
  739MOL0     H99737   6.196   2.383   7.066  0.3280 -0.7836  4.2595
  739MOL0     H99738   6.324   2.472   7.145 -1.1385  2.4862  0.2888
  739MOL0     H99739   6.324   2.436   6.838 -0.8246 -1.0206  0.4423
  739MOL0     H99740   6.458   2.486   6.927 -0.9734  1.1774 -0.9598
  739MOL0     H99741   6.320   2.223   6.926  0.6257 -0.5457 -1.1224
  739MOL0     H99742   6.432   2.237   7.050 -1.0943 -2.7416 -0.9047
  739MOL0     H99743   6.620   2.306   6.901 -1.4132  1.1972  2.3019
  739MOL0     H99744   6.570   2.143   6.855  1.2352 -0.2725  0.0156
  739MOL0     H99745   5.598   2.786   7.001  0.8170  2.1446  0.1679
  739MOL0     H99746   5.366   2.780   7.070  1.5049 -0.6573 -0.5742
  739MOL0     H99747   5.077   3.105   7.297 -0.8555 -0.3895 -2.7092
  739MOL0     H99748   4.838   3.125   7.318  2.0719  1.6684  2.0102
  739MOL0     H99749   2.863   2.903   8.288 -0.3365  0.4494  1.6698
  739MOL0     H99750   2.670   2.793   8.261  2.9756  1.6225 -1.7386
  739MOL0     H99751   2.380   2.481   8.031 -1.3594 -0.0624 -1.0887
  739MOL0     H99752   2.191   2.307   8.004  1.0999  0.6821 -2.2740
  739MOL0     H99753   2.252   2.057   8.043 -0.2010 -1.6443 -2.5159
  739MOL0     H99754   2.100   2.069   7.969 -0.6168  1.4496  0.7415
  739MOL0     H99755   2.172   1.848   8.032  0.2662 -1.4011  0.6749
  739MOL0     H99756   2.007   1.898   8.083 -0.8002  3.2465  0.8247
  739MOL0     H99757   2.067   1.891   8.320 -1.6880 -2.1351 -0.9439
  739MOL0     H99758   2.243   1.916   8.265  0.3251  1.2851 -0.2209
  739MOL0     H99759   2.069   1.671   8.249  0.8951 -1.3927 -2.2746
  739MOL0     H99760   2.242   1.678   8.184  1.3220 -2.6839  2.2360
  739MOL0     H99761   2.289   1.672   8.605 -1.4277 -0.7721  0.2172
  739MOL0     H99762   2.273   2.161   8.394  0.7271 -1.3610 -0.8345
  739MOL0     H99763   2.396   2.291   8.548 -0.2435 -0.1646  1.4027
  739MOL0     H99764   2.558   2.323   8.463  0.7143  1.1489 -1.8989
  739MOL0     H99765   2.452   2.450   8.498  1.4125 -1.4375  2.1271
  740MOL0     O99766   3.830   4.691   8.573  0.7492 -0.2284 -0.6958
  740MOL0     C99767   3.737   4.770   8.581  1.0574  0.0951  0.5712
  740MOL0     O99768   3.743   4.904   8.560  0.3523  0.0089 -0.2075
  740MOL0     C99769   3.870   4.955   8.552 -0.2272 -0.0118 -0.2703
  740MOL0     C99770   3.905   5.016   8.427 -0.0677 -0.3627 -0.1940
  740MOL0     C99771   4.027   5.088   8.415 -0.9725  0.0297  0.3115
  740MOL0     C99772   4.115   5.098   8.524  0.2858  0.8338 -0.9195
  740MOL0     O99773   4.231   5.162   8.527 -0.3366  0.2781 -0.2922
  740MOL0     C99774   4.296   5.170   8.397  0.9944 -0.2909  0.1045
  740MOL0     C99775   4.436   5.226   8.430 -0.0699 -0.5937  1.1932
  740MOL0     C99776   4.540   5.208   8.324 -0.6052 -0.3292  0.4932
  740MOL0     C99777   4.657   5.303   8.342 -0.0969  0.2159 -0.9396
  740MOL0     C99778   4.786   5.270   8.270  0.0896  0.1102 -0.6347
  740MOL0     C99779   4.877   5.162   8.339  0.0611 -1.8153 -0.2508
  740MOL0     C99780   4.983   5.094   8.259  0.6660 -0.0464 -0.2621
  740MOL0     C99781   5.120   5.163   8.234  0.5290 -0.0526  0.5045
  740MOL0     N99782   5.212   5.080   8.157  0.1308 -0.4910  0.3569
  740MOL0     C99783   5.188   5.055   8.024 -0.0129  0.0460  0.0725
  740MOL0     C99784   5.267   4.947   8.007 -0.4722  0.0274 -0.0604
  740MOL0     C99785   5.271   4.885   7.869 -0.3134 -0.1891  0.1351
  740MOL0     C99786   5.362   4.956   7.773 -0.7974  0.6874 -0.0237
  740MOL0     C99787   5.494   4.888   7.800  0.4921 -0.5991 -0.1962
  740MOL0     C99788   5.588   4.910   7.685 -0.0417 -0.4423  0.6197
  740MOL0     O99789   5.591   5.052   7.646  0.1611  0.7793 -0.5013
  740MOL0     C99790   5.635   5.069   7.520 -0.0839 -0.4738  0.3189
  740MOL0     C99791   5.614   5.205   7.470 -0.2135 -0.2288 -0.4838
  740MOL0     C99792   5.674   5.246   7.353 -0.2467 -0.1832  0.3261
  740MOL0     C99793   5.753   5.156   7.280  0.1527  0.0485 -0.3225
  740MOL0     C99794   5.825   5.193   7.152  0.1104  0.2977  0.1664
  740MOL0     O99795   5.880   5.093   7.080 -0.2454  0.5818  0.2379
  740MOL0     C99796   5.996   5.127   7.005  0.5424 -0.1436  1.2350
  740MOL0     C99797   6.111   5.158   7.072 -1.2955 -0.7130 -0.2112
  740MOL0     C99798   6.219   5.201   6.997  0.2223  0.7601  0.4214
  740MOL0     C99799   6.219   5.198   6.859 -0.4073  0.6321 -0.0970
  740MOL0     O99800   6.316   5.256   6.784 -0.0793  1.0730 -0.0914
  740MOL0     C99801   6.436   5.279   6.848 -0.2156 -0.1179 -0.3910
  740MOL0     C99802   6.530   5.337   6.743  0.3150 -0.1191 -0.8497
  740MOL0     C99803   6.600   5.228   6.653  0.2539 -0.4998  0.6211
  740MOL0     C99804   6.713   5.297   6.571  1.2662 -0.6022 -0.0619
  740MOL0     C99805   6.778   5.203   6.462  0.4906  0.7734 -0.4611
  740MOL0     C99806   6.877   5.247   6.352 -0.2793 -0.7710  0.0837
  740MOL0     C99807   6.992   5.337   6.408  0.3550 -0.1646  0.2607
  740MOL0     C99808   7.115   5.357   6.309  0.0884  0.2630  0.0128
  740MOL0    Cl99809   7.219   5.204   6.314 -0.5275 -0.0088  0.3200
  740MOL0     C99810   6.102   5.161   6.794  0.8958 -1.0263 -0.0227
  740MOL0     C99811   5.988   5.120   6.868  0.0278 -0.1249  0.2156
  740MOL0     O99812   5.829   5.315   7.119  0.1485 -0.1171  0.3046
  740MOL0     C99813   5.763   5.025   7.330  0.2314  0.4621  0.4115
  740MOL0     C99814   5.718   4.982   7.445  0.1891 -0.9830  0.2953
  740MOL0     N99815   5.336   4.916   8.119 -0.5209  0.2635  0.1057
  740MOL0     N99816   5.312   4.999   8.209  1.1986 -0.3661 -0.5612
  740MOL0     C99817   4.074   5.043   8.646 -0.1381 -0.5060  0.3774
  740MOL0     C99818   3.958   4.973   8.655 -0.5341 -0.0432 -0.3312
  740MOL0     C99819   3.607   4.701   8.604  0.1448  0.2463  0.2868
  740MOL0     C99820   3.598   4.599   8.699  0.3658  0.2964 -0.5659
  740MOL0     C99821   3.483   4.542   8.741  0.7497  0.1870 -0.1839
  740MOL0     C99822   3.361   4.598   8.700 -0.0264  0.1311  0.1539
  740MOL0     O99823   3.248   4.557   8.767 -0.4020  0.0483 -0.1507
  740MOL0     C99824   3.129   4.612   8.729 -0.7959  0.7364 -0.6907
  740MOL0     C99825   3.013   4.557   8.815 -0.1854  0.1222 -0.1958
  740MOL0     C99826   3.034   4.559   8.966 -0.3812  0.0862  0.4569
  740MOL0     C99827   3.117   4.438   9.018  0.8879 -0.1922  0.3737
  740MOL0     C99828   3.166   4.457   9.160  0.4313 -0.5023  0.0474
  740MOL0     C99829   3.217   4.483   9.265  0.3258  0.2937 -0.4840
  740MOL0     C99830   3.364   4.712   8.613  0.0252 -0.4009 -0.4946
  740MOL0     C99831   3.478   4.757   8.553 -0.6580  0.1690 -0.6695
  740MOL0     C99832   3.468   4.865   8.442  0.1617 -0.2259 -0.4907
  740MOL0     H99833   3.843   5.013   8.338  2.6849 -1.1808 -2.2329
  740MOL0     H99834   4.054   5.131   8.319 -1.3814 -0.5165 -0.0557
  740MOL0     H99835   4.300   5.067   8.361  0.2093  0.0651 -1.0645
  740MOL0     H99836   4.242   5.222   8.317  0.1058 -1.4214 -0.0475
  740MOL0     H99837   4.468   5.168   8.517  0.7917  1.6214  2.4315
  740MOL0     H99838   4.429   5.331   8.457  1.8960 -0.5616  1.7584
  740MOL0     H99839   4.499   5.200   8.223  0.6293 -1.1999  0.0366
  740MOL0     H99840   4.583   5.110   8.346 -1.7758 -1.3636 -1.5118
  740MOL0     H99841   4.619   5.398   8.303  1.1228  0.3556 -1.8724
  740MOL0     H99842   4.692   5.331   8.442  0.5822  3.9504 -2.0463
  740MOL0     H99843   4.777   5.242   8.165 -1.8017  2.0297 -1.0582
  740MOL0     H99844   4.833   5.369   8.274  0.0423  0.0943  0.9431
  740MOL0     H99845   4.933   5.214   8.418  0.1184  2.1978 -2.6784
  740MOL0     H99846   4.817   5.087   8.393  0.6532 -0.9457  1.7041
  740MOL0     H99847   4.944   5.068   8.161 -1.1430 -2.2730  0.9558
  740MOL0     H99848   4.992   4.999   8.312 -2.8963 -1.4022 -1.8152
  740MOL0     H99849   5.101   5.249   8.169 -1.7583 -0.4653  0.5320
  740MOL0     H99850   5.175   5.198   8.322  0.3638  1.0706  0.1755
  740MOL0     H99851   5.123   5.102   7.951  0.2728 -1.0841 -0.9440
  740MOL0     H99852   5.284   4.776   7.875  1.5786 -0.3400 -3.6847
  740MOL0     H99853   5.170   4.899   7.829 -0.6687 -0.4042  0.9423
  740MOL0     H99854   5.339   4.956   7.666  1.5321  2.1493 -0.5935
  740MOL0     H99855   5.366   5.062   7.800  2.1978  1.1239 -1.7431
  740MOL0     H99856   5.478   4.780   7.806 -2.8917 -0.2117 -0.1282
  740MOL0     H99857   5.535   4.925   7.895 -0.2546  0.8402 -0.4021
  740MOL0     H99858   5.553   4.846   7.603 -0.4996 -0.7618  1.0608
  740MOL0     H99859   5.688   4.870   7.706 -0.2675 -1.7133 -0.5607
  740MOL0     H99860   5.564   5.266   7.544  0.8840 -2.2227  2.0563
  740MOL0     H99861   5.673   5.351   7.326  1.5554 -0.6050 -1.5685
  740MOL0     H99862   6.120   5.170   7.179  0.5891  1.5584 -0.5618
  740MOL0     H99863   6.295   5.240   7.065  1.6063  1.1923 -1.3117
  740MOL0     H99864   6.428   5.352   6.929 -1.2436  0.1245 -0.7056
  740MOL0     H99865   6.487   5.193   6.893  0.0411 -0.2113 -0.8486
  740MOL0     H99866   6.482   5.413   6.680 -2.1408 -1.8099 -1.1619
  740MOL0     H99867   6.614   5.380   6.800 -0.3660 -1.3649  1.1621
  740MOL0     H99868   6.641   5.146   6.712 -0.1366  0.0603  1.6978
  740MOL0     H99869   6.519   5.177   6.599 -0.1410 -1.4775  2.0833
  740MOL0     H99870   6.795   5.333   6.634  1.8323 -1.1943 -0.4410
  740MOL0     H99871   6.684   5.388   6.517  2.5128  0.3325  0.7899
  740MOL0     H99872   6.690   5.175   6.403 -0.3950 -1.7118  1.8009
  740MOL0     H99873   6.818   5.114   6.511  0.3083  1.2239  0.5302
  740MOL0     H99874   6.917   5.166   6.290 -0.1024  0.5571 -1.6210
  740MOL0     H99875   6.824   5.302   6.274  0.6718  0.7640  0.4715
  740MOL0     H99876   7.033   5.297   6.502  2.0187 -2.5099 -1.3251
  740MOL0     H99877   6.941   5.428   6.441  2.1739  0.0858  2.6878
  740MOL0     H99878   7.073   5.381   6.211 -2.1860 -2.4453  0.1918
  740MOL0     H99879   7.184   5.431   6.348  0.3578  0.1012 -0.1543
  740MOL0     H99880   6.093   5.172   6.687  1.8485  0.9281  0.0630
  740MOL0     H99881   5.891   5.101   6.823  0.9671 -0.6642 -1.7281
  740MOL0     H99882   5.811   4.950   7.269 -0.8462  0.0935 -0.0200
  740MOL0     H99883   5.744   4.880   7.472  0.5987 -0.9927 -0.1243
  740MOL0     H99884   4.132   5.078   8.730  1.6793  0.8457 -1.3529
  740MOL0     H99885   3.939   4.938   8.756  1.8967  1.1698  0.6356
  740MOL0     H99886   3.696   4.567   8.736 -0.1898 -0.3250  0.4099
  740MOL0     H99887   3.478   4.452   8.802  1.7199  0.7688  0.7797
  740MOL0     H99888   3.108   4.590   8.624  0.4159 -3.3672 -0.2332
  740MOL0     H99889   3.136   4.720   8.746  1.5871  0.5857 -0.2984
  740MOL0     H99890   2.999   4.455   8.777 -0.1935 -0.6870  1.8360
  740MOL0     H99891   2.916   4.603   8.794 -1.6128 -1.9251  1.4404
  740MOL0     H99892   2.937   4.557   9.016 -0.9708 -2.8780 -0.5882
  740MOL0     H99893   3.090   4.650   8.988  0.6954 -0.5689  0.5069
  740MOL0     H99894   3.052   4.350   9.019  0.4250  0.1434  0.6667
  740MOL0     H99895   3.204   4.419   8.955 -0.0867  1.2536 -1.5130
  740MOL0     H99896   3.266   4.509   9.357  1.9179  2.7707 -1.9392
  740MOL0     H99897   3.272   4.764   8.590 -0.4298 -0.9358  0.0918
  740MOL0     H99898   3.564   4.874   8.389 -0.3440  0.8572 -1.2373
  740MOL0     H99899   3.394   4.832   8.369 -0.3642 -2.2064  0.8510
  740MOL0     H99900   3.438   4.961   8.483 -0.8515 -1.5863  2.1994
  741MOL0     O99901   2.362   3.372   7.371 -0.1653 -0.4866  0.3690
  741MOL0     C99902   2.305   3.441   7.282 -0.8107  0.8497 -0.2148
  741MOL0     O99903   2.286   3.402   7.154 -0.2370 -0.4647  0.3612
  741MOL0     C99904   2.347   3.286   7.111 -0.3819  0.1126 -0.7476
  741MOL0     C99905   2.428   3.306   6.998  0.2388  0.6776 -0.4447
  741MOL0     C99906   2.490   3.194   6.943 -0.2132  0.5186 -0.6146
  741MOL0     C99907   2.483   3.069   7.002  0.3176 -0.3682 -0.2427
  741MOL0     O99908   2.540   2.971   6.926  0.3697  0.3567  0.5137
  741MOL0     C99909   2.497   2.836   6.949 -0.5506 -0.2964 -0.3259
  741MOL0     C99910   2.573   2.737   6.858 -0.5206 -0.3517 -0.4610
  741MOL0     C99911   2.728   2.739   6.884  0.6494  0.1678  0.1457
  741MOL0     C99912   2.760   2.743   7.035  0.3922  0.6036 -0.1257
  741MOL0     C99913   2.913   2.740   7.063  0.1278 -0.0240  0.2298
  741MOL0     C99914   2.972   2.600   7.036 -0.1675  0.1745 -0.1555
  741MOL0     C99915   3.126   2.583   7.060 -0.6842  0.1430  0.1792
  741MOL0     C99916   3.166   2.606   7.202 -0.3623 -0.0455  0.3658
  741MOL0     N99917   3.300   2.564   7.246 -0.4408  0.4691  0.5817
  741MOL0     C99918   3.402   2.650   7.271 -0.0535  0.2905 -0.4312
  741MOL0     C99919   3.516   2.587   7.275 -0.6953  0.2912 -0.8049
  741MOL0     C99920   3.649   2.642   7.293 -0.2769  0.5008 -0.1117
  741MOL0     C99921   3.774   2.561   7.245  0.2351  0.0038  0.9283
  741MOL0     C99922   3.909   2.632   7.269 -0.3963 -0.6446 -0.0876
  741MOL0     C99923   4.043   2.555   7.239  0.0278 -0.4825 -0.2149
  741MOL0     O99924   4.158   2.642   7.240 -0.4138  0.2113  0.2373
  741MOL0     C99925   4.277   2.579   7.232 -0.9100 -0.2610  0.1555
  741MOL0     C99926   4.309   2.443   7.235 -0.0333 -0.0707  0.0043
  741MOL0     C99927   4.443   2.405   7.212  0.1170 -0.4231  0.1979
  741MOL0     C99928   4.548   2.496   7.192  0.1598  0.0238  0.4748
  741MOL0     C99929   4.682   2.457   7.175  0.1627  0.3818 -0.0196
  741MOL0     O99930   4.770   2.548   7.118 -0.7037  0.4340  0.1005
  741MOL0     C99931   4.903   2.528   7.098 -0.4760 -0.1112 -0.5599
  741MOL0     C99932   4.973   2.407   7.086  0.6845 -0.3714 -1.6409
  741MOL0     C99933   5.104   2.396   7.038 -0.7412  0.2469  0.3971
  741MOL0     C99934   5.173   2.513   6.999 -0.2655  0.6963  0.0224
  741MOL0     O99935   5.306   2.521   6.962  0.1975 -0.3951 -0.2994
  741MOL0     C99936   5.403   2.412   6.973 -0.8966  0.0729 -0.2581
  741MOL0     C99937   5.544   2.458   6.939  0.3405 -0.5219 -0.2189
  741MOL0     C99938   5.654   2.352   6.910  0.2685  0.4804  0.1058
  741MOL0     C99939   5.734   2.374   6.781 -0.1110 -0.2015  0.5653
  741MOL0     C99940   5.833   2.258   6.745 -0.0069 -0.4051 -0.2337
  741MOL0     C99941   5.945   2.237   6.853  0.6509  0.0131 -0.0246
  741MOL0     C99942   6.023   2.114   6.845  0.7059  0.6775 -0.4932
  741MOL0     C99943   6.084   2.084   6.709 -0.0257  0.5008  1.3032
  741MOL0    Cl99944   6.190   1.948   6.753  0.1466  0.0290  0.2809
  741MOL0     C99945   5.100   2.634   7.016 -0.8937  0.0921  0.0121
  741MOL0     C99946   4.973   2.637   7.057 -0.1625  0.4389  0.6157
  741MOL0     O99947   4.714   2.340   7.213 -0.2949 -0.1373  0.3993
  741MOL0     C99948   4.516   2.632   7.187 -0.5303 -0.5389  0.7545
  741MOL0     C99949   4.379   2.673   7.204 -0.2754  0.1022  0.0945
  741MOL0     N99950   3.483   2.452   7.252 -0.4272  0.0041 -0.7407
  741MOL0     N99951   3.353   2.444   7.233 -1.0320  0.6656 -0.3340
  741MOL0     C99952   2.409   3.053   7.121 -0.8417  0.3685  0.0263
  741MOL0     C99953   2.338   3.160   7.175  0.2164 -0.1271  0.5412
  741MOL0     C99954   2.260   3.570   7.337  0.5402  1.1716  0.1309
  741MOL0     C99955   2.118   3.597   7.351  0.1789  0.3365  0.2454
  741MOL0     C99956   2.067   3.712   7.417  0.5143 -0.2149 -0.0964
  741MOL0     C99957   2.155   3.797   7.476  0.9759  0.0063 -0.8695
  741MOL0     O99958   2.123   3.904   7.558  0.0311  0.4551  0.1245
  741MOL0     C99959   2.005   3.893   7.648  0.1437  0.4396  0.6333
  741MOL0     C99960   2.005   3.775   7.750  0.8990 -0.6163  0.0926
  741MOL0     C99961   1.874   3.779   7.839  0.7099  0.0295 -0.0185
  741MOL0     C99962   1.883   3.691   7.962 -0.3222 -0.7103 -0.7106
  741MOL0     C99963   1.848   3.554   7.926  0.3381  0.5219 -0.3399
  741MOL0     C99964   1.794   3.456   7.896 -0.7219 -0.4463 -0.6546
  741MOL0     C99965   2.286   3.785   7.453 -0.5219 -0.0432 -0.3287
  741MOL0     C99966   2.345   3.673   7.385 -0.2446  0.0102  0.9389
  741MOL0     C99967   2.494   3.666   7.360  0.0230  0.0492 -0.4802
  741MOL0     H99968   2.434   3.402   6.949 -2.8691  0.9191 -0.5747
  741MOL0     H99969   2.553   3.201   6.855  0.3450 -2.3101 -0.5122
  741MOL0     H99970   2.510   2.797   7.050  0.2673 -3.3191 -1.4693
  741MOL0     H99971   2.391   2.837   6.925 -0.7873 -0.8565  0.6589
  741MOL0     H99972   2.553   2.767   6.755  0.1224 -0.9504 -0.7635
  741MOL0     H99973   2.533   2.637   6.877  0.2399 -0.5541  0.1327
  741MOL0     H99974   2.765   2.824   6.827  1.8047 -0.2089  0.2980
  741MOL0     H99975   2.771   2.647   6.841 -2.6688 -2.5484  2.1024
  741MOL0     H99976   2.723   2.837   7.076 -0.8113  0.4521 -0.8077
  741MOL0     H99977   2.700   2.671   7.091  2.6925 -0.1402  1.5241
  741MOL0     H99978   2.965   2.812   6.999 -0.1215 -1.4619 -1.6922
  741MOL0     H99979   2.921   2.767   7.168  0.3667  1.5644 -0.1580
  741MOL0     H99980   2.916   2.518   7.083 -0.3710  0.2103 -0.3331
  741MOL0     H99981   2.949   2.580   6.931  3.9991 -1.2033 -0.9804
  741MOL0     H99982   3.187   2.662   7.015  0.2739 -1.3433 -1.2684
  741MOL0     H99983   3.166   2.490   7.019 -0.9950  0.9070 -2.0354
  741MOL0     H99984   3.156   2.714   7.219 -3.3267 -0.0420 -0.7537
  741MOL0     H99985   3.092   2.567   7.273  0.9329  1.8047  2.8927
  741MOL0     H99986   3.389   2.755   7.295  0.3790  0.3325 -0.3684
  741MOL0     H99987   3.662   2.727   7.225  1.8402  0.0293 -0.3926
  741MOL0     H99988   3.668   2.670   7.397 -1.3478 -1.7672  0.7445
  741MOL0     H99989   3.765   2.460   7.285 -1.5414 -1.3668 -2.6055
  741MOL0     H99990   3.762   2.548   7.138  2.8333 -0.0919  0.5749
  741MOL0     H99991   3.907   2.680   7.368 -2.1950 -0.9641  0.0634
  741MOL0     H99992   3.910   2.707   7.189 -0.4290 -1.6235 -1.0338
  741MOL0     H99993   4.027   2.504   7.144 -1.5828  2.8519 -1.9029
  741MOL0     H99994   4.054   2.478   7.316 -1.1914  0.4829  0.9838
  741MOL0     H99995   4.238   2.364   7.258  1.3724 -0.6532  2.9125
  741MOL0     H99996   4.474   2.301   7.209  0.1319 -0.4297 -2.5865
  741MOL0     H99997   4.922   2.316   7.116  0.5339 -0.6926 -2.8282
  741MOL0     H99998   5.155   2.301   7.040  1.9348  1.5749 -0.1369
  741MOL0     H99999   5.402   2.374   7.076 -1.7746  0.8384  0.0282
  741MOL0     H    0   5.377   2.340   6.894 -0.1261  0.1525 -0.5890
  741MOL0     H    1   5.544   2.531   6.858 -0.4172  0.0573  0.2976
  741MOL0     H    2   5.571   2.517   7.027 -0.2821 -1.3233  0.5311
  741MOL0     H    3   5.715   2.354   7.001 -1.4561  1.7423  1.3115
  741MOL0     H    4   5.609   2.252   6.903 -0.9058  0.9146  1.0157
  741MOL0     H    5   5.786   2.470   6.787  0.1857 -0.1682 -1.8132
  741MOL0     H    6   5.660   2.379   6.701 -1.4010  0.5594  1.7761
  741MOL0     H    7   5.883   2.294   6.654 -0.6920  0.2143 -0.3771
  741MOL0     H    8   5.764   2.175   6.731 -3.1036  1.7766  0.8752
  741MOL0     H    9   6.009   2.325   6.837  0.3164  0.6787  2.0031
  741MOL0     H   10   5.903   2.237   6.954 -0.3430  0.0524 -0.4277
  741MOL0     H   11   5.958   2.032   6.876  0.7420  1.1736  1.0075
  741MOL0     H   12   6.100   2.115   6.923  1.3133 -2.0727 -0.9728
  741MOL0     H   13   6.003   2.064   6.638  1.7636 -0.2093 -0.6347
  741MOL0     H   14   6.138   2.167   6.663  3.3268 -1.2962  1.6792
  741MOL0     H   15   5.153   2.729   7.014  0.7321 -0.3415  5.2234
  741MOL0     H   16   4.928   2.733   7.080  2.7805  1.7011  1.5138
  741MOL0     H   17   4.585   2.714   7.166 -1.9509  0.6985  0.7974
  741MOL0     H   18   4.363   2.780   7.197  1.9047  0.4395 -0.4958
  741MOL0     H   19   2.393   2.958   7.170  0.8093  0.4216  0.7463
  741MOL0     H   20   2.276   3.157   7.265 -2.6952 -0.5814 -1.3363
  741MOL0     H   21   2.051   3.518   7.319 -1.0264  2.3644 -2.6653
  741MOL0     H   22   1.960   3.722   7.430  0.1388 -3.4274  0.2620
  741MOL0     H   23   1.911   3.905   7.594  1.3913  3.0238 -1.1653
  741MOL0     H   24   2.019   3.981   7.712  2.2732  1.0596 -0.6070
  741MOL0     H   25   2.090   3.800   7.814  0.5583  2.3886 -0.5154
  741MOL0     H   26   2.007   3.679   7.698 -2.8789 -0.5575 -0.4350
  741MOL0     H   27   1.789   3.746   7.777  1.4060 -3.1157  0.5457
  741MOL0     H   28   1.850   3.880   7.874 -2.4818 -0.1441 -1.3158
  741MOL0     H   29   1.986   3.689   7.998 -0.4382 -1.2600 -0.4106
  741MOL0     H   30   1.823   3.722   8.048  1.5316  0.1450  0.3319
  741MOL0     H   31   1.779   3.355   7.862  0.8494 -0.9348 -0.0008
  741MOL0     H   32   2.350   3.862   7.493  1.6736 -1.1714 -1.4683
  741MOL0     H   33   2.527   3.580   7.420 -0.9845  0.0711  0.1194
  741MOL0     H   34   2.519   3.642   7.256  1.0701  0.0075 -0.2313
  741MOL0     H   35   2.533   3.765   7.387  1.0884 -0.8655  1.6257
  742MOL0     O   36   8.204   7.406   8.513  0.5697  0.0661 -0.2801
  742MOL0     C   37   8.141   7.420   8.407  0.3876  0.5934  0.4688
  742MOL0     O   38   8.200   7.447   8.284 -0.0170  0.0300 -0.2049
  742MOL0     C   39   8.335   7.442   8.268 -0.0101  0.2147  1.2770
  742MOL0     C   40   8.405   7.326   8.288  0.0006 -0.1553  0.6041
  742MOL0     C   41   8.545   7.330   8.263 -0.1526 -0.3351  0.2321
  742MOL0     C   42   8.614   7.444   8.211 -0.2450 -0.5790 -0.1961
  742MOL0     O   43   8.750   7.461   8.186  0.2515  0.3710 -0.2061
  742MOL0     C   44   8.829   7.358   8.251 -0.1934  0.2977  0.1516
  742MOL0     C   45   8.980   7.371   8.248 -0.5079 -0.0053 -0.1634
  742MOL0     C   46   9.027   7.442   8.122 -0.4486  0.4624 -0.2678
  742MOL0     C   47   9.178   7.418   8.082 -0.0367 -0.5901 -0.2956
  742MOL0     C   48   9.269   7.483   8.179 -0.6142  0.2466 -0.0488
  742MOL0     C   49   9.412   7.460   8.159 -0.3525  0.0117 -0.6841
  742MOL0     C   50   9.461   7.533   8.038  0.0659  0.2019 -0.3711
  742MOL0     C   51   9.609   7.498   8.006 -0.2372  0.1372  0.5480
  742MOL0     N   52   9.655   7.584   7.884 -0.0663  0.1735 -0.0972
  742MOL0     C   53   9.735   7.560   7.778 -0.1928  0.3414  0.8111
  742MOL0     C   54   9.732   7.677   7.699 -0.0009  0.8492  0.8638
  742MOL0     C   55   9.814   7.701   7.578  0.4662  0.3447 -0.3529
  742MOL0     C   56   9.949   7.762   7.602 -1.1403  0.2777 -0.3306
  742MOL0     C   57  10.014   7.814   7.479  0.1730 -0.2545 -0.0193
  742MOL0     C   58  10.018   7.714   7.363 -0.4045  0.0361 -0.0825
  742MOL0     O   59  10.081   7.590   7.396 -0.0160  0.4277  0.6734
  742MOL0     C   60  10.218   7.582   7.378  0.2713  0.0487  1.1671
  742MOL0     C   61  10.255   7.456   7.369 -0.6702 -0.5672 -0.3195
  742MOL0     C   62  10.389   7.427   7.329 -0.0979  0.7969  0.3955
  742MOL0     C   63  10.482   7.533   7.304  0.1847 -0.1301  0.2829
  742MOL0     C   64  10.622   7.511   7.271 -0.3821  0.4027 -0.4641
  742MOL0     O   65  10.702   7.619   7.293  0.1486 -0.7361 -0.1784
  742MOL0     C   66  10.837   7.596   7.286 -0.5934 -0.4484 -0.6684
  742MOL0     C   67  10.908   7.576   7.403 -0.9073  0.4662  1.1537
  742MOL0     C   68  11.051   7.568   7.393 -0.6390  0.9470 -0.2297
  742MOL0     C   69  11.123   7.562   7.278 -0.6865  0.9824  0.5738
  742MOL0     O   70  11.259   7.561   7.272  0.1459 -0.1385  0.0060
  742MOL0     C   71  11.318   7.660   7.353  0.6589 -1.2109 -0.8822
  742MOL0     C   72  11.466   7.681   7.300 -0.1555  0.4630  0.5990
  742MOL0     C   73  11.487   7.760   7.174 -0.4745  0.6736  0.7302
  742MOL0     C   74  11.622   7.754   7.107  0.1581 -0.5781 -0.0267
  742MOL0     C   75  11.628   7.804   6.966 -0.4891 -0.3115 -0.4370
  742MOL0     C   76  11.768   7.822   6.916 -1.1034 -0.6765  0.3150
  742MOL0     C   77  11.764   7.854   6.768  0.0908 -0.0260  0.0060
  742MOL0     C   78  11.901   7.894   6.720  0.5327 -0.2924 -0.1883
  742MOL0    Cl   79  11.951   8.059   6.789 -0.3016 -0.1055  0.0450
  742MOL0     C   80  11.052   7.583   7.166  0.6539  0.1060  0.1609
  742MOL0     C   81  10.910   7.604   7.169  0.0298 -0.4487 -0.2728
  742MOL0     O   82  10.655   7.390   7.250 -0.2109 -0.0960  0.4769
  742MOL0     C   83  10.432   7.666   7.309 -1.0707  0.4191 -0.4469
  742MOL0     C   84  10.302   7.686   7.350 -0.1956 -0.0201 -0.8968
  742MOL0     N   85   9.652   7.768   7.759 -0.3304 -0.4109  0.1446
  742MOL0     N   86   9.613   7.715   7.870  0.5624  0.8311  0.3084
  742MOL0     C   87   8.538   7.555   8.184 -0.7129  0.0688 -0.1635
  742MOL0     C   88   8.404   7.558   8.215 -0.5428  0.6999  0.3714
  742MOL0     C   89   7.991   7.417   8.411 -0.1878  0.5884  0.1330
  742MOL0     C   90   7.927   7.318   8.337  0.2399 -0.6834 -0.2422
  742MOL0     C   91   7.790   7.299   8.348  0.6967 -0.5622  0.2600
  742MOL0     C   92   7.714   7.390   8.422  0.4586  0.6485 -0.0995
  742MOL0     O   93   7.578   7.384   8.418 -0.1326 -0.0505  0.0285
  742MOL0     C   94   7.506   7.287   8.337 -0.2421 -0.0900 -0.6873
  742MOL0     C   95   7.354   7.305   8.357 -0.1840  0.5991 -0.3535
  742MOL0     C   96   7.274   7.185   8.307  0.2152 -0.7578 -0.0297
  742MOL0     C   97   7.122   7.191   8.356 -1.0841 -0.0505 -0.3426
  742MOL0     C   98   7.053   7.075   8.294  0.4701  0.0023  0.0841
  742MOL0     C   99   6.985   6.981   8.252  0.6348  0.1227  0.6960
  742MOL0     C  100   7.772   7.489   8.498  0.4054  0.1768 -0.3910
  742MOL0     C  101   7.914   7.498   8.494  0.0279 -0.5404  0.2090
  742MOL0     C  102   7.988   7.596   8.587  0.0388 -1.1219  0.0719
  742MOL0     H  103   8.353   7.240   8.329 -1.0965  0.2078  0.0314
  742MOL0     H  104   8.603   7.240   8.281  0.1106 -0.4292 -0.9972
  742MOL0     H  105   8.797   7.362   8.356 -1.9237 -1.2714 -0.2593
  742MOL0     H  106   8.812   7.256   8.215 -2.2104  0.7960 -0.4707
  742MOL0     H  107   9.022   7.271   8.264  0.4417  0.5853  1.3056
  742MOL0     H  108   9.008   7.433   8.334  0.8283  0.4368 -0.8810
  742MOL0     H  109   9.024   7.550   8.140  2.3931  0.6265 -0.4582
  742MOL0     H  110   8.962   7.422   8.036  0.2112  1.0005 -0.9031
  742MOL0     H  111   9.194   7.310   8.079  0.2381 -0.5310 -1.1834
  742MOL0     H  112   9.185   7.459   7.981 -2.4901 -1.0510 -0.7262
  742MOL0     H  113   9.257   7.592   8.185 -0.4194  0.2917 -0.4207
  742MOL0     H  114   9.251   7.443   8.279  0.9858 -0.6046 -0.0696
  742MOL0     H  115   9.461   7.502   8.247 -1.6426 -0.5609  0.3349
  742MOL0     H  116   9.433   7.353   8.164  0.3663  0.1784  0.1090
  742MOL0     H  117   9.440   7.639   8.058 -1.9605 -0.1462 -0.4318
  742MOL0     H  118   9.399   7.507   7.952 -2.2820 -0.6640  1.4867
  742MOL0     H  119   9.669   7.524   8.094  0.3849 -2.5777  1.0151
  742MOL0     H  120   9.621   7.391   7.986  0.9414  0.5955 -1.3644
  742MOL0     H  121   9.785   7.466   7.757  1.0194  0.6997  1.9720
  742MOL0     H  122   9.839   7.598   7.549 -0.6161 -0.7764  2.3551
  742MOL0     H  123   9.759   7.748   7.497  0.4032 -0.0289 -0.5316
  742MOL0     H  124   9.941   7.838   7.680 -1.8850  1.5178 -1.5739
  742MOL0     H  125  10.015   7.681   7.635 -2.4473 -0.3196  0.9630
  742MOL0     H  126  10.109   7.860   7.508 -0.4368  0.2010  1.3507
  742MOL0     H  127   9.948   7.897   7.454 -0.5220 -0.6938  0.3195
  742MOL0     H  128  10.062   7.753   7.271 -4.0872 -0.0536 -2.0728
  742MOL0     H  129   9.916   7.687   7.332  0.0064  0.0938 -1.5528
  742MOL0     H  130  10.175   7.383   7.378 -2.6313  1.4333 -0.8012
  742MOL0     H  131  10.410   7.323   7.304 -2.5089  0.2356  0.4410
  742MOL0     H  132  10.856   7.576   7.499 -0.5393  1.3680  1.3630
  742MOL0     H  133  11.113   7.557   7.481  2.1558  1.5053 -1.9942
  742MOL0     H  134  11.256   7.750   7.352  0.6816 -1.1612  0.6583
  742MOL0     H  135  11.322   7.625   7.456 -2.9541 -0.4849 -0.3875
  742MOL0     H  136  11.530   7.735   7.370  3.3136  0.2619 -2.1565
  742MOL0     H  137  11.516   7.585   7.284  1.6246  1.7132 -2.0275
  742MOL0     H  138  11.417   7.727   7.096 -0.5311 -0.1411  1.1116
  742MOL0     H  139  11.472   7.866   7.193  2.8217  1.4808 -0.4309
  742MOL0     H  140  11.648   7.648   7.108  1.5919 -0.2547  1.4128
  742MOL0     H  141  11.691   7.807   7.173 -0.1715 -1.4382  1.0475
  742MOL0     H  142  11.580   7.902   6.970  2.7677  1.3972  2.8799
  742MOL0     H  143  11.583   7.737   6.893 -0.2812  0.4324 -1.2641
  742MOL0     H  144  11.826   7.905   6.958  3.7390 -3.4688 -0.0773
  742MOL0     H  145  11.828   7.735   6.943  2.1214  0.4773 -2.4402
  742MOL0     H  146  11.692   7.937   6.757 -0.4208 -0.5761 -0.9882
  742MOL0     H  147  11.721   7.770   6.712  1.4652  0.5828 -2.1087
  742MOL0     H  148  11.978   7.828   6.760  3.7106  2.5334 -1.1919
  742MOL0     H  149  11.896   7.899   6.611 -0.1597 -2.8144 -0.3302
  742MOL0     H  150  11.099   7.597   7.069  1.6338  0.8301  0.7270
  742MOL0     H  151  10.853   7.614   7.077 -1.2063 -0.1154  0.5033
  742MOL0     H  152  10.497   7.752   7.297 -0.4856 -0.3130 -3.2923
  742MOL0     H  153  10.278   7.789   7.374 -0.8839 -0.1779 -0.9065
  742MOL0     H  154   8.585   7.647   8.149  2.2628 -0.5000  1.9877
  742MOL0     H  155   8.343   7.645   8.191 -1.2299 -0.6168 -3.3056
  742MOL0     H  156   7.993   7.250   8.284 -1.2952  1.0663 -4.9961
  742MOL0     H  157   7.754   7.212   8.294  1.1127 -0.6567  0.1337
  742MOL0     H  158   7.545   7.190   8.368 -0.5311  0.8458  3.0220
  742MOL0     H  159   7.530   7.307   8.232  1.3330  0.5323 -0.2396
  742MOL0     H  160   7.328   7.400   8.309 -2.6971  0.3832  0.4424
  742MOL0     H  161   7.335   7.309   8.465 -0.5698  1.2948 -0.4375
  742MOL0     H  162   7.327   7.096   8.342  1.2692  0.4495  1.5668
  742MOL0     H  163   7.279   7.177   8.198  0.0872 -3.4804  0.1037
  742MOL0     H  164   7.110   7.192   8.465 -3.4897 -0.3398 -0.5579
  742MOL0     H  165   7.079   7.286   8.323 -1.5477 -0.7193 -1.7351
  742MOL0     H  166   6.926   6.906   8.204  2.6221 -1.0379 -0.0173
  742MOL0     H  167   7.709   7.556   8.556  0.8822  0.0799  0.2450
  742MOL0     H  168   7.918   7.668   8.630  2.5406 -0.0013  2.5280
  742MOL0     H  169   8.034   7.539   8.668  0.7051  0.8665  1.1601
  742MOL0     H  170   8.055   7.656   8.524 -0.1114  0.0809  1.0303
  743MOL0     O  171   4.455   5.329   2.726 -1.1863  0.3247 -0.4919
  743MOL0     C  172   4.395   5.293   2.626 -0.1545  0.4226 -0.0670
  743MOL0     O  173   4.459   5.272   2.504 -0.1049 -0.2205  0.1758
  743MOL0     C  174   4.589   5.298   2.488 -0.6131  0.2611 -0.0309
  743MOL0     C  175   4.679   5.192   2.454 -0.4420  0.3662  0.2022
  743MOL0     C  176   4.804   5.216   2.422 -0.7264 -0.3868 -0.7246
  743MOL0     C  177   4.863   5.346   2.425  0.7718 -0.7035  1.5750
  743MOL0     O  178   4.993   5.372   2.393  0.4802 -0.4534 -0.1156
  743MOL0     C  179   5.080   5.307   2.484 -0.2360  0.0064  0.7910
  743MOL0     C  180   5.223   5.370   2.468  0.3413 -0.9336 -0.7225
  743MOL0     C  181   5.228   5.531   2.457  0.5576 -0.4296  0.4541
  743MOL0     C  182   5.364   5.564   2.523 -0.0564 -0.3141 -0.2608
  743MOL0     C  183   5.374   5.714   2.560  0.1339 -0.2051  0.0132
  743MOL0     C  184   5.315   5.740   2.692  1.0049  0.5825  0.6728
  743MOL0     C  185   5.332   5.888   2.734 -0.8511 -0.3767 -0.2698
  743MOL0     C  186   5.245   5.918   2.854  0.5506 -0.5801 -1.3180
  743MOL0     N  187   5.287   5.850   2.977 -0.7045 -0.1088  0.3296
  743MOL0     C  188   5.409   5.858   3.041  0.0085 -0.0062  0.3086
  743MOL0     C  189   5.392   5.765   3.134  0.3330 -0.1869  0.6004
  743MOL0     C  190   5.498   5.730   3.230  0.3480  0.3030 -0.5691
  743MOL0     C  191   5.574   5.610   3.170 -0.9863  0.4767  0.4550
  743MOL0     C  192   5.697   5.580   3.266 -0.0258 -0.3362  0.6422
  743MOL0     C  193   5.813   5.486   3.223  0.3881  0.5874 -0.0389
  743MOL0     O  194   5.884   5.536   3.110 -0.4077 -0.7619 -0.0454
  743MOL0     C  195   6.010   5.486   3.089  0.9691 -0.1118  0.2901
  743MOL0     C  196   6.066   5.373   3.144  0.4930  0.2355  1.1908
  743MOL0     C  197   6.193   5.325   3.100 -0.2822  0.1419  0.2859
  743MOL0     C  198   6.274   5.401   3.012  0.3421  0.4135  0.4421
  743MOL0     C  199   6.414   5.352   2.976  0.8539  0.4570  0.0431
  743MOL0     O  200   6.478   5.271   3.066  0.0411 -0.3024  0.8699
  743MOL0     C  201   6.608   5.227   3.041  0.3802 -0.9705  0.0408
  743MOL0     C  202   6.719   5.311   3.015 -0.2512 -0.2463  0.2286
  743MOL0     C  203   6.848   5.255   2.982 -0.2777 -0.0120 -1.1560
  743MOL0     C  204   6.866   5.117   2.991 -0.1638  0.0349  0.2051
  743MOL0     O  205   6.986   5.064   2.954 -0.3976 -0.7000 -0.2283
  743MOL0     C  206   7.024   4.934   2.992 -0.3834 -0.0148  0.0275
  743MOL0     C  207   7.162   4.916   2.927 -0.0995  1.0817 -0.2799
  743MOL0     C  208   7.273   5.005   2.974 -0.5682  0.1479  0.5187
  743MOL0     C  209   7.308   5.034   3.121  0.4575 -0.2110  0.1350
  743MOL0     C  210   7.429   5.124   3.133  0.3335  0.3420 -0.5396
  743MOL0     C  211   7.485   5.142   3.273 -0.1646 -0.1760 -0.4894
  743MOL0     C  212   7.575   5.026   3.316  0.6144  0.7347  0.1524
  743MOL0     C  213   7.662   5.064   3.429 -0.3121  0.0563 -0.6286
  743MOL0    Cl  214   7.773   4.937   3.486 -0.1440 -0.3313  0.1443
  743MOL0     C  215   6.757   5.036   3.027 -0.1652  0.3673 -0.4054
  743MOL0     C  216   6.630   5.091   3.049  0.0268  0.3572  0.1050
  743MOL0     O  217   6.464   5.390   2.867 -0.4778 -0.9407  0.1919
  743MOL0     C  218   6.224   5.519   2.964 -0.1090 -0.3538  0.9392
  743MOL0     C  219   6.099   5.556   2.995  0.8369 -0.0994 -0.0214
  743MOL0     N  220   5.267   5.713   3.134 -0.3012  0.0438  0.6217
  743MOL0     N  221   5.210   5.754   3.029 -0.2913 -0.2824 -0.3106
  743MOL0     C  222   4.783   5.449   2.462  0.7798 -0.1144  0.4907
  743MOL0     C  223   4.645   5.425   2.498 -0.2477  0.2355  0.4616
  743MOL0     C  224   4.249   5.258   2.625  0.4034 -0.3732 -0.3733
  743MOL0     C  225   4.197   5.206   2.507 -0.2616  0.8304  0.2441
  743MOL0     C  226   4.063   5.159   2.507  0.0647 -0.2104 -0.7175
  743MOL0     C  227   3.977   5.178   2.614 -1.5835  0.0313 -0.4887
  743MOL0     O  228   3.858   5.118   2.629 -0.8764  0.4320 -0.0327
  743MOL0     C  229   3.785   5.070   2.510  0.6408  0.8950 -0.7978
  743MOL0     C  230   3.660   4.992   2.538  0.2898  0.4445  0.4175
  743MOL0     C  231   3.681   4.856   2.612  0.8958  0.2598  1.0460
  743MOL0     C  232   3.551   4.786   2.648  0.5973  0.7117  0.7575
  743MOL0     C  233   3.467   4.758   2.533  0.8678 -0.5828  0.8273
  743MOL0     C  234   3.396   4.741   2.432  0.3231 -1.0150  0.1174
  743MOL0     C  235   4.026   5.239   2.719 -1.0878 -0.4399 -1.0005
  743MOL0     C  236   4.160   5.289   2.727  0.5886 -0.3462 -0.8322
  743MOL0     C  237   4.189   5.367   2.856  0.5708 -1.0212 -0.0948
  743MOL0     H  238   4.646   5.088   2.450  0.7439 -0.0090 -0.2972
  743MOL0     H  239   4.867   5.129   2.406  1.4920  0.8835  0.6259
  743MOL0     H  240   5.041   5.304   2.586 -0.9912 -1.2912  0.4867
  743MOL0     H  241   5.083   5.208   2.438  1.0949  0.5045 -0.2849
  743MOL0     H  242   5.248   5.328   2.370 -2.4571 -3.0901 -0.6450
  743MOL0     H  243   5.292   5.329   2.542 -1.5880  2.1493  3.1994
  743MOL0     H  244   5.151   5.581   2.517  1.3262 -0.0003  1.0867
  743MOL0     H  245   5.225   5.567   2.353 -0.0455  0.4438  0.7653
  743MOL0     H  246   5.374   5.511   2.617  3.0341  2.1289  0.9753
  743MOL0     H  247   5.446   5.544   2.454  0.8925  1.8688  0.1403
  743MOL0     H  248   5.473   5.760   2.562  0.1584 -0.1380 -1.3788
  743MOL0     H  249   5.322   5.749   2.470  0.4946 -1.4934 -0.7273
  743MOL0     H  250   5.209   5.716   2.685  0.4790  1.8284  3.1837
  743MOL0     H  251   5.351   5.671   2.769 -0.7921  0.0102  1.0590
  743MOL0     H  252   5.296   5.952   2.653 -0.5982  1.7114  1.2019
  743MOL0     H  253   5.439   5.900   2.750 -0.9912  0.4420  0.0644
  743MOL0     H  254   5.247   6.025   2.877  1.7721 -0.5053 -1.7047
  743MOL0     H  255   5.142   5.891   2.832 -0.6326  2.1168  0.3556
  743MOL0     H  256   5.495   5.920   3.022 -0.9289  1.4391  0.5907
  743MOL0     H  257   5.553   5.822   3.254 -1.6122  1.3203  0.2597
  743MOL0     H  258   5.459   5.707   3.330  4.3942 -0.2816  1.0753
  743MOL0     H  259   5.521   5.517   3.149  0.3490  0.4750 -3.9105
  743MOL0     H  260   5.595   5.639   3.067 -0.3780  1.2136  0.7695
  743MOL0     H  261   5.659   5.551   3.365 -1.4633 -1.0113 -0.0698
  743MOL0     H  262   5.750   5.674   3.282 -0.9743  0.5614 -1.1787
  743MOL0     H  263   5.783   5.381   3.216 -0.5362  0.5561  2.8381
  743MOL0     H  264   5.880   5.481   3.309  0.8749 -0.8099 -0.4705
  743MOL0     H  265   6.003   5.312   3.208 -0.4375 -1.3821 -1.0986
  743MOL0     H  266   6.231   5.237   3.150 -1.0528  1.0035  2.5095
  743MOL0     H  267   6.716   5.420   3.013  0.8604 -0.1959 -1.7105
  743MOL0     H  268   6.930   5.319   2.950  1.0260 -1.2919 -0.5031
  743MOL0     H  269   7.027   4.922   3.101  0.9442 -0.3886 -0.0329
  743MOL0     H  270   6.956   4.860   2.948  2.2035 -2.4597 -0.1741
  743MOL0     H  271   7.192   4.812   2.938 -0.0573  0.7363 -2.9927
  743MOL0     H  272   7.155   4.929   2.819 -2.1963 -2.1376 -0.6659
  743MOL0     H  273   7.363   4.973   2.922 -0.4671  0.9167  0.2000
  743MOL0     H  274   7.250   5.101   2.926 -0.7083  0.1179  0.5239
  743MOL0     H  275   7.319   4.941   3.178 -2.4949  0.7863  2.6031
  743MOL0     H  276   7.221   5.077   3.171  1.2971  1.9559 -0.1377
  743MOL0     H  277   7.397   5.220   3.092  0.5721 -0.1124 -1.8440
  743MOL0     H  278   7.501   5.070   3.071 -0.4818  1.2848 -2.3727
  743MOL0     H  279   7.530   5.240   3.286 -1.7352  0.5506 -0.2585
  743MOL0     H  280   7.407   5.151   3.349  1.4226  2.0898  1.0020
  743MOL0     H  281   7.627   4.984   3.229  1.2774 -0.2056  0.9896
  743MOL0     H  282   7.515   4.942   3.353 -1.4616  1.8010 -0.6141
  743MOL0     H  283   7.715   5.154   3.396 -1.2014  0.5510 -0.7737
  743MOL0     H  284   7.604   5.098   3.516 -1.6375  2.9797 -2.4973
  743MOL0     H  285   6.763   4.928   3.031 -4.0241  0.0311  0.4461
  743MOL0     H  286   6.546   5.022   3.053  1.3053 -1.6351 -3.1674
  743MOL0     H  287   6.278   5.586   2.898 -0.8483 -2.0038 -1.4887
  743MOL0     H  288   6.064   5.648   2.949  0.6544  0.6911  1.6393
  743MOL0     H  289   4.822   5.549   2.450 -1.8614  0.9327  0.0299
  743MOL0     H  290   4.579   5.508   2.519 -1.7643 -0.9260  0.4525
  743MOL0     H  291   4.261   5.186   2.422  0.7725 -0.9332  1.3837
  743MOL0     H  292   4.023   5.111   2.419  0.4531 -0.4183 -0.7814
  743MOL0     H  293   3.845   5.000   2.451  1.8135  0.0909  1.2619
  743MOL0     H  294   3.753   5.158   2.453  1.2249  1.7125  0.0982
  743MOL0     H  295   3.597   4.982   2.449 -2.6956 -1.5080  2.5490
  743MOL0     H  296   3.599   5.055   2.603 -3.7168 -1.8960 -0.7141
  743MOL0     H  297   3.746   4.876   2.697  0.0706 -1.9741  2.2889
  743MOL0     H  298   3.734   4.787   2.545 -0.0596  0.0746  0.4482
  743MOL0     H  299   3.579   4.694   2.700  1.2749  0.6134  0.2328
  743MOL0     H  300   3.492   4.859   2.706 -2.7130 -1.0034 -0.1829
  743MOL0     H  301   3.339   4.713   2.345 -2.0074  1.7563  0.6130
  743MOL0     H  302   3.954   5.257   2.798 -2.7891 -1.6331 -2.2095
  743MOL0     H  303   4.097   5.399   2.905  0.1278 -2.4661  0.0637
  743MOL0     H  304   4.240   5.300   2.925  0.4733  1.0624  2.1178
  743MOL0     H  305   4.256   5.453   2.846  1.5815 -1.9394 -1.6618
  744MOL0     O  306  11.046   1.249   8.629  0.1506 -0.0071 -0.2211
  744MOL0     C  307  10.979   1.173   8.565  0.0123 -0.8985  0.6736
  744MOL0     O  308  11.032   1.097   8.466  0.1969  0.6490 -0.7950
  744MOL0     C  309  11.169   1.085   8.447  0.8210 -0.5116  0.7478
  744MOL0     C  310  11.226   0.966   8.498 -0.0427  0.0603  0.0539
  744MOL0     C  311  11.355   0.935   8.467  0.5996 -0.0367 -0.4405
  744MOL0     C  312  11.440   1.015   8.393  0.6634 -0.2567 -0.2117
  744MOL0     O  313  11.570   0.981   8.383 -0.0950 -0.2337  0.2254
  744MOL0     C  314  11.661   1.062   8.308 -0.2677  0.6970  0.3048
  744MOL0     C  315  11.772   0.982   8.237  0.7935 -1.1492 -0.5061
  744MOL0     C  316  11.869   0.910   8.336  0.2536 -0.2767 -0.6942
  744MOL0     C  317  11.997   1.001   8.371  0.0543  0.2208  0.0259
  744MOL0     C  318  12.071   0.966   8.512 -0.1497 -0.2674 -0.0185
  744MOL0     C  319  12.132   1.089   8.581  0.6100 -0.5154 -0.0523
  744MOL0     C  320  12.216   1.044   8.704  0.1462 -0.0263  0.6515
  744MOL0     C  321  12.357   0.989   8.669  0.1965  0.1349 -0.3050
  744MOL0     N  322  12.458   1.087   8.684 -0.4865  0.2962 -0.4286
  744MOL0     C  323  12.477   1.193   8.601  0.0422 -0.0270  0.0029
  744MOL0     C  324  12.585   1.257   8.658  0.6928  0.4295  0.2252
  744MOL0     C  325  12.629   1.391   8.603  0.1197  0.0243  0.2436
  744MOL0     C  326  12.776   1.389   8.544  0.2436 -0.6707 -0.0707
  744MOL0     C  327  12.893   1.364   8.640  0.5027  0.1093 -0.0410
  744MOL0     C  328  12.879   1.444   8.771  0.4932 -0.4291 -0.6786
  744MOL0     O  329  12.840   1.591   8.746 -0.1715 -0.0673  0.2771
  744MOL0     C  330  12.815   1.669   8.854 -0.9196 -0.5566  0.5585
  744MOL0     C  331  12.830   1.639   8.986  0.2872 -0.3053  0.5087
  744MOL0     C  332  12.827   1.734   9.084  0.1362 -0.1253 -0.7922
  744MOL0     C  333  12.796   1.867   9.063  0.1508 -0.8490 -0.4394
  744MOL0     C  334  12.785   1.957   9.176  0.7431 -0.5707 -0.0273
  744MOL0     O  335  12.722   1.906   9.281  0.4426 -0.0186 -0.2580
  744MOL0     C  336  12.728   1.975   9.395 -0.0419 -0.1221  0.4499
  744MOL0     C  337  12.612   2.003   9.465  0.6131 -0.0967  0.1492
  744MOL0     C  338  12.598   2.075   9.581 -0.2826 -0.3684  0.6840
  744MOL0     C  339  12.724   2.108   9.644 -0.1462  0.0255  0.3460
  744MOL0     O  340  12.745   2.174   9.763  0.6991 -0.3793  0.0987
  744MOL0     C  341  12.626   2.213   9.830 -0.4693  0.2535 -0.4164
  744MOL0     C  342  12.659   2.289   9.963 -0.4986  0.6122 -0.4403
  744MOL0     C  343  12.525   2.341  10.021 -0.2258 -0.1149 -0.0701
  744MOL0     C  344  12.544   2.374  10.168 -0.4868 -0.2309  0.4116
  744MOL0     C  345  12.429   2.342  10.257  0.6035 -0.4219  0.1398
  744MOL0     C  346  12.304   2.420  10.229  0.0682 -0.9568  0.4408
  744MOL0     C  347  12.190   2.361  10.318  0.1807 -0.5562 -0.3552
  744MOL0     C  348  12.191   2.394  10.468  0.1610  0.2943 -1.0050
  744MOL0    Cl  349  12.041   2.318  10.530 -0.0848  0.3844  0.3723
  744MOL0     C  350  12.846   2.073   9.578 -0.0238 -0.3136  0.2213
  744MOL0     C  351  12.843   2.007   9.456  0.7312 -0.5550 -0.0439
  744MOL0     O  352  12.829   2.070   9.165  0.5129 -0.1754  0.8971
  744MOL0     C  353  12.771   1.905   8.927 -0.0494 -0.0379 -0.5503
  744MOL0     C  354  12.784   1.802   8.829 -0.1202  0.2190  0.3989
  744MOL0     N  355  12.626   1.188   8.772  0.7124 -0.5255 -0.0715
  744MOL0     N  356  12.547   1.088   8.783 -0.3072 -0.4064 -1.0470
  744MOL0     C  357  11.387   1.140   8.353 -0.5244  0.8373  0.5091
  744MOL0     C  358  11.250   1.173   8.369  0.3370 -0.3781  0.1455
  744MOL0     C  359  10.837   1.144   8.597  0.2005 -0.7554  0.0401
  744MOL0     C  360  10.784   1.024   8.543 -0.0285  0.9059 -0.4307
  744MOL0     C  361  10.655   0.981   8.577 -0.7562  0.5860 -0.5523
  744MOL0     C  362  10.570   1.053   8.656 -0.1559  0.0688 -0.3302
  744MOL0     O  363  10.447   1.005   8.687  0.0251  0.1012  0.8826
  744MOL0     C  364  10.439   0.938   8.807  0.4034 -0.3351 -0.5833
  744MOL0     C  365  10.295   0.883   8.826  0.8039 -0.0837  0.0035
  744MOL0     C  366  10.279   0.764   8.730  0.1721  0.0695  0.0267
  744MOL0     C  367  10.143   0.700   8.758 -0.8739 -0.6687  0.6297
  744MOL0     C  368  10.027   0.793   8.771  0.3334 -0.0563  0.3071
  744MOL0     C  369   9.931   0.856   8.792 -0.6841  0.6341  0.2156
  744MOL0     C  370  10.612   1.174   8.701  0.2948  0.2584  0.3272
  744MOL0     C  371  10.739   1.221   8.668 -0.7778 -0.2028  0.7378
  744MOL0     C  372  10.778   1.359   8.715  0.2314 -0.1339  0.0202
  744MOL0     H  373  11.166   0.893   8.552 -2.3123  2.6062  1.2073
  744MOL0     H  374  11.400   0.845   8.507  0.6657 -0.2987 -1.0785
  744MOL0     H  375  11.620   1.106   8.217 -1.3339 -2.8306 -1.0623
  744MOL0     H  376  11.713   1.128   8.379  2.3157 -1.1885  0.3085
  744MOL0     H  377  11.826   1.047   8.168  0.0058 -0.7497 -0.7623
  744MOL0     H  378  11.716   0.908   8.179 -2.1867  1.6377 -1.5213
  744MOL0     H  379  11.913   0.822   8.289  0.0932 -1.6889  1.6656
  744MOL0     H  380  11.817   0.891   8.430  4.0538 -1.6798  1.2801
  744MOL0     H  381  12.069   1.000   8.289 -0.1518 -0.8812 -0.1575
  744MOL0     H  382  11.963   1.104   8.381 -0.6621  0.1543 -1.5068
  744MOL0     H  383  12.002   0.924   8.585 -2.2010  1.1533 -1.0334
  744MOL0     H  384  12.149   0.897   8.479 -0.3888  1.1020 -4.0945
  744MOL0     H  385  12.211   1.129   8.516  2.2510 -0.1977  2.0115
  744MOL0     H  386  12.059   1.166   8.607 -0.3984 -2.2234  2.5552
  744MOL0     H  387  12.163   0.958   8.746  1.8640 -1.0602  0.7771
  744MOL0     H  388  12.212   1.125   8.777  0.5896  2.1320 -1.5552
  744MOL0     H  389  12.367   0.900   8.731 -2.0921 -0.4603 -0.6941
  744MOL0     H  390  12.368   0.944   8.570  0.2314  0.2622 -0.3582
  744MOL0     H  391  12.425   1.224   8.511 -0.6471 -3.4086 -0.9054
  744MOL0     H  392  12.557   1.422   8.527  1.1638 -0.5258 -1.0027
  744MOL0     H  393  12.625   1.467   8.682  1.5206 -1.9682  2.3729
  744MOL0     H  394  12.764   1.311   8.468  1.7231 -1.4793  0.4961
  744MOL0     H  395  12.793   1.483   8.489  0.7571 -2.1559 -2.6359
  744MOL0     H  396  12.992   1.383   8.597  1.1806  1.1098  1.8633
  744MOL0     H  397  12.889   1.256   8.660  0.3879  0.1775  0.3072
  744MOL0     H  398  12.976   1.439   8.821  1.4968  1.8054 -2.2018
  744MOL0     H  399  12.807   1.386   8.829 -0.2084  0.6222 -0.4729
  744MOL0     H  400  12.848   1.534   9.009 -4.0548 -2.0017 -2.5431
  744MOL0     H  401  12.870   1.710   9.181  0.2906  0.0100 -0.8267
  744MOL0     H  402  12.513   1.973   9.430  0.0642  1.4332  0.2898
  744MOL0     H  403  12.506   2.097   9.634 -1.3504  0.9767 -1.5716
  744MOL0     H  404  12.566   2.281   9.770 -0.9745 -0.0637 -0.2746
  744MOL0     H  405  12.570   2.124   9.861  2.1128 -0.5188  2.5539
  744MOL0     H  406  12.711   2.214  10.023  1.1915  0.2988 -2.2017
  744MOL0     H  407  12.724   2.377   9.962  1.4396 -0.6181  2.6020
  744MOL0     H  408  12.479   2.423   9.964 -1.6826  0.0236  1.2299
  744MOL0     H  409  12.448   2.263  10.022  0.1080 -0.4452  1.0307
  744MOL0     H  410  12.568   2.481  10.172 -0.6439 -0.2097  0.8085
  744MOL0     H  411  12.634   2.323  10.203 -0.6082  0.4388  1.7581
  744MOL0     H  412  12.457   2.366  10.360  4.4977  0.8905 -1.0296
  744MOL0     H  413  12.427   2.233  10.260  4.2906 -0.6091  1.4520
  744MOL0     H  414  12.321   2.528  10.241 -1.5098 -0.2113 -2.8203
  744MOL0     H  415  12.271   2.410  10.126 -1.7084 -1.6510  1.0489
  744MOL0     H  416  12.199   2.254  10.300  1.9706 -0.2638 -1.4408
  744MOL0     H  417  12.091   2.400  10.295  0.4988 -0.3116 -1.3866
  744MOL0     H  418  12.281   2.343  10.504 -1.7803 -1.5032  1.7426
  744MOL0     H  419  12.181   2.501  10.486 -0.3546 -0.0934  1.3731
  744MOL0     H  420  12.939   2.103   9.624  0.0244  0.5354 -0.4081
  744MOL0     H  421  12.935   1.979   9.406  0.5610  2.2111 -2.0934
  744MOL0     H  422  12.746   2.005   8.894  2.7582  1.2755  0.8611
  744MOL0     H  423  12.776   1.828   8.724  2.3282 -1.5103 -0.2999
  744MOL0     H  424  11.452   1.211   8.303  1.5608 -1.6892 -0.6300
  744MOL0     H  425  11.203   1.259   8.322  0.5528 -0.9012 -1.0697
  744MOL0     H  426  10.835   0.947   8.485 -1.2239 -1.6482  1.7458
  744MOL0     H  427  10.617   0.885   8.546 -1.6301  0.9954 -0.7990
  744MOL0     H  428  10.465   1.002   8.892 -1.0779  3.3353 -2.6866
  744MOL0     H  429  10.520   0.865   8.809  2.0060  1.3799 -0.3550
  744MOL0     H  430  10.229   0.969   8.813 -0.7626 -0.9958  1.5054
  744MOL0     H  431  10.278   0.843   8.926  4.4144 -2.2147 -0.0565
  744MOL0     H  432  10.372   0.707   8.733  1.6796  2.4014  0.5506
  744MOL0     H  433  10.278   0.807   8.629 -0.3626 -2.3824 -1.0903
  744MOL0     H  434  10.117   0.644   8.668 -2.8137  2.4362 -0.9183
  744MOL0     H  435  10.151   0.629   8.841  1.5866 -2.4946 -1.0110
  744MOL0     H  436   9.830   0.891   8.800 -1.2603 -1.2046  1.5020
  744MOL0     H  437  10.550   1.234   8.767  2.4927  3.9622 -0.6563
  744MOL0     H  438  10.693   1.423   8.741  1.1057  0.6241  1.0895
  744MOL0     H  439  10.834   1.335   8.806 -1.1650  0.6859  1.1195
  744MOL0     H  440  10.846   1.421   8.655  0.6385 -0.3154  0.2860
  745MOL0     O  441   6.897   0.045   4.440 -0.0900 -0.0209 -0.2024
  745MOL0     C  442   6.873   0.160   4.419 -0.2187 -0.1074  0.0702
  745MOL0     O  443   6.933   0.235   4.325  0.1204 -0.0419  0.4937
  745MOL0     C  444   7.054   0.191   4.276 -0.3958  0.2763 -0.6342
  745MOL0     C  445   7.067   0.070   4.206 -0.1013  0.0605 -0.9724
  745MOL0     C  446   7.199   0.027   4.169  0.5303 -0.6855  0.6568
  745MOL0     C  447   7.312   0.104   4.210  0.1530  0.0539 -0.3528
  745MOL0     O  448   7.436   0.069   4.172  0.3153  0.0485 -0.5772
  745MOL0     C  449   7.522   0.147   4.101  0.1459  0.7706 -0.1482
  745MOL0     C  450   7.653   0.070   4.081  0.4044  1.4208 -0.4222
  745MOL0     C  451   7.760   0.160   4.016  0.6273 -0.6406 -0.6669
  745MOL0     C  452   7.898   0.101   4.024 -0.5435  0.0610 -0.4082
  745MOL0     C  453   8.009   0.194   3.974 -0.2606 -0.0862 -0.1016
  745MOL0     C  454   8.132   0.101   3.969 -0.8038  0.7053  0.4092
  745MOL0     C  455   8.242   0.169   3.880  0.3455 -0.2073 -0.3735
  745MOL0     C  456   8.360   0.207   3.961  1.4645 -0.2179  0.1570
  745MOL0     N  457   8.479   0.234   3.883 -0.4335 -0.5893 -0.1805
  745MOL0     C  458   8.593   0.151   3.871  0.9487 -0.0535 -0.2006
  745MOL0     C  459   8.686   0.241   3.826 -0.1525 -0.2130 -0.2672
  745MOL0     C  460   8.835   0.214   3.808  1.1705 -0.8489 -0.5326
  745MOL0     C  461   8.927   0.334   3.799  0.9792  0.3071  0.2683
  745MOL0     C  462   9.073   0.293   3.773  0.7947 -0.7576 -0.4844
  745MOL0     C  463   9.180   0.400   3.798  0.1874  0.5481  0.7137
  745MOL0     O  464   9.202   0.484   3.685 -0.1162  0.0137 -0.5610
  745MOL0     C  465   9.283   0.441   3.575  0.0965  0.8657  0.0753
  745MOL0     C  466   9.325   0.303   3.569 -0.0572  0.0578 -0.2842
  745MOL0     C  467   9.399   0.255   3.460  0.4001 -0.6178  0.0140
  745MOL0     C  468   9.440   0.336   3.364  0.1270  0.3293  0.0693
  745MOL0     C  469   9.531   0.287   3.264 -0.4824  0.0477  1.2101
  745MOL0     O  470   9.560   0.384   3.164  0.8557  0.4265  0.0855
  745MOL0     C  471   9.653   0.355   3.063  0.4581 -0.0677 -0.2971
  745MOL0     C  472   9.642   0.246   2.975 -1.0191 -0.6926  0.0216
  745MOL0     C  473   9.753   0.229   2.889 -0.6729  0.4302  0.1596
  745MOL0     C  474   9.862   0.317   2.875  0.4165  0.0749  0.3521
  745MOL0     O  475   9.955   0.305   2.777 -0.2181  0.5291 -1.0277
  745MOL0     C  476  10.086   0.354   2.808 -0.7700 -0.0517 -0.3129
  745MOL0     C  477  10.191   0.276   2.728 -0.0053 -0.1413  0.6998
  745MOL0     C  478  10.329   0.328   2.756 -0.6788  0.0281  0.9002
  745MOL0     C  479  10.426   0.236   2.824  0.1492  0.4935  0.8953
  745MOL0     C  480  10.568   0.290   2.829 -0.3106 -0.0245  0.6078
  745MOL0     C  481  10.627   0.315   2.693 -0.5096  0.0871 -0.4475
  745MOL0     C  482  10.784   0.317   2.702  0.4084  0.6423  0.2525
  745MOL0     C  483  10.850   0.416   2.800  0.0853  0.3535  0.4500
  745MOL0    Cl  484  11.028   0.431   2.768  0.4159 -0.0947  0.0591
  745MOL0     C  485   9.863   0.418   2.970  0.4464 -0.0137  0.2847
  745MOL0     C  486   9.761   0.450   3.056  1.0279  0.8083 -0.4911
  745MOL0     O  487   9.577   0.171   3.260  0.4404  0.9789 -0.0448
  745MOL0     C  488   9.408   0.474   3.368 -0.2701  0.3387  0.4324
  745MOL0     C  489   9.338   0.526   3.476  0.4675 -0.3597 -0.1417
  745MOL0     N  490   8.635   0.367   3.812 -0.0499 -1.0569 -0.1908
  745MOL0     N  491   8.512   0.357   3.832  0.7335  0.1147  0.3260
  745MOL0     C  492   7.293   0.211   4.288  0.0861 -0.7240 -0.3026
  745MOL0     C  493   7.171   0.258   4.322  0.5121  0.2494  0.3516
  745MOL0     C  494   6.766   0.218   4.503 -1.0457  0.1284 -0.1630
  745MOL0     C  495   6.757   0.186   4.641  0.5965  0.9317 -0.6817
  745MOL0     C  496   6.643   0.228   4.716  0.3859 -0.0249 -0.6636
  745MOL0     C  497   6.544   0.313   4.659 -0.7867  0.2215 -0.0920
  745MOL0     O  498   6.441   0.350   4.737 -0.6201  0.4537 -0.6567
  745MOL0     C  499   6.345   0.447   4.704 -0.7326 -0.0135  0.6705
  745MOL0     C  500   6.221   0.373   4.651 -0.0197 -0.5044  0.6463
  745MOL0     C  501   6.246   0.288   4.524  0.1063  0.2983 -0.5132
  745MOL0     C  502   6.115   0.230   4.480  0.7168  0.1523  0.0721
  745MOL0     C  503   6.132   0.141   4.364 -0.7755 -0.7579  0.3781
  745MOL0     C  504   6.155   0.074   4.269 -0.7730  0.7252  0.8931
  745MOL0     C  505   6.560   0.352   4.533 -0.5753 -0.0267  0.4861
  745MOL0     C  506   6.666   0.305   4.452  0.2542  0.0012 -0.9644
  745MOL0     C  507   6.673   0.370   4.323  1.2036  0.5358 -0.4430
  745MOL0     H  508   6.975   0.017   4.184 -0.4460 -1.1504  2.6624
  745MOL0     H  509   7.191  -0.055   4.099 -1.7523  0.2993 -0.3173
  745MOL0     H  510   7.474   0.171   4.005 -1.3707  1.3722  0.7333
  745MOL0     H  511   7.539   0.235   4.163  0.7369  0.8922 -0.4737
  745MOL0     H  512   7.632  -0.014   4.014  0.0119  1.3658 -0.2338
  745MOL0     H  513   7.689   0.028   4.176  0.5003 -0.2570 -1.1623
  745MOL0     H  514   7.755   0.251   4.077 -1.2834 -1.1809  0.0529
  745MOL0     H  515   7.730   0.190   3.915  1.5043 -1.2660 -1.1218
  745MOL0     H  516   7.918   0.072   4.127  1.3310 -1.1284 -1.0443
  745MOL0     H  517   7.899   0.011   3.961 -0.8549 -1.2269  1.3473
  745MOL0     H  518   7.984   0.245   3.880  0.4042 -0.0072 -0.2430
  745MOL0     H  519   8.034   0.268   4.051 -0.5031 -1.3120  1.1951
  745MOL0     H  520   8.169   0.082   4.070 -1.0250 -1.3068  0.1492
  745MOL0     H  521   8.123   0.007   3.914  3.4255  1.8041 -2.6162
  745MOL0     H  522   8.217   0.260   3.826 -1.7027 -1.0768 -0.9759
  745MOL0     H  523   8.282   0.096   3.809  1.3960  0.7148 -0.7623
  745MOL0     H  524   8.329   0.293   4.022  2.0535 -0.3284  0.6192
  745MOL0     H  525   8.384   0.124   4.028  0.4093 -2.4569 -2.0666
  745MOL0     H  526   8.612   0.051   3.908  3.7207  1.1473  2.0076
  745MOL0     H  527   8.873   0.153   3.891  2.4705 -1.5312 -1.5760
  745MOL0     H  528   8.853   0.152   3.720  1.9193 -1.4459  0.0207
  745MOL0     H  529   8.900   0.406   3.722 -1.7113  2.6862  3.1741
  745MOL0     H  530   8.923   0.401   3.886 -2.2058  1.3344 -0.5393
  745MOL0     H  531   9.073   0.259   3.670  0.9446  0.4125 -0.8810
  745MOL0     H  532   9.099   0.221   3.852  2.0489  0.2238  0.0501
  745MOL0     H  533   9.272   0.352   3.831  0.2738  1.2238  1.4847
  745MOL0     H  534   9.155   0.464   3.883 -1.5606 -1.1684  1.5764
  745MOL0     H  535   9.287   0.236   3.644 -4.3340 -0.6435 -2.7868
  745MOL0     H  536   9.415   0.147   3.457 -2.8197 -1.2123 -3.5351
  745MOL0     H  537   9.557   0.181   2.993 -1.4454 -0.0157  0.5463
  745MOL0     H  538   9.750   0.143   2.822 -1.2084 -1.7635  2.8153
  745MOL0     H  539  10.095   0.461   2.790  0.6931 -0.4853 -2.5503
  745MOL0     H  540  10.115   0.330   2.911  2.7718 -0.8557 -1.3319
  745MOL0     H  541  10.187   0.167   2.744  3.5285 -0.5420 -0.3467
  745MOL0     H  542  10.177   0.299   2.622  3.8837  2.5417  0.5856
  745MOL0     H  543  10.362   0.336   2.652 -2.9794 -0.2875  0.0989
  745MOL0     H  544  10.340   0.429   2.797  1.5788  0.1114  0.2042
  745MOL0     H  545  10.414   0.133   2.790 -2.4100  0.3135  2.1280
  745MOL0     H  546  10.401   0.242   2.930  0.4942  1.0899  0.9473
  745MOL0     H  547  10.621   0.207   2.875  2.0824 -1.1237 -3.5853
  745MOL0     H  548  10.582   0.385   2.882  1.6845  1.5343 -2.4255
  745MOL0     H  549  10.594   0.231   2.633 -0.6909  1.5858 -2.5556
  745MOL0     H  550  10.587   0.402   2.639  0.7666  1.8571  1.3132
  745MOL0     H  551  10.800   0.350   2.598  0.7926 -1.4223 -0.3938
  745MOL0     H  552  10.826   0.216   2.702 -2.5353 -0.7610 -2.1995
  745MOL0     H  553  10.794   0.510   2.800 -3.4581 -1.5671 -0.4942
  745MOL0     H  554  10.840   0.388   2.905 -0.3685 -0.3497  0.2325
  745MOL0     H  555   9.953   0.477   2.987  0.0351  1.0356 -1.0096
  745MOL0     H  556   9.761   0.532   3.126 -3.1704  1.8363 -1.4203
  745MOL0     H  557   9.450   0.547   3.299  0.5184  3.8133  4.2042
  745MOL0     H  558   9.312   0.631   3.478  0.9994 -0.2124  2.8233
  745MOL0     H  559   7.375   0.270   4.326  0.1590  0.6720 -2.4401
  745MOL0     H  560   7.161   0.344   4.387 -1.1695  1.0882 -0.9466
  745MOL0     H  561   6.839   0.128   4.680 -1.7685 -3.6375 -1.7775
  745MOL0     H  562   6.632   0.195   4.818  3.1401  0.5890 -0.0813
  745MOL0     H  563   6.388   0.524   4.639  0.9721 -0.9917  0.5686
  745MOL0     H  564   6.314   0.510   4.788 -2.3304 -2.4033  1.9947
  745MOL0     H  565   6.153   0.455   4.627  0.9510  0.6588  1.7199
  745MOL0     H  566   6.181   0.313   4.733 -1.8179 -0.8269 -0.4171
  745MOL0     H  567   6.309   0.200   4.543  0.0421  0.2608 -0.4762
  745MOL0     H  568   6.278   0.362   4.450 -1.2610 -0.2501 -1.6780
  745MOL0     H  569   6.077   0.181   4.570  1.5655  2.2203  1.6329
  745MOL0     H  570   6.047   0.313   4.456 -1.0811 -1.7284 -1.8114
  745MOL0     H  571   6.206   0.010   4.199 -0.8273 -0.0758  1.5744
  745MOL0     H  572   6.494   0.423   4.483 -0.9585 -1.1455 -0.6349
  745MOL0     H  573   6.739   0.456   4.340  0.4239  0.8751  1.0692
  745MOL0     H  574   6.726   0.311   4.248  0.9032 -1.1812  0.6514
  745MOL0     H  575   6.575   0.401   4.285  0.7635  0.4258  0.5592
  746MOL0     O  576   0.522   0.973   0.906 -0.2562 -0.0255 -0.1309
  746MOL0     C  577   0.541   0.967   0.784 -0.1612  0.2747  0.1095
  746MOL0     O  578   0.650   1.001   0.724  0.2821 -0.3873 -0.1744
  746MOL0     C  579   0.758   1.056   0.793 -0.3645  0.9889  0.7413
  746MOL0     C  580   0.830   0.980   0.876  0.1639  0.7527 -0.1068
  746MOL0     C  581   0.945   1.032   0.935  0.9650 -0.2997  0.0973
  746MOL0     C  582   0.991   1.160   0.899  0.0348  0.0170 -0.1425
  746MOL0     O  583   1.101   1.216   0.967 -0.2366  0.1421 -0.6333
  746MOL0     C  584   1.174   1.328   0.914  0.7960  0.1077 -0.1718
  746MOL0     C  585   1.304   1.345   0.998 -0.1153 -0.2655 -0.3801
  746MOL0     C  586   1.400   1.233   0.959  1.1732  0.0371  0.3353
  746MOL0     C  587   1.529   1.251   1.040  0.5969  0.5397  0.2157
  746MOL0     C  588   1.625   1.125   1.041 -0.3028 -0.1447  0.3428
  746MOL0     C  589   1.764   1.168   1.091  0.4202  0.1158  0.1627
  746MOL0     C  590   1.877   1.061   1.070  0.3078 -0.1504  1.2356
  746MOL0     C  591   2.010   1.100   1.138  0.6045 -0.1858  0.6413
  746MOL0     N  592   2.098   0.984   1.121  0.1007  0.1858  0.1291
  746MOL0     C  593   2.156   0.952   1.008  0.6237 -0.9378  0.4489
  746MOL0     C  594   2.212   0.833   1.034 -0.0250  0.3914  0.1634
  746MOL0     C  595   2.290   0.764   0.923 -0.5679  0.3169  0.2662
  746MOL0     C  596   2.438   0.809   0.921  0.4387  0.3119  0.4238
  746MOL0     C  597   2.512   0.747   0.800  0.2148 -0.2172 -0.6721
  746MOL0     C  598   2.662   0.725   0.817  0.1340  0.3287  1.1407
  746MOL0     O  599   2.694   0.670   0.939  0.1127  0.5164  0.3219
  746MOL0     C  600   2.813   0.603   0.951  0.2271 -0.5778 -0.1995
  746MOL0     C  601   2.927   0.658   0.905 -0.3298 -0.2380  0.3523
  746MOL0     C  602   3.050   0.600   0.908  0.0295  0.6854 -0.6930
  746MOL0     C  603   3.060   0.480   0.991  0.0038  0.8502 -0.4716
  746MOL0     C  604   3.187   0.419   1.007 -0.4160 -0.5546  0.2519
  746MOL0     O  605   3.289   0.490   0.942 -0.4734 -0.4420  0.5252
  746MOL0     C  606   3.417   0.441   0.967 -0.1594 -0.9705  0.7207
  746MOL0     C  607   3.503   0.448   0.860  0.2670  0.7030  0.8775
  746MOL0     C  608   3.637   0.420   0.874 -0.3198 -0.1384 -0.0292
  746MOL0     C  609   3.686   0.363   0.996  0.3504  0.3395 -0.0873
  746MOL0     O  610   3.816   0.312   1.000  0.3365 -0.3086 -0.2650
  746MOL0     C  611   3.890   0.319   1.128 -0.7216 -0.6222 -0.5110
  746MOL0     C  612   4.029   0.376   1.094  0.4556 -0.4459  0.3506
  746MOL0     C  613   4.133   0.366   1.211 -0.6588 -0.1208 -0.7148
  746MOL0     C  614   4.266   0.426   1.176  0.4364 -0.0791 -0.0229
  746MOL0     C  615   4.357   0.441   1.304  0.3784  1.0322  0.3499
  746MOL0     C  616   4.478   0.519   1.259 -0.8751  0.4702  0.0389
  746MOL0     C  617   4.605   0.518   1.342  0.3707 -0.3269  0.0708
  746MOL0     C  618   4.713   0.436   1.289 -0.9543 -0.2419 -0.2982
  746MOL0    Cl  619   4.799   0.382   1.436  0.3063  0.0970 -0.0160
  746MOL0     C  620   3.594   0.352   1.100 -0.3165 -0.2538  0.5193
  746MOL0     C  621   3.459   0.392   1.086 -0.8711 -0.6786  0.4174
  746MOL0     O  622   3.198   0.311   1.069  0.3031 -0.1754 -0.4653
  746MOL0     C  623   2.947   0.427   1.057  0.5532 -0.7443 -0.2299
  746MOL0     C  624   2.827   0.488   1.029  0.3081  0.4839  0.0255
  746MOL0     N  625   2.177   0.783   1.157 -0.0123  0.2642 -0.2701
  746MOL0     N  626   2.115   0.880   1.216  0.5666  0.5876  0.2598
  746MOL0     C  627   0.918   1.235   0.805 -0.7871  0.5872 -0.4999
  746MOL0     C  628   0.803   1.178   0.751 -0.6997  0.0463  0.0229
  746MOL0     C  629   0.417   0.932   0.704 -0.2780 -0.9536  0.7299
  746MOL0     C  630   0.308   0.860   0.765 -0.0280 -0.1157 -0.9529
  746MOL0     C  631   0.191   0.827   0.697 -0.7275  0.4620  0.6028
  746MOL0     C  632   0.179   0.874   0.559 -0.2548 -0.2617 -0.4615
  746MOL0     O  633   0.079   0.843   0.469 -0.0696  0.2454  0.7231
  746MOL0     C  634  -0.020   0.744   0.498  0.3103 -0.4026 -0.6899
  746MOL0     C  635  -0.142   0.817   0.546 -0.0051  0.7519 -0.1739
  746MOL0     C  636  -0.252   0.712   0.588  0.4954 -0.3468  0.4631
  746MOL0     C  637  -0.372   0.727   0.495  0.1613  0.8355 -0.2221
  746MOL0     C  638  -0.327   0.694   0.357  1.5394  0.4668  1.1756
  746MOL0     C  639  -0.292   0.692   0.238 -0.8201  0.2449 -0.5432
  746MOL0     C  640   0.280   0.947   0.502 -0.8216  0.2044 -0.0134
  746MOL0     C  641   0.398   0.979   0.572  0.5315 -0.4368  0.6322
  746MOL0     C  642   0.491   1.076   0.497 -0.2407 -0.3241 -1.0758
  746MOL0     H  643   0.795   0.884   0.914  0.6011  1.0521  1.1020
  746MOL0     H  644   1.008   0.972   1.000 -0.9339  0.5456  2.8677
  746MOL0     H  645   1.190   1.322   0.806 -4.2675  2.4585 -1.3912
  746MOL0     H  646   1.105   1.411   0.934 -0.1501 -0.8666  0.7259
  746MOL0     H  647   1.272   1.333   1.102 -1.6749 -0.7338 -0.8934
  746MOL0     H  648   1.343   1.447   0.986 -0.0262 -0.3041 -0.4202
  746MOL0     H  649   1.418   1.235   0.851  1.2658 -1.0783  0.3185
  746MOL0     H  650   1.352   1.137   0.981  1.0602  0.7604  3.8081
  746MOL0     H  651   1.579   1.343   1.010 -0.3755  0.8812 -0.3806
  746MOL0     H  652   1.489   1.262   1.141 -0.1824  0.8912 -0.1238
  746MOL0     H  653   1.586   1.043   1.102 -1.1635  0.3110  0.4143
  746MOL0     H  654   1.649   1.085   0.942  4.9381  0.1911  1.1624
  746MOL0     H  655   1.807   1.250   1.034  1.7792 -1.5600 -1.3648
  746MOL0     H  656   1.761   1.183   1.200  3.1324 -3.6259  0.9549
  746MOL0     H  657   1.893   1.065   0.962 -1.5908  2.2074  0.9555
  746MOL0     H  658   1.843   0.961   1.098 -0.3234 -0.8110 -1.5325
  746MOL0     H  659   2.063   1.181   1.088  1.7080 -2.0456 -1.3589
  746MOL0     H  660   1.986   1.118   1.244 -2.5102 -1.0123  0.1637
  746MOL0     H  661   2.151   1.005   0.914 -0.5896  2.1119  2.0991
  746MOL0     H  662   2.284   0.655   0.933 -2.1314  0.2947 -0.6282
  746MOL0     H  663   2.241   0.798   0.831 -3.4190 -0.7376  1.2737
  746MOL0     H  664   2.441   0.918   0.911 -0.4380  0.4010  1.0673
  746MOL0     H  665   2.488   0.778   1.013  2.4057  2.2134  0.0804
  746MOL0     H  666   2.500   0.803   0.707  0.1411 -0.5555 -0.8674
  746MOL0     H  667   2.469   0.649   0.779 -1.9054  1.0123 -2.5333
  746MOL0     H  668   2.705   0.825   0.807  0.1070  0.1610 -0.9735
  746MOL0     H  669   2.690   0.666   0.729 -2.8747  2.5865 -1.5510
  746MOL0     H  670   2.921   0.745   0.841  2.1765  0.3243  0.7764
  746MOL0     H  671   3.130   0.639   0.846 -0.4122  3.7233  0.4797
  746MOL0     H  672   3.464   0.483   0.765 -0.1461 -0.4034  0.6250
  746MOL0     H  673   3.711   0.447   0.799  0.9442  0.5492  1.4056
  746MOL0     H  674   3.844   0.387   1.201  0.0084  2.0759 -2.4207
  746MOL0     H  675   3.898   0.217   1.169  1.3335 -0.8161 -1.2680
  746MOL0     H  676   4.074   0.327   1.007 -0.5856  1.6595 -1.4591
  746MOL0     H  677   4.013   0.482   1.072 -1.0970 -0.1536  2.5707
  746MOL0     H  678   4.092   0.415   1.300 -2.2472  1.5326 -2.2567
  746MOL0     H  679   4.147   0.263   1.244 -0.4078  0.2983  0.5501
  746MOL0     H  680   4.253   0.523   1.129 -0.5917  1.3409  2.9558
  746MOL0     H  681   4.308   0.366   1.094 -1.0681  1.1908 -1.8075
  746MOL0     H  682   4.375   0.337   1.335  0.4280 -0.5424 -4.2953
  746MOL0     H  683   4.307   0.494   1.386 -0.1208 -0.8504  1.3325
  746MOL0     H  684   4.501   0.471   1.163  0.8829  1.3998 -0.0448
  746MOL0     H  685   4.450   0.622   1.236 -1.6558  0.4200  0.7200
  746MOL0     H  686   4.572   0.478   1.438 -0.4978 -1.3629 -0.6460
  746MOL0     H  687   4.630   0.625   1.351 -4.7664  1.0252  2.1073
  746MOL0     H  688   4.690   0.354   1.220  0.1507  0.4816 -1.5941
  746MOL0     H  689   4.790   0.501   1.246  1.7548  0.0781  4.3189
  746MOL0     H  690   3.625   0.320   1.198 -0.3400  2.1346  1.3629
  746MOL0     H  691   3.395   0.393   1.174 -0.3424 -2.1307  0.8442
  746MOL0     H  692   2.946   0.343   1.127 -0.3605 -0.0866  0.5755
  746MOL0     H  693   2.732   0.451   1.065  0.1532 -0.7540 -1.5674
  746MOL0     H  694   0.948   1.335   0.775  2.2345  1.1588  3.5931
  746MOL0     H  695   0.755   1.226   0.667  0.6650 -0.5787 -1.1697
  746MOL0     H  696   0.328   0.826   0.866  4.0054  1.2244 -1.1346
  746MOL0     H  697   0.119   0.766   0.750 -1.8558  0.7294 -0.5592
  746MOL0     H  698   0.003   0.685   0.588  1.0304 -2.4090 -2.1244
  746MOL0     H  699  -0.030   0.688   0.405  2.9334  2.0434 -2.6498
  746MOL0     H  700  -0.178   0.888   0.470 -0.3350 -0.0850 -0.8163
  746MOL0     H  701  -0.114   0.875   0.634  0.8622  0.4252 -0.2277
  746MOL0     H  702  -0.278   0.739   0.691  0.1549  0.4634  0.1702
  746MOL0     H  703  -0.208   0.612   0.577  0.7185 -0.0764 -1.3620
  746MOL0     H  704  -0.459   0.665   0.519  2.3263 -2.9991 -1.5044
  746MOL0     H  705  -0.414   0.828   0.492 -1.5584  0.1311 -1.3304
  746MOL0     H  706  -0.249   0.670   0.143  1.5673 -1.8122  0.9069
  746MOL0     H  707   0.271   0.961   0.395  0.8734 -4.1396 -0.9728
  746MOL0     H  708   0.512   1.163   0.559 -0.7084 -0.9811  0.0436
  746MOL0     H  709   0.586   1.031   0.468 -1.6336 -3.3047 -1.3734
  746MOL0     H  710   0.440   1.106   0.405 -2.5209  1.3714  0.6278
  747MOL0     O  711   1.264   6.461   5.082  0.7385  0.5870  0.0423
  747MOL0     C  712   1.216   6.499   4.977  0.6069  0.6699  0.1133
  747MOL0     O  713   1.265   6.468   4.851 -0.2234 -0.8887 -0.0038
  747MOL0     C  714   1.366   6.378   4.840 -0.1204 -0.1200 -0.2879
  747MOL0     C  715   1.368   6.244   4.876  0.6876 -0.4914  0.0165
  747MOL0     C  716   1.480   6.160   4.844  1.3507 -0.6035  0.6732
  747MOL0     C  717   1.588   6.218   4.776  0.0280 -0.1388 -0.4109
  747MOL0     O  718   1.700   6.152   4.734 -0.5519  0.4669  0.4513
  747MOL0     C  719   1.743   6.029   4.796 -0.2027 -0.1287  0.0869
  747MOL0     C  720   1.882   5.991   4.746  0.4477 -0.2846 -0.1944
  747MOL0     C  721   1.938   5.885   4.828 -0.3238 -0.4569 -0.1723
  747MOL0     C  722   2.085   5.859   4.776 -0.4901  0.7144  0.2249
  747MOL0     C  723   2.148   5.734   4.843 -0.5620  0.0029  0.4080
  747MOL0     C  724   2.274   5.686   4.773  0.1421 -0.7585 -0.0603
  747MOL0     C  725   2.336   5.564   4.835 -0.2505  0.2843  0.3149
  747MOL0     C  726   2.465   5.527   4.757 -0.5865  1.1030 -0.1027
  747MOL0     N  727   2.590   5.578   4.822 -0.1542  0.2314 -0.0101
  747MOL0     C  728   2.680   5.489   4.879 -0.0089 -0.4311  0.0166
  747MOL0     C  729   2.784   5.570   4.924 -0.4829 -0.2091  0.8184
  747MOL0     C  730   2.894   5.519   5.015 -0.7178  0.5347 -0.2067
  747MOL0     C  731   3.028   5.509   4.939 -0.3097 -0.3884  0.0164
  747MOL0     C  732   3.124   5.427   5.026  0.0737  0.0190 -0.2675
  747MOL0     C  733   3.262   5.425   4.955  0.0621  0.0317 -0.1749
  747MOL0     O  734   3.335   5.326   5.027 -0.4107  0.1102 -0.0773
  747MOL0     C  735   3.467   5.350   5.019 -0.9694 -0.3993  0.2172
  747MOL0     C  736   3.540   5.338   5.137  0.1328 -0.0909 -0.0304
  747MOL0     C  737   3.678   5.343   5.132 -1.2970 -0.3123  0.2988
  747MOL0     C  738   3.747   5.360   5.011  0.0938 -0.5118  0.6586
  747MOL0     C  739   3.892   5.384   5.002  0.0643  0.7014  0.0143
  747MOL0     O  740   3.934   5.446   4.887 -0.6469 -0.9437  0.0192
  747MOL0     C  741   4.064   5.480   4.867 -0.1459 -0.1653  0.5235
  747MOL0     C  742   4.114   5.458   4.737  0.4915  1.2258  0.5853
  747MOL0     C  743   4.243   5.488   4.695 -0.5734 -0.4170 -0.4814
  747MOL0     C  744   4.333   5.529   4.797  0.0001  0.2441 -0.0816
  747MOL0     O  745   4.469   5.529   4.776 -0.3321 -0.3930  0.4387
  747MOL0     C  746   4.543   5.640   4.821  0.3212 -1.1725 -0.1079
  747MOL0     C  747   4.641   5.663   4.709 -0.3835  0.3346 -0.4667
  747MOL0     C  748   4.730   5.783   4.721 -0.1211 -0.2368 -0.4354
  747MOL0     C  749   4.667   5.917   4.651 -0.7439 -0.1420 -0.2326
  747MOL0     C  750   4.747   6.044   4.668 -0.3063  0.1674  0.0903
  747MOL0     C  751   4.899   6.038   4.622  1.1478  0.0836  0.2883
  747MOL0     C  752   4.978   6.167   4.641 -0.4207 -0.2945  0.6075
  747MOL0     C  753   5.125   6.157   4.590  0.3559  0.0337  0.2071
  747MOL0    Cl  754   5.214   6.290   4.647 -0.4320  0.4716 -0.0210
  747MOL0     C  755   4.290   5.548   4.928 -0.5095  0.4690  0.9258
  747MOL0     C  756   4.158   5.525   4.967  0.6766  0.4278 -0.3462
  747MOL0     O  757   3.962   5.342   5.093 -0.6617  0.2065 -0.0261
  747MOL0     C  758   3.669   5.382   4.897 -0.4128 -0.4290  0.4024
  747MOL0     C  759   3.532   5.374   4.899 -0.1331  0.2357  0.7871
  747MOL0     N  760   2.766   5.699   4.874  0.3625  1.2796  0.0372
  747MOL0     N  761   2.649   5.700   4.807  0.7991 -0.0745 -0.2487
  747MOL0     C  762   1.585   6.348   4.724 -0.5042 -0.7233 -0.0104
  747MOL0     C  763   1.472   6.428   4.761 -0.4375 -0.4799  0.6054
  747MOL0     C  764   1.092   6.570   4.997 -0.0579  0.4198  0.2209
  747MOL0     C  765   1.010   6.587   4.881 -0.1935 -0.9834 -0.5226
  747MOL0     C  766   0.914   6.688   4.878 -0.5023 -0.2228  0.2441
  747MOL0     C  767   0.876   6.751   4.993 -0.2791 -0.1760  0.1655
  747MOL0     O  768   0.784   6.855   5.001 -0.8315  0.1215 -0.3165
  747MOL0     C  769   0.692   6.873   4.887  0.8264  0.1097 -0.0490
  747MOL0     C  770   0.582   6.767   4.880  0.4041 -0.7334 -0.2487
  747MOL0     C  771   0.479   6.814   4.773  0.6789 -0.3432 -0.2611
  747MOL0     C  772   0.353   6.729   4.777 -0.0837  0.4432 -0.3934
  747MOL0     C  773   0.250   6.793   4.863 -0.1421 -0.8746 -0.0208
  747MOL0     C  774   0.172   6.839   4.946 -0.6895  0.4641  0.2307
  747MOL0     C  775   0.943   6.727   5.111  0.3182 -0.8487 -0.2148
  747MOL0     C  776   1.054   6.643   5.118 -0.0173 -0.2602 -0.5983
  747MOL0     C  777   1.150   6.656   5.248 -0.0581  0.4801  0.3000
  747MOL0     H  778   1.281   6.211   4.932 -0.1381  2.1061  0.4204
  747MOL0     H  779   1.461   6.055   4.867 -1.9999  0.4270  3.4373
  747MOL0     H  780   1.746   6.044   4.904 -0.3727  0.3079  0.0304
  747MOL0     H  781   1.672   5.948   4.774 -0.3498 -0.6585  2.2911
  747MOL0     H  782   1.942   6.082   4.761 -1.7238  0.9378  1.8292
  747MOL0     H  783   1.878   5.948   4.645  0.3262  2.0240 -1.2312
  747MOL0     H  784   1.874   5.798   4.813 -0.7023  0.0850 -1.9030
  747MOL0     H  785   1.933   5.916   4.933 -0.6115  0.3153 -0.4064
  747MOL0     H  786   2.086   5.842   4.668  1.2123 -0.0700  0.3317
  747MOL0     H  787   2.154   5.938   4.805  2.2224 -0.8853 -1.4898
  747MOL0     H  788   2.172   5.767   4.944 -1.4622  0.3641  0.5126
  747MOL0     H  789   2.071   5.657   4.847 -0.9209  0.4008  3.6590
  747MOL0     H  790   2.239   5.662   4.672  0.1989  0.0502 -0.2792
  747MOL0     H  791   2.345   5.770   4.768 -1.5468  0.6855 -0.8166
  747MOL0     H  792   2.260   5.485   4.837 -0.4645  0.4684 -0.2497
  747MOL0     H  793   2.376   5.586   4.934 -0.2985 -1.3165  0.7246
  747MOL0     H  794   2.470   5.418   4.752 -0.2164  1.1318 -0.4260
  747MOL0     H  795   2.465   5.550   4.650 -0.1211 -1.4842 -0.7265
  747MOL0     H  796   2.660   5.384   4.894 -0.6012 -1.0192 -3.8735
  747MOL0     H  797   2.911   5.595   5.091  2.8617 -1.0920  0.8030
  747MOL0     H  798   2.865   5.431   5.072  0.5953  0.5570  0.5140
  747MOL0     H  799   3.018   5.456   4.844 -1.4811  0.5123 -0.3935
  747MOL0     H  800   3.056   5.611   4.912 -1.3673  0.4388  1.8247
  747MOL0     H  801   3.098   5.321   5.033  4.8682 -1.2943  1.4983
  747MOL0     H  802   3.142   5.469   5.126 -1.4671  0.7194 -0.2516
  747MOL0     H  803   3.319   5.518   4.955  0.1217  0.0290 -2.4908
  747MOL0     H  804   3.237   5.391   4.854 -4.3160 -3.0224  1.6017
  747MOL0     H  805   3.493   5.298   5.227  3.0496  0.3435  1.8071
  747MOL0     H  806   3.745   5.327   5.215 -0.8225 -1.4463 -0.2804
  747MOL0     H  807   4.051   5.409   4.664 -2.0998 -1.2006  4.0890
  747MOL0     H  808   4.279   5.466   4.595  1.6654  1.5804 -0.1980
  747MOL0     H  809   4.478   5.726   4.842 -1.3424 -2.4178  0.0674
  747MOL0     H  810   4.587   5.620   4.918  1.3976 -3.5434 -1.0091
  747MOL0     H  811   4.702   5.574   4.688 -0.1508  0.5554 -0.7448
  747MOL0     H  812   4.588   5.677   4.615 -1.2446 -1.6017 -0.3196
  747MOL0     H  813   4.753   5.806   4.826  0.9057 -0.3670 -0.6231
  747MOL0     H  814   4.825   5.765   4.671  0.1320 -0.8984  0.2572
  747MOL0     H  815   4.566   5.939   4.687 -1.2369 -3.2024  0.5714
  747MOL0     H  816   4.669   5.896   4.544 -1.4820  0.2082 -0.3170
  747MOL0     H  817   4.734   6.076   4.772 -1.1448 -0.5060  0.2010
  747MOL0     H  818   4.713   6.125   4.604  0.4942  0.2009 -0.3113
  747MOL0     H  819   4.947   5.954   4.674  2.9368 -0.0830 -1.5342
  747MOL0     H  820   4.892   6.009   4.517  2.7461  1.7252 -0.3219
  747MOL0     H  821   4.967   6.208   4.742  1.7597  2.2023 -0.0320
  747MOL0     H  822   4.939   6.250   4.581  0.0404  0.3505  1.1845
  747MOL0     H  823   5.181   6.077   4.639 -0.2630  0.3264  1.4344
  747MOL0     H  824   5.119   6.149   4.481 -0.4089 -1.6096  0.3433
  747MOL0     H  825   4.373   5.554   4.999 -1.2734 -0.1895  1.9038
  747MOL0     H  826   4.125   5.528   5.070 -0.7227 -1.5148 -0.6787
  747MOL0     H  827   3.719   5.386   4.800  1.1767 -2.0267  1.0961
  747MOL0     H  828   3.473   5.390   4.809  1.4863  0.0312 -0.3538
  747MOL0     H  829   1.672   6.385   4.669 -1.2411  2.1966  0.6363
  747MOL0     H  830   1.478   6.535   4.743 -2.5590  0.0174  2.5180
  747MOL0     H  831   1.039   6.542   4.786 -0.6480 -1.6174 -0.3679
  747MOL0     H  832   0.868   6.708   4.782  0.0251 -1.1383 -0.2179
  747MOL0     H  833   0.741   6.885   4.790 -1.0934  1.8743 -0.8804
  747MOL0     H  834   0.642   6.970   4.891  0.1604 -0.1954 -0.6811
  747MOL0     H  835   0.534   6.761   4.978  0.8962  0.4072  0.0742
  747MOL0     H  836   0.618   6.665   4.864 -1.1440 -1.2525 -0.5872
  747MOL0     H  837   0.515   6.803   4.670 -2.2819 -0.4444 -1.3677
  747MOL0     H  838   0.461   6.922   4.785  0.0234 -0.5555  0.7795
  747MOL0     H  839   0.320   6.699   4.677  2.3632 -4.6617  0.0220
  747MOL0     H  840   0.376   6.633   4.824 -0.9724 -0.8482 -2.4480
  747MOL0     H  841   0.102   6.860   5.024 -1.2748 -1.3939  0.2397
  747MOL0     H  842   0.913   6.790   5.194 -0.8683 -0.1034 -1.1723
  747MOL0     H  843   1.249   6.694   5.220  0.1094  0.4670  0.8699
  747MOL0     H  844   1.109   6.728   5.320 -2.0265  0.5816 -0.8655
  747MOL0     H  845   1.146   6.562   5.302 -1.3875  0.2575 -0.1384
  748MOL0     O  846   2.946  10.640   5.724  0.0290  0.2820  0.2464
  748MOL0     C  847   2.927  10.571   5.824  0.1255  0.0856 -0.2352
  748MOL0     O  848   2.966  10.599   5.955 -0.1265 -0.1501  0.3967
  748MOL0     C  849   3.041  10.715   5.964 -0.1125 -0.1481 -0.4400
  748MOL0     C  850   2.971  10.836   5.960 -0.5318 -0.6709  0.4697
  748MOL0     C  851   3.040  10.956   5.972 -0.2454 -0.0209 -0.1498
  748MOL0     C  852   3.177  10.967   6.002  0.3372 -0.1906  0.1827
  748MOL0     O  853   3.223  11.097   6.014 -0.5592  0.2916  0.0558
  748MOL0     C  854   3.368  11.110   5.986  0.5800  0.0718 -0.1722
  748MOL0     C  855   3.388  11.257   5.984  0.1048 -1.1362  0.7506
  748MOL0     C  856   3.530  11.307   5.945 -0.3574 -0.4514 -0.7038
  748MOL0     C  857   3.567  11.449   5.985  0.3696  0.3915 -0.4457
  748MOL0     C  858   3.715  11.493   5.947  0.3582  0.2802 -0.0324
  748MOL0     C  859   3.767  11.603   6.045 -0.2551 -0.7391  0.0046
  748MOL0     C  860   3.904  11.657   5.993  0.0664  0.1482 -0.2765
  748MOL0     C  861   3.982  11.752   6.092  0.7618  0.0815  0.7178
  748MOL0     N  862   4.096  11.821   6.025  0.4193 -0.1138  0.7521
  748MOL0     C  863   4.204  11.744   5.981 -0.2084  0.2395  0.6219
  748MOL0     C  864   4.243  11.802   5.862 -0.0442  0.1412 -0.2892
  748MOL0     C  865   4.353  11.745   5.765  0.6119 -0.5656 -0.9248
  748MOL0     C  866   4.500  11.753   5.805  0.1463  0.4453 -0.1976
  748MOL0     C  867   4.585  11.740   5.676  0.8019 -1.4376 -0.9028
  748MOL0     C  868   4.737  11.721   5.698  0.2573 -0.2276  0.0025
  748MOL0     O  869   4.798  11.846   5.758  0.4397  1.3014  0.5530
  748MOL0     C  870   4.878  11.816   5.861 -0.8159 -0.1701 -0.0447
  748MOL0     C  871   4.831  11.765   5.980 -0.7332  0.9118  0.1918
  748MOL0     C  872   4.913  11.750   6.097  0.2211  0.2674 -0.6373
  748MOL0     C  873   5.054  11.761   6.089 -0.4723 -0.5681  0.1011
  748MOL0     C  874   5.138  11.723   6.203  0.1400 -0.1994  0.0215
  748MOL0     O  875   5.267  11.709   6.171 -0.1611 -0.3547  0.0887
  748MOL0     C  876   5.370  11.671   6.254  0.3133 -0.1617 -0.1867
  748MOL0     C  877   5.352  11.550   6.325 -0.1450 -0.0081  0.1208
  748MOL0     C  878   5.456  11.503   6.415  0.2543 -0.1025  0.4199
  748MOL0     C  879   5.582  11.575   6.425 -0.3041  0.5125  0.0056
  748MOL0     O  880   5.672  11.519   6.508 -0.2330 -1.0803  0.3417
  748MOL0     C  881   5.707  11.592   6.627  0.2851  0.2202  0.0791
  748MOL0     C  882   5.610  11.544   6.737  0.3206  0.2718 -1.1145
  748MOL0     C  883   5.630  11.606   6.881 -0.6831  0.5603  0.6494
  748MOL0     C  884   5.542  11.558   7.002 -0.2874  0.0563 -0.2923
  748MOL0     C  885   5.636  11.497   7.116  0.1625  0.2357  0.5521
  748MOL0     C  886   5.653  11.592   7.232  0.2434  0.1070 -0.3779
  748MOL0     C  887   5.764  11.529   7.320 -0.3983 -0.2780  0.4428
  748MOL0     C  888   5.796  11.590   7.455  0.2212 -0.0247 -0.1680
  748MOL0    Cl  889   5.654  11.608   7.566  0.2714  0.0792  0.1108
  748MOL0     C  890   5.590  11.696   6.354  0.5523 -0.3616 -0.1449
  748MOL0     C  891   5.482  11.748   6.278  0.7005  0.1803  0.0859
  748MOL0     O  892   5.080  11.695   6.308 -0.0965  0.1854  0.0461
  748MOL0     C  893   5.105  11.808   5.968 -0.6599  0.3957  0.0068
  748MOL0     C  894   5.018  11.840   5.861  1.5514 -0.2353 -0.5148
  748MOL0     N  895   4.166  11.917   5.842  0.2661 -0.5552  0.4510
  748MOL0     N  896   4.084  11.929   5.933  1.2071  0.3364 -0.7430
  748MOL0     C  897   3.246  10.847   5.999 -0.6035 -0.3063  0.5370
  748MOL0     C  898   3.184  10.720   5.982 -1.2274 -0.5997 -0.3378
  748MOL0     C  899   2.847  10.447   5.804  0.8538  0.4826 -0.9206
  748MOL0     C  900   2.811  10.366   5.915 -0.3442  0.3580  0.4805
  748MOL0     C  901   2.726  10.258   5.904 -0.9111 -0.6487  0.5293
  748MOL0     C  902   2.664  10.221   5.785  0.2735 -0.0678 -0.3431
  748MOL0     O  903   2.575  10.119   5.765 -0.2747 -0.4221 -0.0789
  748MOL0     C  904   2.494  10.083   5.875 -0.4576  0.0818  0.0650
  748MOL0     C  905   2.380   9.995   5.819 -1.1357  0.3298 -0.3758
  748MOL0     C  906   2.292   9.943   5.939 -0.2452 -0.1859 -0.6814
  748MOL0     C  907   2.227   9.804   5.904 -0.2696 -0.7071  0.2837
  748MOL0     C  908   2.108   9.779   5.988 -0.0025 -0.1664  0.6840
  748MOL0     C  909   2.002   9.763   6.042 -0.2650 -0.0112 -0.3203
  748MOL0     C  910   2.702  10.301   5.675  0.9826  0.1530 -0.3160
  748MOL0     C  911   2.796  10.401   5.678 -0.8903 -0.5476 -0.6314
  748MOL0     C  912   2.835  10.466   5.544  0.6224 -0.3527 -0.3043
  748MOL0     H  913   2.863  10.832   5.947 -0.7699  2.7327  0.4914
  748MOL0     H  914   2.991  11.052   5.963  0.7342  0.3640 -1.8031
  748MOL0     H  915   3.431  11.070   6.066  1.8293  2.8599  0.3556
  748MOL0     H  916   3.386  11.075   5.884  0.2083 -0.6362 -0.0006
  748MOL0     H  917   3.373  11.301   6.083 -0.2891 -0.3006  0.3245
  748MOL0     H  918   3.311  11.307   5.924  0.6476  0.8093  1.5795
  748MOL0     H  919   3.559  11.300   5.839  2.3037 -0.9256 -0.0076
  748MOL0     H  920   3.603  11.242   5.994 -1.1743 -2.5459 -2.0700
  748MOL0     H  921   3.498  11.512   5.929 -2.2444 -2.8318 -1.1965
  748MOL0     H  922   3.555  11.461   6.093  0.2833 -1.1771 -0.2627
  748MOL0     H  923   3.771  11.402   5.972 -0.8771 -0.5617 -0.2523
  748MOL0     H  924   3.723  11.518   5.841  0.8246  0.5901  0.0734
  748MOL0     H  925   3.703  11.691   6.047  1.1486  0.4361 -2.5884
  748MOL0     H  926   3.781  11.570   6.149 -2.1737  0.1271  0.5820
  748MOL0     H  927   3.868  11.706   5.902 -0.1199  1.0809  0.2902
  748MOL0     H  928   3.970  11.572   5.972 -1.3910 -1.2716  0.6240
  748MOL0     H  929   3.909  11.826   6.125  0.5750  0.5364 -0.6727
  748MOL0     H  930   4.008  11.683   6.173 -1.8736  0.2515  1.8061
  748MOL0     H  931   4.256  11.656   6.017  1.9233  0.4255 -1.7519
  748MOL0     H  932   4.329  11.639   5.753 -3.6221  0.3154 -1.8430
  748MOL0     H  933   4.334  11.782   5.664  1.2346  0.8577 -0.5494
  748MOL0     H  934   4.519  11.843   5.865  2.6973 -0.2641  0.1886
  748MOL0     H  935   4.528  11.669   5.869 -0.0521  1.2438  0.9614
  748MOL0     H  936   4.567  11.827   5.612  1.1618 -1.9988 -1.7990
  748MOL0     H  937   4.548  11.649   5.628 -0.1764 -0.4093 -2.2002
  748MOL0     H  938   4.795  11.695   5.609 -1.0775 -0.5213 -0.8076
  748MOL0     H  939   4.751  11.637   5.767  0.6053  1.1194  1.6431
  748MOL0     H  940   4.729  11.730   5.990 -0.9218  2.1158  4.7848
  748MOL0     H  941   4.871  11.720   6.192  3.2523  0.2266  0.7867
  748MOL0     H  942   5.258  11.496   6.317  0.5413 -1.4024  1.1977
  748MOL0     H  943   5.455  11.401   6.455 -1.7318 -0.7328 -1.0847
  748MOL0     H  944   5.810  11.568   6.651 -0.0788  0.8826  2.5568
  748MOL0     H  945   5.701  11.699   6.608 -2.2587 -0.4589 -4.4569
  748MOL0     H  946   5.506  11.562   6.710 -0.0841 -0.6326 -0.2133
  748MOL0     H  947   5.614  11.437   6.758 -0.3318  0.3293 -0.6612
  748MOL0     H  948   5.733  11.572   6.901 -1.4446 -3.7759 -1.5159
  748MOL0     H  949   5.627  11.715   6.878 -0.4771  0.5522  0.0650
  748MOL0     H  950   5.494  11.473   6.952  0.5240 -0.3723 -0.3649
  748MOL0     H  951   5.469  11.622   7.051 -1.4995 -0.7693 -0.9704
  748MOL0     H  952   5.733  11.475   7.069  0.8120  2.3773  0.7618
  748MOL0     H  953   5.582  11.407   7.147 -2.5261  1.2407 -0.9240
  748MOL0     H  954   5.685  11.690   7.196  0.3559  0.9633  1.9059
  748MOL0     H  955   5.558  11.607   7.284 -0.2402  0.9830 -1.4568
  748MOL0     H  956   5.853  11.551   7.260 -1.4269  0.2828 -0.9409
  748MOL0     H  957   5.754  11.420   7.322 -1.0966 -0.2345 -0.0945
  748MOL0     H  958   5.872  11.526   7.502 -1.7567 -2.6922 -0.3854
  748MOL0     H  959   5.837  11.692   7.447 -0.4908  0.4763  2.0195
  748MOL0     H  960   5.679  11.750   6.384  1.6273 -2.2838  0.2372
  748MOL0     H  961   5.491  11.852   6.250 -1.3263  0.6884  1.1604
  748MOL0     H  962   5.209  11.826   5.942 -0.8678  1.0091 -0.4157
  748MOL0     H  963   5.055  11.883   5.769  0.6099  2.0477  0.1134
  748MOL0     H  964   3.354  10.843   6.011 -0.5911 -1.2785  0.2189
  748MOL0     H  965   3.245  10.630   5.989 -1.0420 -0.3582  2.9170
  748MOL0     H  966   2.835  10.395   6.017 -1.1781 -2.2007  1.4794
  748MOL0     H  967   2.701  10.215   6.001  1.1770 -0.1818  1.3240
  748MOL0     H  968   2.442  10.170   5.918 -0.5467  0.2845 -0.4456
  748MOL0     H  969   2.553  10.032   5.952  1.7561  3.3161  0.7186
  748MOL0     H  970   2.416   9.910   5.761  0.2118  0.9643 -0.5197
  748MOL0     H  971   2.319  10.042   5.742 -1.3770 -1.4525 -1.3198
  748MOL0     H  972   2.207  10.007   5.962  0.6895  0.2090  2.0456
  748MOL0     H  973   2.352   9.927   6.030  0.7531  2.7331 -0.7116
  748MOL0     H  974   2.200   9.803   5.798  1.0638  1.5126 -0.1309
  748MOL0     H  975   2.301   9.725   5.924 -2.7320 -2.4686  3.4078
  748MOL0     H  976   1.900   9.755   6.076 -1.1835 -2.0121 -3.1601
  748MOL0     H  977   2.657  10.268   5.582  1.0098 -3.3376  0.7544
  748MOL0     H  978   2.786  10.563   5.530  1.9830  0.5441  0.9037
  748MOL0     H  979   2.941  10.492   5.545  0.3480  0.8122  1.2966
  748MOL0     H  980   2.810  10.398   5.462 -0.7469  0.7644 -0.8560
  749MOL0     O  981  10.838   6.207   6.042 -0.7828 -0.5615  0.2979
  749MOL0     C  982  10.829   6.320   6.082  1.4516 -0.8968 -0.0241
  749MOL0     O  983  10.923   6.414   6.072 -0.1176 -0.0842  0.1149
  749MOL0     C  984  11.054   6.381   6.033 -0.7807 -0.0696  0.2775
  749MOL0     C  985  11.092   6.285   5.934  0.2806  0.5114 -1.1208
  749MOL0     C  986  11.225   6.267   5.893 -0.0660  1.1865 -0.3542
  749MOL0     C  987  11.327   6.340   5.952  0.6773  0.0909 -0.0475
  749MOL0     O  988  11.456   6.307   5.913  0.0325 -0.4174  0.5072
  749MOL0     C  989  11.568   6.387   5.946 -0.5398  0.2395 -0.2400
  749MOL0     C  990  11.621   6.323   6.074 -0.0304 -0.3599  0.3151
  749MOL0     C  991  11.764   6.376   6.099  0.5853 -0.6608  0.0856
  749MOL0     C  992  11.849   6.295   6.205  0.7923  0.0127 -0.2048
  749MOL0     C  993  11.994   6.343   6.216 -0.5083  0.2312  0.6688
  749MOL0     C  994  12.069   6.262   6.323 -0.0876  0.4340 -0.5310
  749MOL0     C  995  12.225   6.288   6.312 -0.2021 -0.2669  0.3863
  749MOL0     C  996  12.253   6.437   6.329 -0.3147  0.1962  0.7967
  749MOL0     N  997  12.397   6.450   6.366 -0.3119  0.0268  0.3638
  749MOL0     C  998  12.503   6.487   6.280  1.0884  0.3875  0.1971
  749MOL0     C  999  12.613   6.480   6.358 -0.3609  0.9400  0.3512
  749MOL0     C 1000  12.758   6.502   6.296  0.6374  0.3611 -0.1424
  749MOL0     C 1001  12.845   6.576   6.394 -0.5875 -0.0044  0.6369
  749MOL0     C 1002  12.988   6.583   6.341 -0.3812 -0.5702  0.2350
  749MOL0     C 1003  13.063   6.457   6.325  0.2094  0.6547  0.1887
  749MOL0     O 1004  13.192   6.493   6.273 -0.4520 -0.2103  0.8770
  749MOL0     C 1005  13.302   6.493   6.356  0.5766 -0.9481  1.0465
  749MOL0     C 1006  13.319   6.447   6.489  0.1951  0.2721  0.4153
  749MOL0     C 1007  13.442   6.438   6.557 -0.2521 -0.0622  0.6850
  749MOL0     C 1008  13.558   6.483   6.479  0.0334  0.2478 -0.4050
  749MOL0     C 1009  13.691   6.447   6.519  0.8726  0.4196  0.0445
  749MOL0     O 1010  13.791   6.516   6.447  0.2408 -0.1382  0.0355
  749MOL0     C 1011  13.931   6.513   6.479 -0.1466 -0.6096 -0.2568
  749MOL0     C 1012  14.011   6.572   6.374  0.3922  0.4050 -0.3059
  749MOL0     C 1013  14.148   6.575   6.393 -0.6506 -0.9118  0.1928
  749MOL0     C 1014  14.212   6.514   6.500  0.3671  1.1074 -0.0610
  749MOL0     O 1015  14.353   6.534   6.502  0.5573 -0.4113  0.4766
  749MOL0     C 1016  14.424   6.490   6.621 -0.7222 -0.3787  0.3605
  749MOL0     C 1017  14.567   6.535   6.601 -0.1519  0.3330 -0.0372
  749MOL0     C 1018  14.575   6.686   6.623 -0.0547 -0.4319 -0.0299
  749MOL0     C 1019  14.712   6.736   6.664 -0.0633  0.8002 -0.6269
  749MOL0     C 1020  14.701   6.885   6.651  0.6509 -0.9346 -0.1926
  749MOL0     C 1021  14.827   6.943   6.709 -0.3795 -0.1883 -0.0264
  749MOL0     C 1022  14.814   7.094   6.698  0.1962 -0.0369 -0.3871
  749MOL0     C 1023  14.918   7.159   6.786 -0.3001  0.4507  0.4835
  749MOL0    Cl 1024  15.086   7.127   6.755 -0.2127  0.2910 -0.1345
  749MOL0     C 1025  14.127   6.475   6.604 -0.9866  0.5561 -0.2775
  749MOL0     C 1026  13.993   6.457   6.592 -0.5605  0.2985 -0.7518
  749MOL0     O 1027  13.708   6.373   6.611 -0.4135 -0.3912 -0.4528
  749MOL0     C 1028  13.537   6.545   6.350 -1.4431 -0.1417  0.6708
  749MOL0     C 1029  13.409   6.552   6.291  0.1911 -0.1355 -0.7825
  749MOL0     N 1030  12.576   6.444   6.492 -0.2642 -0.2622 -0.5268
  749MOL0     N 1031  12.450   6.423   6.491  0.3231 -0.6469 -0.2272
  749MOL0     C 1032  11.291   6.442   6.041 -0.3483  0.3470  0.5232
  749MOL0     C 1033  11.160   6.467   6.071 -0.1669 -0.3590 -0.7009
  749MOL0     C 1034  10.708   6.369   6.160  0.0365  0.0414  1.3158
  749MOL0     C 1035  10.715   6.493   6.225  0.2716  0.3813  0.1164
  749MOL0     C 1036  10.614   6.530   6.315  0.8586  0.0387 -0.1596
  749MOL0     C 1037  10.498   6.454   6.318 -0.0839 -0.2754  0.2979
  749MOL0     O 1038  10.387   6.500   6.382  0.2312  0.2517 -0.2123
  749MOL0     C 1039  10.338   6.633   6.365 -0.0630  0.1778  0.3757
  749MOL0     C 1040  10.345   6.699   6.503  0.0114 -0.5072  1.1597
  749MOL0     C 1041  10.377   6.850   6.499 -0.6082  0.7846  0.5285
  749MOL0     C 1042  10.404   6.906   6.633  0.4787  0.7306  1.0032
  749MOL0     C 1043  10.442   7.049   6.622 -1.0079  0.9070  0.3105
  749MOL0     C 1044  10.481   7.159   6.620 -0.3128 -0.0012 -0.2880
  749MOL0     C 1045  10.491   6.329   6.258 -0.3358  0.3976  0.2669
  749MOL0     C 1046  10.589   6.289   6.170  0.0990 -0.3281 -0.3277
  749MOL0     C 1047  10.552   6.169   6.089 -0.3168  0.4855  0.1743
  749MOL0     H 1048  11.016   6.223   5.886 -0.7271 -0.0304  1.0541
  749MOL0     H 1049  11.254   6.184   5.828 -0.7401 -0.7351  1.6572
  749MOL0     H 1050  11.644   6.371   5.869 -2.3043 -0.2188 -1.9780
  749MOL0     H 1051  11.555   6.495   5.957  0.0775  0.2321  0.6695
  749MOL0     H 1052  11.625   6.215   6.058  3.3722 -0.3998  0.5460
  749MOL0     H 1053  11.565   6.355   6.162  3.5715  4.2452  1.3447
  749MOL0     H 1054  11.776   6.475   6.142  0.5271 -1.5926  2.3632
  749MOL0     H 1055  11.814   6.365   6.002  2.4108 -0.2978  0.9452
  749MOL0     H 1056  11.798   6.308   6.301 -0.0782  2.1817 -0.8887
  749MOL0     H 1057  11.853   6.189   6.179 -1.8390 -0.7547  1.9884
  749MOL0     H 1058  12.047   6.340   6.120 -0.2940  1.3401  0.7392
  749MOL0     H 1059  11.997   6.449   6.243 -1.8543  0.6801 -0.7992
  749MOL0     H 1060  12.022   6.293   6.416  0.4709 -0.8769  0.2086
  749MOL0     H 1061  12.047   6.157   6.307  0.5527  0.2122 -0.0001
  749MOL0     H 1062  12.269   6.253   6.218 -1.0883  1.9194 -0.9235
  749MOL0     H 1063  12.259   6.240   6.404 -0.0371  4.0632  2.8139
  749MOL0     H 1064  12.221   6.495   6.243 -1.1821  1.0575  1.6692
  749MOL0     H 1065  12.184   6.473   6.406 -1.4315 -0.0522 -0.0703
  749MOL0     H 1066  12.499   6.540   6.186 -1.4791  0.8368  0.4721
  749MOL0     H 1067  12.786   6.398   6.276  0.1983 -0.1435  1.6365
  749MOL0     H 1068  12.769   6.553   6.200 -0.2643 -0.7325 -0.8565
  749MOL0     H 1069  12.809   6.678   6.416 -0.1089 -0.1324  2.1589
  749MOL0     H 1070  12.838   6.526   6.491 -0.5008  0.6192  0.9732
  749MOL0     H 1071  13.036   6.647   6.415  0.0964 -0.3496 -0.2623
  749MOL0     H 1072  12.999   6.635   6.245 -0.4910  0.4129  0.7466
  749MOL0     H 1073  13.016   6.400   6.245  2.3959  0.8432 -1.2876
  749MOL0     H 1074  13.061   6.403   6.421 -2.3414 -1.6905 -1.0343
  749MOL0     H 1075  13.238   6.398   6.543  1.0033 -1.5596  0.0439
  749MOL0     H 1076  13.455   6.396   6.656 -0.2217 -4.5410 -1.0175
  749MOL0     H 1077  13.958   6.630   6.300 -0.4835  1.8223  1.3436
  749MOL0     H 1078  14.216   6.630   6.328 -1.5377 -2.0497 -1.7781
  749MOL0     H 1079  14.371   6.533   6.706 -1.9370  0.4797 -0.8010
  749MOL0     H 1080  14.426   6.380   6.625  1.0997 -0.3894  0.0046
  749MOL0     H 1081  14.618   6.475   6.677  1.2328  1.5844  0.0594
  749MOL0     H 1082  14.609   6.514   6.502  1.0858  2.1030  0.0577
  749MOL0     H 1083  14.557   6.732   6.525 -0.9953 -0.6378  0.0360
  749MOL0     H 1084  14.505   6.722   6.699  1.0140  0.1713  0.6916
  749MOL0     H 1085  14.800   6.702   6.608  0.3235  1.6895 -0.5773
  749MOL0     H 1086  14.711   6.699   6.766 -2.6476 -2.0877 -1.5362
  749MOL0     H 1087  14.615   6.922   6.707 -0.3918 -1.2282 -1.5317
  749MOL0     H 1088  14.685   6.920   6.548  0.1366  2.5883  0.9435
  749MOL0     H 1089  14.853   6.920   6.813  0.7397  1.1012  0.0130
  749MOL0     H 1090  14.915   6.911   6.653 -0.2924 -0.1678  0.0976
  749MOL0     H 1091  14.712   7.123   6.725 -0.7148 -2.6490 -0.7125
  749MOL0     H 1092  14.826   7.132   6.595 -1.8205  1.1981 -0.2144
  749MOL0     H 1093  14.908   7.267   6.783  1.9663  0.7174  0.9313
  749MOL0     H 1094  14.905   7.135   6.892  0.2959  2.1195  0.9595
  749MOL0     H 1095  14.170   6.450   6.700 -2.9900 -1.7226  0.1201
  749MOL0     H 1096  13.943   6.412   6.677  2.5247 -2.2653 -0.0925
  749MOL0     H 1097  13.613   6.570   6.277 -1.8901  3.9077  1.3746
  749MOL0     H 1098  13.401   6.583   6.188  2.1627  1.2393 -0.5833
  749MOL0     H 1099  11.361   6.505   6.095 -1.1315  0.8483  0.9677
  749MOL0     H 1100  11.144   6.552   6.137  1.4313  1.7820 -2.8887
  749MOL0     H 1101  10.801   6.558   6.235 -0.8865  1.5939  3.1514
  749MOL0     H 1102  10.633   6.616   6.378 -1.1924 -0.1001  0.7219
  749MOL0     H 1103  10.238   6.645   6.323  0.2454  2.3123  0.1430
  749MOL0     H 1104  10.403   6.688   6.297  0.5683  0.7656  1.4226
  749MOL0     H 1105  10.431   6.657   6.556  1.7993  0.1600 -1.0879
  749MOL0     H 1106  10.248   6.692   6.553 -2.2539  0.0683 -2.7541
  749MOL0     H 1107  10.291   6.898   6.450 -0.6300 -2.3305 -2.8968
  749MOL0     H 1108  10.469   6.863   6.441 -0.4155  1.6889  1.0216
  749MOL0     H 1109  10.326   6.879   6.705  2.3668 -1.2947  2.4240
  749MOL0     H 1110  10.487   6.849   6.677 -1.8505 -3.7300  0.2630
  749MOL0     H 1111  10.509   7.263   6.613 -3.2371  0.8107 -1.3775
  749MOL0     H 1112  10.399   6.276   6.276  0.1371 -0.4583  0.1994
  749MOL0     H 1113  10.476   6.108   6.139 -0.6864  1.8482  1.3349
  749MOL0     H 1114  10.518   6.208   5.992  3.2409 -1.3507 -2.0415
  749MOL0     H 1115  10.641   6.106   6.076 -1.1319 -0.6739  0.0152
  750MOL0     O 1116   6.072   5.257   3.518 -0.3300  0.4372 -0.6131
  750MOL0     C 1117   6.091   5.354   3.593 -0.8490  0.0150 -0.7889
  750MOL0     O 1118   5.987   5.410   3.668 -0.4630 -0.1296  0.5307
  750MOL0     C 1119   5.859   5.358   3.650 -0.3128 -0.2443 -0.1897
  750MOL0     C 1120   5.767   5.457   3.617  0.2267  0.4597  0.1961
  750MOL0     C 1121   5.630   5.425   3.615 -0.2036  0.1066 -0.3253
  750MOL0     C 1122   5.583   5.288   3.640  0.8018  0.9470  0.2347
  750MOL0     O 1123   5.445   5.271   3.622  0.2022 -0.2598 -0.2781
  750MOL0     C 1124   5.391   5.137   3.662 -0.3922  0.6728 -1.0455
  750MOL0     C 1125   5.241   5.129   3.666 -0.2255 -0.2189 -0.3006
  750MOL0     C 1126   5.175   5.209   3.560  0.2462 -0.3232 -0.1940
  750MOL0     C 1127   5.180   5.139   3.419 -0.5411  0.1080  0.2761
  750MOL0     C 1128   5.082   5.029   3.394 -0.5376 -0.3076  0.0677
  750MOL0     C 1129   4.934   5.053   3.414  0.1125  0.8962  0.2300
  750MOL0     C 1130   4.845   4.934   3.365  1.0093 -0.9021 -0.0877
  750MOL0     C 1131   4.846   4.821   3.469  0.1584 -0.5732  0.2228
  750MOL0     N 1132   4.832   4.853   3.610  0.3425  0.4151 -1.0035
  750MOL0     C 1133   4.922   4.800   3.699 -0.6086  0.4930 -0.6842
  750MOL0     C 1134   4.882   4.828   3.825 -0.2208  0.3533 -1.0731
  750MOL0     C 1135   4.941   4.818   3.958  0.3680 -0.0101 -0.9499
  750MOL0     C 1136   5.065   4.906   3.991  0.0261  0.0671  0.5808
  750MOL0     C 1137   5.182   4.836   3.921 -0.5272 -0.6366 -0.3340
  750MOL0     C 1138   5.313   4.894   3.971 -0.5236  0.1421  0.1981
  750MOL0     O 1139   5.406   4.866   3.865  0.0027 -0.2890 -0.0609
  750MOL0     C 1140   5.535   4.906   3.901  0.6236 -0.3187 -0.0018
  750MOL0     C 1141   5.635   4.873   3.814 -0.7935  0.4267 -1.1307
  750MOL0     C 1142   5.769   4.905   3.840  1.2564  0.0859  0.5653
  750MOL0     C 1143   5.810   4.965   3.958  1.8876  0.9690 -0.0100
  750MOL0     C 1144   5.950   4.989   3.976 -0.0031 -0.1276  0.8211
  750MOL0     O 1145   6.030   4.994   3.866 -0.0918  0.1219  0.8674
  750MOL0     C 1146   6.169   5.016   3.876 -0.0061  0.1523  0.7302
  750MOL0     C 1147   6.256   4.935   3.799  0.2934 -0.9232  0.0772
  750MOL0     C 1148   6.392   4.966   3.788  0.4904 -0.0585  0.0964
  750MOL0     C 1149   6.449   5.067   3.870 -1.0304  0.9714  0.1732
  750MOL0     O 1150   6.584   5.091   3.874 -0.6068 -0.0408 -0.5730
  750MOL0     C 1151   6.664   5.049   3.754 -0.6505  1.2139 -1.0322
  750MOL0     C 1152   6.810   5.099   3.766  0.5947 -0.8657 -0.2122
  750MOL0     C 1153   6.911   5.002   3.839 -0.8845  0.6923  0.0046
  750MOL0     C 1154   7.053   5.066   3.857  0.0366 -1.4450 -0.0849
  750MOL0     C 1155   7.163   4.973   3.908  0.9255 -0.0449  0.0008
  750MOL0     C 1156   7.250   4.928   3.793  0.5115 -0.1868  0.4362
  750MOL0     C 1157   7.349   4.815   3.833  0.4056 -0.1647  0.1253
  750MOL0     C 1158   7.478   4.817   3.759  0.1278  0.1405  0.5341
  750MOL0    Cl 1159   7.457   4.798   3.586 -0.9547 -0.4849 -0.0684
  750MOL0     C 1160   6.368   5.140   3.953  0.3856 -0.4056 -0.6658
  750MOL0     C 1161   6.228   5.132   3.945 -0.2851  0.0883 -0.2173
  750MOL0     O 1162   5.987   5.010   4.089 -0.0938 -0.0237  0.1134
  750MOL0     C 1163   5.711   5.004   4.052  0.4907 -0.0354  0.0865
  750MOL0     C 1164   5.579   4.971   4.025 -0.4871 -0.3576 -0.3406
  750MOL0     N 1165   4.764   4.903   3.805 -0.9449 -0.6089 -0.0679
  750MOL0     N 1166   4.729   4.918   3.678  0.0506 -0.1862 -0.1653
  750MOL0     C 1167   5.676   5.191   3.669  0.1505 -0.3352  0.1679
  750MOL0     C 1168   5.815   5.225   3.677  0.9429 -0.4826  0.5038
  750MOL0     C 1169   6.220   5.398   3.628  0.3833  0.6123 -0.0777
  750MOL0     C 1170   6.323   5.302   3.619  0.5973 -0.2187  0.4375
  750MOL0     C 1171   6.451   5.332   3.662 -0.1869 -0.9525 -0.0871
  750MOL0     C 1172   6.488   5.456   3.708 -0.2749  0.5367  0.6885
  750MOL0     O 1173   6.614   5.492   3.736  0.2015  0.0513 -0.5176
  750MOL0     C 1174   6.655   5.471   3.872  0.3542 -0.4629  0.1655
  750MOL0     C 1175   6.816   5.468   3.877 -0.7027  0.1408 -0.4201
  750MOL0     C 1176   6.882   5.601   3.900 -0.3001 -0.2960  0.0009
  750MOL0     C 1177   7.032   5.587   3.925  0.3758  0.1406  0.0109
  750MOL0     C 1178   7.058   5.518   4.055 -0.0286 -0.6709  0.5745
  750MOL0     C 1179   7.090   5.450   4.154 -0.0052 -0.0541  0.6178
  750MOL0     C 1180   6.389   5.556   3.704  0.3438  0.8758 -1.5836
  750MOL0     C 1181   6.253   5.530   3.675 -0.3429 -0.0813  0.1133
  750MOL0     C 1182   6.159   5.651   3.665  0.0629 -0.4179 -0.8009
  750MOL0     H 1183   5.795   5.562   3.612  1.2232  0.1524 -1.6778
  750MOL0     H 1184   5.552   5.497   3.592 -1.5013 -1.4819 -1.0328
  750MOL0     H 1185   5.426   5.062   3.590 -0.3245 -1.2127  0.8421
  750MOL0     H 1186   5.434   5.116   3.761  0.7509  2.5556 -1.1051
  750MOL0     H 1187   5.209   5.173   3.762  1.7939 -3.2871  1.9598
  750MOL0     H 1188   5.201   5.028   3.661 -0.9110  0.0330 -0.0566
  750MOL0     H 1189   5.219   5.308   3.541  0.3144 -0.6672 -2.0841
  750MOL0     H 1190   5.075   5.232   3.596  0.9113 -0.0587  1.5908
  750MOL0     H 1191   5.154   5.222   3.353 -1.8131 -1.2968 -1.0465
  750MOL0     H 1192   5.280   5.097   3.410 -0.3513  0.2363  1.5392
  750MOL0     H 1193   5.098   5.008   3.288  0.7136 -0.3645  0.2590
  750MOL0     H 1194   5.117   4.939   3.447 -1.6837 -0.1785  1.1012
  750MOL0     H 1195   4.911   5.083   3.517 -0.3404 -0.0985  0.4327
  750MOL0     H 1196   4.905   5.137   3.349  0.2715  0.3816 -0.5214
  750MOL0     H 1197   4.867   4.905   3.262 -2.6651 -0.9874 -0.9804
  750MOL0     H 1198   4.740   4.966   3.363  1.3774  1.1634  3.8532
  750MOL0     H 1199   4.772   4.744   3.443  0.7744 -0.8768 -0.7058
  750MOL0     H 1200   4.940   4.769   3.448  0.5859  0.4151 -0.3675
  750MOL0     H 1201   5.018   4.757   3.673 -0.2023  2.0200 -1.8330
  750MOL0     H 1202   4.862   4.849   4.027  1.6598  2.2508 -0.4065
  750MOL0     H 1203   4.963   4.711   3.969  1.1485  0.1402 -1.0431
  750MOL0     H 1204   5.051   5.006   3.951 -0.0508 -0.4332 -0.6838
  750MOL0     H 1205   5.078   4.903   4.100  2.4269 -1.2256  0.3230
  750MOL0     H 1206   5.185   4.859   3.814  2.9614 -0.4371 -0.2919
  750MOL0     H 1207   5.182   4.727   3.931  4.7836 -1.1124 -2.4283
  750MOL0     H 1208   5.341   4.826   4.052  0.9864 -0.5021 -0.7984
  750MOL0     H 1209   5.306   4.994   4.014  2.0965 -0.0063  1.1635
  750MOL0     H 1210   5.602   4.822   3.724 -0.2843  1.4440 -1.9091
  750MOL0     H 1211   5.840   4.873   3.764  1.9262 -1.0711  1.6595
  750MOL0     H 1212   6.225   4.855   3.732  0.3429 -0.5284 -0.4258
  750MOL0     H 1213   6.464   4.896   3.747 -0.3545 -0.4061 -0.8308
  750MOL0     H 1214   6.670   4.939   3.759 -0.0300  1.2292 -1.3586
  750MOL0     H 1215   6.614   5.076   3.660 -0.7053  0.8180 -1.1189
  750MOL0     H 1216   6.855   5.119   3.669  2.9093  1.7528  1.2510
  750MOL0     H 1217   6.812   5.196   3.817  1.1399 -1.0852  0.1891
  750MOL0     H 1218   6.869   4.968   3.934  1.5676  0.0315  0.9129
  750MOL0     H 1219   6.932   4.914   3.778 -0.4502  0.3713  0.6068
  750MOL0     H 1220   7.031   5.146   3.929 -0.5580  0.1556 -1.9386
  750MOL0     H 1221   7.083   5.115   3.763  0.1734 -1.5100 -0.0753
  750MOL0     H 1222   7.115   4.893   3.965  1.9010 -0.7801 -0.1740
  750MOL0     H 1223   7.218   5.035   3.980  2.1107 -0.6514 -0.3471
  750MOL0     H 1224   7.197   4.872   3.715  4.4425 -1.0967 -1.8563
  750MOL0     H 1225   7.302   5.015   3.754 -1.2015  1.7663  2.2630
  750MOL0     H 1226   7.293   4.722   3.818 -1.9928  1.1589  0.3936
  750MOL0     H 1227   7.366   4.809   3.941 -3.0741 -1.7843  0.7329
  750MOL0     H 1228   7.541   4.903   3.784  0.0933  0.3033  0.0597
  750MOL0     H 1229   7.551   4.740   3.787  2.1413  1.1958 -1.5066
  750MOL0     H 1230   6.418   5.219   4.008  2.4462 -1.0224 -1.5557
  750MOL0     H 1231   6.164   5.201   3.998  0.3657  2.0338 -1.8389
  750MOL0     H 1232   5.731   5.042   4.152  1.8223 -1.0509  0.2340
  750MOL0     H 1233   5.510   5.003   4.102  0.3478 -0.0764  0.3025
  750MOL0     H 1234   5.650   5.088   3.691  0.3609 -0.3520  0.3439
  750MOL0     H 1235   5.884   5.145   3.702  0.2902 -2.1677 -2.6296
  750MOL0     H 1236   6.312   5.201   3.580  3.3700  0.1635 -1.6137
  750MOL0     H 1237   6.534   5.262   3.670  0.6964  0.1545  0.7716
  750MOL0     H 1238   6.603   5.382   3.910  0.7399 -1.3679 -1.3596
  750MOL0     H 1239   6.616   5.552   3.935  1.5888 -0.3636  0.8269
  750MOL0     H 1240   6.862   5.416   3.793 -1.5201 -3.2363  1.0587
  750MOL0     H 1241   6.827   5.398   3.960  1.3289  0.1779 -0.5997
  750MOL0     H 1242   6.840   5.645   3.990  1.6611 -1.9590  1.8451
  750MOL0     H 1243   6.860   5.657   3.809 -1.7270 -1.3505 -0.3387
  750MOL0     H 1244   7.078   5.536   3.839 -0.2308 -1.0163  0.3472
  750MOL0     H 1245   7.074   5.687   3.916 -2.2556  1.2022 -1.6288
  750MOL0     H 1246   7.117   5.389   4.239 -1.8666 -0.8927  0.6645
  750MOL0     H 1247   6.418   5.658   3.724 -0.6838  1.3920 -2.5995
  750MOL0     H 1248   6.103   5.657   3.759 -0.6917  1.0214 -1.3272
  750MOL0     H 1249   6.213   5.743   3.642  0.3861 -0.0424  1.2091
  750MOL0     H 1250   6.091   5.633   3.582 -1.4689  1.9839 -0.1634
  751MOL0     O 1251   8.895   7.428   3.278  0.2708 -0.1811 -0.0102
  751MOL0     C 1252   8.869   7.322   3.324  0.3145  0.4287  0.1581
  751MOL0     O 1253   8.944   7.253   3.411 -0.6448  0.4360  0.0867
  751MOL0     C 1254   9.071   7.294   3.469 -0.1410 -0.8387  0.3973
  751MOL0     C 1255   9.111   7.435   3.474  0.3197 -0.3557  0.0618
  751MOL0     C 1256   9.224   7.472   3.540  0.2169 -0.7339  0.2947
  751MOL0     C 1257   9.314   7.380   3.605 -0.4337 -0.4724 -0.1490
  751MOL0     O 1258   9.430   7.420   3.674  0.2752 -0.3924  0.7591
  751MOL0     C 1259   9.503   7.323   3.748 -0.0342  0.0102  0.2530
  751MOL0     C 1260   9.642   7.370   3.800 -0.2059 -0.2172  0.3597
  751MOL0     C 1261   9.634   7.507   3.861 -0.0299  0.0173 -0.4912
  751MOL0     C 1262   9.748   7.538   3.955  0.1177  0.0982 -0.8242
  751MOL0     C 1263   9.736   7.653   4.049  0.2965 -0.4722 -0.4561
  751MOL0     C 1264   9.831   7.643   4.172  0.3213  0.8130  0.1921
  751MOL0     C 1265   9.792   7.740   4.275 -1.2504 -0.1601 -0.2084
  751MOL0     C 1266   9.880   7.745   4.409 -0.2411  0.6822  0.4493
  751MOL0     N 1267  10.028   7.765   4.381  0.5903 -0.0240 -0.0017
  751MOL0     C 1268  10.116   7.668   4.342  0.0685 -0.1981  0.1013
  751MOL0     C 1269  10.234   7.738   4.320  0.6315  0.2849 -1.1118
  751MOL0     C 1270  10.361   7.663   4.304 -0.3966  0.4470  0.2277
  751MOL0     C 1271  10.472   7.702   4.400 -0.5995  0.9517 -0.3758
  751MOL0     C 1272  10.593   7.612   4.388 -0.0910 -0.2157  0.0839
  751MOL0     C 1273  10.710   7.665   4.477 -0.7602  0.5186  0.2339
  751MOL0     O 1274  10.832   7.596   4.433 -0.5990 -0.1752 -0.7495
  751MOL0     C 1275  10.943   7.621   4.503  0.8149  0.0831 -0.1876
  751MOL0     C 1276  10.957   7.687   4.628 -0.6034 -0.3695  0.0806
  751MOL0     C 1277  11.087   7.699   4.685  1.0472 -0.0546  0.0691
  751MOL0     C 1278  11.208   7.655   4.624  0.8823  1.2101 -0.3880
  751MOL0     C 1279  11.345   7.667   4.671 -0.9394 -0.5805 -0.3855
  751MOL0     O 1280  11.442   7.619   4.589 -0.8907  0.3416  0.1092
  751MOL0     C 1281  11.574   7.666   4.607  0.5196  0.5061  0.6084
  751MOL0     C 1282  11.676   7.591   4.674 -0.1325 -0.7152  0.0254
  751MOL0     C 1283  11.814   7.644   4.666 -0.5543 -0.6869 -0.1686
  751MOL0     C 1284  11.852   7.757   4.586 -0.2924  0.8893  0.1690
  751MOL0     O 1285  11.982   7.788   4.564  0.3867  0.0228  0.4715
  751MOL0     C 1286  12.090   7.704   4.609 -0.3616  0.0091 -0.3291
  751MOL0     C 1287  12.224   7.779   4.573 -0.7421 -0.0090  0.1432
  751MOL0     C 1288  12.342   7.707   4.608 -1.1378  0.7281  0.0100
  751MOL0     C 1289  12.465   7.807   4.615  0.0349  0.2301  0.3034
  751MOL0     C 1290  12.580   7.753   4.690 -0.5593 -0.1474  0.3735
  751MOL0     C 1291  12.533   7.726   4.833  0.3431  0.2735 -0.7517
  751MOL0     C 1292  12.649   7.710   4.930 -0.4167  0.3115 -0.7077
  751MOL0     C 1293  12.597   7.658   5.061  0.9553  0.4690 -0.1511
  751MOL0    Cl 1294  12.747   7.635   5.166  0.0425  0.3139 -0.1833
  751MOL0     C 1295  11.741   7.820   4.521  0.1677 -0.2887 -0.3968
  751MOL0     C 1296  11.612   7.778   4.529 -0.4965 -0.5581  0.4949
  751MOL0     O 1297  11.367   7.724   4.770  0.6518 -1.1946  0.1635
  751MOL0     C 1298  11.182   7.596   4.499 -0.4917 -0.1218  0.2060
  751MOL0     C 1299  11.059   7.580   4.444 -0.5271 -0.1623  0.0597
  751MOL0     N 1300  10.215   7.870   4.342  1.0839 -0.6739 -0.3957
  751MOL0     N 1301  10.089   7.882   4.376 -0.7575 -0.1951  0.0197
  751MOL0     C 1302   9.261   7.250   3.608  0.0026 -0.4136  0.3152
  751MOL0     C 1303   9.144   7.202   3.542 -0.1347  0.0408  0.1011
  751MOL0     C 1304   8.752   7.253   3.276  0.2592  0.3331  0.1802
  751MOL0     C 1305   8.737   7.122   3.314  0.0325 -0.3535  0.0262
  751MOL0     C 1306   8.622   7.050   3.278  0.1664 -0.0390 -0.1441
  751MOL0     C 1307   8.534   7.096   3.183 -0.2602  0.4455  0.4089
  751MOL0     O 1308   8.421   7.021   3.156  0.5652 -0.0410 -1.0762
  751MOL0     C 1309   8.315   7.092   3.086  0.0032  0.5974  0.1999
  751MOL0     C 1310   8.198   6.996   3.071  1.0500 -0.9579  0.1111
  751MOL0     C 1311   8.120   6.972   3.216 -0.1962  0.5229 -0.0104
  751MOL0     C 1312   8.006   6.874   3.206  0.3683 -0.8255  0.9001
  751MOL0     C 1313   7.891   6.952   3.155 -0.1072 -0.0301 -0.2192
  751MOL0     C 1314   7.795   7.004   3.102 -0.1917  0.4103  0.1328
  751MOL0     C 1315   8.557   7.228   3.141  0.2922 -0.4553  0.3894
  751MOL0     C 1316   8.663   7.309   3.184 -0.7858  0.5535  0.2316
  751MOL0     C 1317   8.665   7.448   3.126 -0.9510  0.7103  0.0590
  751MOL0     H 1318   9.060   7.506   3.411  0.3909 -0.7248 -0.4131
  751MOL0     H 1319   9.250   7.577   3.538 -3.3452  0.3217  1.4592
  751MOL0     H 1320   9.447   7.290   3.835  1.1073  1.0659  1.4385
  751MOL0     H 1321   9.526   7.242   3.678 -0.6497 -1.2287  1.4595
  751MOL0     H 1322   9.708   7.380   3.714 -2.2137  0.4843 -1.2001
  751MOL0     H 1323   9.674   7.287   3.863  1.6301 -0.2980 -0.6278
  751MOL0     H 1324   9.541   7.516   3.918  1.6418 -1.6474  2.8336
  751MOL0     H 1325   9.634   7.574   3.775 -3.1707  0.3081 -0.3875
  751MOL0     H 1326   9.763   7.445   4.011 -1.4836  1.3125  1.8441
  751MOL0     H 1327   9.836   7.556   3.893  0.9442  1.7366  0.7471
  751MOL0     H 1328   9.748   7.750   3.998  1.6520 -0.1657  0.3832
  751MOL0     H 1329   9.632   7.639   4.079  0.8896 -3.4274  0.5103
  751MOL0     H 1330   9.818   7.544   4.215  1.0004  1.3818  1.7597
  751MOL0     H 1331   9.938   7.663   4.154  0.1729  2.6354  1.0898
  751MOL0     H 1332   9.687   7.732   4.302 -1.4178  1.8099 -0.1538
  751MOL0     H 1333   9.790   7.835   4.220 -0.2866  0.3898  0.6727
  751MOL0     H 1334   9.842   7.828   4.469  0.7466  1.8482 -0.4733
  751MOL0     H 1335   9.863   7.652   4.465 -1.4015 -0.2191 -1.2996
  751MOL0     H 1336  10.084   7.566   4.326 -0.6461 -0.3311  2.1148
  751MOL0     H 1337  10.329   7.559   4.311 -2.8282  1.1894  0.8973
  751MOL0     H 1338  10.399   7.687   4.204 -1.5283 -2.4568 -1.0048
  751MOL0     H 1339  10.514   7.801   4.383  1.4045  0.3389  0.6557
  751MOL0     H 1340  10.429   7.712   4.501 -4.0657 -0.3623 -1.5675
  751MOL0     H 1341  10.625   7.613   4.283 -0.7127 -0.3864 -0.1146
  751MOL0     H 1342  10.554   7.511   4.409  0.0014 -0.7673 -2.1087
  751MOL0     H 1343  10.692   7.654   4.584 -1.7816  1.1430  0.1388
  751MOL0     H 1344  10.727   7.773   4.470 -0.1670  0.6749  2.9700
  751MOL0     H 1345  10.877   7.734   4.684  0.5947  1.8665  0.0127
  751MOL0     H 1346  11.079   7.756   4.777 -1.7584  0.2853 -0.2933
  751MOL0     H 1347  11.651   7.497   4.722 -0.2365 -1.5411 -1.5785
  751MOL0     H 1348  11.893   7.589   4.716 -1.5708  0.3739  2.8706
  751MOL0     H 1349  12.086   7.702   4.718 -0.2570  0.1406 -0.3240
  751MOL0     H 1350  12.094   7.601   4.571  1.0272 -0.3589  0.7687
  751MOL0     H 1351  12.231   7.771   4.464  1.0094  0.0540  0.2384
  751MOL0     H 1352  12.216   7.880   4.613 -2.6814  0.5453 -1.4921
  751MOL0     H 1353  12.323   7.652   4.701 -2.2959  2.6670  0.9832
  751MOL0     H 1354  12.368   7.639   4.526  5.5099  0.0912  2.0469
  751MOL0     H 1355  12.444   7.904   4.661  1.6207  0.8816 -0.2748
  751MOL0     H 1356  12.495   7.832   4.514 -0.1087  0.0292  0.2101
  751MOL0     H 1357  12.656   7.831   4.688 -0.4156 -0.2775 -2.2443
  751MOL0     H 1358  12.623   7.664   4.642  0.4378 -0.3977  1.6568
  751MOL0     H 1359  12.468   7.807   4.868 -1.6643 -0.0783 -3.3842
  751MOL0     H 1360  12.478   7.632   4.839  1.0481 -0.1191 -0.3070
  751MOL0     H 1361  12.697   7.808   4.934  3.4353 -1.4628  1.4925
  751MOL0     H 1362  12.727   7.647   4.886 -0.8680  0.5934 -1.9461
  751MOL0     H 1363  12.518   7.721   5.103 -1.3920 -2.8494  0.8181
  751MOL0     H 1364  12.545   7.563   5.047 -0.9859  0.9297  2.9401
  751MOL0     H 1365  11.755   7.907   4.458  3.0358  1.5622  2.4797
  751MOL0     H 1366  11.538   7.841   4.483 -0.4626 -0.9080 -0.0423
  751MOL0     H 1367  11.259   7.553   4.435  0.2825  1.9962 -0.3810
  751MOL0     H 1368  11.065   7.530   4.347 -3.2411  0.7300 -0.6609
  751MOL0     H 1369   9.313   7.172   3.662  1.2360 -1.8214 -2.6576
  751MOL0     H 1370   9.108   7.101   3.560 -1.1074  0.5935  1.4298
  751MOL0     H 1371   8.796   7.080   3.394 -0.4965 -0.0468  0.5846
  751MOL0     H 1372   8.602   6.955   3.327  1.8400  1.1961  3.2228
  751MOL0     H 1373   8.356   7.117   2.987  0.3832 -0.5564  0.0461
  751MOL0     H 1374   8.298   7.184   3.143 -0.0802  0.5675  0.2233
  751MOL0     H 1375   8.243   6.902   3.036  0.0045 -0.5322 -2.6997
  751MOL0     H 1376   8.133   7.034   2.991  3.2970  0.2446 -1.2594
  751MOL0     H 1377   8.091   7.061   3.274 -1.5942 -1.1764  2.0271
  751MOL0     H 1378   8.192   6.918   3.278 -0.9883 -0.3105  0.2042
  751MOL0     H 1379   8.028   6.790   3.140 -0.0858 -0.4189  0.2181
  751MOL0     H 1380   7.984   6.842   3.308 -1.6009 -1.3780  0.3372
  751MOL0     H 1381   7.707   7.043   3.056 -0.4751  0.5258  0.7723
  751MOL0     H 1382   8.493   7.269   3.063  0.3508  2.1806  1.6176
  751MOL0     H 1383   8.646   7.523   3.202 -1.6138  0.4964  0.1079
  751MOL0     H 1384   8.766   7.455   3.085 -0.6842 -0.0399  0.5557
  751MOL0     H 1385   8.591   7.458   3.046 -1.6419 -4.2872 -0.2624
  752MOL0     O 1386   5.003   9.249   3.162  0.0791 -0.1141 -0.3804
  752MOL0     C 1387   5.075   9.170   3.096  0.4604 -0.4979 -0.5990
  752MOL0     O 1388   5.211   9.175   3.088  0.1904 -0.6668 -0.4817
  752MOL0     C 1389   5.301   9.259   3.151 -0.0278 -0.1334  0.2507
  752MOL0     C 1390   5.438   9.235   3.126  0.9245  0.9396 -0.0608
  752MOL0     C 1391   5.531   9.298   3.205  0.0294  0.0817  1.2384
  752MOL0     C 1392   5.498   9.400   3.299 -0.3881 -0.2138 -0.3417
  752MOL0     O 1393   5.603   9.464   3.357  0.1580 -0.1676 -0.1281
  752MOL0     C 1394   5.595   9.484   3.499 -0.0299 -0.7611  1.0817
  752MOL0     C 1395   5.694   9.585   3.542 -0.4926  0.6166 -0.4186
  752MOL0     C 1396   5.838   9.527   3.533 -1.9494  0.9066  0.2658
  752MOL0     C 1397   5.938   9.615   3.592 -0.7798 -0.3899 -0.2131
  752MOL0     C 1398   6.066   9.533   3.627 -0.0016  1.1040  0.6747
  752MOL0     C 1399   6.189   9.609   3.686 -0.1852 -0.0668  0.0553
  752MOL0     C 1400   6.322   9.559   3.642  0.3199  0.2322  0.2327
  752MOL0     C 1401   6.431   9.634   3.723 -0.2894  0.6131 -0.1715
  752MOL0     N 1402   6.574   9.604   3.678  0.4622  0.6451  0.1215
  752MOL0     C 1403   6.637   9.648   3.563 -0.9620  0.3615  0.8942
  752MOL0     C 1404   6.754   9.584   3.567 -0.5572  0.5439  0.3824
  752MOL0     C 1405   6.862   9.578   3.454  0.0083 -0.0623  0.6457
  752MOL0     C 1406   6.992   9.644   3.501  0.3601  0.8735 -0.9037
  752MOL0     C 1407   7.100   9.683   3.400 -0.2392  0.6708 -0.8718
  752MOL0     C 1408   7.221   9.746   3.461 -0.2512  0.0690 -0.9279
  752MOL0     O 1409   7.272   9.671   3.572 -0.0509  0.0669  0.3144
  752MOL0     C 1410   7.388   9.604   3.529 -0.0690  0.6819 -0.0102
  752MOL0     C 1411   7.522   9.655   3.536  0.8016 -0.1832 -0.6634
  752MOL0     C 1412   7.633   9.587   3.506 -1.1438  0.0604 -0.6655
  752MOL0     C 1413   7.624   9.450   3.471 -0.7112  0.8570 -0.2683
  752MOL0     C 1414   7.735   9.364   3.440 -0.5577 -0.6839 -0.1576
  752MOL0     O 1415   7.716   9.232   3.429 -0.2957 -0.1487 -0.5675
  752MOL0     C 1416   7.821   9.157   3.390  0.7462 -0.3709  1.4614
  752MOL0     C 1417   7.868   9.058   3.479  0.0171  0.2250 -0.0667
  752MOL0     C 1418   7.975   8.975   3.442 -0.0550  0.1252 -0.7651
  752MOL0     C 1419   8.022   8.989   3.311  0.1218  0.1380 -1.3379
  752MOL0     O 1420   8.110   8.892   3.274 -0.1088 -0.0317  0.0632
  752MOL0     C 1421   8.231   8.933   3.214  0.3082  0.0722  0.2718
  752MOL0     C 1422   8.321   8.818   3.198 -0.7818 -0.2842  0.4400
  752MOL0     C 1423   8.247   8.703   3.126 -0.7013 -0.9774 -0.4450
  752MOL0     C 1424   8.349   8.603   3.079 -0.8647  0.2975 -0.1645
  752MOL0     C 1425   8.276   8.490   3.016 -0.5767 -0.1881 -1.3560
  752MOL0     C 1426   8.380   8.379   2.967 -0.7965  0.0990  0.6240
  752MOL0     C 1427   8.310   8.252   2.922  0.1316  0.2362  0.0207
  752MOL0     C 1428   8.261   8.170   3.043 -0.1915  0.7092  0.4066
  752MOL0    Cl 1429   8.224   8.000   2.987 -0.4130  0.4306  0.5013
  752MOL0     C 1430   7.973   9.079   3.217 -0.8135  0.0974 -0.8469
  752MOL0     C 1431   7.879   9.168   3.261  0.1652 -0.7954 -0.2832
  752MOL0     O 1432   7.842   9.421   3.428 -0.5822  0.9072 -0.1622
  752MOL0     C 1433   7.491   9.396   3.470 -0.1285  0.1767  0.1400
  752MOL0     C 1434   7.379   9.470   3.491 -0.4903  0.2111 -1.0062
  752MOL0     N 1435   6.771   9.520   3.687 -0.3591  0.1612 -0.1069
  752MOL0     N 1436   6.660   9.524   3.749  0.7870 -0.4886  0.3462
  752MOL0     C 1437   5.364   9.422   3.310 -0.2580 -0.0198  0.7904
  752MOL0     C 1438   5.259   9.353   3.250 -1.4826  0.1747  0.1380
  752MOL0     C 1439   5.005   9.061   3.020  0.8813 -0.3066  0.5168
  752MOL0     C 1440   4.867   9.041   3.041  0.3669 -0.5587  0.2020
  752MOL0     C 1441   4.792   8.941   2.976 -0.0681 -0.2808 -0.8497
  752MOL0     C 1442   4.858   8.864   2.880  0.5768 -0.9450  0.2641
  752MOL0     O 1443   4.798   8.772   2.802  0.2818  0.1619 -0.6275
  752MOL0     C 1444   4.660   8.739   2.829 -0.5994  0.5026  0.4404
  752MOL0     C 1445   4.616   8.652   2.703  0.9450  0.3551  0.1872
  752MOL0     C 1446   4.494   8.562   2.724  0.8327 -1.2606 -0.2893
  752MOL0     C 1447   4.358   8.635   2.750  0.3518  0.1964  0.5331
  752MOL0     C 1448   4.313   8.735   2.649 -0.5139  0.0811 -0.0244
  752MOL0     C 1449   4.275   8.827   2.577  0.0683 -0.2668 -0.7246
  752MOL0     C 1450   4.988   8.886   2.856  0.2365 -0.1339  0.9820
  752MOL0     C 1451   5.069   8.974   2.928  0.1580 -0.7376  0.8559
  752MOL0     C 1452   5.218   8.977   2.904  0.3874 -0.2118  0.1307
  752MOL0     H 1453   5.465   9.162   3.051 -1.8196  1.7955 -2.0430
  752MOL0     H 1454   5.638   9.284   3.190  0.5428  1.7083  2.9301
  752MOL0     H 1455   5.491   9.516   3.514 -0.4134 -0.8870 -1.0118
  752MOL0     H 1456   5.611   9.393   3.558  1.0011 -0.7478  0.8293
  752MOL0     H 1457   5.680   9.614   3.646 -0.7201 -0.9893  0.0349
  752MOL0     H 1458   5.684   9.672   3.476 -0.7911  0.1649 -0.9827
  752MOL0     H 1459   5.855   9.514   3.426 -0.6098 -2.7332  0.7849
  752MOL0     H 1460   5.853   9.427   3.573  1.6581  0.8020 -0.9602
  752MOL0     H 1461   5.965   9.687   3.514 -2.9134 -2.3724 -2.9408
  752MOL0     H 1462   5.898   9.665   3.681  1.6325 -0.0674  0.7577
  752MOL0     H 1463   6.035   9.463   3.705  2.2277  0.3330  0.9288
  752MOL0     H 1464   6.098   9.491   3.531 -0.6777  2.2956 -0.0923
  752MOL0     H 1465   6.194   9.713   3.652  0.4076  1.0374  3.1794
  752MOL0     H 1466   6.183   9.604   3.795  1.1046 -2.5074  0.0867
  752MOL0     H 1467   6.332   9.583   3.536 -2.5649  0.3862 -0.0907
  752MOL0     H 1468   6.333   9.450   3.650  2.0829  0.2964 -0.8473
  752MOL0     H 1469   6.418   9.742   3.706 -0.4568  0.2954 -2.3548
  752MOL0     H 1470   6.421   9.613   3.830 -0.0818 -1.5756 -0.5436
  752MOL0     H 1471   6.596   9.718   3.491 -2.7617 -0.3923  1.1355
  752MOL0     H 1472   6.870   9.474   3.424  1.2498  0.5235 -1.2254
  752MOL0     H 1473   6.820   9.633   3.369  2.1363  1.7070  0.6594
  752MOL0     H 1474   6.960   9.732   3.557 -0.1501 -0.7335  1.4674
  752MOL0     H 1475   7.038   9.577   3.574  1.3461 -0.2512 -2.4892
  752MOL0     H 1476   7.067   9.759   3.329 -2.7683 -0.8896 -1.5118
  752MOL0     H 1477   7.121   9.585   3.355 -0.6289 -2.1156  4.2076
  752MOL0     H 1478   7.183   9.843   3.492 -2.3948 -1.3885  1.4514
  752MOL0     H 1479   7.290   9.761   3.378 -0.0595 -0.7681 -0.9308
  752MOL0     H 1480   7.531   9.759   3.564  0.1500 -0.5329  0.9681
  752MOL0     H 1481   7.720   9.652   3.515 -2.6794  2.1086  0.1441
  752MOL0     H 1482   7.816   9.034   3.572 -1.2525  0.9479 -0.5616
  752MOL0     H 1483   8.009   8.890   3.499  2.6010 -0.4944 -3.0321
  752MOL0     H 1484   8.198   8.968   3.116  0.6974 -3.4586 -1.2553
  752MOL0     H 1485   8.274   9.016   3.271  0.0208 -0.8849  1.9472
  752MOL0     H 1486   8.404   8.857   3.138 -1.7580 -0.4608 -1.0795
  752MOL0     H 1487   8.360   8.767   3.287  0.3892 -2.7915 -1.3849
  752MOL0     H 1488   8.183   8.654   3.200 -1.2668 -0.4201 -0.5501
  752MOL0     H 1489   8.178   8.740   3.049  2.1078 -0.5580 -2.9224
  752MOL0     H 1490   8.420   8.588   3.160  1.0602  1.8572 -1.4518
  752MOL0     H 1491   8.407   8.647   2.997 -0.2712  1.0854  0.6575
  752MOL0     H 1492   8.205   8.519   2.938 -1.9679  0.2881  0.0180
  752MOL0     H 1493   8.224   8.446   3.103 -0.9029  0.1951 -1.3532
  752MOL0     H 1494   8.432   8.424   2.882 -0.4863 -0.5981  0.4357
  752MOL0     H 1495   8.464   8.346   3.029  1.5745  0.8067 -1.9741
  752MOL0     H 1496   8.389   8.193   2.876 -0.6092  1.3917 -2.9791
  752MOL0     H 1497   8.230   8.276   2.850 -1.9813 -0.3114  2.0500
  752MOL0     H 1498   8.347   8.167   3.111  0.7343 -0.1589 -0.7704
  752MOL0     H 1499   8.180   8.216   3.100  1.2700  0.7867  2.5566
  752MOL0     H 1500   8.016   9.085   3.118 -2.1403  1.6586 -1.3655
  752MOL0     H 1501   7.829   9.228   3.186  1.5370  0.3546 -0.3237
  752MOL0     H 1502   7.494   9.289   3.453 -0.7191 -0.0955  1.6014
  752MOL0     H 1503   7.282   9.428   3.467  0.0137 -0.9522 -1.0699
  752MOL0     H 1504   5.329   9.511   3.362  1.5239  1.8569 -1.0182
  752MOL0     H 1505   5.156   9.384   3.266 -1.3532 -0.4668  2.6780
  752MOL0     H 1506   4.804   9.094   3.112 -2.1260 -4.2909  1.0953
  752MOL0     H 1507   4.688   8.934   3.006  0.4337  1.3747  1.6203
  752MOL0     H 1508   4.593   8.825   2.841 -2.6938 -0.9790  0.0468
  752MOL0     H 1509   4.655   8.682   2.923  0.4177  1.1737  0.9103
  752MOL0     H 1510   4.700   8.584   2.685  1.2189  0.6681  0.2585
  752MOL0     H 1511   4.595   8.718   2.618 -1.4599 -0.1678  0.3297
  752MOL0     H 1512   4.515   8.502   2.813 -2.1446  0.5344  1.8203
  752MOL0     H 1513   4.480   8.501   2.634  1.2753 -0.7138 -0.7365
  752MOL0     H 1514   4.268   8.572   2.753  1.0845 -1.1276 -2.3360
  752MOL0     H 1515   4.367   8.677   2.851 -1.1697 -0.6897  1.0837
  752MOL0     H 1516   4.278   8.899   2.498 -2.6003  0.7110 -0.0407
  752MOL0     H 1517   5.047   8.835   2.781 -0.4998  0.0357  0.2757
  752MOL0     H 1518   5.251   9.076   2.875  1.7916 -0.5611  0.4830
  752MOL0     H 1519   5.273   8.940   2.991 -0.2256 -0.4022  0.4491
  752MOL0     H 1520   5.245   8.915   2.818 -2.3006 -2.9333  1.0450
  753MOL0     O 1521   4.254   0.205   2.864 -0.6003 -0.5450 -0.7211
  753MOL0     C 1522   4.206   0.173   2.753 -0.1418  0.4497 -0.1613
  753MOL0     O 1523   4.284   0.147   2.641 -0.0914  0.6222  0.0495
  753MOL0     C 1524   4.422   0.159   2.647 -0.0623 -0.2393  0.3825
  753MOL0     C 1525   4.503   0.056   2.585  0.1806  0.4860  0.7293
  753MOL0     C 1526   4.645   0.058   2.591  0.7617 -0.1968 -0.0843
  753MOL0     C 1527   4.707   0.155   2.665  0.4654 -0.7164 -0.3008
  753MOL0     O 1528   4.847   0.162   2.664 -0.3225  0.2718 -0.5115
  753MOL0     C 1529   4.925   0.237   2.761 -0.4253 -0.7619 -0.6454
  753MOL0     C 1530   5.069   0.269   2.711 -0.8200  0.7606  0.0151
  753MOL0     C 1531   5.059   0.319   2.562 -0.1067 -0.7285 -0.2146
  753MOL0     C 1532   5.200   0.355   2.514  0.3867 -0.2433 -1.2200
  753MOL0     C 1533   5.182   0.409   2.366 -0.0748 -0.5090  1.2693
  753MOL0     C 1534   5.123   0.555   2.352 -0.6429 -0.0464  0.1756
  753MOL0     C 1535   5.045   0.575   2.235  0.5602 -0.4012  0.4259
  753MOL0     C 1536   5.019   0.727   2.219 -0.9635 -0.2000  0.5703
  753MOL0     N 1537   5.145   0.799   2.183 -0.3149 -0.0258  0.3151
  753MOL0     C 1538   5.245   0.769   2.088  0.7940 -0.2585  0.2314
  753MOL0     C 1539   5.333   0.868   2.096 -0.5726  1.3349 -0.1699
  753MOL0     C 1540   5.441   0.861   1.997  0.2251  0.3536  0.1300
  753MOL0     C 1541   5.552   0.964   2.021 -0.2984 -0.0579 -0.1076
  753MOL0     C 1542   5.622   0.923   2.155  0.0179  0.0740 -0.3412
  753MOL0     C 1543   5.735   1.026   2.195  1.3401 -0.4435  0.2067
  753MOL0     O 1544   5.822   0.966   2.285 -0.3117  0.3322  0.2944
  753MOL0     C 1545   5.928   1.032   2.339 -0.2642 -0.7071 -0.0929
  753MOL0     C 1546   6.038   0.957   2.397  0.3642  0.0494  0.5268
  753MOL0     C 1547   6.148   1.027   2.445 -0.5777 -0.3888 -0.4813
  753MOL0     C 1548   6.153   1.170   2.447 -0.1597 -0.0949 -0.1615
  753MOL0     C 1549   6.279   1.236   2.495  0.1389 -0.4221  0.6152
  753MOL0     O 1550   6.277   1.375   2.528  0.3877  0.2227  0.2006
  753MOL0     C 1551   6.389   1.431   2.584  0.2844  0.1321  0.8928
  753MOL0     C 1552   6.436   1.550   2.517  0.3240  0.3889  0.0230
  753MOL0     C 1553   6.540   1.621   2.576 -0.1634  0.0704 -0.4826
  753MOL0     C 1554   6.599   1.574   2.694 -0.2794 -0.0286  0.6464
  753MOL0     O 1555   6.700   1.640   2.748  0.4476  0.5626 -0.8684
  753MOL0     C 1556   6.675   1.678   2.889  0.1216 -0.6387  0.4301
  753MOL0     C 1557   6.793   1.764   2.935  0.1397  0.7214 -0.1697
  753MOL0     C 1558   6.919   1.678   2.939 -0.2172  0.7325  0.2377
  753MOL0     C 1559   7.052   1.754   2.939  0.4888 -0.2068 -0.6479
  753MOL0     C 1560   7.177   1.660   2.969 -0.2427 -0.3695  0.1433
  753MOL0     C 1561   7.315   1.709   2.908  0.3759  0.2552 -0.0068
  753MOL0     C 1562   7.425   1.684   3.016  0.1809 -0.1990  0.1344
  753MOL0     C 1563   7.426   1.794   3.116  0.2019 -0.4720 -0.1852
  753MOL0    Cl 1564   7.467   1.957   3.057 -0.1064  0.7414 -0.2912
  753MOL0     C 1565   6.556   1.452   2.748  0.6308  0.4047 -0.6228
  753MOL0     C 1566   6.446   1.384   2.693 -0.2826 -0.9053 -0.1153
  753MOL0     O 1567   6.379   1.162   2.515 -0.0551  0.2604 -0.7071
  753MOL0     C 1568   6.049   1.243   2.385 -0.3796 -0.2654 -0.0052
  753MOL0     C 1569   5.935   1.170   2.334 -0.4444  0.0610 -0.0990
  753MOL0     N 1570   5.292   0.962   2.197  0.5513 -0.1334  0.3917
  753MOL0     N 1571   5.183   0.909   2.249  0.6305 -0.6915 -0.1053
  753MOL0     C 1572   4.629   0.264   2.717  0.2166 -0.2616  0.1681
  753MOL0     C 1573   4.486   0.266   2.706 -0.6832 -0.5227 -0.4717
  753MOL0     C 1574   4.057   0.174   2.723 -0.9250  0.1632  0.0987
  753MOL0     C 1575   4.016   0.136   2.589 -0.3626 -0.1439 -0.0750
  753MOL0     C 1576   3.878   0.127   2.555  0.2070 -1.0864  0.0659
  753MOL0     C 1577   3.779   0.154   2.648  0.3198  0.4833 -0.3459
  753MOL0     O 1578   3.644   0.141   2.623  0.0450  0.4401 -0.1657
  753MOL0     C 1579   3.603   0.179   2.487  0.3359  0.4709 -0.2214
  753MOL0     C 1580   3.445   0.153   2.493  0.2732 -1.1348 -0.8496
  753MOL0     C 1581   3.372   0.220   2.375 -0.8040  0.0105 -0.3328
  753MOL0     C 1582   3.219   0.212   2.410  0.1290 -0.1999 -1.0100
  753MOL0     C 1583   3.141   0.241   2.290 -0.1737 -0.6018  0.0538
  753MOL0     C 1584   3.078   0.246   2.188  0.7300 -0.1443  0.5322
  753MOL0     C 1585   3.823   0.191   2.777  0.2167  0.6814  1.5998
  753MOL0     C 1586   3.956   0.198   2.816  1.3710  0.5380 -0.1362
  753MOL0     C 1587   3.973   0.247   2.968 -0.6234  0.3322  0.4656
  753MOL0     H 1588   4.460  -0.025   2.527  2.8123  0.1982 -1.0385
  753MOL0     H 1589   4.711  -0.018   2.551  0.3683 -1.8784  2.2359
  753MOL0     H 1590   4.892   0.340   2.778 -2.0078 -1.2222 -0.6763
  753MOL0     H 1591   4.941   0.195   2.861  0.9110 -1.0789 -0.9790
  753MOL0     H 1592   5.137   0.184   2.717  0.7831  2.1065  1.6864
  753MOL0     H 1593   5.117   0.347   2.771  2.1919 -2.1589  1.7238
  753MOL0     H 1594   4.992   0.404   2.556  3.1842  1.9975 -1.4657
  753MOL0     H 1595   5.031   0.236   2.496  0.9528 -1.1696 -0.1290
  753MOL0     H 1596   5.237   0.439   2.573 -3.2175 -0.1893  1.2542
  753MOL0     H 1597   5.256   0.261   2.528 -1.1043 -1.0712 -0.5872
  753MOL0     H 1598   5.274   0.408   2.308 -1.3985 -0.8310 -0.9496
  753MOL0     H 1599   5.108   0.349   2.312  0.9262 -0.9176  0.3098
  753MOL0     H 1600   5.057   0.587   2.433 -0.5195  0.9421 -0.0991
  753MOL0     H 1601   5.211   0.620   2.358  0.0202 -0.8301 -0.7374
  753MOL0     H 1602   4.951   0.519   2.248 -0.3266  0.6672 -1.0152
  753MOL0     H 1603   5.103   0.531   2.154 -2.8359 -1.2499 -1.7733
  753MOL0     H 1604   4.952   0.746   2.135  2.6933  0.5095 -2.4891
  753MOL0     H 1605   4.975   0.764   2.312  0.3453 -2.0001  1.9953
  753MOL0     H 1606   5.253   0.681   2.025  4.2913  0.5784 -0.7663
  753MOL0     H 1607   5.482   0.760   1.995 -0.3376  0.1306 -0.5719
  753MOL0     H 1608   5.388   0.883   1.903  1.7387 -0.7474 -1.0334
  753MOL0     H 1609   5.622   0.970   1.937  2.4209  1.9649  2.1539
  753MOL0     H 1610   5.518   1.068   2.022 -1.4812 -0.4266  1.1402
  753MOL0     H 1611   5.666   0.823   2.143 -1.1861 -0.5655  0.3495
  753MOL0     H 1612   5.551   0.917   2.238 -0.1636  0.9219 -0.4316
  753MOL0     H 1613   5.683   1.110   2.243 -0.9772 -0.4358 -2.1208
  753MOL0     H 1614   5.783   1.068   2.106 -1.1878  2.2027 -0.0868
  753MOL0     H 1615   6.024   0.850   2.412  0.1766  0.4283  3.8818
  753MOL0     H 1616   6.224   0.967   2.495  0.0886 -1.6248 -2.8204
  753MOL0     H 1617   6.396   1.584   2.422  1.0963 -0.2687 -0.5557
  753MOL0     H 1618   6.577   1.710   2.526 -0.0126 -0.4038 -1.2230
  753MOL0     H 1619   6.578   1.729   2.889  0.7697  0.7489 -1.6948
  753MOL0     H 1620   6.669   1.601   2.967 -0.3385  0.5713  1.6239
  753MOL0     H 1621   6.797   1.855   2.875 -0.7163  0.2468 -0.9772
  753MOL0     H 1622   6.766   1.800   3.035 -1.3821  3.2478 -1.3899
  753MOL0     H 1623   6.917   1.615   3.028 -2.5208 -1.7556 -1.4066
  753MOL0     H 1624   6.913   1.609   2.854 -0.8431  1.1742 -0.0900
  753MOL0     H 1625   7.049   1.832   3.014 -2.5267  0.0511 -0.8974
  753MOL0     H 1626   7.058   1.803   2.841  0.7613 -1.3307 -1.2186
  753MOL0     H 1627   7.150   1.561   2.931 -0.6483 -1.0543  2.0876
  753MOL0     H 1628   7.179   1.649   3.078  0.0105 -3.0881 -0.0657
  753MOL0     H 1629   7.341   1.668   2.810 -0.5779  1.6860 -0.9048
  753MOL0     H 1630   7.304   1.816   2.890 -2.7204 -0.1312 -1.1523
  753MOL0     H 1631   7.526   1.683   2.975 -0.0653 -0.3218 -0.4845
  753MOL0     H 1632   7.415   1.585   3.062  1.0302  0.4021  1.6794
  753MOL0     H 1633   7.330   1.797   3.168 -0.5015 -0.5535 -1.4347
  753MOL0     H 1634   7.492   1.783   3.202 -0.7696 -2.9772  0.3192
  753MOL0     H 1635   6.611   1.405   2.829 -1.7522 -1.8595 -0.2048
  753MOL0     H 1636   6.427   1.287   2.737  0.5028 -0.2223  1.8473
  753MOL0     H 1637   6.049   1.351   2.388  0.3788 -0.2568  0.0058
  753MOL0     H 1638   5.858   1.229   2.284  0.6706  0.7536 -1.0567
  753MOL0     H 1639   4.681   0.345   2.768  0.5005 -0.8042  0.7442
  753MOL0     H 1640   4.426   0.353   2.732  0.6780  0.0608  0.9035
  753MOL0     H 1641   4.099   0.113   2.523  0.1679  0.5815  0.3246
  753MOL0     H 1642   3.849   0.091   2.457  1.2405 -2.9591  0.3997
  753MOL0     H 1643   3.645   0.112   2.411 -2.7038 -1.9071 -0.0024
  753MOL0     H 1644   3.619   0.286   2.474 -0.8089  0.8546  1.2305
  753MOL0     H 1645   3.407   0.206   2.581  1.4017  2.6638 -2.4362
  753MOL0     H 1646   3.427   0.046   2.503  2.7854 -1.7674 -2.2530
  753MOL0     H 1647   3.406   0.178   2.280  1.3588 -0.2687  0.4943
  753MOL0     H 1648   3.409   0.322   2.387  3.4018 -1.4884  1.8845
  753MOL0     H 1649   3.182   0.116   2.448 -0.9914  0.5342 -0.1865
  753MOL0     H 1650   3.198   0.277   2.495  1.1498  1.9987 -2.3493
  753MOL0     H 1651   3.014   0.248   2.102  0.8368  1.4941  0.4699
  753MOL0     H 1652   3.741   0.212   2.845 -2.0882 -0.2270 -0.7144
  753MOL0     H 1653   3.897   0.316   3.006 -1.0859  1.3914 -2.1235
  753MOL0     H 1654   3.985   0.170   3.044 -1.5965  0.3707  0.6705
  753MOL0     H 1655   4.072   0.293   2.964 -0.7775  0.6042 -1.3448
  754MOL0     O 1656   8.045   2.282   3.595  0.2025 -0.6088 -0.1679
  754MOL0     C 1657   7.956   2.364   3.600  0.1626  0.6599  0.7238
  754MOL0     O 1658   7.977   2.495   3.635  0.5288  0.0329  0.0978
  754MOL0     C 1659   8.101   2.545   3.652 -0.7285 -0.0593  0.9534
  754MOL0     C 1660   8.104   2.675   3.693 -1.0868  0.4895  0.1665
  754MOL0     C 1661   8.228   2.749   3.702 -0.4926 -0.0835 -0.2740
  754MOL0     C 1662   8.353   2.687   3.685  0.8904  0.1090  0.4061
  754MOL0     O 1663   8.470   2.761   3.692 -0.2086 -0.1255 -0.0435
  754MOL0     C 1664   8.584   2.729   3.606  0.4470 -0.0968 -0.5148
  754MOL0     C 1665   8.647   2.865   3.582  1.3140  0.1206  0.4188
  754MOL0     C 1666   8.752   2.868   3.462 -0.0616  0.0757 -0.9722
  754MOL0     C 1667   8.842   2.983   3.466  0.3210  0.4308 -0.7985
  754MOL0     C 1668   8.940   3.013   3.354  0.6461  0.4116  0.1639
  754MOL0     C 1669   9.040   2.897   3.334 -0.2643 -0.4773  0.2125
  754MOL0     C 1670   9.139   2.871   3.450  0.2462  0.5430  0.5781
  754MOL0     C 1671   9.246   2.981   3.475 -0.1974  0.9745  0.0740
  754MOL0     N 1672   9.339   2.933   3.580 -1.4036 -0.0254  0.1078
  754MOL0     C 1673   9.440   3.015   3.629  0.9217 -0.3027  0.5371
  754MOL0     C 1674   9.482   2.961   3.739  0.0190  0.3392  0.5456
  754MOL0     C 1675   9.606   2.998   3.823  0.5075  0.2573 -0.2141
  754MOL0     C 1676   9.719   2.894   3.825 -0.1500  0.3672 -0.1205
  754MOL0     C 1677   9.811   2.896   3.701  1.0768 -0.0854 -0.2718
  754MOL0     C 1678   9.930   2.803   3.717  0.0729  0.5191 -0.2194
  754MOL0     O 1679   9.993   2.791   3.593  0.2334 -0.4713  0.2790
  754MOL0     C 1680  10.086   2.691   3.583  0.9121  0.2107  0.6923
  754MOL0     C 1681  10.129   2.614   3.693  0.3615 -0.9524  0.3958
  754MOL0     C 1682  10.240   2.525   3.686  0.3406  0.1361  0.5999
  754MOL0     C 1683  10.293   2.493   3.558  0.4999  0.0899 -0.8059
  754MOL0     C 1684  10.405   2.399   3.553  0.0213  0.3988  0.5108
  754MOL0     O 1685  10.432   2.368   3.423 -0.4976  0.0780 -0.2843
  754MOL0     C 1686  10.529   2.274   3.394  0.2673  0.3207 -0.0942
  754MOL0     C 1687  10.652   2.282   3.448 -0.9713 -0.1377 -0.2246
  754MOL0     C 1688  10.760   2.206   3.401  0.7053 -0.3120 -0.7734
  754MOL0     C 1689  10.730   2.106   3.313  0.3457  0.4627  0.6763
  754MOL0     O 1690  10.816   2.006   3.281 -0.2954 -0.2814  0.5901
  754MOL0     C 1691  10.957   2.047   3.277 -0.2624 -0.0874  0.0029
  754MOL0     C 1692  11.048   1.950   3.211  0.3079 -0.7380  0.2911
  754MOL0     C 1693  11.104   1.828   3.298  0.5711 -0.7676  0.1679
  754MOL0     C 1694  11.171   1.724   3.203  0.6019 -0.9107 -0.5177
  754MOL0     C 1695  11.228   1.613   3.294  0.1128  0.3254  0.3014
  754MOL0     C 1696  11.302   1.502   3.199 -0.3009 -0.3784 -0.4039
  754MOL0     C 1697  11.418   1.563   3.113  0.3798  0.0767 -0.4720
  754MOL0     C 1698  11.524   1.457   3.089 -0.2586 -0.1917  0.1792
  754MOL0    Cl 1699  11.640   1.428   3.225  0.9200 -0.1819  0.4630
  754MOL0     C 1700  10.608   2.089   3.252  0.3120  0.9743 -1.1606
  754MOL0     C 1701  10.507   2.175   3.287  0.7766  0.4050 -0.9863
  754MOL0     O 1702  10.451   2.343   3.654  0.2300  0.4987  0.1574
  754MOL0     C 1703  10.252   2.571   3.444 -0.4736 -0.4921 -0.5768
  754MOL0     C 1704  10.151   2.671   3.459 -0.1544  0.5154  0.1343
  754MOL0     N 1705   9.408   2.840   3.763 -0.6339 -0.9083  0.5391
  754MOL0     N 1706   9.323   2.827   3.661 -0.0403 -0.4452  0.4029
  754MOL0     C 1707   8.348   2.556   3.644  0.5513 -0.0076 -0.4001
  754MOL0     C 1708   8.228   2.489   3.630 -0.6447 -0.1642  0.2134
  754MOL0     C 1709   7.821   2.320   3.561 -0.1072 -0.4181  0.7928
  754MOL0     C 1710   7.788   2.184   3.566  0.9329  0.6524 -0.2767
  754MOL0     C 1711   7.659   2.145   3.531  0.3871  0.2821 -0.3570
  754MOL0     C 1712   7.562   2.239   3.499  0.1193 -0.5055 -0.3013
  754MOL0     O 1713   7.432   2.204   3.478 -0.2467  0.6877 -0.0386
  754MOL0     C 1714   7.403   2.082   3.410  0.0647 -0.4001 -0.1332
  754MOL0     C 1715   7.258   2.075   3.360  0.8415 -0.5221  0.6579
  754MOL0     C 1716   7.161   2.120   3.464  0.3261  0.2078 -0.2352
  754MOL0     C 1717   7.019   2.121   3.409 -0.6150  0.2080 -0.0027
  754MOL0     C 1718   6.980   2.002   3.337  0.2836 -0.3628 -0.3798
  754MOL0     C 1719   6.940   1.904   3.266 -0.0274 -0.5917 -0.4003
  754MOL0     C 1720   7.599   2.375   3.491  0.1766 -0.3969 -0.4932
  754MOL0     C 1721   7.723   2.417   3.528  0.1879 -0.5766  1.0978
  754MOL0     C 1722   7.734   2.568   3.518  0.3214  0.2856 -0.8413
  754MOL0     H 1723   8.008   2.726   3.696 -2.3569 -1.7689 -0.2210
  754MOL0     H 1724   8.218   2.855   3.719 -0.6781  0.2210 -2.0572
  754MOL0     H 1725   8.668   2.672   3.646  1.7166 -0.2275 -3.1001
  754MOL0     H 1726   8.551   2.690   3.509 -0.1532 -1.3517  0.1801
  754MOL0     H 1727   8.686   2.906   3.676  1.9696  1.2201 -0.3210
  754MOL0     H 1728   8.560   2.928   3.561  1.6009  0.7312  1.0089
  754MOL0     H 1729   8.697   2.890   3.371 -0.3429  1.1616 -0.5547
  754MOL0     H 1730   8.803   2.771   3.462 -0.0024  0.0344  1.3396
  754MOL0     H 1731   8.781   3.071   3.488  0.7209  0.2531  1.2494
  754MOL0     H 1732   8.900   2.965   3.557 -1.7732 -2.6440  0.0946
  754MOL0     H 1733   8.891   3.037   3.259 -0.1160  0.4639  0.5647
  754MOL0     H 1734   8.994   3.102   3.388 -1.7966  1.6410  1.1073
  754MOL0     H 1735   8.988   2.803   3.311  0.1241 -0.1344 -2.3543
  754MOL0     H 1736   9.110   2.913   3.251  1.7201 -2.6029  1.3724
  754MOL0     H 1737   9.193   2.781   3.422  0.6544 -0.5987  4.4163
  754MOL0     H 1738   9.090   2.833   3.540 -0.2488 -1.0510 -0.3239
  754MOL0     H 1739   9.293   2.983   3.376 -1.4198 -0.7113 -0.5905
  754MOL0     H 1740   9.212   3.079   3.508  0.9212  1.3112  0.2808
  754MOL0     H 1741   9.473   3.109   3.586 -0.0232 -0.8997 -1.6130
  754MOL0     H 1742   9.643   3.100   3.805  0.2447 -0.1403 -3.6559
  754MOL0     H 1743   9.572   3.001   3.927 -1.6323 -3.0688 -0.6589
  754MOL0     H 1744   9.785   2.906   3.911 -0.7759 -1.1938  0.6228
  754MOL0     H 1745   9.675   2.798   3.854  1.9130 -0.3164  0.9866
  754MOL0     H 1746   9.847   2.998   3.683  2.1521 -0.6542 -1.5645
  754MOL0     H 1747   9.754   2.882   3.609 -1.6138  4.6540  0.4026
  754MOL0     H 1748   9.891   2.707   3.752  1.5412  0.1310  0.4215
  754MOL0     H 1749   9.996   2.845   3.793  0.7348 -0.9567  0.0408
  754MOL0     H 1750  10.074   2.622   3.786  0.0650  1.6347  0.0658
  754MOL0     H 1751  10.267   2.478   3.780  0.4809  3.6959  2.5156
  754MOL0     H 1752  10.674   2.355   3.525  1.8196  0.5308 -1.5127
  754MOL0     H 1753  10.859   2.225   3.441  0.7134 -1.7130 -0.0827
  754MOL0     H 1754  10.960   2.136   3.214  0.8715 -0.3755 -0.3817
  754MOL0     H 1755  11.003   2.074   3.372  0.2288 -1.2888  0.1290
  754MOL0     H 1756  10.988   1.901   3.134 -0.9740 -0.2091  0.9288
  754MOL0     H 1757  11.128   1.999   3.155 -0.6348  0.1417 -0.3105
  754MOL0     H 1758  11.186   1.867   3.359 -0.0728 -1.0122  1.2285
  754MOL0     H 1759  11.028   1.788   3.366  2.4159 -0.7700  2.3630
  754MOL0     H 1760  11.251   1.776   3.149  0.2184  4.1846  3.0687
  754MOL0     H 1761  11.098   1.678   3.135 -2.3249 -0.5256  2.1471
  754MOL0     H 1762  11.148   1.550   3.335  1.4907 -3.8783 -2.8126
  754MOL0     H 1763  11.297   1.654   3.368 -0.6775  0.7815  0.8021
  754MOL0     H 1764  11.348   1.435   3.272 -3.0350 -0.0621  1.7790
  754MOL0     H 1765  11.226   1.449   3.141 -0.5780 -0.6292  0.1760
  754MOL0     H 1766  11.457   1.661   3.141 -1.7694  0.7050  0.4665
  754MOL0     H 1767  11.374   1.576   3.013 -0.9012 -1.3411 -0.1278
  754MOL0     H 1768  11.471   1.365   3.064 -1.8873  0.8364 -0.2755
  754MOL0     H 1769  11.587   1.475   3.001  2.3928  1.5697  2.2581
  754MOL0     H 1770  10.602   2.003   3.186 -0.8699  0.2370 -0.1492
  754MOL0     H 1771  10.415   2.156   3.233 -0.6835  0.9985  1.1665
  754MOL0     H 1772  10.294   2.560   3.345  4.7507  3.9890  0.6963
  754MOL0     H 1773  10.132   2.732   3.371  3.6305 -0.2486 -1.4001
  754MOL0     H 1774   8.441   2.504   3.625  0.7097 -0.2056  0.8382
  754MOL0     H 1775   8.230   2.380   3.621 -0.8673 -0.8211  5.1953
  754MOL0     H 1776   7.862   2.106   3.585  1.9370  1.2005 -1.6979
  754MOL0     H 1777   7.633   2.039   3.526 -3.4227  1.0572  0.2737
  754MOL0     H 1778   7.418   1.989   3.465  0.1508  0.1018  0.7051
  754MOL0     H 1779   7.480   2.072   3.333  1.1927  0.7628  0.7947
  754MOL0     H 1780   7.246   1.968   3.343 -1.2481 -0.3716  0.9450
  754MOL0     H 1781   7.244   2.137   3.270 -0.1938  0.6538  1.5903
  754MOL0     H 1782   7.170   2.223   3.498 -0.6435 -0.1609  1.2711
  754MOL0     H 1783   7.170   2.057   3.553 -0.0099  2.2206  1.2889
  754MOL0     H 1784   6.958   2.148   3.496  0.9693 -0.3335  1.3290
  754MOL0     H 1785   7.009   2.202   3.335 -0.1715  0.3966  0.1376
  754MOL0     H 1786   6.895   1.818   3.220 -0.7637 -0.3327 -0.1671
  754MOL0     H 1787   7.518   2.446   3.475 -0.4530 -0.9822  0.0250
  754MOL0     H 1788   7.810   2.615   3.455  2.5148  0.5373  1.8271
  754MOL0     H 1789   7.641   2.611   3.478  1.0566  2.5422 -0.2621
  754MOL0     H 1790   7.750   2.607   3.619 -0.5372  2.0254 -1.3341
  755MOL0     O 1791   7.970   4.571   5.170  0.6258 -1.1600 -0.2614
  755MOL0     C 1792   7.874   4.524   5.235 -0.0681 -0.0808 -0.1978
  755MOL0     O 1793   7.887   4.470   5.360 -0.1371  0.1233  0.2135
  755MOL0     C 1794   8.003   4.490   5.436 -0.7356 -0.0102 -0.6936
  755MOL0     C 1795   8.136   4.477   5.387 -0.3692  0.3301  0.3137
  755MOL0     C 1796   8.250   4.498   5.472 -0.2723 -1.0116  0.1138
  755MOL0     C 1797   8.233   4.538   5.606  0.2795 -0.1649  0.3125
  755MOL0     O 1798   8.342   4.550   5.684 -0.0681 -0.3577 -0.3252
  755MOL0     C 1799   8.361   4.687   5.730  0.4556 -0.1853 -0.3711
  755MOL0     C 1800   8.507   4.712   5.773 -0.1425 -0.0978 -0.1925
  755MOL0     C 1801   8.589   4.678   5.649  0.4714  0.5991 -0.5396
  755MOL0     C 1802   8.733   4.727   5.672 -0.4029 -0.0233 -0.4895
  755MOL0     C 1803   8.795   4.720   5.531 -0.5031  0.5589  0.3345
  755MOL0     C 1804   8.946   4.705   5.511 -0.3674  0.2652 -0.7594
  755MOL0     C 1805   8.981   4.697   5.358  0.0649  0.1946 -0.6577
  755MOL0     C 1806   9.127   4.730   5.315 -0.3689 -0.1126 -0.2280
  755MOL0     N 1807   9.125   4.723   5.172  0.6003  1.2630 -0.1973
  755MOL0     C 1808   9.114   4.824   5.089  0.0867 -1.2921 -0.0230
  755MOL0     C 1809   9.095   4.768   4.971  0.0446 -0.5203  0.7585
  755MOL0     C 1810   9.069   4.856   4.844  0.3915 -0.2861  0.1187
  755MOL0     C 1811   9.164   4.836   4.721 -0.2790  0.3837 -0.5440
  755MOL0     C 1812   9.294   4.918   4.754 -0.2519 -0.1839  0.1680
  755MOL0     C 1813   9.388   4.830   4.842 -0.0336 -0.2454 -0.1382
  755MOL0     O 1814   9.499   4.910   4.880 -0.4480 -0.7870  0.5084
  755MOL0     C 1815   9.611   4.908   4.793  0.8750  0.2964 -0.7663
  755MOL0     C 1816   9.618   4.849   4.662  0.9310 -0.4129 -0.4705
  755MOL0     C 1817   9.734   4.861   4.589  0.2681  0.0442 -0.5867
  755MOL0     C 1818   9.851   4.921   4.643 -0.5370 -0.2502 -0.3540
  755MOL0     C 1819   9.977   4.926   4.567  0.5736 -1.7834  0.1612
  755MOL0     O 1820  10.071   5.014   4.625 -0.0679  0.5767 -0.2961
  755MOL0     C 1821  10.196   5.033   4.580  1.0333  0.1674  0.9899
  755MOL0     C 1822  10.267   5.134   4.640 -0.4021  0.0127  0.2283
  755MOL0     C 1823  10.395   5.163   4.596  0.2496 -0.5767 -1.0404
  755MOL0     C 1824  10.458   5.099   4.491  0.6854 -0.5120  1.0867
  755MOL0     O 1825  10.580   5.144   4.443  0.2210 -1.2135  0.3039
  755MOL0     C 1826  10.658   5.080   4.350  0.1875 -0.4850 -0.0133
  755MOL0     C 1827  10.797   5.136   4.366  0.1804 -0.0266 -0.8373
  755MOL0     C 1828  10.876   5.093   4.256 -0.5045  0.4246 -0.2664
  755MOL0     C 1829  11.021   5.139   4.284 -0.7260  0.0949 -0.7389
  755MOL0     C 1830  11.115   5.119   4.147 -0.2313  0.5870 -0.3616
  755MOL0     C 1831  11.257   5.169   4.167 -1.0821 -0.4368 -0.0023
  755MOL0     C 1832  11.283   5.294   4.245  1.1884 -1.0782 -0.4311
  755MOL0     C 1833  11.427   5.319   4.277  0.0335  0.3879  0.4181
  755MOL0    Cl 1834  11.499   5.395   4.137 -0.2893  0.0072 -0.2829
  755MOL0     C 1835  10.393   4.990   4.435  0.0460 -0.5043  0.8654
  755MOL0     C 1836  10.263   4.956   4.473 -0.0509  0.1180  0.2047
  755MOL0     O 1837   9.978   4.879   4.451 -0.4837 -0.8688 -0.0496
  755MOL0     C 1838   9.845   4.973   4.773  0.0223 -1.3417 -0.5234
  755MOL0     C 1839   9.724   4.962   4.846  0.1009 -0.2213 -0.3423
  755MOL0     N 1840   9.078   4.631   4.989 -0.1519  0.0485 -0.4715
  755MOL0     N 1841   9.097   4.599   5.110  0.3295  0.5600  0.6454
  755MOL0     C 1842   8.102   4.569   5.649  0.2568  0.2259 -0.7052
  755MOL0     C 1843   7.985   4.540   5.567 -0.7116 -0.0085  0.2123
  755MOL0     C 1844   7.742   4.504   5.162 -0.2049 -0.4799  0.2991
  755MOL0     C 1845   7.662   4.404   5.210 -0.4702  0.0189 -0.1193
  755MOL0     C 1846   7.545   4.372   5.157 -0.2364  0.5732  0.3809
  755MOL0     C 1847   7.496   4.446   5.047 -0.0050  0.4871  0.4109
  755MOL0     O 1848   7.382   4.406   4.998 -0.0166 -0.2985  0.1067
  755MOL0     C 1849   7.381   4.375   4.858  0.3069  0.3131 -0.2794
  755MOL0     C 1850   7.238   4.340   4.814 -0.2675  0.3273  0.1343
  755MOL0     C 1851   7.183   4.206   4.862  1.8048 -0.1036 -0.4829
  755MOL0     C 1852   7.175   4.182   5.016  0.6800  0.1654 -0.3379
  755MOL0     C 1853   7.132   4.044   5.048 -0.0057 -0.3167  0.0648
  755MOL0     C 1854   7.105   3.933   5.079  0.4443  0.2544 -0.2486
  755MOL0     C 1855   7.575   4.544   4.985 -0.3887  0.2433 -0.7752
  755MOL0     C 1856   7.698   4.570   5.046 -0.0386  0.0222 -0.3914
  755MOL0     C 1857   7.772   4.685   4.980 -0.0601 -0.4054 -0.3044
  755MOL0     H 1858   8.165   4.433   5.292  1.5239 -0.7463  1.3098
  755MOL0     H 1859   8.345   4.496   5.420 -1.5548  0.1840 -2.5203
  755MOL0     H 1860   8.336   4.757   5.650 -1.7643  0.6399  0.9665
  755MOL0     H 1861   8.293   4.708   5.813 -0.9839 -0.3775 -1.4426
  755MOL0     H 1862   8.540   4.658   5.863  0.0237  2.0640  1.1285
  755MOL0     H 1863   8.521   4.819   5.794  2.5079 -0.6861  1.4756
  755MOL0     H 1864   8.547   4.724   5.559  0.1366 -1.1664 -1.3478
  755MOL0     H 1865   8.589   4.570   5.630  0.8490 -0.1352  2.9323
  755MOL0     H 1866   8.734   4.831   5.707  0.4166 -0.2998  0.3615
  755MOL0     H 1867   8.777   4.654   5.741 -1.7096 -1.9517 -1.6136
  755MOL0     H 1868   8.757   4.625   5.492  0.2784  0.0869  0.6991
  755MOL0     H 1869   8.751   4.795   5.464 -2.7581 -1.0169 -0.0595
  755MOL0     H 1870   8.992   4.795   5.554  3.4624 -2.1715  0.8251
  755MOL0     H 1871   8.972   4.616   5.569 -0.7566  2.5831  3.3699
  755MOL0     H 1872   8.911   4.759   5.302 -2.6755 -1.2852  0.9253
  755MOL0     H 1873   8.952   4.597   5.325 -1.5069  0.5101 -0.2992
  755MOL0     H 1874   9.156   4.828   5.352  2.1106 -1.1802  0.8692
  755MOL0     H 1875   9.203   4.663   5.356  0.0018  1.4472  1.8111
  755MOL0     H 1876   9.115   4.929   5.118 -3.5969 -1.2816  0.5517
  755MOL0     H 1877   8.971   4.820   4.812  0.1662  1.5292 -1.4187
  755MOL0     H 1878   9.064   4.962   4.871  1.2771 -0.7306  2.2361
  755MOL0     H 1879   9.178   4.728   4.711  0.4075  0.5436 -1.3179
  755MOL0     H 1880   9.126   4.876   4.626 -0.6728  3.0806  0.6567
  755MOL0     H 1881   9.268   5.007   4.811  0.3316  1.8356 -2.5521
  755MOL0     H 1882   9.356   4.957   4.673  1.5776 -0.5829  1.3155
  755MOL0     H 1883   9.423   4.739   4.792  0.0990 -0.4599  0.3379
  755MOL0     H 1884   9.338   4.797   4.934  1.9827 -0.3807  0.9767
  755MOL0     H 1885   9.530   4.802   4.619  0.0278 -0.2130  1.1035
  755MOL0     H 1886   9.732   4.819   4.489  1.1838 -0.1895 -0.5132
  755MOL0     H 1887  10.220   5.187   4.722  1.8843  1.0480  0.9284
  755MOL0     H 1888  10.427   5.255   4.645 -0.0264 -0.5683 -0.8723
  755MOL0     H 1889  10.664   4.973   4.369 -0.1274 -0.4362  0.3762
  755MOL0     H 1890  10.608   5.103   4.255  1.5828  2.8963 -0.0902
  755MOL0     H 1891  10.789   5.245   4.365 -0.1296 -0.0473 -1.8535
  755MOL0     H 1892  10.839   5.104   4.462 -2.7666 -2.5185 -0.1988
  755MOL0     H 1893  10.869   4.984   4.258 -4.0990  0.5565  1.5234
  755MOL0     H 1894  10.847   5.132   4.158 -1.3656  2.5111  0.7605
  755MOL0     H 1895  11.055   5.076   4.367  0.0870 -0.2142 -1.2815
  755MOL0     H 1896  11.009   5.244   4.310 -1.3638  0.0001 -0.6500
  755MOL0     H 1897  11.070   5.175   4.064 -0.3882  0.8509 -0.0997
  755MOL0     H 1898  11.105   5.015   4.115 -1.6910  0.8783 -0.9436
  755MOL0     H 1899  11.318   5.089   4.210 -0.3212 -0.2020 -0.6163
  755MOL0     H 1900  11.291   5.199   4.068 -0.8459 -0.7474 -0.0151
  755MOL0     H 1901  11.237   5.285   4.344  2.3869  0.1418  0.2727
  755MOL0     H 1902  11.231   5.375   4.193  2.7875  1.2590  1.3886
  755MOL0     H 1903  11.445   5.381   4.365  2.3501  0.9020 -0.3348
  755MOL0     H 1904  11.476   5.224   4.301 -1.8165 -0.3622  1.3835
  755MOL0     H 1905  10.429   4.932   4.351 -1.7347 -0.8632  0.3198
  755MOL0     H 1906  10.214   4.869   4.430 -2.3282  0.1289  2.5229
  755MOL0     H 1907   9.930   5.023   4.817 -0.8747 -0.2405  0.0176
  755MOL0     H 1908   9.724   5.008   4.944  0.0271 -2.4379  0.7614
  755MOL0     H 1909   8.092   4.599   5.753  0.9233 -3.1669  0.4843
  755MOL0     H 1910   7.881   4.556   5.593 -0.4565 -2.5782  3.5137
  755MOL0     H 1911   7.701   4.350   5.295  1.9804  1.4635 -0.2401
  755MOL0     H 1912   7.489   4.289   5.200  0.3574  0.1906  0.4152
  755MOL0     H 1913   7.443   4.290   4.828 -0.1339  1.0710 -3.7650
  755MOL0     H 1914   7.421   4.456   4.795  2.4660  0.2766  0.9355
  755MOL0     H 1915   7.237   4.337   4.705  1.6545 -1.6754  0.1098
  755MOL0     H 1916   7.165   4.415   4.846 -0.4151  1.9615 -3.5489
  755MOL0     H 1917   7.244   4.125   4.819 -0.5120 -2.1880 -0.1197
  755MOL0     H 1918   7.084   4.184   4.820 -1.2227  1.5455  4.9161
  755MOL0     H 1919   7.276   4.194   5.057 -0.1207  0.0156  1.7918
  755MOL0     H 1920   7.115   4.252   5.075 -1.4836 -2.9734  1.4554
  755MOL0     H 1921   7.092   3.833   5.116 -3.1957  1.1710  1.3442
  755MOL0     H 1922   7.554   4.596   4.892  1.6946  1.7300 -0.4886
  755MOL0     H 1923   7.804   4.761   5.051 -0.8600 -0.7566  0.4444
  755MOL0     H 1924   7.862   4.651   4.927 -0.3014  1.3752 -1.9939
  755MOL0     H 1925   7.717   4.734   4.899  1.2312 -0.0316 -0.9830
  756MOL0     O 1926   6.102   7.253  10.234 -0.5812 -0.7176 -0.4966
  756MOL0     C 1927   5.993   7.314  10.226  0.9431  0.0444 -0.0718
  756MOL0     O 1928   5.964   7.416  10.141  0.0674  0.1847  0.0480
  756MOL0     C 1929   6.057   7.503  10.080 -0.2272  0.2789 -0.2173
  756MOL0     C 1930   6.187   7.531  10.142  0.2599  0.3973  0.0240
  756MOL0     C 1931   6.279   7.622  10.079  0.1182  0.2346  0.5758
  756MOL0     C 1932   6.252   7.663   9.946 -0.2228  0.2570 -0.0773
  756MOL0     O 1933   6.321   7.757   9.886  0.6127  0.3158  0.8249
  756MOL0     C 1934   6.425   7.817   9.955  0.2309  0.7080 -0.1194
  756MOL0     C 1935   6.490   7.910   9.861 -0.0669 -0.7670 -0.8866
  756MOL0     C 1936   6.565   7.861   9.741 -0.5162  0.4538  1.2658
  756MOL0     C 1937   6.461   7.813   9.631 -0.0478 -0.4243 -0.1406
  756MOL0     C 1938   6.512   7.799   9.489 -0.0738 -0.3681 -1.2692
  756MOL0     C 1939   6.626   7.704   9.483  0.3134 -0.3072 -0.5762
  756MOL0     C 1940   6.678   7.680   9.337  0.4539  0.2645 -0.4540
  756MOL0     C 1941   6.776   7.791   9.280  0.0811  0.6813  0.0236
  756MOL0     N 1942   6.904   7.769   9.342  1.0847 -0.1796 -0.1812
  756MOL0     C 1943   7.014   7.688   9.294  0.1107 -0.2474 -0.1171
  756MOL0     C 1944   7.107   7.696   9.397  0.7778 -0.2808  0.3686
  756MOL0     C 1945   7.250   7.644   9.379 -0.9877 -0.2142 -0.3656
  756MOL0     C 1946   7.345   7.768   9.371 -0.0339  0.0587  0.9581
  756MOL0     C 1947   7.491   7.733   9.328 -0.3286  0.4451  0.0277
  756MOL0     C 1948   7.599   7.840   9.357 -0.2113 -0.5538 -0.7727
  756MOL0     O 1949   7.604   7.856   9.497  0.8067  0.0961  0.4072
  756MOL0     C 1950   7.705   7.925   9.554  0.6304  0.9039 -0.6925
  756MOL0     C 1951   7.732   7.897   9.684 -0.2103  0.6864 -0.1705
  756MOL0     C 1952   7.825   7.979   9.764  0.0819  0.1599  0.1690
  756MOL0     C 1953   7.892   8.081   9.705  0.0490 -0.2908  0.1766
  756MOL0     C 1954   7.985   8.157   9.787  0.6599  1.0575  0.6812
  756MOL0     O 1955   8.082   8.227   9.713 -0.8499  0.4628 -0.9436
  756MOL0     C 1956   8.196   8.263   9.785 -0.2059 -0.0521  0.8276
  756MOL0     C 1957   8.199   8.367   9.880 -0.2068 -0.2997  0.3158
  756MOL0     C 1958   8.328   8.422   9.908 -0.9825 -0.7011 -0.8432
  756MOL0     C 1959   8.451   8.362   9.868  0.2684  0.3491  0.7533
  756MOL0     O 1960   8.571   8.429   9.897  0.0369 -0.4587  0.3252
  756MOL0     C 1961   8.701   8.365   9.874 -0.1992 -0.1399 -0.5277
  756MOL0     C 1962   8.741   8.410   9.736 -0.0778 -0.1126 -0.6537
  756MOL0     C 1963   8.862   8.343   9.678 -0.2237  0.4268 -0.0957
  756MOL0     C 1964   8.995   8.405   9.744 -0.0616 -0.4649 -0.5377
  756MOL0     C 1965   9.115   8.334   9.691 -0.3332  0.3819 -0.5104
  756MOL0     C 1966   9.247   8.374   9.750 -0.0977 -0.6795  0.4097
  756MOL0     C 1967   9.354   8.267   9.717  0.1091 -0.1400  0.8874
  756MOL0     C 1968   9.492   8.327   9.716 -1.2282 -0.0354  0.5958
  756MOL0    Cl 1969   9.529   8.432   9.574  0.3548  0.3014  0.1552
  756MOL0     C 1970   8.438   8.245   9.785  0.0726  0.3132  0.2721
  756MOL0     C 1971   8.310   8.204   9.746  1.1092 -0.1415 -0.1275
  756MOL0     O 1972   7.979   8.145   9.912 -0.0043  1.0571  0.3769
  756MOL0     C 1973   7.868   8.103   9.560 -0.8164 -0.9942 -0.1416
  756MOL0     C 1974   7.784   8.022   9.495  0.4256 -0.5204 -0.6649
  756MOL0     N 1975   7.059   7.769   9.504 -0.0965 -0.2944  0.1786
  756MOL0     N 1976   6.940   7.805   9.469  0.2542  0.2708 -1.0401
  756MOL0     C 1977   6.126   7.630   9.888  0.4217  0.6134 -0.8409
  756MOL0     C 1978   6.028   7.553   9.959 -0.1866 -0.6253 -0.7372
  756MOL0     C 1979   5.877   7.260  10.304 -0.6696  0.7378  1.2391
  756MOL0     C 1980   5.749   7.326  10.291  0.3833  1.7871  0.0135
  756MOL0     C 1981   5.625   7.266  10.336  0.0467 -0.5428 -0.2667
  756MOL0     C 1982   5.630   7.148  10.412  0.4777  0.7986 -0.0383
  756MOL0     O 1983   5.518   7.093  10.470 -0.5066 -0.1038 -0.0763
  756MOL0     C 1984   5.398   7.171  10.481  0.5468 -0.3370  0.4738
  756MOL0     C 1985   5.292   7.126  10.390  0.2045 -0.5720  0.4118
  756MOL0     C 1986   5.159   7.198  10.437 -0.1322  0.2705  0.8066
  756MOL0     C 1987   5.036   7.161  10.351 -0.1505 -0.2055 -0.0899
  756MOL0     C 1988   5.029   7.222  10.220  0.0774  0.5836  1.0171
  756MOL0     C 1989   5.010   7.293  10.121 -0.1859  0.4227  0.0211
  756MOL0     C 1990   5.747   7.081  10.432 -1.2255  0.1142  0.6774
  756MOL0     C 1991   5.866   7.129  10.370 -0.7808  0.0486  0.0965
  756MOL0     C 1992   5.989   7.041  10.372 -0.1678  0.7071  0.3669
  756MOL0     H 1993   6.212   7.496  10.241 -0.9224 -3.6309 -0.9137
  756MOL0     H 1994   6.370   7.641  10.134 -0.1522  0.3352  0.9950
  756MOL0     H 1995   6.393   7.869  10.046 -1.8242  0.3927 -0.6190
  756MOL0     H 1996   6.493   7.737   9.985 -2.6825 -2.6030 -1.6196
  756MOL0     H 1997   6.565   7.967   9.917  0.2475 -1.9524 -0.0474
  756MOL0     H 1998   6.407   7.975   9.833 -2.8603 -2.7320  2.0524
  756MOL0     H 1999   6.643   7.788   9.766  1.8085  1.8717 -1.2017
  756MOL0     H 2000   6.614   7.940   9.683  0.5174 -0.7724  0.4157
  756MOL0     H 2001   6.414   7.717   9.657 -0.0142 -0.2679  0.5086
  756MOL0     H 2002   6.379   7.884   9.637  2.2624  2.3602  4.2494
  756MOL0     H 2003   6.425   7.769   9.430 -1.7258  0.3920  0.6607
  756MOL0     H 2004   6.555   7.892   9.451  2.9822 -1.5001 -0.8628
  756MOL0     H 2005   6.704   7.739   9.551  0.7702 -1.4580 -0.4840
  756MOL0     H 2006   6.587   7.615   9.533 -3.5877  0.5785 -1.7367
  756MOL0     H 2007   6.591   7.668   9.272  0.9323  0.9331 -1.2417
  756MOL0     H 2008   6.734   7.587   9.334 -0.2704 -0.2705  1.4305
  756MOL0     H 2009   6.798   7.793   9.173  1.6330  1.3619  0.3350
  756MOL0     H 2010   6.751   7.894   9.308 -1.6848  0.0820  0.8107
  756MOL0     H 2011   7.031   7.640   9.198  1.8502  2.9354 -1.5717
  756MOL0     H 2012   7.275   7.587   9.468  0.7657  1.5574  0.3508
  756MOL0     H 2013   7.256   7.580   9.290  0.6107 -2.1422  1.0504
  756MOL0     H 2014   7.317   7.836   9.290 -0.3899 -0.9149  0.2341
  756MOL0     H 2015   7.338   7.824   9.464  0.0743  2.9378 -0.6453
  756MOL0     H 2016   7.509   7.704   9.224 -0.5187 -0.2097  0.1731
  756MOL0     H 2017   7.517   7.637   9.375  2.7264  0.5181 -1.2770
  756MOL0     H 2018   7.571   7.938   9.318 -3.5504 -1.2481 -0.4766
  756MOL0     H 2019   7.699   7.808   9.327  2.0762  2.9242  2.3653
  756MOL0     H 2020   7.678   7.823   9.741  1.9177 -0.1328  0.8689
  756MOL0     H 2021   7.843   7.956   9.869  0.8259 -0.0655 -0.0067
  756MOL0     H 2022   8.112   8.426   9.905  0.1763 -0.0645  1.1353
  756MOL0     H 2023   8.338   8.519   9.956  3.9213 -2.0230  1.4763
  756MOL0     H 2024   8.778   8.406   9.941  1.9079 -1.5793 -1.9344
  756MOL0     H 2025   8.696   8.258   9.894  0.1641  0.0915  0.9744
  756MOL0     H 2026   8.658   8.386   9.669  0.2649 -1.8972 -0.4899
  756MOL0     H 2027   8.757   8.518   9.733 -0.7278 -0.0342 -1.7595
  756MOL0     H 2028   8.862   8.234   9.691  1.8983  0.2043 -1.4309
  756MOL0     H 2029   8.865   8.365   9.571  2.1474 -0.7013 -0.3400
  756MOL0     H 2030   8.981   8.392   9.851 -5.6343  1.0981 -0.7759
  756MOL0     H 2031   9.018   8.511   9.727  2.1407 -0.2719  2.8392
  756MOL0     H 2032   9.118   8.346   9.582  2.1564 -1.4756 -0.7465
  756MOL0     H 2033   9.103   8.228   9.716  1.2596  0.4350  0.6813
  756MOL0     H 2034   9.273   8.479   9.738  0.0770 -0.7028  0.5888
  756MOL0     H 2035   9.253   8.365   9.859  0.1612 -1.2158  0.3546
  756MOL0     H 2036   9.333   8.223   9.619  0.4294  1.5589  0.0076
  756MOL0     H 2037   9.349   8.179   9.782  0.2923 -1.8908 -1.3243
  756MOL0     H 2038   9.511   8.379   9.810  0.5137  0.4002  0.0367
  756MOL0     H 2039   9.557   8.239   9.714 -1.7127 -0.3976 -0.8964
  756MOL0     H 2040   8.523   8.200   9.735  2.2139  1.1356  2.9263
  756MOL0     H 2041   8.308   8.128   9.669 -2.5441 -0.5722  0.1794
  756MOL0     H 2042   7.921   8.186   9.513  1.7639 -1.0910  2.3060
  756MOL0     H 2043   7.770   8.038   9.388  0.1853 -1.1739 -0.7342
  756MOL0     H 2044   6.088   7.674   9.796  0.4904  0.1752 -1.0835
  756MOL0     H 2045   5.922   7.548   9.934 -1.1534  0.4940  2.6473
  756MOL0     H 2046   5.741   7.425  10.247 -0.1179  1.2161 -1.2421
  756MOL0     H 2047   5.529   7.314  10.316 -0.1046  0.1788  2.0098
  756MOL0     H 2048   5.413   7.279  10.472 -0.4244 -0.2142  0.1463
  756MOL0     H 2049   5.354   7.158  10.581 -3.0002 -0.2900 -0.9234
  756MOL0     H 2050   5.297   7.017  10.394  0.9269 -0.5362  0.6069
  756MOL0     H 2051   5.329   7.159  10.292  2.0516 -0.8068  0.9970
  756MOL0     H 2052   5.173   7.305  10.453 -0.3297  0.3710  0.3224
  756MOL0     H 2053   5.136   7.151  10.533  1.2452 -0.4624  0.8094
  756MOL0     H 2054   5.030   7.052  10.346  0.4651 -0.4549  2.8434
  756MOL0     H 2055   4.943   7.195  10.396 -0.3691 -3.8441  2.6567
  756MOL0     H 2056   4.978   7.349  10.035  3.0471  3.7728  0.7947
  756MOL0     H 2057   5.746   6.994  10.497 -1.1683  0.2253  0.8286
  756MOL0     H 2058   6.021   7.016  10.271 -2.9334  0.6731 -0.5798
  756MOL0     H 2059   6.064   7.083  10.439  0.5706 -0.9614  0.6436
  756MOL0     H 2060   5.955   6.946  10.417  1.5841 -1.0420 -1.7670
  757MOL0     O 2061   7.313   0.141   2.158  0.0650  0.8649  0.2476
  757MOL0     C 2062   7.299   0.145   2.280 -0.1644  0.0391  0.4644
  757MOL0     O 2063   7.182   0.136   2.345  0.1366  0.2637 -0.7092
  757MOL0     C 2064   7.060   0.178   2.296 -0.2505 -1.6175 -0.0027
  757MOL0     C 2065   7.031   0.261   2.184  0.4730  0.0930 -0.8662
  757MOL0     C 2066   6.895   0.295   2.150  0.4243 -0.6796  0.1840
  757MOL0     C 2067   6.794   0.260   2.238  0.0275 -1.0377  0.8445
  757MOL0     O 2068   6.660   0.289   2.207  0.9230 -0.0640 -0.3801
  757MOL0     C 2069   6.624   0.344   2.075 -0.6890  0.0805  0.6152
  757MOL0     C 2070   6.479   0.303   2.069  0.8208 -0.3379  0.9269
  757MOL0     C 2071   6.410   0.338   1.943  0.3817  0.2526  0.1367
  757MOL0     C 2072   6.265   0.297   1.940 -0.4508  0.5509 -0.4539
  757MOL0     C 2073   6.186   0.337   1.815  0.4060  0.0928 -0.6237
  757MOL0     C 2074   6.222   0.253   1.688  0.3219 -1.0110  0.4130
  757MOL0     C 2075   6.123   0.250   1.574  0.1466  0.0408  0.4089
  757MOL0     C 2076   6.051   0.383   1.546  0.4117 -0.6456  0.6980
  757MOL0     N 2077   6.131   0.485   1.474 -0.7711  1.1033  0.3853
  757MOL0     C 2078   6.169   0.474   1.341 -0.0958  0.0254  0.1528
  757MOL0     C 2079   6.269   0.568   1.327 -0.7140  0.1163 -0.1982
  757MOL0     C 2080   6.347   0.594   1.200  0.0818  0.0034 -0.3571
  757MOL0     C 2081   6.493   0.643   1.221 -0.3387 -0.8317 -0.0303
  757MOL0     C 2082   6.586   0.537   1.274 -0.9050  0.3939 -0.4697
  757MOL0     C 2083   6.735   0.579   1.258  0.3396  0.2618 -0.4186
  757MOL0     O 2084   6.804   0.473   1.310 -0.0319  0.2042  0.4091
  757MOL0     C 2085   6.930   0.433   1.278 -0.1016 -0.0853 -0.5662
  757MOL0     C 2086   6.985   0.324   1.340  0.0202  0.2296  0.3909
  757MOL0     C 2087   7.105   0.276   1.298  0.4576  0.8349 -0.1410
  757MOL0     C 2088   7.189   0.343   1.211 -0.3453 -0.2129  0.0489
  757MOL0     C 2089   7.323   0.283   1.169  0.0719 -0.5333 -0.5113
  757MOL0     O 2090   7.354   0.153   1.191 -0.2608  0.2161  0.2490
  757MOL0     C 2091   7.471   0.108   1.125  0.6732 -0.1089  0.0483
  757MOL0     C 2092   7.577   0.058   1.197 -0.1258 -0.1516  0.5135
  757MOL0     C 2093   7.685   0.010   1.131 -0.5714 -0.1157 -0.0637
  757MOL0     C 2094   7.705   0.037   1.003  0.9628  0.2669  0.0523
  757MOL0     O 2095   7.824   0.005   0.957  0.7766 -0.0713 -0.2968
  757MOL0     C 2096   7.858   0.069   0.834 -0.6274  0.5799 -0.4341
  757MOL0     C 2097   8.006   0.051   0.787 -1.3593 -0.9917  0.1053
  757MOL0     C 2098   8.042   0.138   0.666  1.0517  0.4035  0.4879
  757MOL0     C 2099   8.186   0.110   0.611 -0.7800 -1.0236  0.7334
  757MOL0     C 2100   8.223   0.211   0.502  0.1733  1.0181 -0.2377
  757MOL0     C 2101   8.377   0.203   0.462 -0.0026  0.5697  0.6408
  757MOL0     C 2102   8.470   0.223   0.563  0.5058 -0.3115  0.2223
  757MOL0     C 2103   8.611   0.274   0.520 -0.7713  0.1681 -0.4313
  757MOL0    Cl 2104   8.600   0.433   0.433  0.0814 -0.3398  0.2482
  757MOL0     C 2105   7.599   0.075   0.925 -0.0861 -0.0966 -0.1756
  757MOL0     C 2106   7.474   0.110   0.980 -0.7957  0.8385 -0.3219
  757MOL0     O 2107   7.401   0.368   1.129 -0.1937  0.0181 -0.1091
  757MOL0     C 2108   7.150   0.478   1.174  0.0794  0.4582  0.1274
  757MOL0     C 2109   7.015   0.515   1.204  0.1078  0.1736  0.7951
  757MOL0     N 2110   6.281   0.643   1.442 -0.6369 -0.1218 -0.2741
  757MOL0     N 2111   6.202   0.587   1.530  0.3201 -0.0395 -0.1707
  757MOL0     C 2112   6.823   0.179   2.348 -0.2491  0.1580  0.1169
  757MOL0     C 2113   6.949   0.139   2.376  0.2997 -0.2099  0.3089
  757MOL0     C 2114   7.420   0.115   2.366  0.6248  0.0834  0.7204
  757MOL0     C 2115   7.552   0.115   2.309  0.1420  0.1870 -0.6088
  757MOL0     C 2116   7.671   0.100   2.381 -0.1853 -0.3524 -0.8766
  757MOL0     C 2117   7.663   0.070   2.515 -0.1956  0.5361 -0.0274
  757MOL0     O 2118   7.788   0.040   2.573  0.3297  0.2039 -1.1047
  757MOL0     C 2119   7.796   0.061   2.709  0.3793 -0.5207 -0.3679
  757MOL0     C 2120   7.924   0.001   2.759 -0.4815  0.3486  0.5136
  757MOL0     C 2121   8.041   0.073   2.687 -0.4368 -0.3232  0.2842
  757MOL0     C 2122   8.178   0.033   2.752 -0.4062 -0.2326  0.2901
  757MOL0     C 2123   8.204   0.085   2.884  0.3973 -0.5252  0.4202
  757MOL0     C 2124   8.234   0.140   2.987 -0.1457 -0.1960  0.3778
  757MOL0     C 2125   7.536   0.059   2.575 -0.5173 -0.5998 -0.1432
  757MOL0     C 2126   7.419   0.089   2.508  0.6987 -0.0340  1.1198
  757MOL0     C 2127   7.290   0.074   2.594 -0.1837  1.3191  0.5990
  757MOL0     H 2128   7.109   0.280   2.111  2.3426 -0.9252  0.7935
  757MOL0     H 2129   6.876   0.343   2.055 -1.1282 -0.6874  0.4708
  757MOL0     H 2130   6.643   0.451   2.072 -1.5957  0.2958  1.8264
  757MOL0     H 2131   6.677   0.290   1.995  1.9148  1.5196  1.2423
  757MOL0     H 2132   6.431   0.368   2.144 -3.0378 -0.8257 -0.9024
  757MOL0     H 2133   6.469   0.197   2.094  0.8136 -1.3031 -2.6631
  757MOL0     H 2134   6.472   0.300   1.861  1.2575  1.8900  0.0057
  757MOL0     H 2135   6.415   0.446   1.928 -0.9773  0.1304 -1.4565
  757MOL0     H 2136   6.253   0.190   1.957 -1.7354  0.9026  1.0688
  757MOL0     H 2137   6.221   0.343   2.028  1.6528  0.4932  0.6968
  757MOL0     H 2138   6.078   0.328   1.831 -0.2735  0.4489 -4.1317
  757MOL0     H 2139   6.205   0.442   1.792 -1.1666  0.3198 -1.0419
  757MOL0     H 2140   6.320   0.289   1.656 -0.0399 -0.3768  0.0070
  757MOL0     H 2141   6.242   0.152   1.725  1.5333 -0.3428  1.6495
  757MOL0     H 2142   6.062   0.165   1.606  2.2433 -1.1323  1.4598
  757MOL0     H 2143   6.180   0.218   1.486 -1.1478  0.8274 -0.7591
  757MOL0     H 2144   5.961   0.374   1.484 -0.0886  3.3136  0.5477
  757MOL0     H 2145   6.014   0.431   1.637  0.6990  1.1588 -0.0703
  757MOL0     H 2146   6.130   0.408   1.264 -2.0122  1.1102  0.1111
  757MOL0     H 2147   6.360   0.505   1.139 -0.6144 -2.0665  2.2874
  757MOL0     H 2148   6.300   0.671   1.139  2.0211  1.1438 -0.4867
  757MOL0     H 2149   6.530   0.672   1.122  2.0585  0.0526  1.0415
  757MOL0     H 2150   6.484   0.730   1.286  1.5358 -1.0447  0.5783
  757MOL0     H 2151   6.568   0.442   1.221 -1.9564  1.3873 -1.9833
  757MOL0     H 2152   6.577   0.524   1.382  1.2426 -0.0510 -0.3108
  757MOL0     H 2153   6.750   0.671   1.316  0.6382  0.8158 -1.3453
  757MOL0     H 2154   6.764   0.596   1.154 -1.0488 -2.0631 -1.2558
  757MOL0     H 2155   6.925   0.277   1.418  2.4166 -0.2476  2.0580
  757MOL0     H 2156   7.130   0.174   1.325 -0.1034  0.1089 -2.1697
  757MOL0     H 2157   7.583   0.049   1.305  3.2943 -2.2838  0.2952
  757MOL0     H 2158   7.761  -0.050   1.180  1.2012  1.1557 -1.1361
  757MOL0     H 2159   7.791   0.026   0.759  1.3631 -3.3920 -0.1916
  757MOL0     H 2160   7.841   0.176   0.847  0.2868  1.1015 -2.9484
  757MOL0     H 2161   8.068   0.064   0.876 -0.7903 -0.2326 -0.3916
  757MOL0     H 2162   8.024  -0.053   0.758  1.2579  0.2348 -3.3929
  757MOL0     H 2163   7.974   0.124   0.581  2.7137 -1.2000 -0.6430
  757MOL0     H 2164   8.022   0.239   0.704  1.2850  0.3860  0.6628
  757MOL0     H 2165   8.204   0.013   0.564  1.3100 -0.5917  0.5232
  757MOL0     H 2166   8.258   0.122   0.693  2.0998 -0.2031 -1.7053
  757MOL0     H 2167   8.187   0.309   0.535 -2.3847  0.0591  0.0617
  757MOL0     H 2168   8.157   0.173   0.424 -2.4178 -3.9248  3.7883
  757MOL0     H 2169   8.389   0.105   0.416  1.3695 -0.2864  2.6652
  757MOL0     H 2170   8.394   0.282   0.388  0.5641 -0.5072 -0.4013
  757MOL0     H 2171   8.477   0.129   0.619 -0.1846  0.8920  2.4199
  757MOL0     H 2172   8.417   0.288   0.633  0.5910  0.2318 -0.2129
  757MOL0     H 2173   8.680   0.286   0.605  0.5459 -0.5014 -1.3694
  757MOL0     H 2174   8.659   0.202   0.453  1.3070  1.4595 -0.4313
  757MOL0     H 2175   7.612   0.073   0.818 -1.3190 -0.3977 -0.3289
  757MOL0     H 2176   7.392   0.138   0.914 -0.7630 -1.0006 -1.1836
  757MOL0     H 2177   7.211   0.553   1.123 -0.5602  2.1076  1.6567
  757MOL0     H 2178   6.989   0.616   1.177 -0.5546 -0.0747  0.4694
  757MOL0     H 2179   6.741   0.130   2.401 -0.2846  1.1935  1.0582
  757MOL0     H 2180   6.967   0.073   2.461  0.6338 -0.4654  0.0425
  757MOL0     H 2181   7.565   0.129   2.202  1.3989  0.0083 -0.4936
  757MOL0     H 2182   7.770   0.109   2.339  0.1877 -1.1336 -0.2023
  757MOL0     H 2183   7.716   0.014   2.767  0.2865 -2.6545 -2.1026
  757MOL0     H 2184   7.792   0.170   2.723 -0.6232 -0.6873  0.7532
  757MOL0     H 2185   7.923  -0.107   2.742  0.2765 -0.3206  4.0617
  757MOL0     H 2186   7.935   0.014   2.867  3.7550  0.5191  0.2420
  757MOL0     H 2187   8.029   0.181   2.690  1.5516 -0.0392 -0.0695
  757MOL0     H 2188   8.040   0.035   2.584 -3.8988 -2.1012  0.8476
  757MOL0     H 2189   8.176  -0.076   2.762 -0.0508 -0.0343  3.8875
  757MOL0     H 2190   8.264   0.062   2.692 -0.8096  0.1497 -0.1187
  757MOL0     H 2191   8.261   0.204   3.069 -0.7595  1.5119 -0.6969
  757MOL0     H 2192   7.527   0.035   2.681 -0.1557 -1.1829 -0.2448
  757MOL0     H 2193   7.227   0.163   2.592  0.0433  1.4928 -1.8527
  757MOL0     H 2194   7.257  -0.029   2.578  3.3863 -0.0868  1.2436
  757MOL0     H 2195   7.315   0.074   2.701  2.9213 -0.2069 -0.0047
  758MOL0     O 2196   2.449   8.188   3.885 -0.0971 -0.0730  0.1303
  758MOL0     C 2197   2.516   8.288   3.909 -0.0729  1.3896  0.8619
  758MOL0     O 2198   2.613   8.345   3.827 -0.1916  1.0480 -0.6237
  758MOL0     C 2199   2.688   8.264   3.753  0.3858 -0.1209 -0.0150
  758MOL0     C 2200   2.774   8.183   3.820 -0.4278  0.6417 -1.0957
  758MOL0     C 2201   2.878   8.116   3.744  0.4656  0.0748 -0.4747
  758MOL0     C 2202   2.897   8.139   3.614  0.0225  0.2099 -0.1678
  758MOL0     O 2203   2.991   8.077   3.537  0.0069 -0.2933  0.1566
  758MOL0     C 2204   3.061   7.963   3.572 -0.4314 -0.7327 -1.0547
  758MOL0     C 2205   3.127   7.894   3.454  0.6299 -0.6968  0.0206
  758MOL0     C 2206   3.232   7.788   3.494  0.0692 -0.3055 -0.2276
  758MOL0     C 2207   3.347   7.765   3.390 -0.6465  0.0432  0.1048
  758MOL0     C 2208   3.477   7.730   3.459 -0.4932 -0.0324  0.2198
  758MOL0     C 2209   3.593   7.727   3.357  0.0928  0.4480  0.2295
  758MOL0     C 2210   3.715   7.686   3.433 -0.3509  0.2175 -0.2215
  758MOL0     C 2211   3.833   7.725   3.350 -1.3134  0.7508  0.8287
  758MOL0     N 2212   3.955   7.686   3.416  0.0206  0.3269 -0.2068
  758MOL0     C 2213   3.990   7.709   3.550 -0.1385 -0.4149 -0.4730
  758MOL0     C 2214   4.112   7.653   3.566 -1.0873  0.1456  0.0463
  758MOL0     C 2215   4.204   7.653   3.688 -0.1869  0.6645 -0.2296
  758MOL0     C 2216   4.333   7.567   3.669 -0.2928  0.1111  0.0104
  758MOL0     C 2217   4.432   7.598   3.784 -0.3206 -0.2893 -0.6627
  758MOL0     C 2218   4.573   7.547   3.760  0.7762  0.2492 -0.7234
  758MOL0     O 2219   4.641   7.626   3.658  0.0579  0.5092 -0.5941
  758MOL0     C 2220   4.767   7.580   3.621  0.3297 -0.3928  0.2991
  758MOL0     C 2221   4.831   7.670   3.535 -0.9086  0.6244 -0.0191
  758MOL0     C 2222   4.972   7.659   3.517 -0.3979  0.6220  0.4467
  758MOL0     C 2223   5.044   7.552   3.573  0.2207  0.3249  0.1411
  758MOL0     C 2224   5.190   7.531   3.550  0.7015  0.3382 -0.9292
  758MOL0     O 2225   5.261   7.627   3.489  0.0832  0.2726 -0.0103
  758MOL0     C 2226   5.391   7.615   3.449 -0.5344  0.4588 -1.0216
  758MOL0     C 2227   5.497   7.581   3.540  0.2669 -0.2448 -0.9761
  758MOL0     C 2228   5.635   7.584   3.505  0.1892  0.2399 -0.2115
  758MOL0     C 2229   5.668   7.628   3.379  0.4300 -1.2605  0.6611
  758MOL0     O 2230   5.791   7.621   3.323 -0.1994  0.4551 -0.2534
  758MOL0     C 2231   5.835   7.697   3.204  0.8054 -0.4826  0.7991
  758MOL0     C 2232   5.979   7.696   3.202  0.0320 -0.9420  0.1241
  758MOL0     C 2233   6.040   7.559   3.186 -0.2119 -0.4173 -0.0882
  758MOL0     C 2234   6.084   7.522   3.040 -0.7942 -0.0922  0.0789
  758MOL0     C 2235   6.184   7.399   3.028  0.4133 -0.0410  0.2668
  758MOL0     C 2236   6.315   7.453   3.091  0.1675  1.1399  0.0215
  758MOL0     C 2237   6.424   7.348   3.091  0.2082 -0.2255  0.2170
  758MOL0     C 2238   6.556   7.422   3.114 -0.0910  0.0570 -0.5966
  758MOL0    Cl 2239   6.677   7.297   3.156 -0.4064  0.1487 -0.0110
  758MOL0     C 2240   5.564   7.655   3.284  1.1086 -0.3354 -0.6811
  758MOL0     C 2241   5.429   7.648   3.325 -0.4744  0.8484  0.1764
  758MOL0     O 2242   5.238   7.423   3.600 -1.0645 -0.1604 -0.6725
  758MOL0     C 2243   4.980   7.460   3.658  0.5319 -0.6444 -0.8167
  758MOL0     C 2244   4.840   7.474   3.678  0.2537  0.1560  0.1693
  758MOL0     N 2245   4.152   7.606   3.443  0.0824 -0.3134  0.6313
  758MOL0     N 2246   4.061   7.620   3.359  0.0528 -0.1503  0.6428
  758MOL0     C 2247   2.800   8.209   3.548 -0.2743  0.0723  0.1387
  758MOL0     C 2248   2.706   8.282   3.616  0.2708 -0.4082  0.3525
  758MOL0     C 2249   2.468   8.379   4.020  0.2482 -0.2346  0.2746
  758MOL0     C 2250   2.525   8.502   4.033 -0.2144 -0.4199 -0.3124
  758MOL0     C 2251   2.473   8.597   4.114  0.5763  0.1451 -0.4917
  758MOL0     C 2252   2.351   8.582   4.181 -0.5475  0.0925 -0.1227
  758MOL0     O 2253   2.290   8.665   4.262  0.1363 -0.2381 -0.0086
  758MOL0     C 2254   2.308   8.812   4.243 -0.0423  0.4773  0.1372
  758MOL0     C 2255   2.183   8.884   4.301 -0.0464 -0.4451  0.0332
  758MOL0     C 2256   2.204   8.895   4.455 -0.1160 -0.0073  0.0620
  758MOL0     C 2257   2.121   9.002   4.517 -0.4947  0.8820 -0.2919
  758MOL0     C 2258   2.191   9.125   4.564  0.4649  0.3205  0.7161
  758MOL0     C 2259   2.243   9.223   4.614  0.2593  0.6428  0.3239
  758MOL0     C 2260   2.297   8.454   4.171  0.8820 -0.2291  0.1608
  758MOL0     C 2261   2.350   8.348   4.091 -0.0046  0.8936  0.3894
  758MOL0     C 2262   2.287   8.208   4.113  0.2597 -0.2413 -0.1187
  758MOL0     H 2263   2.759   8.164   3.926  5.7771 -1.2694 -0.1668
  758MOL0     H 2264   2.938   8.042   3.795 -1.0140 -2.4043 -2.0886
  758MOL0     H 2265   3.128   7.986   3.655 -1.8143 -2.1473  0.5199
  758MOL0     H 2266   2.998   7.886   3.618  2.4776 -1.6033  1.8405
  758MOL0     H 2267   3.178   7.971   3.395  1.7058 -0.9700  0.5591
  758MOL0     H 2268   3.050   7.851   3.390 -0.3061 -0.7400  1.1436
  758MOL0     H 2269   3.174   7.696   3.502 -3.9201  1.8901 -1.3876
  758MOL0     H 2270   3.273   7.827   3.588 -1.3235  3.5753 -1.0239
  758MOL0     H 2271   3.307   7.700   3.312 -0.2130  1.4923 -1.3763
  758MOL0     H 2272   3.361   7.860   3.338 -2.1016  0.2958  0.1212
  758MOL0     H 2273   3.506   7.805   3.533 -0.6865 -1.6948  2.0557
  758MOL0     H 2274   3.476   7.629   3.502  1.6241  0.2988  1.1742
  758MOL0     H 2275   3.570   7.651   3.282 -1.8231  1.7019 -0.5091
  758MOL0     H 2276   3.599   7.827   3.314 -0.2140  1.1881  1.8191
  758MOL0     H 2277   3.711   7.579   3.455 -5.4283  0.4548  1.2480
  758MOL0     H 2278   3.720   7.744   3.526 -2.1699  0.7586 -0.4284
  758MOL0     H 2279   3.829   7.669   3.256 -0.4769  1.7204  0.1900
  758MOL0     H 2280   3.831   7.831   3.320 -2.5272  0.5078 -0.0281
  758MOL0     H 2281   3.920   7.761   3.614  1.7616  1.7699 -0.0538
  758MOL0     H 2282   4.231   7.757   3.709 -2.4576  1.4774 -1.0642
  758MOL0     H 2283   4.151   7.614   3.775  0.5021 -0.6542 -0.3762
  758MOL0     H 2284   4.312   7.461   3.651 -0.9441 -0.2298  2.4212
  758MOL0     H 2285   4.380   7.611   3.580 -1.8202 -0.0542 -0.9007
  758MOL0     H 2286   4.400   7.556   3.880  2.6633 -1.3947 -0.0460
  758MOL0     H 2287   4.433   7.706   3.800  1.2799 -0.5814  1.7062
  758MOL0     H 2288   4.571   7.440   3.741 -1.1071  0.0011  0.6437
  758MOL0     H 2289   4.626   7.559   3.855 -1.6368 -0.6411  0.8137
  758MOL0     H 2290   4.782   7.757   3.493  1.7338  1.6675 -1.2152
  758MOL0     H 2291   5.018   7.739   3.460 -0.7989  1.0013  0.6465
  758MOL0     H 2292   5.462   7.555   3.640 -3.6164 -2.2661 -2.6420
  758MOL0     H 2293   5.714   7.556   3.573 -2.1389  0.9569  3.0634
  758MOL0     H 2294   5.788   7.675   3.108  1.2241  1.4696  0.0979
  758MOL0     H 2295   5.816   7.802   3.225 -0.2267 -0.6557  0.7435
  758MOL0     H 2296   6.024   7.757   3.123  0.4652 -1.9266 -0.4157
  758MOL0     H 2297   6.020   7.742   3.293  2.0119 -0.7055 -0.8335
  758MOL0     H 2298   6.128   7.553   3.250  1.1925 -0.2309 -1.8969
  758MOL0     H 2299   5.969   7.489   3.231 -1.0793  1.2173  1.1603
  758MOL0     H 2300   6.129   7.611   2.995  0.0039  0.4229  1.8292
  758MOL0     H 2301   5.994   7.504   2.981 -0.4881 -0.0693 -0.4014
  758MOL0     H 2302   6.219   7.379   2.927  3.0911  2.5759  0.5229
  758MOL0     H 2303   6.135   7.315   3.078 -0.8654  1.6385  1.9832
  758MOL0     H 2304   6.337   7.545   3.037 -3.5671  1.7006 -0.8176
  758MOL0     H 2305   6.306   7.478   3.197  1.2989 -0.2050  0.4572
  758MOL0     H 2306   6.424   7.314   2.987 -0.3148 -3.3705  1.1272
  758MOL0     H 2307   6.400   7.277   3.171 -0.1280 -1.4896 -0.9656
  758MOL0     H 2308   6.577   7.486   3.028  0.0374  2.7328  1.3064
  758MOL0     H 2309   6.543   7.490   3.199 -0.0276 -1.5316  0.7357
  758MOL0     H 2310   5.593   7.678   3.182  1.4321  1.6003 -0.1851
  758MOL0     H 2311   5.357   7.681   3.251  1.4420  3.5749 -0.6403
  758MOL0     H 2312   5.042   7.383   3.701 -1.0242 -0.7753  1.3490
  758MOL0     H 2313   4.794   7.398   3.740  5.1630 -0.6795  3.3712
  758MOL0     H 2314   2.818   8.224   3.442  1.0933  0.6447  0.4265
  758MOL0     H 2315   2.631   8.331   3.556  1.8125  1.2651 -0.2983
  758MOL0     H 2316   2.617   8.517   3.976  0.1702 -2.4094 -0.3110
  758MOL0     H 2317   2.504   8.701   4.119 -1.1332  0.9755 -3.9122
  758MOL0     H 2318   2.333   8.832   4.139  2.1875 -5.5206 -0.8968
  758MOL0     H 2319   2.398   8.843   4.298  0.8228  3.0089 -2.4540
  758MOL0     H 2320   2.084   8.845   4.278  0.3488 -0.8060 -1.1511
  758MOL0     H 2321   2.194   8.990   4.274  3.3461 -0.1662  1.8679
  758MOL0     H 2322   2.308   8.896   4.489 -0.2851  3.8133  0.9624
  758MOL0     H 2323   2.173   8.798   4.493  2.1405  0.0072  2.1639
  758MOL0     H 2324   2.041   9.035   4.450 -2.4301  2.4573  2.5788
  758MOL0     H 2325   2.071   8.954   4.602  1.3602 -0.0628  0.3129
  758MOL0     H 2326   2.287   9.307   4.664 -0.3414 -0.2277  2.4154
  758MOL0     H 2327   2.222   8.427   4.244  0.1832 -1.3267 -0.9235
  758MOL0     H 2328   2.367   8.149   4.158  1.2886 -1.0091 -2.7767
  758MOL0     H 2329   2.208   8.214   4.188  1.9326  3.3234  1.6602
  758MOL0     H 2330   2.257   8.169   4.015 -0.0985  1.6759 -0.8317
  759MOL0     O 2331   3.510   7.578   9.386  0.0423  0.0107 -0.5177
  759MOL0     C 2332   3.438   7.539   9.477  0.4254 -0.0489 -0.6730
  759MOL0     O 2333   3.421   7.602   9.600  0.0551  0.8551 -0.5193
  759MOL0     C 2334   3.457   7.734   9.609 -0.0972  0.7785  0.5087
  759MOL0     C 2335   3.574   7.766   9.677  0.8248 -0.0484  0.2681
  759MOL0     C 2336   3.621   7.894   9.683 -0.3691 -0.8407  0.6439
  759MOL0     C 2337   3.553   8.001   9.627 -0.7931 -0.4507  0.4569
  759MOL0     O 2338   3.625   8.123   9.639 -0.6953  0.1910  0.6166
  759MOL0     C 2339   3.573   8.243   9.582 -0.6414  0.3190  0.2170
  759MOL0     C 2340   3.697   8.344   9.558 -0.4684 -0.7637 -0.3243
  759MOL0     C 2341   3.766   8.392   9.696  0.8059 -0.3754 -0.9043
  759MOL0     C 2342   3.892   8.473   9.660  0.3345 -0.0790 -0.5215
  759MOL0     C 2343   3.957   8.531   9.787 -0.5317  0.7315  0.5132
  759MOL0     C 2344   3.878   8.664   9.823 -1.4601  0.8430 -0.2241
  759MOL0     C 2345   3.944   8.718   9.956  0.9055  0.1517  0.9311
  759MOL0     C 2346   3.918   8.647  10.085  0.8909  0.1826  0.1539
  759MOL0     N 2347   4.008   8.540  10.120  0.1454 -0.1321 -0.0240
  759MOL0     C 2348   4.145   8.549  10.130  1.0147  0.6257  0.2190
  759MOL0     C 2349   4.179   8.424  10.180 -0.7080 -0.4293 -0.1823
  759MOL0     C 2350   4.316   8.378  10.226 -1.0281 -0.1741 -0.1159
  759MOL0     C 2351   4.400   8.487  10.297 -0.4156  0.1327  0.0217
  759MOL0     C 2352   4.537   8.443  10.350  0.2720 -0.3733  0.0128
  759MOL0     C 2353   4.506   8.352  10.473 -0.1158  0.6338  0.1738
  759MOL0     O 2354   4.578   8.224  10.454 -0.3522 -0.8771 -0.1266
  759MOL0     C 2355   4.719   8.224  10.441 -0.0101 -0.0636 -0.4762
  759MOL0     C 2356   4.802   8.335  10.470 -0.1714  0.0802 -0.2145
  759MOL0     C 2357   4.936   8.314  10.483  0.1241 -0.7495 -0.9033
  759MOL0     C 2358   5.009   8.200  10.444 -0.0730 -0.2427 -0.1670
  759MOL0     C 2359   5.156   8.200  10.450 -0.4308 -0.3770  0.7084
  759MOL0     O 2360   5.220   8.094  10.395  0.7142  0.1639  0.1242
  759MOL0     C 2361   5.336   8.051  10.457  0.5727 -0.5650 -0.1521
  759MOL0     C 2362   5.325   7.945  10.551  0.9833  0.3035  0.5743
  759MOL0     C 2363   5.433   7.910  10.633  0.6196  1.3795  0.5645
  759MOL0     C 2364   5.556   7.977  10.620 -0.2711 -0.3592 -0.1304
  759MOL0     O 2365   5.672   7.940  10.697  0.0151 -0.4291  0.1722
  759MOL0     C 2366   5.656   7.846  10.796 -0.4562 -1.0623  0.0150
  759MOL0     C 2367   5.803   7.818  10.839 -0.2487 -0.1749 -0.0627
  759MOL0     C 2368   5.856   7.939  10.922  0.0329 -0.2324  0.0724
  759MOL0     C 2369   5.987   7.904  10.984 -0.5803  0.1983 -0.7170
  759MOL0     C 2370   6.041   7.999  11.101 -0.0604  0.7347  0.3633
  759MOL0     C 2371   6.177   7.955  11.162 -0.1021  0.6630 -0.8125
  759MOL0     C 2372   6.209   8.065  11.263 -0.6935 -0.3648 -0.8337
  759MOL0     C 2373   6.341   8.041  11.346  0.5495  0.6572 -0.2624
  759MOL0    Cl 2374   6.325   7.890  11.447 -0.2204  0.0521 -0.2676
  759MOL0     C 2375   5.561   8.072  10.515  0.1973  0.9210 -0.3729
  759MOL0     C 2376   5.458   8.108  10.436 -0.2555  0.4101  1.4495
  759MOL0     O 2377   5.211   8.293  10.507 -0.0933  0.5262 -0.4259
  759MOL0     C 2378   4.926   8.096  10.408  0.1664 -1.1024  0.5261
  759MOL0     C 2379   4.778   8.103  10.404  0.3579  0.7070 -0.6316
  759MOL0     N 2380   4.082   8.335  10.169  0.4135  0.1900  0.6892
  759MOL0     N 2381   3.979   8.405  10.133 -0.3202 -0.7253  0.1377
  759MOL0     C 2382   3.431   7.973   9.556 -0.7954 -0.2651  0.2278
  759MOL0     C 2383   3.380   7.843   9.546 -0.1812 -0.1685 -0.6779
  759MOL0     C 2384   3.358   7.417   9.442 -0.1276  0.2218 -0.4661
  759MOL0     C 2385   3.262   7.384   9.550  0.1322 -0.8476  0.7628
  759MOL0     C 2386   3.180   7.273   9.533 -0.6735 -0.7965  0.1933
  759MOL0     C 2387   3.186   7.197   9.419  0.4025 -0.7701 -0.4549
  759MOL0     O 2388   3.090   7.094   9.408 -0.1758  0.9951 -0.0408
  759MOL0     C 2389   3.063   7.031   9.279 -0.6499  0.2468 -0.6577
  759MOL0     C 2390   2.946   6.938   9.281  0.0590  0.0309 -0.1705
  759MOL0     C 2391   2.899   6.886   9.421 -0.1124 -0.1158 -0.1967
  759MOL0     C 2392   2.769   6.802   9.418 -0.1360  0.1516 -0.1872
  759MOL0     C 2393   2.647   6.866   9.376 -0.6016 -0.2712  0.2167
  759MOL0     C 2394   2.547   6.912   9.336 -0.1834  0.8022 -0.4715
  759MOL0     C 2395   3.281   7.223   9.327 -0.6905  1.0485  0.2098
  759MOL0     C 2396   3.365   7.337   9.334  0.4051 -0.3121  1.3587
  759MOL0     C 2397   3.447   7.376   9.212 -0.4220  0.2282  0.6504
  759MOL0     H 2398   3.633   7.688   9.725 -0.7778 -0.8613  1.0024
  759MOL0     H 2399   3.719   7.900   9.730 -0.6827 -0.3238  1.2538
  759MOL0     H 2400   3.522   8.225   9.487  0.0934  0.3290 -0.1851
  759MOL0     H 2401   3.496   8.294   9.641 -2.4386 -0.0957 -1.6911
  759MOL0     H 2402   3.671   8.430   9.496  2.3612 -0.3327 -1.0537
  759MOL0     H 2403   3.778   8.303   9.498 -0.6113 -0.0025 -1.0583
  759MOL0     H 2404   3.810   8.301   9.739 -0.6520 -1.6197 -1.9245
  759MOL0     H 2405   3.686   8.435   9.756 -2.3405 -2.2094 -3.4534
  759MOL0     H 2406   3.960   8.406   9.607 -2.2140  0.7560 -5.4790
  759MOL0     H 2407   3.875   8.564   9.601  1.3130  1.1163  0.9609
  759MOL0     H 2408   3.971   8.463   9.872 -2.1230  1.7923  1.6935
  759MOL0     H 2409   4.058   8.563   9.762 -1.2019  2.5665 -0.0576
  759MOL0     H 2410   3.888   8.739   9.744 -0.1323  0.3470 -0.5425
  759MOL0     H 2411   3.771   8.645   9.836 -0.9387 -3.1649 -0.3747
  759MOL0     H 2412   3.903   8.819   9.968  0.7465 -0.1870  4.1213
  759MOL0     H 2413   4.052   8.720   9.943  0.7139 -1.3553 -1.3630
  759MOL0     H 2414   3.911   8.721  10.164  0.7788 -0.0815  0.3948
  759MOL0     H 2415   3.822   8.594  10.079  0.4501  0.9126  0.5912
  759MOL0     H 2416   4.205   8.638  10.115 -0.1638  1.4874  0.4604
  759MOL0     H 2417   4.318   8.296  10.298 -0.6890  1.1390  1.4321
  759MOL0     H 2418   4.370   8.340  10.139 -2.1537 -2.3546  0.0637
  759MOL0     H 2419   4.422   8.559  10.218  1.0039  0.6008  0.8132
  759MOL0     H 2420   4.343   8.537  10.375 -0.4328  1.6701 -0.9369
  759MOL0     H 2421   4.593   8.530  10.383  3.4273 -1.6689 -1.5010
  759MOL0     H 2422   4.589   8.391  10.268 -0.6262 -0.1354 -0.7294
  759MOL0     H 2423   4.401   8.326  10.494  0.1384 -0.8383 -0.3005
  759MOL0     H 2424   4.540   8.393  10.569  0.2685 -1.7997  1.1531
  759MOL0     H 2425   4.749   8.420  10.511 -0.0026  0.9357 -1.6863
  759MOL0     H 2426   4.984   8.403  10.522 -2.6934 -0.2695  1.8702
  759MOL0     H 2427   5.227   7.898  10.562 -0.2391  2.2388 -1.4018
  759MOL0     H 2428   5.415   7.843  10.716 -2.0784  2.0089  0.5798
  759MOL0     H 2429   5.595   7.876  10.881 -1.4999 -0.4769 -0.9188
  759MOL0     H 2430   5.617   7.751  10.759 -0.4898 -1.2380  0.4927
  759MOL0     H 2431   5.814   7.727  10.897  1.9531  0.1283  0.0511
  759MOL0     H 2432   5.845   7.800  10.740 -0.9419 -0.6122 -0.2828
  759MOL0     H 2433   5.860   8.028  10.859  1.7724  1.6868  2.6813
  759MOL0     H 2434   5.789   7.957  11.006 -0.8573 -1.3949 -0.3649
  759MOL0     H 2435   6.060   7.905  10.902 -2.4357  0.0265 -2.4364
  759MOL0     H 2436   5.987   7.799  11.014  1.4025 -0.1054 -1.6068
  759MOL0     H 2437   5.971   8.007  11.185  1.0456  0.0321  1.3743
  759MOL0     H 2438   6.047   8.098  11.054  1.4438 -0.7863 -2.9503
  759MOL0     H 2439   6.161   7.870  11.228  0.4882  2.3747  1.6520
  759MOL0     H 2440   6.262   7.938  11.095 -0.0994 -1.2572 -0.3725
  759MOL0     H 2441   6.137   8.070  11.345 -0.1181  2.8261 -0.3933
  759MOL0     H 2442   6.220   8.163  11.215  1.5169 -0.6201 -0.9680
  759MOL0     H 2443   6.424   8.044  11.275  0.2268 -1.1785 -0.7806
  759MOL0     H 2444   6.340   8.118  11.423 -0.3530  0.4909 -0.1049
  759MOL0     H 2445   5.658   8.121  10.503 -1.7160  5.3434  0.2580
  759MOL0     H 2446   5.463   8.192  10.368 -1.6423  2.5411  3.8067
  759MOL0     H 2447   4.980   8.010  10.371  1.1708 -1.0875  1.8886
  759MOL0     H 2448   4.721   8.013  10.384  0.1521  0.2006  1.9168
  759MOL0     H 2449   3.384   8.061   9.513 -1.1030 -0.4801  0.1187
  759MOL0     H 2450   3.281   7.813   9.512  0.6875 -1.5406 -2.1265
  759MOL0     H 2451   3.244   7.437   9.643 -0.7436  0.0042  0.1297
  759MOL0     H 2452   3.104   7.251   9.607 -0.5886  1.0406  0.8789
  759MOL0     H 2453   3.148   6.972   9.244  0.9880  1.4880  1.0210
  759MOL0     H 2454   3.049   7.100   9.195 -0.2837 -1.4447 -2.1696
  759MOL0     H 2455   2.977   6.860   9.210 -0.0152  0.4206 -0.6368
  759MOL0     H 2456   2.861   6.992   9.237 -0.6831  0.0091  1.1994
  759MOL0     H 2457   2.878   6.976   9.479  0.0696 -0.0636 -0.2107
  759MOL0     H 2458   2.979   6.831   9.471 -0.8339  2.0074  3.6207
  759MOL0     H 2459   2.785   6.710   9.362 -2.9485 -1.1722  0.9808
  759MOL0     H 2460   2.755   6.768   9.521 -0.3169  1.9960  0.4377
  759MOL0     H 2461   2.445   6.933   9.310 -1.7938  1.0935  4.9577
  759MOL0     H 2462   3.296   7.161   9.239 -2.8899 -0.4859  0.8381
  759MOL0     H 2463   3.414   7.304   9.137 -1.3813  2.2140 -0.9478
  759MOL0     H 2464   3.422   7.473   9.168 -4.0211 -1.8054 -2.3840
  759MOL0     H 2465   3.553   7.361   9.231 -0.2219 -2.2262 -1.7954
  760MOL0     O 2466   9.051   8.640   2.561 -0.6452  0.3334 -0.2371
  760MOL0     C 2467   8.976   8.717   2.626 -0.0717  0.5385 -0.6626
  760MOL0     O 2468   9.007   8.821   2.708  0.6339  0.1135 -0.5945
  760MOL0     C 2469   9.143   8.832   2.733 -0.0065  0.7575 -0.3154
  760MOL0     C 2470   9.211   8.736   2.804  0.6333  0.6327 -0.4724
  760MOL0     C 2471   9.349   8.751   2.839  0.4725 -0.7109 -0.1509
  760MOL0     C 2472   9.415   8.867   2.801 -0.2860 -0.1951  0.4609
  760MOL0     O 2473   9.545   8.880   2.844  0.3880 -0.2461 -0.1194
  760MOL0     C 2474   9.639   8.861   2.734  0.4747  1.0257 -0.2417
  760MOL0     C 2475   9.778   8.831   2.793 -0.3766  0.4045 -0.0881
  760MOL0     C 2476   9.790   8.767   2.927  0.3878  0.3949  0.0530
  760MOL0     C 2477   9.939   8.731   2.948  0.9018  0.0650  0.0718
  760MOL0     C 2478   9.960   8.651   3.080 -0.2574 -0.3935 -0.0633
  760MOL0     C 2479  10.113   8.615   3.091  0.7621 -0.6038 -0.6477
  760MOL0     C 2480  10.139   8.502   3.192 -0.3929 -0.0153  0.4841
  760MOL0     C 2481  10.040   8.382   3.215  0.6023 -0.3157  0.3818
  760MOL0     N 2482  10.085   8.306   3.331 -0.2684 -0.1233  0.1490
  760MOL0     C 2483  10.130   8.364   3.443  0.5393 -0.3411 -0.0719
  760MOL0     C 2484  10.188   8.267   3.516 -0.3993 -0.1191  1.0616
  760MOL0     C 2485  10.252   8.280   3.653 -0.5145 -0.0899 -1.0729
  760MOL0     C 2486  10.397   8.321   3.651 -0.8678  0.4328 -0.2084
  760MOL0     C 2487  10.439   8.440   3.565  0.2850  0.6624 -0.1342
  760MOL0     C 2488  10.574   8.501   3.598  0.0587 -0.2247  0.4151
  760MOL0     O 2489  10.676   8.403   3.567  0.3883 -0.1456  0.4451
  760MOL0     C 2490  10.809   8.425   3.588 -0.6274  0.0228 -0.2905
  760MOL0     C 2491  10.857   8.556   3.605  0.1940 -0.4294  0.6919
  760MOL0     C 2492  10.998   8.581   3.621 -0.3190  0.6820 -0.6005
  760MOL0     C 2493  11.087   8.469   3.621  0.0364  0.0014  0.0767
  760MOL0     C 2494  11.233   8.475   3.624  0.1541  0.1611  0.9516
  760MOL0     O 2495  11.310   8.366   3.622  0.5311  0.7117 -0.3431
  760MOL0     C 2496  11.441   8.377   3.587  0.1963 -0.4446  0.2109
  760MOL0     C 2497  11.498   8.402   3.463 -0.0974  0.5639  0.0390
  760MOL0     C 2498  11.637   8.408   3.453 -0.0404  0.1323 -0.1566
  760MOL0     C 2499  11.716   8.407   3.557 -0.4897 -0.4898 -0.1372
  760MOL0     O 2500  11.843   8.380   3.524  0.1814  0.6321  0.2614
  760MOL0     C 2501  11.946   8.467   3.583  0.3303  0.3393  0.7088
  760MOL0     C 2502  12.025   8.538   3.475 -0.3908 -0.8034 -0.8736
  760MOL0     C 2503  12.158   8.593   3.533 -0.2348  0.2084  0.7465
  760MOL0     C 2504  12.274   8.504   3.484  1.0673 -0.1322 -0.5195
  760MOL0     C 2505  12.395   8.541   3.571 -0.0444 -0.5883  0.0373
  760MOL0     C 2506  12.510   8.445   3.521 -0.3404 -0.6243  0.3133
  760MOL0     C 2507  12.628   8.453   3.605 -1.3403 -0.7881  0.3720
  760MOL0     C 2508  12.736   8.352   3.565  0.7762 -0.4528  0.7649
  760MOL0    Cl 2509  12.860   8.442   3.458  0.1410  0.1090 -0.3613
  760MOL0     C 2510  11.669   8.396   3.687  0.3574  0.7412 -0.4718
  760MOL0     C 2511  11.528   8.383   3.700 -0.3654 -0.0144 -0.3861
  760MOL0     O 2512  11.279   8.590   3.619 -0.6902  0.1819  0.6941
  760MOL0     C 2513  11.022   8.345   3.602  0.1553  0.8725  0.1016
  760MOL0     C 2514  10.888   8.319   3.591 -0.2077  0.1718  0.1389
  760MOL0     N 2515  10.186   8.158   3.439 -0.0775  0.1310  0.9290
  760MOL0     N 2516  10.124   8.182   3.328  0.1840 -0.2958 -0.2783
  760MOL0     C 2517   9.342   8.969   2.728 -0.5237  0.3901  0.0735
  760MOL0     C 2518   9.208   8.950   2.695  0.1153  0.3031  0.2821
  760MOL0     C 2519   8.831   8.681   2.619  0.6281  0.6553 -0.4888
  760MOL0     C 2520   8.807   8.563   2.550 -0.2260  0.3010 -0.0180
  760MOL0     C 2521   8.683   8.498   2.553 -0.5359  0.3383  0.5933
  760MOL0     C 2522   8.582   8.569   2.610 -0.2232 -0.1353  0.2115
  760MOL0     O 2523   8.464   8.502   2.600 -0.2830 -0.1927 -0.2175
  760MOL0     C 2524   8.337   8.578   2.614 -0.2672  0.2245 -0.1113
  760MOL0     C 2525   8.233   8.475   2.568  0.2834  0.5869 -0.0137
  760MOL0     C 2526   8.097   8.544   2.584 -0.7444 -0.0226  0.8954
  760MOL0     C 2527   8.074   8.638   2.467 -0.3741  0.5919  0.6030
  760MOL0     C 2528   8.059   8.575   2.336  0.3093  0.2680 -0.0609
  760MOL0     C 2529   8.036   8.509   2.236  0.2887  0.6356  0.1876
  760MOL0     C 2530   8.600   8.688   2.681 -0.2779 -0.0877 -0.7668
  760MOL0     C 2531   8.733   8.742   2.697  1.0588  0.4134 -0.5952
  760MOL0     C 2532   8.753   8.870   2.780 -0.1320 -0.7926  0.7156
  760MOL0     H 2533   9.153   8.648   2.830 -2.0121  2.5550  0.6118
  760MOL0     H 2534   9.411   8.678   2.890 -0.1625 -2.4397 -1.7347
  760MOL0     H 2535   9.608   8.771   2.680  0.4441  0.6941  0.3221
  760MOL0     H 2536   9.627   8.949   2.670 -0.5406  1.0160 -0.0836
  760MOL0     H 2537   9.816   8.932   2.813  0.3965  0.5095 -1.9312
  760MOL0     H 2538   9.847   8.784   2.723  1.7267  1.3748  1.2345
  760MOL0     H 2539   9.738   8.671   2.927 -2.9245  2.0241  2.0011
  760MOL0     H 2540   9.747   8.835   3.000 -0.0978 -0.4722  0.5931
  760MOL0     H 2541   9.969   8.664   2.867  0.4358  1.5334 -1.3777
  760MOL0     H 2542   9.992   8.827   2.949 -4.4379  3.4696 -0.9585
  760MOL0     H 2543   9.936   8.708   3.170 -0.8607 -0.3564 -0.2408
  760MOL0     H 2544   9.906   8.557   3.068 -2.0033  0.7423 -1.8443
  760MOL0     H 2545  10.150   8.576   2.996  2.9759 -0.7723  0.2424
  760MOL0     H 2546  10.174   8.702   3.118 -3.1566  2.1262  0.3319
  760MOL0     H 2547  10.148   8.550   3.290 -1.4559  1.3254 -0.0429
  760MOL0     H 2548  10.233   8.452   3.168 -1.4353 -2.4760  1.2664
  760MOL0     H 2549   9.933   8.402   3.227 -0.0795 -0.9663 -3.4068
  760MOL0     H 2550  10.035   8.322   3.124 -1.8901 -2.6082  1.8878
  760MOL0     H 2551  10.122   8.469   3.470 -1.0180 -0.8623  1.6551
  760MOL0     H 2552  10.183   8.356   3.693 -1.7417 -0.5658 -2.1896
  760MOL0     H 2553  10.237   8.189   3.710 -0.1937  0.8691  0.6010
  760MOL0     H 2554  10.439   8.341   3.750 -0.2534 -1.0750 -0.1271
  760MOL0     H 2555  10.458   8.237   3.616 -1.9031 -0.1095 -0.7448
  760MOL0     H 2556  10.366   8.521   3.576  1.4719  1.3887  4.6726
  760MOL0     H 2557  10.447   8.410   3.460  1.9775  2.0508 -0.4370
  760MOL0     H 2558  10.575   8.525   3.704 -0.0791 -2.0007  0.8432
  760MOL0     H 2559  10.592   8.596   3.546  2.3079 -1.3615 -1.0352
  760MOL0     H 2560  10.791   8.642   3.602 -0.2471 -0.6980 -3.2375
  760MOL0     H 2561  11.029   8.683   3.642  0.3604  0.3531  0.0243
  760MOL0     H 2562  11.434   8.395   3.376  0.5711 -0.8827 -0.3680
  760MOL0     H 2563  11.682   8.388   3.356 -1.6968 -0.1838 -0.8946
  760MOL0     H 2564  11.909   8.547   3.648 -1.2006  0.6044 -0.4402
  760MOL0     H 2565  12.006   8.399   3.644 -2.5509 -2.3082  0.8467
  760MOL0     H 2566  12.040   8.467   3.393  0.8386 -1.0720 -0.4326
  760MOL0     H 2567  11.962   8.619   3.435 -1.1322 -1.6215 -1.3928
  760MOL0     H 2568  12.182   8.698   3.517  3.8364 -0.3461  1.9503
  760MOL0     H 2569  12.148   8.583   3.642  3.5275 -2.0978  1.0902
  760MOL0     H 2570  12.293   8.552   3.387 -0.5210  0.9319 -0.3654
  760MOL0     H 2571  12.241   8.400   3.488 -1.6561  0.6751  1.5040
  760MOL0     H 2572  12.371   8.513   3.674 -1.3532  1.3979  0.3367
  760MOL0     H 2573  12.427   8.646   3.569  1.3950 -1.0105 -1.2324
  760MOL0     H 2574  12.463   8.347   3.514 -0.8896 -0.3231 -0.3907
  760MOL0     H 2575  12.529   8.465   3.415 -0.2791 -1.0297  0.2459
  760MOL0     H 2576  12.600   8.432   3.709 -0.7105 -0.2019  0.6654
  760MOL0     H 2577  12.669   8.554   3.614  0.3369 -1.2169 -1.7649
  760MOL0     H 2578  12.780   8.327   3.662 -1.0708  1.0018  2.0837
  760MOL0     H 2579  12.685   8.275   3.507 -0.5817  0.2397  0.9897
  760MOL0     H 2580  11.740   8.370   3.764 -1.2085 -2.9752 -0.0835
  760MOL0     H 2581  11.488   8.351   3.795 -1.7348 -4.2016 -2.1369
  760MOL0     H 2582  11.085   8.257   3.603  2.6945  2.5687 -0.3205
  760MOL0     H 2583  10.846   8.222   3.568 -0.2050  0.7019 -2.4097
  760MOL0     H 2584   9.390   9.064   2.708 -1.9455  1.3852  1.1952
  760MOL0     H 2585   9.151   9.024   2.640  0.5490 -1.2923 -2.5273
  760MOL0     H 2586   8.887   8.505   2.506  1.6473  2.3994  0.4326
  760MOL0     H 2587   8.669   8.398   2.514 -0.1236 -0.3299  2.0817
  760MOL0     H 2588   8.347   8.660   2.542 -0.0142 -2.7461 -3.7870
  760MOL0     H 2589   8.319   8.617   2.715 -1.5755  1.8030 -0.9046
  760MOL0     H 2590   8.237   8.384   2.629  0.0302  0.1465 -0.6499
  760MOL0     H 2591   8.257   8.445   2.466  2.5355  1.4477  0.2192
  760MOL0     H 2592   8.086   8.599   2.678 -0.8808  1.1862  0.1923
  760MOL0     H 2593   8.015   8.472   2.576 -0.5673 -0.0713 -0.9431
  760MOL0     H 2594   7.978   8.687   2.481 -2.0204 -2.1230 -0.4361
  760MOL0     H 2595   8.151   8.715   2.456  0.8801 -0.9268 -2.9382
  760MOL0     H 2596   8.006   8.453   2.150 -1.8683  0.6856  0.8526
  760MOL0     H 2597   8.512   8.745   2.709  0.1486 -0.0977  0.6319
  760MOL0     H 2598   8.782   8.961   2.726 -2.8300  0.9033  1.9097
  760MOL0     H 2599   8.659   8.885   2.832 -1.2254  1.6421 -1.7116
  760MOL0     H 2600   8.834   8.850   2.851  1.9061 -0.5865 -1.4086
  761MOL0     O 2601   3.134   9.581   8.827 -0.6011 -0.8239 -0.2350
  761MOL0     C 2602   3.066   9.613   8.926 -0.1261  0.4817 -1.3649
  761MOL0     O 2603   3.115   9.660   9.041  0.4575  0.4092  0.8160
  761MOL0     C 2604   3.247   9.649   9.060 -0.5287  0.1899  0.4013
  761MOL0     C 2605   3.288   9.549   9.140 -0.0350  0.1540 -0.1955
  761MOL0     C 2606   3.425   9.526   9.174 -0.5063 -0.7444  0.3982
  761MOL0     C 2607   3.525   9.598   9.112 -0.2897 -0.5159 -1.0307
  761MOL0     O 2608   3.653   9.561   9.115  0.7345 -0.3063  0.2153
  761MOL0     C 2609   3.739   9.673   9.122 -0.1441  0.5341  0.1059
  761MOL0     C 2610   3.882   9.627   9.165  0.0076 -0.8423 -0.3376
  761MOL0     C 2611   3.891   9.593   9.320 -0.1240  0.3226  0.0748
  761MOL0     C 2612   4.034   9.553   9.370  1.2589  0.5039  0.4765
  761MOL0     C 2613   4.043   9.505   9.514 -0.2413  0.1684 -0.2926
  761MOL0     C 2614   4.192   9.506   9.564  0.1084  0.5962 -1.0174
  761MOL0     C 2615   4.269   9.384   9.530 -0.2896  0.5496  0.0516
  761MOL0     C 2616   4.413   9.398   9.584 -1.4323  0.0510 -0.6217
  761MOL0     N 2617   4.498   9.282   9.536 -0.0258  0.0017 -0.2229
  761MOL0     C 2618   4.506   9.166   9.611 -0.2169  1.3366 -0.7171
  761MOL0     C 2619   4.616   9.107   9.561  0.1048  0.1339 -0.1185
  761MOL0     C 2620   4.652   8.964   9.597 -0.4813  0.8636  0.8486
  761MOL0     C 2621   4.576   8.857   9.511 -0.4269  0.2667 -0.1700
  761MOL0     C 2622   4.633   8.717   9.507 -0.9800 -0.0107 -0.1196
  761MOL0     C 2623   4.782   8.711   9.524  0.0557 -0.5603  1.0665
  761MOL0     O 2624   4.816   8.711   9.660 -1.0258  0.2295 -0.3334
  761MOL0     C 2625   4.952   8.728   9.698 -0.6019  0.2471  1.0762
  761MOL0     C 2626   4.983   8.755   9.837  0.3069  0.2466 -0.0196
  761MOL0     C 2627   5.113   8.772   9.887 -0.0324 -0.0699  1.1567
  761MOL0     C 2628   5.211   8.795   9.792  0.3951  0.3406  1.0418
  761MOL0     C 2629   5.346   8.834   9.833  0.3827  1.0139  0.0354
  761MOL0     O 2630   5.434   8.884   9.736  0.2158 -0.2862 -1.7219
  761MOL0     C 2631   5.569   8.905   9.777 -1.3472 -0.1078  0.5392
  761MOL0     C 2632   5.621   9.033   9.804  0.2854 -0.6332 -0.3110
  761MOL0     C 2633   5.741   9.038   9.876 -0.3411 -0.4535  0.5527
  761MOL0     C 2634   5.826   8.926   9.906  0.2658 -0.1404  0.5066
  761MOL0     O 2635   5.943   8.932   9.977  0.5548 -0.0051  0.3294
  761MOL0     C 2636   6.012   9.053  10.008  1.0789 -0.1404  0.1857
  761MOL0     C 2637   6.162   9.042  10.004  0.1283 -0.0571  0.8317
  761MOL0     C 2638   6.210   8.957  10.121  0.2113  1.4007  0.2451
  761MOL0     C 2639   6.357   8.974  10.145 -0.0229  0.0340 -0.1855
  761MOL0     C 2640   6.405   9.123  10.180  0.4285 -0.9178  0.4728
  761MOL0     C 2641   6.403   9.161  10.329 -0.8104  0.1488  0.5120
  761MOL0     C 2642   6.475   9.292  10.363 -0.9398 -0.1174  0.5194
  761MOL0     C 2643   6.625   9.286  10.368  0.2152  0.6526 -0.0339
  761MOL0    Cl 2644   6.672   9.163  10.497 -0.5820 -0.0277  0.2124
  761MOL0     C 2645   5.784   8.803   9.866 -0.1899  0.1074  0.1021
  761MOL0     C 2646   5.654   8.797   9.802 -0.3595  0.9031  0.0056
  761MOL0     O 2647   5.377   8.807   9.952  0.0647 -0.2414  0.5639
  761MOL0     C 2648   5.189   8.771   9.653  0.3624 -0.8047  0.4324
  761MOL0     C 2649   5.062   8.729   9.611 -0.3476 -0.4829  1.1015
  761MOL0     N 2650   4.682   9.189   9.470 -0.3695  0.5734 -0.6542
  761MOL0     N 2651   4.608   9.290   9.458  0.4755  0.3229 -0.3196
  761MOL0     C 2652   3.483   9.698   9.020 -0.5243 -0.5017  0.1878
  761MOL0     C 2653   3.347   9.737   9.012 -0.4801 -0.0674  0.5107
  761MOL0     C 2654   2.914   9.599   8.913  0.1128 -0.0616 -0.6351
  761MOL0     C 2655   2.854   9.581   8.786 -0.1188 -0.3014  0.0639
  761MOL0     C 2656   2.716   9.573   8.771 -1.2262 -0.1975  0.1680
  761MOL0     C 2657   2.627   9.584   8.873  0.3112  1.0438 -0.3456
  761MOL0     O 2658   2.492   9.583   8.838  0.6357 -0.5207 -0.5350
  761MOL0     C 2659   2.410   9.678   8.915 -0.0308  0.3680 -0.1192
  761MOL0     C 2660   2.304   9.602   8.986  0.0512  0.9966  0.4582
  761MOL0     C 2661   2.202   9.552   8.883  0.2713 -0.6343 -0.7360
  761MOL0     C 2662   2.087   9.481   8.950  0.2434 -0.1980  0.6402
  761MOL0     C 2663   1.979   9.453   8.856 -0.7324  0.7008  0.6377
  761MOL0     C 2664   1.891   9.424   8.774  0.0059 -0.2807 -0.3693
  761MOL0     C 2665   2.683   9.607   9.001  1.0356  0.0770  0.5568
  761MOL0     C 2666   2.821   9.622   9.017  0.0411 -0.4616  0.2033
  761MOL0     C 2667   2.859   9.632   9.161 -0.4254 -0.7839 -0.1392
  761MOL0     H 2668   3.215   9.481   9.183  0.7810 -0.7395 -0.2070
  761MOL0     H 2669   3.456   9.447   9.243  0.5451 -0.5674  0.1389
  761MOL0     H 2670   3.748   9.724   9.026 -2.0655  3.0588  1.1752
  761MOL0     H 2671   3.712   9.750   9.194  0.2979  0.9894 -0.2105
  761MOL0     H 2672   3.960   9.702   9.150 -1.3149  1.1211  1.9974
  761MOL0     H 2673   3.906   9.532   9.115  0.8163 -1.2274  0.7691
  761MOL0     H 2674   3.823   9.510   9.341  0.3186 -0.0298  0.1541
  761MOL0     H 2675   3.858   9.684   9.371 -2.2734 -0.2575 -0.2022
  761MOL0     H 2676   4.063   9.474   9.300 -0.0654  1.5441 -1.3397
  761MOL0     H 2677   4.100   9.638   9.351  0.0487  1.4282  0.2491
  761MOL0     H 2678   3.979   9.567   9.578 -0.1785  0.3709 -0.4241
  761MOL0     H 2679   4.004   9.403   9.514  2.9196 -1.1716  0.0294
  761MOL0     H 2680   4.230   9.593   9.509  0.2544  2.1014  1.3306
  761MOL0     H 2681   4.195   9.524   9.672 -0.4712 -2.7187 -0.3407
  761MOL0     H 2682   4.277   9.375   9.421 -1.4331  0.3515 -0.0303
  761MOL0     H 2683   4.222   9.294   9.572  0.4943 -1.6580 -3.4404
  761MOL0     H 2684   4.465   9.488   9.550  1.9575 -1.1166  0.9712
  761MOL0     H 2685   4.411   9.402   9.693  1.0350 -0.8999 -0.4629
  761MOL0     H 2686   4.443   9.122   9.687  1.1063 -0.6103 -0.6691
  761MOL0     H 2687   4.756   8.960   9.564 -1.4619  0.8789 -2.6507
  761MOL0     H 2688   4.642   8.944   9.704  5.0594 -0.3017  1.4295
  761MOL0     H 2689   4.469   8.853   9.535 -1.6522 -3.7194 -4.6421
  761MOL0     H 2690   4.583   8.892   9.408 -3.0485 -0.0212 -0.5093
  761MOL0     H 2691   4.598   8.686   9.408 -2.2489  1.5493 -0.1980
  761MOL0     H 2692   4.586   8.655   9.583 -1.0777 -0.7148 -0.7387
  761MOL0     H 2693   4.833   8.800   9.486 -2.2139  0.1860 -0.4622
  761MOL0     H 2694   4.807   8.614   9.479  0.6380 -0.5257  1.3058
  761MOL0     H 2695   4.906   8.763   9.913  0.4928  3.3228 -0.0286
  761MOL0     H 2696   5.133   8.790   9.992  2.6967  0.3216  0.6548
  761MOL0     H 2697   5.557   9.117   9.782 -0.2018 -1.2156 -1.2217
  761MOL0     H 2698   5.764   9.137   9.913 -0.2648 -0.4088  0.3892
  761MOL0     H 2699   5.982   9.130   9.936 -0.7303 -2.0423 -1.2165
  761MOL0     H 2700   5.983   9.084  10.109 -3.2748 -2.1099 -0.2454
  761MOL0     H 2701   6.183   8.988   9.910 -0.6495  1.4324 -0.2376
  761MOL0     H 2702   6.216   9.136   9.990  5.0054 -2.4414  1.4228
  761MOL0     H 2703   6.152   8.979  10.211  0.6668  2.3050  0.3375
  761MOL0     H 2704   6.190   8.854  10.091  0.5558  1.1420  0.8798
  761MOL0     H 2705   6.405   8.947  10.050  0.4708 -2.1308  0.6183
  761MOL0     H 2706   6.382   8.905  10.225  1.3979 -1.0408 -1.4936
  761MOL0     H 2707   6.362   9.206  10.124 -1.9097 -1.8242  0.8359
  761MOL0     H 2708   6.507   9.131  10.140  0.4083  1.1691  0.7104
  761MOL0     H 2709   6.299   9.170  10.362 -1.5183 -0.6776 -1.3813
  761MOL0     H 2710   6.450   9.077  10.381  2.5963  1.9718  0.7123
  761MOL0     H 2711   6.448   9.314  10.467 -0.8721 -2.3533  1.0581
  761MOL0     H 2712   6.436   9.373  10.300  0.7020 -1.4134 -2.3297
  761MOL0     H 2713   6.679   9.265  10.275  2.2496  1.1870  0.9467
  761MOL0     H 2714   6.656   9.386  10.400  1.8880 -0.3742  1.8040
  761MOL0     H 2715   5.842   8.715   9.889  1.6589  1.4574  0.8448
  761MOL0     H 2716   5.606   8.704   9.774 -0.9362  1.3434 -0.4942
  761MOL0     H 2717   5.258   8.796   9.573  0.7000  1.9381  1.4916
  761MOL0     H 2718   5.052   8.706   9.505  1.1699 -2.7141  1.3876
  761MOL0     H 2719   3.550   9.748   8.950 -0.0819  0.1354  1.0345
  761MOL0     H 2720   3.305   9.810   8.944  0.4062 -0.4781 -0.5051
  761MOL0     H 2721   2.917   9.554   8.702  2.2252  2.0259  0.9175
  761MOL0     H 2722   2.674   9.545   8.675 -0.4423  0.7127 -0.4568
  761MOL0     H 2723   2.367   9.751   8.846 -1.8088 -1.6389 -1.2652
  761MOL0     H 2724   2.466   9.737   8.988  1.3139 -0.3323 -0.5358
  761MOL0     H 2725   2.250   9.667   9.055  2.1209  1.3384  1.8590
  761MOL0     H 2726   2.339   9.516   9.045 -1.0365  0.8838  0.9733
  761MOL0     H 2727   2.250   9.478   8.819 -1.8689 -2.1191 -0.7177
  761MOL0     H 2728   2.162   9.637   8.826  0.5690 -0.1510 -0.2407
  761MOL0     H 2729   2.115   9.396   9.013 -1.2078  0.5185  2.3673
  761MOL0     H 2730   2.053   9.554   9.024 -2.2337 -2.1570  1.5713
  761MOL0     H 2731   1.825   9.397   8.695 -1.0165  0.2467  0.2748
  761MOL0     H 2732   2.613   9.617   9.083 -0.5035 -2.3462 -0.3581
  761MOL0     H 2733   2.923   9.543   9.166  1.0209  0.0326 -2.4025
  761MOL0     H 2734   2.907   9.730   9.172 -3.0450  1.7081 -6.3295
  761MOL0     H 2735   2.781   9.619   9.236  1.2551  1.3395  2.1583
  762MOL0     O 2736   7.868   0.860   2.831  0.1653 -0.2629 -0.5882
  762MOL0     C 2737   7.798   0.952   2.860 -0.0969  0.4875 -0.6803
  762MOL0     O 2738   7.752   1.043   2.772  0.3477 -0.3192 -0.6564
  762MOL0     C 2739   7.796   1.031   2.647 -0.0860  0.1432  0.3517
  762MOL0     C 2740   7.906   1.103   2.602 -0.4893 -0.8460 -1.3085
  762MOL0     C 2741   7.949   1.088   2.472  0.4856  0.6031  0.1187
  762MOL0     C 2742   7.878   1.007   2.377 -0.0329 -0.5111  0.8624
  762MOL0     O 2743   7.934   0.998   2.251 -0.3143  0.3322  0.9219
  762MOL0     C 2744   7.881   0.897   2.164  1.3627  0.2666  0.0792
  762MOL0     C 2745   7.955   0.898   2.032 -0.0429  1.0370 -0.2638
  762MOL0     C 2746   8.107   0.903   2.057  0.4556  0.1289  1.1368
  762MOL0     C 2747   8.183   0.856   1.932 -0.3391  0.6442 -1.2907
  762MOL0     C 2748   8.334   0.884   1.942  0.3644 -0.3727 -0.3178
  762MOL0     C 2749   8.429   0.821   1.825 -0.6236 -0.4224  0.2452
  762MOL0     C 2750   8.393   0.861   1.686  0.5134  0.3263 -0.0230
  762MOL0     C 2751   8.465   0.778   1.577  0.7225  0.4603 -0.3848
  762MOL0     N 2752   8.433   0.633   1.566  0.4216  0.4144  0.5826
  762MOL0     C 2753   8.317   0.572   1.511  0.1583  0.3499  0.1381
  762MOL0     C 2754   8.339   0.438   1.524  0.1487  0.0056  0.2225
  762MOL0     C 2755   8.261   0.324   1.479  0.2243 -0.2852  0.2065
  762MOL0     C 2756   8.177   0.352   1.353  0.0857 -0.2399  0.7112
  762MOL0     C 2757   8.255   0.361   1.219 -0.2726  0.4826 -0.4225
  762MOL0     C 2758   8.172   0.416   1.103  0.1089  0.9758  0.8556
  762MOL0     O 2759   8.088   0.315   1.054  0.6283  0.2821  0.2912
  762MOL0     C 2760   7.979   0.383   1.005 -0.1752  0.2997  0.0778
  762MOL0     C 2761   7.992   0.452   0.880  0.6893 -0.8372 -0.8502
  762MOL0     C 2762   7.878   0.498   0.814 -0.3089 -0.4835  0.5192
  762MOL0     C 2763   7.755   0.484   0.879  0.4446  0.1000  0.1361
  762MOL0     C 2764   7.640   0.565   0.825 -0.3956  0.7794  0.6177
  762MOL0     O 2765   7.532   0.587   0.911 -0.0400  0.2196  0.2794
  762MOL0     C 2766   7.405   0.629   0.868 -1.3855 -0.3914  0.7415
  762MOL0     C 2767   7.339   0.703   0.959  0.1188  0.0913 -1.6626
  762MOL0     C 2768   7.218   0.755   0.927 -0.6655  0.1951 -0.0898
  762MOL0     C 2769   7.151   0.723   0.810 -0.1970  0.1910 -0.4816
  762MOL0     O 2770   7.023   0.763   0.800 -0.1689 -0.6473  0.3861
  762MOL0     C 2771   6.938   0.733   0.686 -0.6307  0.5902  0.1197
  762MOL0     C 2772   6.810   0.804   0.714  0.6309  0.3003 -0.1582
  762MOL0     C 2773   6.734   0.759   0.843  0.7806  0.3542  0.3109
  762MOL0     C 2774   6.686   0.611   0.839 -0.0686  0.0149  0.5053
  762MOL0     C 2775   6.548   0.600   0.767 -0.4335  0.0458 -0.6622
  762MOL0     C 2776   6.486   0.459   0.787 -0.3581  0.5416 -0.7972
  762MOL0     C 2777   6.336   0.471   0.801  0.3079  0.6552  0.4404
  762MOL0     C 2778   6.270   0.333   0.790  0.7175 -0.1763 -0.5569
  762MOL0    Cl 2779   6.097   0.334   0.825  0.1091  0.3499 -0.1101
  762MOL0     C 2780   7.222   0.650   0.713 -0.4476 -0.4016 -0.3449
  762MOL0     C 2781   7.351   0.602   0.737  0.2109 -0.5116  0.5658
  762MOL0     O 2782   7.657   0.605   0.707  0.4153 -0.1984  0.3291
  762MOL0     C 2783   7.744   0.415   1.000 -0.0330  0.2517  0.1507
  762MOL0     C 2784   7.858   0.366   1.067  0.6616  0.3218  0.0429
  762MOL0     N 2785   8.463   0.414   1.583  0.2880 -0.3747  0.1654
  762MOL0     N 2786   8.516   0.532   1.614 -0.0866 -0.1851 -0.0006
  762MOL0     C 2787   7.767   0.945   2.419  0.0135  0.0220 -0.1327
  762MOL0     C 2788   7.729   0.957   2.552  0.3521 -0.2756 -1.0453
  762MOL0     C 2789   7.765   0.959   3.002 -0.0525 -0.7768  0.7527
  762MOL0     C 2790   7.867   0.931   3.100  0.6044  0.3331  0.1545
  762MOL0     C 2791   7.847   0.935   3.236  0.5783  0.4416  1.2350
  762MOL0     C 2792   7.715   0.972   3.274  0.7447 -0.2068  0.5281
  762MOL0     O 2793   7.686   0.965   3.407 -0.3071  0.4425  0.1480
  762MOL0     C 2794   7.647   0.830   3.456  0.2069 -0.1070 -0.7408
  762MOL0     C 2795   7.524   0.848   3.531 -0.4709  0.6573 -0.5428
  762MOL0     C 2796   7.419   0.743   3.503 -0.0312  0.0228  0.1201
  762MOL0     C 2797   7.285   0.792   3.572  0.2539 -0.5468 -0.2713
  762MOL0     C 2798   7.179   0.679   3.585 -0.7705 -0.4687 -0.4875
  762MOL0     C 2799   7.097   0.588   3.606 -0.3720  0.2401  0.4604
  762MOL0     C 2800   7.613   1.006   3.178  0.2718 -0.2196 -0.0349
  762MOL0     C 2801   7.633   1.007   3.034  0.6128  0.1388  0.1285
  762MOL0     C 2802   7.511   1.032   2.953 -0.3453  0.0127  0.9381
  762MOL0     H 2803   7.966   1.179   2.652 -1.4910 -1.0532  0.2671
  762MOL0     H 2804   8.045   1.134   2.449  2.3204 -1.3276  3.3005
  762MOL0     H 2805   7.880   0.794   2.202  0.6672 -0.7080 -2.3352
  762MOL0     H 2806   7.780   0.921   2.131  2.0252  0.5399 -1.9115
  762MOL0     H 2807   7.924   0.990   1.981  1.7334  1.2992 -0.9397
  762MOL0     H 2808   7.937   0.803   1.979  2.2061  1.0103 -1.0624
  762MOL0     H 2809   8.130   0.844   2.146 -2.2936  0.8594  2.4450
  762MOL0     H 2810   8.131   1.010   2.059 -1.1444  0.5152  1.6993
  762MOL0     H 2811   8.163   0.751   1.907  2.0732  0.0617 -0.9926
  762MOL0     H 2812   8.149   0.911   1.843  0.3175  1.2828 -1.1505
  762MOL0     H 2813   8.345   0.992   1.951  2.6517 -0.6484  1.0371
  762MOL0     H 2814   8.366   0.856   2.043  0.4836 -1.9729 -0.7697
  762MOL0     H 2815   8.534   0.849   1.838 -0.4293 -1.8689  2.4485
  762MOL0     H 2816   8.418   0.713   1.834 -2.5074 -0.4737 -1.8088
  762MOL0     H 2817   8.420   0.966   1.675  2.2287 -0.2783 -2.0600
  762MOL0     H 2818   8.286   0.837   1.680  0.8720 -2.5803  2.4823
  762MOL0     H 2819   8.444   0.826   1.481 -0.1253 -2.1078 -1.5870
  762MOL0     H 2820   8.573   0.785   1.596  0.4802 -1.7502  2.6389
  762MOL0     H 2821   8.238   0.624   1.457  0.4948  0.4853 -0.2352
  762MOL0     H 2822   8.321   0.232   1.477  0.3351 -0.2224  0.4690
  762MOL0     H 2823   8.191   0.318   1.563 -2.6981  4.4335 -1.5647
  762MOL0     H 2824   8.102   0.273   1.359  0.8122 -0.8454  2.2818
  762MOL0     H 2825   8.118   0.444   1.355 -2.1198 -1.4456 -2.0255
  762MOL0     H 2826   8.321   0.275   1.200  0.1578  0.5719  0.6116
  762MOL0     H 2827   8.322   0.447   1.231  1.0277 -0.4972 -0.3862
  762MOL0     H 2828   8.238   0.446   1.020 -1.1723  0.8154 -0.2455
  762MOL0     H 2829   8.116   0.501   1.143  0.2571  0.7543  1.5418
  762MOL0     H 2830   8.082   0.473   0.822 -0.0148  1.1920 -1.2922
  762MOL0     H 2831   7.890   0.554   0.722  0.3336 -2.3527 -0.5663
  762MOL0     H 2832   7.375   0.726   1.059 -2.5624  0.2887 -0.6789
  762MOL0     H 2833   7.167   0.817   1.000 -0.2455 -0.3044  0.6397
  762MOL0     H 2834   6.984   0.766   0.592  0.1765 -0.2251  0.2128
  762MOL0     H 2835   6.922   0.625   0.681 -0.4861  0.4738  1.6733
  762MOL0     H 2836   6.835   0.911   0.718  3.5603 -0.3032 -0.0615
  762MOL0     H 2837   6.746   0.798   0.626 -3.6851  2.7196  2.4258
  762MOL0     H 2838   6.794   0.752   0.934  1.7909 -2.9924 -0.4565
  762MOL0     H 2839   6.655   0.830   0.870  0.1994 -0.9389  2.1846
  762MOL0     H 2840   6.680   0.569   0.939  3.3155 -0.0197  0.8022
  762MOL0     H 2841   6.747   0.538   0.785 -1.4490  1.0517 -2.6784
  762MOL0     H 2842   6.557   0.611   0.659  1.6315 -0.2771 -0.5672
  762MOL0     H 2843   6.483   0.678   0.807  0.4477 -0.0382  1.0287
  762MOL0     H 2844   6.508   0.393   0.703 -1.8324 -1.8461  0.5647
  762MOL0     H 2845   6.536   0.419   0.876 -1.2133  0.8570 -0.1553
  762MOL0     H 2846   6.295   0.536   0.723 -4.0939 -0.0772  1.8610
  762MOL0     H 2847   6.328   0.517   0.900  0.0824 -3.1418  2.3876
  762MOL0     H 2848   6.289   0.292   0.691  2.0936  1.3718 -0.9762
  762MOL0     H 2849   6.312   0.262   0.862  1.2534 -1.6469 -2.2479
  762MOL0     H 2850   7.180   0.629   0.615 -0.7541  4.5913 -1.5135
  762MOL0     H 2851   7.406   0.562   0.652 -0.3709 -0.4376  0.1532
  762MOL0     H 2852   7.642   0.399   1.034 -0.3548  2.7357  0.5548
  762MOL0     H 2853   7.854   0.310   1.160  0.2688  3.6630  2.1874
  762MOL0     H 2854   7.718   0.894   2.337  0.6461  0.5250 -0.8426
  762MOL0     H 2855   7.638   0.910   2.589 -0.0558  0.3510 -1.2298
  762MOL0     H 2856   7.969   0.906   3.073 -0.2201 -2.5916 -0.6327
  762MOL0     H 2857   7.920   0.909   3.312  0.3936 -0.0409  1.2502
  762MOL0     H 2858   7.727   0.791   3.520  0.1177 -3.0125 -2.2300
  762MOL0     H 2859   7.639   0.751   3.382  0.1278 -0.2506 -0.5818
  762MOL0     H 2860   7.476   0.944   3.514 -2.6492  0.3961  2.9972
  762MOL0     H 2861   7.555   0.843   3.636 -0.9070  1.1801 -0.3852
  762MOL0     H 2862   7.456   0.644   3.531 -2.3749 -0.3890  2.0876
  762MOL0     H 2863   7.396   0.755   3.396 -1.4411  3.3374  0.6937
  762MOL0     H 2864   7.313   0.831   3.670  0.9703  2.2043 -1.4894
  762MOL0     H 2865   7.251   0.869   3.503 -1.3013 -3.2005 -2.7040
  762MOL0     H 2866   7.037   0.501   3.623 -1.5656  0.6723 -1.2288
  762MOL0     H 2867   7.519   1.037   3.220 -0.4522 -0.0836 -1.6912
  762MOL0     H 2868   7.519   1.128   2.901  0.7698 -0.8019 -0.4745
  762MOL0     H 2869   7.507   0.956   2.875  0.1199  0.5986  0.3292
  762MOL0     H 2870   7.424   1.027   3.020 -1.8144  3.0469 -0.5397
  763MOL0     O 2871   3.630   7.787   8.086  0.1545 -0.4267  0.2896
  763MOL0     C 2872   3.626   7.664   8.095  0.9769 -0.4328  0.7659
  763MOL0     O 2873   3.729   7.575   8.124 -0.4553  0.3200  0.1102
  763MOL0     C 2874   3.843   7.637   8.172  0.8824 -0.3060  0.5742
  763MOL0     C 2875   3.956   7.651   8.097 -0.1461 -0.1495  0.2631
  763MOL0     C 2876   4.074   7.702   8.152 -0.0569 -0.3438 -0.0117
  763MOL0     C 2877   4.083   7.754   8.280  0.3860  0.5425 -0.6713
  763MOL0     O 2878   4.198   7.795   8.341  0.2663 -0.0598  0.4524
  763MOL0     C 2879   4.212   7.847   8.469 -0.3862  0.2652 -0.0954
  763MOL0     C 2880   4.359   7.872   8.489 -0.4938 -0.0123  0.4962
  763MOL0     C 2881   4.454   7.883   8.370 -0.9593 -0.1567  0.1884
  763MOL0     C 2882   4.600   7.886   8.417 -0.3754  0.4535 -0.5367
  763MOL0     C 2883   4.702   7.860   8.312  0.6072  0.4923  0.1121
  763MOL0     C 2884   4.836   7.891   8.366  0.0832 -0.0020  0.3116
  763MOL0     C 2885   4.890   7.790   8.467 -0.4617  0.0233 -0.4277
  763MOL0     C 2886   5.035   7.827   8.515  1.3046  0.8419  0.7679
  763MOL0     N 2887   5.120   7.862   8.394  0.5673  0.2304 -1.9050
  763MOL0     C 2888   5.205   7.772   8.318  0.5678 -0.7872  0.5453
  763MOL0     C 2889   5.256   7.849   8.212  0.1653  0.5547 -0.7153
  763MOL0     C 2890   5.328   7.798   8.095  0.6816 -0.2461 -0.5832
  763MOL0     C 2891   5.483   7.821   8.114  0.3421 -0.1535 -0.0051
  763MOL0     C 2892   5.522   7.967   8.103 -0.5478  0.0234 -0.2949
  763MOL0     C 2893   5.483   8.028   7.967  1.2943 -0.4848 -0.3119
  763MOL0     O 2894   5.511   7.952   7.848 -0.0567  0.0181  0.5587
  763MOL0     C 2895   5.639   7.964   7.799  1.1787 -0.5973  0.6505
  763MOL0     C 2896   5.745   8.038   7.851 -0.5111  0.4047 -0.8344
  763MOL0     C 2897   5.865   8.048   7.779 -0.2911  0.2946 -0.4468
  763MOL0     C 2898   5.882   7.976   7.660 -0.5259 -0.8652 -0.8899
  763MOL0     C 2899   6.011   7.976   7.597  0.1450 -0.9030  0.1280
  763MOL0     O 2900   6.100   8.082   7.614  0.3634  0.4191  0.7576
  763MOL0     C 2901   6.195   8.098   7.518 -0.3545 -0.2905 -1.2088
  763MOL0     C 2902   6.182   8.074   7.381 -1.1648 -0.7765  0.3495
  763MOL0     C 2903   6.298   8.097   7.302  0.1522 -0.2508 -0.1275
  763MOL0     C 2904   6.420   8.139   7.350  0.2368  0.3972  0.1766
  763MOL0     O 2905   6.528   8.139   7.263 -0.3212  0.0276 -0.4203
  763MOL0     C 2906   6.665   8.173   7.314 -0.0845  0.7398 -0.1031
  763MOL0     C 2907   6.769   8.173   7.199 -0.0894 -0.0561 -0.8526
  763MOL0     C 2908   6.907   8.208   7.253 -0.2920 -0.0104  0.0009
  763MOL0     C 2909   7.023   8.210   7.152 -0.0435  0.0074  0.7281
  763MOL0     C 2910   7.148   8.249   7.231  0.4076  0.2699  0.6696
  763MOL0     C 2911   7.197   8.135   7.325 -0.1270 -0.4709 -0.7864
  763MOL0     C 2912   7.342   8.162   7.369  0.2230 -0.2616  0.8604
  763MOL0     C 2913   7.414   8.052   7.451  0.2409  1.0169  0.0675
  763MOL0    Cl 2914   7.316   7.983   7.580 -0.0885  0.3136  0.0922
  763MOL0     C 2915   6.435   8.168   7.490 -0.0531  0.2578 -0.0870
  763MOL0     C 2916   6.325   8.136   7.569  0.6944  0.0231 -0.3953
  763MOL0     O 2917   6.043   7.870   7.546 -0.2632 -0.5593 -0.5488
  763MOL0     C 2918   5.779   7.901   7.610  0.9767 -1.1520  0.4736
  763MOL0     C 2919   5.660   7.895   7.684  0.9586  0.9029  0.5687
  763MOL0     N 2920   5.212   7.988   8.247  0.2421  0.1984  0.2225
  763MOL0     N 2921   5.139   7.988   8.345  0.2520  0.0151 -0.9985
  763MOL0     C 2922   3.968   7.733   8.353  0.0874  0.4874  0.2189
  763MOL0     C 2923   3.847   7.689   8.301 -1.0381  0.4508 -0.0735
  763MOL0     C 2924   3.497   7.601   8.081  0.9121 -0.6303  0.0621
  763MOL0     C 2925   3.402   7.663   8.154 -0.7143  0.4400 -0.5516
  763MOL0     C 2926   3.268   7.624   8.141  0.0219  0.6402  0.2155
  763MOL0     C 2927   3.236   7.514   8.061  0.4227  0.6086 -0.1347
  763MOL0     O 2928   3.107   7.482   8.047 -0.6006  1.0327  0.6514
  763MOL0     C 2929   3.047   7.544   7.928 -0.9135 -0.3323  0.0414
  763MOL0     C 2930   2.985   7.433   7.841  0.1318 -0.6346  0.1183
  763MOL0     C 2931   2.899   7.344   7.928 -0.9806 -0.3143  0.2770
  763MOL0     C 2932   2.841   7.238   7.842 -0.5927 -0.6009  0.1764
  763MOL0     C 2933   2.743   7.152   7.914 -1.4935 -0.2305  0.0586
  763MOL0     C 2934   2.665   7.090   7.975  0.2110  0.4454 -0.3523
  763MOL0     C 2935   3.333   7.449   7.988  0.2632  0.6594  0.1922
  763MOL0     C 2936   3.463   7.490   8.007  0.5235  0.4410  0.3132
  763MOL0     C 2937   3.570   7.426   7.923 -0.6459 -0.1635 -0.0246
  763MOL0     H 2938   3.959   7.613   7.996  5.9723  2.9931 -1.2279
  763MOL0     H 2939   4.170   7.699   8.101  0.8637 -0.0206  1.6515
  763MOL0     H 2940   4.156   7.940   8.487  0.2731  0.1894  2.8596
  763MOL0     H 2941   4.179   7.771   8.540 -1.9062  2.5462  1.7682
  763MOL0     H 2942   4.392   7.790   8.553 -0.6471  1.3063  2.3607
  763MOL0     H 2943   4.367   7.964   8.548  0.7627  0.9207 -1.0123
  763MOL0     H 2944   4.447   7.978   8.316  1.8305 -0.0456 -0.1321
  763MOL0     H 2945   4.448   7.803   8.296  1.0902  2.4280 -3.1107
  763MOL0     H 2946   4.614   7.992   8.441 -2.9371  1.1003 -1.6193
  763MOL0     H 2947   4.618   7.821   8.503 -0.8149  0.6842 -0.2640
  763MOL0     H 2948   4.695   7.757   8.276 -2.5889  0.4642  0.5156
  763MOL0     H 2949   4.685   7.927   8.227 -0.9456 -1.7575 -1.4504
  763MOL0     H 2950   4.901   7.880   8.278 -1.3327  1.8191 -1.0464
  763MOL0     H 2951   4.846   7.990   8.411 -0.3808  0.3448 -0.3297
  763MOL0     H 2952   4.883   7.687   8.432 -0.1264 -0.2651  0.3406
  763MOL0     H 2953   4.825   7.773   8.554 -0.1115 -2.0518 -0.5236
  763MOL0     H 2954   5.030   7.916   8.578  0.9028  1.0405  0.4588
  763MOL0     H 2955   5.085   7.754   8.580 -0.2076 -0.1130  0.9067
  763MOL0     H 2956   5.213   7.664   8.314 -1.5646 -0.9385 -0.9153
  763MOL0     H 2957   5.307   7.691   8.085  3.5637 -0.9975  0.3112
  763MOL0     H 2958   5.296   7.847   8.003 -0.8050  0.8585  0.4762
  763MOL0     H 2959   5.521   7.778   8.207 -2.3863 -2.2057  0.3019
  763MOL0     H 2960   5.539   7.768   8.036 -1.0030  2.6515 -3.1109
  763MOL0     H 2961   5.630   7.985   8.101 -0.5907  0.2738 -0.3932
  763MOL0     H 2962   5.471   8.028   8.178  0.0053  0.1949 -0.0550
  763MOL0     H 2963   5.533   8.125   7.954  1.4610 -0.9220 -3.8951
  763MOL0     H 2964   5.374   8.040   7.964  1.4736  2.5627  1.1022
  763MOL0     H 2965   5.748   8.076   7.953 -0.9605 -1.7499  0.0360
  763MOL0     H 2966   5.940   8.115   7.819 -1.4738  1.4312 -0.0715
  763MOL0     H 2967   6.092   8.029   7.342 -1.1950 -1.3681  1.0721
  763MOL0     H 2968   6.294   8.077   7.195 -1.0762 -0.5045 -0.0471
  763MOL0     H 2969   6.656   8.270   7.363 -4.7585  1.4213 -1.8317
  763MOL0     H 2970   6.686   8.096   7.390  2.6414  0.0413 -1.4132
  763MOL0     H 2971   6.763   8.074   7.154 -0.8071  0.3387 -1.6469
  763MOL0     H 2972   6.736   8.245   7.123 -0.2187  2.1153  1.1269
  763MOL0     H 2973   6.901   8.309   7.295  4.0164  1.6648 -2.8076
  763MOL0     H 2974   6.928   8.147   7.342 -0.9919  1.3549  1.1386
  763MOL0     H 2975   7.003   8.283   7.074 -1.6442 -1.0534  0.1018
  763MOL0     H 2976   7.041   8.110   7.111 -2.8000 -0.4919  0.5576
  763MOL0     H 2977   7.119   8.345   7.274 -1.1905  0.7901 -1.3716
  763MOL0     H 2978   7.230   8.263   7.160  2.1205  0.5112  2.6112
  763MOL0     H 2979   7.121   8.126   7.404 -2.5951  0.6288 -2.8947
  763MOL0     H 2980   7.213   8.043   7.269  0.5013 -1.8897  1.5882
  763MOL0     H 2981   7.334   8.254   7.428  1.6059  1.3906 -1.3959
  763MOL0     H 2982   7.408   8.177   7.284  0.0165 -1.4936  0.4626
  763MOL0     H 2983   7.439   7.974   7.378  0.6853  0.9689  0.2708
  763MOL0     H 2984   7.503   8.086   7.504  0.1975  0.4876  0.4931
  763MOL0     H 2985   6.527   8.212   7.526  0.3870 -1.3226  0.8359
  763MOL0     H 2986   6.352   8.161   7.671  0.3948 -0.2083 -0.2577
  763MOL0     H 2987   5.788   7.844   7.518 -2.1051 -0.6302 -0.2478
  763MOL0     H 2988   5.577   7.835   7.649  1.7223  0.0374  0.2150
  763MOL0     H 2989   3.977   7.769   8.455 -2.0839 -0.7083  0.9041
  763MOL0     H 2990   3.762   7.681   8.367 -2.3225  0.4648 -1.6566
  763MOL0     H 2991   3.424   7.760   8.196  1.6921 -0.7994  1.2923
  763MOL0     H 2992   3.185   7.676   8.187  0.7921  3.6279 -1.5362
  763MOL0     H 2993   3.123   7.599   7.873 -0.6435  1.0136  1.6841
  763MOL0     H 2994   2.979   7.622   7.963 -0.7215  0.2141 -0.7784
  763MOL0     H 2995   3.056   7.387   7.772 -0.6621  0.9788 -1.9013
  763MOL0     H 2996   2.924   7.486   7.767 -1.1529  0.4788  1.8864
  763MOL0     H 2997   2.811   7.406   7.948 -0.0395  2.2752 -2.7390
  763MOL0     H 2998   2.953   7.308   8.016  2.3048 -0.1135 -1.4774
  763MOL0     H 2999   2.798   7.291   7.757 -1.8017 -2.0220 -0.1382
  763MOL0     H 3000   2.914   7.165   7.807 -0.0578 -0.6822  1.4076
  763MOL0     H 3001   2.584   7.045   8.028 -0.0279 -0.6201 -1.5825
  763MOL0     H 3002   3.312   7.359   7.933  0.5111  0.0599  1.0601
  763MOL0     H 3003   3.534   7.402   7.822  4.5444 -0.8689 -2.0427
  763MOL0     H 3004   3.661   7.487   7.916 -0.7246 -0.0745 -0.3195
  763MOL0     H 3005   3.603   7.328   7.957  0.6487  0.3507  0.2660
  764MOL0     O 3006   9.817   5.820  10.900 -0.5702  0.2306 -0.3160
  764MOL0     C 3007   9.775   5.863  10.794 -0.9175  0.7983 -0.2515
  764MOL0     O 3008   9.840   5.961  10.722  0.8153 -0.2810  0.5891
  764MOL0     C 3009   9.976   5.967  10.700 -0.7446 -0.9343 -1.1231
  764MOL0     C 3010  10.033   6.096  10.684  0.4823  0.6699  0.7808
  764MOL0     C 3011  10.167   6.114  10.678  0.3050 -0.1149 -0.9822
  764MOL0     C 3012  10.256   6.010  10.684 -0.3946 -0.4190  0.5267
  764MOL0     O 3013  10.388   6.037  10.688 -0.1448 -0.3936 -0.0481
  764MOL0     C 3014  10.479   5.949  10.617 -0.1057 -0.1679 -0.3113
  764MOL0     C 3015  10.608   6.027  10.599  0.2605 -0.0602  0.9707
  764MOL0     C 3016  10.702   5.960  10.504 -0.3503 -0.5576 -0.2909
  764MOL0     C 3017  10.850   5.998  10.536  0.0204 -0.4914  0.0619
  764MOL0     C 3018  10.945   5.908  10.455  0.1108  0.8224 -0.2027
  764MOL0     C 3019  11.087   5.934  10.503  0.0990 -0.3201  0.1878
  764MOL0     C 3020  11.197   5.854  10.430 -0.8130 -0.0749  0.3152
  764MOL0     C 3021  11.329   5.869  10.500 -0.1830 -0.1223 -0.5632
  764MOL0     N 3022  11.400   5.992  10.490 -0.7398 -0.9674  0.2540
  764MOL0     C 3023  11.380   6.111  10.559 -0.0069  0.0726 -0.2727
  764MOL0     C 3024  11.463   6.192  10.497  0.3954  0.5307  0.8066
  764MOL0     C 3025  11.477   6.342  10.521 -0.4351  0.6243  0.1635
  764MOL0     C 3026  11.587   6.378  10.615 -0.3733  0.0399  0.1264
  764MOL0     C 3027  11.732   6.324  10.592  0.0536  0.3153 -0.4517
  764MOL0     C 3028  11.783   6.362  10.446 -0.4831  0.0520  0.0353
  764MOL0     O 3029  11.928   6.341  10.443  0.1109  0.5294 -0.4584
  764MOL0     C 3030  12.003   6.401  10.344 -0.1533  0.7367 -0.0462
  764MOL0     C 3031  12.139   6.386  10.371 -0.2491 -0.0250  0.2827
  764MOL0     C 3032  12.230   6.441  10.283  1.2374 -1.1261 -0.4156
  764MOL0     C 3033  12.184   6.532  10.178 -0.1233  0.9008  0.3305
  764MOL0     C 3034  12.278   6.606  10.093 -0.7848 -0.0073  0.0693
  764MOL0     O 3035  12.405   6.564  10.109 -0.2920  0.1555  0.7331
  764MOL0     C 3036  12.510   6.614  10.040 -0.7445  0.0100 -0.5769
  764MOL0     C 3037  12.520   6.597   9.905 -0.6403 -0.0696 -0.0929
  764MOL0     C 3038  12.627   6.641   9.837 -0.4607 -0.2724  0.9306
  764MOL0     C 3039  12.741   6.699   9.903 -0.0644  1.1376 -0.0345
  764MOL0     O 3040  12.864   6.735   9.836  0.2457  0.0489 -0.4546
  764MOL0     C 3041  12.972   6.806   9.898  0.2258 -1.6825  0.1325
  764MOL0     C 3042  13.029   6.919   9.811 -0.2809  0.4556 -0.4011
  764MOL0     C 3043  13.100   7.030   9.904  0.5759  1.0315 -0.8966
  764MOL0     C 3044  13.021   7.152   9.925 -0.2468  0.0346 -0.0129
  764MOL0     C 3045  13.098   7.252  10.008  0.6903 -0.7390 -0.2237
  764MOL0     C 3046  13.187   7.343   9.914  0.5520 -0.1232 -0.1410
  764MOL0     C 3047  13.325   7.391   9.984 -0.5434  0.1962 -0.1325
  764MOL0     C 3048  13.439   7.296   9.980 -0.4674  0.0332 -0.3504
  764MOL0    Cl 3049  13.419   7.150  10.082 -0.0563 -0.4841  0.0397
  764MOL0     C 3050  12.731   6.713  10.040 -0.0189 -0.2798 -0.0641
  764MOL0     C 3051  12.612   6.672  10.104 -0.5546 -0.1664 -0.9950
  764MOL0     O 3052  12.241   6.686  10.012  0.7730 -0.8984  0.5050
  764MOL0     C 3053  12.044   6.533  10.147 -1.1580 -0.6473  0.1892
  764MOL0     C 3054  11.958   6.460  10.222 -0.5022 -0.4656 -0.0504
  764MOL0     N 3055  11.531   6.128  10.399 -0.2653  0.4173  0.7794
  764MOL0     N 3056  11.493   6.010  10.393  0.1360  0.9333  0.3066
  764MOL0     C 3057  10.206   5.881  10.688  0.4775  0.2651 -0.7969
  764MOL0     C 3058  10.067   5.857  10.695 -0.2657 -0.5189 -1.2704
  764MOL0     C 3059   9.640   5.823  10.765  0.1081 -0.3861  0.2931
  764MOL0     C 3060   9.540   5.928  10.760 -0.4558  0.7478 -0.3778
  764MOL0     C 3061   9.399   5.895  10.747  0.4205  0.4329  0.5067
  764MOL0     C 3062   9.371   5.755  10.722  0.2648  0.2389 -0.0900
  764MOL0     O 3063   9.241   5.719  10.711  0.0912  0.0499  0.1939
  764MOL0     C 3064   9.208   5.641  10.592 -0.6503 -0.2850 -0.2558
  764MOL0     C 3065   9.223   5.719  10.458 -0.0927 -0.1228 -0.5225
  764MOL0     C 3066   9.138   5.841  10.461 -0.4063  0.0019 -0.5052
  764MOL0     C 3067   9.131   5.911  10.322  0.1499  0.0844  0.7848
  764MOL0     C 3068   9.243   5.998  10.287  0.0060  0.6440 -0.1958
  764MOL0     C 3069   9.342   6.053  10.251  0.1754 -0.3319 -0.3701
  764MOL0     C 3070   9.469   5.657  10.721  0.3852 -0.3243 -0.0488
  764MOL0     C 3071   9.604   5.690  10.745  0.1266  0.2112  0.4163
  764MOL0     C 3072   9.702   5.573  10.737 -0.0090  0.0674 -0.8394
  764MOL0     H 3073   9.956   6.172  10.689 -1.6412 -1.4064  1.0898
  764MOL0     H 3074  10.200   6.215  10.662  0.2931 -0.1052 -0.9466
  764MOL0     H 3075  10.484   5.850  10.663  0.0911  0.6444  1.4975
  764MOL0     H 3076  10.431   5.927  10.521 -0.7120  2.0100 -0.5564
  764MOL0     H 3077  10.654   6.034  10.699 -1.5473  2.0968  1.7328
  764MOL0     H 3078  10.585   6.125  10.557 -1.9921 -2.0762 -3.1268
  764MOL0     H 3079  10.668   5.975  10.401 -1.5674 -0.9537  0.0278
  764MOL0     H 3080  10.695   5.855  10.534 -1.5353 -0.4934 -0.2819
  764MOL0     H 3081  10.865   6.103  10.511 -0.7619 -0.9901 -2.9164
  764MOL0     H 3082  10.860   5.985  10.644 -1.2641 -1.1427  0.1289
  764MOL0     H 3083  10.909   5.805  10.466  0.8535  0.7947  3.0243
  764MOL0     H 3084  10.944   5.945  10.352  2.2373 -1.2776 -1.0745
  764MOL0     H 3085  11.108   6.041  10.510 -0.7720 -0.2331  1.9358
  764MOL0     H 3086  11.093   5.897  10.606 -0.6898 -2.6895 -0.5531
  764MOL0     H 3087  11.210   5.903  10.332  1.4495 -0.4808  0.3640
  764MOL0     H 3088  11.183   5.748  10.407  4.6637 -0.8767 -0.8092
  764MOL0     H 3089  11.313   5.852  10.607 -1.8934  1.0819 -0.5852
  764MOL0     H 3090  11.398   5.793  10.462 -0.7784 -1.0987  0.2847
  764MOL0     H 3091  11.308   6.120  10.639  2.1377 -0.9973  1.9020
  764MOL0     H 3092  11.495   6.379  10.420 -3.7192  3.1066  0.3300
  764MOL0     H 3093  11.379   6.374  10.559 -0.2312 -0.8081  2.0288
  764MOL0     H 3094  11.592   6.487  10.603 -0.2858 -0.2211 -3.2415
  764MOL0     H 3095  11.551   6.357  10.716  0.9469  3.0916  1.3631
  764MOL0     H 3096  11.727   6.218  10.618 -3.5932  0.5546  0.3014
  764MOL0     H 3097  11.806   6.372  10.657  0.7763  2.6820 -2.8081
  764MOL0     H 3098  11.754   6.463  10.416 -1.5027 -0.5719 -1.1527
  764MOL0     H 3099  11.736   6.295  10.374 -1.6952 -0.0495  0.8743
  764MOL0     H 3100  12.167   6.324  10.456  1.1522  0.5894  0.2869
  764MOL0     H 3101  12.332   6.459  10.313 -0.0734  5.3737  1.5214
  764MOL0     H 3102  12.427   6.570   9.855 -0.7571 -0.1795  0.1802
  764MOL0     H 3103  12.617   6.643   9.729  0.9946 -1.1653  0.7553
  764MOL0     H 3104  12.955   6.858   9.993 -1.1034  0.3231 -1.1270
  764MOL0     H 3105  13.050   6.731   9.916 -0.1867 -1.4641  3.6096
  764MOL0     H 3106  13.107   6.883   9.744 -0.1850 -2.2030  1.0126
  764MOL0     H 3107  12.953   6.958   9.742 -2.2727 -4.5746 -1.4567
  764MOL0     H 3108  13.120   6.989  10.003  0.7518 -0.0666 -1.3753
  764MOL0     H 3109  13.199   7.045   9.860  0.1973  1.5645 -1.5922
  764MOL0     H 3110  12.936   7.126   9.988 -3.4288  2.0507 -3.0980
  764MOL0     H 3111  12.981   7.199   9.835 -1.4572  4.5767  2.6215
  764MOL0     H 3112  13.146   7.198  10.089  0.7218 -2.6185 -1.4469
  764MOL0     H 3113  13.024   7.322  10.049  0.7742  1.1912 -3.0504
  764MOL0     H 3114  13.203   7.285   9.823 -3.2454 -2.0872  0.2334
  764MOL0     H 3115  13.139   7.440   9.898 -2.1951 -0.8703  2.4699
  764MOL0     H 3116  13.316   7.419  10.090 -1.0691  2.9406 -0.8041
  764MOL0     H 3117  13.362   7.481   9.933  1.9291 -0.9119 -0.4332
  764MOL0     H 3118  13.446   7.259   9.877 -1.3022  1.3785 -0.9051
  764MOL0     H 3119  13.528   7.354  10.008 -1.8404  1.5667  0.9917
  764MOL0     H 3120  12.812   6.758  10.096 -0.1164 -1.0727  0.7342
  764MOL0     H 3121  12.601   6.686  10.211  0.0397 -2.5135 -0.5752
  764MOL0     H 3122  12.008   6.582  10.057  1.0908 -2.4009 -1.7783
  764MOL0     H 3123  11.855   6.464  10.190 -0.6915 -0.1057  0.5965
  764MOL0     H 3124  10.266   5.790  10.685 -1.4000 -1.1161  0.6764
  764MOL0     H 3125  10.029   5.755  10.694  0.8283 -1.0238  1.3147
  764MOL0     H 3126   9.562   6.031  10.787 -0.6372  0.5984  0.3553
  764MOL0     H 3127   9.321   5.970  10.747  1.3844  1.5067  2.2080
  764MOL0     H 3128   9.102   5.619  10.603 -0.9607  1.0496 -0.4125
  764MOL0     H 3129   9.248   5.539  10.597 -2.9284 -1.1990  0.8637
  764MOL0     H 3130   9.179   5.658  10.379 -0.1237 -1.6464  0.5954
  764MOL0     H 3131   9.325   5.733  10.421  1.3991 -3.5925  1.6492
  764MOL0     H 3132   9.171   5.920  10.530 -0.7506  0.8786 -1.3224
  764MOL0     H 3133   9.041   5.807  10.499 -0.1396  0.0424  0.2246
  764MOL0     H 3134   9.107   5.845  10.239 -2.0265  0.5430  1.0083
  764MOL0     H 3135   9.040   5.971  10.331  0.9839  1.8018 -1.1669
  764MOL0     H 3136   9.435   6.097  10.221  1.1728 -2.2695 -0.2769
  764MOL0     H 3137   9.443   5.552  10.715  0.5677 -0.3844  0.1852
  764MOL0     H 3138   9.799   5.603  10.697 -0.0740  0.3914 -0.7597
  764MOL0     H 3139   9.727   5.552  10.842 -0.0652 -0.8483 -1.0086
  764MOL0     H 3140   9.672   5.478  10.692  1.7401 -2.0553  2.1107
  765MOL0     O 3141   7.315   2.540   5.109  0.5247 -0.1390  0.1313
  765MOL0     C 3142   7.301   2.506   4.990 -0.0483  0.4350 -0.0698
  765MOL0     O 3143   7.399   2.466   4.905 -0.3359  0.8775 -0.1709
  765MOL0     C 3144   7.535   2.470   4.930 -0.6646 -0.1056  0.5490
  765MOL0     C 3145   7.630   2.459   4.820 -0.0591 -0.4235 -0.3446
  765MOL0     C 3146   7.770   2.443   4.835  0.4769 -0.0244 -0.5123
  765MOL0     C 3147   7.821   2.464   4.968  0.4948 -0.8768  0.6003
  765MOL0     O 3148   7.960   2.459   4.976  0.3432  0.0560 -0.4561
  765MOL0     C 3149   8.011   2.507   5.105 -0.7013 -0.5526  0.7839
  765MOL0     C 3150   8.159   2.522   5.096 -0.6629 -0.4258  0.3592
  765MOL0     C 3151   8.217   2.582   4.966  1.1102  1.1366  0.6183
  765MOL0     C 3152   8.368   2.611   4.976  1.0516 -0.2940  0.6608
  765MOL0     C 3153   8.412   2.684   4.850 -0.1935  0.1138  0.6750
  765MOL0     C 3154   8.555   2.723   4.880 -1.3098 -0.1526 -0.0996
  765MOL0     C 3155   8.612   2.772   4.748  0.4992 -0.0468  0.6092
  765MOL0     C 3156   8.674   2.658   4.661  0.3947  0.2541 -0.1671
  765MOL0     N 3157   8.775   2.573   4.730  0.4343 -0.3566 -0.1965
  765MOL0     C 3158   8.902   2.608   4.763 -0.1999 -0.1982 -0.8499
  765MOL0     C 3159   8.963   2.490   4.788 -0.2724 -0.4012  0.1082
  765MOL0     C 3160   9.114   2.475   4.793  1.2526 -0.4158 -0.9230
  765MOL0     C 3161   9.155   2.362   4.886 -0.4176  0.1257  0.9096
  765MOL0     C 3162   9.167   2.403   5.030 -0.2251  0.4290 -0.6050
  765MOL0     C 3163   9.265   2.522   5.041 -0.1545 -0.1519  0.1529
  765MOL0     O 3164   9.384   2.506   4.954 -0.2907  0.5394 -1.0233
  765MOL0     C 3165   9.500   2.452   4.999  0.0178  0.2215  0.5023
  765MOL0     C 3166   9.597   2.434   4.903 -0.2239 -0.2846  0.0856
  765MOL0     C 3167   9.717   2.371   4.943  0.8215 -1.3071  0.1980
  765MOL0     C 3168   9.755   2.329   5.072  0.3164 -0.0414  0.1276
  765MOL0     C 3169   9.887   2.260   5.096  0.6732  0.3578  0.8721
  765MOL0     O 3170   9.917   2.222   5.220  0.7508  0.0282  0.1522
  765MOL0     C 3171  10.017   2.128   5.246 -0.1799 -0.3128 -0.5770
  765MOL0     C 3172  10.078   2.040   5.152  0.7208 -0.3206 -0.2375
  765MOL0     C 3173  10.165   1.945   5.209  0.2009 -0.3088 -0.1758
  765MOL0     C 3174  10.186   1.928   5.348 -0.3266  0.4233 -0.2538
  765MOL0     O 3175  10.295   1.844   5.386  0.4054  0.4269 -0.0286
  765MOL0     C 3176  10.383   1.900   5.489 -0.4802  0.2244  0.1796
  765MOL0     C 3177  10.520   1.838   5.473  0.6348 -0.5140  0.3732
  765MOL0     C 3178  10.588   1.893   5.350 -1.5664  0.0718 -0.4342
  765MOL0     C 3179  10.748   1.864   5.368 -0.6102 -0.2524  1.0849
  765MOL0     C 3180  10.829   1.980   5.313  0.5555 -0.1677  0.2844
  765MOL0     C 3181  10.955   1.930   5.248  0.5186  0.0729  0.6416
  765MOL0     C 3182  10.948   1.852   5.118  0.6798  0.4751  0.2870
  765MOL0     C 3183  11.074   1.817   5.052 -0.3071  0.2953  0.2041
  765MOL0    Cl 3184  11.171   1.693   5.146  0.1952  0.0642 -0.1926
  765MOL0     C 3185  10.121   2.020   5.435 -0.1343  0.0369 -0.1675
  765MOL0     C 3186  10.034   2.117   5.381 -0.8334  0.7890 -0.1301
  765MOL0     O 3187   9.960   2.245   4.998  0.4705  0.1083 -1.2462
  765MOL0     C 3188   9.659   2.359   5.170  0.0441 -0.2744 -0.9330
  765MOL0     C 3189   9.535   2.420   5.133  1.1450 -0.6687  0.6132
  765MOL0     N 3190   8.873   2.391   4.779  0.0504 -1.0978  0.4160
  765MOL0     N 3191   8.755   2.439   4.749  0.0651  0.8392  0.0979
  765MOL0     C 3192   7.726   2.481   5.072 -0.8453 -1.7864 -0.4890
  765MOL0     C 3193   7.587   2.481   5.064 -0.2963  0.7064  0.5884
  765MOL0     C 3194   7.160   2.517   4.939  0.4023  0.9810  0.1746
  765MOL0     C 3195   7.134   2.517   4.804  0.5376  0.5469  0.7241
  765MOL0     C 3196   7.008   2.512   4.752  0.5598 -0.0777  0.3072
  765MOL0     C 3197   6.902   2.537   4.836  0.0665  0.7454  0.0830
  765MOL0     O 3198   6.768   2.546   4.783 -0.3380 -0.6512  0.1354
  765MOL0     C 3199   6.718   2.464   4.683  0.0163  0.5063 -0.2135
  765MOL0     C 3200   6.713   2.324   4.736 -0.6334  0.1218  0.5987
  765MOL0     C 3201   6.651   2.227   4.629 -0.0012  0.6393  0.5565
  765MOL0     C 3202   6.501   2.236   4.599 -0.5416  0.3140 -0.0563
  765MOL0     C 3203   6.453   2.123   4.522  0.8537  0.1069  0.3755
  765MOL0     C 3204   6.426   2.028   4.448  0.0378  0.5665  0.6129
  765MOL0     C 3205   6.916   2.536   4.969  0.2543 -1.0222  0.0953
  765MOL0     C 3206   7.044   2.525   5.029  0.1426 -0.2779 -0.3309
  765MOL0     C 3207   7.053   2.552   5.179 -0.5383  0.1513 -0.9221
  765MOL0     H 3208   7.578   2.440   4.726 -1.7449 -0.0567  0.4806
  765MOL0     H 3209   7.834   2.434   4.748 -0.6053 -2.3070 -1.1413
  765MOL0     H 3210   7.963   2.605   5.113 -1.4987 -0.6589 -1.6469
  765MOL0     H 3211   7.976   2.443   5.185 -1.9511 -2.9544 -1.5196
  765MOL0     H 3212   8.209   2.426   5.112  0.6234  0.0470 -0.6474
  765MOL0     H 3213   8.180   2.594   5.175 -2.6205  0.2388  0.3339
  765MOL0     H 3214   8.162   2.673   4.940 -0.9473  0.3239  1.9193
  765MOL0     H 3215   8.190   2.519   4.880  0.1564 -2.6526  3.4126
  765MOL0     H 3216   8.373   2.680   5.061  2.4572  0.1418  0.2545
  765MOL0     H 3217   8.430   2.524   4.999  2.7202  0.1240 -1.9017
  765MOL0     H 3218   8.403   2.613   4.767 -0.7225  0.8790  0.0537
  765MOL0     H 3219   8.358   2.773   4.817  0.8113  0.6439  0.4189
  765MOL0     H 3220   8.582   2.797   4.956  1.3040  0.9527 -1.9367
  765MOL0     H 3221   8.605   2.629   4.905 -0.6283 -0.0518 -1.0306
  765MOL0     H 3222   8.694   2.839   4.775 -0.4981  0.1566  3.4453
  765MOL0     H 3223   8.542   2.823   4.682  2.6894  3.5437  0.7505
  765MOL0     H 3224   8.592   2.592   4.631 -0.4924 -0.0001  2.5894
  765MOL0     H 3225   8.724   2.694   4.570  0.9420  3.2094  1.1816
  765MOL0     H 3226   8.940   2.710   4.762 -0.2992  0.0257  3.1444
  765MOL0     H 3227   9.152   2.454   4.693  5.3241  0.8882  0.1166
  765MOL0     H 3228   9.150   2.577   4.816 -0.1859  0.8870 -3.9590
  765MOL0     H 3229   9.080   2.284   4.876  2.7165 -3.0280 -0.0166
  765MOL0     H 3230   9.249   2.318   4.851 -0.8920 -0.1723 -0.0165
  765MOL0     H 3231   9.204   2.319   5.090 -0.3708 -1.0795 -2.5276
  765MOL0     H 3232   9.064   2.420   5.062 -0.5477 -0.9270 -0.8630
  765MOL0     H 3233   9.287   2.533   5.147 -0.5199 -0.0001  0.2123
  765MOL0     H 3234   9.218   2.615   5.010 -1.3256  0.5734  3.6749
  765MOL0     H 3235   9.584   2.468   4.800  0.9813  1.9379  0.5951
  765MOL0     H 3236   9.792   2.362   4.865  0.5519  2.4265 -0.7029
  765MOL0     H 3237  10.053   2.036   5.047 -1.5781  1.3685  0.1455
  765MOL0     H 3238  10.227   1.885   5.143  3.4473  2.1336  0.4273
  765MOL0     H 3239  10.393   2.008   5.476 -1.1709  0.5896  2.2961
  765MOL0     H 3240  10.343   1.875   5.588  0.6462 -3.2211 -0.0910
  765MOL0     H 3241  10.580   1.864   5.561  2.4566  0.7736 -1.1534
  765MOL0     H 3242  10.502   1.731   5.463  0.4542 -0.6485  1.9339
  765MOL0     H 3243  10.544   1.854   5.258 -0.6287  1.9773 -1.7474
  765MOL0     H 3244  10.577   2.001   5.339 -0.1736  0.3300  0.3759
  765MOL0     H 3245  10.777   1.776   5.309  3.5208  2.2738 -1.1491
  765MOL0     H 3246  10.780   1.841   5.470 -0.2941 -2.2904  0.5617
  765MOL0     H 3247  10.858   2.042   5.399 -1.3973  1.0482  0.1361
  765MOL0     H 3248  10.777   2.045   5.242  0.9863  0.9273  0.9313
  765MOL0     H 3249  11.021   2.017   5.249  0.0436  0.4374  0.8518
  765MOL0     H 3250  11.000   1.859   5.318  1.5871  1.3720  1.3137
  765MOL0     H 3251  10.890   1.912   5.048  2.1511 -0.4610 -1.8352
  765MOL0     H 3252  10.903   1.754   5.132  2.0237 -0.3968 -1.1614
  765MOL0     H 3253  11.041   1.774   4.957  0.5943 -0.9666  0.4296
  765MOL0     H 3254  11.137   1.906   5.046  1.7832 -1.0854  0.7271
  765MOL0     H 3255  10.140   2.018   5.542  2.8716  2.1299 -0.5494
  765MOL0     H 3256   9.981   2.176   5.455 -0.4629 -0.1373  0.9038
  765MOL0     H 3257   9.681   2.332   5.273 -0.4222  1.3651 -0.3816
  765MOL0     H 3258   9.454   2.421   5.206 -0.1993 -1.7083 -0.7906
  765MOL0     H 3259   7.767   2.508   5.168 -2.3329  1.0908 -0.5458
  765MOL0     H 3260   7.525   2.470   5.152 -1.1738  0.5215 -0.0397
  765MOL0     H 3261   7.225   2.518   4.744  0.8219  3.2080  1.1191
  765MOL0     H 3262   6.982   2.509   4.647  0.0844  2.8818  0.2708
  765MOL0     H 3263   6.772   2.460   4.588  1.2947 -1.9095  0.5274
  765MOL0     H 3264   6.615   2.495   4.664 -0.8807 -1.1983  1.4505
  765MOL0     H 3265   6.656   2.330   4.829 -0.3927 -1.6112  0.8946
  765MOL0     H 3266   6.816   2.290   4.752 -0.4180  0.7075  0.4702
  765MOL0     H 3267   6.671   2.125   4.664  0.2921  0.0008 -1.3592
  765MOL0     H 3268   6.702   2.249   4.536 -0.3854 -0.0326  0.1789
  765MOL0     H 3269   6.440   2.239   4.690  0.6125 -0.2780  0.7602
  765MOL0     H 3270   6.491   2.330   4.544 -1.9571 -1.0039 -2.1944
  765MOL0     H 3271   6.391   1.946   4.388 -0.6944  0.6767  0.8747
  765MOL0     H 3272   6.825   2.555   5.025  1.0440 -0.7158  1.3171
  765MOL0     H 3273   7.105   2.464   5.217  1.3084  0.7131 -2.0326
  765MOL0     H 3274   7.111   2.645   5.191  3.7351 -1.7963 -3.8537
  765MOL0     H 3275   6.955   2.546   5.226 -1.1620 -4.1958 -2.3284
  766MOL0     O 3276   0.753   4.669   9.406 -0.9395  0.1593 -0.1829
  766MOL0     C 3277   0.733   4.652   9.527 -0.5383  0.4797 -0.2276
  766MOL0     O 3278   0.837   4.610   9.615 -0.3886 -0.3892  0.1437
  766MOL0     C 3279   0.974   4.633   9.593  1.1468 -1.0885  0.2562
  766MOL0     C 3280   1.056   4.542   9.659 -0.0964  0.1051 -0.3318
  766MOL0     C 3281   1.198   4.558   9.662 -0.2572 -0.5657  0.1509
  766MOL0     C 3282   1.266   4.656   9.585 -0.2434 -0.1697 -0.4209
  766MOL0     O 3283   1.402   4.697   9.591 -0.2016 -0.2662 -0.6255
  766MOL0     C 3284   1.498   4.626   9.666  0.0361 -0.1365 -1.4904
  766MOL0     C 3285   1.639   4.687   9.658 -0.3483  0.1711  0.1280
  766MOL0     C 3286   1.708   4.691   9.798 -0.7074  0.1917 -0.0724
  766MOL0     C 3287   1.856   4.701   9.778  0.2042 -0.5209 -0.7034
  766MOL0     C 3288   1.943   4.696   9.915  0.3901  0.1179  1.0685
  766MOL0     C 3289   2.087   4.710   9.868  0.0437 -0.1076 -0.5176
  766MOL0     C 3290   2.185   4.681   9.982 -0.8578  0.2811 -0.1449
  766MOL0     C 3291   2.226   4.812  10.056  0.3995  0.2032 -0.1506
  766MOL0     N 3292   2.353   4.820  10.123  0.4201  0.3034 -0.3073
  766MOL0     C 3293   2.482   4.863  10.081  0.1769  0.1068 -0.5894
  766MOL0     C 3294   2.568   4.830  10.185  0.1856 -1.2341 -0.8812
  766MOL0     C 3295   2.720   4.844  10.201  0.1846  0.7659  0.4128
  766MOL0     C 3296   2.773   4.741  10.300  0.4719 -0.5472  0.0877
  766MOL0     C 3297   2.932   4.766  10.332  0.1470 -0.9155 -0.2051
  766MOL0     C 3298   3.036   4.748  10.222  0.8312 -0.0657 -0.2705
  766MOL0     O 3299   3.163   4.723  10.281  0.0446 -0.0021  0.6013
  766MOL0     C 3300   3.270   4.762  10.205  0.6515 -0.5564 -1.2021
  766MOL0     C 3301   3.317   4.888  10.247 -0.0843 -0.5598 -0.3967
  766MOL0     C 3302   3.412   4.956  10.169  0.1292  0.3777 -0.4956
  766MOL0     C 3303   3.469   4.895  10.068 -1.2035  0.1766  0.8890
  766MOL0     C 3304   3.576   4.952   9.987 -0.7634 -0.0097  0.4665
  766MOL0     O 3305   3.684   4.871   9.955 -0.4622  0.1577 -0.4121
  766MOL0     C 3306   3.787   4.915   9.891  0.2916 -0.0678  0.6447
  766MOL0     C 3307   3.825   5.046   9.854  0.2257  0.7285  0.7376
  766MOL0     C 3308   3.934   5.058   9.765 -0.1336 -0.3528 -0.1171
  766MOL0     C 3309   4.029   4.951   9.744 -0.0732 -0.3237 -0.3301
  766MOL0     O 3310   4.147   4.972   9.678  1.2382 -0.0075 -0.0531
  766MOL0     C 3311   4.267   4.910   9.724 -0.9029 -0.2983 -0.1949
  766MOL0     C 3312   4.386   5.012   9.703 -0.3717 -0.4840  1.2811
  766MOL0     C 3313   4.429   5.003   9.557  0.0859  0.7176 -0.2518
  766MOL0     C 3314   4.530   5.112   9.540  0.4751 -0.1985 -1.1120
  766MOL0     C 3315   4.570   5.122   9.387 -0.6542  0.5072 -0.4876
  766MOL0     C 3316   4.664   5.241   9.362  0.3264  0.1059  0.3065
  766MOL0     C 3317   4.706   5.239   9.217 -0.8078  0.3191  0.7173
  766MOL0     C 3318   4.838   5.333   9.200  0.2512 -0.5245 -0.4899
  766MOL0    Cl 3319   4.986   5.253   9.267  0.4784 -0.0781  0.0828
  766MOL0     C 3320   3.991   4.824   9.793 -0.7281 -0.2951 -0.1472
  766MOL0     C 3321   3.872   4.808   9.856 -0.1682 -0.2134  0.3818
  766MOL0     O 3322   3.563   5.074   9.966  0.7363 -0.3632  0.2601
  766MOL0     C 3323   3.421   4.769  10.013  0.6272  0.5779 -1.1448
  766MOL0     C 3324   3.321   4.704  10.091 -0.6751  0.1847  0.7492
  766MOL0     N 3325   2.493   4.763  10.281 -0.3563  0.0033  0.2085
  766MOL0     N 3326   2.373   4.763  10.246 -0.4331  0.9158  0.3306
  766MOL0     C 3327   1.181   4.728   9.495 -0.7595 -0.0519 -0.1108
  766MOL0     C 3328   1.038   4.732   9.514 -1.5561 -0.6648 -0.8534
  766MOL0     C 3329   0.594   4.665   9.582 -1.1282 -0.6728  0.5135
  766MOL0     C 3330   0.576   4.594   9.699  0.0929 -0.5825  0.3916
  766MOL0     C 3331   0.446   4.590   9.752 -0.1525 -0.5000  0.3248
  766MOL0     C 3332   0.339   4.658   9.699  0.2716  0.2233  0.2004
  766MOL0     O 3333   0.217   4.665   9.766  0.1584 -0.2104  0.3302
  766MOL0     C 3334   0.097   4.615   9.703  0.3887  0.4525  0.1317
  766MOL0     C 3335   0.095   4.463   9.678 -0.4066  0.2035 -0.3830
  766MOL0     C 3336   0.106   4.384   9.813  0.4865 -0.4018 -0.4382
  766MOL0     C 3337   0.088   4.234   9.801 -0.4107 -0.5806  0.6951
  766MOL0     C 3338  -0.057   4.194   9.785 -0.4336 -0.4249  0.6650
  766MOL0     C 3339  -0.171   4.166   9.778 -0.0219  0.5005 -0.2424
  766MOL0     C 3340   0.359   4.726   9.577  0.0790 -0.0910  0.2270
  766MOL0     C 3341   0.487   4.737   9.520  0.5365 -0.3174 -0.4574
  766MOL0     C 3342   0.498   4.813   9.395  0.4070 -0.2183  0.5282
  766MOL0     H 3343   1.018   4.459   9.718 -2.3198  0.6294 -0.9395
  766MOL0     H 3344   1.259   4.502   9.732 -1.4225  0.1676  1.8015
  766MOL0     H 3345   1.465   4.618   9.770  2.4416  0.0179 -0.6714
  766MOL0     H 3346   1.490   4.525   9.625  1.1333 -1.4722  1.3830
  766MOL0     H 3347   1.625   4.790   9.623  0.9963  0.4896  0.4842
  766MOL0     H 3348   1.700   4.636   9.583  2.7564  2.8706  0.5795
  766MOL0     H 3349   1.695   4.595   9.849  1.1584  0.8630  1.8342
  766MOL0     H 3350   1.668   4.772   9.860  1.0709  1.0154  0.0703
  766MOL0     H 3351   1.897   4.623   9.714 -0.9743 -0.0269 -2.1137
  766MOL0     H 3352   1.876   4.793   9.722  0.7767 -0.9759 -1.2626
  766MOL0     H 3353   1.916   4.774   9.987 -2.0852  1.9335 -1.5778
  766MOL0     H 3354   1.935   4.594   9.954 -0.7159 -1.5719 -3.0168
  766MOL0     H 3355   2.112   4.641   9.787  1.6704 -0.2522  0.0714
  766MOL0     H 3356   2.088   4.807   9.818  1.2054 -0.3032 -0.9136
  766MOL0     H 3357   2.280   4.658   9.933  0.1311  1.3682  1.1691
  766MOL0     H 3358   2.158   4.600  10.051 -1.2056  1.6646  1.3883
  766MOL0     H 3359   2.218   4.897   9.988  1.6350  1.8165  1.6135
  766MOL0     H 3360   2.149   4.819  10.134 -0.1374 -0.8755 -0.5795
  766MOL0     H 3361   2.527   4.898   9.988  0.8001  0.1945 -0.2613
  766MOL0     H 3362   2.770   4.835  10.104 -0.7037 -1.1563  0.0911
  766MOL0     H 3363   2.733   4.946  10.238 -2.0767  1.4394 -0.4562
  766MOL0     H 3364   2.723   4.770  10.393  1.5042  1.0035  0.1980
  766MOL0     H 3365   2.754   4.636  10.277 -0.3379 -0.0300 -1.7943
  766MOL0     H 3366   2.949   4.687  10.406  1.0418 -2.1827 -1.7068
  766MOL0     H 3367   2.948   4.866  10.373  0.6952 -1.1835  0.2462
  766MOL0     H 3368   3.033   4.828  10.147 -2.3517 -1.8667 -2.3048
  766MOL0     H 3369   3.011   4.661  10.161  0.7013 -0.0599 -0.2265
  766MOL0     H 3370   3.278   4.939  10.334  2.3307  1.7841 -0.5504
  766MOL0     H 3371   3.456   5.049  10.203 -0.4295  0.8324 -0.9914
  766MOL0     H 3372   3.762   5.133   9.870  1.5487  2.5331 -2.7774
  766MOL0     H 3373   3.953   5.158   9.726 -1.1805  0.4243  1.2661
  766MOL0     H 3374   4.265   4.883   9.830  3.7232  1.3459  0.5458
  766MOL0     H 3375   4.286   4.827   9.656  1.8228 -0.5960  0.8018
  766MOL0     H 3376   4.359   5.117   9.720 -0.4005 -0.0344 -1.1619
  766MOL0     H 3377   4.471   4.982   9.765  0.7485  2.3975  1.3043
  766MOL0     H 3378   4.458   4.901   9.533 -3.8387  0.0593 -3.3033
  766MOL0     H 3379   4.337   5.013   9.497  0.3967 -3.2285 -1.6841
  766MOL0     H 3380   4.615   5.096   9.606 -0.5408 -0.9941  0.0528
  766MOL0     H 3381   4.478   5.205   9.566 -2.0547 -1.2070 -2.2062
  766MOL0     H 3382   4.482   5.132   9.323 -4.0828  2.4907  4.0008
  766MOL0     H 3383   4.627   5.032   9.362 -0.4505  0.6083 -0.3959
  766MOL0     H 3384   4.608   5.333   9.383 -0.9198 -0.6603  0.4711
  766MOL0     H 3385   4.746   5.245   9.434  1.9828  4.1198 -1.5184
  766MOL0     H 3386   4.627   5.285   9.158 -2.0601 -1.8672  0.6042
  766MOL0     H 3387   4.722   5.133   9.198 -1.1853  0.0737  1.7314
  766MOL0     H 3388   4.844   5.347   9.092  1.0756 -0.5414 -0.4518
  766MOL0     H 3389   4.821   5.429   9.251  2.0798  1.6183 -3.5731
  766MOL0     H 3390   4.055   4.742   9.763  1.1654  1.4041 -1.0021
  766MOL0     H 3391   3.849   4.705   9.883  1.2115 -0.6134  0.1357
  766MOL0     H 3392   3.454   4.734   9.916  0.3341 -0.5383 -0.8566
  766MOL0     H 3393   3.271   4.613  10.061  0.7494 -0.1571 -0.6804
  766MOL0     H 3394   1.229   4.794   9.423 -0.7406 -2.2974 -2.3126
  766MOL0     H 3395   0.990   4.816   9.466  1.1848  0.8830 -1.0982
  766MOL0     H 3396   0.649   4.522   9.732  3.0079  1.1736 -1.7801
  766MOL0     H 3397   0.428   4.518   9.831  0.8865  1.8850  2.8892
  766MOL0     H 3398   0.075   4.671   9.611  0.5134  0.9820  0.4235
  766MOL0     H 3399   0.012   4.644   9.765  0.1799 -2.0241  1.1174
  766MOL0     H 3400   0.184   4.437   9.619  0.1182  1.5114 -0.2032
  766MOL0     H 3401   0.001   4.438   9.628 -0.2561  1.1092 -1.1369
  766MOL0     H 3402   0.020   4.407   9.877 -0.7655 -2.3049 -1.3408
  766MOL0     H 3403   0.198   4.407   9.867 -1.0518  0.9325  1.7373
  766MOL0     H 3404   0.154   4.183   9.730 -1.1454  0.4745 -0.8016
  766MOL0     H 3405   0.123   4.195   9.897  2.8003  1.0793  0.3250
  766MOL0     H 3406  -0.276   4.145   9.782 -0.2531  1.6274  0.2020
  766MOL0     H 3407   0.275   4.779   9.533  0.5670  0.0207 -0.5866
  766MOL0     H 3408   0.492   4.736   9.318 -6.4411 -0.8871  1.1235
  766MOL0     H 3409   0.419   4.888   9.388 -0.4444 -1.1573 -0.0770
  766MOL0     H 3410   0.597   4.860   9.385  0.6263 -1.1927 -3.2447
  767MOL0     O 3411  11.254   3.419   2.371  0.0713  0.2731 -0.2079
  767MOL0     C 3412  11.229   3.348   2.469  0.1633 -0.4779 -0.6956
  767MOL0     O 3413  11.319   3.302   2.557  0.4811  0.6019  0.1674
  767MOL0     C 3414  11.448   3.336   2.535 -0.4822 -0.1239 -0.2702
  767MOL0     C 3415  11.536   3.228   2.494 -1.1726 -0.0619  0.1230
  767MOL0     C 3416  11.672   3.252   2.468 -0.7474 -0.7166  0.0127
  767MOL0     C 3417  11.726   3.387   2.495  0.0349  0.0573  0.3809
  767MOL0     O 3418  11.866   3.417   2.484  0.5372 -0.1509 -0.3494
  767MOL0     C 3419  11.957   3.303   2.471 -0.5227  0.1407  1.1814
  767MOL0     C 3420  12.100   3.358   2.447  0.3084  0.9546 -1.1851
  767MOL0     C 3421  12.122   3.392   2.309 -0.3352 -0.3221  0.0132
  767MOL0     C 3422  12.254   3.460   2.302 -0.7884 -0.0652  1.0436
  767MOL0     C 3423  12.302   3.493   2.162 -0.4803  1.3739 -0.6126
  767MOL0     C 3424  12.377   3.371   2.094  0.1795  0.1860 -0.5618
  767MOL0     C 3425  12.423   3.419   1.956  0.4263  0.3215 -0.6162
  767MOL0     C 3426  12.456   3.320   1.852  0.2774  0.8686 -0.1553
  767MOL0     N 3427  12.584   3.246   1.881 -0.1600  0.0776 -0.2392
  767MOL0     C 3428  12.706   3.299   1.845  0.1406 -0.6127 -0.3613
  767MOL0     C 3429  12.786   3.188   1.834  0.0956  0.7123  0.0844
  767MOL0     C 3430  12.933   3.179   1.784  0.4044 -0.6448  0.5788
  767MOL0     C 3431  12.937   3.146   1.634 -0.1997  0.3815 -0.4478
  767MOL0     C 3432  12.931   3.005   1.587  0.1489 -0.0845 -0.4669
  767MOL0     C 3433  13.052   2.921   1.619 -0.2618  0.7176  0.0839
  767MOL0     O 3434  13.047   2.796   1.548  0.5158  0.1269 -0.3012
  767MOL0     C 3435  13.165   2.734   1.571 -0.5089  0.3552 -0.6520
  767MOL0     C 3436  13.243   2.684   1.473 -0.1836  1.0033 -0.8953
  767MOL0     C 3437  13.366   2.631   1.493 -0.4636  0.1223  0.0817
  767MOL0     C 3438  13.404   2.608   1.624 -0.2779 -0.3635  0.5018
  767MOL0     C 3439  13.533   2.546   1.655  0.5683 -0.2212  0.2338
  767MOL0     O 3440  13.591   2.556   1.784  0.2921  0.1084  0.3117
  767MOL0     C 3441  13.704   2.498   1.810  0.3709  0.6537  0.3102
  767MOL0     C 3442  13.712   2.368   1.867 -0.1854  0.3914 -0.7279
  767MOL0     C 3443  13.833   2.298   1.888  0.1737  0.5266  0.4050
  767MOL0     C 3444  13.941   2.349   1.837 -0.0371 -0.8740  0.4349
  767MOL0     O 3445  14.057   2.281   1.831 -0.1743  0.3352 -0.2478
  767MOL0     C 3446  14.087   2.202   1.941 -0.4416  1.0254  0.2341
  767MOL0     C 3447  14.235   2.142   1.915 -0.3411  0.1056 -0.4208
  767MOL0     C 3448  14.270   2.074   2.051  0.0582 -0.0095  0.2856
  767MOL0     C 3449  14.388   1.974   2.038  0.1122  0.1044  0.2686
  767MOL0     C 3450  14.428   1.931   2.185  0.6112 -0.7184 -0.8643
  767MOL0     C 3451  14.545   1.842   2.190 -0.8659  0.3597 -0.1814
  767MOL0     C 3452  14.550   1.792   2.335 -0.7198 -0.6547 -0.1260
  767MOL0     C 3453  14.678   1.708   2.353  0.4850  0.0476 -0.3892
  767MOL0    Cl 3454  14.822   1.765   2.276  0.4587  0.0586  0.2827
  767MOL0     C 3455  13.941   2.471   1.773  0.4236  0.3956 -0.5688
  767MOL0     C 3456  13.828   2.548   1.760 -0.6065 -0.3001 -0.7548
  767MOL0     O 3457  13.576   2.478   1.565  0.6594  0.0495 -0.0939
  767MOL0     C 3458  13.318   2.636   1.731  0.6949  0.8824 -0.3520
  767MOL0     C 3459  13.199   2.698   1.701 -0.1680  0.8420  0.1195
  767MOL0     N 3460  12.718   3.082   1.885  0.2686  0.1073  0.2694
  767MOL0     N 3461  12.599   3.120   1.915 -0.7935  0.2564  0.1136
  767MOL0     C 3462  11.634   3.489   2.538 -0.0533 -0.0915  0.6760
  767MOL0     C 3463  11.501   3.459   2.562 -0.4546 -0.4468 -0.3139
  767MOL0     C 3464  11.096   3.293   2.494 -0.4231 -1.3918 -0.7320
  767MOL0     C 3465  11.075   3.199   2.598 -0.4429  0.3907 -0.0570
  767MOL0     C 3466  10.945   3.154   2.646 -0.8752 -0.7189 -0.6871
  767MOL0     C 3467  10.839   3.196   2.577  0.5154 -0.5252 -0.0245
  767MOL0     O 3468  10.707   3.154   2.592  0.1697  0.5738  0.6529
  767MOL0     C 3469  10.675   3.089   2.718  1.1158  0.9481 -1.0060
  767MOL0     C 3470  10.524   3.091   2.736  0.1874  0.4957  0.1677
  767MOL0     C 3471  10.480   3.226   2.786  0.4815  0.9812 -0.1529
  767MOL0     C 3472  10.332   3.225   2.845  0.1138  0.1062  0.1799
  767MOL0     C 3473  10.230   3.219   2.742  0.0750 -0.2722 -1.0483
  767MOL0     C 3474  10.146   3.204   2.660 -0.4009 -0.7469  0.1186
  767MOL0     C 3475  10.863   3.278   2.469 -0.1322 -0.2479  0.2850
  767MOL0     C 3476  10.985   3.333   2.426 -0.1760 -0.4341 -0.5255
  767MOL0     C 3477  10.976   3.423   2.308 -0.4350  0.3596  0.0771
  767MOL0     H 3478  11.492   3.132   2.468 -1.0009  0.4561 -2.3228
  767MOL0     H 3479  11.727   3.164   2.439 -1.2556 -1.2614  0.6741
  767MOL0     H 3480  11.965   3.236   2.557  2.3615 -0.9905  0.1959
  767MOL0     H 3481  11.942   3.227   2.393  2.0608 -0.0939  0.7997
  767MOL0     H 3482  12.163   3.273   2.475 -2.7762 -1.8206 -2.0497
  767MOL0     H 3483  12.131   3.439   2.514 -0.7129  0.6139 -0.2662
  767MOL0     H 3484  12.051   3.467   2.274  2.7084  1.8350 -2.0518
  767MOL0     H 3485  12.122   3.309   2.237  1.3313 -0.1534 -0.2125
  767MOL0     H 3486  12.231   3.553   2.356  0.0913  0.7674  0.0309
  767MOL0     H 3487  12.326   3.403   2.361 -0.8675  0.5598  1.7718
  767MOL0     H 3488  12.212   3.519   2.106 -2.4243 -1.5702  0.8696
  767MOL0     H 3489  12.372   3.577   2.156  1.9736 -0.5554 -0.7965
  767MOL0     H 3490  12.467   3.338   2.147  0.2942  0.7498 -0.3950
  767MOL0     H 3491  12.311   3.285   2.085 -0.2958  0.3302  1.1044
  767MOL0     H 3492  12.518   3.474   1.962 -0.2002  2.2540 -4.7761
  767MOL0     H 3493  12.356   3.487   1.903 -0.9869  0.8295  1.7126
  767MOL0     H 3494  12.382   3.239   1.850  2.1989 -1.0902 -3.9901
  767MOL0     H 3495  12.455   3.358   1.750 -1.1413 -1.4977 -1.1113
  767MOL0     H 3496  12.726   3.397   1.804 -1.2454  0.3396  1.1301
  767MOL0     H 3497  12.974   3.279   1.799 -1.2969  0.6553 -2.4798
  767MOL0     H 3498  12.994   3.106   1.837 -1.2800 -0.1126  3.4769
  767MOL0     H 3499  12.847   3.192   1.591 -1.1636 -1.3417 -0.3698
  767MOL0     H 3500  13.017   3.207   1.592 -2.2075  2.3463 -1.6644
  767MOL0     H 3501  12.918   3.000   1.479  1.4542 -1.7964 -0.5945
  767MOL0     H 3502  12.840   2.957   1.625  1.1149 -0.7215  1.1502
  767MOL0     H 3503  13.063   2.900   1.726  2.9704 -0.8703 -0.4554
  767MOL0     H 3504  13.144   2.974   1.593  1.0712 -1.3069  0.4515
  767MOL0     H 3505  13.204   2.698   1.373 -2.8607  3.7204  0.3757
  767MOL0     H 3506  13.420   2.587   1.409  0.1960  0.8660  0.0986
  767MOL0     H 3507  13.622   2.315   1.897  1.1892 -1.3730  0.5236
  767MOL0     H 3508  13.823   2.195   1.921 -1.2736  0.5092  0.0029
  767MOL0     H 3509  14.103   2.270   2.025 -2.7612 -1.5153  2.9858
  767MOL0     H 3510  14.021   2.125   1.982 -0.6004  3.3433  4.9831
  767MOL0     H 3511  14.234   2.065   1.837  3.7192 -2.8906  2.0660
  767MOL0     H 3512  14.308   2.221   1.894 -1.0847  0.6920 -0.8640
  767MOL0     H 3513  14.302   2.160   2.112  1.8989  0.3831 -1.1336
  767MOL0     H 3514  14.189   2.017   2.095  1.8878 -0.4022  3.4765
  767MOL0     H 3515  14.479   2.020   1.999  0.1505  2.1758  2.5020
  767MOL0     H 3516  14.365   1.894   1.968  1.0082  1.3037 -1.4701
  767MOL0     H 3517  14.340   1.877   2.219 -0.1386  0.9287 -0.0575
  767MOL0     H 3518  14.437   2.021   2.246 -2.1252  0.1654 -1.6180
  767MOL0     H 3519  14.530   1.752   2.131  0.9265 -0.2158  0.1744
  767MOL0     H 3520  14.632   1.898   2.153 -1.3487  0.8921 -0.5385
  767MOL0     H 3521  14.465   1.725   2.346 -1.3154 -0.4715 -2.9205
  767MOL0     H 3522  14.558   1.877   2.404 -0.7042 -0.1628 -0.7230
  767MOL0     H 3523  14.703   1.701   2.459 -0.9547 -0.1941 -0.0350
  767MOL0     H 3524  14.644   1.614   2.307 -0.7626  1.2718 -2.1309
  767MOL0     H 3525  14.035   2.509   1.734  0.6735 -0.0515 -0.4007
  767MOL0     H 3526  13.817   2.641   1.705  1.8116 -0.1639 -1.1136
  767MOL0     H 3527  13.350   2.618   1.833 -2.4875 -0.8661  0.4956
  767MOL0     H 3528  13.124   2.720   1.777 -1.8657 -3.6151  0.0503
  767MOL0     H 3529  11.662   3.591   2.560 -1.1068  0.5664 -0.8976
  767MOL0     H 3530  11.446   3.543   2.603  0.6728 -0.5203  1.4464
  767MOL0     H 3531  11.152   3.166   2.667 -0.8151 -0.2583  0.0558
  767MOL0     H 3532  10.942   3.079   2.725 -0.6633  2.2066  2.3038
  767MOL0     H 3533  10.732   3.138   2.797  0.2906 -0.5743  0.5998
  767MOL0     H 3534  10.704   2.984   2.708  0.0682  0.3363  1.5984
  767MOL0     H 3535  10.499   3.016   2.812 -1.7123 -4.2757 -4.4947
  767MOL0     H 3536  10.481   3.069   2.638 -1.8261  1.7910  0.6948
  767MOL0     H 3537  10.490   3.311   2.717 -0.4335  0.9202 -0.3681
  767MOL0     H 3538  10.538   3.241   2.877 -1.9050  0.0083  1.6209
  767MOL0     H 3539  10.321   3.135   2.906  1.1072  1.5493  2.6262
  767MOL0     H 3540  10.319   3.313   2.907 -2.3134 -0.0795  0.0259
  767MOL0     H 3541  10.073   3.203   2.581 -2.6139  1.8695  1.9081
  767MOL0     H 3542  10.777   3.289   2.404  0.0385 -3.5057 -0.7024
  767MOL0     H 3543  10.874   3.460   2.292 -0.8319 -0.4118  0.7552
  767MOL0     H 3544  11.039   3.509   2.330  1.6110 -1.2269  0.6441
  767MOL0     H 3545  11.010   3.357   2.228  0.1098  1.6445 -0.7969
  768MOL0     O 3546   2.450   6.507   5.327 -0.1334  0.5754 -0.3523
  768MOL0     C 3547   2.423   6.436   5.423  0.7541  0.4474  0.3451
  768MOL0     O 3548   2.510   6.373   5.510  0.2193 -0.1404 -0.6143
  768MOL0     C 3549   2.623   6.454   5.538  0.0598 -0.1541  1.3109
  768MOL0     C 3550   2.752   6.440   5.478 -0.2187  0.9851 -0.9636
  768MOL0     C 3551   2.856   6.533   5.501 -0.0144 -0.2867  0.2475
  768MOL0     C 3552   2.833   6.630   5.597  0.1847 -0.5848 -0.9372
  768MOL0     O 3553   2.933   6.711   5.642  0.0345  0.3380  0.1871
  768MOL0     C 3554   3.045   6.654   5.711  0.7718  0.0111  0.2667
  768MOL0     C 3555   3.130   6.762   5.787 -0.8801  0.2498 -0.3079
  768MOL0     C 3556   3.232   6.696   5.879 -0.0114  1.3265 -0.0304
  768MOL0     C 3557   3.331   6.788   5.947 -0.6830  0.2543 -0.0130
  768MOL0     C 3558   3.398   6.717   6.061 -0.1842  1.1098 -0.4764
  768MOL0     C 3559   3.502   6.795   6.136 -0.0802 -0.4007  0.2008
  768MOL0     C 3560   3.556   6.723   6.253 -0.4600 -0.2864 -0.1487
  768MOL0     C 3561   3.665   6.789   6.333 -0.0065  1.0764  0.3203
  768MOL0     N 3562   3.794   6.745   6.279 -0.3767  0.2136 -0.2500
  768MOL0     C 3563   3.871   6.792   6.171  0.0675  0.8573  0.0736
  768MOL0     C 3564   3.979   6.712   6.178 -0.1247  0.0992 -0.1019
  768MOL0     C 3565   4.105   6.716   6.088 -0.1541  0.2051  0.5631
  768MOL0     C 3566   4.210   6.808   6.155  0.0134 -0.1682  0.7328
  768MOL0     C 3567   4.329   6.820   6.062  0.3415  0.6109  0.6201
  768MOL0     C 3568   4.456   6.879   6.112  0.4599  0.4940 -0.8850
  768MOL0     O 3569   4.498   6.815   6.234 -0.6555  0.3157 -0.0992
  768MOL0     C 3570   4.626   6.852   6.272 -0.7325 -0.1175 -0.5485
  768MOL0     C 3571   4.689   6.780   6.364 -0.2496 -0.0162 -1.3356
  768MOL0     C 3572   4.824   6.805   6.412  0.3533  0.1574  0.1918
  768MOL0     C 3573   4.890   6.919   6.367 -0.3822  0.4021 -0.1546
  768MOL0     C 3574   5.025   6.956   6.405  0.3184  0.6668 -0.0876
  768MOL0     O 3575   5.069   7.075   6.370 -0.2695  0.0827  0.2693
  768MOL0     C 3576   5.209   7.082   6.387  0.3105  0.1878  0.7384
  768MOL0     C 3577   5.285   7.050   6.275  0.3217  0.1223  0.5477
  768MOL0     C 3578   5.418   7.040   6.287 -0.2180  0.2821  0.0161
  768MOL0     C 3579   5.483   7.065   6.413 -0.0759 -0.1134  0.9494
  768MOL0     O 3580   5.620   7.057   6.427  0.2408  0.4287  0.8496
  768MOL0     C 3581   5.702   7.046   6.313 -0.0036 -0.2207 -0.0498
  768MOL0     C 3582   5.841   7.076   6.349  0.0502  0.0273 -0.0448
  768MOL0     C 3583   5.864   7.224   6.369  0.3743  0.0403 -0.4321
  768MOL0     C 3584   5.823   7.319   6.263 -0.6677 -0.8640  0.4910
  768MOL0     C 3585   5.881   7.458   6.276 -0.2376 -0.7343  0.1308
  768MOL0     C 3586   5.833   7.541   6.160 -0.1131 -0.5014 -0.6975
  768MOL0     C 3587   5.871   7.684   6.163 -0.2101  0.2193 -0.8205
  768MOL0     C 3588   5.758   7.773   6.145  0.1870 -0.8116  0.1981
  768MOL0    Cl 3589   5.830   7.934   6.134 -0.8169 -0.0868  0.1554
  768MOL0     C 3590   5.408   7.112   6.524  1.0180  0.0022 -0.3031
  768MOL0     C 3591   5.267   7.127   6.506 -0.1905  0.1502 -0.7317
  768MOL0     O 3592   5.101   6.867   6.450 -0.3274 -0.7319 -0.0067
  768MOL0     C 3593   4.829   7.001   6.267 -0.2149 -0.0126  0.0591
  768MOL0     C 3594   4.703   6.958   6.225  1.2566 -0.7962 -0.5060
  768MOL0     N 3595   3.982   6.630   6.286  0.2022 -0.1920  0.8291
  768MOL0     N 3596   3.875   6.659   6.347 -0.8425 -0.4716 -0.0832
  768MOL0     C 3597   2.704   6.649   5.651 -0.1896 -0.4900  0.5786
  768MOL0     C 3598   2.605   6.561   5.614 -0.2224 -0.2566  0.6313
  768MOL0     C 3599   2.280   6.390   5.450  0.0635  0.7565  0.2150
  768MOL0     C 3600   2.257   6.275   5.541  0.5780  0.0298 -0.0817
  768MOL0     C 3601   2.128   6.227   5.557 -1.1813  0.4394 -0.1771
  768MOL0     C 3602   2.016   6.289   5.514 -0.7118 -0.4744 -0.9864
  768MOL0     O 3603   1.897   6.243   5.556  0.2873  0.5870 -0.1131
  768MOL0     C 3604   1.785   6.323   5.588  0.7612  0.0923  0.0849
  768MOL0     C 3605   1.804   6.392   5.723  0.3422  0.3364 -0.3383
  768MOL0     C 3606   1.674   6.465   5.757  0.4325 -0.1018  0.0392
  768MOL0     C 3607   1.685   6.525   5.897  0.2068  0.2600 -0.5374
  768MOL0     C 3608   1.586   6.635   5.905  1.1194  0.5819 -0.3930
  768MOL0     C 3609   1.511   6.726   5.907  0.6343  0.9602  0.2134
  768MOL0     C 3610   2.038   6.414   5.445 -0.0577  0.2748 -0.8027
  768MOL0     C 3611   2.163   6.460   5.408  0.1229  0.5655 -0.0290
  768MOL0     C 3612   2.173   6.585   5.326  0.6374 -0.1770 -0.7168
  768MOL0     H 3613   2.779   6.353   5.419  2.8707  1.3101 -0.1954
  768MOL0     H 3614   2.956   6.505   5.471 -0.5614 -2.0878 -0.0154
  768MOL0     H 3615   3.015   6.578   5.784  0.0526 -1.1609 -1.1838
  768MOL0     H 3616   3.103   6.607   5.630 -1.4081  0.3703 -1.5925
  768MOL0     H 3617   3.062   6.829   5.840 -1.3437  3.3544 -4.3011
  768MOL0     H 3618   3.191   6.822   5.719  0.9679  0.0193  1.0751
  768MOL0     H 3619   3.281   6.616   5.823 -0.9180  0.1115  0.8667
  768MOL0     H 3620   3.178   6.644   5.958 -2.1059  0.9742 -1.5908
  768MOL0     H 3621   3.403   6.826   5.873 -1.0315 -0.0093 -0.4901
  768MOL0     H 3622   3.276   6.877   5.980  0.8738  1.9858 -1.7774
  768MOL0     H 3623   3.322   6.686   6.134 -0.8346  1.4664 -0.9916
  768MOL0     H 3624   3.440   6.622   6.027  1.9099  1.6066  0.5561
  768MOL0     H 3625   3.583   6.810   6.065 -0.2630 -0.4616 -0.0190
  768MOL0     H 3626   3.470   6.889   6.181 -1.1722 -1.2002  1.1680
  768MOL0     H 3627   3.594   6.634   6.202 -0.8475  0.4695 -1.7990
  768MOL0     H 3628   3.478   6.703   6.327 -1.4430  3.3576  0.0202
  768MOL0     H 3629   3.660   6.898   6.338  1.7492  1.1227  2.1697
  768MOL0     H 3630   3.662   6.743   6.432  1.6514 -0.1413 -0.1613
  768MOL0     H 3631   3.850   6.871   6.099  0.8974 -0.3274 -1.5183
  768MOL0     H 3632   4.141   6.613   6.080 -3.0588 -0.7482 -2.0235
  768MOL0     H 3633   4.076   6.746   5.987  1.6608  0.6979  0.1536
  768MOL0     H 3634   4.169   6.905   6.185 -2.9085 -2.1039  3.5787
  768MOL0     H 3635   4.246   6.761   6.247  1.2782 -0.5111  0.0929
  768MOL0     H 3636   4.290   6.867   5.971 -1.3029 -4.0205 -1.3859
  768MOL0     H 3637   4.361   6.719   6.035  1.4806  1.2127 -0.3638
  768MOL0     H 3638   4.428   6.976   6.153 -0.5677  0.0057 -0.3871
  768MOL0     H 3639   4.535   6.886   6.037  0.7990 -0.9585 -0.6941
  768MOL0     H 3640   4.645   6.701   6.424 -0.9451 -0.2607 -2.1636
  768MOL0     H 3641   4.862   6.734   6.485 -2.1982  0.2875  1.7819
  768MOL0     H 3642   5.240   7.035   6.177  0.2646 -0.0650  0.6024
  768MOL0     H 3643   5.470   7.016   6.195 -0.9107  1.4372 -0.7023
  768MOL0     H 3644   5.698   6.943   6.277 -0.3224 -0.9400  1.9264
  768MOL0     H 3645   5.684   7.128   6.242  2.0885  3.7848  3.5983
  768MOL0     H 3646   5.864   7.009   6.432 -0.4509 -1.0542 -0.7428
  768MOL0     H 3647   5.917   7.049   6.275 -0.4390 -1.2639 -0.1126
  768MOL0     H 3648   5.816   7.250   6.464 -0.3390  0.4704 -0.8938
  768MOL0     H 3649   5.971   7.232   6.387  0.9199  2.0477 -3.6223
  768MOL0     H 3650   5.715   7.333   6.251 -0.5716 -0.7198 -0.2694
  768MOL0     H 3651   5.861   7.289   6.165 -0.0215 -4.0278  1.5964
  768MOL0     H 3652   5.990   7.458   6.270 -0.2332 -0.9044  0.2062
  768MOL0     H 3653   5.855   7.494   6.376  1.0075  0.9165 -0.0845
  768MOL0     H 3654   5.875   7.512   6.063 -1.5750  0.7135 -1.7471
  768MOL0     H 3655   5.725   7.535   6.181  0.2423  2.5714  3.0433
  768MOL0     H 3656   5.933   7.701   6.075 -0.0727 -1.3698 -1.0664
  768MOL0     H 3657   5.925   7.714   6.253 -0.2610 -0.4773 -0.5515
  768MOL0     H 3658   5.710   7.748   6.050  1.0967 -1.6159 -0.0633
  768MOL0     H 3659   5.689   7.775   6.230 -0.6569  0.1323 -0.4847
  768MOL0     H 3660   5.450   7.141   6.620 -2.0904  0.7509  0.9371
  768MOL0     H 3661   5.205   7.145   6.593  0.2773  1.9050 -0.7247
  768MOL0     H 3662   4.882   7.089   6.231 -1.9902  0.8932 -0.4761
  768MOL0     H 3663   4.655   7.023   6.153  0.7426  1.2083  1.5186
  768MOL0     H 3664   2.679   6.733   5.715 -2.7385 -2.3799  2.3202
  768MOL0     H 3665   2.505   6.595   5.638 -1.2716 -0.1206 -3.2102
  768MOL0     H 3666   2.338   6.224   5.591  2.1511  4.3462  2.3725
  768MOL0     H 3667   2.119   6.152   5.636  1.9554  0.3553  0.2031
  768MOL0     H 3668   1.692   6.266   5.592 -0.7238  2.2916 -1.1043
  768MOL0     H 3669   1.768   6.402   5.514  0.2432  1.7202  1.8248
  768MOL0     H 3670   1.880   6.468   5.742 -0.7868  0.9071  2.3534
  768MOL0     H 3671   1.821   6.309   5.792 -2.4696  0.8200  1.1009
  768MOL0     H 3672   1.593   6.391   5.751 -0.5203  0.9657 -0.6962
  768MOL0     H 3673   1.656   6.540   5.679 -0.3032 -1.1007 -0.7816
  768MOL0     H 3674   1.649   6.452   5.970 -2.4359 -2.3096 -4.0386
  768MOL0     H 3675   1.787   6.552   5.925 -0.6332  2.2635  0.8270
  768MOL0     H 3676   1.443   6.808   5.910 -0.0331  0.4579 -0.8115
  768MOL0     H 3677   1.958   6.472   5.401  0.6262 -0.0137 -2.5040
  768MOL0     H 3678   2.184   6.556   5.221 -0.7857 -2.6255 -0.2630
  768MOL0     H 3679   2.073   6.628   5.328  1.0814  0.8730  0.7694
  768MOL0     H 3680   2.257   6.646   5.362  1.8609 -2.4581  0.5135
  769MOL0     O 3681   9.739   4.962   2.383 -0.6355 -0.8890  0.3189
  769MOL0     C 3682   9.772   5.075   2.419 -0.0792  0.1502  0.2966
  769MOL0     O 3683   9.754   5.123   2.554  0.2166  0.0516 -0.6919
  769MOL0     C 3684   9.686   5.038   2.635 -0.7093 -0.3418 -0.9635
  769MOL0     C 3685   9.549   5.049   2.665 -0.2619 -0.1532  1.0018
  769MOL0     C 3686   9.475   4.966   2.748 -0.5657 -0.2044 -0.2180
  769MOL0     C 3687   9.538   4.854   2.800  0.2838  0.3755 -0.0802
  769MOL0     O 3688   9.473   4.758   2.872  0.1440 -0.0834  0.1135
  769MOL0     C 3689   9.475   4.621   2.818  0.9018 -0.3780  0.3038
  769MOL0     C 3690   9.379   4.608   2.697  0.1841  1.1050  0.5061
  769MOL0     C 3691   9.232   4.630   2.735 -0.1187  0.5995  0.5348
  769MOL0     C 3692   9.159   4.520   2.813  0.0038 -0.0762 -0.7491
  769MOL0     C 3693   9.009   4.540   2.810  0.1595 -0.0844 -0.0049
  769MOL0     C 3694   8.930   4.426   2.878 -0.3107 -0.5127  0.3265
  769MOL0     C 3695   8.775   4.439   2.881 -0.2013  0.0388  0.1562
  769MOL0     C 3696   8.704   4.299   2.878 -0.4822  0.4120 -0.1963
  769MOL0     N 3697   8.558   4.304   2.904 -0.0680 -0.7257 -0.0493
  769MOL0     C 3698   8.482   4.214   2.976 -0.5216 -0.6044  0.4119
  769MOL0     C 3699   8.350   4.229   2.956  0.1829  0.3553  0.7750
  769MOL0     C 3700   8.235   4.150   3.019 -0.8288 -0.0555 -0.3447
  769MOL0     C 3701   8.220   4.179   3.165 -0.4269  0.4960  0.1340
  769MOL0     C 3702   8.333   4.117   3.259 -0.4890 -0.4955 -0.5950
  769MOL0     C 3703   8.374   3.975   3.255  0.2458 -0.0210  0.3893
  769MOL0     O 3704   8.249   3.894   3.257 -0.7877 -0.3143 -0.3049
  769MOL0     C 3705   8.259   3.764   3.300 -0.1120  0.4058  0.1469
  769MOL0     C 3706   8.138   3.699   3.317 -0.7091  1.7611  0.0913
  769MOL0     C 3707   8.122   3.562   3.350  0.0572 -0.1696 -0.5437
  769MOL0     C 3708   8.237   3.483   3.355 -0.8202  0.1917 -0.1571
  769MOL0     C 3709   8.223   3.339   3.353  1.0624 -0.0358  0.6129
  769MOL0     O 3710   8.101   3.277   3.310  0.3283  0.3084  0.1721
  769MOL0     C 3711   8.106   3.136   3.292  0.1122 -0.0388  1.0681
  769MOL0     C 3712   8.171   3.040   3.382 -0.2237  0.5807  1.1882
  769MOL0     C 3713   8.173   2.905   3.352 -0.7565  0.3925 -0.6000
  769MOL0     C 3714   8.107   2.857   3.244 -0.2727 -0.8671 -0.2763
  769MOL0     O 3715   8.094   2.728   3.213 -0.7817  0.3728  0.8385
  769MOL0     C 3716   8.131   2.620   3.298  0.2614 -0.5404 -0.2124
  769MOL0     C 3717   8.131   2.481   3.236  0.4809 -0.8303 -0.2983
  769MOL0     C 3718   7.995   2.457   3.164 -0.2144  0.1415 -0.2072
  769MOL0     C 3719   7.998   2.307   3.132 -0.5967 -0.2695  0.2981
  769MOL0     C 3720   7.886   2.274   3.038  0.1701  0.4047  0.2494
  769MOL0     C 3721   7.894   2.128   2.967 -0.2271  0.0969  0.5934
  769MOL0     C 3722   7.896   2.014   3.069  0.2504  0.2566 -0.1253
  769MOL0     C 3723   7.881   1.872   3.006 -0.7687  0.1322 -0.0309
  769MOL0    Cl 3724   7.896   1.742   3.130 -0.2484 -0.0030  0.2789
  769MOL0     C 3725   8.040   2.950   3.161  0.4698 -0.2899 -1.2262
  769MOL0     C 3726   8.034   3.086   3.182 -0.4199  0.4588 -0.9844
  769MOL0     O 3727   8.318   3.276   3.398  0.0066 -0.3797  0.6064
  769MOL0     C 3728   8.367   3.547   3.335  1.0452 -0.8938  0.5362
  769MOL0     C 3729   8.377   3.686   3.310 -0.1939  0.6218  0.2842
  769MOL0     N 3730   8.344   4.346   2.883  0.2760 -0.1064  0.1029
  769MOL0     N 3731   8.464   4.386   2.848 -0.3442  0.2877 -0.5893
  769MOL0     C 3732   9.671   4.849   2.793  0.2230  0.3917 -0.0882
  769MOL0     C 3733   9.746   4.930   2.703 -0.1507 -0.0577  0.2668
  769MOL0     C 3734   9.810   5.180   2.318 -0.5432  0.9190 -0.7469
  769MOL0     C 3735   9.794   5.319   2.351 -0.5510  0.4663 -0.8817
  769MOL0     C 3736   9.825   5.414   2.261  0.2028 -0.3368  0.1045
  769MOL0     C 3737   9.871   5.379   2.133 -1.1421  0.0509 -0.4731
  769MOL0     O 3738   9.904   5.473   2.039  0.2785  0.4709 -0.6020
  769MOL0     C 3739   9.890   5.612   2.071  0.2412  0.6623  0.0653
  769MOL0     C 3740   9.974   5.696   1.975  1.1116 -0.4959 -0.3423
  769MOL0     C 3741  10.119   5.652   1.959  0.7101 -0.3952  0.3310
  769MOL0     C 3742  10.213   5.670   2.079  0.4202 -0.1580  0.0891
  769MOL0     C 3743  10.352   5.655   2.041  0.8900  0.1328 -0.1047
  769MOL0     C 3744  10.464   5.633   2.004 -0.7889  0.0743 -0.4671
  769MOL0     C 3745   9.894   5.249   2.106 -0.7689  0.1318 -0.4060
  769MOL0     C 3746   9.872   5.142   2.199 -0.6132 -0.7114  0.4582
  769MOL0     C 3747   9.926   5.006   2.170 -0.7432 -0.0175  0.2512
  769MOL0     H 3748   9.500   5.136   2.623 -0.7757 -1.0247 -0.2586
  769MOL0     H 3749   9.366   4.974   2.754 -0.4327  5.8791  0.7554
  769MOL0     H 3750   9.576   4.597   2.786  1.1447  2.5525 -1.4008
  769MOL0     H 3751   9.442   4.546   2.892 -0.9177 -4.8387 -4.4277
  769MOL0     H 3752   9.390   4.505   2.660 -3.5662  0.0532  1.8389
  769MOL0     H 3753   9.399   4.677   2.615 -4.2304 -1.6217 -3.3549
  769MOL0     H 3754   9.180   4.647   2.640  0.0681 -4.1339 -0.6485
  769MOL0     H 3755   9.223   4.720   2.796  1.3383  0.6527  0.6954
  769MOL0     H 3756   9.189   4.426   2.765  1.0507 -1.0402  1.6607
  769MOL0     H 3757   9.202   4.522   2.913  0.3589  0.3517 -0.9067
  769MOL0     H 3758   8.988   4.634   2.862  2.2493 -0.2765  1.3137
  769MOL0     H 3759   8.976   4.543   2.705  0.3639 -2.7764 -0.2102
  769MOL0     H 3760   8.956   4.336   2.822 -1.5958  0.1750 -1.4857
  769MOL0     H 3761   8.972   4.416   2.978  1.2860 -1.8798 -0.4270
  769MOL0     H 3762   8.750   4.487   2.786  3.2343  1.7541 -0.0278
  769MOL0     H 3763   8.746   4.488   2.975  0.9037  0.9754  0.0279
  769MOL0     H 3764   8.731   4.251   2.784  0.2367 -0.3645  0.3964
  769MOL0     H 3765   8.749   4.242   2.960 -2.0918  2.6200  2.4111
  769MOL0     H 3766   8.516   4.129   3.034 -0.6496 -1.6293 -0.9599
  769MOL0     H 3767   8.140   4.176   2.973  0.1904 -1.4051 -3.5381
  769MOL0     H 3768   8.247   4.041   3.018  1.6225  0.1365  0.6414
  769MOL0     H 3769   8.222   4.288   3.176 -3.3581  0.6413 -0.0923
  769MOL0     H 3770   8.119   4.152   3.195  0.0180 -0.9934  0.3572
  769MOL0     H 3771   8.309   4.157   3.358 -1.8609  1.4560 -1.6523
  769MOL0     H 3772   8.421   4.180   3.243 -0.2935 -0.2595  1.1959
  769MOL0     H 3773   8.449   3.954   3.331 -1.3992  0.5703  2.2505
  769MOL0     H 3774   8.430   3.951   3.164  1.3261  1.9745  0.4675
  769MOL0     H 3775   8.043   3.750   3.303 -1.7092  0.0021  0.1408
  769MOL0     H 3776   8.021   3.522   3.344 -1.2583  3.0797 -3.1164
  769MOL0     H 3777   8.223   3.067   3.474  1.2575  0.2624  0.4726
  769MOL0     H 3778   8.229   2.843   3.422 -0.2474  1.4749 -0.0236
  769MOL0     H 3779   8.234   2.630   3.336  0.0992 -0.6752  0.2728
  769MOL0     H 3780   8.061   2.628   3.382  2.4285  2.1989  1.5369
  769MOL0     H 3781   8.209   2.486   3.159  1.5536  0.8173  0.8214
  769MOL0     H 3782   8.166   2.405   3.306  4.2554  1.2861  0.3885
  769MOL0     H 3783   7.921   2.480   3.241  2.3907 -1.7034  3.1346
  769MOL0     H 3784   7.983   2.518   3.074 -2.1829 -3.3682 -2.5233
  769MOL0     H 3785   7.996   2.247   3.224  1.8456  2.6886  2.4684
  769MOL0     H 3786   8.089   2.282   3.076 -0.8311 -0.1499 -0.1373
  769MOL0     H 3787   7.878   2.351   2.961 -2.0910  1.3462  1.3503
  769MOL0     H 3788   7.795   2.277   3.099  0.8826  2.8383  1.3084
  769MOL0     H 3789   7.807   2.105   2.905 -0.5776 -3.7117  2.2419
  769MOL0     H 3790   7.981   2.121   2.900  0.2137 -0.6930  1.2342
  769MOL0     H 3791   7.810   2.034   3.132 -0.6288  1.0978 -1.5385
  769MOL0     H 3792   7.986   2.009   3.132  1.2844  0.1228 -1.5454
  769MOL0     H 3793   7.786   1.862   2.953  0.2308 -1.7489 -1.5782
  769MOL0     H 3794   7.961   1.870   2.931  2.4871  2.3617  3.0333
  769MOL0     H 3795   7.973   2.921   3.080 -1.4690 -1.6348  0.7253
  769MOL0     H 3796   7.983   3.139   3.102  1.2754  0.5814 -2.0313
  769MOL0     H 3797   8.453   3.482   3.325  0.8980 -0.8350 -1.4688
  769MOL0     H 3798   8.475   3.731   3.296  0.4478 -1.0469 -0.8309
  769MOL0     H 3799   9.720   4.768   2.846 -1.3190  0.2819  1.2377
  769MOL0     H 3800   9.853   4.914   2.701 -0.1377 -1.6786  4.1926
  769MOL0     H 3801   9.767   5.347   2.452  3.3473 -2.5874  1.3126
  769MOL0     H 3802   9.788   5.515   2.280  0.1004 -0.0151 -1.6814
  769MOL0     H 3803   9.928   5.635   2.171  0.7307  0.6941 -0.1251
  769MOL0     H 3804   9.787   5.651   2.070  0.5138  1.8412  3.7470
  769MOL0     H 3805   9.978   5.798   2.013 -4.1535 -0.0979 -0.1018
  769MOL0     H 3806   9.934   5.693   1.874  0.2175  3.1533 -0.2442
  769MOL0     H 3807  10.160   5.715   1.879  1.8276 -1.4292  0.0620
  769MOL0     H 3808  10.115   5.547   1.930  1.6263 -0.5240  0.6634
  769MOL0     H 3809  10.212   5.775   2.108 -1.8312  0.2707 -1.2920
  769MOL0     H 3810  10.190   5.606   2.164 -1.7374 -1.1272 -1.1394
  769MOL0     H 3811  10.565   5.617   1.972 -0.2251 -1.4417  1.8950
  769MOL0     H 3812   9.933   5.222   2.009 -1.6358  0.5419 -0.8774
  769MOL0     H 3813   9.854   4.924   2.157 -0.1113 -0.5795  0.2679
  769MOL0     H 3814   9.995   5.001   2.086 -1.8613  1.5375 -0.8316
  769MOL0     H 3815   9.998   4.991   2.251  3.6134  1.4280 -3.0026
  770MOL0     O 3816   1.946   4.956   5.004  0.4113 -0.0816  0.0488
  770MOL0     C 3817   1.829   4.979   5.015  0.6842  0.0952 -1.2300
  770MOL0     O 3818   1.755   5.064   4.939 -0.2708  0.1998 -0.0750
  770MOL0     C 3819   1.820   5.148   4.850  0.9148  0.2254  0.0686
  770MOL0     C 3820   1.916   5.109   4.753 -0.6759 -0.7155  0.3405
  770MOL0     C 3821   1.957   5.211   4.663 -0.2624 -0.6028  0.1533
  770MOL0     C 3822   1.926   5.351   4.677 -0.9110  0.5786 -1.1643
  770MOL0     O 3823   1.993   5.432   4.582  0.7654  0.1699 -0.6181
  770MOL0     C 3824   1.958   5.561   4.562  0.6061 -0.7917 -0.5365
  770MOL0     C 3825   1.827   5.572   4.483 -0.2354  0.2431  0.3180
  770MOL0     C 3826   1.772   5.715   4.471  0.8427  0.1368  0.4774
  770MOL0     C 3827   1.818   5.799   4.350 -0.2760 -0.3280  0.1525
  770MOL0     C 3828   1.765   5.947   4.351  0.5893 -0.1728  0.2193
  770MOL0     C 3829   1.848   6.026   4.250 -0.6318  0.4319  0.6034
  770MOL0     C 3830   1.822   6.175   4.245  1.0879 -0.1069  0.4691
  770MOL0     C 3831   1.680   6.208   4.220 -0.6666 -0.1420 -0.0274
  770MOL0     N 3832   1.657   6.349   4.197 -0.4624  0.9403  0.2547
  770MOL0     C 3833   1.631   6.444   4.287 -0.1083  0.1769  0.6094
  770MOL0     C 3834   1.598   6.560   4.220  0.7222  0.1274 -0.5200
  770MOL0     C 3835   1.562   6.689   4.284 -0.0097 -0.8090  0.2278
  770MOL0     C 3836   1.401   6.699   4.299 -0.5754 -0.0084 -0.8306
  770MOL0     C 3837   1.341   6.713   4.165  0.6142  0.2153 -0.0586
  770MOL0     C 3838   1.188   6.689   4.162  0.0083  0.5489 -0.4202
  770MOL0     O 3839   1.139   6.679   4.020 -0.3549 -0.3937 -0.8570
  770MOL0     C 3840   1.010   6.632   3.987 -0.9040  0.0060 -0.7550
  770MOL0     C 3841   0.899   6.621   4.078 -0.8180  0.5899 -0.3435
  770MOL0     C 3842   0.777   6.571   4.038  0.7756 -0.9245 -0.8519
  770MOL0     C 3843   0.750   6.556   3.896  0.0961  1.1205 -0.3722
  770MOL0     C 3844   0.610   6.509   3.858  0.9053  0.6369 -0.2271
  770MOL0     O 3845   0.533   6.461   3.959  0.7114 -0.3266 -0.0569
  770MOL0     C 3846   0.403   6.421   3.935 -0.1867  0.9427  0.2045
  770MOL0     C 3847   0.343   6.358   3.818 -0.1533  0.0872 -0.2194
  770MOL0     C 3848   0.225   6.291   3.833  0.6532  0.5825  0.1642
  770MOL0     C 3849   0.163   6.278   3.959  0.2493 -0.3031  0.3500
  770MOL0     O 3850   0.055   6.191   3.974 -0.4669  0.2635  0.1393
  770MOL0     C 3851   0.061   6.060   3.909 -0.6244 -0.3136  0.5580
  770MOL0     C 3852  -0.034   6.048   3.786  0.5232  0.3727 -0.3900
  770MOL0     C 3853  -0.179   6.090   3.816 -0.4090 -0.1260  0.2222
  770MOL0     C 3854  -0.235   6.005   3.926  0.0151 -0.3792 -0.3908
  770MOL0     C 3855  -0.385   6.026   3.936 -0.6805 -0.2039  0.3386
  770MOL0     C 3856  -0.434   5.945   4.065 -0.2467  0.0830  0.0189
  770MOL0     C 3857  -0.569   5.991   4.120 -0.2079  0.1723 -0.0302
  770MOL0     C 3858  -0.648   5.882   4.205 -0.3141 -0.0518 -0.2293
  770MOL0    Cl 3859  -0.774   5.976   4.281 -0.2234 -0.1101  0.1125
  770MOL0     C 3860   0.214   6.347   4.070  0.1732 -0.7898  0.7063
  770MOL0     C 3861   0.328   6.422   4.055  0.4987 -0.4842  0.5216
  770MOL0     O 3862   0.583   6.527   3.740  1.1521  0.5098 -0.2334
  770MOL0     C 3863   0.851   6.573   3.800  0.1398  0.3659  0.0328
  770MOL0     C 3864   0.984   6.598   3.857 -0.4193 -0.2083 -0.3039
  770MOL0     N 3865   1.613   6.529   4.085  0.6810 -0.6993 -0.2863
  770MOL0     N 3866   1.660   6.411   4.071  0.9290  0.2305 -0.2280
  770MOL0     C 3867   1.828   5.385   4.774 -0.5883  0.5803 -0.8554
  770MOL0     C 3868   1.782   5.280   4.856 -0.4191 -1.1838  0.6922
  770MOL0     C 3869   1.757   4.924   5.138 -0.0495  0.2316 -0.1094
  770MOL0     C 3870   1.625   4.973   5.166 -0.4450 -0.0169  0.3173
  770MOL0     C 3871   1.561   4.926   5.266 -0.3543 -0.8962 -0.4620
  770MOL0     C 3872   1.603   4.831   5.360  0.0430 -0.0551 -0.6879
  770MOL0     O 3873   1.534   4.789   5.469 -0.2946  0.0902 -0.1302
  770MOL0     C 3874   1.394   4.812   5.478  0.1648 -0.6186 -0.2080
  770MOL0     C 3875   1.326   4.707   5.387 -0.3215  0.4863 -0.6544
  770MOL0     C 3876   1.173   4.704   5.417 -0.8558 -0.4783  0.4323
  770MOL0     C 3877   1.118   4.563   5.387  0.0312 -0.9326  0.1903
  770MOL0     C 3878   1.184   4.459   5.474  0.6103  1.1432  0.4375
  770MOL0     C 3879   1.263   4.381   5.526  0.2158 -0.4461 -0.0639
  770MOL0     C 3880   1.734   4.796   5.352  0.8525 -1.2626 -1.2157
  770MOL0     C 3881   1.817   4.844   5.245 -0.2253 -0.3927 -0.2515
  770MOL0     C 3882   1.961   4.793   5.250  0.0621  0.6471 -0.1119
  770MOL0     H 3883   1.950   5.006   4.747 -2.6383 -1.3471 -1.3724
  770MOL0     H 3884   2.025   5.182   4.583  0.7422 -3.5916  1.9384
  770MOL0     H 3885   1.944   5.600   4.663  2.9404  1.9494 -1.1404
  770MOL0     H 3886   2.040   5.626   4.529 -0.5168  1.0674  0.1468
  770MOL0     H 3887   1.756   5.513   4.542  1.0270  0.3263  1.9990
  770MOL0     H 3888   1.846   5.512   4.394 -1.5421 -2.2199  1.6068
  770MOL0     H 3889   1.777   5.760   4.570 -2.1496 -1.4022  1.4382
  770MOL0     H 3890   1.667   5.703   4.441 -0.3376  1.9702  3.4349
  770MOL0     H 3891   1.927   5.810   4.344 -0.2790 -0.9647 -1.7526
  770MOL0     H 3892   1.777   5.769   4.253 -3.7041  0.6007  1.2040
  770MOL0     H 3893   1.661   5.955   4.321  0.2927 -0.1327  1.2279
  770MOL0     H 3894   1.754   5.979   4.455 -0.5896 -2.8498  1.0036
  770MOL0     H 3895   1.955   6.008   4.265 -0.4226 -0.4225 -1.6041
  770MOL0     H 3896   1.830   5.985   4.150  0.2046 -2.3960  1.5286
  770MOL0     H 3897   1.882   6.219   4.164 -0.8232 -1.5493 -1.8569
  770MOL0     H 3898   1.846   6.212   4.345  1.8788  0.0862  0.2182
  770MOL0     H 3899   1.647   6.160   4.128  2.0097  0.4219 -1.4146
  770MOL0     H 3900   1.624   6.177   4.309  0.2030  0.8421  0.8967
  770MOL0     H 3901   1.642   6.438   4.395  6.0727  2.5526  0.4764
  770MOL0     H 3902   1.597   6.698   4.387 -0.4974 -0.6399  0.3816
  770MOL0     H 3903   1.595   6.772   4.222  0.1617 -2.7949 -2.5217
  770MOL0     H 3904   1.354   6.613   4.347 -0.2535  0.5432  0.5259
  770MOL0     H 3905   1.385   6.784   4.365 -1.1159 -1.4844  1.0449
  770MOL0     H 3906   1.389   6.656   4.084  1.2135 -3.1698  2.4626
  770MOL0     H 3907   1.366   6.818   4.148  1.5439 -0.3209 -2.3508
  770MOL0     H 3908   1.142   6.771   4.217  1.1547 -1.1537  3.4351
  770MOL0     H 3909   1.173   6.594   4.214 -1.0759  0.0659 -1.5687
  770MOL0     H 3910   0.917   6.656   4.179 -1.0199 -2.4482  0.8391
  770MOL0     H 3911   0.696   6.557   4.110  1.3463  2.0516  0.5299
  770MOL0     H 3912   0.398   6.370   3.726 -1.7619  3.2324 -0.9029
  770MOL0     H 3913   0.177   6.251   3.744 -1.2886  0.4454  1.1970
  770MOL0     H 3914   0.160   6.030   3.872 -0.9632 -1.3911  0.4979
  770MOL0     H 3915   0.045   5.981   3.982  0.4897  0.3309  1.5363
  770MOL0     H 3916   0.017   6.106   3.708 -0.5430  1.9339  0.0070
  770MOL0     H 3917  -0.030   5.943   3.758 -1.1831 -0.5571  2.4687
  770MOL0     H 3918  -0.183   6.193   3.852  0.6832 -0.3262  0.9923
  770MOL0     H 3919  -0.237   6.076   3.725  0.4588 -0.3739 -0.3078
  770MOL0     H 3920  -0.190   6.032   4.023  2.3512  0.8629 -1.7209
  770MOL0     H 3921  -0.210   5.900   3.916  0.7164 -0.9771  4.6711
  770MOL0     H 3922  -0.437   5.989   3.848  0.7519  1.1560 -1.1593
  770MOL0     H 3923  -0.397   6.134   3.951  4.8013  0.6613  0.8664
  770MOL0     H 3924  -0.438   5.839   4.038  2.1129  0.1956 -1.0998
  770MOL0     H 3925  -0.361   5.954   4.146  0.3701  1.5343 -0.6742
  770MOL0     H 3926  -0.637   6.021   4.040 -2.5312 -0.1879  1.7124
  770MOL0     H 3927  -0.549   6.084   4.174  1.9959  0.9075 -1.9094
  770MOL0     H 3928  -0.689   5.793   4.156  0.1922 -0.1787 -0.4319
  770MOL0     H 3929  -0.575   5.846   4.279 -1.3554 -0.1427  0.7738
  770MOL0     H 3930   0.160   6.336   4.164 -2.3464 -0.6878 -0.6464
  770MOL0     H 3931   0.366   6.477   4.141 -0.1987  0.9778 -0.0696
  770MOL0     H 3932   0.830   6.562   3.694 -3.2528  0.8640  0.5294
  770MOL0     H 3933   1.064   6.600   3.784  0.2333  3.1547  0.3506
  770MOL0     H 3934   1.790   5.486   4.785 -2.9260 -0.0594 -2.2109
  770MOL0     H 3935   1.709   5.316   4.928 -0.9030  3.2703 -1.6551
  770MOL0     H 3936   1.577   5.048   5.103 -2.3593 -1.1042  0.4105
  770MOL0     H 3937   1.461   4.966   5.281 -0.6651 -2.3451  1.8973
  770MOL0     H 3938   1.361   4.916   5.464 -0.6424 -0.2921  3.2666
  770MOL0     H 3939   1.372   4.793   5.583  3.0406  1.1370  0.8378
  770MOL0     H 3940   1.376   4.610   5.388  0.8671  1.0829 -1.3714
  770MOL0     H 3941   1.342   4.736   5.283 -0.2754  0.0119 -0.7846
  770MOL0     H 3942   1.129   4.789   5.363 -0.5606  1.3488  2.8900
  770MOL0     H 3943   1.143   4.723   5.521 -0.4835 -0.8950  0.6170
  770MOL0     H 3944   1.010   4.559   5.404 -0.3313 -1.2733 -1.9951
  770MOL0     H 3945   1.138   4.533   5.284 -1.3704  2.4147 -1.2039
  770MOL0     H 3946   1.315   4.309   5.585  1.8958  0.7947  0.0376
  770MOL0     H 3947   1.776   4.723   5.421  1.9525 -0.2695 -0.7937
  770MOL0     H 3948   2.037   4.860   5.292 -0.2569  2.0712 -1.7157
  770MOL0     H 3949   1.960   4.699   5.306  0.3653 -0.0598 -1.2407
  770MOL0     H 3950   1.998   4.776   5.148 -2.2771  1.6820 -1.1879
  771MOL0     O 3951   1.831   8.843   0.867 -0.0000  0.0445 -0.7815
  771MOL0     C 3952   1.833   8.962   0.856 -0.4498 -1.3348 -0.0907
  771MOL0     O 3953   1.944   9.046   0.837  0.9753  0.2831 -0.0927
  771MOL0     C 3954   2.065   8.984   0.840  0.4267 -0.3598  0.5784
  771MOL0     C 3955   2.106   8.894   0.937  0.8950 -0.5540  0.4858
  771MOL0     C 3956   2.222   8.826   0.921  0.4086  0.0701 -0.2095
  771MOL0     C 3957   2.316   8.855   0.825  0.4938 -0.1700  0.8519
  771MOL0     O 3958   2.440   8.791   0.822  0.7588 -0.6286  0.7080
  771MOL0     C 3959   2.548   8.880   0.865 -0.1038  0.2424 -0.2606
  771MOL0     C 3960   2.683   8.809   0.841  0.7026  0.7986  0.6815
  771MOL0     C 3961   2.795   8.893   0.911 -0.1110  0.3299  0.2859
  771MOL0     C 3962   2.934   8.846   0.876 -0.2300  0.6935 -0.4062
  771MOL0     C 3963   2.981   8.744   0.983 -0.4265  0.7270 -0.0428
  771MOL0     C 3964   3.092   8.652   0.914 -0.4872  0.8402  0.4787
  771MOL0     C 3965   3.140   8.525   0.998  0.4026  0.6361  0.1831
  771MOL0     C 3966   3.223   8.423   0.922  0.0210  0.0077 -0.3556
  771MOL0     N 3967   3.356   8.473   0.888 -0.6849 -0.0479 -0.3571
  771MOL0     C 3968   3.445   8.526   0.973 -0.3869 -0.7541 -0.0346
  771MOL0     C 3969   3.568   8.514   0.912 -0.8952  0.0381 -0.2520
  771MOL0     C 3970   3.705   8.561   0.959  0.4857  0.6418 -0.5580
  771MOL0     C 3971   3.732   8.712   0.957  0.0870 -1.0133  0.0117
  771MOL0     C 3972   3.764   8.775   0.829  1.1086  0.0761 -0.9414
  771MOL0     C 3973   3.910   8.756   0.796 -0.5280  0.9433 -0.1435
  771MOL0     O 3974   3.934   8.625   0.746 -0.4652 -0.2300  1.3682
  771MOL0     C 3975   4.065   8.590   0.751  0.4854 -0.5672 -0.5231
  771MOL0     C 3976   4.169   8.676   0.726  0.4137 -0.2244  0.5268
  771MOL0     C 3977   4.304   8.628   0.735 -0.1099 -0.4475 -0.4438
  771MOL0     C 3978   4.335   8.494   0.765  0.1437  0.2809  0.4329
  771MOL0     C 3979   4.474   8.451   0.772 -0.2611  0.2879  0.3239
  771MOL0     O 3980   4.575   8.539   0.767 -0.2412 -0.8977 -0.3064
  771MOL0     C 3981   4.706   8.513   0.793  0.1690 -0.0245  0.0059
  771MOL0     C 3982   4.799   8.612   0.755 -0.1271  0.3659 -0.7723
  771MOL0     C 3983   4.941   8.594   0.728  0.7404 -0.2047 -0.3043
  771MOL0     C 3984   5.003   8.477   0.757 -0.1709 -0.5293 -0.1425
  771MOL0     O 3985   5.141   8.458   0.746  0.5310 -0.5435 -0.0943
  771MOL0     C 3986   5.204   8.346   0.793  0.1145  0.1898  0.3248
  771MOL0     C 3987   5.336   8.344   0.725 -0.6145  0.1520  0.6675
  771MOL0     C 3988   5.424   8.459   0.766  0.6474 -0.0672  0.2430
  771MOL0     C 3989   5.573   8.415   0.740  0.2973 -0.2511  0.0702
  771MOL0     C 3990   5.660   8.520   0.782 -1.3326  0.5736  0.4079
  771MOL0     C 3991   5.805   8.487   0.739  0.2265 -0.1596  0.5989
  771MOL0     C 3992   5.881   8.600   0.676 -1.0853  0.2459  0.3482
  771MOL0     C 3993   6.016   8.552   0.627  1.0199  0.3646  0.6418
  771MOL0    Cl 3994   6.134   8.519   0.752  0.3614  0.1460 -0.1474
  771MOL0     C 3995   4.911   8.377   0.805 -0.4464  0.6969 -0.2542
  771MOL0     C 3996   4.773   8.389   0.814 -0.3673  0.4520  0.9986
  771MOL0     O 3997   4.491   8.333   0.810  0.0179 -0.1856 -0.0228
  771MOL0     C 3998   4.224   8.407   0.783 -0.5842 -0.4347 -0.1540
  771MOL0     C 3999   4.095   8.459   0.789  0.6325 -0.0466  0.4624
  771MOL0     N 4000   3.551   8.461   0.785 -0.1805  0.0006  0.5911
  771MOL0     N 4001   3.423   8.440   0.769  0.2669  0.3266 -0.8597
  771MOL0     C 4002   2.284   8.962   0.740  0.1847 -0.9069 -0.0995
  771MOL0     C 4003   2.165   9.025   0.747 -0.1265  0.1329  0.0868
  771MOL0     C 4004   1.695   9.021   0.865 -0.6319  1.0737 -0.1086
  771MOL0     C 4005   1.594   8.957   0.945 -0.0982 -0.1871 -0.1075
  771MOL0     C 4006   1.472   9.009   0.965  0.3905  0.3117  0.1408
  771MOL0     C 4007   1.427   9.111   0.889 -1.0712 -0.7692  0.3626
  771MOL0     O 4008   1.317   9.187   0.910  0.4387 -0.0048 -0.1650
  771MOL0     C 4009   1.214   9.111   0.970  0.9882 -0.3733 -0.4053
  771MOL0     C 4010   1.095   9.206   0.973  0.0411  0.5087 -0.1041
  771MOL0     C 4011   1.101   9.318   1.069 -0.4814 -0.0715  0.9087
  771MOL0     C 4012   0.997   9.426   1.023  0.0280  0.0627  0.8462
  771MOL0     C 4013   0.864   9.364   1.029  0.0948  0.0403  1.0093
  771MOL0     C 4014   0.754   9.317   1.015 -0.3750 -0.2324 -0.8881
  771MOL0     C 4015   1.521   9.168   0.803  0.3309  0.5145 -0.2413
  771MOL0     C 4016   1.649   9.127   0.783  0.5308  0.2705  0.1012
  771MOL0     C 4017   1.731   9.189   0.671  0.1976 -0.5815  0.2648
  771MOL0     H 4018   2.046   8.860   1.021  0.4449 -1.5144 -0.2067
  771MOL0     H 4019   2.239   8.742   0.987 -2.5791 -0.7670 -0.3319
  771MOL0     H 4020   2.555   8.973   0.807  1.7931  1.6995  2.0877
  771MOL0     H 4021   2.529   8.914   0.967  1.5316  1.9173 -0.4474
  771MOL0     H 4022   2.695   8.797   0.733 -2.6873  1.1509  0.1612
  771MOL0     H 4023   2.669   8.710   0.884 -0.0512  1.0405  1.0229
  771MOL0     H 4024   2.778   8.899   1.019  0.3365 -1.1810  0.4632
  771MOL0     H 4025   2.796   8.996   0.874  3.4705  0.9122  1.5839
  771MOL0     H 4026   2.929   8.802   0.776 -1.0398 -3.2604  1.1907
  771MOL0     H 4027   2.995   8.937   0.870 -2.2157  2.0565 -0.8735
  771MOL0     H 4028   3.026   8.798   1.068 -0.4476 -0.1043  0.5060
  771MOL0     H 4029   2.901   8.679   1.018 -1.6486  0.3282 -3.2524
  771MOL0     H 4030   3.064   8.621   0.813 -0.0598  1.1731  0.2557
  771MOL0     H 4031   3.178   8.717   0.899 -0.0223 -0.3697 -3.2060
  771MOL0     H 4032   3.050   8.473   1.034  0.2260  0.7315 -0.1202
  771MOL0     H 4033   3.206   8.556   1.080  1.8475  0.6223 -0.9454
  771MOL0     H 4034   3.239   8.335   0.985 -1.4833 -1.8523 -2.4295
  771MOL0     H 4035   3.180   8.391   0.827  2.4574 -0.8090 -1.2680
  771MOL0     H 4036   3.432   8.580   1.066  1.0333  0.3077 -0.4263
  771MOL0     H 4037   3.719   8.522   1.060 -4.1923  0.1222  0.1211
  771MOL0     H 4038   3.779   8.510   0.898  0.5596  2.0294 -1.7033
  771MOL0     H 4039   3.640   8.763   0.987  0.9095  1.2404 -1.0797
  771MOL0     H 4040   3.808   8.735   1.032  1.5588 -0.1987 -1.6709
  771MOL0     H 4041   3.744   8.882   0.830 -0.2932 -0.1606 -1.3145
  771MOL0     H 4042   3.697   8.730   0.754  0.7653  0.8357 -1.0988
  771MOL0     H 4043   3.966   8.764   0.890  2.3467 -0.0725 -1.6278
  771MOL0     H 4044   3.939   8.841   0.734 -2.2165  1.3931 -0.3482
  771MOL0     H 4045   4.164   8.783   0.707  6.5756  0.7344  2.1239
  771MOL0     H 4046   4.383   8.701   0.725 -1.0472  1.1726  2.5633
  771MOL0     H 4047   4.767   8.713   0.729 -1.2171  0.2995  0.2265
  771MOL0     H 4048   4.987   8.680   0.680 -2.1815  0.0904 -2.9711
  771MOL0     H 4049   5.221   8.373   0.898 -3.5707  1.0627  0.8271
  771MOL0     H 4050   5.149   8.252   0.784 -0.1593  0.3103  0.6912
  771MOL0     H 4051   5.390   8.261   0.771  3.6538  0.4892 -3.0474
  771MOL0     H 4052   5.322   8.326   0.618  1.6991 -1.5357  0.5868
  771MOL0     H 4053   5.399   8.550   0.711 -0.9444 -0.9757 -0.6004
  771MOL0     H 4054   5.402   8.499   0.865  1.5326  4.1688 -1.0329
  771MOL0     H 4055   5.589   8.389   0.635 -0.8305  0.8449 -0.3963
  771MOL0     H 4056   5.594   8.324   0.798  0.1210 -0.8223 -0.7581
  771MOL0     H 4057   5.662   8.529   0.891  1.1053 -0.5285  0.5278
  771MOL0     H 4058   5.628   8.617   0.744 -0.9162  0.5830  0.0733
  771MOL0     H 4059   5.849   8.440   0.827  1.1001  1.4053  1.0450
  771MOL0     H 4060   5.797   8.414   0.658  1.8747  2.1306 -1.8285
  771MOL0     H 4061   5.913   8.675   0.749  2.0501 -1.3673  0.8069
  771MOL0     H 4062   5.824   8.649   0.597 -0.8811  0.8451  0.5680
  771MOL0     H 4063   6.005   8.461   0.567  1.5059  1.1854 -0.7690
  771MOL0     H 4064   6.053   8.629   0.557  0.5621 -0.7831 -0.9279
  771MOL0     H 4065   4.959   8.286   0.839 -0.1149  0.8094 -0.4111
  771MOL0     H 4066   4.723   8.293   0.829 -2.0986  1.7781  5.2572
  771MOL0     H 4067   4.238   8.303   0.810  3.2380  0.6037  2.7771
  771MOL0     H 4068   4.013   8.391   0.811 -0.2165  0.3812 -1.2170
  771MOL0     H 4069   2.351   8.992   0.661 -0.8126  2.5640  0.2064
  771MOL0     H 4070   2.141   9.103   0.675 -2.8710 -2.3530 -1.9546
  771MOL0     H 4071   1.618   8.881   1.019  0.3673  0.8836  0.8848
  771MOL0     H 4072   1.410   8.968   1.044 -0.6653  1.6075  0.0239
  771MOL0     H 4073   1.221   9.073   1.072 -1.6820 -0.2183 -0.0776
  771MOL0     H 4074   1.186   9.036   0.896 -0.2516  1.6113 -2.0836
  771MOL0     H 4075   1.006   9.148   0.999  0.5627 -0.2292  0.0779
  771MOL0     H 4076   1.071   9.238   0.872 -2.5621 -0.1271  0.2572
  771MOL0     H 4077   1.197   9.369   1.058 -1.4585  1.3857 -2.1555
  771MOL0     H 4078   1.082   9.279   1.169  3.8212 -1.3071  1.4431
  771MOL0     H 4079   0.992   9.520   1.079 -2.2772  0.1559  0.5762
  771MOL0     H 4080   1.026   9.448   0.920  2.8940 -0.6230  1.4355
  771MOL0     H 4081   0.657   9.273   1.015  0.3644 -2.1028  1.5660
  771MOL0     H 4082   1.477   9.239   0.734  0.0001  0.1233 -0.4353
  771MOL0     H 4083   1.806   9.122   0.628  0.6988  1.0328 -1.5038
  771MOL0     H 4084   1.668   9.227   0.590 -0.3535 -1.1929  0.4003
  771MOL0     H 4085   1.793   9.272   0.706  0.3312 -1.1361  1.3923
  772MOL0     O 4086   0.344   2.851   9.364  0.1448 -0.4737 -0.5662
  772MOL0     C 4087   0.259   2.812   9.445 -0.5914  0.0768 -0.1050
  772MOL0     O 4088   0.152   2.731   9.403 -0.6030  0.0069 -0.0984
  772MOL0     C 4089   0.109   2.726   9.270  0.7812 -0.6274  0.4357
  772MOL0     C 4090   0.175   2.754   9.151  0.5636 -0.1600  0.3485
  772MOL0     C 4091   0.113   2.727   9.025 -0.3586 -0.4049 -0.0589
  772MOL0     C 4092  -0.013   2.679   9.020  0.5001  0.1866  0.9242
  772MOL0     O 4093  -0.074   2.640   8.906 -0.4093  0.4754 -0.0283
  772MOL0     C 4094  -0.197   2.693   8.878  0.2312 -0.0113 -0.4375
  772MOL0     C 4095  -0.237   2.645   8.736 -0.3286  0.8159 -0.4377
  772MOL0     C 4096  -0.169   2.725   8.621 -0.1723  0.8716  0.2434
  772MOL0     C 4097  -0.259   2.840   8.587 -0.1138 -0.2712 -0.1504
  772MOL0     C 4098  -0.192   2.926   8.473  0.1860  0.3900  0.1072
  772MOL0     C 4099  -0.232   2.865   8.334  0.4210  0.7134 -0.4870
  772MOL0     C 4100  -0.165   2.936   8.219  0.0796  0.5208 -0.4762
  772MOL0     C 4101  -0.099   2.844   8.121 -0.6366 -1.1785  0.5835
  772MOL0     N 4102   0.012   2.768   8.176 -0.5088  0.6397  0.4271
  772MOL0     C 4103   0.116   2.815   8.255  0.5640 -0.3641  0.0585
  772MOL0     C 4104   0.182   2.710   8.309 -0.1166 -0.6112 -0.0645
  772MOL0     C 4105   0.305   2.698   8.390  0.1655  0.0282  0.2430
  772MOL0     C 4106   0.439   2.699   8.307  0.0964  0.1650 -0.0267
  772MOL0     C 4107   0.560   2.746   8.403 -0.6057  0.4782 -0.3775
  772MOL0     C 4108   0.629   2.624   8.464 -0.5476  0.9377  0.1299
  772MOL0     O 4109   0.719   2.637   8.572  0.4507 -0.4521  0.2215
  772MOL0     C 4110   0.846   2.661   8.539  0.7752 -0.4258 -1.0712
  772MOL0     C 4111   0.928   2.667   8.654  0.3859 -0.6467  0.3625
  772MOL0     C 4112   1.062   2.707   8.635  0.1910  0.3536 -0.4349
  772MOL0     C 4113   1.113   2.742   8.515  0.6997 -0.4556  0.0800
  772MOL0     C 4114   1.255   2.784   8.499 -0.0681 -0.9694 -0.3723
  772MOL0     O 4115   1.326   2.803   8.611  0.4416  0.0531 -0.1932
  772MOL0     C 4116   1.457   2.836   8.617  0.6383 -0.7241 -0.6059
  772MOL0     C 4117   1.541   2.890   8.519  1.0900  0.5430  0.0868
  772MOL0     C 4118   1.674   2.920   8.538 -1.3431  0.1137 -0.6003
  772MOL0     C 4119   1.728   2.918   8.670 -0.9812 -0.1118 -0.4679
  772MOL0     O 4120   1.861   2.960   8.688  0.7039  0.3271 -0.2280
  772MOL0     C 4121   1.914   2.958   8.825 -0.2901  0.8850 -0.5814
  772MOL0     C 4122   2.067   2.956   8.805 -0.1713 -0.1194 -0.2447
  772MOL0     C 4123   2.120   3.086   8.770 -0.1109 -0.1661 -0.0265
  772MOL0     C 4124   2.273   3.099   8.760 -0.0341 -0.1762 -0.6858
  772MOL0     C 4125   2.330   2.999   8.651 -0.6069 -0.4044 -0.0672
  772MOL0     C 4126   2.476   3.018   8.604  0.5285 -0.1086 -0.6834
  772MOL0     C 4127   2.580   3.015   8.720  0.1958 -0.2893 -1.1093
  772MOL0     C 4128   2.722   2.984   8.672  0.1475  0.0746 -0.5478
  772MOL0    Cl 4129   2.788   3.118   8.562 -0.1644 -0.3076  0.1087
  772MOL0     C 4130   1.653   2.861   8.774  1.4002 -0.0593  0.8801
  772MOL0     C 4131   1.518   2.830   8.745 -0.0980  0.3218 -0.7240
  772MOL0     O 4132   1.301   2.772   8.390  0.1942 -0.3290  0.2379
  772MOL0     C 4133   1.030   2.721   8.403  0.4941  0.3224 -0.2848
  772MOL0     C 4134   0.900   2.685   8.415 -0.6884  0.2112 -0.4065
  772MOL0     N 4135   0.114   2.594   8.266 -0.0049 -0.2385 -0.1904
  772MOL0     N 4136   0.013   2.634   8.188  0.3040  0.1674 -1.0947
  772MOL0     C 4137  -0.081   2.647   9.141 -0.1634 -0.6691  0.0083
  772MOL0     C 4138  -0.024   2.672   9.265 -0.0637 -0.0876  1.1011
  772MOL0     C 4139   0.266   2.846   9.587  0.5492 -1.0952  0.2636
  772MOL0     C 4140   0.152   2.835   9.667  0.9087 -0.2664 -0.3059
  772MOL0     C 4141   0.149   2.854   9.803 -0.1649  0.0329  0.1239
  772MOL0     C 4142   0.268   2.876   9.869  0.5454 -0.1799 -0.5071
  772MOL0     O 4143   0.276   2.892  10.006 -0.4814  0.1377  0.3335
  772MOL0     C 4144   0.166   2.859  10.094  0.1558 -1.0694  0.1515
  772MOL0     C 4145   0.197   2.881  10.248  0.6354 -0.3834  0.0084
  772MOL0     C 4146   0.174   3.025  10.275  0.6113 -0.5164 -0.5212
  772MOL0     C 4147   0.159   3.045  10.429  0.1952 -0.7731  0.2797
  772MOL0     C 4148   0.135   3.183  10.462  1.2260  0.3717 -0.4694
  772MOL0     C 4149   0.106   3.298  10.474  0.1509 -0.3100 -0.3512
  772MOL0     C 4150   0.385   2.898   9.797 -0.3502 -0.8369  0.3174
  772MOL0     C 4151   0.388   2.889   9.655  0.3598  0.2118 -0.0053
  772MOL0     C 4152   0.517   2.902   9.580  0.2835  0.1633  0.2643
  772MOL0     H 4153   0.278   2.789   9.145  0.0838  1.3184  0.3649
  772MOL0     H 4154   0.173   2.746   8.936 -0.9772 -1.3785 -0.7010
  772MOL0     H 4155  -0.271   2.653   8.949  0.2208 -1.0507 -1.0121
  772MOL0     H 4156  -0.199   2.801   8.889 -0.3129 -0.1043  0.5093
  772MOL0     H 4157  -0.344   2.665   8.740 -0.5409 -0.2895 -0.2908
  772MOL0     H 4158  -0.202   2.541   8.731 -1.5367  0.4558 -2.1747
  772MOL0     H 4159  -0.170   2.667   8.528 -0.9585  2.5250 -0.8313
  772MOL0     H 4160  -0.068   2.759   8.643 -0.9422  2.4661  1.5384
  772MOL0     H 4161  -0.358   2.805   8.557 -0.4079  0.1026  0.3785
  772MOL0     H 4162  -0.268   2.898   8.679  3.6699 -1.9154  1.4908
  772MOL0     H 4163  -0.230   3.029   8.473 -0.2985  0.2660 -1.8807
  772MOL0     H 4164  -0.082   2.924   8.476  0.2337  0.6993 -0.8987
  772MOL0     H 4165  -0.191   2.764   8.332  0.9740  0.9484 -2.1936
  772MOL0     H 4166  -0.339   2.844   8.332  0.7396 -1.2503  0.6866
  772MOL0     H 4167  -0.098   3.007   8.267  0.5288 -0.7887  0.9343
  772MOL0     H 4168  -0.249   2.989   8.173 -2.1841 -0.8111  1.8711
  772MOL0     H 4169  -0.165   2.767   8.081  1.5823 -2.4274 -0.8448
  772MOL0     H 4170  -0.049   2.905   8.046 -1.7928 -0.3177  0.4758
  772MOL0     H 4171   0.142   2.919   8.277 -0.6084 -0.2668  1.1222
  772MOL0     H 4172   0.304   2.787   8.453 -1.6945  1.4421 -1.6354
  772MOL0     H 4173   0.294   2.606   8.448  0.1226 -0.1936 -0.1105
  772MOL0     H 4174   0.450   2.598   8.265  0.7301  0.0163  0.4682
  772MOL0     H 4175   0.441   2.761   8.217 -1.1695 -0.4315 -0.4796
  772MOL0     H 4176   0.525   2.814   8.481 -0.2612 -0.8835  1.0119
  772MOL0     H 4177   0.644   2.798   8.355  0.9866  0.3237  2.0521
  772MOL0     H 4178   0.666   2.562   8.381 -2.5596  0.5619 -0.5471
  772MOL0     H 4179   0.551   2.557   8.502  1.9430 -1.5707  1.2144
  772MOL0     H 4180   0.882   2.634   8.746 -1.0419 -4.8547 -1.6061
  772MOL0     H 4181   1.131   2.709   8.719 -0.3527  1.6288 -0.0001
  772MOL0     H 4182   1.521   2.906   8.414 -0.2736  0.2002  0.2774
  772MOL0     H 4183   1.735   2.961   8.459  1.1857  0.2083  1.2753
  772MOL0     H 4184   1.880   3.044   8.883  0.2305 -0.5608  2.0576
  772MOL0     H 4185   1.887   2.867   8.880  0.5618  0.7619 -0.3545
  772MOL0     H 4186   2.114   2.934   8.901  1.1040 -1.3372 -1.1128
  772MOL0     H 4187   2.099   2.878   8.735  1.9690  1.2840 -0.9146
  772MOL0     H 4188   2.074   3.113   8.675 -2.4783 -0.6959  0.8836
  772MOL0     H 4189   2.085   3.153   8.849 -2.1296  0.9383 -1.7508
  772MOL0     H 4190   2.323   3.078   8.856 -0.6985  3.7174  0.6892
  772MOL0     H 4191   2.297   3.202   8.733  0.1991 -0.6038 -2.2160
  772MOL0     H 4192   2.261   2.997   8.567 -0.7140  0.4342 -0.0075
  772MOL0     H 4193   2.333   2.897   8.690 -4.0167 -0.7358 -0.4107
  772MOL0     H 4194   2.520   2.947   8.534  3.6969  1.5361 -0.5343
  772MOL0     H 4195   2.485   3.114   8.553  3.1142  0.1274  0.0628
  772MOL0     H 4196   2.551   2.953   8.805 -1.6077 -0.8954 -2.0971
  772MOL0     H 4197   2.585   3.114   8.766  1.9099 -1.8111  2.3572
  772MOL0     H 4198   2.799   2.978   8.749  3.8894  1.7899 -3.8119
  772MOL0     H 4199   2.711   2.889   8.620 -0.3413 -0.0261 -0.2697
  772MOL0     H 4200   1.692   2.843   8.873  2.8046 -3.2225 -0.1109
  772MOL0     H 4201   1.481   2.768   8.825  0.1287  0.9219 -0.1411
  772MOL0     H 4202   1.065   2.745   8.303 -0.9189 -0.5222 -1.0133
  772MOL0     H 4203   0.831   2.691   8.331 -1.3784  0.8209  0.1776
  772MOL0     H 4204  -0.177   2.596   9.140 -0.0656 -0.8475 -0.2152
  772MOL0     H 4205  -0.080   2.657   9.357 -1.4143  0.8763  0.4791
  772MOL0     H 4206   0.057   2.793   9.635 -1.2771  1.5294  3.1933
  772MOL0     H 4207   0.056   2.851   9.859 -0.4586  3.7440  0.0878
  772MOL0     H 4208   0.139   2.754  10.085 -1.7136 -0.8233  2.0001
  772MOL0     H 4209   0.070   2.908  10.071  0.2181  0.7108  3.1036
  772MOL0     H 4210   0.297   2.858  10.285 -0.6005 -2.1935  2.4684
  772MOL0     H 4211   0.121   2.819  10.296 -2.4882  1.8515 -1.6235
  772MOL0     H 4212   0.075   3.053  10.236  0.1911  1.0750  1.4893
  772MOL0     H 4213   0.242   3.097  10.229 -1.0957  0.9028 -0.9610
  772MOL0     H 4214   0.077   2.978  10.458  0.7966 -2.0840 -0.9727
  772MOL0     H 4215   0.256   3.016  10.468  1.1663 -1.4031 -2.4101
  772MOL0     H 4216   0.098   3.405  10.478 -0.2677 -0.2681 -1.5636
  772MOL0     H 4217   0.482   2.911   9.845 -0.5371  1.2118  0.2075
  772MOL0     H 4218   0.518   2.989   9.513  2.1116 -0.6052 -0.7940
  772MOL0     H 4219   0.595   2.922   9.654  0.7121  1.8129 -0.5865
  772MOL0     H 4220   0.532   2.813   9.518 -3.2016  0.1004 -0.6965
  773MOL0     O 4221  10.647   7.190   9.088  0.3021  0.1945  0.0839
  773MOL0     C 4222  10.562   7.241   9.160  0.8962  0.5845 -1.0561
  773MOL0     O 4223  10.576   7.358   9.232  0.7196 -0.2353  0.0940
  773MOL0     C 4224  10.686   7.443   9.223 -0.5263  0.7350  0.1974
  773MOL0     C 4225  10.662   7.584   9.218 -0.9853 -0.3863 -0.2753
  773MOL0     C 4226  10.775   7.666   9.210  0.0197  0.1419  0.1042
  773MOL0     C 4227  10.900   7.624   9.193 -0.4751  0.4378 -0.5514
  773MOL0     O 4228  10.996   7.726   9.191  0.0981  0.2502  0.4109
  773MOL0     C 4229  11.123   7.698   9.243 -0.3145 -0.7629 -0.3214
  773MOL0     C 4230  11.220   7.807   9.198  0.1864 -0.4974 -0.0337
  773MOL0     C 4231  11.366   7.761   9.228 -0.3233  0.2000 -0.1676
  773MOL0     C 4232  11.458   7.890   9.225 -0.1234  0.5788 -0.4176
  773MOL0     C 4233  11.594   7.892   9.299  0.8479 -0.0133 -0.6305
  773MOL0     C 4234  11.677   7.765   9.253 -0.1767  0.4193 -0.0786
  773MOL0     C 4235  11.802   7.740   9.338 -0.2433  0.3153 -0.2997
  773MOL0     C 4236  11.914   7.831   9.298 -0.7830  0.0401 -0.2450
  773MOL0     N 4237  12.018   7.855   9.391 -0.5505  1.1138 -0.1840
  773MOL0     C 4238  12.152   7.860   9.346 -0.2899 -0.1076 -0.1338
  773MOL0     C 4239  12.212   7.920   9.451  0.1849  0.1477 -0.3509
  773MOL0     C 4240  12.368   7.953   9.446  0.7079  0.2106 -0.0837
  773MOL0     C 4241  12.433   8.044   9.551 -0.2310 -0.6169 -0.2451
  773MOL0     C 4242  12.452   7.968   9.681  0.2070 -0.1707  0.3628
  773MOL0     C 4243  12.570   7.877   9.673 -0.1595  0.9064  0.0826
  773MOL0     O 4244  12.689   7.934   9.630 -0.2915  0.4678 -0.0513
  773MOL0     C 4245  12.806   7.886   9.675 -0.8600  0.2582 -0.1206
  773MOL0     C 4246  12.908   7.866   9.588 -0.1407  0.1326  0.2040
  773MOL0     C 4247  13.036   7.828   9.632  0.2046  0.2435 -0.8800
  773MOL0     C 4248  13.059   7.806   9.772 -0.0962 -1.2234  0.5685
  773MOL0     C 4249  13.185   7.759   9.832  0.5446  0.3199  0.5963
  773MOL0     O 4250  13.210   7.801   9.958 -0.4430  0.4239  0.0578
  773MOL0     C 4251  13.336   7.769  10.006 -0.5557  0.4263 -0.1228
  773MOL0     C 4252  13.448   7.814   9.937  0.1941  0.2085 -0.8890
  773MOL0     C 4253  13.573   7.777   9.987 -0.5355  1.0471  0.1025
  773MOL0     C 4254  13.591   7.699  10.104 -0.5273 -0.0323  0.4270
  773MOL0     O 4255  13.716   7.658  10.149 -0.4200  0.0296  0.4278
  773MOL0     C 4256  13.835   7.713  10.089  0.0723 -0.6889 -0.2048
  773MOL0     C 4257  13.952   7.690  10.190  0.1668 -0.8613  0.0321
  773MOL0     C 4258  14.087   7.700  10.131  0.4743 -0.7590  0.0403
  773MOL0     C 4259  14.113   7.821  10.033 -0.1020 -0.3053  0.4972
  773MOL0     C 4260  14.255   7.831   9.998  0.0161  0.0016 -0.0596
  773MOL0     C 4261  14.295   7.979   9.963  0.3608  0.1579  0.5491
  773MOL0     C 4262  14.452   7.991   9.957 -0.4145 -0.8264  0.5883
  773MOL0     C 4263  14.491   8.129   9.892  0.4634  0.0481 -0.2076
  773MOL0    Cl 4264  14.496   8.112   9.708  0.4831  1.0120  0.2353
  773MOL0     C 4265  13.477   7.667  10.173  0.3020  0.1944  0.0857
  773MOL0     C 4266  13.347   7.698  10.123  0.4562 -0.2599 -0.0085
  773MOL0     O 4267  13.256   7.683   9.761  0.3131 -0.3151 -0.5165
  773MOL0     C 4268  12.947   7.821   9.854  0.7132  0.4399 -0.0588
  773MOL0     C 4269  12.824   7.867   9.808  0.3832 -0.9596  0.5733
  773MOL0     N 4270  12.115   7.934   9.556 -0.3139  0.6061 -0.3991
  773MOL0     N 4271  12.007   7.898   9.513  0.2524 -0.3274  0.3266
  773MOL0     C 4272  10.927   7.485   9.190  1.1156 -0.2217 -0.4556
  773MOL0     C 4273  10.817   7.399   9.213 -1.2799  0.6086  0.4548
  773MOL0     C 4274  10.438   7.170   9.177 -0.0295 -0.1893  0.6112
  773MOL0     C 4275  10.372   7.189   9.297  0.2615  0.7540  0.0263
  773MOL0     C 4276  10.249   7.127   9.320  0.5387  0.0029 -0.5069
  773MOL0     C 4277  10.191   7.047   9.219  0.8770  0.5879 -0.6579
  773MOL0     O 4278  10.067   6.985   9.234  0.3583 -0.0446  0.0321
  773MOL0     C 4279   9.982   7.012   9.346 -0.1491 -0.2666  0.2903
  773MOL0     C 4280   9.849   6.942   9.329 -0.2536  0.6528  0.0075
  773MOL0     C 4281   9.763   6.921   9.458 -1.2210  0.0785 -0.6641
  773MOL0     C 4282   9.620   6.900   9.428 -0.2544  0.5133 -0.6964
  773MOL0     C 4283   9.563   6.831   9.543  0.7658  0.0428 -1.1689
  773MOL0     C 4284   9.509   6.766   9.633 -0.7349 -0.3259  0.7943
  773MOL0     C 4285  10.259   7.017   9.106  0.2235  0.3237 -0.3506
  773MOL0     C 4286  10.383   7.079   9.081  0.5177 -0.6426  0.5421
  773MOL0     C 4287  10.449   7.052   8.948 -0.8460  0.3889 -0.0779
  773MOL0     H 4288  10.559   7.618   9.225  0.2480  3.7220  0.2925
  773MOL0     H 4289  10.761   7.774   9.214 -0.7332  0.0216  1.5409
  773MOL0     H 4290  11.126   7.695   9.352 -1.5881 -0.7778 -0.2784
  773MOL0     H 4291  11.161   7.606   9.197 -1.3160 -1.5470  0.3999
  773MOL0     H 4292  11.208   7.898   9.258  0.5976 -0.5796  0.1790
  773MOL0     H 4293  11.218   7.838   9.094 -3.6028 -1.4115 -0.3627
  773MOL0     H 4294  11.409   7.700   9.148 -0.5994  0.0883 -0.2316
  773MOL0     H 4295  11.382   7.699   9.317  0.2863 -1.1356 -1.1754
  773MOL0     H 4296  11.462   7.921   9.120 -1.5817 -0.8046 -0.9349
  773MOL0     H 4297  11.408   7.975   9.271 -2.6723 -0.9241 -0.2298
  773MOL0     H 4298  11.650   7.984   9.280 -2.9688  2.2491 -2.1451
  773MOL0     H 4299  11.576   7.876   9.406  1.2825  1.2855 -0.3505
  773MOL0     H 4300  11.604   7.684   9.261 -2.6365  2.6318  1.1822
  773MOL0     H 4301  11.712   7.778   9.150 -0.0575 -2.0267 -0.4141
  773MOL0     H 4302  11.832   7.635   9.330  0.3165  0.4100  0.5012
  773MOL0     H 4303  11.773   7.750   9.443 -2.2676 -0.7604 -0.7041
  773MOL0     H 4304  11.950   7.806   9.198  0.5848 -1.2209  0.5231
  773MOL0     H 4305  11.872   7.931   9.283  1.9201  1.0706 -1.8345
  773MOL0     H 4306  12.195   7.825   9.253 -3.2030 -1.6588 -1.0202
  773MOL0     H 4307  12.416   7.855   9.444 -2.6877 -1.6357  0.4041
  773MOL0     H 4308  12.376   7.994   9.345 -2.1379  0.7924 -0.1704
  773MOL0     H 4309  12.529   8.080   9.512  0.3259 -3.3478 -1.6415
  773MOL0     H 4310  12.369   8.132   9.561 -0.8325 -0.6773 -2.8695
  773MOL0     H 4311  12.356   7.918   9.697  0.4085 -1.0656 -1.0135
  773MOL0     H 4312  12.466   8.033   9.768 -0.5819 -0.8027  0.9772
  773MOL0     H 4313  12.545   7.794   9.607  1.5997  1.1871 -0.9960
  773MOL0     H 4314  12.580   7.826   9.769 -0.3968 -2.2381 -1.4281
  773MOL0     H 4315  12.899   7.895   9.484  2.2113  0.4977  0.0477
  773MOL0     H 4316  13.121   7.843   9.566  0.2280  2.3045 -0.4444
  773MOL0     H 4317  13.442   7.881   9.852  2.3648  1.7232  0.0275
  773MOL0     H 4318  13.660   7.812   9.932 -1.3005  1.4034 -0.9211
  773MOL0     H 4319  13.847   7.654   9.997  0.4684  1.6221 -1.7204
  773MOL0     H 4320  13.822   7.820  10.074  1.5754 -0.2221  1.5392
  773MOL0     H 4321  13.947   7.772  10.262  0.9716  1.3663 -2.3014
  773MOL0     H 4322  13.950   7.600  10.251  0.1670 -0.2050  1.0214
  773MOL0     H 4323  14.160   7.715  10.211 -0.1572 -0.3367  0.5421
  773MOL0     H 4324  14.112   7.599  10.097  1.5434 -0.4309 -0.1950
  773MOL0     H 4325  14.079   7.917  10.073  2.6467  1.3396 -0.7850
  773MOL0     H 4326  14.045   7.811   9.948 -0.0145  0.8586  0.2675
  773MOL0     H 4327  14.285   7.776   9.908 -0.2642 -0.1902 -0.0345
  773MOL0     H 4328  14.317   7.792  10.079  1.2584 -0.8002 -1.3472
  773MOL0     H 4329  14.256   8.010   9.866 -3.6119 -2.6785  0.9699
  773MOL0     H 4330  14.252   8.049  10.035 -1.4040  2.9431 -2.8943
  773MOL0     H 4331  14.507   7.927   9.886  1.4540 -0.0453  1.2655
  773MOL0     H 4332  14.487   7.982  10.060 -2.1079 -1.0929  1.1715
  773MOL0     H 4333  14.434   8.218   9.920  1.8066  0.3848  1.6529
  773MOL0     H 4334  14.592   8.149   9.929  1.3092 -3.1054 -0.5807
  773MOL0     H 4335  13.474   7.618  10.270 -0.7396 -0.8770 -0.4724
  773MOL0     H 4336  13.255   7.677  10.176 -0.1808  2.1415 -0.0281
  773MOL0     H 4337  12.942   7.783   9.955 -0.0890  0.6343 -0.0235
  773MOL0     H 4338  12.744   7.891   9.877 -0.0966 -0.3222 -0.1882
  773MOL0     H 4339  11.029   7.448   9.177  1.6517  1.3057 -0.8601
  773MOL0     H 4340  10.848   7.295   9.216  0.4642  1.1041  0.8727
  773MOL0     H 4341  10.416   7.247   9.378  2.4053 -1.0462  0.2319
  773MOL0     H 4342  10.200   7.140   9.416  0.9892  1.9793 -0.5089
  773MOL0     H 4343   9.958   7.116   9.372 -1.6313 -0.6046  0.3892
  773MOL0     H 4344  10.037   6.982   9.436  1.6719 -0.1587 -0.7524
  773MOL0     H 4345   9.866   6.847   9.277 -0.6192 -1.1554  2.9283
  773MOL0     H 4346   9.778   6.999   9.268 -2.5387  2.1362  3.6585
  773MOL0     H 4347   9.764   7.017   9.511  1.4222  1.6013 -3.1644
  773MOL0     H 4348   9.810   6.851   9.529 -0.6696  2.8260  1.9092
  773MOL0     H 4349   9.569   6.993   9.405  0.3735  0.2323 -3.6437
  773MOL0     H 4350   9.607   6.836   9.340  1.9129  0.2089 -0.8609
  773MOL0     H 4351   9.455   6.713   9.709 -0.9285  0.2448  1.0653
  773MOL0     H 4352  10.224   6.949   9.029  1.9384 -2.6759  1.2894
  773MOL0     H 4353  10.533   6.986   8.973  0.3004  2.1804  1.0874
  773MOL0     H 4354  10.385   6.991   8.884 -0.2619  1.2775 -1.5868
  773MOL0     H 4355  10.495   7.137   8.896  2.1443 -0.6557  0.6475
  774MOL0     O 4356   8.963   5.857   4.345  0.5790 -0.4472  0.2280
  774MOL0     C 4357   8.885   5.878   4.259 -0.4846  0.8564  0.0178
  774MOL0     O 4358   8.917   5.938   4.138  1.1438 -0.0332  0.4711
  774MOL0     C 4359   9.039   6.006   4.132  0.5287 -0.9194  0.1786
  774MOL0     C 4360   9.133   5.976   4.037  0.4486  0.1107  0.1137
  774MOL0     C 4361   9.256   6.042   4.029 -0.2882  0.6292  0.2333
  774MOL0     C 4362   9.284   6.155   4.112  0.5331  0.1091 -0.7269
  774MOL0     O 4363   9.406   6.221   4.089 -0.1371 -0.5744 -0.5735
  774MOL0     C 4364   9.418   6.365   4.108  0.5702 -0.4200  0.3808
  774MOL0     C 4365   9.541   6.413   4.031  0.4104  0.5687 -0.0120
  774MOL0     C 4366   9.595   6.558   4.061  0.4665  0.3039 -0.4057
  774MOL0     C 4367   9.706   6.595   3.967 -0.6687 -0.8584  0.7356
  774MOL0     C 4368   9.758   6.748   3.981 -1.1788  0.0132 -0.3938
  774MOL0     C 4369   9.884   6.755   4.066  0.5702 -0.4981  0.2069
  774MOL0     C 4370   9.955   6.889   4.056 -0.2708 -0.1463  0.6866
  774MOL0     C 4371   9.854   7.003   4.083  0.4801 -0.5458 -0.3278
  774MOL0     N 4372   9.925   7.136   4.085  0.4648  0.3717 -0.2184
  774MOL0     C 4373   9.956   7.217   3.980 -0.2837 -0.5201 -0.2621
  774MOL0     C 4374  10.024   7.320   4.043  0.8772  0.4308  0.7021
  774MOL0     C 4375  10.084   7.443   3.972  0.4293 -0.7654 -0.1404
  774MOL0     C 4376  10.233   7.448   4.006 -0.5102  0.6466  0.3464
  774MOL0     C 4377  10.328   7.351   3.926 -0.6210 -0.0217  0.6356
  774MOL0     C 4378  10.467   7.360   3.976  0.1976 -0.4421  0.8574
  774MOL0     O 4379  10.467   7.321   4.113 -0.5056 -0.2818 -0.3381
  774MOL0     C 4380  10.587   7.297   4.176  0.4815  0.7226 -0.3873
  774MOL0     C 4381  10.705   7.359   4.138  0.1109  0.2198  0.2529
  774MOL0     C 4382  10.824   7.325   4.197 -0.6445  0.5795 -0.0258
  774MOL0     C 4383  10.835   7.235   4.309  0.2599 -0.2949  0.7871
  774MOL0     C 4384  10.966   7.226   4.364 -0.2186  0.1339 -0.4654
  774MOL0     O 4385  10.954   7.153   4.481 -0.5372 -0.8839  0.4506
  774MOL0     C 4386  11.082   7.153   4.541  0.8754  1.1060 -0.5234
  774MOL0     C 4387  11.165   7.036   4.547 -0.1051 -0.2087  0.3609
  774MOL0     C 4388  11.300   7.039   4.594 -0.0444  0.2592  0.1047
  774MOL0     C 4389  11.354   7.156   4.640  0.7523 -0.2823  0.3094
  774MOL0     O 4390  11.487   7.161   4.669 -0.7076  0.2672 -0.5700
  774MOL0     C 4391  11.564   7.199   4.554 -0.1564 -0.0152 -0.2216
  774MOL0     C 4392  11.714   7.199   4.586 -0.1891  0.0750 -0.1274
  774MOL0     C 4393  11.808   7.234   4.470 -0.0301 -0.2987  0.0753
  774MOL0     C 4394  11.960   7.238   4.513  0.0745  0.4482 -0.6474
  774MOL0     C 4395  12.010   7.091   4.497  0.0897 -0.6396 -0.4550
  774MOL0     C 4396  12.135   7.083   4.589  0.2150  0.1390  0.3132
  774MOL0     C 4397  12.226   6.960   4.577  0.0726  0.7245 -0.4155
  774MOL0     C 4398  12.323   6.958   4.456  0.2865  0.2897 -0.3212
  774MOL0    Cl 4399  12.428   6.805   4.463 -0.4983 -0.0609  0.0226
  774MOL0     C 4400  11.276   7.276   4.637 -0.2059 -0.1788 -0.1602
  774MOL0     C 4401  11.144   7.267   4.596  0.7367 -0.6175  0.2999
  774MOL0     O 4402  11.064   7.260   4.299  0.3411 -0.2647  0.2638
  774MOL0     C 4403  10.709   7.177   4.347  0.6144  0.3950 -0.5897
  774MOL0     C 4404  10.596   7.198   4.276 -0.3613 -0.5182  0.6100
  774MOL0     N 4405  10.013   7.305   4.185  0.1333 -0.6019 -0.3003
  774MOL0     N 4406   9.969   7.186   4.205  0.0677 -0.1102  0.3401
  774MOL0     C 4407   9.193   6.186   4.214  0.0033  1.0962  0.4894
  774MOL0     C 4408   9.070   6.115   4.223 -0.1348 -0.9369 -0.5631
  774MOL0     C 4409   8.747   5.851   4.285  0.1383 -0.2808  0.0488
  774MOL0     C 4410   8.652   5.941   4.235  0.0600  0.3668 -0.1920
  774MOL0     C 4411   8.519   5.916   4.254 -0.5984 -0.2497 -0.4108
  774MOL0     C 4412   8.468   5.799   4.316 -0.2619 -0.4158  0.2387
  774MOL0     O 4413   8.337   5.763   4.337  0.5588 -0.1081 -0.3987
  774MOL0     C 4414   8.239   5.857   4.301  0.2819  0.4069 -0.0494
  774MOL0     C 4415   8.211   5.862   4.159 -1.0030  0.3192 -0.7541
  774MOL0     C 4416   8.081   5.924   4.138 -0.9417 -0.7580 -0.1724
  774MOL0     C 4417   8.048   5.945   3.979 -0.6922 -0.1142 -0.0867
  774MOL0     C 4418   7.914   6.001   3.965 -0.3101  0.6584 -0.9831
  774MOL0     C 4419   7.810   6.067   3.975 -0.4916  1.0629  0.8927
  774MOL0     C 4420   8.564   5.704   4.362  0.4360  0.5617 -0.0221
  774MOL0     C 4421   8.700   5.733   4.346  0.4688  0.0074  0.7772
  774MOL0     C 4422   8.800   5.627   4.395 -0.3834 -1.0794 -0.9119
  774MOL0     H 4423   9.108   5.891   3.974 -2.6059 -0.3125  1.7033
  774MOL0     H 4424   9.341   6.007   3.970 -1.6527 -1.7812 -0.4626
  774MOL0     H 4425   9.327   6.415   4.074  1.4566 -0.8060 -2.8648
  774MOL0     H 4426   9.428   6.397   4.213  1.0582 -4.4195  1.7220
  774MOL0     H 4427   9.535   6.395   3.923  2.6235  0.4090 -0.1462
  774MOL0     H 4428   9.621   6.346   4.063  0.6104 -0.1963 -1.9537
  774MOL0     H 4429   9.632   6.575   4.163  0.0779  1.5408 -0.4502
  774MOL0     H 4430   9.517   6.634   4.050 -1.4744 -1.8355 -2.3664
  774MOL0     H 4431   9.785   6.520   3.971 -0.0739 -0.3919 -1.0234
  774MOL0     H 4432   9.661   6.593   3.867  1.5481 -2.1454 -0.3112
  774MOL0     H 4433   9.781   6.800   3.888  0.0816  1.3737  0.6294
  774MOL0     H 4434   9.685   6.811   4.033  3.5660  3.3523  3.0164
  774MOL0     H 4435   9.860   6.735   4.170  0.8040 -2.0551 -0.0062
  774MOL0     H 4436   9.944   6.673   4.025 -0.6919 -0.0762 -2.7462
  774MOL0     H 4437   9.995   6.900   3.954 -2.3925  1.4306 -0.0642
  774MOL0     H 4438  10.034   6.882   4.131  0.3348  2.1010  0.3479
  774MOL0     H 4439   9.786   6.998   3.998  2.0199  0.1503 -1.6526
  774MOL0     H 4440   9.789   6.986   4.170  1.0267  2.3886  0.7918
  774MOL0     H 4441   9.931   7.199   3.876 -0.7663 -0.8928 -0.0894
  774MOL0     H 4442  10.070   7.445   3.863 -0.1589 -0.6233 -0.0644
  774MOL0     H 4443  10.031   7.528   4.015  1.4549 -1.1661  2.0344
  774MOL0     H 4444  10.269   7.550   3.989  0.4562 -0.0063 -1.9222
  774MOL0     H 4445  10.243   7.433   4.114 -2.0614  0.5723  0.4976
  774MOL0     H 4446  10.317   7.383   3.822 -1.2558 -1.3875  0.2627
  774MOL0     H 4447  10.293   7.248   3.932 -3.3099  0.8427  1.3398
  774MOL0     H 4448  10.514   7.458   3.966 -0.2056 -0.3436 -0.2391
  774MOL0     H 4449  10.525   7.292   3.912 -0.1981  0.3929 -0.4253
  774MOL0     H 4450  10.716   7.420   4.049  0.0217  0.1533  0.1972
  774MOL0     H 4451  10.910   7.374   4.153 -1.1336  2.9468  1.4804
  774MOL0     H 4452  11.123   6.945   4.505  0.0263 -0.6776  1.2152
  774MOL0     H 4453  11.363   6.951   4.609 -0.9629 -0.1636  1.6673
  774MOL0     H 4454  11.544   7.139   4.465 -1.4377  0.2846 -0.1520
  774MOL0     H 4455  11.542   7.301   4.522  1.4630  0.3391 -0.2776
  774MOL0     H 4456  11.733   7.279   4.659  1.5484 -1.5675  1.3142
  774MOL0     H 4457  11.734   7.098   4.624  0.4865  0.6002  0.9741
  774MOL0     H 4458  11.789   7.156   4.396 -0.1367  0.1734 -0.4076
  774MOL0     H 4459  11.787   7.334   4.429  0.3869  0.1827  1.0004
  774MOL0     H 4460  11.974   7.278   4.614 -1.0330 -0.7402  0.0099
  774MOL0     H 4461  12.006   7.308   4.442 -1.8045  1.6554 -0.7580
  774MOL0     H 4462  12.035   7.078   4.391 -1.2824 -1.1824 -0.7323
  774MOL0     H 4463  11.932   7.023   4.532 -2.5973  1.6774 -1.5381
  774MOL0     H 4464  12.203   7.166   4.567 -0.3461  0.0911 -1.9159
  774MOL0     H 4465  12.096   7.095   4.690 -3.4870 -0.4309 -0.8747
  774MOL0     H 4466  12.164   6.870   4.579  2.4781 -1.0850 -1.5155
  774MOL0     H 4467  12.283   6.964   4.670 -1.2243  2.5566  0.3502
  774MOL0     H 4468  12.260   6.958   4.367  0.7648 -1.4458 -0.6952
  774MOL0     H 4469  12.381   7.050   4.456  4.3172 -2.0342 -1.1832
  774MOL0     H 4470  11.321   7.360   4.689 -0.2298 -0.5349  0.4444
  774MOL0     H 4471  11.089   7.360   4.598  0.0443 -0.9797 -0.9031
  774MOL0     H 4472  10.702   7.103   4.426  0.3542 -0.5469 -1.4546
  774MOL0     H 4473  10.501   7.152   4.301 -0.6102 -0.9330 -0.9686
  774MOL0     H 4474   9.209   6.268   4.284 -4.7206  0.3764  2.7978
  774MOL0     H 4475   9.006   6.148   4.305  0.4133 -1.1612 -0.0369
  774MOL0     H 4476   8.686   6.036   4.193  0.9350  0.2547  0.2391
  774MOL0     H 4477   8.451   5.991   4.215 -1.3179 -0.8705 -0.3575
  774MOL0     H 4478   8.262   5.952   4.350 -0.7640  0.3956  0.5176
  774MOL0     H 4479   8.151   5.802   4.336  0.3632 -0.7836 -1.6018
  774MOL0     H 4480   8.219   5.760   4.120  1.9527 -0.3278  1.2340
  774MOL0     H 4481   8.288   5.922   4.111 -1.1411  0.7133 -0.4815
  774MOL0     H 4482   8.091   6.024   4.183 -1.6915 -0.1537 -1.2956
  774MOL0     H 4483   8.005   5.860   4.185 -0.5952 -1.0057  0.0499
  774MOL0     H 4484   8.116   6.023   3.941 -2.1041  2.2289  1.8791
  774MOL0     H 4485   8.051   5.847   3.932 -1.4519  0.6277 -1.7766
  774MOL0     H 4486   7.714   6.114   3.974 -0.0086  2.0627  1.0135
  774MOL0     H 4487   8.539   5.611   4.413  0.2632  0.1871 -0.7647
  774MOL0     H 4488   8.758   5.537   4.440  0.4929 -2.6100 -2.9523
  774MOL0     H 4489   8.878   5.603   4.322  0.4095 -1.3325 -0.0001
  774MOL0     H 4490   8.853   5.676   4.477 -0.0230 -1.5423 -0.8641
  775MOL0     O 4491   5.481   0.311   5.056  0.2494 -1.0449 -0.3171
  775MOL0     C 4492   5.388   0.235   5.080 -0.9498 -0.9997 -0.0340
  775MOL0     O 4493   5.380   0.152   5.191  0.3823 -0.5622  0.0569
  775MOL0     C 4494   5.486   0.146   5.283 -0.2048 -0.4427 -0.5135
  775MOL0     C 4495   5.618   0.193   5.269  0.3637 -0.6153 -0.0142
  775MOL0     C 4496   5.711   0.157   5.357 -0.0272 -0.3235 -0.4817
  775MOL0     C 4497   5.682   0.082   5.471 -0.0934  0.3532 -0.0292
  775MOL0     O 4498   5.775   0.019   5.546  0.6818  0.8130  0.5652
  775MOL0     C 4499   5.894   0.088   5.582 -0.2545 -0.8913 -0.2429
  775MOL0     C 4500   5.958   0.000   5.684 -0.0614 -0.1640 -0.2451
  775MOL0     C 4501   6.062   0.077   5.763 -0.0766 -0.4458 -0.2534
  775MOL0     C 4502   6.117  -0.002   5.884 -0.4914 -0.0990  0.2971
  775MOL0     C 4503   6.243   0.064   5.933 -0.7281 -0.7474 -0.5090
  775MOL0     C 4504   6.270   0.005   6.068  0.4608 -0.1460  0.0662
  775MOL0     C 4505   6.411   0.040   6.111 -0.9392 -0.5511 -0.3609
  775MOL0     C 4506   6.414   0.173   6.184  0.1764  0.4137 -0.5902
  775MOL0     N 4507   6.547   0.237   6.173  0.6411 -1.0581 -0.8424
  775MOL0     C 4508   6.663   0.173   6.210  0.1950 -0.2291  0.7442
  775MOL0     C 4509   6.760   0.262   6.172 -0.4517  0.2528 -0.7618
  775MOL0     C 4510   6.911   0.247   6.202 -0.7325 -0.0505 -0.4624
  775MOL0     C 4511   7.000   0.184   6.088  0.0035 -0.1347 -0.3717
  775MOL0     C 4512   7.048   0.281   5.977  1.0519 -0.1142  0.7541
  775MOL0     C 4513   7.122   0.200   5.873  0.6914  0.6796  0.0413
  775MOL0     O 4514   7.197   0.273   5.775 -0.2498  0.3780 -0.2206
  775MOL0     C 4515   7.318   0.322   5.803  0.1293 -0.3371  0.2935
  775MOL0     C 4516   7.381   0.412   5.716  0.3681  0.1186 -0.2038
  775MOL0     C 4517   7.510   0.457   5.742 -0.2835  0.7578 -0.7899
  775MOL0     C 4518   7.587   0.417   5.856 -0.4074 -0.4786  0.3356
  775MOL0     C 4519   7.710   0.492   5.889  0.2742 -0.9046 -0.0141
  775MOL0     O 4520   7.773   0.477   6.008  0.0208 -0.9932  0.3337
  775MOL0     C 4521   7.881   0.552   6.038 -0.2189  0.5715 -0.3030
  775MOL0     C 4522   7.858   0.689   6.074 -0.4504  0.4173  0.6843
  775MOL0     C 4523   7.955   0.779   6.099  0.0498 -0.6053 -0.1049
  775MOL0     C 4524   8.091   0.749   6.069  0.0968 -0.5504  0.1655
  775MOL0     O 4525   8.203   0.823   6.095  0.4540  0.2929  0.1010
  775MOL0     C 4526   8.183   0.950   6.155 -0.2925  0.4213  0.0123
  775MOL0     C 4527   8.317   1.020   6.192  0.0406  0.0808  0.3688
  775MOL0     C 4528   8.388   0.951   6.297 -0.3011 -0.2385 -0.2067
  775MOL0     C 4529   8.512   1.026   6.349 -0.3531  0.2792 -0.1131
  775MOL0     C 4530   8.586   0.941   6.450 -0.5885  0.0912 -0.1152
  775MOL0     C 4531   8.733   0.913   6.424  0.8609 -0.3019  1.3675
  775MOL0     C 4532   8.828   1.031   6.382 -0.1500  0.2946 -1.1554
  775MOL0     C 4533   8.969   0.969   6.348  0.0876  0.2846 -0.2872
  775MOL0    Cl 4534   9.087   1.108   6.353  0.5467  0.6113  0.4626
  775MOL0     C 4535   8.118   0.620   6.032  0.1554 -0.4350 -0.1758
  775MOL0     C 4536   8.016   0.522   6.012  0.7405  0.3063 -0.0830
  775MOL0     O 4537   7.740   0.572   5.801 -0.3267  0.5138 -0.7053
  775MOL0     C 4538   7.524   0.325   5.937  0.5184  0.0781  1.1079
  775MOL0     C 4539   7.390   0.281   5.920 -0.5375 -0.5703 -0.3847
  775MOL0     N 4540   6.694   0.369   6.113 -0.7455  0.4009 -0.2438
  775MOL0     N 4541   6.565   0.359   6.119 -0.8553 -0.2132 -0.0903
  775MOL0     C 4542   5.545   0.046   5.500  0.6837 -0.0283 -0.8476
  775MOL0     C 4543   5.445   0.073   5.395  0.3170  0.5863  0.1582
  775MOL0     C 4544   5.270   0.246   4.992 -0.4027  0.3643 -0.2059
  775MOL0     C 4545   5.151   0.181   5.037 -0.6127  0.2576 -0.7845
  775MOL0     C 4546   5.027   0.219   4.982  0.0983 -0.5952 -0.2127
  775MOL0     C 4547   5.015   0.292   4.868 -1.6536 -0.4865  0.4320
  775MOL0     O 4548   4.890   0.317   4.811  0.2023  0.3281 -0.2193
  775MOL0     C 4549   4.868   0.435   4.732  0.7925 -0.4950 -0.0746
  775MOL0     C 4550   4.734   0.417   4.652  0.2626  0.2271  0.3972
  775MOL0     C 4551   4.613   0.380   4.743  0.0202 -0.2168  0.5582
  775MOL0     C 4552   4.537   0.500   4.807 -0.1264  0.4979  0.2440
  775MOL0     C 4553   4.611   0.553   4.925  0.5657  0.8553 -0.5551
  775MOL0     C 4554   4.690   0.598   5.009  0.1287 -0.3905 -0.6218
  775MOL0     C 4555   5.140   0.330   4.810  0.0896  0.0920 -0.2171
  775MOL0     C 4556   5.266   0.304   4.866 -0.4411 -0.6042  0.9401
  775MOL0     C 4557   5.387   0.361   4.791  0.2800 -0.5486  0.0802
  775MOL0     H 4558   5.655   0.262   5.194  1.0346 -0.9569 -0.0090
  775MOL0     H 4559   5.811   0.200   5.354 -0.2672  0.2815  0.1145
  775MOL0     H 4560   5.965   0.100   5.500 -1.4313  1.8099 -0.9939
  775MOL0     H 4561   5.867   0.188   5.619 -1.4405 -1.7493  1.3299
  775MOL0     H 4562   5.993  -0.098   5.651 -0.3942 -0.3992  0.0883
  775MOL0     H 4563   5.882  -0.031   5.757  0.7028  0.6463  0.9455
  775MOL0     H 4564   6.012   0.166   5.801 -2.1642 -1.1836 -1.1622
  775MOL0     H 4565   6.144   0.101   5.694  2.0913 -3.0442  1.2109
  775MOL0     H 4566   6.044  -0.012   5.964 -0.9599  0.7651 -0.0031
  775MOL0     H 4567   6.136  -0.103   5.845 -1.0984  0.6999 -2.3100
  775MOL0     H 4568   6.329   0.051   5.866 -0.5256  2.5834 -1.0890
  775MOL0     H 4569   6.230   0.173   5.937 -0.1323 -0.6552 -1.0394
  775MOL0     H 4570   6.189   0.038   6.133  0.8679 -1.1419  1.1067
  775MOL0     H 4571   6.258  -0.104   6.066 -1.4528  0.0365 -0.6735
  775MOL0     H 4572   6.473   0.041   6.020  0.1034  0.8416  0.3287
  775MOL0     H 4573   6.453  -0.030   6.184  0.5440 -1.7370 -2.2468
  775MOL0     H 4574   6.346   0.242   6.132 -1.1139  1.1747  1.9715
  775MOL0     H 4575   6.397   0.155   6.290  1.5701  1.6143 -0.1328
  775MOL0     H 4576   6.681   0.080   6.264 -0.7836 -0.2298  1.0774
  775MOL0     H 4577   6.954   0.346   6.222  1.8698 -0.6704 -2.4461
  775MOL0     H 4578   6.910   0.200   6.301 -0.8509  0.3788 -0.2584
  775MOL0     H 4579   7.097   0.153   6.128 -0.2467 -1.2683 -0.6263
  775MOL0     H 4580   6.957   0.095   6.043  2.7478 -1.0747 -1.3539
  775MOL0     H 4581   7.122   0.352   6.016  1.3239 -0.0667  0.1686
  775MOL0     H 4582   6.966   0.342   5.940  0.7996 -0.1746  1.2129
  775MOL0     H 4583   7.041   0.155   5.816  0.6894 -1.0862  1.3555
  775MOL0     H 4584   7.188   0.127   5.921  0.1809 -1.1377 -1.8652
  775MOL0     H 4585   7.323   0.455   5.635  2.0240 -0.5771 -1.8325
  775MOL0     H 4586   7.550   0.534   5.676  0.0613  0.8598 -0.4639
  775MOL0     H 4587   7.761   0.737   6.078 -0.8431 -0.3276  0.2850
  775MOL0     H 4588   7.929   0.876   6.140 -1.0211 -0.6322 -0.6662
  775MOL0     H 4589   8.134   1.003   6.073  3.5875  2.5310 -1.2048
  775MOL0     H 4590   8.117   0.949   6.243  1.4794 -1.5416  1.3996
  775MOL0     H 4591   8.376   1.029   6.101 -0.1889 -0.9017  0.1189
  775MOL0     H 4592   8.290   1.121   6.223  2.8508  1.4704 -1.2935
  775MOL0     H 4593   8.323   0.950   6.384 -0.0983 -0.9205 -0.0625
  775MOL0     H 4594   8.404   0.848   6.265 -0.4395 -0.0904 -0.7761
  775MOL0     H 4595   8.493   1.128   6.383 -0.3475  0.7081 -1.3529
  775MOL0     H 4596   8.577   1.043   6.263  1.9026  1.4059  1.6984
  775MOL0     H 4597   8.531   0.850   6.474 -0.2075  0.2538  1.4634
  775MOL0     H 4598   8.588   1.003   6.540  0.9431 -0.1073  0.0069
  775MOL0     H 4599   8.773   0.869   6.515 -1.5679  0.7779  3.0477
  775MOL0     H 4600   8.745   0.844   6.340 -2.0769  0.8296 -0.1327
  775MOL0     H 4601   8.837   1.094   6.471  1.3159  1.3017 -1.9722
  775MOL0     H 4602   8.779   1.089   6.304 -1.2136  1.8779  0.6261
  775MOL0     H 4603   9.007   0.884   6.405  0.3512  1.1833  0.9071
  775MOL0     H 4604   8.956   0.929   6.247 -0.5593  1.5361 -0.7158
  775MOL0     H 4605   8.222   0.595   6.010 -0.3196 -0.0360 -3.3675
  775MOL0     H 4606   8.043   0.422   5.978  1.1338  1.5034 -3.6952
  775MOL0     H 4607   7.583   0.293   6.023  0.9816  1.0328  1.1611
  775MOL0     H 4608   7.361   0.203   5.989  0.3211 -0.9720 -0.4609
  775MOL0     H 4609   5.509   0.001   5.592  0.8096 -0.5682 -1.0568
  775MOL0     H 4610   5.338   0.058   5.410 -0.1029  1.4738 -1.6699
  775MOL0     H 4611   5.146   0.114   5.122  0.7593  0.9834 -0.0923
  775MOL0     H 4612   4.934   0.184   5.027 -0.6439  0.7988 -0.5933
  775MOL0     H 4613   4.948   0.447   4.658  2.3493 -3.3611  0.9740
  775MOL0     H 4614   4.854   0.522   4.796  0.8877 -0.9867  0.6297
  775MOL0     H 4615   4.748   0.339   4.578 -0.2998 -1.0365  1.5767
  775MOL0     H 4616   4.708   0.508   4.597 -0.6866  0.3743  1.0562
  775MOL0     H 4617   4.626   0.299   4.816 -1.8657 -0.4634  0.6565
  775MOL0     H 4618   4.545   0.337   4.669 -2.4092  4.2779 -0.1290
  775MOL0     H 4619   4.528   0.586   4.740  2.7481  2.9555  2.6991
  775MOL0     H 4620   4.438   0.462   4.832  0.0521  0.5093  0.9734
  775MOL0     H 4621   4.772   0.630   5.070  1.2690 -0.2235 -2.1728
  775MOL0     H 4622   5.138   0.386   4.717  0.2980 -0.2795 -0.4473
  775MOL0     H 4623   5.421   0.445   4.852  1.5056 -2.5038  2.2548
  775MOL0     H 4624   5.463   0.282   4.792  0.0003 -0.8262 -0.2680
  775MOL0     H 4625   5.371   0.401   4.690 -0.2620  0.3142  0.4934
  776MOL0     O 4626   7.854   5.746   9.551 -0.2683 -0.3214 -0.2215
  776MOL0     C 4627   7.750   5.807   9.566 -0.3999  0.8353  0.1744
  776MOL0     O 4628   7.735   5.940   9.566 -0.2009 -0.5295 -1.5367
  776MOL0     C 4629   7.844   6.015   9.516  0.4140 -0.1920  0.6523
  776MOL0     C 4630   7.829   6.076   9.390 -0.2191 -0.6423 -0.0966
  776MOL0     C 4631   7.923   6.167   9.341  0.6195  0.0815 -0.0791
  776MOL0     C 4632   8.038   6.205   9.416  0.8377 -0.6201 -0.1418
  776MOL0     O 4633   8.114   6.306   9.369  0.4125 -0.2560 -0.1909
  776MOL0     C 4634   8.250   6.325   9.432  0.8184 -0.2864  0.8351
  776MOL0     C 4635   8.247   6.447   9.518  0.4326 -0.4818  0.7423
  776MOL0     C 4636   8.364   6.466   9.609  0.0740  0.3574 -0.4433
  776MOL0     C 4637   8.494   6.475   9.529  0.0259 -0.3373  0.2474
  776MOL0     C 4638   8.615   6.506   9.621 -0.0016  0.0342 -0.1470
  776MOL0     C 4639   8.738   6.551   9.553  0.5605 -0.8024  0.0720
  776MOL0     C 4640   8.843   6.598   9.647 -1.0584 -0.2939  0.5099
  776MOL0     C 4641   8.831   6.733   9.706  0.5421  0.8677  0.1463
  776MOL0     N 4642   8.940   6.811   9.642  0.5386  0.2844 -0.0898
  776MOL0     C 4643   8.936   6.881   9.526  0.9571  0.3873  0.5945
  776MOL0     C 4644   9.053   6.954   9.526 -0.3666 -0.6830 -0.4950
  776MOL0     C 4645   9.076   7.061   9.426 -1.1274  0.2623 -0.9487
  776MOL0     C 4646   8.982   7.075   9.308 -0.4631  0.4638 -0.3755
  776MOL0     C 4647   8.975   7.211   9.243  0.3015  0.4290  0.2198
  776MOL0     C 4648   9.114   7.260   9.203 -0.7449  0.7349 -0.9262
  776MOL0     O 4649   9.164   7.156   9.123  0.2510  0.1763  0.3733
  776MOL0     C 4650   9.289   7.178   9.076  0.5769  1.1674  1.1007
  776MOL0     C 4651   9.330   7.095   8.969 -0.1057  0.0517 -0.1585
  776MOL0     C 4652   9.465   7.091   8.924 -0.6001 -0.5323  0.3654
  776MOL0     C 4653   9.546   7.212   8.956  0.4008  0.6334 -0.3617
  776MOL0     C 4654   9.683   7.237   8.891 -0.7015  0.3653  0.1941
  776MOL0     O 4655   9.738   7.135   8.820  0.4782 -0.5612  0.7443
  776MOL0     C 4656   9.858   7.156   8.772 -0.2993  1.8193  0.7614
  776MOL0     C 4657   9.876   7.135   8.632 -0.9016 -0.4873 -0.0178
  776MOL0     C 4658  10.008   7.151   8.580 -0.0721 -0.0953 -0.1565
  776MOL0     C 4659  10.121   7.172   8.668  0.1451 -0.6449 -0.5342
  776MOL0     O 4660  10.253   7.191   8.626  0.2168 -0.2314 -0.0972
  776MOL0     C 4661  10.293   7.196   8.486  0.0775 -0.4172  0.1193
  776MOL0     C 4662  10.417   7.285   8.479 -0.0081  0.0624 -0.1747
  776MOL0     C 4663  10.524   7.226   8.569  0.5267  0.4349  0.7028
  776MOL0     C 4664  10.665   7.291   8.552 -0.3893 -0.8340  0.7745
  776MOL0     C 4665  10.747   7.290   8.686 -0.3045  0.7564 -0.3422
  776MOL0     C 4666  10.870   7.375   8.673 -0.0213 -0.4437 -0.2776
  776MOL0     C 4667  10.938   7.404   8.806  1.4313 -0.9061  0.2659
  776MOL0     C 4668  11.070   7.479   8.785 -0.3813  0.2303  0.5059
  776MOL0    Cl 4669  11.144   7.474   8.938  0.4490 -0.1976 -0.0822
  776MOL0     C 4670  10.099   7.186   8.806  1.3605  0.9326 -0.5666
  776MOL0     C 4671   9.969   7.183   8.855 -0.0068 -0.0422 -0.0652
  776MOL0     O 4672   9.739   7.346   8.920 -0.3674 -0.2885 -0.3708
  776MOL0     C 4673   9.496   7.301   9.053 -0.4089  0.0863  0.4756
  776MOL0     C 4674   9.378   7.279   9.117 -0.2589  0.6613  0.3087
  776MOL0     N 4675   9.135   6.914   9.626 -0.2194 -0.2697  0.1609
  776MOL0     N 4676   9.059   6.837   9.690  0.2876  0.7805 -0.2422
  776MOL0     C 4677   8.054   6.144   9.540 -0.5231 -1.0549  0.0769
  776MOL0     C 4678   7.957   6.058   9.589  0.5249 -0.1158 -0.2894
  776MOL0     C 4679   7.631   5.719   9.580 -0.9008 -0.2533  0.0852
  776MOL0     C 4680   7.529   5.765   9.666  0.5398  0.6361  0.9391
  776MOL0     C 4681   7.401   5.691   9.677 -0.8898 -0.5114  0.1709
  776MOL0     C 4682   7.389   5.567   9.610 -1.0743  0.1434 -1.1580
  776MOL0     O 4683   7.288   5.483   9.616  0.6218  0.1950  0.5280
  776MOL0     C 4684   7.187   5.505   9.714 -0.4149  0.2086 -0.0189
  776MOL0     C 4685   7.079   5.594   9.668 -0.2600 -0.0112 -0.0580
  776MOL0     C 4686   6.969   5.516   9.589 -0.3795 -0.6402 -0.5036
  776MOL0     C 4687   6.870   5.611   9.529  0.4929 -0.0476  0.1947
  776MOL0     C 4688   6.755   5.532   9.473  0.5491  0.1955  0.7550
  776MOL0     C 4689   6.671   5.455   9.434  0.7182  0.7251 -0.2027
  776MOL0     C 4690   7.495   5.523   9.523  0.5676  0.2363 -0.6823
  776MOL0     C 4691   7.609   5.600   9.504 -1.1226  0.4115 -0.4437
  776MOL0     C 4692   7.704   5.538   9.404 -0.6699  0.0667 -0.1121
  776MOL0     H 4693   7.737   6.059   9.334 -0.1073 -2.7116  0.2739
  776MOL0     H 4694   7.907   6.221   9.248 -1.4493 -1.1256 -0.4768
  776MOL0     H 4695   8.287   6.234   9.480 -0.3508 -1.1230  0.1980
  776MOL0     H 4696   8.317   6.343   9.347  0.8949 -1.2046  0.6941
  776MOL0     H 4697   8.160   6.437   9.583  1.6016  0.4173  2.5147
  776MOL0     H 4698   8.227   6.533   9.454 -3.2619 -1.7922 -0.1009
  776MOL0     H 4699   8.378   6.380   9.675 -0.4645  1.9807  1.9184
  776MOL0     H 4700   8.347   6.552   9.674  1.0060 -2.2897  3.6388
  776MOL0     H 4701   8.512   6.382   9.474 -2.4918 -0.4761 -0.4605
  776MOL0     H 4702   8.486   6.554   9.453  4.1921  0.4632  0.4357
  776MOL0     H 4703   8.580   6.581   9.693 -1.1052 -2.9605  2.6826
  776MOL0     H 4704   8.636   6.412   9.673 -0.2332 -1.4490 -2.5562
  776MOL0     H 4705   8.782   6.471   9.493  2.6108  0.5264 -0.2864
  776MOL0     H 4706   8.716   6.637   9.490  2.6240  0.7200  1.3160
  776MOL0     H 4707   8.933   6.597   9.585 -1.2893  0.2045  0.1629
  776MOL0     H 4708   8.862   6.521   9.723 -3.8169 -1.2133  0.3707
  776MOL0     H 4709   8.730   6.776   9.699 -0.9450 -2.0937  1.6545
  776MOL0     H 4710   8.852   6.724   9.813 -1.8698 -1.1905  0.5367
  776MOL0     H 4711   8.849   6.880   9.461  1.9078 -3.4261 -0.9058
  776MOL0     H 4712   9.073   7.150   9.489  0.8888 -1.3084  1.5672
  776MOL0     H 4713   9.177   7.038   9.390 -0.9982 -0.5961 -0.0675
  776MOL0     H 4714   9.001   7.003   9.228 -1.8636 -1.1684  0.6739
  776MOL0     H 4715   8.879   7.052   9.338 -1.0310  0.7657 -1.9745
  776MOL0     H 4716   8.923   7.278   9.313 -0.2383 -1.9469  2.2273
  776MOL0     H 4717   8.918   7.197   9.151 -0.4112 -1.3249  0.8889
  776MOL0     H 4718   9.177   7.266   9.292 -0.4057 -2.7555 -0.7615
  776MOL0     H 4719   9.109   7.347   9.137  0.2752 -1.5266 -4.3117
  776MOL0     H 4720   9.254   7.029   8.930 -0.8000  0.7542 -0.0175
  776MOL0     H 4721   9.501   7.008   8.864 -0.3039  0.1827 -0.4686
  776MOL0     H 4722   9.792   7.105   8.570  0.4057 -1.1923 -1.5231
  776MOL0     H 4723  10.035   7.127   8.477 -2.6327  1.2872 -1.2372
  776MOL0     H 4724  10.298   7.096   8.442  1.2418  0.4215 -1.7727
  776MOL0     H 4725  10.226   7.245   8.415  0.2601 -0.1989  0.0986
  776MOL0     H 4726  10.456   7.286   8.376  2.6230 -2.3789  0.6686
  776MOL0     H 4727  10.392   7.387   8.511  0.6599 -0.2645  1.4716
  776MOL0     H 4728  10.496   7.253   8.671  0.0122  1.4120  0.3231
  776MOL0     H 4729  10.533   7.117   8.557  0.8042  0.7013 -2.4146
  776MOL0     H 4730  10.640   7.394   8.525 -1.7734 -1.5771 -0.9736
  776MOL0     H 4731  10.722   7.242   8.472 -0.5853 -3.7491  2.2780
  776MOL0     H 4732  10.771   7.185   8.704 -0.7852  0.2841 -2.2009
  776MOL0     H 4733  10.690   7.320   8.775  1.3291  1.6086  0.4720
  776MOL0     H 4734  10.940   7.322   8.609  0.0200 -0.6092 -0.0980
  776MOL0     H 4735  10.844   7.474   8.636 -1.9545 -0.0803  1.8482
  776MOL0     H 4736  10.958   7.310   8.858  1.9083 -0.9663 -0.0211
  776MOL0     H 4737  10.865   7.459   8.867 -1.9977 -2.9979 -1.5746
  776MOL0     H 4738  11.129   7.418   8.717 -1.0438 -0.4760  0.5593
  776MOL0     H 4739  11.067   7.582   8.748  2.8021  0.0970 -0.3656
  776MOL0     H 4740  10.177   7.219   8.874  0.1615  0.5100  1.0926
  776MOL0     H 4741   9.960   7.188   8.963  1.0953  0.2706  0.0249
  776MOL0     H 4742   9.566   7.378   9.084  2.1395 -2.0793  0.4435
  776MOL0     H 4743   9.348   7.348   9.196 -1.5075  1.6583 -0.9892
  776MOL0     H 4744   8.141   6.168   9.599 -2.3961  2.7753  1.6908
  776MOL0     H 4745   7.959   6.022   9.691  0.9123 -0.2812 -0.3540
  776MOL0     H 4746   7.524   5.864   9.710 -1.7927  0.2287  1.6947
  776MOL0     H 4747   7.324   5.735   9.740 -0.0147 -0.2072  1.0428
  776MOL0     H 4748   7.225   5.539   9.811 -0.4887 -2.3623  0.9845
  776MOL0     H 4749   7.143   5.408   9.741 -0.4074  0.4995  1.0680
  776MOL0     H 4750   7.126   5.673   9.608  1.1995 -0.3901  0.5457
  776MOL0     H 4751   7.029   5.642   9.753  1.6390  0.0471  1.0681
  776MOL0     H 4752   6.914   5.450   9.656 -2.1561  0.3927 -0.8817
  776MOL0     H 4753   7.017   5.443   9.523  1.7357 -1.5213  1.8739
  776MOL0     H 4754   6.828   5.680   9.603  1.4717  3.1783 -2.0380
  776MOL0     H 4755   6.925   5.662   9.449  2.8450 -2.5780  0.0370
  776MOL0     H 4756   6.592   5.395   9.395  0.9878  0.3438 -0.1662
  776MOL0     H 4757   7.483   5.433   9.464 -0.0013  0.2095 -0.5277
  776MOL0     H 4758   7.768   5.461   9.448  1.7383  1.2998 -1.2801
  776MOL0     H 4759   7.649   5.507   9.315 -1.0907  3.1767 -1.0392
  776MOL0     H 4760   7.769   5.619   9.371  0.5669 -0.7673  0.2160
  777MOL0     O 4761   5.996   5.109   2.024 -0.4465  0.3411 -0.0320
  777MOL0     C 4762   5.964   5.116   1.908  0.5098 -0.2236  0.1008
  777MOL0     O 4763   5.887   5.012   1.843  0.2201  0.0166 -0.0276
  777MOL0     C 4764   5.864   4.886   1.907 -0.2184 -0.3959  0.9972
  777MOL0     C 4765   5.745   4.821   1.866  0.1307 -0.5902 -0.5188
  777MOL0     C 4766   5.692   4.708   1.932 -0.5856  0.3103  0.6880
  777MOL0     C 4767   5.762   4.662   2.043  0.2297 -0.3683 -0.8093
  777MOL0     O 4768   5.722   4.553   2.127 -0.0650 -0.6806  0.1952
  777MOL0     C 4769   5.600   4.504   2.092  0.0319 -0.5703 -0.4287
  777MOL0     C 4770   5.564   4.367   2.164 -0.6946  0.1136 -0.0517
  777MOL0     C 4771   5.544   4.377   2.319 -0.4043 -0.3121  0.2344
  777MOL0     C 4772   5.411   4.465   2.340  0.2512 -0.5980 -0.7115
  777MOL0     C 4773   5.366   4.471   2.487 -0.0645  0.1798 -0.9436
  777MOL0     C 4774   5.446   4.580   2.566 -0.3332  1.0280  0.1822
  777MOL0     C 4775   5.417   4.591   2.715  0.2078  0.6437 -0.2501
  777MOL0     C 4776   5.298   4.674   2.758 -0.3061 -0.2402 -0.2522
  777MOL0     N 4777   5.285   4.680   2.902 -0.4148  0.1185  0.6398
  777MOL0     C 4778   5.370   4.755   2.977 -0.0595  0.2344 -0.9653
  777MOL0     C 4779   5.358   4.720   3.105 -0.2199 -0.0715 -0.0774
  777MOL0     C 4780   5.430   4.791   3.223  1.3347 -0.3227  0.8305
  777MOL0     C 4781   5.448   4.680   3.332 -0.5107  0.1379 -0.4025
  777MOL0     C 4782   5.518   4.735   3.460 -1.0407  0.1053 -0.2399
  777MOL0     C 4783   5.628   4.836   3.434 -0.1917  0.3681 -0.1781
  777MOL0     O 4784   5.729   4.788   3.350 -0.0800  0.0185 -0.0355
  777MOL0     C 4785   5.860   4.831   3.346  0.1336  0.3266  0.6878
  777MOL0     C 4786   5.947   4.750   3.279 -0.2879  0.3966  1.1485
  777MOL0     C 4787   6.087   4.763   3.285 -0.5564 -0.8616  0.5047
  777MOL0     C 4788   6.139   4.855   3.374  0.2464 -0.2774 -0.0326
  777MOL0     C 4789   6.286   4.864   3.390 -0.7282 -0.0396 -0.3827
  777MOL0     O 4790   6.359   4.782   3.305  0.3646  0.4126 -0.2825
  777MOL0     C 4791   6.492   4.780   3.308 -1.3784 -0.5592  0.0981
  777MOL0     C 4792   6.569   4.897   3.318 -0.1277 -0.1127 -0.5975
  777MOL0     C 4793   6.707   4.886   3.313 -0.2386  0.0075  0.8280
  777MOL0     C 4794   6.769   4.767   3.288 -0.5979 -0.1972  0.3425
  777MOL0     O 4795   6.907   4.778   3.301 -0.0658 -0.1300 -0.2345
  777MOL0     C 4796   6.976   4.687   3.383  0.9574  0.5269 -0.1643
  777MOL0     C 4797   7.126   4.719   3.385 -1.1002 -0.0873 -0.2492
  777MOL0     C 4798   7.203   4.643   3.282  0.3508 -0.1945  0.3746
  777MOL0     C 4799   7.357   4.645   3.298 -0.6197  0.5590  0.1505
  777MOL0     C 4800   7.424   4.588   3.168  0.0028  1.0683 -0.4760
  777MOL0     C 4801   7.577   4.590   3.175  0.6272  0.1803 -0.6332
  777MOL0     C 4802   7.636   4.636   3.035 -0.6512  0.3341  0.1855
  777MOL0     C 4803   7.735   4.530   2.974  1.1174 -0.3022 -0.2059
  777MOL0    Cl 4804   7.803   4.562   2.812 -0.4378 -0.1360 -0.1318
  777MOL0     C 4805   6.696   4.647   3.278 -1.0264 -1.3884  0.5656
  777MOL0     C 4806   6.554   4.656   3.290 -0.0862 -0.1789  0.6016
  777MOL0     O 4807   6.338   4.940   3.478 -0.1836  0.2791  0.0904
  777MOL0     C 4808   6.048   4.942   3.448 -0.6034  0.0421 -0.4100
  777MOL0     C 4809   5.909   4.928   3.431 -0.4742  0.2606  0.7285
  777MOL0     N 4810   5.269   4.614   3.104 -0.5551  0.3740 -0.3362
  777MOL0     N 4811   5.233   4.586   2.985 -0.2217  0.2564 -0.4465
  777MOL0     C 4812   5.884   4.723   2.080  0.3864  0.5497 -0.0990
  777MOL0     C 4813   5.935   4.835   2.019  0.0427  1.0651  0.5835
  777MOL0     C 4814   5.980   5.245   1.831  0.4066 -0.6370 -0.3804
  777MOL0     C 4815   5.913   5.269   1.712  0.1022 -0.2800  0.0727
  777MOL0     C 4816   5.908   5.399   1.661  0.6523  1.2424 -0.1269
  777MOL0     C 4817   5.974   5.502   1.715 -0.6302  0.0572  0.6885
  777MOL0     O 4818   5.977   5.631   1.668  1.0227 -1.5636  0.1157
  777MOL0     C 4819   5.887   5.665   1.563  0.4713 -0.4774  0.1085
  777MOL0     C 4820   5.943   5.636   1.428  0.6903 -0.4245 -0.0278
  777MOL0     C 4821   6.073   5.700   1.402 -0.5131 -0.5303 -0.1495
  777MOL0     C 4822   6.063   5.848   1.430 -0.3517  0.4695  0.3562
  777MOL0     C 4823   6.160   5.922   1.356 -0.4312 -1.2383 -0.1344
  777MOL0     C 4824   6.249   5.988   1.295  0.5457  0.0304  0.4178
  777MOL0     C 4825   6.060   5.475   1.819 -0.4551  0.4444 -1.5972
  777MOL0     C 4826   6.059   5.354   1.888 -0.0639 -0.2032 -0.3490
  777MOL0     C 4827   6.140   5.337   2.011  0.5602 -0.5542  0.0224
  777MOL0     H 4828   5.694   4.856   1.777  0.3552  0.0547 -0.3965
  777MOL0     H 4829   5.598   4.676   1.888  0.9716 -2.8079 -0.6909
  777MOL0     H 4830   5.519   4.577   2.107 -3.1443 -3.8078 -0.4067
  777MOL0     H 4831   5.590   4.481   1.986  0.5460 -2.7552 -0.0560
  777MOL0     H 4832   5.648   4.299   2.150  1.4304  2.0578  2.2362
  777MOL0     H 4833   5.483   4.310   2.118 -1.1969 -2.1500  3.3173
  777MOL0     H 4834   5.631   4.418   2.371  0.5646  1.4525 -2.5671
  777MOL0     H 4835   5.537   4.272   2.351  1.0972 -0.4064  0.3260
  777MOL0     H 4836   5.432   4.569   2.313  3.1325  0.2179  3.5312
  777MOL0     H 4837   5.327   4.420   2.286 -1.3110  1.6603 -0.2806
  777MOL0     H 4838   5.261   4.502   2.485 -0.3743 -0.8597 -1.6059
  777MOL0     H 4839   5.369   4.374   2.537  2.0490 -1.2796 -3.6193
  777MOL0     H 4840   5.549   4.543   2.561 -0.4661  0.3408  1.9279
  777MOL0     H 4841   5.439   4.672   2.507 -0.3217  0.7219 -0.3019
  777MOL0     H 4842   5.509   4.637   2.751  0.4977  1.6598 -2.1824
  777MOL0     H 4843   5.401   4.489   2.750 -1.0884  0.6442 -0.7659
  777MOL0     H 4844   5.316   4.771   2.710  0.2586 -2.0686 -4.1217
  777MOL0     H 4845   5.199   4.650   2.718 -0.0112  0.1973 -1.2785
  777MOL0     H 4846   5.449   4.822   2.944  2.3304 -2.9044 -2.1257
  777MOL0     H 4847   5.526   4.828   3.186  0.7029  3.2106  2.3443
  777MOL0     H 4848   5.370   4.877   3.253  0.1939 -0.8965  0.2663
  777MOL0     H 4849   5.350   4.641   3.360  0.6585 -2.0688  0.9199
  777MOL0     H 4850   5.509   4.596   3.295 -0.6128  0.1968 -0.7112
  777MOL0     H 4851   5.570   4.647   3.500  0.2523 -0.1671 -2.3687
  777MOL0     H 4852   5.436   4.770   3.524 -1.9125 -0.0039 -1.2518
  777MOL0     H 4853   5.674   4.856   3.531 -1.2256 -0.1336  0.4285
  777MOL0     H 4854   5.592   4.932   3.397 -1.5004  0.5828  1.5184
  777MOL0     H 4855   5.899   4.667   3.228 -0.0488 -0.5148  2.3619
  777MOL0     H 4856   6.158   4.702   3.230  0.9279  1.5887 -0.4605
  777MOL0     H 4857   6.529   4.998   3.312  3.2918  1.4009 -0.0434
  777MOL0     H 4858   6.770   4.972   3.331 -0.4657  0.0049  1.6773
  777MOL0     H 4859   6.945   4.700   3.487  2.3025 -3.6293  0.9856
  777MOL0     H 4860   6.948   4.584   3.357 -0.8584  0.9484  0.0285
  777MOL0     H 4861   7.140   4.823   3.353 -1.9826 -0.9296 -3.7997
  777MOL0     H 4862   7.172   4.700   3.482 -0.3429  3.3599  0.2005
  777MOL0     H 4863   7.155   4.545   3.273  1.4041 -0.8377  1.5148
  777MOL0     H 4864   7.174   4.695   3.190 -0.4171  0.8376  1.1740
  777MOL0     H 4865   7.382   4.592   3.390  3.0504 -0.3509 -1.1747
  777MOL0     H 4866   7.399   4.745   3.315  2.3847 -0.9020  2.1661
  777MOL0     H 4867   7.390   4.652   3.086 -0.4396  0.8957 -0.4337
  777MOL0     H 4868   7.396   4.482   3.161  0.4643  0.9183 -0.0684
  777MOL0     H 4869   7.606   4.665   3.249 -1.1039 -0.1879  0.4869
  777MOL0     H 4870   7.619   4.492   3.202 -0.7425 -0.0121  1.0003
  777MOL0     H 4871   7.685   4.733   3.051 -2.2307  1.3462 -0.8045
  777MOL0     H 4872   7.557   4.649   2.960 -1.0668  2.0016  0.8552
  777MOL0     H 4873   7.818   4.516   3.043  0.2001 -0.8812  0.8129
  777MOL0     H 4874   7.695   4.428   2.968 -0.7402  0.3295  0.7852
  777MOL0     H 4875   6.750   4.553   3.272  1.2705 -0.0456 -2.3643
  777MOL0     H 4876   6.492   4.567   3.284 -0.4442 -0.0488  2.0688
  777MOL0     H 4877   6.102   5.018   3.504 -0.5963  0.4057 -0.9003
  777MOL0     H 4878   5.836   4.986   3.487 -1.6605 -0.4175 -0.0828
  777MOL0     H 4879   5.936   4.669   2.159 -1.1886  0.8328  1.1974
  777MOL0     H 4880   6.030   4.877   2.053  0.2483  1.5666 -0.5528
  777MOL0     H 4881   5.848   5.196   1.665  1.7048 -1.8805  0.2122
  777MOL0     H 4882   5.839   5.399   1.576 -2.1511 -0.9387  1.9486
  777MOL0     H 4883   5.853   5.768   1.580 -0.1396 -0.5693 -0.5235
  777MOL0     H 4884   5.791   5.614   1.564  1.4125 -2.3424  0.2169
  777MOL0     H 4885   5.871   5.677   1.357  2.6537  1.5698 -0.9783
  777MOL0     H 4886   5.954   5.528   1.411  0.5853 -0.0498 -2.9552
  777MOL0     H 4887   6.089   5.681   1.295 -0.7249 -1.7270  0.0214
  777MOL0     H 4888   6.147   5.647   1.463 -3.3025 -2.6674  1.5983
  777MOL0     H 4889   5.961   5.883   1.410 -1.4414 -1.8166  1.5184
  777MOL0     H 4890   6.075   5.854   1.538  1.8180 -1.3966  0.2840
  777MOL0     H 4891   6.323   6.032   1.231 -0.3247  0.7954 -0.0683
  777MOL0     H 4892   6.121   5.556   1.858  0.8495 -0.4394 -1.7344
  777MOL0     H 4893   6.070   5.361   2.091 -0.4932 -0.6863 -0.8368
  777MOL0     H 4894   6.196   5.244   2.023 -1.1234 -1.5002  0.9371
  777MOL0     H 4895   6.217   5.415   2.015  1.0444 -1.0208 -0.0703
  778MOL0     O 4896   9.088   3.880   4.716 -0.4564  0.3998 -0.8994
  778MOL0     C 4897   9.012   3.949   4.657  0.2694  0.0075  0.0864
  778MOL0     O 4898   9.034   3.991   4.531  0.3197 -0.4596 -0.5472
  778MOL0     C 4899   9.148   3.957   4.470 -0.1165 -0.3090  0.5763
  778MOL0     C 4900   9.223   4.064   4.417  0.1504  0.1120  0.1994
  778MOL0     C 4901   9.341   4.044   4.349  0.4039 -0.1172  0.3247
  778MOL0     C 4902   9.390   3.913   4.329 -0.8011  0.3782  0.2130
  778MOL0     O 4903   9.514   3.885   4.265  0.4191 -0.4321  0.4237
  778MOL0     C 4904   9.575   3.977   4.182 -0.0036 -0.4447  0.2936
  778MOL0     C 4905   9.713   3.939   4.123 -0.1822 -0.0075 -0.8830
  778MOL0     C 4906   9.816   3.932   4.240 -0.3689 -0.0457  0.0064
  778MOL0     C 4907   9.936   3.855   4.191 -0.0509  0.6450 -0.4808
  778MOL0     C 4908  10.047   3.845   4.295  0.3500 -0.1437 -0.3956
  778MOL0     C 4909  10.180   3.801   4.231 -0.8123  0.7733  0.3847
  778MOL0     C 4910  10.290   3.798   4.337  0.8142 -0.4968  0.3705
  778MOL0     C 4911  10.418   3.738   4.280 -0.4400 -0.4869  0.1081
  778MOL0     N 4912  10.545   3.768   4.351  0.1201 -1.1596 -0.2492
  778MOL0     C 4913  10.589   3.896   4.369 -0.3715 -0.3338  1.0421
  778MOL0     C 4914  10.707   3.890   4.435  0.6820 -0.0383 -0.0433
  778MOL0     C 4915  10.795   4.003   4.484 -0.0602  0.3337 -0.2259
  778MOL0     C 4916  10.949   3.968   4.504  0.0444 -0.0750  0.0252
  778MOL0     C 4917  11.016   4.078   4.570 -0.4427 -0.4871 -0.4554
  778MOL0     C 4918  11.178   4.062   4.556  0.9572  0.7965  0.7353
  778MOL0     O 4919  11.209   4.045   4.416  0.7194 -0.2727  0.2046
  778MOL0     C 4920  11.331   4.003   4.376  1.2629 -1.0274  0.3275
  778MOL0     C 4921  11.360   4.007   4.239 -0.0113 -0.0753  0.6376
  778MOL0     C 4922  11.481   3.955   4.181  0.2309  0.5840 -0.5370
  778MOL0     C 4923  11.577   3.908   4.276 -0.0381  0.4038  0.1152
  778MOL0     C 4924  11.687   3.834   4.228  0.2484 -0.4881 -0.1044
  778MOL0     O 4925  11.791   3.809   4.316 -0.5527 -0.0864  0.1745
  778MOL0     C 4926  11.919   3.754   4.282  0.9007  0.6150 -0.1851
  778MOL0     C 4927  11.993   3.717   4.388 -0.5324  0.1776  0.2785
  778MOL0     C 4928  12.131   3.670   4.384  0.4537 -0.4034 -0.4208
  778MOL0     C 4929  12.195   3.668   4.265 -0.6448 -0.0473  0.2442
  778MOL0     O 4930  12.331   3.626   4.261 -0.2520  0.0806 -1.4860
  778MOL0     C 4931  12.407   3.644   4.137 -0.7032  0.3064 -0.5182
  778MOL0     C 4932  12.560   3.633   4.150  0.1804 -0.2889 -0.0926
  778MOL0     C 4933  12.624   3.706   4.273  0.8542  0.1618  0.1619
  778MOL0     C 4934  12.773   3.681   4.293  0.2779 -0.5116  0.0599
  778MOL0     C 4935  12.840   3.771   4.396 -0.5034 -0.0209 -0.0448
  778MOL0     C 4936  12.985   3.748   4.407  0.3430  0.0263 -0.0392
  778MOL0     C 4937  13.045   3.839   4.524 -0.1989 -0.3552  0.4983
  778MOL0     C 4938  13.159   3.923   4.480  0.0107 -0.4505 -0.2333
  778MOL0    Cl 4939  13.110   4.065   4.385 -0.2454  0.3154 -0.1705
  778MOL0     C 4940  12.116   3.703   4.149  0.4567  0.0490  0.4831
  778MOL0     C 4941  11.982   3.745   4.160  0.0107 -0.4535  0.4607
  778MOL0     O 4942  11.689   3.804   4.109  0.3959 -0.4289 -0.8647
  778MOL0     C 4943  11.559   3.924   4.413  0.7685  0.1642  0.1606
  778MOL0     C 4944  11.440   3.977   4.461 -0.2978  0.1158 -0.2959
  778MOL0     N 4945  10.735   3.757   4.460  0.0764 -0.0065  1.2415
  778MOL0     N 4946  10.638   3.688   4.407  0.3523  0.0952 -0.0210
  778MOL0     C 4947   9.311   3.800   4.372 -0.2970 -0.2612  0.2363
  778MOL0     C 4948   9.190   3.826   4.442  0.6856 -0.3871 -0.5535
  778MOL0     C 4949   8.874   3.973   4.698  0.6195 -0.0944  0.5312
  778MOL0     C 4950   8.771   3.946   4.601  0.8780 -0.6159  0.0130
  778MOL0     C 4951   8.634   3.941   4.628 -0.4075 -0.4151  0.0477
  778MOL0     C 4952   8.594   3.967   4.761  0.7150 -0.5364  0.1983
  778MOL0     O 4953   8.458   3.969   4.777  0.3105 -0.3965 -0.4517
  778MOL0     C 4954   8.398   4.098   4.762 -0.2691  0.1251  0.2383
  778MOL0     C 4955   8.307   4.107   4.639 -0.0471 -0.5752  0.3418
  778MOL0     C 4956   8.178   4.009   4.641 -0.0053  0.3682  0.6727
  778MOL0     C 4957   8.106   4.017   4.505  1.0800  0.1343 -0.2996
  778MOL0     C 4958   7.983   3.936   4.504 -1.1787 -0.6875  0.7767
  778MOL0     C 4959   7.877   3.878   4.505  0.1323 -0.3652  0.2144
  778MOL0     C 4960   8.692   3.979   4.860  0.0613  0.4182 -0.8158
  778MOL0     C 4961   8.830   3.994   4.830 -0.0543 -0.8793 -0.0687
  778MOL0     C 4962   8.936   3.993   4.941 -0.0072  0.3009 -0.4985
  778MOL0     H 4963   9.193   4.168   4.431 -1.5308 -0.4886  1.3175
  778MOL0     H 4964   9.384   4.129   4.297 -0.1132  1.8264  2.8556
  778MOL0     H 4965   9.509   3.990   4.096  0.0637 -1.4882  0.0650
  778MOL0     H 4966   9.575   4.073   4.234 -2.4582 -0.2559  0.0792
  778MOL0     H 4967   9.750   4.007   4.046  3.1812 -0.3768  0.2034
  778MOL0     H 4968   9.701   3.835   4.091 -0.7511 -0.4364  0.6229
  778MOL0     H 4969   9.774   3.882   4.328 -2.0784  0.6131 -0.3933
  778MOL0     H 4970   9.839   4.034   4.270 -0.4517  0.5000 -1.6897
  778MOL0     H 4971   9.912   3.753   4.159 -0.3029  0.3296  0.6708
  778MOL0     H 4972   9.970   3.910   4.104 -1.6341  1.3605 -0.6880
  778MOL0     H 4973  10.049   3.946   4.339  0.0480  0.2374 -1.2318
  778MOL0     H 4974  10.025   3.778   4.379  0.9995  0.3282  0.1608
  778MOL0     H 4975  10.163   3.701   4.191 -0.4910  1.5252 -1.7559
  778MOL0     H 4976  10.212   3.866   4.149  0.5690  0.2080  0.4395
  778MOL0     H 4977  10.257   3.751   4.430 -0.6302  1.7967  1.1159
  778MOL0     H 4978  10.314   3.904   4.355  2.4528 -0.8517  0.4303
  778MOL0     H 4979  10.407   3.629   4.286  4.0084 -1.2703 -1.8261
  778MOL0     H 4980  10.437   3.767   4.176  1.6210  2.3155  1.1564
  778MOL0     H 4981  10.545   3.977   4.311  0.1909 -1.4360 -1.0117
  778MOL0     H 4982  10.792   4.083   4.410  0.7030  1.5261  0.9884
  778MOL0     H 4983  10.755   4.054   4.573  1.4261  1.1600  0.0055
  778MOL0     H 4984  10.957   3.883   4.573 -1.2826  0.2671  0.6208
  778MOL0     H 4985  10.998   3.955   4.407 -1.1513  0.3541 -0.6635
  778MOL0     H 4986  10.995   4.074   4.677  6.0904 -2.1949  1.2246
  778MOL0     H 4987  10.975   4.170   4.527 -1.6420 -0.6106  0.3732
  778MOL0     H 4988  11.206   3.974   4.614 -1.7910 -0.4645  0.3147
  778MOL0     H 4989  11.222   4.155   4.594  0.8302  1.1985 -0.0654
  778MOL0     H 4990  11.281   4.046   4.175 -1.3480 -2.0942  0.9494
  778MOL0     H 4991  11.478   3.950   4.073  0.2050 -2.2186 -0.5025
  778MOL0     H 4992  11.936   3.713   4.481 -1.1425 -1.1958 -0.1405
  778MOL0     H 4993  12.195   3.639   4.466 -0.6040  0.6957  0.8898
  778MOL0     H 4994  12.385   3.563   4.066  3.3203 -1.9926  0.5583
  778MOL0     H 4995  12.383   3.745   4.102 -1.9808 -0.1953 -1.1815
  778MOL0     H 4996  12.588   3.527   4.152 -0.9189 -0.5822  2.2119
  778MOL0     H 4997  12.605   3.671   4.057 -2.5001  0.3210 -1.2250
  778MOL0     H 4998  12.603   3.813   4.274 -0.9142 -0.1334 -0.8221
  778MOL0     H 4999  12.562   3.682   4.359 -2.4088  1.7133 -1.5850
  778MOL0     H 5000  12.824   3.686   4.196 -1.1702 -0.5640 -0.7293
  778MOL0     H 5001  12.779   3.579   4.334  2.9434 -0.2883  0.3744
  778MOL0     H 5002  12.784   3.759   4.489 -0.3123 -1.4452 -0.0834
  778MOL0     H 5003  12.828   3.877   4.375  0.5767  0.0429 -0.4279
  778MOL0     H 5004  13.022   3.645   4.418 -0.3327 -0.6008 -2.7740
  778MOL0     H 5005  13.017   3.788   4.311 -0.1726  2.3463  0.6827
  778MOL0     H 5006  13.074   3.770   4.604  0.3788 -0.2716  0.3656
  778MOL0     H 5007  12.972   3.904   4.572 -0.9009  2.3762 -3.8208
  778MOL0     H 5008  13.226   3.952   4.561 -0.8128 -1.8319  0.9938
  778MOL0     H 5009  13.226   3.864   4.416 -1.1496 -0.4066 -1.5387
  778MOL0     H 5010  12.166   3.690   4.054 -3.3975 -0.8966 -1.6187
  778MOL0     H 5011  11.927   3.756   4.067  0.7347 -0.8647 -0.0324
  778MOL0     H 5012  11.640   3.894   4.478 -0.4259 -0.4485  1.4388
  778MOL0     H 5013  11.431   4.004   4.566  0.3686 -2.6243  0.5522
  778MOL0     H 5014   9.338   3.698   4.349  0.7071 -0.1040  0.6410
  778MOL0     H 5015   9.133   3.739   4.475 -1.8742  0.9292 -1.3440
  778MOL0     H 5016   8.799   3.916   4.500 -1.0565 -1.4263 -0.3320
  778MOL0     H 5017   8.568   3.906   4.549  3.2219 -2.8772 -2.1840
  778MOL0     H 5018   8.471   4.178   4.749  0.2318 -0.1168  1.4052
  778MOL0     H 5019   8.336   4.118   4.850  0.7774 -1.9386  1.5543
  778MOL0     H 5020   8.358   4.086   4.545 -0.4056  0.0358  0.0122
  778MOL0     H 5021   8.272   4.210   4.646  1.0838 -0.2646  3.5639
  778MOL0     H 5022   8.111   4.052   4.716 -0.4635 -0.8192  0.9518
  778MOL0     H 5023   8.211   3.910   4.673  3.9687  1.2801 -0.0277
  778MOL0     H 5024   8.080   4.122   4.488  1.0799  0.2467  0.3707
  778MOL0     H 5025   8.173   3.980   4.427 -0.0836 -0.4602 -1.0534
  778MOL0     H 5026   7.780   3.837   4.484  1.1006 -1.9309 -1.5395
  778MOL0     H 5027   8.658   3.981   4.963 -0.1052 -2.4390 -0.7552
  778MOL0     H 5028   9.022   4.054   4.910  0.4408 -1.0352 -1.9684
  778MOL0     H 5029   8.893   4.012   5.039 -1.9140 -0.8806 -1.0694
  778MOL0     H 5030   8.981   3.894   4.952  1.3639  1.0530  1.1719
  779MOL0     O 5031   5.758   8.543   5.740 -0.2222 -0.4010  1.0483
  779MOL0     C 5032   5.692   8.471   5.807 -0.5617  1.0003 -0.5420
  779MOL0     O 5033   5.733   8.411   5.928 -0.0265 -0.3186 -0.7473
  779MOL0     C 5034   5.862   8.422   5.956  0.9020 -1.3964  0.3852
  779MOL0     C 5035   5.931   8.541   5.981  0.4224 -0.2270  0.0969
  779MOL0     C 5036   6.064   8.536   6.013 -0.3299  1.0735  0.1226
  779MOL0     C 5037   6.133   8.414   6.004 -1.2472 -0.1009 -0.0749
  779MOL0     O 5038   6.268   8.438   6.024  0.2107  0.0165  0.4513
  779MOL0     C 5039   6.341   8.319   6.046 -0.0507 -0.3338 -0.7520
  779MOL0     C 5040   6.488   8.369   6.041 -0.4191 -0.0819 -0.3681
  779MOL0     C 5041   6.588   8.249   6.039  0.2362 -0.1104 -0.0454
  779MOL0     C 5042   6.723   8.289   6.087 -0.5481  0.2146  0.1743
  779MOL0     C 5043   6.806   8.360   5.981 -0.5735 -0.0462  0.0689
  779MOL0     C 5044   6.902   8.447   6.053  0.6272 -0.2365  0.2532
  779MOL0     C 5045   6.988   8.520   5.947 -0.0747  0.5573 -0.1516
  779MOL0     C 5046   6.988   8.677   5.977  0.1173  0.0358  0.3722
  779MOL0     N 5047   7.050   8.706   6.103  0.3617 -0.1592 -0.3036
  779MOL0     C 5048   6.989   8.711   6.228  0.2071 -0.6920 -0.3024
  779MOL0     C 5049   7.086   8.700   6.322  1.4457  0.4879 -0.1515
  779MOL0     C 5050   7.085   8.672   6.471 -0.5320 -0.6221 -0.4397
  779MOL0     C 5051   7.111   8.520   6.506  0.4365 -0.3001  0.0208
  779MOL0     C 5052   7.028   8.413   6.441  1.4510  1.1459  0.3423
  779MOL0     C 5053   6.877   8.427   6.464  0.1135 -0.5969  0.2678
  779MOL0     O 5054   6.797   8.323   6.420 -0.8410  0.2137  0.1044
  779MOL0     C 5055   6.662   8.316   6.431  0.2251 -0.3979 -0.1308
  779MOL0     C 5056   6.596   8.188   6.418 -0.5525  0.5788 -0.2226
  779MOL0     C 5057   6.462   8.169   6.425 -0.9152  0.1184  0.4273
  779MOL0     C 5058   6.380   8.275   6.443  0.0277 -0.9886 -0.1744
  779MOL0     C 5059   6.234   8.264   6.442  0.3946 -0.8580 -0.0612
  779MOL0     O 5060   6.164   8.375   6.491  0.0522 -0.5357  0.9769
  779MOL0     C 5061   6.032   8.372   6.461  1.0345 -0.2923  0.0816
  779MOL0     C 5062   5.952   8.353   6.570 -0.7982 -0.3180  0.5114
  779MOL0     C 5063   5.809   8.354   6.552  0.0273  0.2776 -0.3576
  779MOL0     C 5064   5.752   8.370   6.423  0.1055 -0.3066  0.4590
  779MOL0     O 5065   5.618   8.381   6.383 -0.3133 -0.3798  0.1431
  779MOL0     C 5066   5.523   8.395   6.491 -0.5373  0.5170 -0.5434
  779MOL0     C 5067   5.391   8.404   6.439 -0.1276  0.7263  0.8376
  779MOL0     C 5068   5.350   8.549   6.418 -0.7087 -0.0294 -0.2577
  779MOL0     C 5069   5.226   8.564   6.330  0.3278 -0.6403 -0.0413
  779MOL0     C 5070   5.100   8.512   6.398 -0.3108 -0.1024 -0.4366
  779MOL0     C 5071   4.968   8.518   6.319  0.2516  0.3539 -1.2135
  779MOL0     C 5072   4.841   8.451   6.391 -0.1750  1.1012  0.3408
  779MOL0     C 5073   4.727   8.480   6.290  0.2071  0.3329 -0.2072
  779MOL0    Cl 5074   4.701   8.352   6.171  0.5507 -0.6277  0.3666
  779MOL0     C 5075   5.833   8.393   6.314  0.0753 -0.1192 -0.1171
  779MOL0     C 5076   5.969   8.392   6.334 -1.0703  0.3048  0.3481
  779MOL0     O 5077   6.188   8.174   6.372 -0.2143 -0.2149 -0.1531
  779MOL0     C 5078   6.443   8.408   6.464  0.4159 -0.1211  0.1659
  779MOL0     C 5079   6.579   8.425   6.463  0.8084  0.4237 -0.1572
  779MOL0     N 5080   7.195   8.715   6.247  0.2249  0.3263  0.6229
  779MOL0     N 5081   7.183   8.711   6.117  0.2666 -0.3451 -0.8885
  779MOL0     C 5082   6.066   8.296   5.990  0.5482  0.3138  0.2886
  779MOL0     C 5083   5.929   8.302   5.964  0.5638  0.2012  0.6915
  779MOL0     C 5084   5.549   8.442   5.772  0.1391 -0.4170  0.4779
  779MOL0     C 5085   5.456   8.451   5.874 -0.4323 -0.6369 -0.6744
  779MOL0     C 5086   5.321   8.416   5.853 -0.6258  0.2109 -0.0093
  779MOL0     C 5087   5.290   8.357   5.730 -0.1152 -0.1742 -0.1685
  779MOL0     O 5088   5.160   8.326   5.722  0.0881  0.3108  0.9171
  779MOL0     C 5089   5.118   8.235   5.623  0.6057 -0.2488 -0.0421
  779MOL0     C 5090   4.982   8.179   5.661  1.3180 -0.5517 -1.1265
  779MOL0     C 5091   4.866   8.277   5.630 -0.4743 -0.5017  0.3244
  779MOL0     C 5092   4.733   8.233   5.686 -0.5285  0.4987 -0.2926
  779MOL0     C 5093   4.623   8.261   5.590  0.3503 -0.1645  0.1968
  779MOL0     C 5094   4.539   8.309   5.516 -0.2501  0.7603 -0.1887
  779MOL0     C 5095   5.387   8.347   5.631  0.4977  0.2318 -0.4259
  779MOL0     C 5096   5.520   8.385   5.651  0.0518 -0.4227  0.0950
  779MOL0     C 5097   5.618   8.350   5.545 -0.0285  0.4619 -0.3874
  779MOL0     H 5098   5.884   8.637   5.963  1.5281  0.2506 -0.3777
  779MOL0     H 5099   6.124   8.627   6.011  0.6099  0.4621 -1.4325
  779MOL0     H 5100   6.319   8.266   6.139  2.6745  1.7253  1.2107
  779MOL0     H 5101   6.322   8.246   5.966 -4.4770 -0.0159 -0.2616
  779MOL0     H 5102   6.508   8.426   6.132  0.0530  1.0014 -1.1278
  779MOL0     H 5103   6.506   8.433   5.954 -3.3791  1.3010 -0.0940
  779MOL0     H 5104   6.582   8.209   5.937  0.0836  0.7693 -0.3947
  779MOL0     H 5105   6.548   8.168   6.101 -0.5146 -3.0000 -3.8740
  779MOL0     H 5106   6.702   8.358   6.169 -0.6407 -0.4266  0.6975
  779MOL0     H 5107   6.771   8.201   6.131 -2.8335 -0.5986  1.1739
  779MOL0     H 5108   6.869   8.290   5.925  0.8999  1.0914  0.2620
  779MOL0     H 5109   6.743   8.417   5.912 -3.0538  0.4768  2.5653
  779MOL0     H 5110   6.855   8.524   6.115  1.0545 -0.5802  1.0212
  779MOL0     H 5111   6.965   8.385   6.118  0.9038  0.5417  0.7445
  779MOL0     H 5112   6.940   8.512   5.849 -0.1862  1.0669 -0.1365
  779MOL0     H 5113   7.091   8.484   5.954  0.2734  0.2804 -4.3044
  779MOL0     H 5114   7.030   8.739   5.897  2.1230  2.5376  3.1639
  779MOL0     H 5115   6.884   8.708   5.988  0.3010  0.5863  0.5768
  779MOL0     H 5116   6.884   8.696   6.250  0.1483 -0.6010 -0.5175
  779MOL0     H 5117   7.166   8.730   6.517 -1.7817 -1.3014  2.9009
  779MOL0     H 5118   7.002   8.730   6.512  0.4089 -0.5389  1.4486
  779MOL0     H 5119   7.213   8.499   6.473  0.4070 -0.5435  0.0863
  779MOL0     H 5120   7.111   8.512   6.615 -0.4782 -0.3660  0.0235
  779MOL0     H 5121   7.070   8.314   6.466 -2.1416 -0.5116  0.3883
  779MOL0     H 5122   7.043   8.408   6.333  0.8419 -1.8663  0.2943
  779MOL0     H 5123   6.837   8.518   6.420  0.6276 -1.1396 -1.3975
  779MOL0     H 5124   6.863   8.434   6.572  1.0685 -0.4205  0.3881
  779MOL0     H 5125   6.652   8.099   6.393  1.7811  2.4557 -2.2322
  779MOL0     H 5126   6.411   8.075   6.406 -0.2180 -0.5888  1.8322
  779MOL0     H 5127   5.995   8.346   6.670 -0.6738 -0.4851  0.4465
  779MOL0     H 5128   5.739   8.343   6.634  0.4662  0.4207  0.0427
  779MOL0     H 5129   5.549   8.300   6.538  3.6796  1.3727 -0.7782
  779MOL0     H 5130   5.549   8.477   6.559  2.4314 -1.2750  0.6668
  779MOL0     H 5131   5.382   8.344   6.348 -1.6457 -0.5767  1.7854
  779MOL0     H 5132   5.323   8.368   6.517  0.9111  0.1507  1.4989
  779MOL0     H 5133   5.332   8.611   6.506 -3.7390  0.9550 -1.4447
  779MOL0     H 5134   5.427   8.591   6.353 -2.9504  1.3005 -2.1878
  779MOL0     H 5135   5.238   8.513   6.234 -2.1661 -2.5259  0.5251
  779MOL0     H 5136   5.205   8.667   6.300  0.2706 -1.4845 -3.2639
  779MOL0     H 5137   5.081   8.561   6.494 -1.5452 -2.4735  0.6047
  779MOL0     H 5138   5.107   8.405   6.420 -1.1671 -1.0444 -4.1102
  779MOL0     H 5139   4.941   8.624   6.310 -2.4554 -0.1863 -0.3197
  779MOL0     H 5140   4.976   8.471   6.221  2.2300 -0.6581 -0.6141
  779MOL0     H 5141   4.818   8.477   6.494 -1.7422 -4.2532  1.6368
  779MOL0     H 5142   4.846   8.341   6.390 -2.2598  0.9639 -0.3516
  779MOL0     H 5143   4.635   8.478   6.349  1.4685 -1.2755  1.8335
  779MOL0     H 5144   4.745   8.582   6.253 -2.8812  1.5882  1.3486
  779MOL0     H 5145   5.794   8.404   6.213  1.4515 -1.2441 -0.8001
  779MOL0     H 5146   6.040   8.385   6.252  0.3805 -0.3891  1.6129
  779MOL0     H 5147   6.373   8.490   6.470  0.2018 -0.3144  0.3280
  779MOL0     H 5148   6.621   8.520   6.496  0.7060  0.6975 -0.7914
  779MOL0     H 5149   6.115   8.199   6.001  2.5004  1.1152 -0.7759
  779MOL0     H 5150   5.875   8.209   5.948 -1.0645  1.6181 -3.3375
  779MOL0     H 5151   5.485   8.484   5.974 -1.1444  1.9258 -1.2457
  779MOL0     H 5152   5.249   8.428   5.933 -2.7950  3.1686 -2.1788
  779MOL0     H 5153   5.189   8.151   5.615 -1.0978 -2.0709  2.5570
  779MOL0     H 5154   5.100   8.299   5.536 -0.4867  4.7918  3.4840
  779MOL0     H 5155   4.985   8.163   5.770 -1.8652 -1.1151 -1.0372
  779MOL0     H 5156   4.966   8.080   5.619  0.9052 -0.8019 -0.3988
  779MOL0     H 5157   4.854   8.297   5.522  1.3790  0.2475  0.2151
  779MOL0     H 5158   4.895   8.375   5.670  1.5190 -0.9271  0.0239
  779MOL0     H 5159   4.737   8.133   5.731  0.4840  1.0064  0.7965
  779MOL0     H 5160   4.714   8.312   5.759 -1.4076  1.3658 -1.4358
  779MOL0     H 5161   4.464   8.338   5.445 -1.3531 -2.3446 -0.4454
  779MOL0     H 5162   5.358   8.303   5.536 -0.9385  3.9122 -1.8861
  779MOL0     H 5163   5.659   8.439   5.497  0.8446  1.1836  1.5777
  779MOL0     H 5164   5.698   8.294   5.594 -1.0021  1.2301  2.2827
  779MOL0     H 5165   5.571   8.289   5.468 -0.1223  1.4619 -1.1381
  780MOL0     O 5166   2.819   3.659  10.526 -0.1232  0.2443 -0.8048
  780MOL0     C 5167   2.799   3.785  10.524 -0.2246  0.8222  0.8493
  780MOL0     O 5168   2.875   3.879  10.472  0.1700 -0.8641 -0.3501
  780MOL0     C 5169   3.008   3.857  10.448  0.1014  1.1966 -0.3661
  780MOL0     C 5170   3.063   3.885  10.325 -0.0678 -1.3444 -0.3779
  780MOL0     C 5171   3.204   3.874  10.302 -0.2284  0.0129 -0.1723
  780MOL0     C 5172   3.284   3.824  10.396 -0.7523 -0.0971 -0.9515
  780MOL0     O 5173   3.420   3.815  10.393 -0.0525  0.1831 -0.3122
  780MOL0     C 5174   3.475   3.828  10.261 -0.1511 -0.1476  0.0477
  780MOL0     C 5175   3.615   3.786  10.269  0.5840  0.1295  0.7337
  780MOL0     C 5176   3.706   3.880  10.360 -0.1014  0.3258  0.2481
  780MOL0     C 5177   3.854   3.875  10.314  0.3696 -0.1895 -0.5437
  780MOL0     C 5178   3.870   3.967  10.195 -0.6575  0.5137 -0.8611
  780MOL0     C 5179   4.019   3.960  10.152 -0.0448  0.2423  0.5706
  780MOL0     C 5180   4.068   4.094  10.090 -0.1488  0.3504 -0.5087
  780MOL0     C 5181   4.209   4.090  10.042  0.2449 -0.4121  0.3984
  780MOL0     N 5182   4.311   4.110  10.139  0.5895  0.8116  0.0984
  780MOL0     C 5183   4.407   4.208  10.136  0.4521  0.1200 -0.1648
  780MOL0     C 5184   4.506   4.173  10.217  0.3923 -0.8691 -0.0340
  780MOL0     C 5185   4.624   4.266  10.247 -1.1430 -0.5602  0.0823
  780MOL0     C 5186   4.727   4.244  10.136  0.2936  0.5644  0.1539
  780MOL0     C 5187   4.842   4.348  10.141 -0.5890 -0.3101 -0.3928
  780MOL0     C 5188   4.937   4.333  10.016 -0.2598  0.6667 -0.6740
  780MOL0     O 5189   5.045   4.425  10.012 -0.6441  0.5603  0.0708
  780MOL0     C 5190   5.157   4.418  10.102 -0.5126 -0.1265  0.7575
  780MOL0     C 5191   5.174   4.306  10.190  0.2667  0.1080 -0.2098
  780MOL0     C 5192   5.281   4.293  10.276 -0.0064  0.2708 -0.2071
  780MOL0     C 5193   5.383   4.392  10.274  0.2057  0.3577  0.6789
  780MOL0     C 5194   5.487   4.377  10.374  0.6194 -1.0473  0.1852
  780MOL0     O 5195   5.467   4.280  10.469 -0.3733 -0.2251  0.4894
  780MOL0     C 5196   5.563   4.254  10.564  0.1758  0.4971  0.2517
  780MOL0     C 5197   5.709   4.262  10.541  0.0339 -0.4180  0.8707
  780MOL0     C 5198   5.790   4.234  10.657  0.0886 -0.6806  0.2290
  780MOL0     C 5199   5.739   4.204  10.783  0.9418  0.3518  0.3085
  780MOL0     O 5200   5.813   4.159  10.893  0.2252  0.1442  0.7389
  780MOL0     C 5201   5.958   4.181  10.902  0.3683  0.2854 -0.3461
  780MOL0     C 5202   6.019   4.120  11.026  0.1744 -0.1648 -0.1342
  780MOL0     C 5203   6.153   4.184  11.062 -0.1051  0.3352  0.2334
  780MOL0     C 5204   6.266   4.125  10.984 -0.4559 -0.7890  0.0092
  780MOL0     C 5205   6.397   4.205  11.009  0.6863 -0.6291 -0.1326
  780MOL0     C 5206   6.467   4.164  11.135  0.5453 -0.2885  0.7312
  780MOL0     C 5207   6.598   4.237  11.152 -0.8377 -0.2971  0.7282
  780MOL0     C 5208   6.645   4.202  11.293 -0.4118 -0.3397  0.2121
  780MOL0    Cl 5209   6.772   4.339  11.316  0.1243 -0.4808  0.2005
  780MOL0     C 5210   5.607   4.194  10.798 -0.3301 -0.4078 -0.9533
  780MOL0     C 5211   5.518   4.213  10.688 -0.3367 -1.0724 -0.0408
  780MOL0     O 5212   5.569   4.468  10.376  0.0269 -0.2445 -0.9685
  780MOL0     C 5213   5.379   4.499  10.185 -0.0399  0.1400  0.9016
  780MOL0     C 5214   5.266   4.508  10.096  0.0527  0.6558  0.2274
  780MOL0     N 5215   4.473   4.051  10.262 -0.4037 -0.0402 -0.4582
  780MOL0     N 5216   4.357   4.008  10.218 -0.3413 -0.0141 -0.3005
  780MOL0     C 5217   3.224   3.788  10.525 -0.9366 -0.3506  0.9313
  780MOL0     C 5218   3.092   3.806  10.550  0.5085 -0.3395 -0.2346
  780MOL0     C 5219   2.677   3.836  10.570  0.1535 -0.7820 -0.2795
  780MOL0     C 5220   2.568   3.748  10.558 -0.2924 -0.0273  0.3021
  780MOL0     C 5221   2.439   3.791  10.578 -0.0632 -0.9157 -0.2775
  780MOL0     C 5222   2.414   3.917  10.644 -0.1097  0.0138 -1.0520
  780MOL0     O 5223   2.283   3.949  10.662 -0.7655  0.7903 -0.4774
  780MOL0     C 5224   2.245   4.077  10.715 -0.5131 -0.3546  0.3695
  780MOL0     C 5225   2.098   4.108  10.678  0.7582 -0.5089  0.2600
  780MOL0     C 5226   2.000   3.974  10.691 -0.8212  0.2809 -0.3258
  780MOL0     C 5227   1.847   3.995  10.666  0.0204  0.1934 -1.1532
  780MOL0     C 5228   1.811   4.056  10.537  0.0408  0.9320 -0.0437
  780MOL0     C 5229   1.769   4.109  10.438  0.0060 -0.4246 -0.2970
  780MOL0     C 5230   2.525   3.996  10.679 -0.0578 -0.2747  0.2938
  780MOL0     C 5231   2.654   3.953  10.639  0.5131 -0.1339 -0.4637
  780MOL0     C 5232   2.768   4.048  10.666  0.4448  0.4848  0.1623
  780MOL0     H 5233   2.997   3.913  10.244 -0.7925 -0.7879  0.3782
  780MOL0     H 5234   3.243   3.906  10.206 -0.2679  2.3773  0.5271
  780MOL0     H 5235   3.421   3.768  10.188  0.8134  0.0860 -0.8848
  780MOL0     H 5236   3.471   3.929  10.218 -1.0231 -1.0986 -2.2670
  780MOL0     H 5237   3.654   3.791  10.166  2.2671  1.2497  1.3745
  780MOL0     H 5238   3.618   3.680  10.294 -2.2489 -0.0784  0.5077
  780MOL0     H 5239   3.696   3.853  10.466 -3.9120  1.1560  0.2394
  780MOL0     H 5240   3.690   3.987  10.347  1.9954  0.3529 -3.1961
  780MOL0     H 5241   3.921   3.917  10.390 -0.9569  2.2163 -0.6222
  780MOL0     H 5242   3.893   3.777  10.287  1.4930  0.6855 -2.2441
  780MOL0     H 5243   3.802   3.928  10.118 -3.2102 -0.5973  1.7352
  780MOL0     H 5244   3.835   4.069  10.213 -0.2117  0.5935 -0.4531
  780MOL0     H 5245   4.079   3.943  10.243 -0.5107 -1.9839  0.5170
  780MOL0     H 5246   4.032   3.880  10.079 -0.1943  0.9465 -0.2372
  780MOL0     H 5247   4.063   4.178  10.160  4.1601  0.0098  0.5039
  780MOL0     H 5248   4.009   4.134  10.008  1.6450  1.7685 -1.1703
  780MOL0     H 5249   4.226   3.994   9.993 -1.9833 -1.1671  1.0015
  780MOL0     H 5250   4.211   4.171   9.968  1.0276  0.3838  1.2466
  780MOL0     H 5251   4.409   4.290  10.065  2.5849  0.1798 -0.1107
  780MOL0     H 5252   4.588   4.370  10.253  1.1363  0.2311  1.4886
  780MOL0     H 5253   4.672   4.231  10.339  0.6405 -1.2666 -1.0715
  780MOL0     H 5254   4.772   4.144  10.143 -1.7153 -0.4240 -0.4784
  780MOL0     H 5255   4.682   4.259  10.038 -1.4115 -2.6419  0.3315
  780MOL0     H 5256   4.897   4.325  10.234 -0.7546 -1.5269 -0.5819
  780MOL0     H 5257   4.812   4.453  10.132 -2.3779 -0.9644 -2.7378
  780MOL0     H 5258   4.882   4.355   9.924 -0.7096  0.5015 -0.4454
  780MOL0     H 5259   4.977   4.232  10.005 -1.1306  0.1957  0.3395
  780MOL0     H 5260   5.110   4.218  10.192  1.1052 -0.5310 -0.6426
  780MOL0     H 5261   5.285   4.205  10.340 -0.5724 -0.3329 -0.9914
  780MOL0     H 5262   5.747   4.284  10.442 -1.6290  0.5178  0.4086
  780MOL0     H 5263   5.897   4.233  10.641  0.0209  0.0127 -0.3220
  780MOL0     H 5264   6.004   4.118  10.825 -3.4981 -2.1222 -0.9287
  780MOL0     H 5265   5.977   4.289  10.899 -1.8784  0.8512  2.2509
  780MOL0     H 5266   5.949   4.141  11.107  0.9289  1.5340  0.1224
  780MOL0     H 5267   6.032   4.011  11.032 -0.2986 -0.1423  2.4588
  780MOL0     H 5268   6.151   4.290  11.038  0.4676  0.1331 -0.7913
  780MOL0     H 5269   6.160   4.173  11.170 -2.9096  1.9196  0.6729
  780MOL0     H 5270   6.238   4.134  10.879  3.1240  0.0140 -1.0040
  780MOL0     H 5271   6.274   4.016  10.997 -1.2626 -0.9124 -0.4606
  780MOL0     H 5272   6.365   4.309  11.016  0.1612 -0.7294 -0.8754
  780MOL0     H 5273   6.453   4.175  10.920  0.4202  1.1372 -0.9415
  780MOL0     H 5274   6.395   4.180  11.215  0.0753 -3.1629  0.9830
  780MOL0     H 5275   6.490   4.057  11.135 -0.0884 -0.5015  3.6234
  780MOL0     H 5276   6.578   4.344  11.146 -0.9089 -0.3839 -2.4728
  780MOL0     H 5277   6.679   4.219  11.081 -2.1557  3.8590 -2.2284
  780MOL0     H 5278   6.561   4.205  11.363 -0.7588 -2.3926 -0.0497
  780MOL0     H 5279   6.691   4.105  11.312 -0.6924 -1.1797 -2.9041
  780MOL0     H 5280   5.581   4.153  10.895  0.7780  0.7346 -0.1395
  780MOL0     H 5281   5.412   4.192  10.698  0.1556 -3.7260  0.4322
  780MOL0     H 5282   5.459   4.572  10.175  0.0684  0.2715  2.4850
  780MOL0     H 5283   5.266   4.586  10.021 -1.3808 -0.8161 -1.3846
  780MOL0     H 5284   3.297   3.753  10.597  1.3522  3.7872  0.9395
  780MOL0     H 5285   3.054   3.777  10.647 -0.8269 -1.8340 -1.1651
  780MOL0     H 5286   2.585   3.652  10.510 -1.2373  0.0575 -0.2139
  780MOL0     H 5287   2.356   3.722  10.566 -2.2801  1.5698 -0.0761
  780MOL0     H 5288   2.313   4.152  10.673  2.5199 -2.3934  1.3745
  780MOL0     H 5289   2.259   4.078  10.823 -1.2852  1.0588  0.4897
  780MOL0     H 5290   2.095   4.136  10.572 -2.3393 -1.6471 -0.0513
  780MOL0     H 5291   2.063   4.178  10.754  0.4970 -3.7154  3.3467
  780MOL0     H 5292   1.999   3.934  10.793  0.7275 -0.7658 -0.6849
  780MOL0     H 5293   2.035   3.896  10.624 -1.8390  0.5790 -1.2420
  780MOL0     H 5294   1.799   3.898  10.677  0.5705 -0.2299 -2.2552
  780MOL0     H 5295   1.801   4.056  10.744  0.1550 -1.0739 -0.0620
  780MOL0     H 5296   1.713   4.160  10.363  1.7324  1.7881 -0.2015
  780MOL0     H 5297   2.524   4.096  10.721  0.9463  0.7503 -1.9648
  780MOL0     H 5298   2.852   3.983  10.691  0.4053 -0.5923 -2.2334
  780MOL0     H 5299   2.791   4.111  10.579  0.6933 -0.7206 -0.6713
  780MOL0     H 5300   2.757   4.118  10.749 -0.0364 -1.7634  2.0834
  781MOL0     O 5301   8.369   3.940   0.041 -0.0404 -0.2222 -0.3671
  781MOL0     C 5302   8.368   3.817   0.047 -0.2266  0.4295  0.2151
  781MOL0     O 5303   8.477   3.743   0.101  0.2373 -0.1526  0.0128
  781MOL0     C 5304   8.602   3.802   0.107  0.7462  0.8816  0.0765
  781MOL0     C 5305   8.682   3.774   0.220 -0.0428  0.5731 -0.1223
  781MOL0     C 5306   8.803   3.844   0.245  0.2751 -0.5145  0.0835
  781MOL0     C 5307   8.852   3.917   0.140  0.0844 -0.4627 -0.5653
  781MOL0     O 5308   8.978   3.966   0.148 -0.5066  0.4514 -0.3762
  781MOL0     C 5309   9.088   3.878   0.112  0.6845  0.0464 -0.7653
  781MOL0     C 5310   9.158   3.937  -0.003  0.3467  0.4128  1.2364
  781MOL0     C 5311   9.264   3.840  -0.075 -0.2559 -0.7649  0.4364
  781MOL0     C 5312   9.394   3.806   0.001  0.3904 -0.7572 -0.3848
  781MOL0     C 5313   9.478   3.931   0.022  0.3111  0.0678 -0.8701
  781MOL0     C 5314   9.552   3.929   0.155 -0.0092 -0.2273  0.2026
  781MOL0     C 5315   9.648   4.050   0.186 -0.3912 -0.0597 -0.1074
  781MOL0     C 5316   9.773   4.051   0.100  0.3897  0.1914 -0.3765
  781MOL0     N 5317   9.866   4.148   0.152 -0.1323  0.0084 -0.4552
  781MOL0     C 5318   9.938   4.137   0.271  0.1624 -0.9971 -0.2166
  781MOL0     C 5319  10.011   4.246   0.284 -0.8830 -0.1033  0.0929
  781MOL0     C 5320  10.113   4.287   0.388 -0.0683 -0.6763  0.9323
  781MOL0     C 5321  10.246   4.241   0.330 -0.2484  0.3311  0.4935
  781MOL0     C 5322  10.363   4.333   0.382 -0.4915 -1.1836  0.6637
  781MOL0     C 5323  10.493   4.296   0.303  0.0233 -0.6075  0.0845
  781MOL0     O 5324  10.482   4.359   0.171  0.2448 -0.2078  0.1027
  781MOL0     C 5325  10.593   4.345   0.091 -1.0362 -1.0478  0.6980
  781MOL0     C 5326  10.575   4.392  -0.041  0.8035  0.0324  0.4420
  781MOL0     C 5327  10.671   4.382  -0.142 -0.4119  0.3736 -0.1213
  781MOL0     C 5328  10.785   4.291  -0.122 -0.8234 -0.1987 -0.4591
  781MOL0     C 5329  10.888   4.256  -0.225  0.0390 -0.6677 -0.9774
  781MOL0     O 5330  10.993   4.178  -0.180 -0.1419 -0.6392  0.8437
  781MOL0     C 5331  11.107   4.148  -0.253 -0.1892 -0.1305 -0.2836
  781MOL0     C 5332  11.212   4.095  -0.170 -0.3014  0.3673 -0.4391
  781MOL0     C 5333  11.347   4.090  -0.217  0.5069  1.6050  0.7700
  781MOL0     C 5334  11.372   4.116  -0.346 -0.4696 -0.1163  0.4822
  781MOL0     O 5335  11.507   4.096  -0.398  0.4678 -0.1625  0.9872
  781MOL0     C 5336  11.608   4.079  -0.299  0.3179  0.4926 -0.3133
  781MOL0     C 5337  11.742   4.094  -0.361  0.1450 -0.4450  0.1611
  781MOL0     C 5338  11.841   4.063  -0.257 -0.9046  0.3453 -0.4369
  781MOL0     C 5339  11.878   4.184  -0.163  0.6218 -0.3879 -0.3609
  781MOL0     C 5340  11.939   4.139  -0.030  0.2650 -0.7311 -0.4381
  781MOL0     C 5341  12.060   4.056  -0.038  0.4858 -0.6954 -0.1249
  781MOL0     C 5342  12.169   4.145  -0.097  0.3721 -0.8289  0.4497
  781MOL0     C 5343  12.304   4.065  -0.107 -0.1755  0.5078 -0.2626
  781MOL0    Cl 5344  12.332   3.964  -0.246 -0.2260 -0.0011  0.7416
  781MOL0     C 5345  11.267   4.146  -0.436 -0.5879  0.0072 -0.1243
  781MOL0     C 5346  11.136   4.176  -0.388 -0.6913  0.0681  0.0350
  781MOL0     O 5347  10.869   4.282  -0.339  0.5376 -0.5220  0.6327
  781MOL0     C 5348  10.799   4.234   0.015 -0.2492 -0.9757 -0.0810
  781MOL0     C 5349  10.706   4.264   0.113  0.3708  0.4258  0.3564
  781MOL0     N 5350   9.994   4.321   0.174 -0.0139 -0.2254 -0.3832
  781MOL0     N 5351   9.907   4.269   0.097  0.4192 -0.5037  0.6824
  781MOL0     C 5352   8.778   3.932   0.022 -0.1874 -0.0372  0.4402
  781MOL0     C 5353   8.651   3.874   0.001  0.0862 -0.0376 -0.3391
  781MOL0     C 5354   8.239   3.741   0.016 -1.6019 -0.6328 -0.2911
  781MOL0     C 5355   8.189   3.670   0.123 -0.0277 -0.1885  0.1504
  781MOL0     C 5356   8.061   3.621   0.125 -0.0016  0.6842 -0.0945
  781MOL0     C 5357   7.977   3.639   0.010  0.5661  1.0276  0.4197
  781MOL0     O 5358   7.854   3.584  -0.008 -0.0578 -0.1391  0.6401
  781MOL0     C 5359   7.776   3.577   0.115 -0.4676  0.1892  0.2239
  781MOL0     C 5360   7.638   3.537   0.078  0.9948  0.8155 -0.7001
  781MOL0     C 5361   7.528   3.573   0.187 -0.0791  0.3958  0.1630
  781MOL0     C 5362   7.385   3.542   0.141  0.0012  0.0450  0.7507
  781MOL0     C 5363   7.361   3.406   0.106 -0.7583  0.3043  0.3393
  781MOL0     C 5364   7.354   3.296   0.062  0.1678  0.3020  0.1002
  781MOL0     C 5365   8.038   3.697  -0.106 -0.3139 -0.2577  0.4824
  781MOL0     C 5366   8.173   3.748  -0.106 -0.9879  0.0557 -0.4652
  781MOL0     C 5367   8.214   3.822  -0.232 -0.3108 -0.1423  0.8110
  781MOL0     H 5368   8.655   3.707   0.301  3.6437 -1.7725 -0.6318
  781MOL0     H 5369   8.862   3.842   0.335 -0.5487 -0.8786  0.6270
  781MOL0     H 5370   9.165   3.869   0.189  2.1121  0.7297 -2.0659
  781MOL0     H 5371   9.048   3.783   0.074  0.8041 -0.4376  0.3050
  781MOL0     H 5372   9.212   4.030   0.021  0.5220  0.7330 -0.2855
  781MOL0     H 5373   9.083   3.954  -0.080 -0.0884 -0.6942  1.4078
  781MOL0     H 5374   9.300   3.895  -0.163  0.5834 -0.9952  0.6316
  781MOL0     H 5375   9.211   3.752  -0.115 -0.7278  0.0135 -0.7098
  781MOL0     H 5376   9.369   3.762   0.098 -0.4471 -0.8838 -0.6422
  781MOL0     H 5377   9.458   3.734  -0.051  0.7094  0.3390 -1.5664
  781MOL0     H 5378   9.545   3.943  -0.063  0.6579  2.0532 -0.3673
  781MOL0     H 5379   9.418   4.022   0.025 -0.6240 -0.5509  0.3667
  781MOL0     H 5380   9.495   3.913   0.247  0.9170 -0.2727  0.7844
  781MOL0     H 5381   9.618   3.844   0.135 -1.1455 -0.7157 -1.7483
  781MOL0     H 5382   9.671   4.052   0.292 -1.3366  0.7846  0.0978
  781MOL0     H 5383   9.586   4.139   0.168  0.9148  0.8526 -0.1843
  781MOL0     H 5384   9.829   3.958   0.088  0.1275  0.0601 -0.5981
  781MOL0     H 5385   9.745   4.088   0.001 -1.2736  0.2492  0.0863
  781MOL0     H 5386   9.936   4.055   0.343  1.1065  1.1463  2.4317
  781MOL0     H 5387  10.109   4.395   0.402  0.2579 -0.8590  2.7238
  781MOL0     H 5388  10.099   4.246   0.489  0.9530 -1.6439  0.7011
  781MOL0     H 5389  10.272   4.137   0.352  2.4692  1.1504  1.5869
  781MOL0     H 5390  10.230   4.257   0.222 -0.9673 -1.6627  0.2653
  781MOL0     H 5391  10.381   4.318   0.489  2.2130 -0.3785  0.4129
  781MOL0     H 5392  10.345   4.440   0.368  0.1544 -1.1584 -0.1277
  781MOL0     H 5393  10.500   4.187   0.290 -1.0641 -0.8121  1.0750
  781MOL0     H 5394  10.584   4.336   0.349  1.0065 -2.5203 -0.0603
  781MOL0     H 5395  10.489   4.457  -0.056 -0.6571 -1.4563  1.8630
  781MOL0     H 5396  10.650   4.431  -0.237 -0.2870 -0.9865 -0.8808
  781MOL0     H 5397  11.193   4.060  -0.069 -2.2394  0.3724 -0.7633
  781MOL0     H 5398  11.428   4.068  -0.147 -0.1071 -2.4621  0.4592
  781MOL0     H 5399  11.595   4.154  -0.220  0.4576 -1.0066  1.1815
  781MOL0     H 5400  11.594   3.980  -0.255  1.0008 -0.2934 -1.7773
  781MOL0     H 5401  11.732   4.016  -0.437 -3.1347 -1.4835  1.4932
  781MOL0     H 5402  11.747   4.190  -0.413 -1.6244  0.3842  1.4426
  781MOL0     H 5403  11.796   3.983  -0.198 -1.1135 -1.9450 -3.4934
  781MOL0     H 5404  11.929   4.022  -0.306 -1.7843  0.9942 -2.6821
  781MOL0     H 5405  11.782   4.233  -0.145  0.3064 -1.0244 -0.3144
  781MOL0     H 5406  11.954   4.252  -0.205  0.7315 -0.1688  0.1861
  781MOL0     H 5407  11.853   4.087   0.015  0.5692  0.6562  1.8676
  781MOL0     H 5408  11.954   4.224   0.036 -1.0922 -0.5417 -0.3320
  781MOL0     H 5409  12.092   4.013   0.057  0.6764 -3.5496 -1.3661
  781MOL0     H 5410  12.048   3.967  -0.101  0.6732 -0.4145 -0.5607
  781MOL0     H 5411  12.194   4.230  -0.033  0.8407  0.9654 -2.0077
  781MOL0     H 5412  12.144   4.182  -0.197  2.0295  2.5295  1.1395
  781MOL0     H 5413  12.382   4.142  -0.115  1.0705 -0.6305  0.5274
  781MOL0     H 5414  12.318   4.000  -0.020  0.5958  0.3197 -0.5147
  781MOL0     H 5415  11.276   4.170  -0.541 -0.8994  2.3931  0.3374
  781MOL0     H 5416  11.060   4.227  -0.447  0.3651 -1.3793 -2.7818
  781MOL0     H 5417  10.879   4.165   0.040  1.7294  1.5536  1.0411
  781MOL0     H 5418  10.719   4.212   0.207 -1.3267  0.3213  0.5543
  781MOL0     H 5419   8.825   3.987  -0.059  0.7286  0.5428  1.3613
  781MOL0     H 5420   8.599   3.889  -0.093  2.6369 -1.1042 -2.0330
  781MOL0     H 5421   8.242   3.660   0.217 -0.8918  0.6893  0.7500
  781MOL0     H 5422   8.026   3.575   0.217  0.2702 -1.9149 -1.1927
  781MOL0     H 5423   7.781   3.676   0.162 -0.3285  1.1048 -1.6084
  781MOL0     H 5424   7.819   3.502   0.181  2.1785  1.9057  0.5995
  781MOL0     H 5425   7.625   3.435   0.041 -2.6119  1.1609 -0.6983
  781MOL0     H 5426   7.616   3.594  -0.013  1.6534  0.1948 -1.2569
  781MOL0     H 5427   7.536   3.681   0.201 -2.5529  0.6405  0.0822
  781MOL0     H 5428   7.550   3.529   0.285 -2.0213 -1.1084 -0.0121
  781MOL0     H 5429   7.320   3.572   0.224  1.2419  2.5812  0.9224
  781MOL0     H 5430   7.345   3.613   0.068 -0.0413  1.0206  1.6929
  781MOL0     H 5431   7.349   3.194   0.029  0.7177  0.4678 -0.5286
  781MOL0     H 5432   7.968   3.701  -0.189  0.7531 -0.5636 -0.4463
  781MOL0     H 5433   8.246   3.923  -0.205  0.8946  0.5337 -2.5509
  781MOL0     H 5434   8.292   3.762  -0.281  1.1753  3.4434 -1.6273
  781MOL0     H 5435   8.130   3.839  -0.299 -2.0397  0.3977  3.0093
  782MOL0     O 5436   6.200   3.148   4.252  0.1791 -0.0148 -0.0288
  782MOL0     C 5437   6.281   3.156   4.161  0.0357 -0.7006  0.1306
  782MOL0     O 5438   6.407   3.205   4.173 -0.3027  0.5492  0.0002
  782MOL0     C 5439   6.454   3.261   4.292 -0.0019  1.3510  0.3927
  782MOL0     C 5440   6.588   3.229   4.323  0.3210  0.3695  0.0367
  782MOL0     C 5441   6.638   3.287   4.443 -0.5261  0.0952  0.5763
  782MOL0     C 5442   6.561   3.375   4.528 -0.0316  0.1138 -0.0130
  782MOL0     O 5443   6.611   3.413   4.652  0.3955  0.1547 -0.1937
  782MOL0     C 5444   6.640   3.548   4.675  0.5047  0.8722 -0.4679
  782MOL0     C 5445   6.749   3.562   4.796  0.0412  0.1785 -0.3472
  782MOL0     C 5446   6.877   3.481   4.775  0.0310  0.0771 -0.4221
  782MOL0     C 5447   6.960   3.484   4.909  0.2485 -0.2866  0.5696
  782MOL0     C 5448   7.089   3.406   4.886  0.8238  0.4772 -0.1483
  782MOL0     C 5449   7.183   3.431   5.005  0.0054  0.1187 -0.2484
  782MOL0     C 5450   7.325   3.384   4.975  0.2301 -0.2328 -0.9688
  782MOL0     C 5451   7.417   3.422   5.091  0.0667 -0.5086  0.1507
  782MOL0     N 5452   7.558   3.377   5.076  0.4578 -0.1411 -0.0256
  782MOL0     C 5453   7.657   3.448   5.144 -0.6779  0.7708  0.0940
  782MOL0     C 5454   7.752   3.358   5.172 -1.2525  0.4564 -0.4673
  782MOL0     C 5455   7.866   3.375   5.272 -1.1664  0.5800  0.7907
  782MOL0     C 5456   8.008   3.321   5.219 -0.1368 -1.0855  0.1158
  782MOL0     C 5457   8.107   3.285   5.332  0.2530 -0.4890 -0.3091
  782MOL0     C 5458   8.155   3.412   5.401  0.0892 -0.5192  0.3832
  782MOL0     O 5459   8.259   3.372   5.489 -0.2266  0.9129 -0.6032
  782MOL0     C 5460   8.386   3.354   5.444  0.5629  0.2081  0.0744
  782MOL0     C 5461   8.488   3.318   5.533 -0.4077 -0.1896  0.6600
  782MOL0     C 5462   8.623   3.317   5.497  0.2629 -0.7404  0.4840
  782MOL0     C 5463   8.654   3.330   5.368 -0.2750  1.2200 -0.4719
  782MOL0     C 5464   8.797   3.333   5.329  0.1621  0.0812 -0.0123
  782MOL0     O 5465   8.888   3.347   5.437 -0.8547 -0.1759  0.4912
  782MOL0     C 5466   9.023   3.355   5.406  0.4185  0.3424  0.3512
  782MOL0     C 5467   9.081   3.267   5.322  0.3831  0.2020 -0.7002
  782MOL0     C 5468   9.218   3.277   5.297  1.2613  0.7988  1.2059
  782MOL0     C 5469   9.296   3.370   5.361 -0.0501 -1.0633 -0.2935
  782MOL0     O 5470   9.428   3.379   5.323  0.3929 -1.0804  0.0892
  782MOL0     C 5471   9.512   3.492   5.346  0.0973 -0.1955  0.1987
  782MOL0     C 5472   9.630   3.494   5.262 -0.4792 -0.3250 -0.3287
  782MOL0     C 5473   9.697   3.634   5.263  0.9718 -0.4882 -0.5470
  782MOL0     C 5474   9.812   3.618   5.171 -0.1992  0.3731  0.6693
  782MOL0     C 5475   9.895   3.750   5.177  0.2777  0.6201 -0.1824
  782MOL0     C 5476  10.034   3.730   5.110  0.2484 -0.0030  0.0255
  782MOL0     C 5477  10.138   3.835   5.166 -1.0180 -0.2786 -0.2640
  782MOL0     C 5478  10.213   3.902   5.051 -0.3085 -0.5118 -0.1164
  782MOL0    Cl 5479  10.289   3.777   4.949 -0.2826  0.3635  0.2355
  782MOL0     C 5480   9.231   3.453   5.460 -0.0830 -0.1842 -0.4875
  782MOL0     C 5481   9.094   3.447   5.484  0.2561  0.2074  0.3336
  782MOL0     O 5482   8.820   3.326   5.212  0.0577  0.1262  0.1328
  782MOL0     C 5483   8.552   3.350   5.272 -0.1111  0.8722 -0.6305
  782MOL0     C 5484   8.421   3.370   5.313 -0.3880 -0.7701  0.3133
  782MOL0     N 5485   7.718   3.242   5.105 -0.0436 -0.9525  0.4199
  782MOL0     N 5486   7.604   3.254   5.046 -0.1947  1.3294  0.0932
  782MOL0     C 5487   6.432   3.409   4.483 -0.2090  0.0408  0.0611
  782MOL0     C 5488   6.379   3.347   4.372 -0.3075 -0.1183  0.0414
  782MOL0     C 5489   6.235   3.098   4.030  0.5172  0.0940 -0.6263
  782MOL0     C 5490   6.099   3.063   4.005 -0.4581  0.4663 -0.8597
  782MOL0     C 5491   6.066   2.983   3.896  0.4629  1.0841 -0.1744
  782MOL0     C 5492   6.164   2.933   3.809  0.2757  0.0803 -0.8931
  782MOL0     O 5493   6.147   2.851   3.694  0.0605  0.4012  0.0493
  782MOL0     C 5494   6.011   2.795   3.674  0.4425 -0.2754 -0.1194
  782MOL0     C 5495   5.970   2.685   3.771  0.4843 -0.3039 -0.4700
  782MOL0     C 5496   6.011   2.543   3.743  0.4073 -0.4628  0.0282
  782MOL0     C 5497   5.914   2.435   3.801  0.2692 -0.3562 -1.3216
  782MOL0     C 5498   5.802   2.406   3.710 -0.2203 -1.1517 -0.7658
  782MOL0     C 5499   5.700   2.397   3.642 -0.3023  0.2154  0.1846
  782MOL0     C 5500   6.295   2.957   3.839 -0.1001 -0.1451 -0.0919
  782MOL0     C 5501   6.331   3.038   3.946 -0.2927  1.0035  0.7502
  782MOL0     C 5502   6.484   3.050   3.971 -0.1306 -0.5126  1.3474
  782MOL0     H 5503   6.645   3.160   4.262 -0.1397 -0.6499  0.7533
  782MOL0     H 5504   6.740   3.255   4.465  0.3005  1.4145 -1.0805
  782MOL0     H 5505   6.685   3.588   4.584 -0.5921 -0.3062 -1.5572
  782MOL0     H 5506   6.545   3.603   4.681 -0.9754 -1.5580 -0.5960
  782MOL0     H 5507   6.701   3.549   4.894 -0.0037  1.0143 -0.2476
  782MOL0     H 5508   6.765   3.670   4.805 -0.0683  0.3109 -1.6045
  782MOL0     H 5509   6.934   3.533   4.697  1.8574  0.5604  1.1399
  782MOL0     H 5510   6.849   3.377   4.755  0.2153  0.1556 -1.1088
  782MOL0     H 5511   6.979   3.587   4.939 -0.6933 -0.2263  1.0019
  782MOL0     H 5512   6.897   3.445   4.990  0.3841  1.1757  1.4100
  782MOL0     H 5513   7.057   3.305   4.863 -1.6491  1.3227 -0.7046
  782MOL0     H 5514   7.128   3.444   4.791  1.1745  0.0533 -0.1763
  782MOL0     H 5515   7.184   3.539   5.022  4.0842 -0.2497  3.4394
  782MOL0     H 5516   7.148   3.378   5.093  1.5208 -2.7648 -1.2649
  782MOL0     H 5517   7.367   3.435   4.888 -0.9798  1.1037 -0.8110
  782MOL0     H 5518   7.316   3.275   4.970  0.9738 -0.3029 -0.8060
  782MOL0     H 5519   7.419   3.531   5.106  4.5255 -0.6683  2.4867
  782MOL0     H 5520   7.387   3.378   5.186 -0.5587 -1.9568 -0.6843
  782MOL0     H 5521   7.651   3.545   5.193 -1.1234  0.0463  1.5213
  782MOL0     H 5522   7.871   3.483   5.291 -2.9748  0.6696  0.9622
  782MOL0     H 5523   7.844   3.319   5.364  2.3494  1.9421  2.6132
  782MOL0     H 5524   7.986   3.231   5.160 -0.8842 -0.0499 -1.2501
  782MOL0     H 5525   8.060   3.395   5.156 -4.1308  3.4913  1.5567
  782MOL0     H 5526   8.186   3.221   5.293 -1.1663 -1.7739 -1.1937
  782MOL0     H 5527   8.072   3.224   5.415  2.9344  0.1712  1.4500
  782MOL0     H 5528   8.068   3.436   5.462 -0.6869  1.5765 -1.3925
  782MOL0     H 5529   8.176   3.496   5.334  0.2020 -1.7279 -1.1540
  782MOL0     H 5530   8.462   3.319   5.638  0.2572 -1.2482  0.8554
  782MOL0     H 5531   8.697   3.338   5.574  2.5860  2.1993 -2.2242
  782MOL0     H 5532   9.017   3.192   5.276 -0.6395  2.2329 -2.7505
  782MOL0     H 5533   9.274   3.209   5.233  0.3952 -1.3338  2.5821
  782MOL0     H 5534   9.462   3.589   5.339  0.3636 -0.0199  0.7151
  782MOL0     H 5535   9.534   3.487   5.453  0.1486 -1.1528  0.1502
  782MOL0     H 5536   9.691   3.422   5.317 -0.1203  0.8961  0.9277
  782MOL0     H 5537   9.601   3.457   5.163  0.0171 -3.2568  0.5099
  782MOL0     H 5538   9.629   3.709   5.221 -1.4344 -2.3482 -0.1523
  782MOL0     H 5539   9.734   3.664   5.362  0.0632 -0.1883 -0.2901
  782MOL0     H 5540   9.779   3.600   5.068 -2.0324 -1.6155  1.5486
  782MOL0     H 5541   9.877   3.537   5.204 -0.2225 -0.8577 -2.0147
  782MOL0     H 5542   9.911   3.785   5.279 -1.2698  1.5143 -0.2062
  782MOL0     H 5543   9.841   3.829   5.124 -0.1453  2.1561  2.4004
  782MOL0     H 5544  10.083   3.633   5.124 -0.6961 -0.6314 -0.8982
  782MOL0     H 5545  10.024   3.757   5.004  0.5333  0.4113  0.1048
  782MOL0     H 5546  10.201   3.807   5.250  0.0739 -1.1292 -1.3309
  782MOL0     H 5547  10.085   3.910   5.226  1.0893  1.4459 -0.4377
  782MOL0     H 5548  10.145   3.967   4.994 -1.2587 -1.8062 -0.5088
  782MOL0     H 5549  10.288   3.970   5.093 -0.4320  0.7938 -1.8812
  782MOL0     H 5550   9.290   3.520   5.521 -0.3887 -1.0108  0.7781
  782MOL0     H 5551   9.047   3.507   5.561  0.9657  0.2044  0.7739
  782MOL0     H 5552   8.574   3.354   5.165 -1.3681  2.5646 -0.8792
  782MOL0     H 5553   8.349   3.383   5.232  0.0495 -1.6412 -0.2248
  782MOL0     H 5554   6.367   3.468   4.549 -0.4562  1.5302 -1.4452
  782MOL0     H 5555   6.276   3.363   4.340 -0.8028 -2.6857  0.1088
  782MOL0     H 5556   6.031   3.084   4.087  0.6730 -1.0634  0.5528
  782MOL0     H 5557   5.960   2.968   3.873  0.8734 -0.6309 -1.0923
  782MOL0     H 5558   6.006   2.751   3.574 -0.3642  0.4818 -0.4197
  782MOL0     H 5559   5.932   2.870   3.678  0.6888  0.0720 -1.3693
  782MOL0     H 5560   5.860   2.678   3.768  0.6036 -3.3463 -1.2652
  782MOL0     H 5561   6.002   2.709   3.872 -2.0113  0.4319  0.2386
  782MOL0     H 5562   6.111   2.523   3.782  1.0552 -1.0732 -1.8454
  782MOL0     H 5563   6.011   2.527   3.635 -3.4014 -1.3415  0.0104
  782MOL0     H 5564   5.977   2.348   3.787  1.3254  0.4585 -1.7265
  782MOL0     H 5565   5.881   2.450   3.904  1.8901 -1.6868 -0.5685
  782MOL0     H 5566   5.623   2.380   3.569 -0.1719 -0.9253  0.2881
  782MOL0     H 5567   6.360   2.888   3.787 -0.5824 -0.6133 -0.0839
  782MOL0     H 5568   6.536   2.977   3.908  0.5647  0.7364  0.4141
  782MOL0     H 5569   6.512   3.153   3.944 -0.1290 -0.5567  1.1809
  782MOL0     H 5570   6.522   3.016   4.068  2.1738  2.9870  1.8786
  783MOL0     O 5571   4.986   2.097   2.300 -0.1557 -0.3191 -0.3949
  783MOL0     C 5572   4.952   2.028   2.202  0.8323  0.2424  0.2367
  783MOL0     O 5573   5.021   1.918   2.151 -0.3092  0.5710  0.4740
  783MOL0     C 5574   5.147   1.909   2.192 -0.0697  0.4058 -0.1456
  783MOL0     C 5575   5.253   1.926   2.105  0.5316 -0.6165  0.4690
  783MOL0     C 5576   5.392   1.909   2.138  0.8300 -0.6710  0.1813
  783MOL0     C 5577   5.431   1.887   2.272 -0.3638 -0.1998  0.6120
  783MOL0     O 5578   5.570   1.893   2.301  0.3206 -0.6009  0.1050
  783MOL0     C 5579   5.594   1.961   2.428  0.5046  0.3126  0.5130
  783MOL0     C 5580   5.741   1.974   2.457 -0.8605  0.9198  0.5940
  783MOL0     C 5581   5.759   2.058   2.576 -0.6209  0.0650 -0.2807
  783MOL0     C 5582   5.908   2.045   2.622  0.2780 -0.4228  0.8797
  783MOL0     C 5583   5.928   2.116   2.754 -0.6381 -0.4613 -0.1284
  783MOL0     C 5584   6.062   2.075   2.810  0.3700  0.0182  0.5891
  783MOL0     C 5585   6.099   2.150   2.939 -0.1358 -0.7599 -0.5611
  783MOL0     C 5586   6.107   2.310   2.946  0.4445 -0.8786 -0.1087
  783MOL0     N 5587   6.252   2.358   2.939 -0.8104 -0.0939  0.3146
  783MOL0     C 5588   6.341   2.330   2.839  0.7396  0.0465  0.5803
  783MOL0     C 5589   6.450   2.411   2.865 -0.0848 -0.3396 -0.1742
  783MOL0     C 5590   6.566   2.425   2.775  0.5186  0.7031  0.5357
  783MOL0     C 5591   6.523   2.518   2.662 -0.7364  0.2967 -0.1732
  783MOL0     C 5592   6.628   2.532   2.554 -0.3654 -0.0497  0.0155
  783MOL0     C 5593   6.591   2.632   2.440  0.1716  0.5809 -0.5610
  783MOL0     O 5594   6.699   2.638   2.337  0.6142 -0.1347  0.1142
  783MOL0     C 5595   6.812   2.714   2.370  0.3479  0.0603 -0.2491
  783MOL0     C 5596   6.912   2.707   2.272  0.5141 -0.2266 -1.3560
  783MOL0     C 5597   7.036   2.779   2.282 -0.1266 -0.4543  0.3081
  783MOL0     C 5598   7.054   2.862   2.396 -0.6649 -0.5885  0.3245
  783MOL0     C 5599   7.167   2.963   2.409 -0.0315 -0.1878 -0.6579
  783MOL0     O 5600   7.257   2.969   2.309  0.3078  0.5611  0.3897
  783MOL0     C 5601   7.347   3.065   2.312 -0.9171  0.2221  0.3691
  783MOL0     C 5602   7.478   3.026   2.305 -0.8120 -0.2592 -0.1688
  783MOL0     C 5603   7.573   3.125   2.307 -0.5802  0.4030  0.1507
  783MOL0     C 5604   7.550   3.260   2.318 -0.0204  1.1850  0.1420
  783MOL0     O 5605   7.650   3.350   2.325 -0.5941  0.5713  0.7644
  783MOL0     C 5606   7.709   3.380   2.198  0.2284 -0.7850 -0.2310
  783MOL0     C 5607   7.638   3.474   2.100  0.0604 -0.2058  0.1298
  783MOL0     C 5608   7.582   3.606   2.170 -1.1009 -0.0541  0.5793
  783MOL0     C 5609   7.509   3.706   2.075  0.1399 -0.1636  0.2784
  783MOL0     C 5610   7.385   3.643   2.003 -0.0869 -0.0649 -0.6906
  783MOL0     C 5611   7.278   3.607   2.107 -0.1683  0.4117 -0.2049
  783MOL0     C 5612   7.140   3.581   2.040  0.4372  0.5024  0.1368
  783MOL0     C 5613   7.123   3.453   1.955 -0.5168 -0.7031  0.8803
  783MOL0    Cl 5614   6.962   3.442   1.884  0.3923  0.2585  0.3253
  783MOL0     C 5615   7.417   3.301   2.328 -0.7039 -0.1858  0.3174
  783MOL0     C 5616   7.321   3.200   2.330  0.6059 -0.0639  1.3193
  783MOL0     O 5617   7.177   3.030   2.516 -0.2309  0.4366  0.9217
  783MOL0     C 5618   6.953   2.866   2.490  0.9703 -0.5255  0.4290
  783MOL0     C 5619   6.832   2.793   2.478  0.1317  0.8157 -0.5740
  783MOL0     N 5620   6.427   2.483   2.979  0.1135  0.2251 -0.3062
  783MOL0     N 5621   6.305   2.457   3.019 -0.0869  0.0395  0.2214
  783MOL0     C 5622   5.328   1.851   2.357 -0.1495  0.3733 -0.3734
  783MOL0     C 5623   5.187   1.871   2.326 -0.9497  0.3593 -1.6323
  783MOL0     C 5624   4.811   2.049   2.145 -1.1811 -0.0941  0.7174
  783MOL0     C 5625   4.744   1.943   2.081 -0.6813  0.1590  0.8917
  783MOL0     C 5626   4.612   1.956   2.037 -0.8724 -0.3324  0.3932
  783MOL0     C 5627   4.546   2.077   2.042  0.1742 -0.1214  0.5194
  783MOL0     O 5628   4.419   2.070   1.986  0.4023  0.0335 -0.0673
  783MOL0     C 5629   4.351   2.191   1.959  0.3785 -0.1570 -0.0167
  783MOL0     C 5630   4.201   2.171   1.948  0.7351 -0.4815 -0.0239
  783MOL0     C 5631   4.164   2.082   1.832 -0.4457 -0.3629 -0.8608
  783MOL0     C 5632   4.018   2.093   1.793  1.1366 -0.4451 -0.6755
  783MOL0     C 5633   3.986   2.222   1.737  0.7357 -1.3652  0.4919
  783MOL0     C 5634   3.957   2.330   1.690 -0.0627  0.8924  0.3324
  783MOL0     C 5635   4.615   2.188   2.098  0.0315  0.0384  0.1783
  783MOL0     C 5636   4.742   2.175   2.162  0.0951 -0.1507  0.7815
  783MOL0     C 5637   4.799   2.302   2.225 -0.2120  0.1570  0.4547
  783MOL0     H 5638   5.236   1.957   2.002 -0.7554  0.6445  1.0266
  783MOL0     H 5639   5.467   1.932   2.063 -0.1370 -2.9346 -1.6215
  783MOL0     H 5640   5.562   2.064   2.411  1.1602 -0.0667 -4.4202
  783MOL0     H 5641   5.539   1.917   2.512 -0.9437 -0.2903 -0.7033
  783MOL0     H 5642   5.802   2.016   2.377  0.4898  1.4386  1.8417
  783MOL0     H 5643   5.782   1.873   2.469 -1.1450  0.4126 -2.1797
  783MOL0     H 5644   5.699   2.019   2.659  1.2421 -0.5453  0.8196
  783MOL0     H 5645   5.734   2.164   2.560  0.2980  0.6802  1.8939
  783MOL0     H 5646   5.928   1.937   2.627  2.5276 -0.1797 -0.8376
  783MOL0     H 5647   5.972   2.079   2.540 -1.1318 -1.6069 -0.7850
  783MOL0     H 5648   5.918   2.225   2.751 -2.9472 -0.4560  2.7790
  783MOL0     H 5649   5.849   2.079   2.821 -1.4281 -1.8385 -1.7459
  783MOL0     H 5650   6.061   1.967   2.827 -0.3613  0.2496  2.1767
  783MOL0     H 5651   6.129   2.096   2.726  1.2922  1.0792  1.5639
  783MOL0     H 5652   6.193   2.114   2.982 -0.3554 -0.8222 -0.1336
  783MOL0     H 5653   6.019   2.117   3.006  1.0270 -0.9837  0.7692
  783MOL0     H 5654   6.043   2.361   2.874  0.3889 -1.4233 -0.4527
  783MOL0     H 5655   6.065   2.354   3.037 -1.1218  0.5061 -1.4460
  783MOL0     H 5656   6.330   2.260   2.757 -2.9786 -0.5182  1.3461
  783MOL0     H 5657   6.643   2.459   2.845  0.6424  0.4916  0.5001
  783MOL0     H 5658   6.601   2.327   2.741 -3.3297 -0.3815 -0.8156
  783MOL0     H 5659   6.431   2.475   2.622 -3.3192  3.3416  1.9955
  783MOL0     H 5660   6.493   2.617   2.698 -1.1242  0.5238 -1.0992
  783MOL0     H 5661   6.663   2.438   2.510  1.2784  0.8926 -0.7844
  783MOL0     H 5662   6.717   2.570   2.605  2.9282 -2.3230 -3.4937
  783MOL0     H 5663   6.574   2.726   2.491  1.2286  0.8663 -0.7047
  783MOL0     H 5664   6.494   2.592   2.408 -0.3484  1.0566  0.3998
  783MOL0     H 5665   6.881   2.654   2.182 -1.8723 -0.9674 -0.1713
  783MOL0     H 5666   7.105   2.762   2.200 -0.4086  0.1768 -0.0614
  783MOL0     H 5667   7.495   2.919   2.301 -4.4754 -1.1300  2.2484
  783MOL0     H 5668   7.673   3.086   2.291 -1.1887 -1.0553 -0.3104
  783MOL0     H 5669   7.807   3.421   2.225  0.6588 -2.6023  1.1923
  783MOL0     H 5670   7.716   3.282   2.150 -0.3782 -0.7693 -0.3515
  783MOL0     H 5671   7.701   3.499   2.014  0.0388  0.4903  0.3063
  783MOL0     H 5672   7.546   3.427   2.066 -1.2886  0.9332  1.9765
  783MOL0     H 5673   7.522   3.583   2.258 -0.5554  0.6727  1.1522
  783MOL0     H 5674   7.666   3.671   2.196  1.7410 -1.4954 -3.7354
  783MOL0     H 5675   7.581   3.740   2.000 -0.4514 -3.4713 -1.9974
  783MOL0     H 5676   7.472   3.786   2.139 -0.5086  1.1825 -1.6855
  783MOL0     H 5677   7.411   3.552   1.948 -3.8134 -0.4123 -2.1723
  783MOL0     H 5678   7.343   3.720   1.938 -0.1469  0.9275  0.4925
  783MOL0     H 5679   7.304   3.520   2.167  0.0914  0.3666 -0.3805
  783MOL0     H 5680   7.277   3.690   2.179  0.2086  0.7034 -0.5256
  783MOL0     H 5681   7.115   3.669   1.981 -1.3897 -1.1014 -1.6580
  783MOL0     H 5682   7.067   3.566   2.120 -0.5456  0.2569 -0.7778
  783MOL0     H 5683   7.200   3.455   1.877 -1.4799 -0.2410 -0.0793
  783MOL0     H 5684   7.141   3.364   2.017 -1.2306  0.1004  2.2690
  783MOL0     H 5685   7.385   3.405   2.335 -2.2076 -0.3070 -2.9823
  783MOL0     H 5686   7.215   3.221   2.341  0.6214 -0.6430  2.6944
  783MOL0     H 5687   6.965   2.922   2.582  0.5500 -0.6321  0.5519
  783MOL0     H 5688   6.761   2.819   2.556  0.8494 -2.0295  1.1857
  783MOL0     H 5689   5.344   1.837   2.464 -0.7209  1.7293 -0.0927
  783MOL0     H 5690   5.109   1.839   2.394  2.4598 -0.1995  2.4246
  783MOL0     H 5691   4.798   1.850   2.065  1.6248  1.5367  0.1191
  783MOL0     H 5692   4.545   1.876   2.006 -0.4647 -1.7134  2.8581
  783MOL0     H 5693   4.400   2.235   1.871  2.4097 -1.8921  0.1657
  783MOL0     H 5694   4.378   2.260   2.040  1.3024  3.2172 -2.9181
  783MOL0     H 5695   4.153   2.269   1.958  1.7259  0.1104 -0.8593
  783MOL0     H 5696   4.172   2.102   2.028 -1.1938 -0.6306 -0.8014
  783MOL0     H 5697   4.189   1.982   1.866  0.7708 -0.2381 -1.3636
  783MOL0     H 5698   4.236   2.122   1.760  0.6153  2.5029  1.5843
  783MOL0     H 5699   3.999   2.018   1.715  0.1121  1.7520 -2.6837
  783MOL0     H 5700   3.949   2.078   1.877  1.6825 -1.1927 -0.3516
  783MOL0     H 5701   3.946   2.434   1.668 -1.0462  0.9977  1.2104
  783MOL0     H 5702   4.575   2.289   2.100  0.0454  0.0820 -1.0507
  783MOL0     H 5703   4.727   2.382   2.209  1.9197  1.8232 -1.5939
  783MOL0     H 5704   4.806   2.294   2.334  3.4535 -0.8652  0.2973
  783MOL0     H 5705   4.897   2.331   2.185  1.0524  0.7617  3.6870
  784MOL0     O 5706   4.513   1.695  11.281 -0.6149 -0.6141  0.3132
  784MOL0     C 5707   4.552   1.630  11.382 -0.4305  0.0964  1.2198
  784MOL0     O 5708   4.482   1.532  11.440  0.1430  0.0104 -0.2296
  784MOL0     C 5709   4.354   1.502  11.388  0.7227 -0.2119 -0.4741
  784MOL0     C 5710   4.331   1.392  11.310  0.0364 -0.4056  0.0673
  784MOL0     C 5711   4.209   1.377  11.248  0.2173 -0.6362  0.6670
  784MOL0     C 5712   4.096   1.465  11.276 -0.4895  0.2390 -0.1209
  784MOL0     O 5713   3.980   1.463  11.202  0.2960 -0.0053 -0.4053
  784MOL0     C 5714   3.859   1.441  11.280 -0.5851  0.4597 -0.5753
  784MOL0     C 5715   3.762   1.387  11.187  0.5457 -0.0891  0.2742
  784MOL0     C 5716   3.621   1.352  11.252 -1.1942 -0.5395 -1.3381
  784MOL0     C 5717   3.521   1.349  11.137 -0.3651  0.4757 -0.6970
  784MOL0     C 5718   3.389   1.307  11.191  0.0864 -0.3435 -0.5401
  784MOL0     C 5719   3.288   1.272  11.076 -0.3790 -0.0736 -0.1339
  784MOL0     C 5720   3.155   1.234  11.139  0.8433  0.2611 -0.6304
  784MOL0     C 5721   3.059   1.206  11.025 -0.1980 -0.6589 -0.5344
  784MOL0     N 5722   3.061   1.073  10.969  0.0262  0.4288 -0.2040
  784MOL0     C 5723   3.004   0.958  11.025 -0.5983 -0.3405  0.7934
  784MOL0     C 5724   3.004   0.862  10.929 -0.1013 -0.0424 -0.0715
  784MOL0     C 5725   2.972   0.716  10.949  0.5418 -1.1157 -0.8810
  784MOL0     C 5726   3.070   0.639  11.032 -0.6079  0.4984 -0.5201
  784MOL0     C 5727   3.008   0.507  11.082  0.7822  0.7556 -0.0332
  784MOL0     C 5728   3.126   0.413  11.129  0.2047 -0.0246 -0.4160
  784MOL0     O 5729   3.169   0.452  11.258  0.0682  0.4210 -0.4724
  784MOL0     C 5730   3.293   0.408  11.287  0.7389  0.7687  0.0637
  784MOL0     C 5731   3.338   0.281  11.248  0.4580  0.0259 -1.4242
  784MOL0     C 5732   3.470   0.239  11.280 -0.9087 -0.4610  0.1267
  784MOL0     C 5733   3.554   0.324  11.349 -0.3413 -0.5006  0.1208
  784MOL0     C 5734   3.688   0.293  11.391 -0.3320  0.6908  0.3020
  784MOL0     O 5735   3.720   0.158  11.374 -0.1935 -0.4766  0.0816
  784MOL0     C 5736   3.843   0.105  11.392  0.7411 -0.2647  0.3205
  784MOL0     C 5737   3.865  -0.027  11.347 -0.3889  0.4756 -0.3143
  784MOL0     C 5738   3.984  -0.097  11.359 -0.4630 -0.3035  0.6165
  784MOL0     C 5739   4.095  -0.038  11.431 -0.4750 -0.2335  0.3251
  784MOL0     O 5740   4.220  -0.093  11.440  0.3892 -0.1750 -0.8888
  784MOL0     C 5741   4.244  -0.224  11.399  0.0383  0.2609 -0.3581
  784MOL0     C 5742   4.394  -0.231  11.391 -0.5430  0.0369 -0.2931
  784MOL0     C 5743   4.468  -0.177  11.515  0.4917  0.0359  0.3650
  784MOL0     C 5744   4.615  -0.227  11.522  0.0931  1.0526  0.3201
  784MOL0     C 5745   4.715  -0.177  11.416  0.1377 -0.0160 -0.0747
  784MOL0     C 5746   4.849  -0.234  11.456  0.4707 -0.0116 -0.0255
  784MOL0     C 5747   4.958  -0.188  11.353  0.5257 -0.2336 -0.4596
  784MOL0     C 5748   5.096  -0.233  11.384 -0.2182 -0.4045  0.4372
  784MOL0    Cl 5749   5.144  -0.184  11.558 -0.3296 -0.0905  0.4936
  784MOL0     C 5750   4.077   0.091  11.482  0.6104  0.0270 -0.0013
  784MOL0     C 5751   3.947   0.159  11.463 -0.3382  0.1456 -0.1432
  784MOL0     O 5752   3.773   0.379  11.409 -0.1442  0.6359  0.4968
  784MOL0     C 5753   3.498   0.445  11.394 -1.1730  0.5039 -0.5004
  784MOL0     C 5754   3.367   0.475  11.373  0.5237  0.1317  0.3592
  784MOL0     N 5755   3.079   0.921  10.825 -0.0327  0.1690  0.3993
  784MOL0     N 5756   3.101   1.041  10.843  0.1997 -0.4430 -0.6808
  784MOL0     C 5757   4.121   1.571  11.359  0.2804  0.3460 -0.5245
  784MOL0     C 5758   4.248   1.586  11.416 -0.2596 -0.5222 -1.0047
  784MOL0     C 5759   4.691   1.661  11.436 -0.7602 -0.3060 -0.6813
  784MOL0     C 5760   4.734   1.582  11.551  0.4716 -0.2009 -0.3797
  784MOL0     C 5761   4.860   1.610  11.613 -0.4312 -0.2585 -0.7763
  784MOL0     C 5762   4.947   1.705  11.567 -0.6935 -0.1255  1.1746
  784MOL0     O 5763   5.074   1.732  11.617  0.2500  0.7898  0.5325
  784MOL0     C 5764   5.076   1.737  11.762 -0.2959 -0.6164 -1.0194
  784MOL0     C 5765   5.209   1.793  11.810  0.7423 -0.0676  0.2564
  784MOL0     C 5766   5.204   1.944  11.772  0.5754  0.1817 -0.2101
  784MOL0     C 5767   5.309   2.018  11.859  0.0692  0.4557 -0.0822
  784MOL0     C 5768   5.446   1.988  11.817 -0.0516  0.3277 -0.1606
  784MOL0     C 5769   5.559   1.963  11.782 -0.5253  0.2253  0.6091
  784MOL0     C 5770   4.897   1.777  11.460 -0.1891 -0.1605 -0.6964
  784MOL0     C 5771   4.773   1.769  11.392  0.2910 -0.7772  0.3496
  784MOL0     C 5772   4.733   1.870  11.282  0.2115  0.0412 -0.2395
  784MOL0     H 5773   4.419   1.341  11.272  2.7561  1.1191  3.6771
  784MOL0     H 5774   4.211   1.294  11.178  3.1088  0.1390 -0.2833
  784MOL0     H 5775   3.876   1.370  11.362 -3.1878 -0.8415 -1.0467
  784MOL0     H 5776   3.825   1.537  11.320  0.9097  0.2361  1.3813
  784MOL0     H 5777   3.802   1.298  11.137  0.9316 -1.0866  2.2314
  784MOL0     H 5778   3.755   1.465  11.112 -1.2983 -0.5734 -0.0986
  784MOL0     H 5779   3.587   1.435  11.315 -1.0155 -0.6071 -1.1505
  784MOL0     H 5780   3.620   1.259  11.309 -0.4442  0.5163  0.4786
  784MOL0     H 5781   3.524   1.440  11.077  2.4628  1.2326  0.4347
  784MOL0     H 5782   3.554   1.274  11.065  0.4207 -2.0482  2.0603
  784MOL0     H 5783   3.408   1.217  11.250  2.3007 -0.4364 -1.2881
  784MOL0     H 5784   3.344   1.385  11.253 -0.2747 -0.1212 -1.0778
  784MOL0     H 5785   3.280   1.358  11.008  0.5600  2.0201  2.2182
  784MOL0     H 5786   3.331   1.188  11.022  0.1967 -0.0755  0.3009
  784MOL0     H 5787   3.117   1.311  11.206 -1.5966 -2.0041  0.7780
  784MOL0     H 5788   3.161   1.140  11.194  0.3031  0.3161 -0.4783
  784MOL0     H 5789   2.959   1.244  11.047  0.4100  0.0700  1.1967
  784MOL0     H 5790   3.091   1.276  10.949  0.1340  0.2332  0.4053
  784MOL0     H 5791   2.982   0.941  11.130 -0.2136 -3.0738  0.5174
  784MOL0     H 5792   2.880   0.713  11.008  0.9995 -2.2103 -0.1710
  784MOL0     H 5793   2.957   0.667  10.852 -4.2758  0.4844 -1.1871
  784MOL0     H 5794   3.154   0.613  10.968  0.1368 -0.3455  0.7609
  784MOL0     H 5795   3.110   0.693  11.119 -0.7929 -0.6326  0.2913
  784MOL0     H 5796   2.972   0.455  10.993  4.6753 -1.5272 -0.5085
  784MOL0     H 5797   2.931   0.526  11.157 -0.3210  2.1864 -1.4640
  784MOL0     H 5798   3.208   0.424  11.057 -1.9451 -0.6928 -3.1763
  784MOL0     H 5799   3.091   0.309  11.137  0.1510  0.1213  1.6297
  784MOL0     H 5800   3.283   0.214  11.183 -1.2732 -0.8498  0.7808
  784MOL0     H 5801   3.515   0.144  11.253 -0.4222 -0.3543  0.5309
  784MOL0     H 5802   3.787  -0.071  11.286 -1.0587  2.3891 -0.9079
  784MOL0     H 5803   3.976  -0.195  11.313  1.8876  0.7434 -2.3170
  784MOL0     H 5804   4.213  -0.296  11.475  0.9145 -1.6051 -1.6837
  784MOL0     H 5805   4.190  -0.248  11.307  1.6595 -2.2956 -0.7444
  784MOL0     H 5806   4.416  -0.332  11.356  2.3579  0.2974  0.5251
  784MOL0     H 5807   4.426  -0.165  11.310  0.8015 -0.9976 -0.6462
  784MOL0     H 5808   4.469  -0.069  11.504 -0.5949 -0.1071 -1.4829
  784MOL0     H 5809   4.405  -0.192  11.604  0.6738  0.5607  0.5880
  784MOL0     H 5810   4.603  -0.336  11.520 -0.8499  1.1405  0.6524
  784MOL0     H 5811   4.651  -0.199  11.621  1.3978  0.9170 -0.0976
  784MOL0     H 5812   4.707  -0.068  11.418  1.4130  0.0765  1.4242
  784MOL0     H 5813   4.685  -0.205  11.315 -0.2095  0.2569 -0.0460
  784MOL0     H 5814   4.879  -0.190  11.551 -0.8024 -1.2327  0.9692
  784MOL0     H 5815   4.848  -0.343  11.453  0.9267 -0.0383  0.6625
  784MOL0     H 5816   4.953  -0.080  11.335  0.6411 -0.3701 -1.3815
  784MOL0     H 5817   4.957  -0.236  11.254 -0.8366 -0.6734 -0.2543
  784MOL0     H 5818   5.094  -0.341  11.369 -3.8088 -0.1122 -2.4781
  784MOL0     H 5819   5.175  -0.208  11.313  2.9188 -3.1507  2.6182
  784MOL0     H 5820   4.164   0.138  11.525 -3.0541  2.8270  5.5433
  784MOL0     H 5821   3.952   0.257  11.508  3.4341 -0.8124  1.9854
  784MOL0     H 5822   3.550   0.521  11.452 -2.1384 -1.5276  3.2865
  784MOL0     H 5823   3.318   0.565  11.410  1.9791  0.6787  1.0361
  784MOL0     H 5824   4.046   1.649  11.374 -0.5314 -0.9774  3.2343
  784MOL0     H 5825   4.278   1.674  11.471  3.6345  0.6335 -4.4261
  784MOL0     H 5826   4.668   1.509  11.597 -1.0801  2.4094  1.9053
  784MOL0     H 5827   4.879   1.551  11.702 -2.5983  3.9483  2.8756
  784MOL0     H 5828   5.083   1.632  11.793  0.1851 -0.3994 -0.4011
  784MOL0     H 5829   4.988   1.787  11.803  0.0265  0.3889 -1.5383
  784MOL0     H 5830   5.294   1.747  11.759  1.3366  1.9659 -0.6727
  784MOL0     H 5831   5.229   1.774  11.916 -0.8851  2.8175  1.1723
  784MOL0     H 5832   5.102   1.970  11.801  0.7180  1.3608 -0.7225
  784MOL0     H 5833   5.219   1.962  11.665  1.1801  0.6417 -0.0559
  784MOL0     H 5834   5.273   2.121  11.860 -1.6929 -0.1313  0.3813
  784MOL0     H 5835   5.297   1.977  11.959 -1.2712 -0.1754 -0.4796
  784MOL0     H 5836   5.659   1.949  11.747 -0.7231 -1.2501  0.5487
  784MOL0     H 5837   4.962   1.856  11.426 -1.6641  0.7713 -1.4736
  784MOL0     H 5838   4.642   1.931  11.295  1.3750  2.3145 -2.1584
  784MOL0     H 5839   4.814   1.941  11.268 -0.2238  0.5637 -0.1579
  784MOL0     H 5840   4.711   1.817  11.189 -1.4545 -1.0840  0.7317
  785MOL0     O 5841  10.716   1.046   1.258 -0.3420 -0.9386  0.4958
  785MOL0     C 5842  10.687   0.930   1.288 -0.0243  0.9986 -0.3536
  785MOL0     O 5843  10.777   0.840   1.341  0.2918  0.3198 -0.5422
  785MOL0     C 5844  10.912   0.877   1.343 -0.1240 -0.4077  0.2283
  785MOL0     C 5845  10.980   0.844   1.462 -0.2964  0.1986  0.8879
  785MOL0     C 5846  11.115   0.870   1.483 -0.5149  0.3837 -0.7070
  785MOL0     C 5847  11.182   0.947   1.398 -0.8022 -0.7282  0.0790
  785MOL0     O 5848  11.306   1.001   1.427 -0.3100 -0.2688  0.1268
  785MOL0     C 5849  11.342   1.031   1.564 -0.3391 -0.1242  0.1465
  785MOL0     C 5850  11.429   1.158   1.564  0.3291 -0.0257  1.0038
  785MOL0     C 5851  11.528   1.152   1.676  0.2901  1.1067 -0.2566
  785MOL0     C 5852  11.598   1.291   1.689  0.0481 -0.3396 -0.3124
  785MOL0     C 5853  11.721   1.295   1.782  0.5374  0.8152 -0.3620
  785MOL0     C 5854  11.844   1.266   1.698  0.6772 -0.5871  0.6704
  785MOL0     C 5855  11.987   1.270   1.761  0.6834 -1.3756 -0.1945
  785MOL0     C 5856  11.999   1.149   1.865  0.7551 -0.8697  0.7117
  785MOL0     N 5857  11.981   1.017   1.801  0.0248 -0.1868  0.0443
  785MOL0     C 5858  12.059   0.968   1.704  0.6337 -1.0213  0.2445
  785MOL0     C 5859  11.999   0.862   1.659 -0.9550 -0.2867 -0.3270
  785MOL0     C 5860  12.045   0.773   1.545  0.1315 -0.3225 -0.0499
  785MOL0     C 5861  12.118   0.649   1.605  0.1307 -0.0725  0.4538
  785MOL0     C 5862  12.164   0.583   1.477 -0.0256 -0.0498 -0.2560
  785MOL0     C 5863  12.216   0.436   1.485  0.4707 -1.0673  0.9300
  785MOL0     O 5864  12.293   0.421   1.605 -0.2014  0.0866 -0.2998
  785MOL0     C 5865  12.425   0.461   1.609  0.0010  0.2146 -0.2309
  785MOL0     C 5866  12.491   0.537   1.511 -0.1687 -0.2111  0.1137
  785MOL0     C 5867  12.622   0.564   1.522 -0.3310  0.3758 -0.5484
  785MOL0     C 5868  12.697   0.540   1.635 -0.4607 -0.1631  0.2807
  785MOL0     C 5869  12.839   0.583   1.650 -0.5197 -0.1011  0.1458
  785MOL0     O 5870  12.899   0.570   1.764 -0.3364  0.2485 -0.4940
  785MOL0     C 5871  13.033   0.580   1.790  0.3269  0.8364  0.5206
  785MOL0     C 5872  13.130   0.676   1.745  0.1058  0.7713  0.5155
  785MOL0     C 5873  13.268   0.660   1.756  0.1964 -0.3371  0.1514
  785MOL0     C 5874  13.324   0.547   1.816  0.6843  0.3250 -0.2071
  785MOL0     O 5875  13.462   0.549   1.814 -0.7508 -1.0758  0.1814
  785MOL0     C 5876  13.536   0.476   1.913  0.4523  0.5774 -0.3726
  785MOL0     C 5877  13.675   0.523   1.913  0.3066  0.9450 -0.1067
  785MOL0     C 5878  13.698   0.676   1.930  0.0603 -0.9236 -0.4861
  785MOL0     C 5879  13.836   0.697   1.997  0.2730 -0.1114 -0.2589
  785MOL0     C 5880  13.876   0.838   2.040  0.3220 -0.4220  0.0696
  785MOL0     C 5881  13.901   0.918   1.913  1.0620 -0.3270 -0.4055
  785MOL0     C 5882  14.001   0.855   1.814 -0.5889  0.7887 -1.0915
  785MOL0     C 5883  14.049   0.967   1.716 -0.2206  0.9711 -0.4433
  785MOL0    Cl 5884  14.195   0.907   1.619 -0.5715  0.3179  0.1469
  785MOL0     C 5885  13.233   0.449   1.868 -0.3351  0.0095  0.3879
  785MOL0     C 5886  13.094   0.469   1.854  0.2323  0.0467 -0.2671
  785MOL0     O 5887  12.900   0.616   1.545  0.0899 -0.1696  0.3816
  785MOL0     C 5888  12.628   0.475   1.738 -0.0820 -0.6056  0.0258
  785MOL0     C 5889  12.503   0.422   1.720 -0.1484  0.9305  0.4391
  785MOL0     N 5890  11.884   0.850   1.735  0.8773 -0.0296  0.6897
  785MOL0     N 5891  11.868   0.940   1.823 -0.4118 -0.1007  0.5034
  785MOL0     C 5892  11.126   0.981   1.281 -0.5443 -0.3608 -0.1643
  785MOL0     C 5893  10.986   0.952   1.246 -0.2382 -0.6465 -0.1315
  785MOL0     C 5894  10.540   0.899   1.276  0.7124  0.1634 -0.3081
  785MOL0     C 5895  10.466   0.978   1.190  0.0581  0.5716 -0.3923
  785MOL0     C 5896  10.322   0.974   1.177 -0.8159 -0.8571  0.3172
  785MOL0     C 5897  10.254   0.881   1.251  0.3699  0.1960 -0.9407
  785MOL0     O 5898  10.122   0.895   1.243 -0.3220  0.4052  0.3706
  785MOL0     C 5899  10.041   0.772   1.243  0.6611  0.6889  1.0604
  785MOL0     C 5900  10.011   0.711   1.099 -0.2228 -0.3702 -0.7461
  785MOL0     C 5901   9.947   0.814   1.014 -0.3224 -0.2695 -0.5668
  785MOL0     C 5902   9.850   0.763   0.912  0.2238  0.1245  0.6399
  785MOL0     C 5903   9.722   0.709   0.956  0.1240  0.8085  0.3850
  785MOL0     C 5904   9.605   0.684   1.000 -0.9836 -0.3026  0.0797
  785MOL0     C 5905  10.326   0.796   1.339 -0.6718  0.5484 -0.6255
  785MOL0     C 5906  10.467   0.801   1.355 -0.1552 -0.3859  0.3349
  785MOL0     C 5907  10.534   0.694   1.442 -0.1962 -0.5901  0.4756
  785MOL0     H 5908  10.920   0.798   1.540 -0.7737  0.5089  0.7079
  785MOL0     H 5909  11.158   0.821   1.570 -1.4854  0.8561  0.0707
  785MOL0     H 5910  11.255   1.047   1.628 -0.4531  0.1230 -0.0683
  785MOL0     H 5911  11.402   0.947   1.601 -0.7939 -0.5763 -0.1197
  785MOL0     H 5912  11.354   1.235   1.586 -1.9559 -2.0503  0.7684
  785MOL0     H 5913  11.481   1.173   1.469 -0.2350  0.8382  0.8213
  785MOL0     H 5914  11.607   1.082   1.647  0.2425  1.1246 -0.4309
  785MOL0     H 5915  11.487   1.122   1.773  0.7211  1.3375 -0.0006
  785MOL0     H 5916  11.632   1.336   1.594 -1.9280 -0.7005 -1.2306
  785MOL0     H 5917  11.520   1.354   1.732  0.9151  0.6294 -0.1236
  785MOL0     H 5918  11.734   1.396   1.824  4.2385  0.2938  0.0836
  785MOL0     H 5919  11.715   1.214   1.855  1.6638 -1.1620 -2.3620
  785MOL0     H 5920  11.838   1.167   1.653  2.6130 -0.2775 -0.3946
  785MOL0     H 5921  11.854   1.343   1.621  3.1819 -1.4605  0.0058
  785MOL0     H 5922  11.992   1.364   1.815  0.8267 -0.1542 -2.2212
  785MOL0     H 5923  12.071   1.271   1.691  0.4712 -1.3592 -0.4556
  785MOL0     H 5924  12.094   1.156   1.918 -0.8961 -1.0743  3.9360
  785MOL0     H 5925  11.927   1.164   1.946 -1.1529  3.3286 -1.4447
  785MOL0     H 5926  12.159   0.999   1.673  0.2713  0.2225  0.2990
  785MOL0     H 5927  11.959   0.737   1.489  0.0207 -4.1978  2.2242
  785MOL0     H 5928  12.105   0.838   1.480  0.5259 -1.2357 -0.6272
  785MOL0     H 5929  12.196   0.671   1.678  0.7788 -0.0271 -0.2502
  785MOL0     H 5930  12.045   0.592   1.664 -2.7601  2.6891 -0.1879
  785MOL0     H 5931  12.236   0.654   1.435  1.0328  0.7323  2.6530
  785MOL0     H 5932  12.076   0.570   1.413  0.8474  0.5840 -1.6340
  785MOL0     H 5933  12.272   0.404   1.397 -0.2190  0.4060 -0.0674
  785MOL0     H 5934  12.125   0.376   1.495 -0.7982  0.9263  2.0757
  785MOL0     H 5935  12.444   0.568   1.418  0.4829  0.4756  0.0039
  785MOL0     H 5936  12.667   0.605   1.431 -0.5790  0.2925 -0.7091
  785MOL0     H 5937  13.107   0.767   1.690 -0.3107  0.4581  0.1661
  785MOL0     H 5938  13.334   0.736   1.715 -0.3697 -1.2849 -2.8055
  785MOL0     H 5939  13.495   0.476   2.014 -3.0936 -0.0727 -1.6498
  785MOL0     H 5940  13.529   0.373   1.876 -4.4721  0.6671 -0.4153
  785MOL0     H 5941  13.718   0.487   2.006  2.3588  0.2382 -1.2582
  785MOL0     H 5942  13.719   0.487   1.819  2.5194 -1.9517  1.8791
  785MOL0     H 5943  13.693   0.721   1.830  0.1182  1.2373  0.4220
  785MOL0     H 5944  13.624   0.719   1.997  0.6817 -0.3167 -0.1790
  785MOL0     H 5945  13.915   0.647   1.940  5.9658  3.0896  3.7545
  785MOL0     H 5946  13.822   0.650   2.094  0.2282  2.3753  1.0390
  785MOL0     H 5947  13.965   0.833   2.103  1.0595 -0.3078 -0.9270
  785MOL0     H 5948  13.787   0.873   2.093 -0.6726 -2.4766 -0.1240
  785MOL0     H 5949  13.809   0.932   1.856 -0.9742  0.5890  2.8237
  785MOL0     H 5950  13.943   1.015   1.941  2.3465 -0.6325 -1.2290
  785MOL0     H 5951  13.948   0.780   1.754 -1.4398 -0.0908  0.6934
  785MOL0     H 5952  14.094   0.813   1.855  0.5367  1.7201 -2.5718
  785MOL0     H 5953  13.977   0.994   1.638  0.9445  2.2455 -1.1195
  785MOL0     H 5954  14.075   1.059   1.769 -0.1837 -0.5148  2.3070
  785MOL0     H 5955  13.267   0.364   1.926  0.4137 -0.6958 -1.0009
  785MOL0     H 5956  13.029   0.387   1.885  1.1912 -1.2741 -1.5960
  785MOL0     H 5957  12.682   0.442   1.826  2.0175  0.8052 -0.6328
  785MOL0     H 5958  12.449   0.372   1.800  1.0300  1.1601  1.4054
  785MOL0     H 5959  11.174   1.057   1.220 -1.2168 -0.0495 -0.3075
  785MOL0     H 5960  10.935   0.971   1.152 -4.1339 -2.4241  1.4258
  785MOL0     H 5961  10.531   1.056   1.150  0.5830  1.6402  2.3042
  785MOL0     H 5962  10.259   1.043   1.122 -1.7164 -1.2778  0.7963
  785MOL0     H 5963   9.940   0.784   1.282  0.2068  0.9266 -0.1600
  785MOL0     H 5964  10.089   0.691   1.299  2.4445 -0.7192 -2.1947
  785MOL0     H 5965   9.944   0.625   1.112  0.6143 -0.9136  0.1486
  785MOL0     H 5966  10.104   0.678   1.054  0.8751 -1.4338  2.0581
  785MOL0     H 5967  10.028   0.872   0.968 -1.2807  0.7798 -0.9821
  785MOL0     H 5968   9.904   0.898   1.070 -0.0391 -0.4485 -0.0694
  785MOL0     H 5969   9.830   0.833   0.831  0.0871 -1.1877 -0.4948
  785MOL0     H 5970   9.906   0.689   0.853  0.8148  1.2992 -0.3327
  785MOL0     H 5971   9.511   0.671   1.049 -0.7189  1.3979  1.0889
  785MOL0     H 5972  10.269   0.727   1.400  0.8660  0.6617  1.0313
  785MOL0     H 5973  10.601   0.628   1.387 -0.2092  0.9229 -1.4630
  785MOL0     H 5974  10.584   0.754   1.519 -1.2526 -1.4277  1.8680
  785MOL0     H 5975  10.475   0.616   1.491  2.0898 -0.2316  4.2468
  786MOL0     O 5976   9.416   5.269   7.283 -0.2972  0.0590  0.1453
  786MOL0     C 5977   9.348   5.287   7.180 -0.1542  0.0927  0.3823
  786MOL0     O 5978   9.393   5.285   7.050 -0.2998 -0.0952  0.3295
  786MOL0     C 5979   9.518   5.244   7.016  0.3917 -0.5164 -0.3122
  786MOL0     C 5980   9.572   5.122   7.071  0.2874  0.3278  0.0122
  786MOL0     C 5981   9.704   5.083   7.049  0.4363 -0.4409  0.1022
  786MOL0     C 5982   9.787   5.170   6.975 -0.1918 -0.0651 -0.0791
  786MOL0     O 5983   9.917   5.139   6.980  0.4479 -0.0203 -0.0747
  786MOL0     C 5984   9.996   5.165   6.863 -0.3085 -0.5643  0.2710
  786MOL0     C 5985  10.127   5.080   6.872 -0.5535  0.0696 -0.4211
  786MOL0     C 5986  10.218   5.091   6.754  0.5372 -1.0537 -0.3402
  786MOL0     C 5987  10.342   5.010   6.768  0.1967  0.5957 -0.5008
  786MOL0     C 5988  10.323   4.864   6.724 -0.6517  0.2520 -0.2268
  786MOL0     C 5989  10.461   4.790   6.723 -0.2323 -0.6369  0.3333
  786MOL0     C 5990  10.536   4.788   6.863 -0.2849  0.6629  0.4570
  786MOL0     C 5991  10.654   4.690   6.860 -0.1202  0.0033  0.7522
  786MOL0     N 5992  10.748   4.704   6.972  0.3925 -0.0336  0.4166
  786MOL0     C 5993  10.718   4.677   7.105  0.0100 -0.2218 -0.0309
  786MOL0     C 5994  10.815   4.740   7.173  0.1590 -0.4086  0.6518
  786MOL0     C 5995  10.804   4.756   7.324 -0.1522  0.9338 -0.5859
  786MOL0     C 5996  10.911   4.681   7.389 -1.0231 -0.3004 -0.0837
  786MOL0     C 5997  10.952   4.753   7.520 -0.1023  0.4247 -0.7564
  786MOL0     C 5998  11.064   4.696   7.603 -0.2351 -0.1288  0.1106
  786MOL0     O 5999  11.185   4.725   7.537  0.9355 -0.7405  0.1280
  786MOL0     C 6000  11.301   4.708   7.609 -0.4882 -0.5621 -0.7126
  786MOL0     C 6001  11.422   4.768   7.564 -0.3226 -0.0939 -0.0509
  786MOL0     C 6002  11.542   4.746   7.629 -0.7445  1.0693 -0.1742
  786MOL0     C 6003  11.549   4.684   7.754  0.2090  0.8070  0.1686
  786MOL0     C 6004  11.656   4.706   7.845 -0.1839 -0.1902  0.2445
  786MOL0     O 6005  11.769   4.765   7.793 -0.2188  0.0472  0.1722
  786MOL0     C 6006  11.881   4.753   7.866 -0.6463 -0.0850 -0.4075
  786MOL0     C 6007  11.978   4.658   7.829 -0.6481 -0.1185 -0.1978
  786MOL0     C 6008  12.109   4.641   7.882  0.0282 -0.5485 -0.3569
  786MOL0     C 6009  12.150   4.729   7.987 -0.9636 -0.1499 -0.7745
  786MOL0     O 6010  12.269   4.729   8.057 -0.4560  0.2979 -0.3062
  786MOL0     C 6011  12.364   4.623   8.036  0.1200 -0.2306  0.2118
  786MOL0     C 6012  12.448   4.600   8.154 -0.2639  1.0169 -0.0700
  786MOL0     C 6013  12.577   4.539   8.113 -0.4062  0.9454 -0.7371
  786MOL0     C 6014  12.651   4.494   8.237  1.0420 -0.0376  0.4056
  786MOL0     C 6015  12.794   4.444   8.204  0.9167 -0.0991  0.2915
  786MOL0     C 6016  12.858   4.393   8.333  0.6437 -0.1184  0.6391
  786MOL0     C 6017  12.997   4.358   8.316 -0.3838 -0.1351  0.3946
  786MOL0     C 6018  13.061   4.290   8.433  0.0412  0.2228 -0.6387
  786MOL0    Cl 6019  13.236   4.250   8.380  0.1245 -0.1323 -0.0941
  786MOL0     C 6020  12.059   4.829   8.025 -0.2726 -0.7802  0.3089
  786MOL0     C 6021  11.931   4.837   7.966  0.1137 -0.8264 -0.2164
  786MOL0     O 6022  11.652   4.649   7.957 -0.0913  0.9892  0.1494
  786MOL0     C 6023  11.437   4.605   7.786  0.7621 -0.0997  0.3562
  786MOL0     C 6024  11.318   4.616   7.712 -0.4575  0.0294 -0.0594
  786MOL0     N 6025  10.912   4.790   7.083 -0.0310 -0.4168  0.1446
  786MOL0     N 6026  10.865   4.766   6.962 -0.9652 -0.0749 -0.0897
  786MOL0     C 6027   9.732   5.281   6.907  0.7347  0.0893  0.0802
  786MOL0     C 6028   9.601   5.312   6.922 -1.2972  1.0126  0.9378
  786MOL0     C 6029   9.212   5.318   7.194  1.3776 -0.2679  0.0051
  786MOL0     C 6030   9.178   5.411   7.294  0.4005 -0.4523 -0.5243
  786MOL0     C 6031   9.047   5.437   7.325 -0.2038  0.9504  0.4049
  786MOL0     C 6032   8.948   5.385   7.251  0.6377  0.7962  0.7045
  786MOL0     O 6033   8.826   5.432   7.289 -0.2998  0.7816  0.4403
  786MOL0     C 6034   8.720   5.435   7.187 -0.5454 -0.5445 -0.7190
  786MOL0     C 6035   8.646   5.299   7.190  0.0542  0.0666  0.1892
  786MOL0     C 6036   8.552   5.300   7.064  0.0042 -0.1404 -0.3044
  786MOL0     C 6037   8.451   5.415   7.037  0.9627  0.4339 -0.3673
  786MOL0     C 6038   8.336   5.375   6.955  0.5067  0.1963 -0.6669
  786MOL0     C 6039   8.239   5.355   6.885  0.5960  0.6843 -0.3640
  786MOL0     C 6040   8.977   5.318   7.132 -0.0227 -0.8210  0.3486
  786MOL0     C 6041   9.109   5.287   7.100 -0.0540  0.8967 -0.0094
  786MOL0     C 6042   9.143   5.223   6.962 -0.4370 -0.0487 -0.0428
  786MOL0     H 6043   9.509   5.054   7.128  0.1401 -2.7596 -3.4705
  786MOL0     H 6044   9.738   4.992   7.097 -1.3428  0.3412  3.0530
  786MOL0     H 6045   9.950   5.131   6.770 -1.0315  1.3338 -0.1155
  786MOL0     H 6046  10.032   5.269   6.857 -2.3559  0.1377 -0.7220
  786MOL0     H 6047  10.091   4.977   6.879  0.0796 -0.0346  1.7475
  786MOL0     H 6048  10.174   5.116   6.963 -0.1170 -1.1067 -0.1664
  786MOL0     H 6049  10.242   5.196   6.737 -1.5223 -0.4134  0.4782
  786MOL0     H 6050  10.163   5.048   6.670  1.2940 -0.6294 -1.0667
  786MOL0     H 6051  10.429   5.054   6.717  0.4828  0.5559 -0.0532
  786MOL0     H 6052  10.365   5.024   6.874  3.7571  2.8521 -1.3809
  786MOL0     H 6053  10.245   4.812   6.780 -0.2080  0.4400  0.5801
  786MOL0     H 6054  10.294   4.872   6.619  4.5505  1.4896 -1.8681
  786MOL0     H 6055  10.447   4.686   6.692  2.9204 -0.9661 -0.3697
  786MOL0     H 6056  10.527   4.833   6.646 -0.4225 -1.7663 -0.4976
  786MOL0     H 6057  10.470   4.740   6.936 -2.2487 -0.9627 -2.1768
  786MOL0     H 6058  10.582   4.885   6.882  1.8303 -0.4827  1.4817
  786MOL0     H 6059  10.614   4.588   6.856 -0.3180  0.1141 -1.4594
  786MOL0     H 6060  10.713   4.695   6.767 -0.3806  0.6605  0.6225
  786MOL0     H 6061  10.633   4.622   7.144  0.1905 -1.7796 -1.6661
  786MOL0     H 6062  10.816   4.863   7.346  0.0553  0.4805  1.8176
  786MOL0     H 6063  10.711   4.723   7.373  1.2927 -2.3786  0.1625
  786MOL0     H 6064  10.886   4.578   7.415  1.4485 -0.5578  1.6784
  786MOL0     H 6065  11.006   4.686   7.334 -1.4453  1.3091 -0.7298
  786MOL0     H 6066  10.875   4.742   7.596  0.1659 -0.7873 -0.6395
  786MOL0     H 6067  10.971   4.860   7.505  1.4156  0.1146 -1.2754
  786MOL0     H 6068  11.048   4.588   7.603  1.8691 -0.5007 -1.1524
  786MOL0     H 6069  11.069   4.731   7.706 -0.1474  0.0255  0.0553
  786MOL0     H 6070  11.417   4.827   7.472 -1.9849 -0.7206 -0.4024
  786MOL0     H 6071  11.635   4.788   7.593  3.3840 -4.2185  2.7469
  786MOL0     H 6072  11.954   4.586   7.750  0.3324 -2.5960  1.6165
  786MOL0     H 6073  12.178   4.568   7.842 -0.2424 -0.4293 -1.0572
  786MOL0     H 6074  12.316   4.528   8.012  1.4986 -0.3387 -2.5203
  786MOL0     H 6075  12.416   4.654   7.945 -0.9913 -1.6893 -0.9607
  786MOL0     H 6076  12.469   4.690   8.213  0.4133 -0.0292  1.3214
  786MOL0     H 6077  12.387   4.539   8.220 -1.7037  1.1974 -1.1875
  786MOL0     H 6078  12.566   4.454   8.046 -2.2871  0.6354 -0.1008
  786MOL0     H 6079  12.634   4.623   8.072 -0.4081  0.6796 -1.2960
  786MOL0     H 6080  12.593   4.415   8.286 -0.0351  0.7895  0.5029
  786MOL0     H 6081  12.664   4.571   8.313  3.0434 -0.1468  0.2215
  786MOL0     H 6082  12.854   4.529   8.172 -1.7608  0.8818 -2.6297
  786MOL0     H 6083  12.794   4.369   8.124  6.4999  0.1237 -0.2934
  786MOL0     H 6084  12.849   4.458   8.421  0.1942  0.6793  0.0122
  786MOL0     H 6085  12.802   4.303   8.360  0.4383 -0.6743 -1.5279
  786MOL0     H 6086  13.060   4.438   8.274  0.5249 -0.9061  0.2539
  786MOL0     H 6087  13.008   4.285   8.236 -1.7496 -1.1482  1.1054
  786MOL0     H 6088  13.056   4.362   8.515  2.0307  1.0840 -1.2022
  786MOL0     H 6089  13.001   4.203   8.459 -1.1230  1.5676  1.4652
  786MOL0     H 6090  12.085   4.893   8.109 -2.9478 -1.9596  2.1985
  786MOL0     H 6091  11.867   4.911   8.014  1.5117 -0.3007  0.9295
  786MOL0     H 6092  11.443   4.546   7.877  0.5930 -1.6819 -0.6147
  786MOL0     H 6093  11.233   4.553   7.738  0.6823 -1.2568  0.6556
  786MOL0     H 6094   9.776   5.340   6.828 -1.3395 -1.7048 -2.5738
  786MOL0     H 6095   9.579   5.401   6.864  2.0734  0.7250 -1.0130
  786MOL0     H 6096   9.265   5.447   7.348  1.5626 -1.6378 -1.5258
  786MOL0     H 6097   9.040   5.514   7.401  0.0668  1.5079 -0.1237
  786MOL0     H 6098   8.748   5.466   7.085 -1.5545 -0.5492 -1.0108
  786MOL0     H 6099   8.660   5.525   7.206  0.7757 -0.1649  2.1722
  786MOL0     H 6100   8.585   5.280   7.279  0.4807 -1.3705  0.2058
  786MOL0     H 6101   8.712   5.214   7.170 -1.7332 -1.0182 -1.3863
  786MOL0     H 6102   8.493   5.207   7.062  0.3219 -0.3775 -3.3518
  786MOL0     H 6103   8.616   5.297   6.975  1.2856  0.2632  0.5772
  786MOL0     H 6104   8.411   5.457   7.130 -1.9038 -0.0987 -1.2560
  786MOL0     H 6105   8.508   5.487   6.979  2.3704  1.5084  2.1778
  786MOL0     H 6106   8.160   5.324   6.819  0.1629  1.2441 -0.1144
  786MOL0     H 6107   8.898   5.291   7.062  1.8394 -1.8588 -1.4691
  786MOL0     H 6108   9.177   5.303   6.896 -1.2562 -0.1600 -0.6245
  786MOL0     H 6109   9.220   5.146   6.964  0.4614  0.7744 -1.6176
  786MOL0     H 6110   9.055   5.177   6.914  0.7661  0.0916 -2.5490
  787MOL0     O 6111  10.659   1.580   3.341  0.8543 -0.3164 -0.7099
  787MOL0     C 6112  10.578   1.616   3.259  1.2025 -0.2312  0.7672
  787MOL0     O 6113  10.583   1.596   3.127  0.2885  0.3831 -0.4490
  787MOL0     C 6114  10.676   1.511   3.075 -0.5449 -0.2568 -0.5665
  787MOL0     C 6115  10.810   1.556   3.065 -0.0641 -0.7114 -0.3385
  787MOL0     C 6116  10.909   1.465   3.023  0.0457 -0.4254 -0.0463
  787MOL0     C 6117  10.879   1.339   2.985  0.2575 -0.0887 -0.0172
  787MOL0     O 6118  10.987   1.273   2.929  0.1788  0.3888 -0.0213
  787MOL0     C 6119  10.961   1.136   2.890 -0.5182 -0.2758 -0.7324
  787MOL0     C 6120  11.096   1.066   2.901 -0.0540 -0.3282 -0.1458
  787MOL0     C 6121  11.096   0.935   2.833 -0.0853  0.4712  0.7026
  787MOL0     C 6122  11.220   0.857   2.867 -0.2412  0.9498 -0.6469
  787MOL0     C 6123  11.213   0.717   2.802 -0.2222 -0.6254 -0.7455
  787MOL0     C 6124  11.353   0.662   2.768 -0.1205 -0.0208 -0.0720
  787MOL0     C 6125  11.334   0.518   2.703  0.2271 -0.4548 -0.0638
  787MOL0     C 6126  11.453   0.479   2.614 -0.1479 -0.3179 -0.4151
  787MOL0     N 6127  11.442   0.337   2.588 -0.9637 -0.3378 -0.1020
  787MOL0     C 6128  11.537   0.242   2.619 -0.0922  0.5837  0.9764
  787MOL0     C 6129  11.489   0.119   2.579  0.0747  0.2063 -0.2851
  787MOL0     C 6130  11.579   0.001   2.546 -0.8861  0.1019 -0.2453
  787MOL0     C 6131  11.656   0.026   2.413 -0.6999 -0.0651 -0.4833
  787MOL0     C 6132  11.760  -0.091   2.372  0.0099 -0.1070  0.4089
  787MOL0     C 6133  11.692  -0.209   2.316 -0.3156  0.1659  0.0470
  787MOL0     O 6134  11.756  -0.333   2.353  0.3603  0.3743 -0.4406
  787MOL0     C 6135  11.881  -0.367   2.316 -0.3640  0.0463  0.0110
  787MOL0     C 6136  11.951  -0.458   2.405 -0.1314  0.7002 -0.0754
  787MOL0     C 6137  12.077  -0.495   2.370 -0.6207 -0.1723  0.6475
  787MOL0     C 6138  12.152  -0.439   2.264 -0.3016 -0.0506 -0.8379
  787MOL0     C 6139  12.287  -0.489   2.247 -0.6644 -0.6772 -0.1686
  787MOL0     O 6140  12.345  -0.571   2.341  0.4938  0.1147 -0.9584
  787MOL0     C 6141  12.476  -0.598   2.341 -0.0608  0.7830 -0.3671
  787MOL0     C 6142  12.579  -0.507   2.320 -0.0634  0.3098  0.3887
  787MOL0     C 6143  12.710  -0.540   2.340 -0.0808 -0.3540 -0.6581
  787MOL0     C 6144  12.749  -0.664   2.384 -0.7586 -0.0345 -0.0058
  787MOL0     O 6145  12.889  -0.680   2.398  0.3286 -0.3933  0.2336
  787MOL0     C 6146  12.935  -0.818   2.401  0.5106  0.1384  0.3955
  787MOL0     C 6147  13.072  -0.823   2.335  0.0594  0.2288  0.6688
  787MOL0     C 6148  13.180  -0.771   2.426  0.3955  0.0188  0.0467
  787MOL0     C 6149  13.337  -0.803   2.402 -0.1927 -0.6158  0.4885
  787MOL0     C 6150  13.413  -0.743   2.520 -0.3528 -0.0906  1.0550
  787MOL0     C 6151  13.559  -0.775   2.507 -0.2789  0.7604 -0.1484
  787MOL0     C 6152  13.644  -0.712   2.623  0.1128  0.0606 -1.0367
  787MOL0     C 6153  13.796  -0.724   2.598 -0.1456  0.8272 -0.3669
  787MOL0    Cl 6154  13.880  -0.625   2.722 -0.2239  0.0538  0.1233
  787MOL0     C 6155  12.654  -0.762   2.406  0.7932 -0.6875 -0.3326
  787MOL0     C 6156  12.514  -0.725   2.391 -0.5967  0.7156 -0.1419
  787MOL0     O 6157  12.344  -0.431   2.150 -0.0283 -0.4736 -0.1598
  787MOL0     C 6158  12.085  -0.345   2.181 -0.4410  0.3759 -0.8128
  787MOL0     C 6159  11.954  -0.313   2.210  0.2248  0.2980 -0.2470
  787MOL0     N 6160  11.353   0.144   2.546 -0.5158  1.0563 -0.0971
  787MOL0     N 6161  11.330   0.271   2.552 -0.0940  0.2573  0.0214
  787MOL0     C 6162  10.746   1.293   3.003  1.3499  0.5492 -0.1966
  787MOL0     C 6163  10.645   1.375   3.058 -0.6361  0.1175 -0.4902
  787MOL0     C 6164  10.464   1.694   3.311 -0.3701  0.0157 -0.9736
  787MOL0     C 6165  10.492   1.785   3.407  0.7157 -0.7088 -0.2494
  787MOL0     C 6166  10.390   1.873   3.455 -0.4876  0.1117 -0.9609
  787MOL0     C 6167  10.258   1.874   3.411 -0.7969  0.1512 -0.1252
  787MOL0     O 6168  10.160   1.957   3.454 -0.8026  0.1029 -0.2261
  787MOL0     C 6169  10.183   2.026   3.575  0.2115 -0.6013  1.0647
  787MOL0     C 6170  10.068   2.121   3.590 -0.7383 -0.6713  0.1584
  787MOL0     C 6171  10.048   2.217   3.464  0.4842 -0.1419 -0.0136
  787MOL0     C 6172   9.932   2.321   3.490 -0.5420  0.7617 -0.2894
  787MOL0     C 6173   9.798   2.253   3.501  0.0025 -0.2127  0.1369
  787MOL0     C 6174   9.693   2.201   3.534 -0.0832 -1.1950  0.6623
  787MOL0     C 6175  10.236   1.775   3.312  0.4602 -0.2529  0.6754
  787MOL0     C 6176  10.335   1.687   3.271  0.5758  0.8184  0.8240
  787MOL0     C 6177  10.292   1.589   3.161  0.5276  0.2271  0.3909
  787MOL0     H 6178  10.850   1.653   3.094 -0.9336 -0.7673  1.1316
  787MOL0     H 6179  11.012   1.499   3.029  0.4455 -0.6908 -3.3537
  787MOL0     H 6180  10.888   1.091   2.958 -0.4410 -0.0280 -0.4822
  787MOL0     H 6181  10.946   1.139   2.782  2.3798 -0.9869 -1.2313
  787MOL0     H 6182  11.124   1.053   3.006 -0.4014  2.4316  0.3628
  787MOL0     H 6183  11.174   1.121   2.848  0.7073 -0.9089  0.3375
  787MOL0     H 6184  11.092   0.944   2.724  0.4198  0.8398  0.7110
  787MOL0     H 6185  11.009   0.876   2.863  1.0399  0.2464  3.8857
  787MOL0     H 6186  11.312   0.902   2.828 -0.8689  1.9241 -1.0399
  787MOL0     H 6187  11.228   0.850   2.976 -1.4997  4.0993 -0.2323
  787MOL0     H 6188  11.156   0.657   2.874  2.1612  1.4245  3.2381
  787MOL0     H 6189  11.160   0.716   2.707  0.7366  1.5255 -1.3828
  787MOL0     H 6190  11.416   0.717   2.699  0.9556 -2.0755 -0.8068
  787MOL0     H 6191  11.407   0.667   2.863 -0.9158 -0.9194  0.4445
  787MOL0     H 6192  11.248   0.519   2.634 -0.0120  1.3416  0.1986
  787MOL0     H 6193  11.310   0.453   2.787 -1.8487  0.4389  0.1200
  787MOL0     H 6194  11.448   0.542   2.525  0.7156 -1.6006 -1.3970
  787MOL0     H 6195  11.545   0.497   2.670 -0.7745 -2.9296  1.6615
  787MOL0     H 6196  11.639   0.266   2.646  2.1702 -0.9507 -4.7866
  787MOL0     H 6197  11.653  -0.006   2.626 -1.5554  3.7603  0.8656
  787MOL0     H 6198  11.520  -0.091   2.544  0.2952 -0.6731 -1.6557
  787MOL0     H 6199  11.599   0.055   2.324  0.8197 -0.1051 -1.5008
  787MOL0     H 6200  11.719   0.110   2.444  0.3190 -0.8789 -0.2971
  787MOL0     H 6201  11.808  -0.126   2.464 -0.9168 -2.4261  0.0955
  787MOL0     H 6202  11.838  -0.056   2.304 -1.0745 -1.0917 -1.4431
  787MOL0     H 6203  11.686  -0.203   2.207 -0.1790  2.6615  0.1242
  787MOL0     H 6204  11.588  -0.217   2.349 -1.1425  0.6087 -2.2129
  787MOL0     H 6205  11.908  -0.500   2.495  2.3569  1.2098  1.4570
  787MOL0     H 6206  12.133  -0.565   2.431 -1.6367  0.5737  2.5389
  787MOL0     H 6207  12.541  -0.407   2.302 -3.4563 -0.5643  1.9028
  787MOL0     H 6208  12.782  -0.467   2.305 -1.5392 -0.2452 -3.7578
  787MOL0     H 6209  12.937  -0.857   2.503  2.1868  0.4484  0.5058
  787MOL0     H 6210  12.873  -0.886   2.341  1.0285 -2.1226  2.2926
  787MOL0     H 6211  13.102  -0.926   2.315 -1.8768 -0.6214  1.8703
  787MOL0     H 6212  13.072  -0.762   2.244 -1.5699 -1.5428 -0.6070
  787MOL0     H 6213  13.177  -0.662   2.427 -1.8353  0.0052  1.6168
  787MOL0     H 6214  13.167  -0.801   2.531 -1.0152 -0.5349 -0.2560
  787MOL0     H 6215  13.376  -0.775   2.304 -0.3404 -0.3380  0.5087
  787MOL0     H 6216  13.344  -0.913   2.399  0.8254 -0.5505 -1.7243
  787MOL0     H 6217  13.360  -0.781   2.608 -0.8910 -0.7183  0.4708
  787MOL0     H 6218  13.408  -0.633   2.515  0.5597 -0.0691  0.4013
  787MOL0     H 6219  13.587  -0.880   2.500  2.0171  1.3492 -0.9891
  787MOL0     H 6220  13.605  -0.734   2.417  2.4165 -2.2301 -0.3126
  787MOL0     H 6221  13.620  -0.757   2.720  1.0947 -1.1040 -1.3114
  787MOL0     H 6222  13.619  -0.605   2.631  1.8824  0.4332  0.2029
  787MOL0     H 6223  13.821  -0.828   2.618  2.2399  1.5535  0.8167
  787MOL0     H 6224  13.837  -0.696   2.501  3.2424  0.3837  0.8126
  787MOL0     H 6225  12.667  -0.857   2.457 -2.0447  0.7960  3.6524
  787MOL0     H 6226  12.442  -0.801   2.419  1.0779 -1.3944 -1.3518
  787MOL0     H 6227  12.129  -0.297   2.095  2.6121  1.6507  1.2654
  787MOL0     H 6228  11.902  -0.240   2.149 -2.7835 -2.2420 -0.9525
  787MOL0     H 6229  10.715   1.190   2.988  1.5290  0.3608  0.6456
  787MOL0     H 6230  10.544   1.338   3.075 -0.8395  0.0308 -1.7760
  787MOL0     H 6231  10.594   1.807   3.437 -0.2130  1.8194  1.3969
  787MOL0     H 6232  10.416   1.949   3.528 -0.8666  1.3384 -2.0554
  787MOL0     H 6233  10.278   2.081   3.571  0.1300 -0.4601 -2.4870
  787MOL0     H 6234  10.185   1.950   3.654 -0.0586 -1.5274  0.2126
  787MOL0     H 6235  10.100   2.188   3.670  2.0195  0.3513 -1.6517
  787MOL0     H 6236   9.978   2.062   3.609 -1.9877  1.7670  2.4358
  787MOL0     H 6237  10.024   2.164   3.371 -0.5723  0.0797  0.1191
  787MOL0     H 6238  10.142   2.267   3.439 -0.1782  1.6645  0.9169
  787MOL0     H 6239   9.949   2.379   3.581  1.1984  2.5863 -1.7068
  787MOL0     H 6240   9.931   2.395   3.410 -1.8953  2.2130  1.0154
  787MOL0     H 6241   9.600   2.161   3.570 -0.1952  0.7069  2.6461
  787MOL0     H 6242  10.133   1.782   3.280 -0.3201  0.7288  3.1883
  787MOL0     H 6243  10.311   1.633   3.063 -1.4808 -0.8491 -0.5611
  787MOL0     H 6244  10.341   1.491   3.166 -0.5179 -0.2607  1.7835
  787MOL0     H 6245  10.185   1.569   3.177  0.7581 -0.8143  0.7369
  788MOL0     O 6246   8.145   5.957   5.952  0.0608 -0.0229 -0.3098
  788MOL0     C 6247   8.156   5.984   5.831 -0.0453 -0.5029  0.4039
  788MOL0     O 6248   8.264   6.026   5.763 -0.4054 -0.0566  0.0632
  788MOL0     C 6249   8.381   6.046   5.838 -0.5852 -0.2292  0.9807
  788MOL0     C 6250   8.495   5.991   5.782  0.2141  0.6368  0.4890
  788MOL0     C 6251   8.624   6.018   5.836  0.4952 -0.5061  0.0092
  788MOL0     C 6252   8.631   6.094   5.956  0.0726  0.3540 -1.2335
  788MOL0     O 6253   8.745   6.140   6.009  0.0175 -0.9828  0.5118
  788MOL0     C 6254   8.845   6.049   6.041  0.6362  0.1961 -0.2940
  788MOL0     C 6255   8.968   6.062   5.960 -0.0304  0.4580  0.7332
  788MOL0     C 6256   9.090   6.015   6.035 -0.7542  0.2577  0.1429
  788MOL0     C 6257   9.201   6.012   5.926  0.1089  0.6899 -0.0361
  788MOL0     C 6258   9.352   5.986   5.977  0.6625  0.3091  0.3030
  788MOL0     C 6259   9.422   6.085   6.069  0.7974  1.1623 -0.0886
  788MOL0     C 6260   9.446   6.224   6.007  0.1681 -0.1521 -1.3998
  788MOL0     C 6261   9.535   6.225   5.886 -0.1221  0.7485  0.5235
  788MOL0     N 6262   9.571   6.366   5.846 -0.3296 -0.0629 -0.3694
  788MOL0     C 6263   9.496   6.460   5.779  0.7055  0.6007  0.1796
  788MOL0     C 6264   9.560   6.575   5.772 -0.7749 -0.7317  0.5822
  788MOL0     C 6265   9.531   6.701   5.694 -0.6970  0.2633 -0.9384
  788MOL0     C 6266   9.476   6.658   5.553 -0.5910 -0.0242 -0.3549
  788MOL0     C 6267   9.573   6.566   5.469  0.2515  1.0204 -0.3136
  788MOL0     C 6268   9.660   6.626   5.364 -0.3143 -0.3289  0.0963
  788MOL0     O 6269   9.734   6.740   5.430 -0.1527  0.0763  0.6950
  788MOL0     C 6270   9.866   6.717   5.452 -0.3051 -0.5067 -0.1676
  788MOL0     C 6271   9.909   6.608   5.526  0.4619 -0.0543  0.3418
  788MOL0     C 6272  10.043   6.576   5.540 -0.9993  0.1193  0.1213
  788MOL0     C 6273  10.140   6.641   5.449  1.2188 -0.1870  0.6806
  788MOL0     C 6274  10.274   6.583   5.437  0.0073  0.4174 -0.7666
  788MOL0     O 6275  10.367   6.646   5.360 -0.4570 -0.0027  0.2713
  788MOL0     C 6276  10.484   6.570   5.340 -0.3442 -0.4672 -0.1403
  788MOL0     C 6277  10.596   6.602   5.408  0.3581  0.9491 -0.2070
  788MOL0     C 6278  10.713   6.541   5.383 -0.6365 -0.2296  0.2698
  788MOL0     C 6279  10.731   6.441   5.285 -0.6007 -0.0571 -0.1669
  788MOL0     O 6280  10.857   6.383   5.258  0.1085 -0.1338  0.1882
  788MOL0     C 6281  10.903   6.413   5.130  0.0805 -0.4291  0.1361
  788MOL0     C 6282  11.049   6.363   5.110  0.5983 -0.1486  0.7458
  788MOL0     C 6283  11.144   6.461   5.171  0.1957 -0.5780 -0.1885
  788MOL0     C 6284  11.294   6.433   5.136  0.6507 -0.1773  0.3101
  788MOL0     C 6285  11.398   6.534   5.187 -0.7135 -0.4529  0.2045
  788MOL0     C 6286  11.544   6.514   5.147 -0.7546  0.6710  0.5866
  788MOL0     C 6287  11.655   6.599   5.220  0.0833  0.0917 -0.3021
  788MOL0     C 6288  11.800   6.564   5.181  0.1281 -0.3305  0.2115
  788MOL0    Cl 6289  11.845   6.389   5.215  0.3417 -0.0846 -0.2428
  788MOL0     C 6290  10.616   6.403   5.218  0.1142 -0.0615  0.1737
  788MOL0     C 6291  10.498   6.467   5.242  1.5373  0.0833  0.1120
  788MOL0     O 6292  10.300   6.484   5.515  0.0870  0.2363  0.3959
  788MOL0     C 6293  10.097   6.757   5.385  0.5450 -0.2825 -0.3398
  788MOL0     C 6294   9.963   6.792   5.388  0.3472  0.6292 -0.4375
  788MOL0     N 6295   9.687   6.552   5.827  1.0559 -0.0340 -1.3293
  788MOL0     N 6296   9.690   6.429   5.872  0.6495  0.5471  0.7772
  788MOL0     C 6297   8.511   6.135   6.014 -0.4911 -0.3933  0.9394
  788MOL0     C 6298   8.390   6.116   5.956 -0.4985  0.9762 -0.4562
  788MOL0     C 6299   8.043   5.952   5.735 -0.5872 -1.3700  0.0362
  788MOL0     C 6300   7.998   6.057   5.652 -0.2672  0.2091 -0.3643
  788MOL0     C 6301   7.885   6.046   5.568 -0.6270 -0.2824 -0.1911
  788MOL0     C 6302   7.811   5.924   5.573  0.0204  0.0472  1.4869
  788MOL0     O 6303   7.688   5.928   5.505  0.0350  0.1006 -1.2061
  788MOL0     C 6304   7.584   5.884   5.597  0.7809  0.4781 -0.7568
  788MOL0     C 6305   7.515   6.008   5.641 -0.7309  0.4306 -0.2719
  788MOL0     C 6306   7.427   5.969   5.758 -0.2637  0.9080  0.2208
  788MOL0     C 6307   7.282   5.959   5.708 -0.6538  0.7199 -0.6376
  788MOL0     C 6308   7.199   5.910   5.821  0.5764 -0.4986 -0.4417
  788MOL0     C 6309   7.128   5.877   5.913 -0.1652 -0.6156  0.3159
  788MOL0     C 6310   7.866   5.813   5.647  0.6267  0.4415 -0.4386
  788MOL0     C 6311   7.978   5.829   5.729 -0.3865  0.4322 -0.2232
  788MOL0     C 6312   8.011   5.719   5.835  0.4865 -0.0747  1.3327
  788MOL0     H 6313   8.480   5.923   5.699  1.2664  2.5266 -1.3416
  788MOL0     H 6314   8.710   5.969   5.790  1.0435 -0.1331  0.6277
  788MOL0     H 6315   8.883   6.060   6.143 -0.1327  2.9510 -0.2203
  788MOL0     H 6316   8.798   5.950   6.039  1.4113 -0.4320  3.8875
  788MOL0     H 6317   9.002   6.162   5.933  0.1144  0.6831  1.7216
  788MOL0     H 6318   8.949   6.002   5.870 -5.1368  2.3263  0.2059
  788MOL0     H 6319   9.075   5.914   6.075 -0.2898  1.5032  3.8115
  788MOL0     H 6320   9.120   6.071   6.123 -3.4153 -0.3712  1.5788
  788MOL0     H 6321   9.175   5.939   5.849 -0.0215  1.2872 -0.5663
  788MOL0     H 6322   9.205   6.109   5.876 -3.0265  0.0431 -1.7745
  788MOL0     H 6323   9.347   5.889   6.026  3.4353  0.1530  0.4065
  788MOL0     H 6324   9.409   5.966   5.885  0.0155 -2.0586  0.3651
  788MOL0     H 6325   9.360   6.095   6.159  0.5495  0.1166 -0.1332
  788MOL0     H 6326   9.516   6.041   6.103  0.0064  0.1356  0.8391
  788MOL0     H 6327   9.489   6.297   6.077 -0.8339 -0.6846 -0.1710
  788MOL0     H 6328   9.351   6.266   5.972 -0.6034 -0.4752  0.2162
  788MOL0     H 6329   9.626   6.168   5.905 -1.8866 -2.6276 -0.3926
  788MOL0     H 6330   9.481   6.190   5.798 -0.5847  1.8807  0.3385
  788MOL0     H 6331   9.399   6.440   5.735 -0.2588  0.6404  2.1712
  788MOL0     H 6332   9.455   6.754   5.751  0.4003  1.1578 -0.2557
  788MOL0     H 6333   9.618   6.767   5.682  0.9868 -1.9543 -1.7517
  788MOL0     H 6334   9.386   6.602   5.580  0.4917 -0.0460  4.0023
  788MOL0     H 6335   9.462   6.751   5.499 -1.8513  0.8114  1.3461
  788MOL0     H 6336   9.508   6.497   5.414 -1.1803 -0.1243  2.5658
  788MOL0     H 6337   9.639   6.510   5.535  0.1258  1.9564  0.6461
  788MOL0     H 6338   9.604   6.668   5.280  0.0470 -2.4534 -1.2670
  788MOL0     H 6339   9.724   6.557   5.309  0.5293 -1.4869  2.4083
  788MOL0     H 6340   9.836   6.550   5.583  0.1183 -0.9163 -0.9214
  788MOL0     H 6341  10.070   6.489   5.599 -2.9252  0.1338  1.0867
  788MOL0     H 6342  10.590   6.676   5.487 -1.2783 -0.8889  1.5248
  788MOL0     H 6343  10.800   6.570   5.440 -0.9237  1.6409 -0.2057
  788MOL0     H 6344  10.841   6.364   5.054  1.1397  0.0029 -1.0573
  788MOL0     H 6345  10.908   6.522   5.126 -0.5142 -0.0551  4.5853
  788MOL0     H 6346  11.063   6.259   5.141 -1.6015 -0.6344  0.2790
  788MOL0     H 6347  11.063   6.350   5.003 -5.2731 -3.5933 -0.0436
  788MOL0     H 6348  11.121   6.562   5.135  0.2336  0.8875  3.4872
  788MOL0     H 6349  11.140   6.466   5.280  0.5072  1.9198 -0.2365
  788MOL0     H 6350  11.294   6.439   5.027 -1.3232  1.5430  0.3333
  788MOL0     H 6351  11.319   6.334   5.175 -0.3753 -1.3503 -1.8181
  788MOL0     H 6352  11.387   6.539   5.296  0.5241 -0.8448  0.3654
  788MOL0     H 6353  11.368   6.633   5.152 -2.8929 -1.1484 -0.0551
  788MOL0     H 6354  11.565   6.412   5.180  0.4688  0.5152 -0.5778
  788MOL0     H 6355  11.554   6.522   5.038  0.5501  2.0265  0.7711
  788MOL0     H 6356  11.652   6.580   5.328 -0.3728 -1.0153 -0.5032
  788MOL0     H 6357  11.634   6.706   5.215 -1.9487 -0.2112  0.6966
  788MOL0     H 6358  11.820   6.583   5.075 -0.4009 -1.2596 -0.0668
  788MOL0     H 6359  11.868   6.632   5.233  1.1956 -1.3330  0.1568
  788MOL0     H 6360  10.622   6.328   5.140  0.6988  0.8835 -0.7195
  788MOL0     H 6361  10.405   6.442   5.193  1.4596  1.0984 -0.2924
  788MOL0     H 6362  10.162   6.819   5.323  0.7802 -0.3989 -0.2104
  788MOL0     H 6363   9.923   6.876   5.331  1.7463 -0.3206 -2.9681
  788MOL0     H 6364   8.504   6.197   6.102  0.8764  3.8423 -1.6550
  788MOL0     H 6365   8.295   6.154   5.994 -1.4530  1.2944 -2.9483
  788MOL0     H 6366   8.056   6.149   5.647 -0.6344  0.9464  4.5009
  788MOL0     H 6367   7.850   6.123   5.501  0.6345 -0.7141 -1.4112
  788MOL0     H 6368   7.624   5.834   5.686 -1.1435 -1.7432 -1.0142
  788MOL0     H 6369   7.505   5.821   5.554  0.2235  1.8256 -1.7823
  788MOL0     H 6370   7.477   6.079   5.566 -3.0030  0.9657  1.2897
  788MOL0     H 6371   7.604   6.054   5.685  0.6312 -1.8708 -0.4330
  788MOL0     H 6372   7.444   6.052   5.827 -0.4850  0.5980  0.6544
  788MOL0     H 6373   7.454   5.877   5.812  1.6985  0.2066 -1.7893
  788MOL0     H 6374   7.248   6.058   5.678 -0.1083  0.6387 -1.5632
  788MOL0     H 6375   7.276   5.890   5.622  0.1450  2.4509 -2.1538
  788MOL0     H 6376   7.080   5.842   6.002 -0.1104 -0.6997  0.3122
  788MOL0     H 6377   7.800   5.729   5.662 -0.5746  1.6952  1.7082
  788MOL0     H 6378   8.113   5.719   5.875  0.2606  1.7282  2.0083
  788MOL0     H 6379   7.940   5.745   5.914 -1.8741 -0.4838 -0.5732
  788MOL0     H 6380   7.982   5.621   5.796 -2.6460  0.9736  0.8094
  789MOL0     O 6381   2.417   2.327  10.604  0.0519  0.0981 -0.2859
  789MOL0     C 6382   2.309   2.369  10.569  0.7561  0.3835 -0.3429
  789MOL0     O 6383   2.285   2.423  10.445 -0.2133 -0.4461 -0.2606
  789MOL0     C 6384   2.385   2.477  10.364  0.2621  0.4305 -1.0328
  789MOL0     C 6385   2.340   2.531  10.245  1.2720  0.1591  1.5412
  789MOL0     C 6386   2.427   2.584  10.152 -0.3540  0.1423 -0.5917
  789MOL0     C 6387   2.567   2.592  10.168  0.3634 -0.5610  0.7078
  789MOL0     O 6388   2.650   2.626  10.057  0.5029 -0.1300  0.0848
  789MOL0     C 6389   2.781   2.668  10.094  0.5443  0.4497  0.3396
  789MOL0     C 6390   2.789   2.787  10.197 -0.0776 -0.0743  0.0180
  789MOL0     C 6391   2.927   2.833  10.230  0.7076  0.7097 -0.0409
  789MOL0     C 6392   3.013   2.719  10.286 -0.0058 -0.1246 -0.2714
  789MOL0     C 6393   3.147   2.774  10.349 -1.4116 -0.3756 -1.0500
  789MOL0     C 6394   3.216   2.664  10.431  0.5423 -0.6541  1.0156
  789MOL0     C 6395   3.360   2.704  10.450  0.1489 -0.3392 -0.7379
  789MOL0     C 6396   3.437   2.590  10.508 -0.5728  0.0347 -0.3276
  789MOL0     N 6397   3.578   2.615  10.545  0.4481 -0.0772  0.3717
  789MOL0     C 6398   3.615   2.631  10.675 -0.5875  0.5697  0.2250
  789MOL0     C 6399   3.753   2.640  10.665 -0.5532  0.6371 -0.6018
  789MOL0     C 6400   3.851   2.700  10.775 -0.4134  0.0361  1.0068
  789MOL0     C 6401   3.945   2.596  10.838 -0.2535  0.3321  0.3837
  789MOL0     C 6402   4.046   2.530  10.747 -0.1291 -0.2135 -0.5355
  789MOL0     C 6403   4.158   2.469  10.830  0.2672 -0.5886 -0.4190
  789MOL0     O 6404   4.242   2.400  10.741 -0.4064 -0.0408 -0.0249
  789MOL0     C 6405   4.378   2.387  10.766 -0.2471  0.4647  0.6572
  789MOL0     C 6406   4.426   2.411  10.896 -0.1839 -0.5186  1.0378
  789MOL0     C 6407   4.561   2.417  10.917  0.2204 -0.1658  0.4367
  789MOL0     C 6408   4.659   2.399  10.819  1.3304 -0.2077 -0.0963
  789MOL0     C 6409   4.802   2.410  10.837  0.4113  0.5696 -0.5126
  789MOL0     O 6410   4.836   2.433  10.975  0.0780  0.2563 -0.3063
  789MOL0     C 6411   4.963   2.449  11.006 -0.4679  0.6235  0.5385
  789MOL0     C 6412   5.061   2.351  11.025 -0.5490 -0.4397 -0.5290
  789MOL0     C 6413   5.196   2.377  11.035  0.0462  0.5639 -0.5500
  789MOL0     C 6414   5.248   2.504  11.030  0.3528 -0.3583  0.8717
  789MOL0     O 6415   5.381   2.513  11.032 -0.1389  0.6142 -0.2660
  789MOL0     C 6416   5.442   2.642  11.044  1.0350 -0.0474 -0.7083
  789MOL0     C 6417   5.589   2.625  11.051 -0.5446 -0.0156 -0.7201
  789MOL0     C 6418   5.646   2.548  10.931 -0.3698  0.1240  0.0635
  789MOL0     C 6419   5.794   2.513  10.959 -0.2283  0.5535 -0.3747
  789MOL0     C 6420   5.807   2.386  11.043  0.1643  0.8093 -0.6296
  789MOL0     C 6421   5.953   2.352  11.077  0.3003  0.5777 -0.2307
  789MOL0     C 6422   6.049   2.359  10.963  0.6712 -0.2008  0.4870
  789MOL0     C 6423   6.171   2.284  11.004  0.3531 -0.7939  0.0018
  789MOL0    Cl 6424   6.244   2.380  11.129 -0.1280 -0.1108  0.4319
  789MOL0     C 6425   5.155   2.613  11.031 -0.2105  0.8558  0.2606
  789MOL0     C 6426   5.014   2.580  11.021 -1.1980  0.3609  0.2029
  789MOL0     O 6427   4.883   2.392  10.746  0.8420 -0.5909  0.6222
  789MOL0     C 6428   4.601   2.366  10.687 -0.1498  0.1558  0.6864
  789MOL0     C 6429   4.464   2.364  10.659 -0.5586 -1.0317  0.0668
  789MOL0     N 6430   3.792   2.615  10.535 -0.8320  0.0683 -0.9801
  789MOL0     N 6431   3.688   2.604  10.460  0.2911  0.7726 -0.4007
  789MOL0     C 6432   2.607   2.540  10.291  0.0946 -0.5706 -0.2856
  789MOL0     C 6433   2.521   2.494  10.393 -0.4277  0.2853 -0.1619
  789MOL0     C 6434   2.188   2.332  10.650 -0.2522 -0.7378 -0.7996
  789MOL0     C 6435   2.180   2.205  10.703  0.9292  0.5793 -0.0468
  789MOL0     C 6436   2.073   2.167  10.786 -1.2402 -0.6387  0.1623
  789MOL0     C 6437   1.965   2.250  10.793 -0.1794  0.2266 -0.3316
  789MOL0     O 6438   1.856   2.194  10.858 -0.5975 -1.1410 -0.7441
  789MOL0     C 6439   1.834   2.241  10.987  0.3517  0.4353 -0.2271
  789MOL0     C 6440   1.689   2.226  11.024 -0.5061 -0.1571 -0.4417
  789MOL0     C 6441   1.597   2.332  10.963 -0.7174  0.6339 -0.2752
  789MOL0     C 6442   1.467   2.307  11.038 -0.7163  0.0523  0.0246
  789MOL0     C 6443   1.383   2.425  11.025  0.9569  0.2193  0.1170
  789MOL0     C 6444   1.311   2.520  11.016 -0.4559  0.3472  0.7367
  789MOL0     C 6445   1.974   2.375  10.735 -0.2967 -0.3981  1.0470
  789MOL0     C 6446   2.080   2.422  10.666  0.2070 -1.5222  0.1209
  789MOL0     C 6447   2.052   2.560  10.600  0.1873 -0.3445 -0.9879
  789MOL0     H 6448   2.233   2.542  10.227  1.6836  1.3709 -0.4895
  789MOL0     H 6449   2.390   2.628  10.060  0.0526  1.3035 -0.2171
  789MOL0     H 6450   2.838   2.580  10.126  1.7211  0.1576 -2.2952
  789MOL0     H 6451   2.835   2.699  10.004  3.1854 -0.0195  1.6527
  789MOL0     H 6452   2.741   2.747  10.287  1.8575 -3.2491 -0.1930
  789MOL0     H 6453   2.733   2.876  10.167  1.7151  0.6797 -1.3377
  789MOL0     H 6454   2.921   2.918  10.299 -0.0039  0.5420  0.1085
  789MOL0     H 6455   2.970   2.866  10.135  2.4537  0.3074  0.5753
  789MOL0     H 6456   2.962   2.656  10.359  1.1947 -0.1835  0.5519
  789MOL0     H 6457   3.038   2.661  10.197 -0.2414 -1.4785  0.5180
  789MOL0     H 6458   3.209   2.813  10.267 -0.9473 -0.0936 -0.5740
  789MOL0     H 6459   3.132   2.857  10.419 -1.6074 -0.1062 -1.4019
  789MOL0     H 6460   3.164   2.659  10.528 -2.9710 -1.9632 -0.7612
  789MOL0     H 6461   3.200   2.576  10.368 -0.4573  1.2630 -1.5721
  789MOL0     H 6462   3.375   2.787  10.519  3.6835  0.6822 -2.4926
  789MOL0     H 6463   3.401   2.736  10.353 -0.9097 -0.6660 -1.3169
  789MOL0     H 6464   3.390   2.563  10.603  0.6747  1.1136  0.6325
  789MOL0     H 6465   3.430   2.499  10.449  1.1979  0.3740 -1.1422
  789MOL0     H 6466   3.559   2.644  10.767 -0.0593 -2.7846  1.1787
  789MOL0     H 6467   3.907   2.781  10.727 -2.3282 -0.6475 -2.7969
  789MOL0     H 6468   3.791   2.749  10.852 -1.6283 -1.1303  0.8436
  789MOL0     H 6469   4.004   2.651  10.912 -1.2441 -0.1809  1.5817
  789MOL0     H 6470   3.887   2.521  10.893  0.8935 -0.4233  0.6018
  789MOL0     H 6471   4.091   2.606  10.682 -1.3193  0.9371 -0.0683
  789MOL0     H 6472   3.996   2.454  10.686 -2.4708  2.1689 -1.8302
  789MOL0     H 6473   4.130   2.394  10.905  1.7373 -2.0035 -1.2231
  789MOL0     H 6474   4.219   2.547  10.878 -0.1056 -0.5418 -0.0109
  789MOL0     H 6475   4.366   2.412  10.986 -0.1456 -0.7580  1.0676
  789MOL0     H 6476   4.601   2.433  11.017  2.9082 -3.3634  0.0818
  789MOL0     H 6477   5.028   2.248  11.032 -0.1206 -0.5191  0.5592
  789MOL0     H 6478   5.261   2.290  11.042 -1.3955 -0.4084  2.5548
  789MOL0     H 6479   5.416   2.704  10.957  0.8163  3.1106  1.4549
  789MOL0     H 6480   5.407   2.691  11.135 -0.3637 -2.8539  0.4003
  789MOL0     H 6481   5.630   2.727  11.053  0.4601 -0.4101  1.9713
  789MOL0     H 6482   5.610   2.581  11.148 -1.0355  1.5178  0.1181
  789MOL0     H 6483   5.589   2.456  10.914 -0.4522  0.0632  0.6227
  789MOL0     H 6484   5.636   2.608  10.841 -1.5980  0.9080  0.7017
  789MOL0     H 6485   5.852   2.599  10.994 -0.0984  0.0058  0.8088
  789MOL0     H 6486   5.842   2.492  10.862 -0.3710 -1.4939 -0.0546
  789MOL0     H 6487   5.758   2.307  10.986 -1.0158  2.0351 -1.3640
  789MOL0     H 6488   5.756   2.392  11.140 -1.8248 -2.1012 -1.3765
  789MOL0     H 6489   5.979   2.430  11.149 -0.3532 -0.8463  1.6032
  789MOL0     H 6490   5.954   2.255  11.127  3.1753  0.0139 -1.1788
  789MOL0     H 6491   6.079   2.461  10.936  3.3271 -0.7107  1.2161
  789MOL0     H 6492   6.007   2.319  10.870  2.2781 -3.4288  1.0177
  789MOL0     H 6493   6.145   2.188  11.048 -2.3917  0.1572  0.6484
  789MOL0     H 6494   6.241   2.274  10.920  3.1509  0.8800  1.9568
  789MOL0     H 6495   5.190   2.716  11.030 -1.4447  1.3678  2.4205
  789MOL0     H 6496   4.945   2.663  11.012  0.3435  1.6002 -0.8717
  789MOL0     H 6497   4.674   2.339  10.611 -2.4730 -1.3594 -1.1771
  789MOL0     H 6498   4.435   2.347  10.555 -0.7346 -1.3811  0.1726
  789MOL0     H 6499   2.713   2.548  10.313 -0.3494  0.9935  1.5596
  789MOL0     H 6500   2.571   2.461  10.483  0.5122 -1.2283 -1.2007
  789MOL0     H 6501   2.262   2.137  10.684  0.5786  0.1749 -0.1178
  789MOL0     H 6502   2.060   2.066  10.822 -0.3748 -1.0226 -0.5838
  789MOL0     H 6503   1.854   2.344  11.018 -2.1436  0.5594  1.1977
  789MOL0     H 6504   1.903   2.195  11.058 -0.9524  1.7479  2.0110
  789MOL0     H 6505   1.685   2.243  11.131  0.9088  1.1767 -0.5678
  789MOL0     H 6506   1.648   2.124  11.014 -1.7811 -0.1323  3.2114
  789MOL0     H 6507   1.576   2.320  10.856  2.6640 -1.6925 -0.8342
  789MOL0     H 6508   1.624   2.434  10.990 -0.6145  0.8109 -1.0441
  789MOL0     H 6509   1.418   2.214  11.006  1.4986 -3.2603  4.9864
  789MOL0     H 6510   1.489   2.296  11.144 -0.8060  3.3048  0.4781
  789MOL0     H 6511   1.225   2.582  11.007  0.2700  1.0651 -2.9540
  789MOL0     H 6512   1.893   2.447  10.745 -0.7692 -0.7215 -0.1821
  789MOL0     H 6513   1.946   2.589  10.607  0.8351  1.6733  3.9220
  789MOL0     H 6514   2.106   2.639  10.651 -1.7200  0.6676 -0.4187
  789MOL0     H 6515   2.084   2.553  10.495 -1.4203  4.9985 -2.1227
  790MOL0     O 6516   1.980   9.672   1.084 -0.3146 -0.2049 -0.3903
  790MOL0     C 6517   1.909   9.635   0.993 -0.8887  0.7664  0.6642
  790MOL0     O 6518   1.943   9.540   0.897 -0.4438  0.2890 -0.8056
  790MOL0     C 6519   2.058   9.464   0.898 -0.7582 -0.4260 -0.2760
  790MOL0     C 6520   2.133   9.445   0.779  0.2752  0.5395  0.6343
  790MOL0     C 6521   2.261   9.390   0.785 -1.1659 -0.2382  0.3108
  790MOL0     C 6522   2.322   9.359   0.910 -0.7095 -0.2013 -0.1345
  790MOL0     O 6523   2.460   9.336   0.914  0.0169  0.3502  0.1934
  790MOL0     C 6524   2.498   9.249   1.021  0.1911 -0.1121 -0.4803
  790MOL0     C 6525   2.654   9.216   1.003  0.3646  0.2765  0.2044
  790MOL0     C 6526   2.743   9.332   1.039  0.1729 -1.0898 -0.2250
  790MOL0     C 6527   2.892   9.293   1.072 -0.4534 -1.1467  0.3173
  790MOL0     C 6528   2.977   9.411   1.113  0.6638 -0.7668  0.1282
  790MOL0     C 6529   3.101   9.371   1.194 -0.6143  0.2707  0.8030
  790MOL0     C 6530   3.150   9.477   1.278  0.0149  0.2343 -0.0365
  790MOL0     C 6531   3.203   9.596   1.186  0.8248 -0.5904  0.3782
  790MOL0     N 6532   3.270   9.695   1.275  0.4729 -0.3867 -0.5597
  790MOL0     C 6533   3.202   9.802   1.330  0.3244 -0.2536  0.3890
  790MOL0     C 6534   3.294   9.872   1.397  0.6090  0.8139  0.7523
  790MOL0     C 6535   3.276  10.012   1.457 -0.7028 -0.7738  0.2460
  790MOL0     C 6536   3.308  10.015   1.604 -0.5540  0.4974  0.3923
  790MOL0     C 6537   3.216   9.928   1.690 -0.6326 -0.2728  0.4516
  790MOL0     C 6538   3.257   9.928   1.840 -0.1043 -0.4835 -0.3173
  790MOL0     O 6539   3.402   9.906   1.851 -0.6073 -0.4006 -0.0697
  790MOL0     C 6540   3.458   9.899   1.978  0.8052  1.0543  0.2136
  790MOL0     C 6541   3.599   9.887   1.980  0.6961 -0.0919 -0.5111
  790MOL0     C 6542   3.668   9.888   2.104  0.1644  0.1738  0.2963
  790MOL0     C 6543   3.604   9.887   2.228  0.7130 -0.0660  0.0221
  790MOL0     C 6544   3.681   9.895   2.348  0.1668  1.0060 -0.3252
  790MOL0     O 6545   3.816   9.878   2.342  0.2965 -0.3664 -0.3121
  790MOL0     C 6546   3.901   9.871   2.458 -0.3192 -0.0126  0.2410
  790MOL0     C 6547   4.038   9.853   2.414  1.5901  0.8925 -0.4930
  790MOL0     C 6548   4.143   9.834   2.499  0.4878  1.0470 -0.3366
  790MOL0     C 6549   4.117   9.841   2.637 -0.0631  1.2756  0.5258
  790MOL0     O 6550   4.213   9.816   2.731  0.0932  0.1315  0.1696
  790MOL0     C 6551   4.250   9.934   2.807 -0.4202 -0.3762  0.4025
  790MOL0     C 6552   4.395   9.936   2.862 -0.1394 -0.0680 -0.2047
  790MOL0     C 6553   4.438  10.060   2.954 -0.2605 -0.6289 -0.5720
  790MOL0     C 6554   4.576  10.041   3.026 -0.0824  0.4915 -0.7128
  790MOL0     C 6555   4.695   9.975   2.951 -0.4664  0.2619  0.6538
  790MOL0     C 6556   4.735  10.052   2.836  0.4121 -0.5977  0.1329
  790MOL0     C 6557   4.862   9.999   2.762 -1.2774  1.0506 -0.2903
  790MOL0     C 6558   4.836   9.887   2.656  0.1462 -0.8149  0.0704
  790MOL0    Cl 6559   4.766   9.959   2.515  0.0700 -0.1147  0.3555
  790MOL0     C 6560   3.989   9.850   2.685  0.5410 -0.3523  0.0334
  790MOL0     C 6561   3.883   9.869   2.598 -0.6091  0.0793  0.2955
  790MOL0     O 6562   3.622   9.927   2.449 -0.1469 -0.1199  0.4657
  790MOL0     C 6563   3.464   9.897   2.222  0.2047 -0.5200 -0.4770
  790MOL0     C 6564   3.388   9.902   2.100 -0.1182 -0.1773  0.7936
  790MOL0     N 6565   3.422   9.821   1.360  0.6038  0.1092 -0.1730
  790MOL0     N 6566   3.404   9.712   1.298  0.2846 -0.0105  0.6843
  790MOL0     C 6567   2.234   9.360   1.026 -0.2952 -0.1285  0.3583
  790MOL0     C 6568   2.102   9.397   1.012  0.6569  0.5461  0.3894
  790MOL0     C 6569   1.773   9.670   1.005 -0.4779  0.7055 -0.0084
  790MOL0     C 6570   1.685   9.556   1.012 -0.1801  0.2965 -0.7292
  790MOL0     C 6571   1.547   9.584   1.019  0.7219 -0.0902 -0.0966
  790MOL0     C 6572   1.492   9.714   1.013 -0.3409  0.9529  0.6535
  790MOL0     O 6573   1.359   9.727   1.026  0.4018 -0.1583 -0.1012
  790MOL0     C 6574   1.299   9.863   1.025 -0.4122  0.6334  0.4295
  790MOL0     C 6575   1.152   9.863   1.018  0.2677 -0.6455  0.4554
  790MOL0     C 6576   1.105   9.783   0.895 -0.4875 -0.7209  0.1379
  790MOL0     C 6577   0.953   9.771   0.895  0.2399 -0.8597 -0.5272
  790MOL0     C 6578   0.906   9.678   0.797  0.7410 -0.1341  0.3578
  790MOL0     C 6579   0.854   9.588   0.725  0.3634  0.2425  0.3540
  790MOL0     C 6580   1.587   9.817   1.015 -0.2755 -0.9081 -0.3241
  790MOL0     C 6581   1.726   9.802   1.008  0.9869 -0.2985 -1.6313
  790MOL0     C 6582   1.819   9.924   1.001 -1.4122  0.2380  0.2796
  790MOL0     H 6583   2.094   9.488   0.687  0.6238 -0.9771 -0.2706
  790MOL0     H 6584   2.327   9.377   0.699  1.4378  1.3460  1.9226
  790MOL0     H 6585   2.476   9.303   1.114  0.1628  0.4308 -0.7970
  790MOL0     H 6586   2.447   9.154   1.006  0.4058  0.0807 -2.6957
  790MOL0     H 6587   2.672   9.177   0.902 -1.6705 -0.9345  0.2603
  790MOL0     H 6588   2.677   9.136   1.073  3.5006 -1.2724 -2.3490
  790MOL0     H 6589   2.710   9.387   1.127  1.3615 -1.7130  0.6335
  790MOL0     H 6590   2.742   9.397   0.951 -2.1404 -1.6543 -0.6740
  790MOL0     H 6591   2.896   9.222   1.155 -1.9437 -0.5657  0.9148
  790MOL0     H 6592   2.938   9.247   0.984 -1.1934  4.0309 -3.2417
  790MOL0     H 6593   3.004   9.451   1.015  0.0990 -1.5160 -0.3448
  790MOL0     H 6594   2.917   9.485   1.167  0.3487 -1.0918  0.2318
  790MOL0     H 6595   3.072   9.290   1.262  1.2563 -1.1317  0.0027
  790MOL0     H 6596   3.170   9.336   1.117 -1.4507  3.1101 -1.4269
  790MOL0     H 6597   3.233   9.430   1.330  0.5891  0.6332 -0.5695
  790MOL0     H 6598   3.067   9.501   1.345 -1.3773  0.3751 -1.7385
  790MOL0     H 6599   3.271   9.555   1.112 -3.2684 -0.4607 -3.9503
  790MOL0     H 6600   3.119   9.642   1.132 -1.8193 -1.2734  3.5335
  790MOL0     H 6601   3.095   9.822   1.327 -0.0544 -2.1732 -0.5540
  790MOL0     H 6602   3.341  10.079   1.401 -1.2866 -0.0706  0.3990
  790MOL0     H 6603   3.175  10.050   1.438 -0.7030 -1.8850 -2.5853
  790MOL0     H 6604   3.412   9.987   1.624 -1.1050 -1.5611  0.6468
  790MOL0     H 6605   3.293  10.120   1.631  0.0916  0.5131  0.6995
  790MOL0     H 6606   3.218   9.825   1.652 -2.1435  0.4789 -1.8837
  790MOL0     H 6607   3.116   9.971   1.676  0.7919  3.0341 -0.4899
  790MOL0     H 6608   3.205   9.841   1.880  0.0860  0.1892  1.4827
  790MOL0     H 6609   3.222  10.016   1.896  1.6489  1.1316 -1.6177
  790MOL0     H 6610   3.652   9.896   1.886  1.0693  1.7505 -0.1707
  790MOL0     H 6611   3.776   9.879   2.093  0.0166  0.5439 -2.0422
  790MOL0     H 6612   4.052   9.842   2.307 -0.5559  0.3506 -0.7716
  790MOL0     H 6613   4.242   9.816   2.460 -0.1808 -1.6344 -1.0003
  790MOL0     H 6614   4.246  10.025   2.747 -0.9568 -0.7427 -0.1230
  790MOL0     H 6615   4.186   9.950   2.894 -0.1909 -1.9366  0.8929
  790MOL0     H 6616   4.400   9.848   2.928  4.9434 -0.3079 -0.4725
  790MOL0     H 6617   4.461   9.923   2.776  0.0868 -3.1871  0.3010
  790MOL0     H 6618   4.448  10.152   2.895  0.4260 -0.0244  0.4491
  790MOL0     H 6619   4.361  10.077   3.030  0.1462 -3.0822  0.4758
  790MOL0     H 6620   4.554   9.969   3.106  1.6202 -0.9450 -1.4581
  790MOL0     H 6621   4.609  10.136   3.068  2.6333 -0.9826  0.7631
  790MOL0     H 6622   4.661   9.874   2.929  2.0292 -0.8255  1.4937
  790MOL0     H 6623   4.783   9.969   3.016  1.7071  0.5472 -2.0677
  790MOL0     H 6624   4.657  10.064   2.760  1.2341  1.5730 -0.4435
  790MOL0     H 6625   4.765  10.154   2.861 -0.2376 -0.4154  0.1973
  790MOL0     H 6626   4.939   9.955   2.826 -1.3047  0.5980 -0.5621
  790MOL0     H 6627   4.903  10.084   2.707  0.6996  0.1196 -0.3809
  790MOL0     H 6628   4.936   9.846   2.638 -0.5387 -3.1966  1.2205
  790MOL0     H 6629   4.786   9.795   2.688 -0.2849 -0.0528  1.6811
  790MOL0     H 6630   3.961   9.848   2.790  1.3112 -0.8676  0.2300
  790MOL0     H 6631   3.786   9.891   2.641  0.4513  0.2632  2.7671
  790MOL0     H 6632   3.408   9.900   2.315  0.9526  0.6109 -0.0544
  790MOL0     H 6633   3.280   9.912   2.098 -0.2353 -0.6582  2.5650
  790MOL0     H 6634   2.263   9.333   1.127  0.5061  1.0202  0.4509
  790MOL0     H 6635   2.030   9.392   1.094 -1.3938  1.1144 -1.2908
  790MOL0     H 6636   1.733   9.460   1.030  0.2296  0.5960 -0.2046
  790MOL0     H 6637   1.470   9.512   1.045 -0.4850  1.8746  2.1696
  790MOL0     H 6638   1.338   9.941   0.959 -1.9486  0.2120 -1.0305
  790MOL0     H 6639   1.322   9.897   1.127 -4.3080  0.1544  1.6212
  790MOL0     H 6640   1.113   9.964   1.003 -0.8346 -0.8573  1.6756
  790MOL0     H 6641   1.107   9.815   1.106 -0.5625  0.9539  0.9305
  790MOL0     H 6642   1.142   9.680   0.908  0.5255 -0.6714 -2.0106
  790MOL0     H 6643   1.150   9.816   0.801 -0.9805 -1.3915 -0.3470
  790MOL0     H 6644   0.924   9.727   0.990 -1.3736 -1.8090 -1.4202
  790MOL0     H 6645   0.914   9.873   0.880  1.5845 -0.2226  0.1079
  790MOL0     H 6646   0.810   9.500   0.683 -2.0905  0.0092  3.1128
  790MOL0     H 6647   1.552   9.920   1.017  0.4595 -0.6659  1.0329
  790MOL0     H 6648   1.885   9.937   1.087  0.4614  0.6428 -1.1583
  790MOL0     H 6649   1.880   9.905   0.912  0.5521  1.3383  1.3286
  790MOL0     H 6650   1.762  10.016   0.988 -0.4586  1.1546  2.2143
  791MOL0     O 6651   5.865   2.206   8.102 -0.5161 -0.5155  0.3738
  791MOL0     C 6652   5.801   2.273   8.186 -0.0386 -0.2836 -0.4056
  791MOL0     O 6653   5.860   2.335   8.297 -0.3088 -0.1740  0.3164
  791MOL0     C 6654   5.983   2.393   8.282  0.1908 -0.0397 -0.2043
  791MOL0     C 6655   6.084   2.308   8.316  0.0348 -1.1802  0.2437
  791MOL0     C 6656   6.218   2.361   8.305 -0.6678 -0.6753  0.1629
  791MOL0     C 6657   6.240   2.496   8.261 -0.4390  0.6559 -0.3060
  791MOL0     O 6658   6.371   2.533   8.234 -0.4113 -0.6365 -0.0710
  791MOL0     C 6659   6.411   2.671   8.189  0.5878 -0.3984  0.3277
  791MOL0     C 6660   6.557   2.681   8.145 -0.2380  0.2453  0.9354
  791MOL0     C 6661   6.578   2.602   8.009 -0.6815  0.3292 -0.1432
  791MOL0     C 6662   6.701   2.659   7.933  0.3715  0.2855 -0.1432
  791MOL0     C 6663   6.748   2.554   7.833 -0.3652 -0.4008  0.4322
  791MOL0     C 6664   6.634   2.484   7.749  0.5466  0.2000  0.1718
  791MOL0     C 6665   6.684   2.404   7.627 -1.0025  0.5222  0.0168
  791MOL0     C 6666   6.572   2.373   7.526  0.1455  0.1520 -0.5088
  791MOL0     N 6667   6.627   2.334   7.401 -0.0000  0.2552 -0.0683
  791MOL0     C 6668   6.687   2.213   7.368  0.2955 -0.2995 -0.1723
  791MOL0     C 6669   6.711   2.209   7.231 -0.1241 -0.2787  0.3311
  791MOL0     C 6670   6.768   2.110   7.136 -0.3215  0.7100  0.1807
  791MOL0     C 6671   6.915   2.135   7.110  0.1294  0.0111 -0.1149
  791MOL0     C 6672   6.940   2.253   7.015 -0.0658  0.6430  0.5964
  791MOL0     C 6673   7.092   2.258   6.980 -0.0185 -1.2364  0.3862
  791MOL0     O 6674   7.109   2.160   6.886  0.2150 -0.1441 -0.6383
  791MOL0     C 6675   7.239   2.132   6.848 -0.0073 -0.2703  0.7782
  791MOL0     C 6676   7.348   2.136   6.935 -0.1544  1.1180  0.3300
  791MOL0     C 6677   7.467   2.089   6.902 -0.1398 -0.4791 -0.6178
  791MOL0     C 6678   7.500   2.031   6.783 -0.2114  0.4821 -0.0673
  791MOL0     C 6679   7.631   1.971   6.770 -0.2101  0.1186 -0.4950
  791MOL0     O 6680   7.728   2.006   6.868  0.1234 -0.0829  0.8720
  791MOL0     C 6681   7.849   1.951   6.872 -0.4641  0.2437 -0.4228
  791MOL0     C 6682   7.920   1.885   6.768 -0.4270  0.3478  0.2321
  791MOL0     C 6683   8.046   1.831   6.791 -0.4866  1.3018 -1.1973
  791MOL0     C 6684   8.112   1.840   6.910 -0.0738  0.4077 -0.3863
  791MOL0     O 6685   8.240   1.793   6.927  0.5029 -0.1727  0.1621
  791MOL0     C 6686   8.323   1.838   7.030 -0.5568 -1.2021 -1.1129
  791MOL0     C 6687   8.464   1.777   7.026 -0.1261 -0.7045  0.4942
  791MOL0     C 6688   8.542   1.856   6.917 -0.1590 -0.3003  0.0066
  791MOL0     C 6689   8.700   1.826   6.934  0.0763  0.1807  0.2922
  791MOL0     C 6690   8.788   1.880   6.824 -0.1455  0.3120  0.0569
  791MOL0     C 6691   8.934   1.832   6.831 -0.2115  0.0172 -0.2700
  791MOL0     C 6692   8.989   1.833   6.966 -0.0505  0.2663 -0.2102
  791MOL0     C 6693   9.140   1.816   6.965  0.3298 -0.1657  0.6554
  791MOL0    Cl 6694   9.193   1.775   7.126  0.2118  0.0079  0.0451
  791MOL0     C 6695   8.039   1.896   7.014 -0.2633 -0.4744 -0.2987
  791MOL0     C 6696   7.908   1.949   6.998  0.8764 -0.6180  0.7005
  791MOL0     O 6697   7.650   1.888   6.682  1.0170 -0.3634  0.2607
  791MOL0     C 6698   7.388   2.021   6.692 -0.2732  0.2299  0.1664
  791MOL0     C 6699   7.264   2.068   6.718  0.3012  0.4702  0.2397
  791MOL0     N 6700   6.647   2.322   7.184 -0.0476  0.5443  0.3426
  791MOL0     N 6701   6.592   2.395   7.275 -0.9015  0.2901 -0.7474
  791MOL0     C 6702   6.133   2.587   8.249 -0.6935  0.2026  0.7184
  791MOL0     C 6703   6.006   2.532   8.249  0.6587  0.8001  0.8682
  791MOL0     C 6704   5.651   2.286   8.171  0.1110  0.8744 -0.2922
  791MOL0     C 6705   5.582   2.180   8.104 -0.1009  0.1888  0.3589
  791MOL0     C 6706   5.445   2.171   8.104  0.8841 -0.5450 -0.7964
  791MOL0     C 6707   5.363   2.262   8.183 -0.2620 -0.3792 -0.1738
  791MOL0     O 6708   5.220   2.260   8.195  0.0661  0.4975 -0.3262
  791MOL0     C 6709   5.126   2.168   8.133  0.4694 -0.3141 -0.4623
  791MOL0     C 6710   4.986   2.217   8.164 -0.6531 -0.1769 -0.0491
  791MOL0     C 6711   4.877   2.121   8.126 -0.1330 -0.2468 -0.2967
  791MOL0     C 6712   4.896   1.973   8.161 -0.4136  0.1777 -0.3246
  791MOL0     C 6713   4.933   1.943   8.303  1.4324 -0.3398 -0.5280
  791MOL0     C 6714   4.965   1.943   8.425 -0.3778  0.3286 -0.3971
  791MOL0     C 6715   5.435   2.376   8.240 -0.4408 -0.3191 -0.3980
  791MOL0     C 6716   5.574   2.386   8.239  0.3285 -0.1123  0.0570
  791MOL0     C 6717   5.638   2.515   8.288 -0.4150  0.1310  0.4992
  791MOL0     H 6718   6.057   2.205   8.338 -0.3961 -1.4931 -1.5809
  791MOL0     H 6719   6.304   2.296   8.314 -0.2787 -0.3951 -1.2950
  791MOL0     H 6720   6.347   2.691   8.102 -1.0007 -2.0147  1.0547
  791MOL0     H 6721   6.389   2.747   8.264  1.1047 -1.8200  2.0033
  791MOL0     H 6722   6.621   2.634   8.220 -2.2363 -3.0389  0.7672
  791MOL0     H 6723   6.588   2.786   8.138 -1.5229  0.5305 -1.2379
  791MOL0     H 6724   6.496   2.603   7.936 -0.6925 -2.9601 -0.3398
  791MOL0     H 6725   6.601   2.498   8.031  2.5287  0.8223 -0.6434
  791MOL0     H 6726   6.675   2.754   7.885 -1.4558 -0.0798  0.0357
  791MOL0     H 6727   6.780   2.674   8.007 -0.3995 -0.9121  0.9741
  791MOL0     H 6728   6.820   2.587   7.757 -2.1621  0.0886 -1.1398
  791MOL0     H 6729   6.796   2.480   7.899  1.4366  1.1079  0.9018
  791MOL0     H 6730   6.576   2.425   7.822  0.3017  1.8400  1.3687
  791MOL0     H 6731   6.563   2.557   7.710 -0.9720  0.1536  2.6079
  791MOL0     H 6732   6.718   2.304   7.657 -1.9265 -0.2523 -1.4268
  791MOL0     H 6733   6.760   2.462   7.574 -1.3534  0.0193 -1.0649
  791MOL0     H 6734   6.513   2.293   7.572  1.5734  0.2813  1.7269
  791MOL0     H 6735   6.502   2.457   7.524 -1.1043 -0.6508  2.5180
  791MOL0     H 6736   6.729   2.147   7.444  1.5227  2.5365  1.7951
  791MOL0     H 6737   6.749   2.013   7.184  2.3137 -0.3172 -0.6837
  791MOL0     H 6738   6.721   2.097   7.038 -0.1635  0.1776  0.1698
  791MOL0     H 6739   6.959   2.160   7.207 -2.4950 -1.8410  1.7052
  791MOL0     H 6740   6.961   2.044   7.069 -0.8162  0.4697 -2.3214
  791MOL0     H 6741   6.923   2.346   7.071 -2.8374  2.7491 -3.2709
  791MOL0     H 6742   6.874   2.256   6.928  1.9560 -0.1208 -1.0394
  791MOL0     H 6743   7.150   2.253   7.072 -0.4093 -0.4879  0.6837
  791MOL0     H 6744   7.120   2.357   6.943  0.7904 -1.5461  0.1411
  791MOL0     H 6745   7.339   2.155   7.041 -4.2486  0.3039  0.2735
  791MOL0     H 6746   7.544   2.124   6.971  0.5974 -0.4336 -1.4518
  791MOL0     H 6747   7.881   1.880   6.667  0.2539 -3.2596  0.0399
  791MOL0     H 6748   8.085   1.778   6.705 -4.1679  1.5231 -3.2301
  791MOL0     H 6749   8.336   1.947   7.028 -0.6506 -1.1838 -3.2938
  791MOL0     H 6750   8.278   1.812   7.126  2.0224 -1.1756  0.1920
  791MOL0     H 6751   8.513   1.801   7.121 -1.2093  2.6319  0.3184
  791MOL0     H 6752   8.461   1.669   7.011  3.2666 -1.0272  1.2664
  791MOL0     H 6753   8.514   1.826   6.816 -0.6754 -0.7680  0.2824
  791MOL0     H 6754   8.520   1.962   6.933  1.9026 -0.1831  2.9835
  791MOL0     H 6755   8.713   1.718   6.929 -1.5861 -0.0415  0.0063
  791MOL0     H 6756   8.739   1.871   7.025 -1.2155  0.4404  0.7443
  791MOL0     H 6757   8.785   1.989   6.814 -1.6761  0.2414 -0.5958
  791MOL0     H 6758   8.747   1.842   6.729 -1.5889  0.9880  0.3852
  791MOL0     H 6759   8.945   1.737   6.777 -2.8366  1.9138 -4.6690
  791MOL0     H 6760   8.988   1.909   6.775 -1.4914  1.5573  0.5344
  791MOL0     H 6761   8.950   1.742   7.011  1.8494 -0.0240  0.9853
  791MOL0     H 6762   8.968   1.926   7.020 -0.0687  1.9802 -2.9777
  791MOL0     H 6763   9.164   1.735   6.895 -2.6098  0.9593 -1.9467
  791MOL0     H 6764   9.185   1.907   6.925 -2.2089 -0.3604 -3.3007
  791MOL0     H 6765   8.079   1.892   7.115  2.6889 -0.7276 -1.3858
  791MOL0     H 6766   7.865   1.979   7.093 -1.1340 -0.6033 -0.1552
  791MOL0     H 6767   7.412   1.984   6.593 -0.1339  0.6405  0.0458
  791MOL0     H 6768   7.191   2.063   6.638 -3.2396  0.1175  3.2142
  791MOL0     H 6769   6.147   2.692   8.224 -0.9530 -0.0236 -0.4518
  791MOL0     H 6770   5.921   2.593   8.218  0.2145 -1.1129 -2.1312
  791MOL0     H 6771   5.641   2.096   8.068 -0.4378  0.1958 -0.2083
  791MOL0     H 6772   5.389   2.093   8.055 -1.4544  1.1891 -1.0864
  791MOL0     H 6773   5.145   2.069   8.176  1.1585  0.3393  0.7952
  791MOL0     H 6774   5.144   2.181   8.026  0.7934  1.5004 -0.2158
  791MOL0     H 6775   4.972   2.301   8.097 -1.4763  0.9511  1.4707
  791MOL0     H 6776   4.986   2.252   8.268  0.9674  0.0568 -0.1021
  791MOL0     H 6777   4.847   2.133   8.022 -0.0579  0.3297 -0.2581
  791MOL0     H 6778   4.792   2.146   8.191  0.2848 -1.9252  0.9842
  791MOL0     H 6779   4.801   1.922   8.144 -0.2886 -2.3894  4.8549
  791MOL0     H 6780   4.981   1.938   8.101  0.3553 -0.2246  0.9526
  791MOL0     H 6781   5.016   1.953   8.519  1.0194 -0.7470 -1.0029
  791MOL0     H 6782   5.381   2.468   8.263  2.3567  1.0314  1.2816
  791MOL0     H 6783   5.559   2.590   8.296  0.1563  0.6393  1.4513
  791MOL0     H 6784   5.669   2.492   8.390 -1.8284 -0.6095  0.7903
  791MOL0     H 6785   5.721   2.546   8.224 -0.6779  1.2241  0.6638
  792MOL0     O 6786   6.258   5.978   3.225 -0.0955 -0.0858 -0.0850
  792MOL0     C 6787   6.162   5.907   3.217  0.8165 -0.7858 -0.0568
  792MOL0     O 6788   6.160   5.772   3.215  0.6312  0.2822  0.5307
  792MOL0     C 6789   6.282   5.711   3.238  1.1757  1.3973 -0.7320
  792MOL0     C 6790   6.286   5.601   3.323 -0.1231  1.1554  0.0843
  792MOL0     C 6791   6.408   5.535   3.339 -0.7012  0.7433  0.3349
  792MOL0     C 6792   6.523   5.563   3.258 -0.0412 -0.6054  0.8812
  792MOL0     O 6793   6.638   5.493   3.275 -0.8021 -0.1409 -0.1764
  792MOL0     C 6794   6.739   5.548   3.367  0.1900  0.4327  0.1993
  792MOL0     C 6795   6.863   5.453   3.375  0.5661  0.3237 -0.1262
  792MOL0     C 6796   6.956   5.468   3.255 -0.2614 -0.6474  0.5354
  792MOL0     C 6797   7.064   5.361   3.228  0.6772  0.6764  0.4571
  792MOL0     C 6798   7.167   5.342   3.324  0.1522  1.1643 -0.2793
  792MOL0     C 6799   7.254   5.464   3.370 -0.0133 -0.2286  0.6629
  792MOL0     C 6800   7.306   5.425   3.510 -0.0145  0.2425 -0.1000
  792MOL0     C 6801   7.410   5.524   3.557  0.1711 -0.2146 -1.1011
  792MOL0     N 6802   7.544   5.506   3.497  0.0447 -0.3699  0.0643
  792MOL0     C 6803   7.577   5.550   3.371  0.5573  0.5099 -0.3799
  792MOL0     C 6804   7.688   5.470   3.346  0.3545  0.4183  0.3097
  792MOL0     C 6805   7.770   5.490   3.223  0.5860 -0.3332 -0.1210
  792MOL0     C 6806   7.863   5.620   3.245 -0.3637 -0.4555 -1.2082
  792MOL0     C 6807   7.999   5.600   3.320  0.7691  1.2694 -0.0785
  792MOL0     C 6808   8.116   5.545   3.231  0.8363 -0.3039  0.3847
  792MOL0     O 6809   8.164   5.646   3.133  0.1275 -0.3101 -0.0824
  792MOL0     C 6810   8.247   5.748   3.161  0.1282  0.7882  0.7703
  792MOL0     C 6811   8.299   5.784   3.285 -0.1217  0.0427 -0.5655
  792MOL0     C 6812   8.411   5.865   3.286 -0.0476 -0.3366  0.9015
  792MOL0     C 6813   8.464   5.928   3.174  0.5625  0.1661 -0.8822
  792MOL0     C 6814   8.594   5.997   3.180 -0.0307  0.4274 -0.0661
  792MOL0     O 6815   8.667   5.965   3.075  0.4342  0.5074  0.1695
  792MOL0     C 6816   8.805   5.980   3.070  0.8548  0.6637 -0.7223
  792MOL0     C 6817   8.851   6.106   3.070 -0.1069 -0.6140  0.5065
  792MOL0     C 6818   8.992   6.122   3.064 -0.6336  0.6777  0.3526
  792MOL0     C 6819   9.081   6.009   3.089 -0.1170  0.4742  0.7651
  792MOL0     O 6820   9.216   6.025   3.090  0.0266  0.0622  0.3799
  792MOL0     C 6821   9.279   6.153   3.121  0.2620  0.3197  0.2808
  792MOL0     C 6822   9.430   6.154   3.089  0.5652 -0.7553 -0.0955
  792MOL0     C 6823   9.445   6.139   2.932  0.3683 -0.5520 -0.4544
  792MOL0     C 6824   9.588   6.167   2.889 -0.5149  0.3208 -0.3395
  792MOL0     C 6825   9.615   6.141   2.742 -0.1676 -0.1212  0.0550
  792MOL0     C 6826   9.761   6.161   2.710  0.2448  1.0496 -0.2284
  792MOL0     C 6827   9.800   6.309   2.669 -0.2251 -0.2176 -0.0340
  792MOL0     C 6828   9.959   6.311   2.648  0.3346 -0.8456 -0.0060
  792MOL0    Cl 6829  10.014   6.171   2.550 -0.3330 -0.0858 -0.0207
  792MOL0     C 6830   9.027   5.883   3.080 -0.1868  0.5630 -0.6755
  792MOL0     C 6831   8.887   5.871   3.086 -0.2623  1.0597 -0.3747
  792MOL0     O 6832   8.636   6.034   3.284  0.3184  0.8646 -0.0908
  792MOL0     C 6833   8.403   5.887   3.051 -0.9057 -0.3953 -0.5002
  792MOL0     C 6834   8.292   5.802   3.045  0.2301  0.1466  0.4569
  792MOL0     N 6835   7.726   5.398   3.455  0.5676  0.5596  0.4831
  792MOL0     N 6836   7.636   5.422   3.549  0.2278  0.6845 -0.4361
  792MOL0     C 6837   6.513   5.664   3.164  0.0663  0.8321  0.0948
  792MOL0     C 6838   6.398   5.733   3.157  0.3876  0.1023 -0.1495
  792MOL0     C 6839   6.034   5.979   3.202  0.2422  0.7858  0.2682
  792MOL0     C 6840   5.922   5.899   3.161 -0.0049  0.2381 -0.0036
  792MOL0     C 6841   5.796   5.958   3.127  0.1923  0.5642 -0.4830
  792MOL0     C 6842   5.773   6.097   3.158 -0.8517 -0.0961  0.8871
  792MOL0     O 6843   5.650   6.153   3.125 -0.0256  0.1678  0.1306
  792MOL0     C 6844   5.624   6.298   3.138 -0.4173 -0.4306 -0.0944
  792MOL0     C 6845   5.479   6.334   3.137  0.6263  0.6515 -0.2792
  792MOL0     C 6846   5.453   6.476   3.152 -0.1915 -0.6825  0.3501
  792MOL0     C 6847   5.494   6.540   3.016 -0.3945  1.0521 -0.2514
  792MOL0     C 6848   5.462   6.679   3.013 -0.5600 -0.5254  0.4405
  792MOL0     C 6849   5.467   6.797   3.023  0.6217 -0.2687 -0.4349
  792MOL0     C 6850   5.884   6.172   3.206 -0.5038  0.2415 -0.2250
  792MOL0     C 6851   6.017   6.120   3.230  0.2051  0.2343 -0.2673
  792MOL0     C 6852   6.124   6.216   3.291  0.5258  0.6994  0.4899
  792MOL0     H 6853   6.205   5.573   3.390  4.2175 -2.3829  4.6684
  792MOL0     H 6854   6.428   5.459   3.414 -3.0018 -1.7726 -1.4146
  792MOL0     H 6855   6.771   5.644   3.328  1.3791 -1.1367 -3.0549
  792MOL0     H 6856   6.698   5.554   3.469 -3.7372 -1.2176 -1.0764
  792MOL0     H 6857   6.839   5.346   3.376 -1.3646  0.7229  1.2162
  792MOL0     H 6858   6.915   5.473   3.469 -1.1464 -0.6355  1.0893
  792MOL0     H 6859   7.007   5.565   3.262  0.1584 -0.7164 -1.2342
  792MOL0     H 6860   6.898   5.472   3.163  2.7358 -1.0575 -1.5012
  792MOL0     H 6861   7.004   5.270   3.215 -2.6553  2.6497  0.6505
  792MOL0     H 6862   7.119   5.397   3.141  2.6826  3.8453  2.8198
  792MOL0     H 6863   7.114   5.295   3.408 -0.5731  0.3211 -1.1948
  792MOL0     H 6864   7.240   5.268   3.290  0.5167  1.4474 -0.1186
  792MOL0     H 6865   7.333   5.468   3.295 -0.0336  1.2072  0.6943
  792MOL0     H 6866   7.188   5.551   3.373 -0.2708 -0.1681 -2.9550
  792MOL0     H 6867   7.341   5.321   3.507  1.9303  0.8041  1.0224
  792MOL0     H 6868   7.220   5.427   3.576  0.9577 -0.9898  1.2663
  792MOL0     H 6869   7.373   5.627   3.552  1.2174  0.3600  1.5908
  792MOL0     H 6870   7.422   5.512   3.665 -2.0220  1.1061 -0.6557
  792MOL0     H 6871   7.522   5.606   3.296 -2.5738 -2.2846 -0.3879
  792MOL0     H 6872   7.837   5.406   3.201  0.0459 -1.1634  1.2441
  792MOL0     H 6873   7.701   5.508   3.141  1.6387  3.6327 -0.3274
  792MOL0     H 6874   7.888   5.645   3.141  0.9762  1.5678 -0.4617
  792MOL0     H 6875   7.806   5.700   3.293  1.8227 -0.7705  2.2680
  792MOL0     H 6876   7.982   5.525   3.397 -1.2014  0.4903 -1.1890
  792MOL0     H 6877   8.026   5.693   3.370 -0.3846  1.3395  0.4562
  792MOL0     H 6878   8.094   5.457   3.170 -1.2680  0.6541 -0.3352
  792MOL0     H 6879   8.195   5.511   3.299 -0.1108  0.5010  1.9405
  792MOL0     H 6880   8.263   5.726   3.369 -1.2953  0.5559 -0.6860
  792MOL0     H 6881   8.458   5.888   3.381  2.9701  4.3308 -1.3466
  792MOL0     H 6882   8.786   6.193   3.058  3.6122  2.1951 -1.4472
  792MOL0     H 6883   9.033   6.222   3.050 -2.9343  1.3211 -3.1149
  792MOL0     H 6884   9.232   6.236   3.069 -0.3795 -0.6271 -0.6983
  792MOL0     H 6885   9.277   6.169   3.229  0.4322  1.8932  0.0660
  792MOL0     H 6886   9.474   6.250   3.119  1.9587 -1.5580  0.5444
  792MOL0     H 6887   9.483   6.087   3.158 -0.8095  0.4447  2.2925
  792MOL0     H 6888   9.397   6.051   2.889 -1.0764 -0.5684  1.0670
  792MOL0     H 6889   9.379   6.211   2.885 -1.9927 -0.8203  2.1625
  792MOL0     H 6890   9.662   6.106   2.942 -2.4039 -0.0123  2.0261
  792MOL0     H 6891   9.599   6.270   2.923 -0.7212  0.8674 -1.8164
  792MOL0     H 6892   9.550   6.207   2.685 -1.7149 -3.6079 -2.6077
  792MOL0     H 6893   9.587   6.036   2.727  0.3868 -0.3593  0.6093
  792MOL0     H 6894   9.826   6.126   2.791 -2.1052  0.1841  1.3858
  792MOL0     H 6895   9.774   6.085   2.632 -1.9708 -0.1018  0.4314
  792MOL0     H 6896   9.763   6.382   2.741  0.2670  0.5259 -0.5128
  792MOL0     H 6897   9.765   6.325   2.566  0.7002 -4.8154 -1.2808
  792MOL0     H 6898   9.990   6.408   2.607  0.9435 -1.9967 -2.4830
  792MOL0     H 6899  10.001   6.315   2.748 -0.0200  0.2605  0.1218
  792MOL0     H 6900   9.104   5.806   3.073  0.5789  1.4365 -2.9982
  792MOL0     H 6901   8.851   5.769   3.083  0.5618  0.7129  0.9252
  792MOL0     H 6902   8.442   5.925   2.957  1.8633 -1.2275  0.2131
  792MOL0     H 6903   8.262   5.765   2.948  1.5701 -0.3219  0.2033
  792MOL0     H 6904   6.578   5.666   3.077 -1.4798 -3.7594 -1.4770
  792MOL0     H 6905   6.383   5.814   3.087 -2.7738 -0.7149 -0.5704
  792MOL0     H 6906   5.925   5.791   3.146 -0.5049  0.0727  1.0079
  792MOL0     H 6907   5.720   5.901   3.075 -0.8634  1.9332 -0.4855
  792MOL0     H 6908   5.676   6.351   3.057 -1.2057 -1.8870 -1.5977
  792MOL0     H 6909   5.664   6.330   3.235  1.0841 -0.0396 -0.8102
  792MOL0     H 6910   5.441   6.280   3.224  2.3882 -1.7508 -0.8800
  792MOL0     H 6911   5.430   6.290   3.050 -0.6645 -1.0096  1.2168
  792MOL0     H 6912   5.515   6.519   3.231 -2.7581  0.0799  2.0803
  792MOL0     H 6913   5.347   6.490   3.176  0.2356  2.2190  0.9582
  792MOL0     H 6914   5.600   6.525   2.995 -0.8011  0.2520 -1.9428
  792MOL0     H 6915   5.438   6.492   2.934 -3.7930  2.1572  1.2179
  792MOL0     H 6916   5.472   6.903   3.038  1.1097 -0.4327  0.6726
  792MOL0     H 6917   5.881   6.278   3.232  1.5606 -0.0664  1.6240
  792MOL0     H 6918   6.208   6.232   3.223 -1.0486  2.2747 -1.2106
  792MOL0     H 6919   6.083   6.315   3.310  0.8132  1.1013 -0.8613
  792MOL0     H 6920   6.166   6.169   3.380 -0.4840  0.5183  0.8882
  793MOL0     O 6921   9.699   1.830   1.700  0.5637  0.5919  0.1612
  793MOL0     C 6922   9.674   1.944   1.662 -0.0438  0.3768 -0.6896
  793MOL0     O 6923   9.770   2.033   1.631  0.4998  0.4957 -0.0951
  793MOL0     C 6924   9.902   1.997   1.629 -0.9791 -0.4575 -0.3026
  793MOL0     C 6925   9.995   2.081   1.689  0.1119 -0.1678  0.4476
  793MOL0     C 6926  10.130   2.062   1.677  0.6249  0.6457 -0.3166
  793MOL0     C 6927  10.176   1.955   1.602  0.0602 -0.2341 -0.8143
  793MOL0     O 6928  10.313   1.954   1.583  0.2958 -0.0279  0.1855
  793MOL0     C 6929  10.359   1.873   1.480  0.2298 -0.0481 -0.0873
  793MOL0     C 6930  10.508   1.906   1.457  0.1814  0.1996  0.2863
  793MOL0     C 6931  10.553   2.044   1.407  0.5920 -0.0153  0.2854
  793MOL0     C 6932  10.703   2.077   1.413 -0.1851 -0.0482  0.5163
  793MOL0     C 6933  10.743   2.216   1.355 -0.4987 -0.0478  0.2581
  793MOL0     C 6934  10.890   2.212   1.319  0.6361  0.0295 -1.0577
  793MOL0     C 6935  10.938   2.324   1.227 -0.8636  0.3342  0.4006
  793MOL0     C 6936  10.913   2.462   1.278 -0.9051 -0.1908  0.3785
  793MOL0     N 6937  10.977   2.571   1.193  0.0238 -1.0012 -0.0593
  793MOL0     C 6938  11.021   2.689   1.245  0.5843 -0.2265 -0.1512
  793MOL0     C 6939  11.100   2.748   1.152  0.2264 -0.0920  0.2563
  793MOL0     C 6940  11.183   2.874   1.148  0.2329  0.4744  0.7731
  793MOL0     C 6941  11.326   2.852   1.198 -0.0980  0.4795 -0.3695
  793MOL0     C 6942  11.412   2.978   1.181  0.8231  0.3319  0.0580
  793MOL0     C 6943  11.558   2.948   1.205 -0.0365  0.3332  0.3474
  793MOL0     O 6944  11.638   3.059   1.163 -0.5532  0.1586  0.5441
  793MOL0     C 6945  11.772   3.038   1.150  0.4545 -0.0025  0.9356
  793MOL0     C 6946  11.836   2.933   1.224  0.1417  0.8877  0.3743
  793MOL0     C 6947  11.977   2.929   1.214  0.4586 -0.1348  0.0210
  793MOL0     C 6948  12.041   3.012   1.122 -0.1301  0.3694  0.2855
  793MOL0     C 6949  12.184   3.001   1.102 -0.4079 -0.3797 -0.3399
  793MOL0     O 6950  12.243   3.067   0.998  0.3857 -0.1279 -0.2933
  793MOL0     C 6951  12.376   3.046   0.972  0.5753 -0.9208  0.3692
  793MOL0     C 6952  12.433   3.167   0.914  0.6261  0.9987 -0.5675
  793MOL0     C 6953  12.569   3.163   0.886  0.2795  0.4786 -0.5958
  793MOL0     C 6954  12.650   3.048   0.908  0.1979 -0.8256 -0.7707
  793MOL0     O 6955  12.781   3.036   0.866  0.0441 -0.0218  0.9159
  793MOL0     C 6956  12.823   3.093   0.739  0.0822 -0.2033  0.1120
  793MOL0     C 6957  12.965   3.045   0.718  1.0127  0.5234  0.3317
  793MOL0     C 6958  12.994   3.089   0.571 -0.2409  0.8648  0.3503
  793MOL0     C 6959  13.145   3.052   0.542  0.4224 -0.2582  0.3588
  793MOL0     C 6960  13.190   3.141   0.415 -0.6316  0.0050 -0.1744
  793MOL0     C 6961  13.303   3.077   0.349 -0.3448  0.3711 -0.4028
  793MOL0     C 6962  13.441   3.092   0.429  0.3702  0.3275 -0.4814
  793MOL0     C 6963  13.539   2.987   0.386 -0.7284  0.6967  0.1033
  793MOL0    Cl 6964  13.493   2.824   0.458  0.7027 -0.7212 -0.2027
  793MOL0     C 6965  12.592   2.932   0.972  0.2989 -0.2385 -0.3746
  793MOL0     C 6966  12.451   2.930   0.992  0.1080 -0.1189 -0.0555
  793MOL0     O 6967  12.249   2.954   1.200 -0.0732  1.2990 -0.3541
  793MOL0     C 6968  11.974   3.117   1.053  0.2294  0.2814 -0.3958
  793MOL0     C 6969  11.835   3.122   1.069 -0.2723 -0.9968 -0.2930
  793MOL0     N 6970  11.108   2.656   1.043 -0.2078  0.0345 -0.5866
  793MOL0     N 6971  11.024   2.557   1.067 -0.6761 -0.1315 -0.0663
  793MOL0     C 6972  10.082   1.874   1.541  0.1230  0.3117 -0.3928
  793MOL0     C 6973   9.951   1.896   1.555  0.4576 -0.1026  0.0763
  793MOL0     C 6974   9.533   1.983   1.659 -0.1119 -0.4070  0.6048
  793MOL0     C 6975   9.501   2.106   1.585 -0.6159 -0.0172  0.0492
  793MOL0     C 6976   9.370   2.144   1.577  0.9192 -0.6736 -0.2745
  793MOL0     C 6977   9.263   2.069   1.629  1.0901  0.3394 -0.9794
  793MOL0     O 6978   9.134   2.117   1.613 -0.0458 -0.2721  0.0995
  793MOL0     C 6979   9.045   2.081   1.713  0.1685 -0.8341 -0.1533
  793MOL0     C 6980   8.913   2.147   1.669  0.0767  0.3584  0.4818
  793MOL0     C 6981   8.906   2.300   1.635  0.3250  0.8783  0.1228
  793MOL0     C 6982   8.763   2.351   1.613 -1.3447 -0.1154 -0.5723
  793MOL0     C 6983   8.692   2.269   1.514 -0.1173  0.1052 -0.5343
  793MOL0     C 6984   8.641   2.190   1.435 -0.1392 -0.3035 -0.1652
  793MOL0     C 6985   9.297   1.951   1.696 -0.2581 -0.3908 -0.2365
  793MOL0     C 6986   9.427   1.905   1.704  0.4219 -0.6222 -0.3428
  793MOL0     C 6987   9.440   1.763   1.771 -0.1506 -0.4651 -0.2477
  793MOL0     H 6988   9.957   2.167   1.743 -0.7055 -0.9387  1.1229
  793MOL0     H 6989  10.204   2.120   1.731 -1.2037 -0.5468  3.8315
  793MOL0     H 6990  10.343   1.768   1.506 -0.6731  0.6654  2.5883
  793MOL0     H 6991  10.309   1.888   1.385 -1.0788 -2.0126  0.2372
  793MOL0     H 6992  10.554   1.828   1.395  1.8470 -0.5973  2.4165
  793MOL0     H 6993  10.555   1.897   1.555  0.5599  1.9301  0.2926
  793MOL0     H 6994  10.507   2.120   1.470  0.1857  0.6021 -0.7374
  793MOL0     H 6995  10.506   2.057   1.309 -1.7157 -2.0628  0.9929
  793MOL0     H 6996  10.743   2.072   1.515  0.2714 -5.2592  0.3479
  793MOL0     H 6997  10.764   2.012   1.349 -1.0520  2.7643 -3.4885
  793MOL0     H 6998  10.677   2.230   1.269 -1.3647 -4.0123  0.0841
  793MOL0     H 6999  10.737   2.281   1.443 -0.5526 -1.2115  1.1525
  793MOL0     H 7000  10.939   2.217   1.417  0.3516 -4.1148 -0.5351
  793MOL0     H 7001  10.910   2.113   1.276 -1.5619 -1.0338  0.2004
  793MOL0     H 7002  10.892   2.309   1.128  0.0286 -1.9007  0.2724
  793MOL0     H 7003  11.041   2.310   1.195 -0.4864 -1.1918  2.1322
  793MOL0     H 7004  10.807   2.486   1.286 -1.0628 -0.2574 -1.2401
  793MOL0     H 7005  10.953   2.466   1.380  1.6278  0.7395 -0.5808
  793MOL0     H 7006  11.001   2.736   1.341  0.1886 -0.4376 -0.1295
  793MOL0     H 7007  11.186   2.934   1.056 -0.2319  2.7298  2.1500
  793MOL0     H 7008  11.141   2.936   1.228  1.7374 -0.9870  2.8034
  793MOL0     H 7009  11.335   2.825   1.303  1.7138 -0.5362 -0.7501
  793MOL0     H 7010  11.365   2.774   1.133 -3.0634 -0.1270 -1.5937
  793MOL0     H 7011  11.364   3.059   1.237 -4.0394 -0.9251 -1.8378
  793MOL0     H 7012  11.409   3.014   1.077 -0.7566 -2.2853 -0.8902
  793MOL0     H 7013  11.584   2.856   1.152  0.6032  0.3801  0.5724
  793MOL0     H 7014  11.571   2.921   1.310  3.0440 -1.6007 -0.3984
  793MOL0     H 7015  11.784   2.860   1.287  1.6988 -0.7990 -0.2003
  793MOL0     H 7016  12.033   2.855   1.270 -0.8282  0.4326  2.1659
  793MOL0     H 7017  12.394   3.267   0.897 -3.7102  0.0181  2.0346
  793MOL0     H 7018  12.617   3.257   0.859  1.1683  0.4935  0.9202
  793MOL0     H 7019  12.759   3.057   0.659 -0.3943  3.1864 -1.2088
  793MOL0     H 7020  12.816   3.202   0.734  3.0575  0.0267 -1.6653
  793MOL0     H 7021  13.032   3.087   0.794  1.1256 -0.3436  0.7285
  793MOL0     H 7022  12.982   2.937   0.727 -1.7537 -0.1031 -0.9983
  793MOL0     H 7023  12.932   3.052   0.490  0.1028  1.7121 -0.3145
  793MOL0     H 7024  12.989   3.198   0.560  0.6262  0.8007 -0.8959
  793MOL0     H 7025  13.150   2.948   0.508 -0.2848  0.8412 -3.6358
  793MOL0     H 7026  13.203   3.090   0.627 -2.2077  0.0243  2.1078
  793MOL0     H 7027  13.209   3.244   0.448  0.9316 -0.8088  1.6867
  793MOL0     H 7028  13.110   3.144   0.341  0.4756 -1.5537 -1.4907
  793MOL0     H 7029  13.277   2.973   0.324 -0.1554  0.7666 -2.4028
  793MOL0     H 7030  13.326   3.126   0.254 -0.9966  3.2600  0.8480
  793MOL0     H 7031  13.425   3.081   0.537  2.4137 -1.6961 -0.3055
  793MOL0     H 7032  13.486   3.190   0.411 -0.1520  0.5355 -0.6554
  793MOL0     H 7033  13.549   2.979   0.277 -0.0443 -1.7576  0.2891
  793MOL0     H 7034  13.638   3.009   0.429 -0.1928  1.6870 -1.5408
  793MOL0     H 7035  12.659   2.854   1.008  3.2358  2.8273  1.3780
  793MOL0     H 7036  12.398   2.841   1.024 -0.8870  0.0578 -1.1498
  793MOL0     H 7037  12.023   3.180   0.980 -0.5689 -1.4773 -2.5810
  793MOL0     H 7038  11.785   3.200   1.012  0.1863 -0.0754  0.5356
  793MOL0     H 7039  10.118   1.800   1.469  0.6865  0.1021  0.0955
  793MOL0     H 7040   9.879   1.831   1.505 -1.5375  1.2349  1.0945
  793MOL0     H 7041   9.581   2.165   1.540  0.0167 -1.9573 -1.5138
  793MOL0     H 7042   9.347   2.235   1.524 -1.8655 -0.2374  1.5016
  793MOL0     H 7043   9.077   2.126   1.807  0.0434 -0.7684 -0.1413
  793MOL0     H 7044   9.033   1.972   1.725 -3.4934 -0.4974  0.5966
  793MOL0     H 7045   8.839   2.127   1.747 -0.9586 -1.2423 -0.8592
  793MOL0     H 7046   8.875   2.093   1.582 -0.4375 -0.6775  1.3230
  793MOL0     H 7047   8.959   2.323   1.542 -1.2881  0.3589 -0.9862
  793MOL0     H 7048   8.938   2.359   1.721  2.3742 -0.4499  0.3227
  793MOL0     H 7049   8.712   2.346   1.709 -0.2868 -0.8514 -0.0305
  793MOL0     H 7050   8.755   2.456   1.581  0.5813 -0.7579 -3.6203
  793MOL0     H 7051   8.601   2.134   1.353 -3.4305  1.2322  0.2111
  793MOL0     H 7052   9.228   1.887   1.751  0.1282 -2.5641 -2.1433
  793MOL0     H 7053   9.502   1.756   1.861 -2.7827  0.5710  1.7563
  793MOL0     H 7054   9.346   1.718   1.802 -0.2443 -0.6959 -0.8680
  793MOL0     H 7055   9.490   1.694   1.703  0.9679  0.9223 -0.8977
  794MOL0     O 7056   6.369   6.665  11.248 -0.0186  0.4816  0.4366
  794MOL0     C 7057   6.304   6.588  11.316 -1.4155  0.1674 -0.6915
  794MOL0     O 7058   6.361   6.497  11.402 -0.1088 -0.4588 -0.2699
  794MOL0     C 7059   6.496   6.487  11.407 -0.7912  0.1853  0.0472
  794MOL0     C 7060   6.569   6.559  11.498 -0.2999  0.6840 -0.2623
  794MOL0     C 7061   6.711   6.550  11.498 -0.0551 -1.4425  0.6630
  794MOL0     C 7062   6.773   6.457  11.416 -1.0945 -0.8669  0.1710
  794MOL0     O 7063   6.906   6.450  11.420 -1.0998 -0.2850  0.2060
  794MOL0     C 7064   6.973   6.353  11.337  0.1862 -0.3184  0.1995
  794MOL0     C 7065   7.110   6.366  11.360 -1.0378  0.0520 -1.2591
  794MOL0     C 7066   7.195   6.241  11.320 -0.2358 -1.1865  0.0431
  794MOL0     C 7067   7.344   6.244  11.348  0.3736 -0.1972 -0.0597
  794MOL0     C 7068   7.411   6.108  11.308  0.2319  0.2509  0.2659
  794MOL0     C 7069   7.545   6.083  11.367  0.0110 -0.6316 -0.2302
  794MOL0     C 7070   7.603   5.935  11.334  0.8025  0.1385  0.1937
  794MOL0     C 7071   7.742   5.921  11.379 -0.0890  0.9672 -0.8210
  794MOL0     N 7072   7.833   5.995  11.293  0.1666 -0.2229  0.0676
  794MOL0     C 7073   7.866   5.973  11.164  0.3763  0.2002  0.0336
  794MOL0     C 7074   7.968   6.047  11.139 -1.1433 -0.2020 -0.5374
  794MOL0     C 7075   8.057   6.041  11.020  0.6537  0.2646 -0.0241
  794MOL0     C 7076   8.152   5.923  11.026 -0.0746 -0.0289 -0.0683
  794MOL0     C 7077   8.250   5.931  10.904 -0.5345  0.0215 -0.2879
  794MOL0     C 7078   8.375   6.020  10.930 -0.6654 -0.5971  0.3502
  794MOL0     O 7079   8.453   5.955  11.031  0.0572 -0.4510  0.1741
  794MOL0     C 7080   8.560   6.024  11.097  0.3673  0.9572  0.0160
  794MOL0     C 7081   8.636   5.944  11.182  0.2494  0.3906 -0.4932
  794MOL0     C 7082   8.744   6.010  11.246  0.2263  0.2168 -0.4046
  794MOL0     C 7083   8.778   6.142  11.241  0.4580 -0.0534 -0.6600
  794MOL0     C 7084   8.905   6.198  11.306 -0.4717 -0.0811  0.1830
  794MOL0     O 7085   8.928   6.333  11.313  0.5580  0.2425  0.2204
  794MOL0     C 7086   9.053   6.376  11.349 -0.3833  0.2372 -0.7898
  794MOL0     C 7087   9.174   6.329  11.287  1.8850 -0.2244 -0.0295
  794MOL0     C 7088   9.296   6.378  11.316  0.4274  0.7352  0.2414
  794MOL0     C 7089   9.315   6.464  11.424 -0.4052 -0.3003 -0.3913
  794MOL0     O 7090   9.441   6.496  11.478  0.8704 -0.4046  0.4229
  794MOL0     C 7091   9.514   6.379  11.506 -0.1358  0.2438 -1.2960
  794MOL0     C 7092   9.584   6.410  11.634  0.0148 -0.6455  0.1522
  794MOL0     C 7093   9.708   6.501  11.603  0.0308 -0.4185  0.9782
  794MOL0     C 7094   9.822   6.402  11.574 -0.6601 -0.3866  0.0022
  794MOL0     C 7095   9.972   6.432  11.555 -0.0848 -0.2573 -0.3764
  794MOL0     C 7096  10.053   6.310  11.543  0.2643  1.0926 -0.1945
  794MOL0     C 7097  10.191   6.339  11.485 -0.0372 -0.8065 -0.0247
  794MOL0     C 7098  10.272   6.212  11.471 -0.8089  0.7470 -0.4207
  794MOL0    Cl 7099  10.416   6.250  11.369 -0.1932 -0.1566  0.2741
  794MOL0     C 7100   9.197   6.512  11.485  0.0367  0.3445 -0.4033
  794MOL0     C 7101   9.063   6.474  11.447 -0.1387  0.4799  0.2167
  794MOL0     O 7102   8.988   6.114  11.331 -0.0001  0.4838 -0.2297
  794MOL0     C 7103   8.686   6.218  11.159 -0.9971 -0.7442 -0.4490
  794MOL0     C 7104   8.588   6.157  11.083  0.6597 -0.7877 -0.2967
  794MOL0     N 7105   7.991   6.124  11.249 -0.0293 -0.8418  0.4124
  794MOL0     N 7106   7.906   6.099  11.337 -0.0728  0.0370  0.0995
  794MOL0     C 7107   6.695   6.384  11.323 -0.0932 -0.5778 -0.0134
  794MOL0     C 7108   6.561   6.407  11.318  0.0856  0.3480  0.4467
  794MOL0     C 7109   6.160   6.601  11.325  0.4062 -0.2708 -0.1650
  794MOL0     C 7110   6.101   6.569  11.446 -0.3106 -0.7879  0.0345
  794MOL0     C 7111   5.955   6.574  11.449  0.3919  0.1813  1.1183
  794MOL0     C 7112   5.877   6.607  11.339  0.9271 -0.5744  0.0199
  794MOL0     O 7113   5.740   6.611  11.359  0.1458  0.2278  0.1018
  794MOL0     C 7114   5.653   6.659  11.250  0.2186 -0.2553  0.0116
  794MOL0     C 7115   5.510   6.618  11.282  1.1170  1.2613 -0.5401
  794MOL0     C 7116   5.407   6.685  11.177 -0.3072  0.3737 -0.9859
  794MOL0     C 7117   5.275   6.625  11.198 -0.3912 -0.4727 -0.2708
  794MOL0     C 7118   5.182   6.702  11.106 -0.3611  0.2446 -0.1172
  794MOL0     C 7119   5.092   6.759  11.042  0.2609  0.6083  0.4930
  794MOL0     C 7120   5.937   6.641  11.225 -0.6183  0.6537 -0.3969
  794MOL0     C 7121   6.077   6.635  11.204 -0.0025 -0.1517 -0.3175
  794MOL0     C 7122   6.136   6.675  11.071 -0.3952  0.1626  0.6396
  794MOL0     H 7123   6.530   6.619  11.580  0.7964 -0.9447  1.5252
  794MOL0     H 7124   6.780   6.600  11.565  0.8264 -0.3557 -0.9974
  794MOL0     H 7125   6.934   6.252  11.356  0.9825 -0.8232 -0.7751
  794MOL0     H 7126   6.961   6.356  11.229 -1.3695  2.2535  0.3524
  794MOL0     H 7127   7.124   6.376  11.468 -3.7899 -0.1016 -0.8252
  794MOL0     H 7128   7.146   6.457  11.311  1.8078 -0.2747  0.0017
  794MOL0     H 7129   7.187   6.240  11.211  1.3053  0.4525 -0.1283
  794MOL0     H 7130   7.145   6.148  11.350 -3.5454  0.2790 -0.4592
  794MOL0     H 7131   7.389   6.335  11.307 -2.0918  1.7104  1.1775
  794MOL0     H 7132   7.346   6.254  11.457 -0.2427 -1.3381  0.0740
  794MOL0     H 7133   7.342   6.024  11.326  0.2070  0.4892  1.3531
  794MOL0     H 7134   7.413   6.103  11.199 -2.5903 -1.7241  0.1895
  794MOL0     H 7135   7.618   6.164  11.354 -0.1328  1.1184  6.1319
  794MOL0     H 7136   7.528   6.091  11.475 -0.9419  1.0572 -0.4737
  794MOL0     H 7137   7.597   5.922  11.225  3.7124 -0.1796 -0.0143
  794MOL0     H 7138   7.544   5.858  11.385  1.1928  0.1311  0.6453
  794MOL0     H 7139   7.752   5.942  11.486  0.2113  0.2379 -0.6998
  794MOL0     H 7140   7.752   5.812  11.373 -1.0997  0.5026  3.1249
  794MOL0     H 7141   7.833   5.890  11.103  2.0025 -0.3992 -0.0775
  794MOL0     H 7142   7.996   6.026  10.930 -0.4489  0.9651  0.5702
  794MOL0     H 7143   8.121   6.129  11.019  2.3765 -0.8929  1.6664
  794MOL0     H 7144   8.207   5.921  11.120  0.4531 -1.6437 -0.3826
  794MOL0     H 7145   8.096   5.829  11.035  0.8471 -0.5502  0.3699
  794MOL0     H 7146   8.200   5.981  10.821 -1.2214  0.3841  0.3304
  794MOL0     H 7147   8.288   5.834  10.869  1.6716 -0.1018  2.1586
  794MOL0     H 7148   8.351   6.124  10.957  1.7829  0.7898 -2.2572
  794MOL0     H 7149   8.443   6.022  10.844  1.9574  1.3496  2.2991
  794MOL0     H 7150   8.621   5.838  11.205 -0.5638  1.0183  2.2830
  794MOL0     H 7151   8.785   5.940  11.318 -2.7850  2.2311  3.7704
  794MOL0     H 7152   9.174   6.253  11.210  1.3889  1.7876 -2.1435
  794MOL0     H 7153   9.380   6.334  11.264 -0.0187  2.0989 -1.7651
  794MOL0     H 7154   9.448   6.296  11.530  0.7075 -0.1805 -0.3552
  794MOL0     H 7155   9.576   6.347  11.422 -1.1235 -1.6532 -1.3317
  794MOL0     H 7156   9.508   6.450  11.700 -1.2964 -0.1950 -1.5531
  794MOL0     H 7157   9.612   6.312  11.674  1.4117 -0.4777 -0.3601
  794MOL0     H 7158   9.691   6.577  11.526  2.3616 -0.3577  0.4403
  794MOL0     H 7159   9.747   6.559  11.687  3.1613 -2.5519  1.1484
  794MOL0     H 7160   9.792   6.341  11.488  4.2949 -1.9981 -0.9231
  794MOL0     H 7161   9.822   6.337  11.662  1.2169 -1.0919 -0.4648
  794MOL0     H 7162  10.017   6.485  11.639  1.4831  0.3233 -1.5376
  794MOL0     H 7163   9.979   6.498  11.468  2.2255  2.1276  1.4628
  794MOL0     H 7164  10.066   6.278  11.647  1.6980  0.9225 -0.4039
  794MOL0     H 7165   9.999   6.226  11.497  0.4670 -0.5322  2.2959
  794MOL0     H 7166  10.250   6.404  11.551  3.1123 -1.3328 -2.0846
  794MOL0     H 7167  10.182   6.391  11.389 -0.5743  3.0393  1.8924
  794MOL0     H 7168  10.313   6.185  11.569 -0.7836 -2.0842 -1.1113
  794MOL0     H 7169  10.209   6.133  11.428 -2.0750  0.6145  1.5695
  794MOL0     H 7170   9.212   6.583  11.565  1.4849 -1.7559  1.3205
  794MOL0     H 7171   8.975   6.527  11.483 -1.5108 -1.8374  0.4785
  794MOL0     H 7172   8.708   6.324  11.150 -1.5849 -0.4553  1.1386
  794MOL0     H 7173   8.535   6.219  11.012  1.5393 -0.4234 -0.6389
  794MOL0     H 7174   6.729   6.297  11.268 -1.7638 -0.9032 -0.5953
  794MOL0     H 7175   6.507   6.359  11.237  0.2495 -0.1263  0.6168
  794MOL0     H 7176   6.146   6.549  11.542 -0.1739  3.6409  1.1240
  794MOL0     H 7177   5.905   6.549  11.542  1.4793  1.8622  2.2300
  794MOL0     H 7178   5.669   6.607  11.156 -0.5856 -0.1777 -0.1752
  794MOL0     H 7179   5.664   6.767  11.236 -1.8935  0.5589  3.3532
  794MOL0     H 7180   5.480   6.639  11.385 -0.7299 -0.9751 -0.5156
  794MOL0     H 7181   5.500   6.509  11.272  2.8447  0.9140  1.0091
  794MOL0     H 7182   5.448   6.666  11.077  1.9621 -0.3008  0.0118
  794MOL0     H 7183   5.395   6.793  11.195 -2.9654 -0.4005  3.3397
  794MOL0     H 7184   5.267   6.522  11.163  0.6405 -0.8357  0.5292
  794MOL0     H 7185   5.238   6.638  11.300  2.3819 -0.8622  0.8634
  794MOL0     H 7186   5.025   6.823  10.989  0.5335 -1.7123 -3.0044
  794MOL0     H 7187   5.880   6.674  11.139  0.2916  2.6961 -0.2915
  794MOL0     H 7188   6.204   6.759  11.091  0.0496 -0.0032 -0.1410
  794MOL0     H 7189   6.197   6.588  11.044  0.1093 -0.0916  2.4494
  794MOL0     H 7190   6.071   6.721  10.996  0.1293  2.6821  1.6169
  795MOL0     O 7191  10.614   6.161   0.728 -0.2343  0.4171 -0.9056
  795MOL0     C 7192  10.622   6.256   0.801  1.1227 -0.3063 -0.1737
  795MOL0     O 7193  10.733   6.297   0.857  0.0635  0.1891 -0.4972
  795MOL0     C 7194  10.851   6.295   0.791 -0.4082  0.0094  0.0841
  795MOL0     C 7195  10.962   6.245   0.862 -0.3391  0.3737  0.7849
  795MOL0     C 7196  11.096   6.256   0.801  0.3096  0.4128 -0.3521
  795MOL0     C 7197  11.116   6.317   0.675  0.3107  0.4148  0.5295
  795MOL0     O 7198  11.244   6.311   0.621  0.7867 -0.0776  0.0432
  795MOL0     C 7199  11.272   6.379   0.498  0.0572 -0.6072  0.6837
  795MOL0     C 7200  11.251   6.286   0.383 -0.5753 -0.0473 -0.6708
  795MOL0     C 7201  11.328   6.327   0.246  0.6021  0.2449 -0.3801
  795MOL0     C 7202  11.471   6.256   0.233 -0.1249  0.2194  0.1279
  795MOL0     C 7203  11.523   6.283   0.086  0.0774 -0.2334  0.1321
  795MOL0     C 7204  11.664   6.220   0.089  0.0237 -0.6871  0.0465
  795MOL0     C 7205  11.733   6.219  -0.046  0.1983  0.5776  0.5227
  795MOL0     C 7206  11.714   6.087  -0.127  0.6140 -0.6968 -0.9085
  795MOL0     N 7207  11.812   6.080  -0.230 -0.3466  0.3968 -0.4868
  795MOL0     C 7208  11.843   6.173  -0.322 -0.1187 -0.1960  0.2597
  795MOL0     C 7209  11.941   6.127  -0.403  0.3650  0.8529  0.2608
  795MOL0     C 7210  12.006   6.207  -0.518  0.1288 -0.2817  0.0728
  795MOL0     C 7211  12.150   6.229  -0.490 -0.0666  0.3024  1.0942
  795MOL0     C 7212  12.232   6.116  -0.553 -0.0783  0.0043 -0.0087
  795MOL0     C 7213  12.378   6.153  -0.550  0.7518 -0.2092  0.1714
  795MOL0     O 7214  12.447   6.041  -0.606 -0.8314 -0.2867 -0.4975
  795MOL0     C 7215  12.582   6.053  -0.620 -0.2466  0.3821  1.0489
  795MOL0     C 7216  12.672   6.114  -0.540  0.8130 -0.4264 -0.5602
  795MOL0     C 7217  12.808   6.121  -0.587  0.0352  0.2561  0.7093
  795MOL0     C 7218  12.853   6.062  -0.711  0.1302 -0.0295 -0.3191
  795MOL0     C 7219  12.994   6.050  -0.744  0.2894 -0.7640 -0.0291
  795MOL0     O 7220  13.031   5.972  -0.846  0.1155 -0.1465  0.8005
  795MOL0     C 7221  13.167   5.961  -0.871  0.1205 -0.6809 -0.5649
  795MOL0     C 7222  13.256   5.886  -0.782  0.6608 -0.6421 -0.1517
  795MOL0     C 7223  13.397   5.884  -0.804  0.1134 -0.2390  0.2234
  795MOL0     C 7224  13.451   5.948  -0.921  0.2227  0.6210  0.3345
  795MOL0     O 7225  13.582   5.963  -0.941 -0.3514 -0.3285 -0.3767
  795MOL0     C 7226  13.636   6.029  -1.059  0.3519 -0.3660 -0.3286
  795MOL0     C 7227  13.785   5.990  -1.050 -0.3883 -0.2664 -0.0279
  795MOL0     C 7228  13.872   6.105  -1.098  1.1221  0.3942 -0.4039
  795MOL0     C 7229  14.012   6.043  -1.108 -0.4468  0.5151 -0.1657
  795MOL0     C 7230  14.082   6.142  -1.202 -0.4948 -0.0623  1.1737
  795MOL0     C 7231  14.224   6.089  -1.225 -0.7711  0.0220  0.0231
  795MOL0     C 7232  14.303   6.174  -1.328 -0.0525  0.6185 -0.2418
  795MOL0     C 7233  14.443   6.140  -1.335 -0.2954  0.3677 -0.5990
  795MOL0    Cl 7234  14.543   6.237  -1.456  0.4770 -0.5455 -0.3364
  795MOL0     C 7235  13.360   5.993  -1.018 -0.5396 -0.3961 -0.7699
  795MOL0     C 7236  13.221   5.995  -0.988 -1.4420 -0.6880  0.5125
  795MOL0     O 7237  13.066   6.131  -0.683 -0.5437  0.1355  0.2562
  795MOL0     C 7238  12.751   6.005  -0.785  0.3865 -0.7139  0.5012
  795MOL0     C 7239  12.617   5.998  -0.744 -0.8887 -0.1032 -0.8746
  795MOL0     N 7240  11.980   6.004  -0.350  0.7471  0.7190 -0.6246
  795MOL0     N 7241  11.903   5.980  -0.251  0.1500 -0.0286 -0.7240
  795MOL0     C 7242  10.998   6.365   0.602  0.8333 -0.3279 -0.4347
  795MOL0     C 7243  10.869   6.347   0.661 -0.3666 -0.1274 -0.9620
  795MOL0     C 7244  10.500   6.331   0.853  0.4809 -0.9785  0.1853
  795MOL0     C 7245  10.519   6.469   0.883  0.3694  0.0150 -0.2710
  795MOL0     C 7246  10.410   6.544   0.917  0.1546  0.1866  0.4744
  795MOL0     C 7247  10.282   6.495   0.930  0.5348 -0.3597 -0.3406
  795MOL0     O 7248  10.178   6.583   0.946 -0.2566  0.5001 -0.1400
  795MOL0     C 7249  10.042   6.541   0.940 -0.8549  0.7107 -0.9494
  795MOL0     C 7250   9.951   6.665   0.917  0.6170  0.1959 -0.3360
  795MOL0     C 7251   9.982   6.780   1.016 -0.1403  0.3387  0.0244
  795MOL0     C 7252   9.895   6.906   0.997 -0.6080  0.3283 -0.0978
  795MOL0     C 7253   9.769   6.889   1.063  0.7839  0.3321 -0.1639
  795MOL0     C 7254   9.674   6.863   1.129  0.5489 -0.6850  0.0534
  795MOL0     C 7255  10.268   6.364   0.901  0.7651  1.2310  1.0463
  795MOL0     C 7256  10.372   6.277   0.866  0.6357 -0.4285 -0.4824
  795MOL0     C 7257  10.352   6.130   0.876  0.2186  0.7659  0.1055
  795MOL0     H 7258  10.945   6.200   0.959 -0.6878 -1.0749  0.0677
  795MOL0     H 7259  11.187   6.214   0.842  1.1816 -0.4964 -3.0177
  795MOL0     H 7260  11.235   6.480   0.478  1.7280 -0.6627 -3.7440
  795MOL0     H 7261  11.380   6.393   0.509  0.0254 -0.0103  0.2631
  795MOL0     H 7262  11.141   6.283   0.385 -0.5730 -2.3430  2.0046
  795MOL0     H 7263  11.285   6.186   0.410  0.4163  0.7169  1.0615
  795MOL0     H 7264  11.351   6.434   0.240  1.1096  0.0825 -1.7569
  795MOL0     H 7265  11.282   6.296   0.152  1.2821 -1.0801 -0.3102
  795MOL0     H 7266  11.541   6.293   0.308  2.3840  0.1399 -2.0333
  795MOL0     H 7267  11.462   6.148   0.249  2.9831 -0.0185  0.8481
  795MOL0     H 7268  11.454   6.237   0.014 -0.1898 -2.3833  1.6728
  795MOL0     H 7269  11.542   6.389   0.067  3.3215 -0.5936  0.7976
  795MOL0     H 7270  11.731   6.278   0.153  0.4976 -0.0133 -1.0314
  795MOL0     H 7271  11.663   6.118   0.129  0.0793 -1.1395 -1.0680
  795MOL0     H 7272  11.838   6.214  -0.016  0.1452 -3.7145  0.7209
  795MOL0     H 7273  11.719   6.309  -0.106 -0.5643 -0.5154 -1.0141
  795MOL0     H 7274  11.718   6.004  -0.056  2.3153  1.0677  1.2212
  795MOL0     H 7275  11.614   6.089  -0.172  0.4816 -1.3663 -0.6410
  795MOL0     H 7276  11.810   6.275  -0.336  1.6142  0.4202  0.3649
  795MOL0     H 7277  11.986   6.165  -0.617  2.4259 -0.0641 -0.5387
  795MOL0     H 7278  11.962   6.307  -0.517  3.2776  1.2131  0.1878
  795MOL0     H 7279  12.182   6.321  -0.541  0.4302 -1.4047 -1.9089
  795MOL0     H 7280  12.171   6.243  -0.384 -0.1847 -1.7277  1.4294
  795MOL0     H 7281  12.202   6.110  -0.658 -4.2306  2.5067  0.7945
  795MOL0     H 7282  12.215   6.013  -0.519  3.6031 -0.6946  0.1021
  795MOL0     H 7283  12.412   6.183  -0.450  4.3667  0.1470 -1.0482
  795MOL0     H 7284  12.382   6.242  -0.613  2.3860 -0.4871 -0.1452
  795MOL0     H 7285  12.646   6.150  -0.441 -1.7969 -0.3447 -1.1951
  795MOL0     H 7286  12.876   6.188  -0.535 -2.2248  2.3989  1.1315
  795MOL0     H 7287  13.209   5.843  -0.695 -0.5866 -2.0549 -1.4606
  795MOL0     H 7288  13.453   5.825  -0.732 -0.4231 -1.2566 -0.1710
  795MOL0     H 7289  13.591   5.987  -1.150 -3.4626  2.1337  0.1837
  795MOL0     H 7290  13.618   6.137  -1.055  3.0841  0.3313 -2.8543
  795MOL0     H 7291  13.799   5.970  -0.944 -4.3474 -0.3405  0.6243
  795MOL0     H 7292  13.803   5.894  -1.100 -1.0670 -0.8812  0.8915
  795MOL0     H 7293  13.846   6.153  -1.193  1.3447  3.4704  0.9646
  795MOL0     H 7294  13.864   6.185  -1.024 -0.8085  0.2048 -0.3629
  795MOL0     H 7295  14.005   5.942  -1.149 -2.9209  0.4226  0.3701
  795MOL0     H 7296  14.066   6.044  -1.013 -0.9711  0.8768  0.1336
  795MOL0     H 7297  14.098   6.238  -1.152  0.2679  0.4489 -0.0057
  795MOL0     H 7298  14.034   6.164  -1.298  1.1436 -2.1969 -0.2411
  795MOL0     H 7299  14.283   6.075  -1.134  3.2732  0.0212 -2.3689
  795MOL0     H 7300  14.222   5.987  -1.263  0.2109 -0.2164  0.5777
  795MOL0     H 7301  14.296   6.279  -1.296 -2.7650  1.0972 -2.0435
  795MOL0     H 7302  14.253   6.170  -1.425  3.2156  2.6640 -2.2070
  795MOL0     H 7303  14.493   6.140  -1.238 -0.8995 -2.1040 -0.2173
  795MOL0     H 7304  14.447   6.040  -1.378  0.7265  0.9892 -2.0440
  795MOL0     H 7305  13.392   6.038  -1.112 -2.8373 -2.2998 -2.5946
  795MOL0     H 7306  13.161   6.052  -1.058  0.3951  1.1954  0.3764
  795MOL0     H 7307  12.773   5.953  -0.877 -1.9338 -1.6374  0.3950
  795MOL0     H 7308  12.552   5.946  -0.814 -1.3524  1.1788 -1.4286
  795MOL0     H 7309  10.993   6.404   0.501  0.5469  0.6663 -0.0481
  795MOL0     H 7310  10.785   6.377   0.600  1.1459 -1.3054 -3.7863
  795MOL0     H 7311  10.617   6.516   0.879  0.6736 -0.5163  0.7829
  795MOL0     H 7312  10.413   6.652   0.935 -1.0623  0.5138 -1.1149
  795MOL0     H 7313  10.015   6.496   1.037 -0.9583  1.5492 -0.5808
  795MOL0     H 7314  10.018   6.469   0.862 -3.3472 -0.1083  0.4391
  795MOL0     H 7315   9.846   6.637   0.932  1.1865 -2.2365 -0.5058
  795MOL0     H 7316   9.970   6.697   0.814  0.8528  3.6633  0.6416
  795MOL0     H 7317  10.088   6.807   1.007  0.0902 -1.0890 -2.3119
  795MOL0     H 7318   9.964   6.742   1.117 -0.2948  0.1537 -0.0713
  795MOL0     H 7319   9.935   7.001   1.032 -1.2690  0.6813 -0.2940
  795MOL0     H 7320   9.885   6.908   0.888  1.9558 -0.7797 -0.4295
  795MOL0     H 7321   9.584   6.829   1.177  0.0392 -1.7071 -1.5082
  795MOL0     H 7322  10.172   6.313   0.899  0.6286  1.4028 -1.9188
  795MOL0     H 7323  10.442   6.084   0.919 -1.3481 -0.4188  2.3141
  795MOL0     H 7324  10.262   6.106   0.932  1.3355 -4.0632  0.2490
  795MOL0     H 7325  10.341   6.089   0.775  2.9180  1.1057 -0.4151
  796MOL0     O 7326   2.805   0.245  10.948  0.4633  0.2139  0.0484
  796MOL0     C 7327   2.752   0.137  10.926 -0.3521 -0.1391 -0.6772
  796MOL0     O 7328   2.815   0.017  10.918  0.6056  0.2266 -0.0125
  796MOL0     C 7329   2.937  -0.008  10.995  0.1575 -0.1908  1.1135
  796MOL0     C 7330   3.028  -0.103  10.945  0.0721  0.2390  1.2749
  796MOL0     C 7331   3.145  -0.135  11.011  0.1693 -0.2888 -0.7227
  796MOL0     C 7332   3.180  -0.077  11.135  0.5619 -0.2203  0.4585
  796MOL0     O 7333   3.287  -0.107  11.210  0.0893  0.0877 -0.1907
  796MOL0     C 7334   3.333  -0.243  11.191 -0.5157  0.9557 -0.0633
  796MOL0     C 7335   3.397  -0.288  11.324 -0.2968  0.1414 -0.1468
  796MOL0     C 7336   3.521  -0.206  11.355 -1.4386  0.3876  0.6806
  796MOL0     C 7337   3.579  -0.227  11.501 -0.0327  0.2669 -0.3411
  796MOL0     C 7338   3.626  -0.377  11.521 -0.3555  0.7213  0.2606
  796MOL0     C 7339   3.719  -0.388  11.649  1.0240  0.6594 -0.0268
  796MOL0     C 7340   3.661  -0.351  11.787 -0.1143 -0.1306 -0.1100
  796MOL0     C 7341   3.744  -0.421  11.896 -0.6234  0.1147  0.9042
  796MOL0     N 7342   3.887  -0.377  11.898  0.4488  0.5457  0.4876
  796MOL0     C 7343   3.995  -0.439  11.843  0.4021 -0.1511 -0.1028
  796MOL0     C 7344   4.091  -0.347  11.844  0.4917  0.8609  0.0882
  796MOL0     C 7345   4.230  -0.348  11.785  0.9521  0.0939 -0.3530
  796MOL0     C 7346   4.331  -0.357  11.900 -0.3499  0.3380  0.1124
  796MOL0     C 7347   4.475  -0.345  11.843 -0.1612 -0.1766 -0.2177
  796MOL0     C 7348   4.587  -0.367  11.952  0.1419  0.1459  0.7449
  796MOL0     O 7349   4.710  -0.340  11.891  0.0011 -0.8303  0.1521
  796MOL0     C 7350   4.827  -0.403  11.929 -0.4746  0.0952 -0.0822
  796MOL0     C 7351   4.833  -0.494  12.039  0.0513  0.4621  0.5362
  796MOL0     C 7352   4.961  -0.543  12.080  0.3708 -0.2872 -0.2280
  796MOL0     C 7353   5.076  -0.520  12.002  0.4935  0.1954  0.1158
  796MOL0     C 7354   5.208  -0.575  12.042 -0.1818 -0.7161  0.3657
  796MOL0     O 7355   5.221  -0.648  12.158 -0.6982  0.1193 -0.0343
  796MOL0     C 7356   5.344  -0.694  12.186 -0.0008  1.2093 -0.8648
  796MOL0     C 7357   5.458  -0.621  12.227 -0.9118  0.2312  0.4052
  796MOL0     C 7358   5.578  -0.683  12.254 -0.1066  1.6712 -0.5518
  796MOL0     C 7359   5.598  -0.824  12.233  0.1073 -0.2328 -0.7933
  796MOL0     O 7360   5.724  -0.870  12.246 -0.2447 -0.3768 -0.2610
  796MOL0     C 7361   5.754  -1.011  12.252 -0.3111  0.3321  0.0822
  796MOL0     C 7362   5.906  -1.022  12.210  0.1584  0.0138 -0.1322
  796MOL0     C 7363   5.967  -1.136  12.291 -0.3193 -0.2414  0.4031
  796MOL0     C 7364   6.113  -1.107  12.304 -1.2307  0.4057 -0.2605
  796MOL0     C 7365   6.179  -1.220  12.386  0.0297  0.2805  0.1532
  796MOL0     C 7366   6.312  -1.183  12.433 -0.4644 -0.2706  0.1941
  796MOL0     C 7367   6.398  -1.304  12.451 -0.0321  0.6209 -0.6330
  796MOL0     C 7368   6.520  -1.269  12.530 -0.2030 -0.0712  0.0221
  796MOL0    Cl 7369   6.621  -1.135  12.459  0.1085 -0.2730 -0.0074
  796MOL0     C 7370   5.491  -0.895  12.189 -0.5436  0.0576  0.2176
  796MOL0     C 7371   5.370  -0.835  12.166  0.7834 -0.5228 -0.0745
  796MOL0     O 7372   5.296  -0.561  11.956 -0.8829  0.7754 -0.4707
  796MOL0     C 7373   5.065  -0.433  11.890 -0.7276 -0.7977 -0.1298
  796MOL0     C 7374   4.943  -0.365  11.868 -0.0467  0.9090 -0.6024
  796MOL0     N 7375   4.040  -0.230  11.904 -0.4276 -0.5547  0.3844
  796MOL0     N 7376   3.919  -0.250  11.934  0.3070  0.1897  0.1999
  796MOL0     C 7377   3.086   0.017  11.179  0.0452 -0.1188  0.3922
  796MOL0     C 7378   2.968   0.053  11.111 -0.3513 -0.3002 -0.1373
  796MOL0     C 7379   2.608   0.150  10.907 -0.5229 -0.2724 -0.1647
  796MOL0     C 7380   2.532   0.200  11.012 -1.4144 -0.0748 -1.3184
  796MOL0     C 7381   2.396   0.228  10.991  0.2273  0.9328 -0.2900
  796MOL0     C 7382   2.331   0.200  10.870  0.0223  0.2848  0.5580
  796MOL0     O 7383   2.204   0.245  10.843 -0.2880 -0.1280 -0.4433
  796MOL0     C 7384   2.123   0.190  10.738  0.1121  0.3367  0.3325
  796MOL0     C 7385   1.972   0.201  10.765 -0.9474 -0.4797 -0.2124
  796MOL0     C 7386   1.934   0.153  10.897  0.2851  0.2634  0.3762
  796MOL0     C 7387   1.790   0.179  10.924  0.4186  0.2111 -0.3044
  796MOL0     C 7388   1.692   0.121  10.821  0.2892 -0.3252 -0.2813
  796MOL0     C 7389   1.626   0.069  10.736 -0.2668 -0.1494  0.8379
  796MOL0     C 7390   2.411   0.129  10.773 -0.3315 -0.5004  0.0825
  796MOL0     C 7391   2.550   0.109  10.790 -0.1531 -0.2460 -0.4938
  796MOL0     C 7392   2.626   0.056  10.667 -0.7452  0.0774 -0.2609
  796MOL0     H 7393   3.014  -0.147  10.847  2.5018  1.5449  0.2508
  796MOL0     H 7394   3.216  -0.202  10.964  0.7371  0.7448 -1.3607
  796MOL0     H 7395   3.247  -0.308  11.172  0.9877 -1.5028  1.0489
  796MOL0     H 7396   3.408  -0.255  11.113 -1.3665  0.6765 -0.8473
  796MOL0     H 7397   3.429  -0.392  11.310  1.2709  0.6723 -0.6040
  796MOL0     H 7398   3.326  -0.279  11.407  0.8347  2.4865  0.6423
  796MOL0     H 7399   3.521  -0.098  11.337  3.2678  0.1804 -2.2953
  796MOL0     H 7400   3.606  -0.240  11.295 -1.2081 -2.2180  2.2856
  796MOL0     H 7401   3.661  -0.159  11.524  0.8210 -0.0819 -2.1401
  796MOL0     H 7402   3.500  -0.206  11.574  1.1259  1.2653  0.6594
  796MOL0     H 7403   3.533  -0.430  11.543 -0.3279  1.2998  1.8843
  796MOL0     H 7404   3.662  -0.419  11.426 -2.8382  3.0186 -1.8803
  796MOL0     H 7405   3.756  -0.491  11.653  2.6607  1.2404  1.7164
  796MOL0     H 7406   3.800  -0.315  11.635  0.6695  0.8427 -1.1862
  796MOL0     H 7407   3.557  -0.383  11.793  0.0617 -0.4670  1.4759
  796MOL0     H 7408   3.669  -0.245  11.813  1.7564 -0.3186  0.2781
  796MOL0     H 7409   3.702  -0.402  11.995  1.4210 -1.5776  2.2069
  796MOL0     H 7410   3.736  -0.530  11.890 -1.3850  0.0718  2.4001
  796MOL0     H 7411   4.002  -0.537  11.797 -0.3213  0.4510 -1.5474
  796MOL0     H 7412   4.239  -0.436  11.720 -0.0027  0.5779 -1.1627
  796MOL0     H 7413   4.249  -0.256  11.729 -0.5348  1.1040  0.7151
  796MOL0     H 7414   4.317  -0.278  11.974 -1.4369 -0.7008  1.0748
  796MOL0     H 7415   4.328  -0.452  11.955 -0.4435  1.2793  1.7932
  796MOL0     H 7416   4.482  -0.252  11.786  2.7945  0.7052  1.3541
  796MOL0     H 7417   4.475  -0.430  11.773 -2.5066  0.4860 -1.1118
  796MOL0     H 7418   4.572  -0.472  11.976  1.5323  0.0428  1.2558
  796MOL0     H 7419   4.557  -0.303  12.036  0.9676  0.0963  1.0905
  796MOL0     H 7420   4.745  -0.514  12.099  0.4463 -3.4200  0.0815
  796MOL0     H 7421   4.964  -0.603  12.171 -2.9501  1.0989  0.9894
  796MOL0     H 7422   5.450  -0.513  12.236  0.6041  0.6110 -1.7495
  796MOL0     H 7423   5.670  -0.632  12.280 -0.1212  1.1232  0.6516
  796MOL0     H 7424   5.724  -1.042  12.353  0.4030  0.7056  0.4178
  796MOL0     H 7425   5.698  -1.077  12.184  0.7620 -0.4382 -0.0841
  796MOL0     H 7426   5.912  -1.047  12.103 -1.2073 -0.4028 -0.1299
  796MOL0     H 7427   5.949  -0.923  12.228 -0.1464  0.2577 -0.7092
  796MOL0     H 7428   5.926  -1.122  12.392 -1.7477 -1.1074 -0.0417
  796MOL0     H 7429   5.943  -1.233  12.248 -1.0752  0.3114 -0.4493
  796MOL0     H 7430   6.139  -1.014  12.355  1.4072 -0.6571  0.5049
  796MOL0     H 7431   6.158  -1.093  12.205  0.5484 -2.8699 -0.0533
  796MOL0     H 7432   6.189  -1.294  12.306  2.3878  1.2677 -0.5703
  796MOL0     H 7433   6.119  -1.259  12.468  1.2919 -3.1013 -0.3440
  796MOL0     H 7434   6.357  -1.115  12.360  0.6561  1.9602  2.7817
  796MOL0     H 7435   6.305  -1.141  12.534  2.8256 -3.4843  1.9668
  796MOL0     H 7436   6.435  -1.340  12.354  1.3823  0.3418 -0.0179
  796MOL0     H 7437   6.343  -1.382  12.505  1.5164 -0.9271 -1.1716
  796MOL0     H 7438   6.482  -1.226  12.623 -2.4889  0.3668 -1.0605
  796MOL0     H 7439   6.582  -1.358  12.547  1.0744  1.1874  2.5702
  796MOL0     H 7440   5.494  -1.002  12.167  2.0451  0.4845 -1.9801
  796MOL0     H 7441   5.288  -0.899  12.135  0.9397  0.4187 -2.7378
  796MOL0     H 7442   5.150  -0.397  11.832 -1.4035 -1.8789 -1.8521
  796MOL0     H 7443   4.943  -0.279  11.802  2.5138  0.1424 -1.7373
  796MOL0     H 7444   3.101   0.067  11.274  0.5773  1.7713 -0.6434
  796MOL0     H 7445   2.901   0.126  11.154 -1.0511  1.3930 -3.7924
  796MOL0     H 7446   2.592   0.219  11.100 -1.8042  3.8839 -1.7434
  796MOL0     H 7447   2.342   0.272  11.074 -0.4996 -2.4224  1.1834
  796MOL0     H 7448   2.133   0.081  10.728  0.9487  0.3514  0.9385
  796MOL0     H 7449   2.149   0.242  10.646  3.0802  1.1193  1.5134
  796MOL0     H 7450   1.922   0.147  10.684  3.5269 -0.2820 -3.5337
  796MOL0     H 7451   1.943   0.306  10.762 -2.1397 -0.7706  0.4560
  796MOL0     H 7452   1.997   0.198  10.974 -0.8101  2.5863 -0.0033
  796MOL0     H 7453   1.962   0.048  10.903  1.9003  0.7132  1.2057
  796MOL0     H 7454   1.769   0.146  11.026  2.6423 -1.8550 -0.4250
  796MOL0     H 7455   1.780   0.288  10.919 -0.6438  0.0676 -1.8249
  796MOL0     H 7456   1.580   0.022  10.651 -0.8499  2.9915 -0.7172
  796MOL0     H 7457   2.368   0.103  10.677 -2.3267  2.7134 -0.0320
  796MOL0     H 7458   2.729   0.088  10.652 -0.1333 -1.3056  0.7808
  796MOL0     H 7459   2.617  -0.053  10.672  1.4872 -0.1703 -0.6731
  796MOL0     H 7460   2.569   0.094  10.581 -0.9224  3.3634  1.1378
  797MOL0     O 7461   6.885   0.769   1.923  0.5841  0.5307  0.4750
  797MOL0     C 7462   6.815   0.718   1.840  0.2504 -0.6774  0.5009
  797MOL0     O 7463   6.855   0.694   1.709  0.3766  0.0879  0.2119
  797MOL0     C 7464   6.978   0.722   1.664 -0.4462  0.1168  1.1759
  797MOL0     C 7465   7.017   0.655   1.542  0.9610 -0.4658  0.4873
  797MOL0     C 7466   7.146   0.676   1.488 -0.5110 -0.1202 -0.0294
  797MOL0     C 7467   7.244   0.757   1.543 -0.6631  0.1119  0.1897
  797MOL0     O 7468   7.370   0.782   1.500  0.5886 -0.8046  0.2637
  797MOL0     C 7469   7.403   0.744   1.369  0.1152  1.0115  0.4832
  797MOL0     C 7470   7.444   0.596   1.360 -0.2649 -0.7689  0.0440
  797MOL0     C 7471   7.567   0.575   1.454  0.5438 -1.2197  0.1078
  797MOL0     C 7472   7.647   0.459   1.397  0.7562  1.0996  0.4752
  797MOL0     C 7473   7.768   0.418   1.501  0.4984  0.3642  0.3657
  797MOL0     C 7474   7.723   0.365   1.635 -0.1218  0.1732  0.3703
  797MOL0     C 7475   7.652   0.239   1.613 -0.1532  0.1116 -0.0004
  797MOL0     C 7476   7.683   0.126   1.710  0.1047 -0.4019  0.4557
  797MOL0     N 7477   7.829   0.097   1.695 -0.0208 -0.3398 -1.2243
  797MOL0     C 7478   7.926   0.130   1.791  0.1360  0.2893  0.2977
  797MOL0     C 7479   8.043   0.068   1.757 -0.3500 -0.2607 -0.7860
  797MOL0     C 7480   8.161   0.049   1.853  0.2182 -0.7113 -1.1367
  797MOL0     C 7481   8.291   0.041   1.776  0.0056  0.5899  0.6800
  797MOL0     C 7482   8.306  -0.091   1.697 -0.5278 -0.4735 -1.2829
  797MOL0     C 7483   8.438  -0.106   1.638 -0.1435 -0.9566  0.2929
  797MOL0     O 7484   8.452   0.008   1.552  0.2652 -0.7066 -0.3482
  797MOL0     C 7485   8.565   0.009   1.478 -0.0610  0.4696 -0.2621
  797MOL0     C 7486   8.596   0.127   1.397 -0.5189 -0.1290  0.2530
  797MOL0     C 7487   8.707   0.152   1.321  1.2808 -0.6553  0.1652
  797MOL0     C 7488   8.803   0.055   1.318 -0.3399  0.0921 -0.1400
  797MOL0     C 7489   8.926   0.085   1.235 -0.0242  0.4426  0.5260
  797MOL0     O 7490   9.020  -0.016   1.224  1.0048 -0.9243 -0.2719
  797MOL0     C 7491   9.145   0.009   1.171  0.3238 -0.8244  0.3442
  797MOL0     C 7492   9.177  -0.029   1.036 -0.1174 -0.0844 -0.3349
  797MOL0     C 7493   9.307  -0.009   0.987 -0.0971 -0.7835 -0.3792
  797MOL0     C 7494   9.406   0.054   1.063  1.2013  0.0239 -0.1582
  797MOL0     O 7495   9.531   0.058   1.012 -0.1276  0.3671  0.4798
  797MOL0     C 7496   9.643   0.110   1.087 -0.4657 -0.2621  0.2750
  797MOL0     C 7497   9.690  -0.006   1.176  0.3595 -0.0573  0.9034
  797MOL0     C 7498   9.825   0.013   1.230 -0.1671  0.3128 -0.4998
  797MOL0     C 7499   9.856  -0.111   1.317 -0.3214 -0.8413 -0.6066
  797MOL0     C 7500   9.961  -0.073   1.420 -1.1590  0.2661  0.2567
  797MOL0     C 7501  10.103  -0.063   1.349  0.7198  0.1287 -0.4383
  797MOL0     C 7502  10.207  -0.021   1.448 -0.7596  0.2239  0.3374
  797MOL0     C 7503  10.343   0.005   1.376 -0.2349  0.5767 -0.1529
  797MOL0    Cl 7504  10.483   0.034   1.494  0.0788  0.3336  0.3614
  797MOL0     C 7505   9.372   0.103   1.189  0.4858 -0.9731 -0.2626
  797MOL0     C 7506   9.246   0.077   1.241 -0.3865  0.2261  1.3146
  797MOL0     O 7507   8.929   0.195   1.178 -0.8028  0.2842 -0.0404
  797MOL0     C 7508   8.776  -0.080   1.388  0.2991 -0.7851 -0.6903
  797MOL0     C 7509   8.659  -0.098   1.463 -0.2209 -0.5992 -0.6065
  797MOL0     N 7510   8.017   0.023   1.633 -0.4691  1.0401  0.0814
  797MOL0     N 7511   7.892   0.033   1.594  0.3241 -1.0893 -0.3992
  797MOL0     C 7512   7.198   0.833   1.646 -0.2605  0.9159  0.2645
  797MOL0     C 7513   7.078   0.820   1.716  0.2474  0.2624  0.4265
  797MOL0     C 7514   6.668   0.714   1.878  0.0235  1.0315  0.1524
  797MOL0     C 7515   6.632   0.755   2.014 -0.1425 -0.3802 -0.1134
  797MOL0     C 7516   6.502   0.758   2.048  0.2879  0.4670 -0.7685
  797MOL0     C 7517   6.397   0.739   1.954  0.4375 -0.4871 -0.1559
  797MOL0     O 7518   6.269   0.769   2.000 -0.3730  0.0662  0.3999
  797MOL0     C 7519   6.148   0.709   1.923 -0.3315  0.5066 -0.8727
  797MOL0     C 7520   6.022   0.772   1.984  0.0359  0.5766 -0.4487
  797MOL0     C 7521   5.890   0.764   1.895  0.0493  0.2760 -0.2035
  797MOL0     C 7522   5.813   0.639   1.922 -0.0805  0.0104  0.0880
  797MOL0     C 7523   5.724   0.597   1.811  0.4987 -0.1542 -0.2990
  797MOL0     C 7524   5.633   0.569   1.740  0.7323 -1.0902 -0.7333
  797MOL0     C 7525   6.429   0.703   1.827  0.5826  0.0363 -0.9177
  797MOL0     C 7526   6.563   0.683   1.782 -0.6590  0.3752 -0.2359
  797MOL0     C 7527   6.581   0.625   1.646 -0.2694  0.3344 -0.0401
  797MOL0     H 7528   6.951   0.581   1.497  1.7385 -1.1625  0.4533
  797MOL0     H 7529   7.177   0.617   1.402  1.9616  1.7731 -0.5496
  797MOL0     H 7530   7.328   0.759   1.291  0.2198 -0.9506 -0.0671
  797MOL0     H 7531   7.492   0.801   1.340  0.9309  0.7162  2.2142
  797MOL0     H 7532   7.485   0.584   1.260  0.1823 -3.2094  0.4444
  797MOL0     H 7533   7.359   0.533   1.385 -1.4068  1.6020  2.7059
  797MOL0     H 7534   7.526   0.550   1.553  0.6269  1.4411  0.8792
  797MOL0     H 7535   7.633   0.660   1.469 -1.8023  0.6906  0.2220
  797MOL0     H 7536   7.589   0.370   1.372 -0.4472  1.7995  0.6949
  797MOL0     H 7537   7.697   0.488   1.304  1.0929  0.4131  0.4368
  797MOL0     H 7538   7.833   0.344   1.453  1.0869  0.5498  0.8859
  797MOL0     H 7539   7.840   0.497   1.520  0.9312 -0.4085  2.0328
  797MOL0     H 7540   7.815   0.347   1.691 -1.1817 -1.5071  1.6629
  797MOL0     H 7541   7.661   0.438   1.687 -1.4925 -0.8394  0.2238
  797MOL0     H 7542   7.667   0.205   1.511 -4.3182  0.7594 -0.9984
  797MOL0     H 7543   7.546   0.265   1.622 -0.0796  0.1957  0.7777
  797MOL0     H 7544   7.658   0.152   1.813 -2.5161 -1.2042  0.0818
  797MOL0     H 7545   7.624   0.042   1.673  2.1171 -2.5679  1.8641
  797MOL0     H 7546   7.910   0.176   1.888 -0.8030 -3.5929  2.1889
  797MOL0     H 7547   8.169   0.141   1.912 -2.5910 -2.3166  2.0996
  797MOL0     H 7548   8.140  -0.038   1.917 -2.1344  0.9672  0.5455
  797MOL0     H 7549   8.293   0.122   1.703  2.7844 -1.2679 -1.4835
  797MOL0     H 7550   8.375   0.058   1.844  1.6154  3.4603 -1.7692
  797MOL0     H 7551   8.231  -0.097   1.617 -2.2066  1.0661  0.0999
  797MOL0     H 7552   8.289  -0.168   1.772 -0.4944  1.5503  0.9218
  797MOL0     H 7553   8.458  -0.197   1.582  0.3977  0.2233 -1.5363
  797MOL0     H 7554   8.517  -0.104   1.715  1.9592  0.0952 -1.7586
  797MOL0     H 7555   8.535   0.216   1.401  0.5525  0.5887  1.6709
  797MOL0     H 7556   8.716   0.248   1.271  0.2749  0.0401  1.2790
  797MOL0     H 7557   9.114  -0.092   0.974 -0.8989 -2.0501  2.2643
  797MOL0     H 7558   9.349  -0.037   0.892  2.8908  3.0497 -0.4418
  797MOL0     H 7559   9.716   0.118   1.006 -2.5695  0.4771 -1.6589
  797MOL0     H 7560   9.624   0.203   1.141  0.5060  0.1292 -0.0269
  797MOL0     H 7561   9.618  -0.012   1.258  2.6126  0.3441  3.0365
  797MOL0     H 7562   9.675  -0.104   1.128 -4.1477  0.8874 -0.0241
  797MOL0     H 7563   9.901   0.015   1.151 -0.2107  1.9334 -0.5399
  797MOL0     H 7564   9.835   0.105   1.288  0.8526  0.6882 -1.2389
  797MOL0     H 7565   9.893  -0.188   1.248 -0.6188 -1.5613  0.0280
  797MOL0     H 7566   9.771  -0.142   1.378  0.2682 -0.5967  0.3654
  797MOL0     H 7567   9.957  -0.160   1.486 -3.1207 -1.2580 -1.7213
  797MOL0     H 7568   9.928   0.015   1.476 -2.1703 -0.4974  0.8945
  797MOL0     H 7569  10.135  -0.153   1.297  0.8158 -1.3821  2.1248
  797MOL0     H 7570  10.098   0.020   1.277 -2.4066  2.2816  1.9475
  797MOL0     H 7571  10.209  -0.102   1.522  0.1374  0.1833  0.2830
  797MOL0     H 7572  10.177   0.073   1.495 -2.4169  1.2394 -2.4995
  797MOL0     H 7573  10.371  -0.075   1.306  3.0560  1.7674 -0.4088
  797MOL0     H 7574  10.333   0.090   1.307 -3.1382 -2.2950 -3.7137
  797MOL0     H 7575   9.432   0.166   1.254 -0.4326 -0.0166 -0.3178
  797MOL0     H 7576   9.231   0.129   1.336 -1.7685  0.9795  0.7051
  797MOL0     H 7577   8.851  -0.157   1.383  0.3564 -1.0067  2.0348
  797MOL0     H 7578   8.636  -0.194   1.509 -4.3510  0.4335 -0.1448
  797MOL0     H 7579   7.267   0.899   1.696 -1.2900  1.0769  1.5294
  797MOL0     H 7580   7.057   0.867   1.811  0.3191 -0.5295  0.8342
  797MOL0     H 7581   6.703   0.781   2.091  1.0425  0.6231 -1.4816
  797MOL0     H 7582   6.485   0.819   2.137  1.7143  0.6967 -0.6290
  797MOL0     H 7583   6.151   0.604   1.952 -1.8856  0.6243 -0.1536
  797MOL0     H 7584   6.134   0.729   1.817 -1.3793 -1.9074 -1.2525
  797MOL0     H 7585   6.045   0.878   1.999 -4.3944  1.7591 -0.6156
  797MOL0     H 7586   6.004   0.740   2.088  2.7937  2.5554  0.7635
  797MOL0     H 7587   5.921   0.779   1.791  1.5608 -0.2833  0.1308
  797MOL0     H 7588   5.820   0.845   1.914  1.3010  0.7521  2.9433
  797MOL0     H 7589   5.891   0.562   1.916  0.7450  0.9386 -2.9409
  797MOL0     H 7590   5.761   0.641   2.018 -2.3887 -0.4237 -1.0819
  797MOL0     H 7591   5.550   0.551   1.674  0.7259 -1.6733 -0.5752
  797MOL0     H 7592   6.352   0.692   1.751 -0.5090  0.8046  0.0442
  797MOL0     H 7593   6.646   0.538   1.642 -2.1500 -1.2294  1.1924
  797MOL0     H 7594   6.490   0.587   1.598 -0.6281 -0.4153  1.1823
  797MOL0     H 7595   6.628   0.703   1.586  3.3612 -1.8076 -0.2373
  798MOL0     O 7596   2.389   1.692   4.052 -0.2220  0.4275 -0.6855
  798MOL0     C 7597   2.321   1.656   4.153  0.7889  0.4932  0.0683
  798MOL0     O 7598   2.373   1.594   4.267  0.1570 -0.3795  0.2442
  798MOL0     C 7599   2.507   1.574   4.265 -0.6905  0.0814 -0.0285
  798MOL0     C 7600   2.563   1.468   4.192 -0.3018 -1.2121 -0.0225
  798MOL0     C 7601   2.698   1.462   4.193  0.6104  0.6819  0.7872
  798MOL0     C 7602   2.775   1.541   4.285  0.0487  0.6805  0.6338
  798MOL0     O 7603   2.917   1.539   4.286  0.1856  0.5441  0.4139
  798MOL0     C 7604   2.986   1.431   4.216 -0.2577  1.1502 -0.4538
  798MOL0     C 7605   3.131   1.458   4.253 -0.5831  0.0263  0.8542
  798MOL0     C 7606   3.198   1.552   4.138 -0.5216  0.6323 -0.5855
  798MOL0     C 7607   3.353   1.551   4.174  0.0811 -0.0064  0.1805
  798MOL0     C 7608   3.431   1.641   4.073  0.5131 -0.2485  0.5135
  798MOL0     C 7609   3.579   1.606   4.083  0.1311 -0.0315 -0.1897
  798MOL0     C 7610   3.651   1.626   4.218 -0.2231 -0.4446 -0.0087
  798MOL0     C 7611   3.803   1.590   4.192  1.6575 -0.2341 -0.2831
  798MOL0     N 7612   3.865   1.627   4.064  0.0210  0.0434  0.4284
  798MOL0     C 7613   3.941   1.738   4.050 -0.6169  0.5386 -0.5801
  798MOL0     C 7614   3.987   1.732   3.921  0.4590 -0.5593 -0.2928
  798MOL0     C 7615   4.071   1.848   3.873 -0.4598 -0.3365  0.5818
  798MOL0     C 7616   4.210   1.836   3.947 -0.2048 -0.5718 -0.3212
  798MOL0     C 7617   4.330   1.808   3.858  0.2888  0.2259 -0.5045
  798MOL0     C 7618   4.454   1.812   3.944 -0.9787  0.6731  0.7654
  798MOL0     O 7619   4.451   1.718   4.053 -0.2936  1.1390  0.3030
  798MOL0     C 7620   4.551   1.719   4.136 -0.1213 -1.3704 -0.5664
  798MOL0     C 7621   4.630   1.837   4.164 -0.1588 -0.1287 -0.9608
  798MOL0     C 7622   4.723   1.836   4.254 -0.1410  0.0960  0.1407
  798MOL0     C 7623   4.759   1.713   4.318 -0.4463  0.9912  0.0658
  798MOL0     C 7624   4.856   1.722   4.434  0.6665  0.1096 -0.3874
  798MOL0     O 7625   4.857   1.615   4.515 -0.5519  0.2003  0.4690
  798MOL0     C 7626   4.951   1.606   4.611  0.3678 -0.3513  0.1555
  798MOL0     C 7627   5.035   1.498   4.594  0.7714 -0.4502  0.0937
  798MOL0     C 7628   5.142   1.476   4.676  0.3923  0.7851 -0.0514
  798MOL0     C 7629   5.155   1.556   4.788  0.6993  0.9504  0.1156
  798MOL0     O 7630   5.250   1.518   4.875  0.0443 -0.1529 -0.2096
  798MOL0     C 7631   5.251   1.588   5.001  1.0419  0.1229  0.9269
  798MOL0     C 7632   5.132   1.544   5.090  0.6862  0.5276 -0.1098
  798MOL0     C 7633   5.141   1.397   5.133 -0.1506 -0.4966 -0.0362
  798MOL0     C 7634   5.029   1.353   5.224  0.3512  0.7784  0.1761
  798MOL0     C 7635   5.046   1.212   5.289  0.3484  0.0122 -0.9614
  798MOL0     C 7636   4.911   1.173   5.350 -0.5010  0.6841  1.2627
  798MOL0     C 7637   4.930   1.027   5.401 -0.0514  0.1686 -0.0367
  798MOL0     C 7638   4.804   0.971   5.483 -0.3296  0.8084 -0.3525
  798MOL0    Cl 7639   4.677   0.927   5.368 -0.2310 -0.5094 -0.0336
  798MOL0     C 7640   5.062   1.670   4.810  0.4070 -0.9802  0.0843
  798MOL0     C 7641   4.958   1.692   4.715  0.6119  0.2270  0.5081
  798MOL0     O 7642   4.916   1.825   4.448  0.3932  0.2223  0.5936
  798MOL0     C 7643   4.701   1.595   4.288  0.0082 -0.8812 -0.4869
  798MOL0     C 7644   4.589   1.600   4.202  0.2515 -0.7968  0.3249
  798MOL0     N 7645   3.944   1.617   3.854  0.3148 -0.4531 -1.0273
  798MOL0     N 7646   3.881   1.548   3.943  1.0453 -0.3339  0.4915
  798MOL0     C 7647   2.717   1.629   4.369 -0.3382 -0.0338  0.1266
  798MOL0     C 7648   2.585   1.651   4.351 -0.2057 -0.1520  0.2612
  798MOL0     C 7649   2.172   1.671   4.147  0.0088  0.1730 -0.4621
  798MOL0     C 7650   2.098   1.581   4.229 -0.5107 -1.4376 -0.1353
  798MOL0     C 7651   1.957   1.598   4.222 -1.2054  0.9563 -0.4636
  798MOL0     C 7652   1.896   1.683   4.139  1.0613  0.0304 -0.0102
  798MOL0     O 7653   1.763   1.701   4.147  0.3715  0.0307 -0.3036
  798MOL0     C 7654   1.694   1.810   4.074  0.8775  0.0917  0.5431
  798MOL0     C 7655   1.547   1.796   4.109  1.1442 -0.6777  0.8056
  798MOL0     C 7656   1.516   1.647   4.078  0.5215 -0.6132 -0.2034
  798MOL0     C 7657   1.364   1.627   4.076 -0.0419  0.8114 -0.6837
  798MOL0     C 7658   1.279   1.670   3.965 -0.7300 -0.0761  0.1550
  798MOL0     C 7659   1.193   1.700   3.885  0.2160 -0.2421 -1.1631
  798MOL0     C 7660   1.974   1.765   4.052 -0.6139  0.5452  0.0382
  798MOL0     C 7661   2.115   1.760   4.055  0.4774 -1.0516 -0.6642
  798MOL0     C 7662   2.190   1.867   3.973 -0.8285  0.0376  0.6745
  798MOL0     H 7663   2.496   1.409   4.130 -1.3613  0.5685 -0.6736
  798MOL0     H 7664   2.751   1.391   4.130 -1.5681  0.0971 -0.4987
  798MOL0     H 7665   2.954   1.336   4.261  2.3398  0.0645 -0.7432
  798MOL0     H 7666   2.967   1.415   4.110 -0.6202 -0.7065 -0.1530
  798MOL0     H 7667   3.196   1.370   4.256  1.3981  1.4254  0.4676
  798MOL0     H 7668   3.146   1.503   4.351 -1.4643 -2.4596  2.2193
  798MOL0     H 7669   3.153   1.651   4.145 -1.4866  0.1526  0.1896
  798MOL0     H 7670   3.182   1.506   4.040 -0.4073 -2.6439  0.7775
  798MOL0     H 7671   3.372   1.574   4.279 -2.7994 -0.4554  0.9039
  798MOL0     H 7672   3.393   1.450   4.160  2.3845  0.6128  1.8527
  798MOL0     H 7673   3.388   1.618   3.975  2.5676 -1.8092 -0.0972
  798MOL0     H 7674   3.406   1.742   4.107 -2.1593 -1.0076  1.0636
  798MOL0     H 7675   3.590   1.501   4.054 -0.2932  0.4019 -2.0391
  798MOL0     H 7676   3.639   1.655   4.007  1.7763 -0.2382  0.9242
  798MOL0     H 7677   3.598   1.580   4.302 -0.1421  2.1112  1.5236
  798MOL0     H 7678   3.651   1.732   4.243  0.5022  0.1381 -2.2495
  798MOL0     H 7679   3.862   1.633   4.273  2.8852  1.1982 -1.8696
  798MOL0     H 7680   3.806   1.480   4.194 -4.2791 -0.7665 -1.8619
  798MOL0     H 7681   3.952   1.817   4.124 -1.9828 -0.3356  0.6199
  798MOL0     H 7682   4.105   1.839   3.770  0.6704 -0.6856  0.9716
  798MOL0     H 7683   4.021   1.944   3.888 -0.9542 -0.4156 -0.4696
  798MOL0     H 7684   4.216   1.933   3.997  0.4922 -1.5238  1.5402
  798MOL0     H 7685   4.203   1.754   4.018  4.0045 -1.2892 -0.5042
  798MOL0     H 7686   4.335   1.887   3.783  0.4122 -0.2224 -0.9765
  798MOL0     H 7687   4.321   1.711   3.808  0.5939  1.3204 -2.7989
  798MOL0     H 7688   4.459   1.918   3.972 -0.6095  0.7450  0.4298
  798MOL0     H 7689   4.532   1.801   3.868 -1.6572  1.5413 -0.0859
  798MOL0     H 7690   4.634   1.934   4.116  1.0303  0.8564  1.0146
  798MOL0     H 7691   4.790   1.921   4.266 -0.4724  0.3755  0.0214
  798MOL0     H 7692   5.000   1.429   4.518 -0.5918  1.5477 -1.1878
  798MOL0     H 7693   5.222   1.408   4.650  0.6085  0.9204  0.2578
  798MOL0     H 7694   5.349   1.575   5.047  1.8881 -0.6548 -0.9830
  798MOL0     H 7695   5.242   1.695   4.978 -2.9136 -0.0111  1.1907
  798MOL0     H 7696   5.132   1.603   5.182 -0.6058 -1.1308  1.0027
  798MOL0     H 7697   5.041   1.563   5.033  2.2161  3.4359 -1.8699
  798MOL0     H 7698   5.137   1.327   5.049 -0.6480 -0.6936  0.1486
  798MOL0     H 7699   5.238   1.377   5.181 -1.0940 -3.0834  0.9918
  798MOL0     H 7700   4.928   1.355   5.182  0.6751  2.8545 -0.6116
  798MOL0     H 7701   5.029   1.432   5.300  0.8723  2.8947 -1.9175
  798MOL0     H 7702   5.131   1.212   5.356  0.5325  1.6341 -1.1516
  798MOL0     H 7703   5.071   1.144   5.207  3.0650 -1.6621  1.0889
  798MOL0     H 7704   4.893   1.245   5.431 -2.3958  5.3300 -2.8155
  798MOL0     H 7705   4.833   1.177   5.274 -0.6033 -1.4441  1.2023
  798MOL0     H 7706   5.015   1.030   5.469 -0.3678  1.3127  0.3276
  798MOL0     H 7707   4.957   0.963   5.317  1.3647  1.5873 -0.6976
  798MOL0     H 7708   4.834   0.885   5.543  1.9615  1.6913 -0.1039
  798MOL0     H 7709   4.757   1.054   5.536 -2.4114  0.1549 -1.0900
  798MOL0     H 7710   5.052   1.745   4.888 -2.7048 -0.9105 -0.2453
  798MOL0     H 7711   4.883   1.769   4.724  0.9246  0.5953  0.0018
  798MOL0     H 7712   4.744   1.503   4.326 -0.1446 -0.3939  0.9292
  798MOL0     H 7713   4.533   1.514   4.168 -3.8171  1.8742 -0.3483
  798MOL0     H 7714   2.788   1.674   4.438  2.4282 -1.8464 -1.3489
  798MOL0     H 7715   2.530   1.736   4.390  0.0570  1.1777 -2.0887
  798MOL0     H 7716   2.150   1.517   4.300 -1.3487 -1.6050  0.3434
  798MOL0     H 7717   1.901   1.537   4.293 -3.2166  0.8174 -2.0536
  798MOL0     H 7718   1.693   1.796   3.966 -2.5050  0.6594  0.3918
  798MOL0     H 7719   1.723   1.914   4.094 -0.4731  0.1076  2.6999
  798MOL0     H 7720   1.492   1.865   4.045  1.8175 -2.6883 -2.1331
  798MOL0     H 7721   1.529   1.817   4.215  0.2973  0.2097  0.4981
  798MOL0     H 7722   1.559   1.581   4.154  1.2139 -0.9606 -0.8760
  798MOL0     H 7723   1.553   1.615   3.980  1.0344 -0.6945  0.0122
  798MOL0     H 7724   1.348   1.519   4.065  0.1042  0.9441 -2.3882
  798MOL0     H 7725   1.320   1.657   4.172  0.5238 -0.9541  0.1753
  798MOL0     H 7726   1.132   1.740   3.807 -0.1633  0.6740 -0.4133
  798MOL0     H 7727   1.928   1.829   3.978 -1.2241 -3.0518 -3.0099
  798MOL0     H 7728   2.224   1.822   3.879  1.1931 -0.5863  1.6565
  798MOL0     H 7729   2.125   1.949   3.941 -1.1781 -0.1481  0.9079
  798MOL0     H 7730   2.270   1.908   4.035 -2.3994  1.1182  2.0707
  799MOL0     O 7731   2.736   2.226   9.238  0.2857  0.1614 -0.5797
  799MOL0     C 7732   2.723   2.338   9.281 -0.5178 -0.9020 -0.0483
  799MOL0     O 7733   2.811   2.443   9.268 -0.3572 -0.0399  0.1567
  799MOL0     C 7734   2.937   2.417   9.213  0.9706  0.0155  0.3950
  799MOL0     C 7735   2.951   2.375   9.077 -0.7299 -0.1180 -0.6757
  799MOL0     C 7736   3.083   2.345   9.034  0.1133 -0.0392  0.4882
  799MOL0     C 7737   3.194   2.367   9.106 -0.3044  0.0360 -0.3972
  799MOL0     O 7738   3.313   2.332   9.053 -0.0712 -0.1593 -0.2068
  799MOL0     C 7739   3.435   2.375   9.122  0.2445  0.0298 -0.2521
  799MOL0     C 7740   3.558   2.353   9.034  0.7033 -0.6869  0.4634
  799MOL0     C 7741   3.690   2.430   9.053  1.1441  0.3820  0.0170
  799MOL0     C 7742   3.726   2.443   9.203  0.2540  0.6458  0.0134
  799MOL0     C 7743   3.856   2.520   9.218 -0.4749 -0.0913 -0.4131
  799MOL0     C 7744   3.978   2.430   9.231  0.9939 -0.3023  1.1190
  799MOL0     C 7745   4.109   2.508   9.216  0.0910 -0.8390 -0.4931
  799MOL0     C 7746   4.179   2.567   9.340 -0.5387  0.5343  0.4606
  799MOL0     N 7747   4.284   2.663   9.320 -0.3383 -0.2589  0.6862
  799MOL0     C 7748   4.416   2.641   9.276 -0.2201  0.7686  0.3576
  799MOL0     C 7749   4.479   2.755   9.267 -0.0617  0.1412  0.4999
  799MOL0     C 7750   4.621   2.783   9.211  0.8059  0.3230 -0.7748
  799MOL0     C 7751   4.722   2.806   9.330  0.0213  0.2314  0.9392
  799MOL0     C 7752   4.678   2.887   9.448  1.3834 -0.0519  0.4401
  799MOL0     C 7753   4.810   2.915   9.528 -0.1666 -0.5037  0.6977
  799MOL0     O 7754   4.915   2.992   9.460  1.0480 -0.1562 -0.3901
  799MOL0     C 7755   5.050   2.979   9.502  0.4833 -0.1494 -0.0638
  799MOL0     C 7756   5.141   3.044   9.430 -0.6189 -0.5349  0.2613
  799MOL0     C 7757   5.276   3.060   9.477 -0.3093 -0.7216  0.1062
  799MOL0     C 7758   5.314   2.996   9.593  0.1289  0.6702  0.2413
  799MOL0     C 7759   5.458   3.007   9.633 -0.4052  0.5248 -0.2756
  799MOL0     O 7760   5.548   3.071   9.545  0.3595 -0.3968  0.2139
  799MOL0     C 7761   5.679   3.053   9.582  0.9083 -1.1002  0.0660
  799MOL0     C 7762   5.753   3.139   9.661 -0.9487  0.1570 -0.0236
  799MOL0     C 7763   5.878   3.096   9.716  0.4199 -0.5336  0.1611
  799MOL0     C 7764   5.934   2.977   9.657 -0.3994 -0.3189  0.0357
  799MOL0     O 7765   6.056   2.925   9.683  0.2148  1.1239 -1.0851
  799MOL0     C 7766   6.127   2.964   9.803  0.6327 -0.8967  0.8241
  799MOL0     C 7767   6.227   2.855   9.839 -0.1127 -0.0897  0.2625
  799MOL0     C 7768   6.321   2.898   9.954 -0.5151 -0.3803  0.1115
  799MOL0     C 7769   6.403   2.784  10.011 -0.2403  0.5261 -0.0914
  799MOL0     C 7770   6.482   2.836  10.127 -0.1194 -0.2616  0.5551
  799MOL0     C 7771   6.559   2.711  10.192 -0.2136 -0.8064 -0.5047
  799MOL0     C 7772   6.703   2.692  10.136 -1.0314  0.3334 -0.2003
  799MOL0     C 7773   6.790   2.579  10.197  0.3770  0.7317  0.2551
  799MOL0    Cl 7774   6.795   2.598  10.380 -0.0769 -0.0696 -0.2714
  799MOL0     C 7775   5.866   2.903   9.561  0.0202  1.0336  0.1443
  799MOL0     C 7776   5.735   2.931   9.522  1.1685  0.1706 -0.8170
  799MOL0     O 7777   5.492   2.950   9.739  0.3804  0.5351 -0.1794
  799MOL0     C 7778   5.224   2.904   9.650 -0.1640 -0.9779 -0.1367
  799MOL0     C 7779   5.092   2.903   9.612  0.5863  0.8847  0.2113
  799MOL0     N 7780   4.391   2.844   9.318 -0.0301 -0.1226 -0.4578
  799MOL0     N 7781   4.276   2.794   9.345 -0.5246  0.5708  0.5030
  799MOL0     C 7782   3.175   2.432   9.231  0.3626 -0.5487  0.8798
  799MOL0     C 7783   3.049   2.445   9.289 -0.6295  0.0486  0.5981
  799MOL0     C 7784   2.591   2.366   9.346 -0.2164  0.2436  0.7302
  799MOL0     C 7785   2.528   2.491   9.334  0.2297  0.1102 -0.7609
  799MOL0     C 7786   2.393   2.516   9.370  0.0867 -0.2252  0.1145
  799MOL0     C 7787   2.312   2.415   9.403 -0.0027  0.4980  1.0615
  799MOL0     O 7788   2.178   2.431   9.424 -0.1431 -0.1356 -0.3463
  799MOL0     C 7789   2.105   2.509   9.327  0.1416  0.9980 -0.0820
  799MOL0     C 7790   1.969   2.432   9.326  0.6403 -0.1172  0.4978
  799MOL0     C 7791   1.881   2.458   9.453 -0.1662 -0.2254  0.0009
  799MOL0     C 7792   1.751   2.385   9.446  0.7590  1.0321  0.4536
  799MOL0     C 7793   1.678   2.389   9.573  0.2574  0.4727  0.6536
  799MOL0     C 7794   1.616   2.381   9.678 -0.8388 -0.3485  0.0666
  799MOL0     C 7795   2.368   2.295   9.419 -0.4096  1.2582  0.1316
  799MOL0     C 7796   2.503   2.265   9.395  0.0169  0.0554  0.0157
  799MOL0     C 7797   2.553   2.139   9.448 -0.5358  0.6931  0.1782
  799MOL0     H 7798   2.865   2.361   9.012 -1.9516  2.6184  0.2057
  799MOL0     H 7799   3.094   2.313   8.931 -1.4208  0.6617  0.0846
  799MOL0     H 7800   3.426   2.481   9.146  0.1725  0.1990 -1.0210
  799MOL0     H 7801   3.455   2.320   9.215  1.3681  0.8835  0.0383
  799MOL0     H 7802   3.522   2.375   8.933 -1.2277 -0.6089  1.1311
  799MOL0     H 7803   3.580   2.246   9.042  0.3764 -1.0045 -2.0378
  799MOL0     H 7804   3.687   2.530   9.009 -0.4434  0.5290  0.4021
  799MOL0     H 7805   3.768   2.370   9.005 -0.2321 -1.2715 -0.2429
  799MOL0     H 7806   3.646   2.505   9.246  0.6062  2.3642 -1.6946
  799MOL0     H 7807   3.731   2.350   9.261 -1.0910 -0.7392 -1.9439
  799MOL0     H 7808   3.871   2.589   9.134 -0.7646 -0.0908 -0.4636
  799MOL0     H 7809   3.852   2.575   9.312  1.1881 -1.0910  0.2929
  799MOL0     H 7810   3.960   2.380   9.326 -2.8420 -1.8204 -0.2159
  799MOL0     H 7811   3.972   2.360   9.147  0.3080  1.8016 -0.6851
  799MOL0     H 7812   4.080   2.600   9.165 -0.8018 -0.7236  0.2021
  799MOL0     H 7813   4.184   2.442   9.172  0.6616  0.1727 -1.0663
  799MOL0     H 7814   4.108   2.616   9.407  0.2292  1.9453  0.2920
  799MOL0     H 7815   4.220   2.481   9.394  2.3476  2.5196  1.7360
  799MOL0     H 7816   4.481   2.555   9.269  1.5615  1.9196  1.8072
  799MOL0     H 7817   4.654   2.701   9.147 -0.2453 -0.4398 -0.3725
  799MOL0     H 7818   4.607   2.870   9.146  0.8526 -0.4452 -1.8306
  799MOL0     H 7819   4.761   2.711   9.367  0.2910  0.2735  0.7639
  799MOL0     H 7820   4.807   2.855   9.282 -0.3966 -1.1299 -1.3901
  799MOL0     H 7821   4.605   2.837   9.513  1.3024  0.9245  1.1259
  799MOL0     H 7822   4.640   2.979   9.403 -0.7951 -1.8459 -1.6684
  799MOL0     H 7823   4.850   2.817   9.558 -0.9201 -1.0792 -0.1263
  799MOL0     H 7824   4.798   2.971   9.621 -0.9144  0.1502  0.2174
  799MOL0     H 7825   5.115   3.073   9.329 -0.7344 -2.2327 -0.2402
  799MOL0     H 7826   5.342   3.124   9.420 -0.4150 -1.4999 -0.9113
  799MOL0     H 7827   5.701   3.230   9.686  0.1954  0.7358  0.2797
  799MOL0     H 7828   5.922   3.165   9.787 -1.8871  0.6459  0.5398
  799MOL0     H 7829   6.186   3.053   9.780 -2.2325  0.4516 -2.0719
  799MOL0     H 7830   6.065   2.995   9.888  1.2900 -2.1098  1.7785
  799MOL0     H 7831   6.176   2.761   9.864 -0.0170 -0.6727 -1.6257
  799MOL0     H 7832   6.284   2.838   9.747 -1.0656  0.6465 -0.4775
  799MOL0     H 7833   6.392   2.972   9.917  0.3963 -2.0432 -1.6540
  799MOL0     H 7834   6.254   2.931  10.034  1.3066  0.5646  1.3259
  799MOL0     H 7835   6.475   2.745   9.938 -0.2717  1.9307 -0.9017
  799MOL0     H 7836   6.356   2.694  10.051  0.3505 -0.7140 -2.0980
  799MOL0     H 7837   6.425   2.878  10.209  0.4745 -0.2188  0.9530
  799MOL0     H 7838   6.552   2.917  10.104 -1.3574  1.4394  2.4686
  799MOL0     H 7839   6.567   2.733  10.299  2.7569  0.7662 -0.9381
  799MOL0     H 7840   6.500   2.619  10.184 -0.4520 -0.6566 -0.4706
  799MOL0     H 7841   6.749   2.790  10.153  0.3673 -0.5963  1.6727
  799MOL0     H 7842   6.698   2.678  10.028 -0.5975  0.4869 -0.2386
  799MOL0     H 7843   6.735   2.487  10.175 -0.7029  0.9490  1.9091
  799MOL0     H 7844   6.888   2.565  10.150 -0.7832 -5.3599 -1.2567
  799MOL0     H 7845   5.915   2.811   9.533 -2.3843 -0.7928  1.5413
  799MOL0     H 7846   5.674   2.876   9.451  1.5288 -1.6330  0.1886
  799MOL0     H 7847   5.257   2.841   9.732 -0.1202 -2.3701 -1.1931
  799MOL0     H 7848   5.036   2.829   9.669  0.6234 -0.0681 -0.9253
  799MOL0     H 7849   3.264   2.469   9.281 -0.2693  2.4230  0.0036
  799MOL0     H 7850   3.048   2.469   9.395 -2.6557  3.4438 -0.0456
  799MOL0     H 7851   2.591   2.573   9.303  0.4404  0.8522  1.4629
  799MOL0     H 7852   2.357   2.618   9.362 -1.6856 -0.9708 -2.6435
  799MOL0     H 7853   2.151   2.509   9.228 -2.0247  2.2797 -1.1650
  799MOL0     H 7854   2.074   2.607   9.365  1.3094  0.9668  1.0090
  799MOL0     H 7855   1.993   2.329   9.300  2.2254  0.7904 -1.9333
  799MOL0     H 7856   1.917   2.473   9.239  1.1706 -1.2083 -0.3569
  799MOL0     H 7857   1.874   2.567   9.468  2.7137  0.0942 -0.3642
  799MOL0     H 7858   1.940   2.433   9.542  2.5058  3.9295 -0.2982
  799MOL0     H 7859   1.694   2.428   9.363 -2.7887 -4.0272 -0.1703
  799MOL0     H 7860   1.767   2.280   9.420 -3.4354 -0.2436  2.1907
  799MOL0     H 7861   1.554   2.387   9.765  1.4674  1.6216  1.7152
  799MOL0     H 7862   2.301   2.214   9.444 -2.6982  2.6663 -1.0270
  799MOL0     H 7863   2.635   2.155   9.517  1.3554 -0.2316 -1.7383
  799MOL0     H 7864   2.480   2.081   9.505 -3.0535  0.2093 -3.2094
  799MOL0     H 7865   2.585   2.069   9.370 -0.9238 -2.8382  2.8932
  800MOL0     O 7866   8.843   4.471   8.305  0.0824  0.3521  0.7189
  800MOL0     C 7867   8.841   4.361   8.357  1.0276 -0.2379  0.6828
  800MOL0     O 7868   8.943   4.302   8.426 -0.7761  0.1222  0.5900
  800MOL0     C 7869   9.070   4.343   8.438 -0.3177  0.5756  1.0842
  800MOL0     C 7870   9.132   4.460   8.397 -0.3396  0.3566  0.4487
  800MOL0     C 7871   9.250   4.508   8.459  0.7980 -0.4298  0.2086
  800MOL0     C 7872   9.310   4.428   8.557 -0.6526 -0.5996  0.1052
  800MOL0     O 7873   9.427   4.471   8.607 -0.0251  0.0618  0.0313
  800MOL0     C 7874   9.537   4.425   8.528  0.5297  0.8392 -0.8241
  800MOL0     C 7875   9.640   4.533   8.534  0.4397  0.0088 -0.9140
  800MOL0     C 7876   9.770   4.452   8.511 -0.6606 -0.4283 -0.0721
  800MOL0     C 7877   9.875   4.533   8.432  0.7584 -0.2778  0.1121
  800MOL0     C 7878   9.998   4.458   8.387 -0.2542  0.0111 -0.4560
  800MOL0     C 7879  10.102   4.552   8.350  0.4528 -0.4355 -0.4059
  800MOL0     C 7880  10.228   4.489   8.296 -0.2677  0.1387  0.3092
  800MOL0     C 7881  10.341   4.586   8.250 -0.3625 -0.7755 -0.4701
  800MOL0     N 7882  10.476   4.523   8.246 -0.2288  0.0451 -0.6488
  800MOL0     C 7883  10.512   4.402   8.177  0.0917  0.0241  0.2713
  800MOL0     C 7884  10.644   4.383   8.182 -0.1187 -0.5700 -0.1023
  800MOL0     C 7885  10.726   4.280   8.099  0.5780  0.4073  0.8339
  800MOL0     C 7886  10.867   4.345   8.067  0.4940 -0.5108  0.0564
  800MOL0     C 7887  10.941   4.257   7.973  0.2878 -0.1195  0.0217
  800MOL0     C 7888  11.087   4.301   7.957  0.6948 -0.4096  0.7246
  800MOL0     O 7889  11.152   4.191   7.893 -0.1443  0.4744  0.7072
  800MOL0     C 7890  11.287   4.189   7.888  0.7083  0.2714  0.0234
  800MOL0     C 7891  11.380   4.264   7.956  0.0795 -0.2973  0.1397
  800MOL0     C 7892  11.519   4.256   7.937  0.2355  0.2129  0.2535
  800MOL0     C 7893  11.571   4.162   7.846  0.7641 -0.3552 -0.6611
  800MOL0     C 7894  11.714   4.151   7.821  0.5136 -0.7767 -0.1656
  800MOL0     O 7895  11.796   4.258   7.855  0.2443 -0.6129  0.5968
  800MOL0     C 7896  11.932   4.246   7.865 -0.6105 -0.2325 -0.1232
  800MOL0     C 7897  12.007   4.180   7.763  0.1858  0.2369  0.7687
  800MOL0     C 7898  12.147   4.184   7.769  0.3554  0.4967 -0.1076
  800MOL0     C 7899  12.212   4.254   7.872 -0.7694  0.6546  0.5451
  800MOL0     O 7900  12.354   4.258   7.896 -0.5429 -0.8159 -0.2305
  800MOL0     C 7901  12.435   4.236   7.787 -0.0220 -0.1611  0.6000
  800MOL0     C 7902  12.591   4.261   7.806  0.3262 -0.4222  0.0281
  800MOL0     C 7903  12.640   4.214   7.664  0.8791  0.3038 -1.0341
  800MOL0     C 7904  12.797   4.233   7.663  0.3728 -0.2450  0.0970
  800MOL0     C 7905  12.853   4.160   7.547  0.3379  0.5785  0.0716
  800MOL0     C 7906  12.853   4.008   7.563 -0.0080 -0.7441 -0.5665
  800MOL0     C 7907  12.814   3.933   7.436 -0.5503 -0.5321 -0.9404
  800MOL0     C 7908  12.870   3.795   7.447  0.4018 -0.0722  0.5756
  800MOL0    Cl 7909  13.044   3.811   7.401  0.1538  0.0602  0.2951
  800MOL0     C 7910  12.138   4.323   7.965  0.6870 -0.0484 -0.5474
  800MOL0     C 7911  11.996   4.315   7.960 -0.0705 -1.1356 -0.0771
  800MOL0     O 7912  11.751   4.039   7.774 -0.3002  0.1944 -0.1135
  800MOL0     C 7913  11.475   4.085   7.780 -0.3525  0.5881  0.3972
  800MOL0     C 7914  11.339   4.097   7.801  0.4091  0.0858 -0.2017
  800MOL0     N 7915  10.681   4.482   8.272  0.5974 -0.0665 -0.0170
  800MOL0     N 7916  10.587   4.552   8.312  0.5460  0.2364  0.1814
  800MOL0     C 7917   9.255   4.304   8.591  0.0925  0.1789 -0.1004
  800MOL0     C 7918   9.140   4.269   8.531  0.5618  0.1968 -0.7751
  800MOL0     C 7919   8.722   4.283   8.337 -0.6749  0.9840  0.0506
  800MOL0     C 7920   8.656   4.284   8.215  0.4724  0.7980 -0.8127
  800MOL0     C 7921   8.545   4.211   8.189  0.3080  0.0791  0.3664
  800MOL0     C 7922   8.490   4.125   8.279  1.0875 -0.9940  0.1313
  800MOL0     O 7923   8.384   4.056   8.232 -0.2220  0.2618 -0.0684
  800MOL0     C 7924   8.313   3.978   8.332  0.5040 -0.5849  0.3639
  800MOL0     C 7925   8.175   3.953   8.266  0.3913 -0.1239 -0.2303
  800MOL0     C 7926   8.081   3.901   8.369  0.3224 -0.3635 -0.3701
  800MOL0     C 7927   7.932   3.891   8.333  0.1962  0.2912  0.3412
  800MOL0     C 7928   7.875   4.015   8.284 -0.3461  0.3350 -0.6958
  800MOL0     C 7929   7.827   4.121   8.255  0.5911 -0.3526  0.2286
  800MOL0     C 7930   8.547   4.126   8.400  0.4438  0.7594 -0.8286
  800MOL0     C 7931   8.658   4.208   8.435 -0.5814  0.0658 -0.0465
  800MOL0     C 7932   8.713   4.216   8.577  0.6864 -0.7972 -0.1906
  800MOL0     H 7933   9.094   4.527   8.320  1.7223  2.0817  0.8219
  800MOL0     H 7934   9.281   4.611   8.446  3.1549 -1.0693  0.2378
  800MOL0     H 7935   9.573   4.331   8.568  0.2509  1.3350  0.6425
  800MOL0     H 7936   9.501   4.409   8.426 -0.4969 -0.1562 -0.3251
  800MOL0     H 7937   9.653   4.580   8.632  1.2409  1.9353 -1.9026
  800MOL0     H 7938   9.620   4.617   8.468 -1.1769  0.1683 -0.2606
  800MOL0     H 7939   9.759   4.369   8.441 -0.2791 -0.7106  0.2012
  800MOL0     H 7940   9.817   4.420   8.605  2.6533  4.3741  0.2823
  800MOL0     H 7941   9.831   4.565   8.336 -1.6919 -1.1713  0.8597
  800MOL0     H 7942   9.907   4.619   8.491  0.4284  1.0280 -1.5047
  800MOL0     H 7943  10.037   4.394   8.467  1.1802 -0.3667 -1.4065
  800MOL0     H 7944   9.974   4.399   8.298 -3.2419 -0.1630  0.3571
  800MOL0     H 7945  10.064   4.616   8.270 -1.6068  0.4980  1.2109
  800MOL0     H 7946  10.123   4.623   8.431  1.1738  0.0296 -0.9966
  800MOL0     H 7947  10.204   4.422   8.213  2.6424  0.1507 -0.6453
  800MOL0     H 7948  10.266   4.428   8.378 -1.6673  0.9893  1.6511
  800MOL0     H 7949  10.330   4.632   8.151  0.8474  0.2536 -0.1479
  800MOL0     H 7950  10.350   4.670   8.319 -0.0836 -0.2876 -1.0955
  800MOL0     H 7951  10.446   4.345   8.113 -0.9031  2.8427 -1.3950
  800MOL0     H 7952  10.729   4.176   8.133  0.6187  0.0313 -0.2496
  800MOL0     H 7953  10.686   4.278   7.997  0.5717  2.7819  0.7444
  800MOL0     H 7954  10.860   4.438   8.010  0.4424 -0.8577 -0.5198
  800MOL0     H 7955  10.913   4.358   8.165 -1.4972  0.1890  0.9627
  800MOL0     H 7956  10.894   4.256   7.874  0.8216  1.4551 -0.2699
  800MOL0     H 7957  10.930   4.156   8.015  0.5649 -0.7301 -1.3264
  800MOL0     H 7958  11.139   4.318   8.051  0.0259  0.7741  0.8981
  800MOL0     H 7959  11.080   4.392   7.896 -0.8306 -0.1015  1.3122
  800MOL0     H 7960  11.357   4.327   8.041 -1.1588 -0.0482 -0.3463
  800MOL0     H 7961  11.587   4.315   7.998 -1.2244  1.1160  1.0548
  800MOL0     H 7962  11.966   4.133   7.675 -0.2908  0.1323  1.0400
  800MOL0     H 7963  12.198   4.128   7.692 -2.7744 -2.6967 -0.1262
  800MOL0     H 7964  12.420   4.134   7.752  0.2577 -1.0954  3.0405
  800MOL0     H 7965  12.404   4.297   7.701  0.4211  1.5196  1.5765
  800MOL0     H 7966  12.604   4.369   7.817 -2.4362  0.1090 -1.1620
  800MOL0     H 7967  12.629   4.204   7.891 -0.8953  0.0821  0.9437
  800MOL0     H 7968  12.615   4.108   7.659 -0.9371  0.6486 -0.2391
  800MOL0     H 7969  12.593   4.269   7.581  1.3908  2.0419 -0.2213
  800MOL0     H 7970  12.846   4.206   7.757 -0.2252  0.4081  0.6058
  800MOL0     H 7971  12.815   4.339   7.645  3.5036 -0.4983  1.1941
  800MOL0     H 7972  12.955   4.199   7.538  0.2366  0.3218 -3.2471
  800MOL0     H 7973  12.804   4.187   7.453 -0.1089 -3.2417 -0.9723
  800MOL0     H 7974  12.949   3.971   7.598 -0.1364 -0.5195  0.0314
  800MOL0     H 7975  12.792   3.978   7.649  0.7477  1.1930  0.7084
  800MOL0     H 7976  12.864   3.986   7.354 -0.1177  0.9316  0.2302
  800MOL0     H 7977  12.707   3.922   7.416 -0.9496 -1.6913  1.5633
  800MOL0     H 7978  12.846   3.746   7.542 -3.0166  0.3370  0.0468
  800MOL0     H 7979  12.821   3.733   7.372  4.7724 -2.5300 -0.5928
  800MOL0     H 7980  12.179   4.372   8.053  0.7818  2.9319 -2.1105
  800MOL0     H 7981  11.937   4.363   8.038  0.7027  2.0219 -1.2884
  800MOL0     H 7982  11.514   4.023   7.701 -3.4367  0.5847 -1.2836
  800MOL0     H 7983  11.276   4.034   7.738 -1.7051 -0.8486  2.6262
  800MOL0     H 7984   9.291   4.247   8.676  1.0629 -0.4843 -0.9365
  800MOL0     H 7985   9.080   4.195   8.583  1.7719 -1.0386 -1.0743
  800MOL0     H 7986   8.687   4.361   8.145 -0.7715 -1.0560 -3.5649
  800MOL0     H 7987   8.500   4.213   8.091  2.6971 -2.3557 -0.9061
  800MOL0     H 7988   8.298   4.028   8.428  3.0818  1.6966 -0.3114
  800MOL0     H 7989   8.368   3.885   8.343  2.1224  0.5844  2.8246
  800MOL0     H 7990   8.190   3.873   8.193  0.4420 -1.4852  1.1978
  800MOL0     H 7991   8.140   4.047   8.223  1.5964  1.5904  2.2936
  800MOL0     H 7992   8.096   3.956   8.463 -2.8525 -0.6391  0.4125
  800MOL0     H 7993   8.116   3.799   8.390  1.9946 -0.2162 -2.1547
  800MOL0     H 7994   7.909   3.816   8.256 -1.7783  1.8863 -0.7148
  800MOL0     H 7995   7.880   3.856   8.423 -0.6859 -2.0414 -0.9845
  800MOL0     H 7996   7.801   4.221   8.225  1.7087 -1.2478 -4.5684
  800MOL0     H 7997   8.501   4.068   8.479  1.5542  1.2046  0.1783
  800MOL0     H 7998   8.800   4.155   8.601  2.0622  2.3481  4.2969
  800MOL0     H 7999   8.734   4.324   8.580 -1.7883 -0.1138 -2.9710
  800MOL0     H 8000   8.638   4.189   8.653 -0.2745  0.5515 -0.6061
  801MOL0     O 8001   4.041  10.196   1.767  0.8565 -1.1398 -0.7681
  801MOL0     C 8002   4.012  10.078   1.796 -0.0452 -0.6526  0.1894
  801MOL0     O 8003   3.891  10.020   1.786  0.0857  0.2889 -0.1524
  801MOL0     C 8004   3.781  10.098   1.735  0.1286 -0.2871 -1.2657
  801MOL0     C 8005   3.728  10.060   1.611  0.8981 -0.6315 -0.0931
  801MOL0     C 8006   3.622  10.128   1.558 -0.9452  0.1454 -0.0589
  801MOL0     C 8007   3.576  10.243   1.621 -0.2185  0.2580  0.2472
  801MOL0     O 8008   3.468  10.315   1.559 -0.8939  0.3999 -0.6936
  801MOL0     C 8009   3.476  10.461   1.557 -0.9464 -0.6813 -0.3932
  801MOL0     C 8010   3.390  10.526   1.660  0.0938  0.1121 -0.0879
  801MOL0     C 8011   3.235  10.502   1.620 -1.1177  0.2933 -0.4279
  801MOL0     C 8012   3.146  10.555   1.737 -0.3253  1.2012 -0.5083
  801MOL0     C 8013   2.997  10.543   1.700  0.0929  0.0042 -0.0348
  801MOL0     C 8014   2.945  10.393   1.693 -0.7384  0.7309 -0.0309
  801MOL0     C 8015   2.794  10.394   1.668  1.0780  0.6429 -0.1483
  801MOL0     C 8016   2.732  10.256   1.671 -0.6505  1.1177 -0.0718
  801MOL0     N 8017   2.782  10.164   1.563 -0.1650  0.1922  0.0418
  801MOL0     C 8018   2.728  10.163   1.442  0.4299  0.5568 -0.0361
  801MOL0     C 8019   2.785  10.068   1.373  0.1366 -0.0537  1.0332
  801MOL0     C 8020   2.753  10.043   1.235 -0.0360  0.0568 -0.7129
  801MOL0     C 8021   2.850   9.939   1.167 -0.1712  0.9574  0.6027
  801MOL0     C 8022   2.803   9.910   1.018  0.1733 -0.0537  0.1731
  801MOL0     C 8023   2.874   9.806   0.946  0.0610 -0.9022 -0.1423
  801MOL0     O 8024   3.005   9.837   0.921 -0.2747  0.9530 -0.0852
  801MOL0     C 8025   3.080   9.735   0.865  0.8456  0.6120 -0.1067
  801MOL0     C 8026   3.223   9.746   0.863  0.3066  0.6132 -0.9121
  801MOL0     C 8027   3.312   9.650   0.823 -0.3384  0.3434 -0.6837
  801MOL0     C 8028   3.261   9.534   0.761 -0.2644 -0.4803  0.0186
  801MOL0     C 8029   3.351   9.432   0.717 -0.5823 -0.1229  0.3908
  801MOL0     O 8030   3.298   9.312   0.674  0.1614  0.1286 -0.1469
  801MOL0     C 8031   3.380   9.210   0.640  0.7226 -1.0173 -0.7275
  801MOL0     C 8032   3.373   9.095   0.712  0.3136  0.4163  0.4511
  801MOL0     C 8033   3.449   8.982   0.675  0.2917  0.0712  0.3513
  801MOL0     C 8034   3.521   8.981   0.554 -0.5218 -0.0460 -0.5302
  801MOL0     O 8035   3.589   8.877   0.500 -0.9256  0.0983 -0.3939
  801MOL0     C 8036   3.526   8.752   0.513 -0.3173  0.1473  0.0975
  801MOL0     C 8037   3.611   8.646   0.442  0.1630  0.6320 -0.1399
  801MOL0     C 8038   3.647   8.681   0.297 -0.0265 -0.7563  0.0162
  801MOL0     C 8039   3.784   8.757   0.274 -0.1352  0.1000 -0.6264
  801MOL0     C 8040   3.820   8.809   0.133 -0.2082  0.5980  0.7775
  801MOL0     C 8041   3.716   8.909   0.088  0.3330  0.8338  0.1589
  801MOL0     C 8042   3.733   8.970  -0.052 -0.0177 -0.3732  0.3768
  801MOL0     C 8043   3.648   9.104  -0.069 -0.5389 -0.2281 -0.2405
  801MOL0    Cl 8044   3.684   9.198  -0.215  0.3695 -0.6098  0.2975
  801MOL0     C 8045   3.543   9.105   0.494  0.1130 -0.5003  0.3274
  801MOL0     C 8046   3.474   9.217   0.536 -0.0283  0.2459  0.4374
  801MOL0     O 8047   3.473   9.464   0.709 -0.1204 -0.1001  0.2455
  801MOL0     C 8048   3.121   9.517   0.760 -0.4466 -0.1741 -0.5956
  801MOL0     C 8049   3.038   9.608   0.808 -0.4153 -1.0327 -0.5799
  801MOL0     N 8050   2.874  10.008   1.457 -0.0515  0.3710 -0.6651
  801MOL0     N 8051   2.877  10.065   1.571 -0.1970 -0.2101 -0.3210
  801MOL0     C 8052   3.626  10.273   1.744  0.9073 -0.4123  0.5596
  801MOL0     C 8053   3.727  10.201   1.808 -0.6106  0.7327  0.6895
  801MOL0     C 8054   4.110  10.002   1.865 -0.6859  0.3752 -0.2326
  801MOL0     C 8055   4.105   9.865   1.849 -0.3049 -0.1848  0.3936
  801MOL0     C 8056   4.187   9.782   1.921 -0.5335  0.2262 -0.8036
  801MOL0     C 8057   4.276   9.823   2.017  0.3648  0.7692  0.1065
  801MOL0     O 8058   4.356   9.729   2.080  1.0629 -0.1538  0.5352
  801MOL0     C 8059   4.440   9.750   2.191 -0.0371 -0.9705  0.9939
  801MOL0     C 8060   4.500   9.631   2.258 -0.6841  1.0341  0.3770
  801MOL0     C 8061   4.605   9.666   2.365 -0.9062  0.2328  0.1372
  801MOL0     C 8062   4.610   9.570   2.481  0.8535 -0.6542 -0.0652
  801MOL0     C 8063   4.628   9.437   2.427 -0.0413 -0.1023 -0.6502
  801MOL0     C 8064   4.657   9.327   2.380 -0.6392 -0.0530 -0.1933
  801MOL0     C 8065   4.284   9.964   2.037 -0.1846  0.2578  0.1995
  801MOL0     C 8066   4.205  10.052   1.958  0.9106  0.1670  0.2912
  801MOL0     C 8067   4.213  10.201   1.980 -0.2222 -0.1023  0.1352
  801MOL0     H 8068   3.773   9.979   1.555  3.3435  1.0775 -0.7898
  801MOL0     H 8069   3.599  10.104   1.455 -1.5153  3.0610 -0.6983
  801MOL0     H 8070   3.579  10.495   1.567 -1.1992 -0.1257  0.4171
  801MOL0     H 8071   3.456  10.491   1.454  1.4266  2.6755 -0.0263
  801MOL0     H 8072   3.409  10.634   1.653  0.7292 -0.0201 -0.4051
  801MOL0     H 8073   3.393  10.489   1.763 -0.9312  0.9571  0.2751
  801MOL0     H 8074   3.219  10.396   1.598  1.1873  0.2227 -2.1973
  801MOL0     H 8075   3.240  10.565   1.531  2.3954  2.7094  1.2441
  801MOL0     H 8076   3.165  10.508   1.834  0.0404  2.0382 -0.1645
  801MOL0     H 8077   3.172  10.658   1.762  0.0040  0.9218  0.3491
  801MOL0     H 8078   2.944  10.589   1.784  1.9819  1.4810  0.4066
  801MOL0     H 8079   2.968  10.601   1.611 -1.6510 -0.7429  0.0119
  801MOL0     H 8080   3.002  10.336   1.620 -1.5838  1.6164 -1.4178
  801MOL0     H 8081   2.956  10.339   1.788 -0.8653 -0.3194 -0.6121
  801MOL0     H 8082   2.762  10.456   1.584 -2.9244  1.4802  1.7490
  801MOL0     H 8083   2.754  10.450   1.753  0.3973 -1.9490  1.3578
  801MOL0     H 8084   2.752  10.209   1.768 -0.4107  0.3617 -0.4802
  801MOL0     H 8085   2.627  10.276   1.649 -1.2353 -0.3795  1.1206
  801MOL0     H 8086   2.650  10.231   1.411  1.0728  2.4426  2.1509
  801MOL0     H 8087   2.655   9.994   1.237 -0.2157  0.4216  1.2873
  801MOL0     H 8088   2.749  10.131   1.170 -1.7518  0.6786  0.1665
  801MOL0     H 8089   2.953   9.971   1.179  0.4832 -0.7407 -0.1882
  801MOL0     H 8090   2.848   9.840   1.213 -2.4332 -1.1438 -3.3932
  801MOL0     H 8091   2.820  10.000   0.958  2.6051 -0.7648 -0.3395
  801MOL0     H 8092   2.697   9.887   1.014  0.5380 -2.0187  0.8403
  801MOL0     H 8093   2.823   9.794   0.850 -2.1038 -0.7520  0.9257
  801MOL0     H 8094   2.853   9.711   0.996  0.1359 -1.1410 -0.5711
  801MOL0     H 8095   3.269   9.836   0.903  1.7976 -0.5439  0.1364
  801MOL0     H 8096   3.419   9.663   0.834  0.2699 -1.9638 -2.9724
  801MOL0     H 8097   3.321   9.078   0.805  0.8861 -1.9977  0.4130
  801MOL0     H 8098   3.442   8.891   0.734 -0.5431 -3.5348 -4.7122
  801MOL0     H 8099   3.506   8.732   0.619  1.3606  1.5530  0.7372
  801MOL0     H 8100   3.423   8.755   0.476 -0.6574  2.0632  1.0704
  801MOL0     H 8101   3.702   8.640   0.503  0.6458 -0.0161 -0.9187
  801MOL0     H 8102   3.555   8.553   0.441  0.6242  0.3506  0.0583
  801MOL0     H 8103   3.648   8.596   0.228 -0.8794 -1.9427  1.3923
  801MOL0     H 8104   3.566   8.747   0.264 -0.1761 -0.0756  1.6280
  801MOL0     H 8105   3.860   8.692   0.318  1.6360  1.8018 -1.0039
  801MOL0     H 8106   3.802   8.843   0.340  2.1822 -0.0328 -0.9998
  801MOL0     H 8107   3.817   8.726   0.062 -0.9538  2.0448 -0.9811
  801MOL0     H 8108   3.920   8.854   0.136 -0.5507  1.5966 -0.9463
  801MOL0     H 8109   3.620   8.859   0.091  0.3237  0.8099 -0.4560
  801MOL0     H 8110   3.702   8.993   0.157  1.4638  0.5242  0.7988
  801MOL0     H 8111   3.715   8.908  -0.141 -2.4921  1.8683 -0.8448
  801MOL0     H 8112   3.837   9.003  -0.053 -0.2467  0.4310  1.5558
  801MOL0     H 8113   3.544   9.072  -0.070 -0.0458 -2.0032  0.1090
  801MOL0     H 8114   3.678   9.169   0.013  2.4888 -0.4781 -1.0068
  801MOL0     H 8115   3.601   9.114   0.403  2.6608  2.2109  2.0632
  801MOL0     H 8116   3.484   9.315   0.490  1.7495 -0.3444 -0.5124
  801MOL0     H 8117   3.074   9.428   0.718  2.2750 -1.6498 -0.7784
  801MOL0     H 8118   2.931   9.600   0.791 -0.2684  0.4983 -2.6677
  801MOL0     H 8119   3.591  10.361   1.797 -0.9620  0.0519 -1.3184
  801MOL0     H 8120   3.758  10.233   1.907  1.4835  5.6877 -1.2601
  801MOL0     H 8121   4.030   9.819   1.785 -2.0390  0.7053  1.6846
  801MOL0     H 8122   4.170   9.678   1.893 -2.8237  0.4870 -0.5351
  801MOL0     H 8123   4.387   9.804   2.270  1.4001  1.9115  0.1454
  801MOL0     H 8124   4.523   9.816   2.164  1.3106 -3.2940 -0.9225
  801MOL0     H 8125   4.548   9.572   2.179 -1.0194  1.5397 -0.2140
  801MOL0     H 8126   4.421   9.566   2.297 -0.6590  0.7045 -0.1119
  801MOL0     H 8127   4.578   9.766   2.403 -2.4051  0.7002 -1.9879
  801MOL0     H 8128   4.705   9.665   2.320 -0.9026 -1.3079  0.1277
  801MOL0     H 8129   4.690   9.585   2.554  0.1360 -1.4469  0.9168
  801MOL0     H 8130   4.516   9.578   2.538 -0.7618  0.9867 -2.7361
  801MOL0     H 8131   4.680   9.224   2.358  2.2940  0.5551 -0.3509
  801MOL0     H 8132   4.367  10.012   2.088 -0.9094  1.4102  0.3216
  801MOL0     H 8133   4.118  10.245   2.010 -0.0518 -1.2662  2.6707
  801MOL0     H 8134   4.276  10.222   2.067 -0.1205  0.7789 -0.1389
  801MOL0     H 8135   4.259  10.253   1.896 -0.4009 -1.1336 -0.6237
  802MOL0     O 8136   6.105   8.478   9.628  0.1593  0.9021  0.1760
  802MOL0     C 8137   6.029   8.494   9.725 -0.1012  0.2275  0.4606
  802MOL0     O 8138   6.066   8.528   9.849  0.1628 -0.6160 -0.2577
  802MOL0     C 8139   6.195   8.560   9.875 -1.0733 -0.6613 -0.2935
  802MOL0     C 8140   6.257   8.664   9.813  0.1365 -1.0387 -0.8101
  802MOL0     C 8141   6.381   8.723   9.844 -0.2325  0.6337  0.6598
  802MOL0     C 8142   6.448   8.673   9.963 -0.9616  0.3667  0.8035
  802MOL0     O 8143   6.564   8.724  10.003 -0.1304 -0.1466  0.1750
  802MOL0     C 8144   6.656   8.657  10.092  0.0066 -0.5197 -0.2673
  802MOL0     C 8145   6.607   8.685  10.241 -0.3642 -0.3682 -0.0200
  802MOL0     C 8146   6.670   8.587  10.350  0.3272  0.0752  0.0492
  802MOL0     C 8147   6.679   8.652  10.492  0.2504  0.5888 -0.3063
  802MOL0     C 8148   6.707   8.550  10.607  0.1522 -0.2682  0.6736
  802MOL0     C 8149   6.815   8.446  10.582 -0.2402 -0.1319  0.2227
  802MOL0     C 8150   6.966   8.486  10.606  0.5374 -1.2595  0.8216
  802MOL0     C 8151   7.032   8.541  10.482 -0.1073  0.3602 -0.4450
  802MOL0     N 8152   7.175   8.555  10.508 -0.6306 -0.9526  0.1445
  802MOL0     C 8153   7.242   8.646  10.585  0.0866  0.3059 -0.1262
  802MOL0     C 8154   7.374   8.611  10.582 -0.7011  0.5477 -0.0627
  802MOL0     C 8155   7.500   8.671  10.652 -0.6212 -0.2996 -0.5616
  802MOL0     C 8156   7.502   8.820  10.653  0.2136  0.3538 -0.0245
  802MOL0     C 8157   7.640   8.881  10.687  0.2079 -0.5295 -0.6007
  802MOL0     C 8158   7.628   9.034  10.705  0.2258  0.2346 -0.3010
  802MOL0     O 8159   7.709   9.081  10.817  0.3450 -0.3516  0.4674
  802MOL0     C 8160   7.841   9.123  10.781 -0.6635 -0.0412  0.0503
  802MOL0     C 8161   7.900   9.219  10.852 -0.4330  0.6191  0.3410
  802MOL0     C 8162   8.038   9.249  10.825  1.4386 -0.4838  0.7654
  802MOL0     C 8163   8.115   9.197  10.722 -0.1462  0.2258  0.9735
  802MOL0     C 8164   8.261   9.231  10.702 -0.0330  0.0156 -0.5290
  802MOL0     O 8165   8.322   9.169  10.606  0.6664  0.9199  0.0237
  802MOL0     C 8166   8.459   9.162  10.601  0.0333 -0.2574  0.1246
  802MOL0     C 8167   8.518   9.161  10.473  0.1142  0.8899 -0.2165
  802MOL0     C 8168   8.655   9.129  10.458  0.5984  0.0605 -1.0435
  802MOL0     C 8169   8.734   9.103  10.567  0.5984  0.1486 -0.2532
  802MOL0     O 8170   8.869   9.085  10.548  0.2134  0.0508  0.7416
  802MOL0     C 8171   8.947   9.016  10.643  0.4932  0.5899 -0.1362
  802MOL0     C 8172   9.020   8.903  10.572 -0.0113 -0.1916 -0.7395
  802MOL0     C 8173   9.123   8.955  10.468  0.3808 -0.1102  0.0040
  802MOL0     C 8174   9.254   8.988  10.538  0.4968 -0.3404  0.0045
  802MOL0     C 8175   9.369   8.998  10.435  0.4032 -0.0776 -0.2231
  802MOL0     C 8176   9.505   9.021  10.498  0.0094  0.8143 -0.2413
  802MOL0     C 8177   9.609   8.987  10.395 -0.2132  0.2074 -0.2265
  802MOL0     C 8178   9.640   9.096  10.288 -0.1471  1.0502 -0.2148
  802MOL0    Cl 8179   9.719   9.239  10.368 -0.5160 -0.3120  0.0141
  802MOL0     C 8180   8.675   9.108  10.695 -0.2258 -0.3563  0.2239
  802MOL0     C 8181   8.542   9.130  10.710  1.0989 -0.3727  0.4551
  802MOL0     O 8182   8.309   9.316  10.780  0.3235 -0.1916 -0.2261
  802MOL0     C 8183   8.046   9.098  10.651 -0.2492  0.1128 -0.1287
  802MOL0     C 8184   7.917   9.059  10.682 -0.6124 -0.6388  0.5238
  802MOL0     N 8185   7.389   8.519  10.478 -0.4166 -0.2707 -0.1176
  802MOL0     N 8186   7.272   8.488  10.431 -0.5123 -0.2489  0.3254
  802MOL0     C 8187   6.394   8.557  10.022  0.4283 -0.1843 -0.5259
  802MOL0     C 8188   6.257   8.513   9.989 -0.1303  0.7974 -0.6761
  802MOL0     C 8189   5.886   8.459   9.698  0.6161 -0.7679  0.3096
  802MOL0     C 8190   5.806   8.400   9.799  0.3613 -0.2026  0.0728
  802MOL0     C 8191   5.666   8.382   9.774 -0.7538 -1.1687 -0.2543
  802MOL0     C 8192   5.604   8.420   9.660 -1.2949  0.2821  1.0465
  802MOL0     O 8193   5.477   8.375   9.638 -0.3149 -0.3945 -0.0574
  802MOL0     C 8194   5.392   8.435   9.534  0.0224  0.2419 -0.0256
  802MOL0     C 8195   5.234   8.411   9.562  0.5489  0.5480 -0.0136
  802MOL0     C 8196   5.220   8.392   9.713  1.1236 -0.7297 -0.1108
  802MOL0     C 8197   5.072   8.387   9.755  0.1778  0.0818  0.3353
  802MOL0     C 8198   4.994   8.280   9.703  0.5005  0.0296 -0.4226
  802MOL0     C 8199   4.919   8.188   9.665  0.6655 -0.4964 -0.4566
  802MOL0     C 8200   5.680   8.488   9.561 -0.0509 -0.5944  0.2684
  802MOL0     C 8201   5.818   8.511   9.579 -0.3202  0.3921 -0.3306
  802MOL0     C 8202   5.892   8.589   9.466 -0.3344  0.3619  0.8680
  802MOL0     H 8203   6.192   8.716   9.743  0.7410 -0.6577 -1.1021
  802MOL0     H 8204   6.404   8.811   9.784 -3.3696 -0.0016 -1.7364
  802MOL0     H 8205   6.671   8.552  10.065  0.9137 -0.0662 -1.6412
  802MOL0     H 8206   6.756   8.700  10.088  0.6542 -1.9566 -0.2962
  802MOL0     H 8207   6.499   8.698  10.256  0.0096  0.4237  2.5089
  802MOL0     H 8208   6.655   8.782  10.257  0.5767 -0.7605 -0.3960
  802MOL0     H 8209   6.770   8.557  10.317  0.2665 -2.4222  1.8076
  802MOL0     H 8210   6.611   8.495  10.356  0.8253 -0.2345  0.2566
  802MOL0     H 8211   6.757   8.728  10.486  0.2361  0.5637 -0.8732
  802MOL0     H 8212   6.589   8.711  10.511 -0.3097  0.5132 -2.4263
  802MOL0     H 8213   6.736   8.608  10.695 -1.8994 -3.7178  3.9776
  802MOL0     H 8214   6.612   8.504  10.638 -0.3100  0.4604  0.3623
  802MOL0     H 8215   6.796   8.373  10.661  0.1488  0.6720  1.0801
  802MOL0     H 8216   6.800   8.397  10.486  0.7409  0.6981 -0.3716
  802MOL0     H 8217   7.027   8.396  10.624 -0.2048 -2.2559 -1.2625
  802MOL0     H 8218   6.970   8.555  10.690  1.1061 -2.2853  1.6627
  802MOL0     H 8219   7.014   8.473  10.398 -1.1625  2.9158 -2.3920
  802MOL0     H 8220   6.988   8.636  10.453  0.2468  0.6804  0.0468
  802MOL0     H 8221   7.199   8.720  10.652 -0.0990  0.9769 -0.9824
  802MOL0     H 8222   7.493   8.643  10.758 -3.8887  0.1111 -0.5486
  802MOL0     H 8223   7.598   8.639  10.615 -0.2597  0.9279 -0.7102
  802MOL0     H 8224   7.476   8.858  10.554 -1.9521 -0.1436  0.3034
  802MOL0     H 8225   7.433   8.863  10.726 -1.1185 -2.3411  0.4101
  802MOL0     H 8226   7.712   8.861  10.607 -0.5891 -2.5579 -0.8623
  802MOL0     H 8227   7.668   8.842  10.786  0.3453 -1.0431 -0.8365
  802MOL0     H 8228   7.523   9.063  10.716  0.7779  2.3075 -0.1271
  802MOL0     H 8229   7.670   9.078  10.614  0.4558  8.0484  2.8563
  802MOL0     H 8230   7.843   9.268  10.930  0.7722  0.7021  1.1845
  802MOL0     H 8231   8.068   9.332  10.887  0.6778 -0.7501  1.5096
  802MOL0     H 8232   8.449   9.185  10.394 -1.1445  1.0544  0.8905
  802MOL0     H 8233   8.691   9.128  10.356 -1.9141 -2.3786 -2.0422
  802MOL0     H 8234   9.019   9.087  10.685  1.7900 -1.0367  0.5179
  802MOL0     H 8235   8.882   8.976  10.722  0.5751  0.7703  0.0247
  802MOL0     H 8236   9.067   8.833  10.642  0.6685 -0.8826 -1.8477
  802MOL0     H 8237   8.944   8.850  10.515 -0.4223  0.7910 -1.1337
  802MOL0     H 8238   9.137   8.889  10.383  0.9540 -0.6665  0.5157
  802MOL0     H 8239   9.087   9.049  10.426  0.4303  0.9882  2.2652
  802MOL0     H 8240   9.288   8.903  10.597 -0.6357 -0.6514  0.2255
  802MOL0     H 8241   9.250   9.069  10.612 -0.7022 -1.0042  0.6890
  802MOL0     H 8242   9.352   9.076  10.360  3.3514 -0.4880 -1.4521
  802MOL0     H 8243   9.365   8.898  10.391  1.2880 -0.4535  0.5417
  802MOL0     H 8244   9.512   9.119  10.546  4.9601  1.1779 -1.1841
  802MOL0     H 8245   9.517   8.947  10.578 -2.2800  2.4143  1.7225
  802MOL0     H 8246   9.598   8.884  10.359 -1.9340 -0.1168  1.0600
  802MOL0     H 8247   9.700   8.969  10.454 -0.5385  0.4300  0.3489
  802MOL0     H 8248   9.702   9.040  10.217 -1.2230 -0.8092  0.2306
  802MOL0     H 8249   9.556   9.125  10.223  0.0531  2.0932 -0.0139
  802MOL0     H 8250   8.732   9.096  10.787  0.1548 -0.7682 -0.0619
  802MOL0     H 8251   8.504   9.127  10.812 -1.4964 -0.2795 -0.4438
  802MOL0     H 8252   8.091   9.069  10.556 -0.4268  1.6718 -0.7295
  802MOL0     H 8253   7.890   8.974  10.620  3.2600 -1.1132 -0.7885
  802MOL0     H 8254   6.445   8.493  10.093  0.5563  0.6211  0.1180
  802MOL0     H 8255   6.213   8.432  10.046  0.4471  0.5523 -0.5702
  802MOL0     H 8256   5.840   8.389   9.902 -2.7302 -1.3038  1.0833
  802MOL0     H 8257   5.604   8.342   9.854 -1.6624  0.6529 -0.0072
  802MOL0     H 8258   5.422   8.405   9.433 -0.1928  2.6771 -0.8869
  802MOL0     H 8259   5.417   8.541   9.528 -0.4047  0.2994 -1.0660
  802MOL0     H 8260   5.193   8.322   9.515 -1.0586  1.6333 -0.7639
  802MOL0     H 8261   5.168   8.482   9.511 -0.6919 -2.4195 -2.8824
  802MOL0     H 8262   5.269   8.463   9.779  1.0078  0.0637 -0.8600
  802MOL0     H 8263   5.268   8.299   9.745  2.6789 -0.1166 -0.6040
  802MOL0     H 8264   5.068   8.380   9.864  1.1235 -2.4589  0.2717
  802MOL0     H 8265   5.022   8.478   9.722  1.7878  1.6013  1.8501
  802MOL0     H 8266   4.842   8.122   9.632 -1.4032  0.7077  1.6366
  802MOL0     H 8267   5.624   8.531   9.479 -0.1641 -0.3992  0.4481
  802MOL0     H 8268   5.814   8.623   9.398  0.0377  1.8121  1.1478
  802MOL0     H 8269   5.945   8.672   9.511  1.1411 -0.8304  1.4192
  802MOL0     H 8270   5.975   8.529   9.427  0.4449  1.1464  1.2825
  803MOL0     O 8271   7.836   2.836   2.280  0.1818  0.0749  0.4588
  803MOL0     C 8272   7.769   2.748   2.232  0.0716  0.1513  0.4052
  803MOL0     O 8273   7.788   2.688   2.113 -0.2178 -0.0097 -0.2996
  803MOL0     C 8274   7.912   2.694   2.055  0.5206  0.2077 -0.0014
  803MOL0     C 8275   8.013   2.614   2.110  0.3133 -0.3302 -0.1672
  803MOL0     C 8276   8.143   2.617   2.064  0.8361 -0.1674 -0.7837
  803MOL0     C 8277   8.175   2.701   1.951  0.6360  0.1152 -0.4402
  803MOL0     O 8278   8.312   2.707   1.926 -0.0586 -0.2445 -0.3160
  803MOL0     C 8279   8.354   2.837   1.885 -0.2065  0.2794 -0.7755
  803MOL0     C 8280   8.329   2.951   1.987  0.0077 -0.1295  0.6382
  803MOL0     C 8281   8.379   2.930   2.129 -0.2498 -0.6983  0.0106
  803MOL0     C 8282   8.322   3.037   2.217 -0.5078  0.0584 -0.4254
  803MOL0     C 8283   8.365   3.043   2.371 -0.2486  0.4280 -0.6681
  803MOL0     C 8284   8.508   3.079   2.407  0.0350 -0.3685 -0.1941
  803MOL0     C 8285   8.536   3.074   2.561 -0.3659 -0.3560 -1.6164
  803MOL0     C 8286   8.495   3.216   2.632  0.2036 -0.2827 -0.2155
  803MOL0     N 8287   8.605   3.313   2.611  0.0848 -0.5933  0.6172
  803MOL0     C 8288   8.727   3.303   2.665 -0.8819  0.9028 -0.8633
  803MOL0     C 8289   8.791   3.420   2.662  0.6940 -0.1011  1.1249
  803MOL0     C 8290   8.935   3.439   2.708  0.1156 -0.6229 -0.2825
  803MOL0     C 8291   8.957   3.595   2.738  0.0243  0.0501  0.1605
  803MOL0     C 8292   9.080   3.621   2.831  0.0149 -0.0691 -0.2009
  803MOL0     C 8293   9.198   3.541   2.778 -0.3130 -0.0269 -0.0458
  803MOL0     O 8294   9.319   3.559   2.857  0.2196 -0.2485  0.1431
  803MOL0     C 8295   9.419   3.638   2.812  0.2754 -0.3132 -0.0583
  803MOL0     C 8296   9.465   3.643   2.678  0.1985  0.7280 -0.7319
  803MOL0     C 8297   9.568   3.731   2.645 -0.7550  0.3741  0.1922
  803MOL0     C 8298   9.618   3.817   2.742  0.5255 -0.5537 -0.1190
  803MOL0     C 8299   9.736   3.902   2.712  0.0406  0.0841 -0.0482
  803MOL0     O 8300   9.810   3.874   2.597  0.1969  0.1177  0.1215
  803MOL0     C 8301   9.917   3.954   2.563 -0.2734 -0.8046 -1.0193
  803MOL0     C 8302   9.904   4.094   2.560 -0.2917 -0.0923 -0.4713
  803MOL0     C 8303  10.012   4.170   2.523 -0.5395  0.0048  0.1207
  803MOL0     C 8304  10.131   4.113   2.475 -1.3214  0.5002 -0.6761
  803MOL0     O 8305  10.245   4.194   2.455  0.0706 -0.3588 -0.6824
  803MOL0     C 8306  10.338   4.193   2.559 -0.0232 -0.0081  0.1042
  803MOL0     C 8307  10.456   4.278   2.525 -0.1618 -0.2344  0.5986
  803MOL0     C 8308  10.421   4.420   2.494  0.1952 -0.1493  0.7502
  803MOL0     C 8309  10.534   4.511   2.443  0.0539 -0.0647 -0.1317
  803MOL0     C 8310  10.486   4.657   2.407  0.5940 -0.1547 -0.2034
  803MOL0     C 8311  10.369   4.682   2.306  0.7852 -0.3329 -0.6007
  803MOL0     C 8312  10.353   4.834   2.278 -0.1995  0.1678  0.0546
  803MOL0     C 8313  10.417   4.868   2.144  0.3117 -0.5188 -0.1429
  803MOL0    Cl 8314  10.601   4.836   2.151 -0.2429  0.0569  0.0651
  803MOL0     C 8315  10.150   3.975   2.472  0.9155  0.0919  0.6725
  803MOL0     C 8316  10.045   3.897   2.524  0.4290 -0.5538 -0.1620
  803MOL0     O 8317   9.752   4.002   2.785 -0.3944  0.0672  0.7460
  803MOL0     C 8318   9.582   3.795   2.873  0.0062 -0.1028  0.1240
  803MOL0     C 8319   9.479   3.717   2.908 -0.2255  0.8886  0.4478
  803MOL0     N 8320   8.701   3.507   2.609  0.3453  0.1357  0.9721
  803MOL0     N 8321   8.594   3.441   2.575  0.1931  0.0104  0.7054
  803MOL0     C 8322   8.067   2.773   1.884 -0.0407  0.1622  0.0648
  803MOL0     C 8323   7.937   2.773   1.942 -0.2841 -0.0280 -0.3507
  803MOL0     C 8324   7.659   2.707   2.316  0.6795  0.6049 -0.4723
  803MOL0     C 8325   7.551   2.644   2.244 -0.0190 -0.0773  0.1019
  803MOL0     C 8326   7.441   2.580   2.314 -0.4565 -1.0947  0.9659
  803MOL0     C 8327   7.431   2.588   2.450 -0.8820 -0.3276 -1.3103
  803MOL0     O 8328   7.325   2.526   2.507 -0.2227  0.2863  0.1531
  803MOL0     C 8329   7.332   2.505   2.649 -0.1204  0.3345 -0.6644
  803MOL0     C 8330   7.277   2.611   2.731  0.4133 -0.3664 -0.0867
  803MOL0     C 8331   7.143   2.666   2.673  0.9154 -0.7882 -0.2670
  803MOL0     C 8332   7.030   2.563   2.673 -0.1432 -0.5280 -0.1463
  803MOL0     C 8333   6.988   2.526   2.809 -0.0697  0.3246 -0.4131
  803MOL0     C 8334   6.973   2.510   2.935  0.0553  0.0970  0.0058
  803MOL0     C 8335   7.533   2.658   2.515 -0.5459 -0.3266 -1.7183
  803MOL0     C 8336   7.647   2.717   2.457 -1.0489 -1.2528  0.3567
  803MOL0     C 8337   7.746   2.805   2.539  0.5179 -0.2682  0.0670
  803MOL0     H 8338   7.978   2.557   2.196 -0.5839  0.5487  0.0636
  803MOL0     H 8339   8.217   2.564   2.124 -0.0207  0.8638  1.2605
  803MOL0     H 8340   8.460   2.835   1.859 -0.3284  1.2465 -1.4114
  803MOL0     H 8341   8.301   2.859   1.792  2.2806  1.4651 -2.0028
  803MOL0     H 8342   8.223   2.972   1.975 -0.6228 -2.3907  1.7991
  803MOL0     H 8343   8.393   3.034   1.955  0.1888 -0.3344  0.4603
  803MOL0     H 8344   8.488   2.925   2.139 -0.2572  0.9360  1.2619
  803MOL0     H 8345   8.349   2.834   2.170  0.4040 -1.2163 -0.6832
  803MOL0     H 8346   8.335   3.136   2.170  0.2699  0.6486  0.9710
  803MOL0     H 8347   8.217   3.008   2.209 -0.3061 -0.3101 -2.2088
  803MOL0     H 8348   8.294   3.110   2.422 -2.1991 -1.4108 -0.8472
  803MOL0     H 8349   8.347   2.946   2.417  1.5348  0.0540 -0.6885
  803MOL0     H 8350   8.581   3.010   2.361  4.5509  4.1963 -0.8319
  803MOL0     H 8351   8.533   3.176   2.363 -0.2920  0.5324  1.5253
  803MOL0     H 8352   8.641   3.067   2.589 -0.8947  1.7671  1.5333
  803MOL0     H 8353   8.477   2.995   2.608 -1.9358  2.3396  1.3785
  803MOL0     H 8354   8.401   3.263   2.601 -0.0950  0.2887  1.4680
  803MOL0     H 8355   8.484   3.213   2.740  1.6056 -1.1348 -0.0751
  803MOL0     H 8356   8.763   3.216   2.719 -0.1527  1.2688 -0.7448
  803MOL0     H 8357   8.949   3.377   2.797 -3.5567  0.4188  1.1743
  803MOL0     H 8358   9.004   3.420   2.625  1.0636  4.3497 -0.9469
  803MOL0     H 8359   8.971   3.635   2.637  1.0061 -4.2736 -1.6435
  803MOL0     H 8360   8.867   3.640   2.780  0.3743  1.4231 -0.5157
  803MOL0     H 8361   9.052   3.586   2.931 -1.3944  1.5548  0.0204
  803MOL0     H 8362   9.120   3.723   2.837  0.1009  0.0437 -2.0609
  803MOL0     H 8363   9.224   3.551   2.672 -0.8643 -0.7785 -0.2601
  803MOL0     H 8364   9.169   3.435   2.784 -5.1089  1.0234 -0.3525
  803MOL0     H 8365   9.424   3.575   2.605 -1.0700 -0.0388  0.6553
  803MOL0     H 8366   9.596   3.731   2.540 -0.2324  0.1352  0.3281
  803MOL0     H 8367   9.822   4.152   2.601  0.4903  2.1361 -1.8598
  803MOL0     H 8368  10.020   4.278   2.530 -0.6145  0.0513 -0.5097
  803MOL0     H 8369  10.282   4.243   2.638 -2.2858 -0.1347 -1.3281
  803MOL0     H 8370  10.376   4.093   2.583  0.7193  0.4103  0.7228
  803MOL0     H 8371  10.543   4.275   2.591 -1.2287  0.1501  2.0922
  803MOL0     H 8372  10.491   4.235   2.431 -0.7846 -3.0746  1.5744
  803MOL0     H 8373  10.345   4.413   2.416 -0.7683  2.1268  1.3874
  803MOL0     H 8374  10.390   4.463   2.590 -0.9993  1.3817 -0.2650
  803MOL0     H 8375  10.574   4.466   2.352  2.9988  1.0813  0.5076
  803MOL0     H 8376  10.618   4.518   2.512  0.2556 -1.9903 -0.1422
  803MOL0     H 8377  10.575   4.709   2.371  0.0000  0.1420 -1.2916
  803MOL0     H 8378  10.455   4.711   2.496 -0.3565  1.2182 -1.3296
  803MOL0     H 8379  10.380   4.632   2.209  0.4283 -0.1358 -0.7474
  803MOL0     H 8380  10.277   4.647   2.354  0.0533  1.7749 -0.3696
  803MOL0     H 8381  10.396   4.884   2.365 -0.4509  0.7910 -0.1720
  803MOL0     H 8382  10.248   4.862   2.268 -0.4677 -0.9748 -0.5333
  803MOL0     H 8383  10.383   4.832   2.047  1.6666  0.8965 -1.2136
  803MOL0     H 8384  10.400   4.975   2.131 -1.0313 -0.2389  3.0625
  803MOL0     H 8385  10.240   3.923   2.443  0.0617 -0.0192 -2.0210
  803MOL0     H 8386  10.054   3.791   2.543 -1.4849 -0.5830  0.7366
  803MOL0     H 8387   9.652   3.841   2.942  1.3069 -2.3117  0.3697
  803MOL0     H 8388   9.468   3.708   3.015  0.2966  0.2815  0.4553
  803MOL0     H 8389   8.093   2.833   1.798  0.2043 -0.1878 -0.1087
  803MOL0     H 8390   7.861   2.841   1.905  2.2310  4.4024  1.7342
  803MOL0     H 8391   7.546   2.638   2.136 -1.6129  1.7786  0.0141
  803MOL0     H 8392   7.370   2.529   2.250 -0.4204 -0.9987  0.8481
  803MOL0     H 8393   7.435   2.477   2.670 -0.1879 -0.5690 -1.4705
  803MOL0     H 8394   7.276   2.414   2.671 -2.6767  1.4985 -1.8975
  803MOL0     H 8395   7.346   2.694   2.754 -0.9910 -0.0225  3.5759
  803MOL0     H 8396   7.249   2.576   2.830 -1.3637 -0.1090 -0.4682
  803MOL0     H 8397   7.150   2.713   2.574 -3.6480  4.6656  1.4197
  803MOL0     H 8398   7.106   2.751   2.731  0.0847  0.0841 -2.0009
  803MOL0     H 8399   6.949   2.621   2.627  0.8684  2.4555  1.5396
  803MOL0     H 8400   7.058   2.483   2.603 -2.7288 -0.5425 -1.2654
  803MOL0     H 8401   6.967   2.508   3.042 -1.1440 -3.2502 -0.0279
  803MOL0     H 8402   7.530   2.669   2.623  1.2493 -1.1949 -1.5354
  803MOL0     H 8403   7.722   2.805   2.646 -0.3811 -0.8456 -0.1252
  803MOL0     H 8404   7.850   2.778   2.518  2.0464  2.5124  3.0712
  803MOL0     H 8405   7.739   2.909   2.505 -2.7944  1.5100  4.9857
  804MOL0     O 8406   9.212   6.228   6.667  0.7013  0.2621 -0.0086
  804MOL0     C 8407   9.215   6.203   6.790 -0.1198  1.0669 -0.1463
  804MOL0     O 8408   9.329   6.202   6.867 -0.0973  0.4953  0.2848
  804MOL0     C 8409   9.444   6.220   6.806  0.5103 -0.1364  0.4001
  804MOL0     C 8410   9.508   6.109   6.768 -0.8962 -0.1124 -0.3379
  804MOL0     C 8411   9.635   6.112   6.703  0.1643 -0.3491 -0.0077
  804MOL0     C 8412   9.691   6.235   6.669  0.3078 -0.7179  0.2855
  804MOL0     O 8413   9.815   6.229   6.602 -0.0409 -0.0944  0.0859
  804MOL0     C 8414   9.898   6.341   6.582 -0.9464 -0.4098  1.4538
  804MOL0     C 8415   9.996   6.313   6.474 -0.0184 -0.6888 -0.5762
  804MOL0     C 8416  10.086   6.201   6.495 -0.5507  0.4354  0.3199
  804MOL0     C 8417  10.209   6.232   6.583  0.0476  0.7001 -0.6754
  804MOL0     C 8418  10.298   6.112   6.596  0.8467  1.0650 -0.1615
  804MOL0     C 8419  10.382   6.070   6.464  0.0796 -0.4508 -0.2734
  804MOL0     C 8420  10.444   5.924   6.454  0.8005 -0.0970  0.0353
  804MOL0     C 8421  10.511   5.887   6.583 -0.2519  0.6248 -1.3616
  804MOL0     N 8422  10.659   5.915   6.583  0.5509 -0.0058  0.8309
  804MOL0     C 8423  10.752   5.842   6.511 -0.2259 -0.4773 -0.0005
  804MOL0     C 8424  10.863   5.916   6.530 -0.3175 -0.4052  0.1664
  804MOL0     C 8425  10.994   5.897   6.464 -0.4858 -0.9044 -0.6575
  804MOL0     C 8426  11.037   6.025   6.385  0.0201  0.2568 -0.4001
  804MOL0     C 8427  11.178   6.005   6.325 -0.6038  0.3147  0.8071
  804MOL0     C 8428  11.235   6.115   6.236 -0.1690 -0.0411 -0.2314
  804MOL0     O 8429  11.352   6.070   6.174  0.1340  0.0514  0.4029
  804MOL0     C 8430  11.466   6.062   6.247 -1.5737 -0.2140 -0.2283
  804MOL0     C 8431  11.552   5.959   6.216 -0.0576 -0.0599 -0.1323
  804MOL0     C 8432  11.669   5.943   6.287  0.2087  0.8078 -0.1765
  804MOL0     C 8433  11.703   6.024   6.391 -0.7374 -0.9161  0.2248
  804MOL0     C 8434  11.823   5.999   6.465 -0.4597 -0.7152 -0.8169
  804MOL0     O 8435  11.898   5.888   6.453  0.1755  0.2329 -0.2060
  804MOL0     C 8436  11.994   5.867   6.552  0.1134  0.5023  0.4984
  804MOL0     C 8437  12.125   5.914   6.527  0.2045  0.1732 -0.3621
  804MOL0     C 8438  12.230   5.882   6.620 -1.0817  0.5417  0.5942
  804MOL0     C 8439  12.200   5.806   6.733 -0.0820 -0.2115  0.5609
  804MOL0     O 8440  12.315   5.781   6.812  0.2577 -0.1046 -0.0920
  804MOL0     C 8441  12.309   5.668   6.896 -1.1322 -0.0707  0.0805
  804MOL0     C 8442  12.440   5.675   6.979  0.0835 -0.1257 -0.0393
  804MOL0     C 8443  12.444   5.550   7.069 -0.0691 -0.4046 -0.2499
  804MOL0     C 8444  12.593   5.522   7.090  0.0942  0.7599  0.0082
  804MOL0     C 8445  12.613   5.389   7.168  0.2029 -0.0032 -0.4595
  804MOL0     C 8446  12.764   5.371   7.179 -0.0601  0.3098  0.2049
  804MOL0     C 8447  12.807   5.236   7.227 -0.0787  0.9691 -0.3624
  804MOL0     C 8448  12.793   5.117   7.125  0.1540 -0.2995  0.0055
  804MOL0    Cl 8449  12.830   4.959   7.207 -0.2315 -0.7141  0.0974
  804MOL0     C 8450  12.074   5.770   6.759  0.3109 -0.3145 -0.7300
  804MOL0     C 8451  11.969   5.801   6.675 -0.2490  0.4458  0.5286
  804MOL0     O 8452  11.842   6.087   6.555 -0.2033  0.0038  0.2073
  804MOL0     C 8453  11.616   6.121   6.423 -0.1233  0.2584  0.3472
  804MOL0     C 8454  11.506   6.149   6.344  0.3928 -0.2254 -0.3631
  804MOL0     N 8455  10.836   6.023   6.610  0.0753  0.3575  0.1737
  804MOL0     N 8456  10.711   6.029   6.641 -0.1514 -0.3441 -0.1154
  804MOL0     C 8457   9.626   6.353   6.713 -0.1978  0.3593 -0.1274
  804MOL0     C 8458   9.513   6.340   6.787  0.8386 -1.0435 -0.4290
  804MOL0     C 8459   9.085   6.169   6.856  0.9276  1.0610  0.1428
  804MOL0     C 8460   8.980   6.107   6.782  0.0184 -0.7923  0.6905
  804MOL0     C 8461   8.856   6.075   6.838 -0.9236  0.2585  1.0963
  804MOL0     C 8462   8.823   6.106   6.967  0.4036  0.1006  0.4497
  804MOL0     O 8463   8.702   6.067   7.022 -0.2896  0.5340 -0.6306
  804MOL0     C 8464   8.699   5.987   7.137 -0.2918  0.5667 -0.9104
  804MOL0     C 8465   8.555   5.911   7.142 -0.4493 -1.1749 -0.0495
  804MOL0     C 8466   8.436   6.010   7.147 -1.4472  0.1537 -0.2440
  804MOL0     C 8467   8.290   5.949   7.166  0.3023  0.1394 -0.0659
  804MOL0     C 8468   8.250   5.850   7.063  0.8882  0.0620 -1.2275
  804MOL0     C 8469   8.224   5.763   6.979  0.3345  0.1300  0.2956
  804MOL0     C 8470   8.917   6.185   7.036  0.1275  0.4036  0.3827
  804MOL0     C 8471   9.048   6.207   6.989  0.4672  0.9057 -0.1956
  804MOL0     C 8472   9.131   6.277   7.087  0.1388 -0.6274  0.5456
  804MOL0     H 8473   9.449   6.018   6.785 -2.5332  1.1586  1.2070
  804MOL0     H 8474   9.683   6.023   6.665 -0.0832 -2.5841  4.2641
  804MOL0     H 8475   9.835   6.421   6.544  1.0325 -0.5266 -2.6075
  804MOL0     H 8476   9.960   6.378   6.665  0.6482 -0.6558  0.4208
  804MOL0     H 8477  10.060   6.396   6.442 -0.2572 -0.1927  0.2052
  804MOL0     H 8478   9.941   6.299   6.380 -1.0743  2.6853 -0.6025
  804MOL0     H 8479  10.107   6.167   6.393 -1.5533  1.8637 -0.3988
  804MOL0     H 8480  10.034   6.118   6.545 -3.5916  1.8394 -0.2853
  804MOL0     H 8481  10.260   6.312   6.531  0.1902 -0.4022 -2.2878
  804MOL0     H 8482  10.170   6.254   6.683  0.5556  0.7341 -0.4862
  804MOL0     H 8483  10.360   6.123   6.685  1.6297 -0.3412 -0.5043
  804MOL0     H 8484  10.227   6.033   6.622  1.9832  0.1015  0.0863
  804MOL0     H 8485  10.326   6.091   6.372  2.6558  1.2523 -1.5562
  804MOL0     H 8486  10.471   6.131   6.447  1.2551 -2.8354 -3.9762
  804MOL0     H 8487  10.512   5.910   6.369 -0.4287 -1.7900 -0.7206
  804MOL0     H 8488  10.358   5.860   6.436 -0.0181  0.8024  0.6199
  804MOL0     H 8489  10.480   5.937   6.675  1.8417 -1.3291  0.5337
  804MOL0     H 8490  10.488   5.781   6.601  3.5050 -0.4391 -2.0739
  804MOL0     H 8491  10.736   5.760   6.442  2.2678  0.8369 -2.3402
  804MOL0     H 8492  11.059   5.886   6.551 -1.1838  0.3991  0.0523
  804MOL0     H 8493  10.981   5.817   6.391 -1.7449 -0.0980 -1.3512
  804MOL0     H 8494  10.967   6.042   6.303 -0.9761  2.8998  0.9130
  804MOL0     H 8495  11.031   6.111   6.451  1.0977 -0.8634  1.2567
  804MOL0     H 8496  11.170   5.916   6.263  0.9638  1.9709 -2.0010
  804MOL0     H 8497  11.253   6.001   6.405  0.2121 -0.5927  0.0229
  804MOL0     H 8498  11.255   6.206   6.294 -2.1548 -0.4229  1.1627
  804MOL0     H 8499  11.162   6.128   6.156  2.1886  1.4282 -2.2712
  804MOL0     H 8500  11.528   5.888   6.137 -0.4573  0.0575 -0.1207
  804MOL0     H 8501  11.720   5.849   6.269 -1.3134 -0.2093  0.6049
  804MOL0     H 8502  12.150   5.982   6.447  0.9032  0.7205  0.3091
  804MOL0     H 8503  12.329   5.924   6.626 -1.1362  0.7399  0.1750
  804MOL0     H 8504  12.223   5.685   6.961 -1.3842 -0.4161 -0.1573
  804MOL0     H 8505  12.309   5.571   6.844  0.4482  0.5938 -1.2442
  804MOL0     H 8506  12.523   5.676   6.908 -1.9731  2.6690 -2.6485
  804MOL0     H 8507  12.447   5.763   7.044  1.0348 -1.4813  1.8036
  804MOL0     H 8508  12.385   5.577   7.157  0.2739 -1.8975  0.4532
  804MOL0     H 8509  12.401   5.465   7.016 -2.4275  1.4407 -1.5002
  804MOL0     H 8510  12.633   5.602   7.153 -0.4260  0.5083  0.6668
  804MOL0     H 8511  12.643   5.516   6.993  0.2724  0.6778  0.1051
  804MOL0     H 8512  12.559   5.306   7.122  0.1343  0.3400 -1.0067
  804MOL0     H 8513  12.565   5.406   7.265 -0.9841 -4.6368 -0.0272
  804MOL0     H 8514  12.825   5.388   7.089  0.7273 -3.1541 -0.0366
  804MOL0     H 8515  12.802   5.450   7.244  1.4504 -0.6410  0.5292
  804MOL0     H 8516  12.742   5.221   7.313 -0.9654  1.5244 -0.9285
  804MOL0     H 8517  12.915   5.243   7.246 -0.6237  1.2496  3.3941
  804MOL0     H 8518  12.695   5.096   7.082  0.0169 -1.3724  0.8105
  804MOL0     H 8519  12.863   5.126   7.041 -0.6658 -0.6901 -0.7302
  804MOL0     H 8520  12.056   5.720   6.853  2.0110 -0.7389 -0.5832
  804MOL0     H 8521  11.864   5.780   6.696 -0.6681  1.8066 -0.1406
  804MOL0     H 8522  11.628   6.191   6.505 -2.2392  2.1605 -0.8525
  804MOL0     H 8523  11.438   6.228   6.379 -0.7261 -1.0390 -0.6441
  804MOL0     H 8524   9.680   6.448   6.708 -0.5253  0.5671  0.2539
  804MOL0     H 8525   9.470   6.430   6.829  0.9974 -1.5429  0.8384
  804MOL0     H 8526   8.986   6.087   6.675 -0.1675 -0.1688  0.5573
  804MOL0     H 8527   8.791   6.007   6.783  1.7634 -1.5556 -0.0784
  804MOL0     H 8528   8.708   6.058   7.220  1.1078 -0.1915 -0.3756
  804MOL0     H 8529   8.784   5.919   7.142  1.4987  2.8109  1.9550
  804MOL0     H 8530   8.550   5.859   7.238 -1.5257  1.3810  1.3839
  804MOL0     H 8531   8.532   5.835   7.067 -1.9481 -1.0157  0.2148
  804MOL0     H 8532   8.444   6.066   7.053  1.9967 -0.6429 -0.5446
  804MOL0     H 8533   8.449   6.083   7.228 -3.6040 -2.0263  2.2860
  804MOL0     H 8534   8.277   5.909   7.266  0.5876  0.3270  0.0497
  804MOL0     H 8535   8.222   6.034   7.153 -0.9993 -0.9050 -0.2521
  804MOL0     H 8536   8.212   5.681   6.912  1.0731 -0.3369  0.7185
  804MOL0     H 8537   8.891   6.211   7.138  0.0844  3.4358 -0.3004
  804MOL0     H 8538   9.188   6.196   7.132  3.1686  1.9582  1.7590
  804MOL0     H 8539   9.197   6.339   7.025 -3.0648  1.4318 -1.1286
  804MOL0     H 8540   9.083   6.334   7.167  1.3343  0.6954  0.3603
  805MOL0     O 8541   4.533   2.464   4.040 -0.8657  0.6509  0.2623
  805MOL0     C 8542   4.514   2.449   3.921  0.1299  0.5268  0.2434
  805MOL0     O 8543   4.547   2.341   3.845 -0.0366 -0.6484  0.3481
  805MOL0     C 8544   4.637   2.240   3.878  0.4468 -1.0853 -0.1229
  805MOL0     C 8545   4.604   2.114   3.826  0.3713 -0.5621  0.5588
  805MOL0     C 8546   4.693   2.007   3.854  1.1700 -0.3298  0.3205
  805MOL0     C 8547   4.803   2.027   3.923 -0.2607  0.1826 -0.4233
  805MOL0     O 8548   4.872   1.909   3.940  0.2101  0.0457 -0.0718
  805MOL0     C 8549   4.974   1.912   4.045  0.2841  0.4956 -0.0986
  805MOL0     C 8550   5.106   1.928   3.977  0.1780 -0.2618  0.1661
  805MOL0     C 8551   5.220   1.855   4.046 -0.6314  0.2177  0.3547
  805MOL0     C 8552   5.240   1.903   4.196  0.4495 -0.2855 -0.6352
  805MOL0     C 8553   5.262   2.052   4.213  0.0986 -0.9680  0.3783
  805MOL0     C 8554   5.295   2.084   4.367 -0.7964 -0.1349 -0.3853
  805MOL0     C 8555   5.314   2.236   4.379 -0.2406 -1.0942 -0.0640
  805MOL0     C 8556   5.352   2.278   4.522 -1.7527 -0.5475  0.9875
  805MOL0     N 8557   5.493   2.246   4.547  0.2655  0.0441  0.3723
  805MOL0     C 8558   5.534   2.135   4.620  1.3014 -0.3890  0.3812
  805MOL0     C 8559   5.670   2.126   4.605 -0.0931  0.0048  1.5322
  805MOL0     C 8560   5.764   2.043   4.696 -0.4022 -0.0737 -0.4749
  805MOL0     C 8561   5.800   1.913   4.627  0.0315 -0.9734  0.1104
  805MOL0     C 8562   5.856   1.802   4.718 -0.4035  1.1168 -0.7787
  805MOL0     C 8563   6.002   1.821   4.768  0.8793  0.1181  0.7505
  805MOL0     O 8564   6.006   1.949   4.828 -0.3159 -0.4077 -0.1380
  805MOL0     C 8565   6.129   1.980   4.882 -0.4192  0.4323 -0.4790
  805MOL0     C 8566   6.248   1.899   4.871 -0.0126 -0.2050  0.5949
  805MOL0     C 8567   6.365   1.955   4.921 -0.1956 -0.0028  0.7372
  805MOL0     C 8568   6.362   2.072   4.991 -0.3377  0.2934 -0.0104
  805MOL0     C 8569   6.483   2.126   5.044 -0.5373 -0.3671  0.2279
  805MOL0     O 8570   6.594   2.065   5.008 -0.1129  0.4779 -0.0325
  805MOL0     C 8571   6.721   2.099   5.052 -0.6601 -0.3466 -0.2000
  805MOL0     C 8572   6.839   2.050   4.991  0.2538 -0.1586  0.2729
  805MOL0     C 8573   6.966   2.069   5.044  0.0011  0.4120 -0.3846
  805MOL0     C 8574   6.980   2.142   5.162  0.9542  1.1476  0.1250
  805MOL0     O 8575   7.091   2.175   5.230  0.1363  1.5151  0.1431
  805MOL0     C 8576   7.213   2.109   5.184  0.1638  0.4160 -0.3900
  805MOL0     C 8577   7.306   2.105   5.304 -0.8479 -0.8846 -0.2414
  805MOL0     C 8578   7.439   2.043   5.262  0.1752 -0.3131 -0.1797
  805MOL0     C 8579   7.539   2.152   5.201 -0.1191  0.7953 -0.4009
  805MOL0     C 8580   7.675   2.103   5.198 -0.3161 -0.2336 -0.4006
  805MOL0     C 8581   7.736   2.096   5.340  0.1620  0.0803 -0.5449
  805MOL0     C 8582   7.888   2.084   5.329 -1.1300  0.4530 -0.7545
  805MOL0     C 8583   7.946   1.966   5.242  0.0568 -0.0290 -0.3388
  805MOL0    Cl 8584   8.119   1.985   5.223 -0.3923  0.0414 -0.5770
  805MOL0     C 8585   6.860   2.185   5.226 -0.8610 -0.5899 -0.2771
  805MOL0     C 8586   6.732   2.166   5.176  0.2144 -0.4516  0.2695
  805MOL0     O 8587   6.477   2.238   5.092 -0.3213 -0.5242 -0.1275
  805MOL0     C 8588   6.246   2.154   5.003 -0.4685  0.3037 -0.2368
  805MOL0     C 8589   6.130   2.105   4.945  0.2294 -0.3715 -0.3765
  805MOL0     N 8590   5.711   2.221   4.510  0.1998  1.0726  0.2461
  805MOL0     N 8591   5.600   2.290   4.478 -0.6710  0.6979  0.2432
  805MOL0     C 8592   4.840   2.155   3.955  0.0081  0.4313  0.8611
  805MOL0     C 8593   4.758   2.267   3.941  1.2893 -0.4437  0.3499
  805MOL0     C 8594   4.423   2.549   3.855 -0.3229 -0.4871  0.7558
  805MOL0     C 8595   4.355   2.638   3.941  0.3967  0.4260  0.0633
  805MOL0     C 8596   4.262   2.734   3.902  0.5289 -0.1913  0.9372
  805MOL0     C 8597   4.229   2.741   3.760  0.0865 -0.6683 -0.3031
  805MOL0     O 8598   4.132   2.822   3.701  0.2534 -0.7498 -0.0561
  805MOL0     C 8599   4.024   2.870   3.782  0.8617  0.1003  0.3635
  805MOL0     C 8600   3.955   2.964   3.690 -0.5022 -0.9112  0.6158
  805MOL0     C 8601   3.876   3.072   3.765  0.2128 -0.1730 -0.3542
  805MOL0     C 8602   3.949   3.155   3.871  0.5933  0.0694  0.2631
  805MOL0     C 8603   4.069   3.216   3.816  0.2639 -0.2826  0.5731
  805MOL0     C 8604   4.165   3.267   3.773  0.7288  0.3388 -0.1603
  805MOL0     C 8605   4.303   2.661   3.675 -0.3679  0.5503 -0.0013
  805MOL0     C 8606   4.389   2.564   3.711 -0.0402 -0.6611 -1.2311
  805MOL0     C 8607   4.433   2.466   3.604 -0.1497 -0.1741 -0.0452
  805MOL0     H 8608   4.514   2.103   3.766  0.3144  4.4053 -0.6864
  805MOL0     H 8609   4.688   1.904   3.820  4.7299 -1.4608  2.5834
  805MOL0     H 8610   4.956   1.986   4.124 -2.4976 -0.3338  0.1576
  805MOL0     H 8611   4.970   1.818   4.101  1.0723  1.4155  1.5744
  805MOL0     H 8612   5.131   2.031   3.951  1.5216 -0.9051 -1.2702
  805MOL0     H 8613   5.096   1.874   3.882  2.8314  0.2241 -0.4666
  805MOL0     H 8614   5.314   1.864   3.991 -0.1542  0.1785  1.1500
  805MOL0     H 8615   5.201   1.747   4.051 -1.0975  0.3386  1.4142
  805MOL0     H 8616   5.143   1.882   4.241  0.2715 -0.4263 -1.0743
  805MOL0     H 8617   5.321   1.840   4.234 -0.7227 -1.4885 -0.0626
  805MOL0     H 8618   5.340   2.093   4.148  0.3241  0.7822  1.6697
  805MOL0     H 8619   5.170   2.103   4.182  0.3757 -1.5729 -1.5636
  805MOL0     H 8620   5.219   2.043   4.434  0.9544 -1.8765  0.6153
  805MOL0     H 8621   5.388   2.042   4.406 -0.9972  1.4252  1.9956
  805MOL0     H 8622   5.221   2.291   4.361  1.2973  0.7185 -3.2981
  805MOL0     H 8623   5.397   2.267   4.315 -0.1257  2.0511  1.4349
  805MOL0     H 8624   5.349   2.387   4.526 -2.3858 -0.3941 -1.7564
  805MOL0     H 8625   5.297   2.222   4.598 -1.5783  0.9221  2.2317
  805MOL0     H 8626   5.465   2.085   4.687 -0.0937  1.0135  0.0558
  805MOL0     H 8627   5.855   2.102   4.709  0.2247  0.0543 -4.3421
  805MOL0     H 8628   5.711   2.036   4.791 -0.9293  2.1668 -0.5619
  805MOL0     H 8629   5.716   1.863   4.578 -2.0089  0.0162  2.3597
  805MOL0     H 8630   5.871   1.950   4.554  0.8603 -1.2124  0.7840
  805MOL0     H 8631   5.863   1.714   4.653  0.3223  0.7872 -0.2742
  805MOL0     H 8632   5.792   1.775   4.803  1.9198 -3.5352 -0.0985
  805MOL0     H 8633   6.070   1.814   4.683  1.4378 -1.3389  1.2910
  805MOL0     H 8634   6.027   1.741   4.838 -0.1439 -2.6455 -1.8300
  805MOL0     H 8635   6.247   1.807   4.814  1.4045  0.2697 -0.2551
  805MOL0     H 8636   6.460   1.904   4.902  0.1562  0.9544 -0.1313
  805MOL0     H 8637   6.837   2.006   4.892 -1.5554  0.1144  0.1512
  805MOL0     H 8638   7.048   2.039   4.981 -0.0167  0.1894 -0.3050
  805MOL0     H 8639   7.188   2.009   5.148 -0.2006 -0.8358  2.9410
  805MOL0     H 8640   7.258   2.172   5.107 -1.5132 -0.6496 -2.3162
  805MOL0     H 8641   7.312   2.206   5.346 -5.9953 -1.0832  1.6616
  805MOL0     H 8642   7.254   2.050   5.383 -2.2569  0.1089 -0.4599
  805MOL0     H 8643   7.471   2.007   5.360  1.3468  0.4411 -0.2670
  805MOL0     H 8644   7.431   1.954   5.199 -3.8304 -1.2755  1.4119
  805MOL0     H 8645   7.543   2.246   5.258  2.3343  0.0527  0.7696
  805MOL0     H 8646   7.496   2.183   5.105  0.1645 -1.5167 -1.3308
  805MOL0     H 8647   7.730   2.177   5.141 -0.9285  2.1958  1.9446
  805MOL0     H 8648   7.681   2.007   5.146  4.0858  0.3578 -1.3502
  805MOL0     H 8649   7.718   2.184   5.402 -1.6082  0.6373 -1.7830
  805MOL0     H 8650   7.700   2.015   5.405  0.4480  1.4802  1.4422
  805MOL0     H 8651   7.931   2.070   5.429 -0.5130 -1.6115 -1.2658
  805MOL0     H 8652   7.911   2.185   5.295 -3.2257  1.4786  0.6411
  805MOL0     H 8653   7.926   1.870   5.290  0.9686 -0.4131 -0.6898
  805MOL0     H 8654   7.887   1.960   5.150 -1.5164  2.0091  0.4679
  805MOL0     H 8655   6.867   2.250   5.313  0.6966 -1.7797  0.5270
  805MOL0     H 8656   6.648   2.207   5.230 -1.1550 -2.2272 -0.4239
  805MOL0     H 8657   6.250   2.239   5.070 -5.3295  0.8375 -0.2618
  805MOL0     H 8658   6.029   2.143   4.947 -0.9464 -3.2024 -1.3570
  805MOL0     H 8659   4.933   2.181   4.004  0.9579  1.1167 -1.1927
  805MOL0     H 8660   4.775   2.373   3.957  0.3667  0.2421 -2.4942
  805MOL0     H 8661   4.369   2.627   4.048 -2.0734 -1.6506  0.2629
  805MOL0     H 8662   4.215   2.795   3.977  1.2485 -0.4096  1.5799
  805MOL0     H 8663   4.060   2.918   3.873  2.3839 -0.0276 -0.1489
  805MOL0     H 8664   3.956   2.790   3.811  0.6557 -0.3759 -1.2923
  805MOL0     H 8665   3.896   2.919   3.609  2.3579  1.9325 -3.4995
  805MOL0     H 8666   4.020   3.011   3.615 -2.7343  1.7084  0.1264
  805MOL0     H 8667   3.787   3.019   3.802 -1.2265  1.1488 -1.7673
  805MOL0     H 8668   3.835   3.136   3.687  0.2123  0.3647  0.0775
  805MOL0     H 8669   3.889   3.242   3.899  1.7300  1.2471 -0.7899
  805MOL0     H 8670   3.974   3.089   3.954 -1.5313  0.1254  0.9854
  805MOL0     H 8671   4.266   3.296   3.750  1.4555 -2.4719 -0.9171
  805MOL0     H 8672   4.267   2.660   3.573 -1.1410  3.5517  0.1412
  805MOL0     H 8673   4.401   2.489   3.502  1.0973 -1.2139 -0.7065
  805MOL0     H 8674   4.542   2.466   3.608 -0.1830  0.7623  1.5526
  805MOL0     H 8675   4.399   2.367   3.637 -0.9932  0.1291  0.0164
  806MOL0     O 8676   1.560  10.559   7.848 -0.3115  0.4069  0.1507
  806MOL0     C 8677   1.493  10.659   7.843  0.2800 -1.0703  0.1716
  806MOL0     O 8678   1.550  10.777   7.831  0.0818  0.1924 -0.0733
  806MOL0     C 8679   1.685  10.796   7.806 -0.3576 -0.5457  0.1982
  806MOL0     C 8680   1.753  10.858   7.913  0.4150 -0.1774  0.4514
  806MOL0     C 8681   1.888  10.879   7.910  0.0165  0.0266 -0.3189
  806MOL0     C 8682   1.964  10.827   7.801  0.0411  0.9244 -0.0640
  806MOL0     O 8683   2.097  10.859   7.800 -0.7818  0.8659  0.1186
  806MOL0     C 8684   2.195  10.755   7.792 -0.3613  0.6467  0.5449
  806MOL0     C 8685   2.319  10.812   7.719  0.4764 -0.0304  1.0068
  806MOL0     C 8686   2.450  10.739   7.746 -0.4738  0.8947  0.4033
  806MOL0     C 8687   2.562  10.808   7.670 -0.2924 -0.4826 -0.6502
  806MOL0     C 8688   2.704  10.777   7.720  0.5600  0.7353  0.0126
  806MOL0     C 8689   2.809  10.827   7.629 -0.0045 -0.3470 -0.3895
  806MOL0     C 8690   2.945  10.819   7.681 -0.4507  0.9074 -0.6454
  806MOL0     C 8691   2.984  10.675   7.726  1.1686 -0.7326  0.1028
  806MOL0     N 8692   3.118  10.660   7.779  0.3804  0.9488  0.1444
  806MOL0     C 8693   3.155  10.612   7.898  0.1108 -0.4389 -0.1122
  806MOL0     C 8694   3.292  10.624   7.895 -0.2243 -0.3693  0.6622
  806MOL0     C 8695   3.399  10.558   7.983 -0.3334  0.6476 -0.1729
  806MOL0     C 8696   3.436  10.431   7.906 -0.0839 -0.1252  0.4175
  806MOL0     C 8697   3.513  10.326   7.995 -0.5866 -0.7581 -0.5977
  806MOL0     C 8698   3.627  10.396   8.071 -0.9894 -0.6441 -0.6552
  806MOL0     O 8699   3.711  10.456   7.973 -0.0567 -0.1603  0.3343
  806MOL0     C 8700   3.834  10.519   8.007  0.1558 -0.5158  0.1402
  806MOL0     C 8701   3.925  10.542   7.904 -0.2114 -0.4717  0.1662
  806MOL0     C 8702   4.049  10.603   7.934  0.5280  0.5859  0.2883
  806MOL0     C 8703   4.086  10.630   8.067 -0.2047 -0.1145  0.1489
  806MOL0     C 8704   4.214  10.699   8.105 -0.8662  0.0674 -0.7609
  806MOL0     O 8705   4.308  10.724   8.006  0.1888  0.3319 -0.5733
  806MOL0     C 8706   4.442  10.739   8.037 -0.7268 -0.4946  0.2090
  806MOL0     C 8707   4.525  10.826   7.967 -0.5564  0.3782  1.0997
  806MOL0     C 8708   4.667  10.826   7.976  0.4101 -0.1959 -0.4189
  806MOL0     C 8709   4.739  10.742   8.060 -0.8496  0.3880  0.7809
  806MOL0     O 8710   4.879  10.741   8.042 -0.0423 -0.0131  0.3181
  806MOL0     C 8711   4.958  10.683   8.149  0.3276 -0.3726 -0.8721
  806MOL0     C 8712   5.113  10.702   8.126  0.1072  0.9426  1.0383
  806MOL0     C 8713   5.188  10.593   8.042 -0.0293  0.0027 -0.7983
  806MOL0     C 8714   5.204  10.476   8.145 -0.4135 -0.4190  0.6840
  806MOL0     C 8715   5.217  10.334   8.102  0.2030 -0.0831  0.2825
  806MOL0     C 8716   5.331  10.298   8.008  0.1331 -0.2697  0.4118
  806MOL0     C 8717   5.312  10.150   7.975  0.3555 -0.1963 -0.0555
  806MOL0     C 8718   5.440  10.088   7.899 -0.0942 -0.4856 -0.5969
  806MOL0    Cl 8719   5.408   9.923   7.849  0.1263  0.5672 -0.5364
  806MOL0     C 8720   4.657  10.651   8.140 -0.3623 -0.1247 -0.3428
  806MOL0     C 8721   4.514  10.656   8.124  0.0721 -0.6269  0.3337
  806MOL0     O 8722   4.235  10.727   8.226  0.5942 -0.1784 -0.4833
  806MOL0     C 8723   3.995  10.596   8.170  0.1748  0.1361 -0.6673
  806MOL0     C 8724   3.868  10.546   8.141  0.3837  0.8653  0.5310
  806MOL0     N 8725   3.329  10.677   7.775 -0.8171  0.7211 -0.3081
  806MOL0     N 8726   3.225  10.700   7.704 -0.2133  0.7460 -0.4272
  806MOL0     C 8727   1.898  10.765   7.696 -0.0877 -0.6649  0.0989
  806MOL0     C 8728   1.761  10.760   7.689  0.5832  0.2637  0.2214
  806MOL0     C 8729   1.344  10.653   7.872 -0.4999  0.1409  0.6042
  806MOL0     C 8730   1.264  10.772   7.870 -0.7332  0.9647  0.1424
  806MOL0     C 8731   1.128  10.772   7.887 -0.7208  0.6061  1.1661
  806MOL0     C 8732   1.059  10.657   7.902  0.3142  0.0356 -0.2643
  806MOL0     O 8733   0.922  10.676   7.927 -0.3878  1.0167 -0.2168
  806MOL0     C 8734   0.824  10.664   7.820 -0.7876 -0.1014 -0.4237
  806MOL0     C 8735   0.813  10.788   7.731  0.2473  0.3426  0.3449
  806MOL0     C 8736   0.723  10.902   7.797  0.7054 -0.2750  0.3930
  806MOL0     C 8737   0.719  11.027   7.713 -0.0529  0.7578 -0.7934
  806MOL0     C 8738   0.829  11.114   7.744  0.4300 -0.1154  0.0803
  806MOL0     C 8739   0.919  11.195   7.779  0.4171  0.1756  0.0863
  806MOL0     C 8740   1.127  10.535   7.907 -0.6247  0.6130 -0.3650
  806MOL0     C 8741   1.268  10.536   7.896 -0.1979 -0.4947  0.0848
  806MOL0     C 8742   1.333  10.402   7.925  0.1355 -0.1595 -0.2236
  806MOL0     H 8743   1.695  10.908   7.990  2.3437  1.7399  0.7466
  806MOL0     H 8744   1.944  10.928   7.988 -0.0690  0.3409 -0.4536
  806MOL0     H 8745   2.215  10.713   7.891 -0.9352 -0.4521  0.2196
  806MOL0     H 8746   2.161  10.667   7.735 -0.0995 -0.4054  1.9667
  806MOL0     H 8747   2.324  10.914   7.758  1.2981  0.7657 -1.0323
  806MOL0     H 8748   2.304  10.816   7.611 -0.4645  0.1695  1.1384
  806MOL0     H 8749   2.438  10.633   7.720 -0.9624  1.5472 -2.3450
  806MOL0     H 8750   2.466  10.741   7.854 -1.4052 -1.0324  0.6115
  806MOL0     H 8751   2.545  10.789   7.564  0.2544  1.2904 -1.0995
  806MOL0     H 8752   2.552  10.916   7.684  1.4176 -0.0449 -2.3934
  806MOL0     H 8753   2.722  10.819   7.819  0.2530  1.3202 -0.1763
  806MOL0     H 8754   2.719  10.669   7.726 -0.2916  0.6342  0.4247
  806MOL0     H 8755   2.798  10.772   7.535 -1.7889  0.2893 -0.5769
  806MOL0     H 8756   2.783  10.930   7.606  1.4813  1.4851  4.6811
  806MOL0     H 8757   2.953  10.882   7.771  2.1082  0.0940 -0.2202
  806MOL0     H 8758   3.020  10.844   7.606 -0.5234  0.1903 -0.9635
  806MOL0     H 8759   2.918  10.654   7.810 -0.3826 -1.8448 -1.3034
  806MOL0     H 8760   2.978  10.601   7.645  1.9877 -1.4966  0.7174
  806MOL0     H 8761   3.096  10.566   7.977  1.6099  1.5275  2.2954
  806MOL0     H 8762   3.481  10.628   8.003  3.5205 -2.2519 -3.8737
  806MOL0     H 8763   3.355  10.526   8.078  1.3663 -1.2235  0.0690
  806MOL0     H 8764   3.346  10.378   7.872 -0.2361 -1.0448  2.1133
  806MOL0     H 8765   3.493  10.468   7.820  0.6206  1.5314  1.5418
  806MOL0     H 8766   3.564  10.260   7.924  1.5990 -0.5605  0.6831
  806MOL0     H 8767   3.450  10.256   8.051  1.4940 -0.5717  2.2181
  806MOL0     H 8768   3.670  10.331   8.148 -0.0260  1.7262  0.9547
  806MOL0     H 8769   3.586  10.476   8.134  0.0133 -0.8215  0.2454
  806MOL0     H 8770   3.888  10.518   7.805  0.6024 -0.3444 -0.1704
  806MOL0     H 8771   4.106  10.619   7.843  1.5616  1.2730  1.0368
  806MOL0     H 8772   4.491  10.905   7.900  1.0626  0.7456  0.6713
  806MOL0     H 8773   4.726  10.895   7.916 -1.9701  3.1664  0.8217
  806MOL0     H 8774   4.933  10.727   8.246 -0.0473 -2.7997  0.2306
  806MOL0     H 8775   4.938  10.575   8.148 -1.7802 -0.0177 -1.4086
  806MOL0     H 8776   5.118  10.791   8.062  0.0130  2.1950  2.7056
  806MOL0     H 8777   5.163  10.722   8.221 -2.2984  2.2992  2.1440
  806MOL0     H 8778   5.119  10.571   7.961 -1.9971 -1.1599  1.1087
  806MOL0     H 8779   5.278  10.639   7.999  0.7052 -1.4379 -0.8672
  806MOL0     H 8780   5.116  10.468   8.208  0.0870  1.5749  1.7188
  806MOL0     H 8781   5.281  10.506   8.217 -2.5616 -0.1666  3.0071
  806MOL0     H 8782   5.129  10.301   8.046 -0.1574  1.9251 -0.4230
  806MOL0     H 8783   5.221  10.270   8.191 -0.0660 -0.9383 -0.3072
  806MOL0     H 8784   5.326  10.364   7.921  1.6890 -1.1056 -0.3589
  806MOL0     H 8785   5.430  10.310   8.054  0.3699  0.5744 -0.2870
  806MOL0     H 8786   5.218  10.140   7.920 -0.8291  2.2753  1.3365
  806MOL0     H 8787   5.297  10.089   8.064  3.0500  1.8630  1.9819
  806MOL0     H 8788   5.454  10.162   7.820  1.8787 -0.5674 -0.3757
  806MOL0     H 8789   5.535  10.093   7.955  0.3310 -2.1170 -1.1224
  806MOL0     H 8790   4.708  10.586   8.209  0.3604 -1.1454 -1.7846
  806MOL0     H 8791   4.457  10.582   8.180 -1.7776  1.7340  1.8154
  806MOL0     H 8792   4.023  10.617   8.272  4.3987 -3.2384 -0.8297
  806MOL0     H 8793   3.800  10.526   8.223 -2.3501 -5.4877 -2.5729
  806MOL0     H 8794   1.951  10.719   7.613  1.7333  0.3747  0.6338
  806MOL0     H 8795   1.712  10.704   7.611  1.1881  0.6984 -0.4849
  806MOL0     H 8796   1.306  10.870   7.847 -2.6158  2.1126  1.2623
  806MOL0     H 8797   1.069  10.863   7.882 -0.7724  0.9927  5.0813
  806MOL0     H 8798   0.726  10.639   7.861 -0.0020  1.4848  2.7605
  806MOL0     H 8799   0.859  10.589   7.749  0.3523 -0.2316  0.2424
  806MOL0     H 8800   0.761  10.762   7.639  0.5573 -1.3311  0.6093
  806MOL0     H 8801   0.907  10.828   7.691  0.1714  1.0016  0.8159
  806MOL0     H 8802   0.757  10.938   7.894  0.6081  1.7582 -0.2759
  806MOL0     H 8803   0.620  10.865   7.801 -0.0918  1.1987 -2.9369
  806MOL0     H 8804   0.718  11.002   7.607 -1.2756 -0.5800 -0.5074
  806MOL0     H 8805   0.627  11.085   7.730 -0.7857  0.0518 -2.1935
  806MOL0     H 8806   0.997  11.254   7.824  0.5006 -0.0206  0.1961
  806MOL0     H 8807   1.078  10.439   7.924  2.1270 -0.5589  1.6968
  806MOL0     H 8808   1.263  10.326   7.959  0.3721  0.2436  1.2373
  806MOL0     H 8809   1.378  10.368   7.832  0.4236 -0.7850  0.1365
  806MOL0     H 8810   1.420  10.400   7.992  1.0369  1.2752 -1.2841
  807MOL0     O 8811   4.555  10.609   5.090 -0.3935  0.2744  0.5819
  807MOL0     C 8812   4.552  10.609   5.210  0.6298 -0.5584 -0.2333
  807MOL0     O 8813   4.658  10.595   5.292 -1.0398 -0.1227  0.2776
  807MOL0     C 8814   4.771  10.542   5.241 -0.2699  0.1553 -0.5570
  807MOL0     C 8815   4.826  10.448   5.331 -1.2406  0.5391 -0.8473
  807MOL0     C 8816   4.932  10.369   5.291 -0.6537  0.2006 -0.3306
  807MOL0     C 8817   4.994  10.388   5.166  0.0223 -0.5946 -0.4783
  807MOL0     O 8818   5.098  10.312   5.126 -0.0813 -0.4278  1.0818
  807MOL0     C 8819   5.214  10.334   5.204 -0.2788 -0.3880 -0.3790
  807MOL0     C 8820   5.336  10.321   5.102  0.9244 -0.1673  0.1176
  807MOL0     C 8821   5.475  10.333   5.160  0.3848 -0.6036  0.5254
  807MOL0     C 8822   5.521  10.217   5.236 -0.0978 -0.2040  0.4319
  807MOL0     C 8823   5.639  10.258   5.327 -0.8996 -0.7323 -0.6616
  807MOL0     C 8824   5.713  10.145   5.393 -0.1182  0.1767  0.2745
  807MOL0     C 8825   5.832  10.197   5.473  0.4030 -0.8642  0.1960
  807MOL0     C 8826   5.913  10.079   5.520  0.1028  0.1142  0.1203
  807MOL0     N 8827   6.013  10.121   5.621  0.6588  0.7496  0.1104
  807MOL0     C 8828   6.125  10.191   5.609 -0.0587 -0.2551 -0.5741
  807MOL0     C 8829   6.178  10.191   5.742  0.4444 -0.0528 -0.0718
  807MOL0     C 8830   6.320  10.230   5.776  0.5999 -0.0314  0.7431
  807MOL0     C 8831   6.317  10.313   5.901 -0.2567 -0.3976 -0.0023
  807MOL0     C 8832   6.438  10.389   5.942 -0.0789 -0.2316 -0.5446
  807MOL0     C 8833   6.443  10.526   5.871 -0.2396  1.1352 -0.0626
  807MOL0     O 8834   6.545  10.610   5.922  0.9299  0.2121  0.6342
  807MOL0     C 8835   6.670  10.607   5.862  0.8761 -0.1022 -0.2029
  807MOL0     C 8836   6.778  10.663   5.936 -0.1844 -0.0078  0.4581
  807MOL0     C 8837   6.909  10.668   5.884  0.9685 -0.6912  0.2203
  807MOL0     C 8838   6.939  10.629   5.753 -0.3365  0.7747 -0.6038
  807MOL0     C 8839   7.075  10.657   5.693 -0.4540 -0.6172  0.1452
  807MOL0     O 8840   7.166  10.725   5.771 -0.8171  0.4588 -0.0917
  807MOL0     C 8841   7.275  10.775   5.700  0.2978  0.2507 -1.0723
  807MOL0     C 8842   7.403  10.727   5.728  0.3638  0.6156 -0.1537
  807MOL0     C 8843   7.508  10.767   5.644  0.1190 -1.0413  0.4698
  807MOL0     C 8844   7.494  10.871   5.548 -0.8519 -0.3478 -0.2196
  807MOL0     O 8845   7.600  10.932   5.484 -0.0425  0.6754 -0.0474
  807MOL0     C 8846   7.730  10.917   5.540  0.8291 -0.5500 -0.1036
  807MOL0     C 8847   7.814  11.017   5.458  0.1670 -0.0065 -0.3957
  807MOL0     C 8848   7.965  10.975   5.484  0.0316 -0.1556 -0.4108
  807MOL0     C 8849   8.067  11.089   5.457 -0.3082  0.2395  0.2144
  807MOL0     C 8850   8.213  11.060   5.509  0.1123  0.0323 -0.0904
  807MOL0     C 8851   8.313  11.176   5.489 -0.0025 -0.0610 -0.1436
  807MOL0     C 8852   8.460  11.123   5.515 -0.6487  0.2239  0.5454
  807MOL0     C 8853   8.563  11.234   5.545 -0.2789  0.3543  0.1732
  807MOL0    Cl 8854   8.582  11.339   5.407 -0.5622 -0.2181  0.1730
  807MOL0     C 8855   7.366  10.919   5.531 -0.3869  0.3412  0.3957
  807MOL0     C 8856   7.256  10.875   5.599 -0.5425 -0.2981  0.1253
  807MOL0     O 8857   7.098  10.613   5.578 -0.1768 -0.0203 -0.2913
  807MOL0     C 8858   6.837  10.570   5.683 -0.1689  0.3006  0.7273
  807MOL0     C 8859   6.705  10.554   5.734  0.0843  0.9892  0.2728
  807MOL0     N 8860   6.087  10.128   5.827 -0.3160  0.1574  0.2779
  807MOL0     N 8861   5.984  10.096   5.754 -0.5069  0.0692 -1.1497
  807MOL0     C 8862   4.944  10.496   5.082  0.0400 -0.0125  0.4636
  807MOL0     C 8863   4.832  10.576   5.118 -0.0783  0.0461  0.3769
  807MOL0     C 8864   4.419  10.642   5.272 -0.0101  0.3837  1.5270
  807MOL0     C 8865   4.432  10.702   5.394  0.7843 -0.1988  1.2133
  807MOL0     C 8866   4.319  10.730   5.472  0.8433  0.2359 -0.7535
  807MOL0     C 8867   4.188  10.698   5.422  0.2795  0.0384 -0.2500
  807MOL0     O 8868   4.065  10.692   5.478 -0.6316  0.4965 -0.6712
  807MOL0     C 8869   4.048  10.760   5.605  0.6938 -0.2707 -0.2224
  807MOL0     C 8870   4.006  10.903   5.569  0.1254  0.3111 -0.0355
  807MOL0     C 8871   4.123  10.989   5.514  0.3593 -0.2660 -0.7125
  807MOL0     C 8872   4.084  11.132   5.487  0.7051 -0.3047  0.2636
  807MOL0     C 8873   4.180  11.215   5.414  0.6343  0.3992 -1.4695
  807MOL0     C 8874   4.273  11.279   5.359  0.4272 -0.1451  0.0249
  807MOL0     C 8875   4.183  10.650   5.287  0.1727 -0.0280 -0.1678
  807MOL0     C 8876   4.290  10.615   5.210  0.4702  0.0428 -0.4971
  807MOL0     C 8877   4.261  10.554   5.080 -0.7253 -0.4418  0.2639
  807MOL0     H 8878   4.780  10.426   5.426  1.5872  1.0259  0.7421
  807MOL0     H 8879   4.964  10.301   5.369 -0.2104  1.3881  0.5511
  807MOL0     H 8880   5.224  10.436   5.241  0.1320 -0.7791  0.6356
  807MOL0     H 8881   5.222  10.267   5.290 -1.1053  1.9153  1.5812
  807MOL0     H 8882   5.311  10.392   5.023 -2.1292 -0.1736  0.9472
  807MOL0     H 8883   5.334  10.224   5.050 -2.3883 -0.3652  0.4146
  807MOL0     H 8884   5.479  10.423   5.222  1.0461  0.4780 -1.0294
  807MOL0     H 8885   5.532  10.339   5.067 -0.0460 -2.0614  0.1398
  807MOL0     H 8886   5.445  10.183   5.307 -0.4534 -1.2500 -0.4135
  807MOL0     H 8887   5.534  10.143   5.156 -2.4191  1.2618 -1.4782
  807MOL0     H 8888   5.718  10.314   5.276  1.5533 -1.0719  2.4620
  807MOL0     H 8889   5.618  10.321   5.414  1.3400 -0.8328  0.0121
  807MOL0     H 8890   5.644  10.092   5.461 -1.5836  1.5690 -0.0627
  807MOL0     H 8891   5.745  10.075   5.316  3.6846  0.9826  0.9425
  807MOL0     H 8892   5.791  10.242   5.563 -3.3066 -4.0128  0.3352
  807MOL0     H 8893   5.878  10.267   5.403 -0.1725 -0.5418  0.1429
  807MOL0     H 8894   5.854  10.010   5.581  2.4255 -0.5536  1.7455
  807MOL0     H 8895   5.956  10.021   5.438 -0.9893  0.1895 -0.5252
  807MOL0     H 8896   6.189  10.231   5.530  1.5025  0.4377  0.9772
  807MOL0     H 8897   6.395  10.151   5.779  0.5614 -0.1108 -0.1911
  807MOL0     H 8898   6.344  10.294   5.690 -1.4705 -0.9908 -0.6297
  807MOL0     H 8899   6.231  10.381   5.893 -1.3988 -1.1248  3.9259
  807MOL0     H 8900   6.293  10.250   5.987 -0.9168  0.7759  0.7038
  807MOL0     H 8901   6.526  10.326   5.934  0.2385  0.1439 -0.1003
  807MOL0     H 8902   6.416  10.419   6.045  2.1452  0.5416 -0.2426
  807MOL0     H 8903   6.346  10.570   5.895 -0.2549  0.1152  1.9291
  807MOL0     H 8904   6.454  10.501   5.765  0.1651  0.5543  0.1121
  807MOL0     H 8905   6.757  10.706   6.033 -0.7911  0.1740  0.2537
  807MOL0     H 8906   6.987  10.716   5.943 -1.0281  1.6406  1.1485
  807MOL0     H 8907   7.412  10.654   5.807 -0.9770 -0.6856 -1.1454
  807MOL0     H 8908   7.606  10.733   5.676  0.6612  0.4859  0.5153
  807MOL0     H 8909   7.730  10.953   5.643 -1.9262 -1.3688  0.2644
  807MOL0     H 8910   7.765  10.814   5.529 -4.1813 -2.4762 -0.3761
  807MOL0     H 8911   7.784  11.007   5.353 -0.3617  1.8262 -0.4427
  807MOL0     H 8912   7.787  11.115   5.497  1.2199 -0.0538  0.5141
  807MOL0     H 8913   7.978  10.958   5.591 -0.0861 -0.1598 -0.3974
  807MOL0     H 8914   7.987  10.884   5.426  2.2993  0.3309 -0.4080
  807MOL0     H 8915   8.030  11.188   5.483 -0.1729  0.7641 -1.4842
  807MOL0     H 8916   8.078  11.081   5.348 -1.4606 -1.6587  0.1831
  807MOL0     H 8917   8.246  10.964   5.469 -0.2027  0.0940 -0.5026
  807MOL0     H 8918   8.210  11.046   5.617  0.2347 -0.8817 -0.1969
  807MOL0     H 8919   8.293  11.214   5.388  1.4938 -0.3329 -0.5635
  807MOL0     H 8920   8.301  11.257   5.561  2.9338 -0.7485  1.2566
  807MOL0     H 8921   8.496  11.068   5.428 -0.8847  0.3310  0.3766
  807MOL0     H 8922   8.466  11.049   5.594  1.3046  0.8103  0.9881
  807MOL0     H 8923   8.533  11.304   5.623 -1.9666  2.0237 -1.8597
  807MOL0     H 8924   8.659  11.188   5.573 -1.9410 -1.8899  2.6402
  807MOL0     H 8925   7.360  11.008   5.470  1.6510  0.7840  0.7685
  807MOL0     H 8926   7.154  10.905   5.575 -0.1560  2.4883  1.5658
  807MOL0     H 8927   6.856  10.546   5.579  0.2291  1.0226  0.6284
  807MOL0     H 8928   6.630  10.514   5.667  1.6939 -0.5643 -0.6979
  807MOL0     H 8929   4.988  10.513   4.984  3.5394 -1.0197  1.7174
  807MOL0     H 8930   4.795  10.644   5.042  0.0930 -0.8225 -0.4985
  807MOL0     H 8931   4.528  10.736   5.431 -0.1033  4.5683 -0.1392
  807MOL0     H 8932   4.328  10.776   5.570 -2.5117 -2.5990  1.0978
  807MOL0     H 8933   4.149  10.765   5.647  1.7797  0.4581 -2.6966
  807MOL0     H 8934   3.968  10.708   5.658  0.4539 -1.4489 -1.6899
  807MOL0     H 8935   3.968  10.943   5.664  1.5273  1.1742  0.1871
  807MOL0     H 8936   3.926  10.898   5.494 -0.0301 -0.1091  0.1530
  807MOL0     H 8937   4.167  10.958   5.420  0.7474  0.7047 -0.8556
  807MOL0     H 8938   4.190  11.000   5.600 -1.3041  0.8866  0.5290
  807MOL0     H 8939   3.996  11.123   5.423  0.7257 -3.9094  0.5226
  807MOL0     H 8940   4.059  11.191   5.575 -1.2910  0.0388 -0.4847
  807MOL0     H 8941   4.361  11.331   5.327  0.3804  0.3721  0.7229
  807MOL0     H 8942   4.079  10.626   5.264 -0.6496  1.9597  1.1967
  807MOL0     H 8943   4.283  10.447   5.084  0.5728 -0.2165 -0.2344
  807MOL0     H 8944   4.161  10.579   5.044 -0.6972 -0.0293  0.4663
  807MOL0     H 8945   4.323  10.604   5.005 -1.5548 -0.7940 -0.6713
  808MOL0     O 8946   5.515   0.639   6.896  0.2310 -0.3566  0.1244
  808MOL0     C 8947   5.600   0.659   6.804  0.0972  0.2507 -0.9279
  808MOL0     O 8948   5.733   0.675   6.824  0.4167  0.1068  0.3871
  808MOL0     C 8949   5.779   0.648   6.951 -0.1034  0.6432 -0.4487
  808MOL0     C 8950   5.848   0.528   6.971  0.4214 -0.0893  0.4443
  808MOL0     C 8951   5.902   0.498   7.091 -0.3549 -0.8080  0.0060
  808MOL0     C 8952   5.910   0.587   7.194  0.4353  0.2253  0.7221
  808MOL0     O 8953   5.981   0.544   7.304 -0.4840  0.5458  0.1334
  808MOL0     C 8954   5.975   0.616   7.429  0.4446  0.1506 -0.2105
  808MOL0     C 8955   6.084   0.730   7.417  0.0236 -0.0598  0.8163
  808MOL0     C 8956   6.185   0.724   7.527 -0.3910  0.3584  0.3521
  808MOL0     C 8957   6.315   0.795   7.492 -0.7449  0.0808 -0.1106
  808MOL0     C 8958   6.428   0.762   7.587 -0.6487 -0.0552  0.3671
  808MOL0     C 8959   6.561   0.824   7.537  0.5236  0.6986  0.0013
  808MOL0     C 8960   6.680   0.786   7.624  0.0848  0.1290 -0.7231
  808MOL0     C 8961   6.804   0.866   7.582 -0.2576 -0.1464  0.4696
  808MOL0     N 8962   6.892   0.808   7.473 -0.4894  0.7708 -0.5090
  808MOL0     C 8963   6.838   0.791   7.349 -0.2933  0.1611  0.8355
  808MOL0     C 8964   6.932   0.717   7.277 -0.2514  0.8831  0.6545
  808MOL0     C 8965   6.936   0.666   7.134  0.6806 -0.7526 -0.0449
  808MOL0     C 8966   6.818   0.570   7.092 -1.0240  0.5551 -1.1717
  808MOL0     C 8967   6.823   0.512   6.956  0.0400  0.1969 -0.9044
  808MOL0     C 8968   6.703   0.426   6.925 -0.9215  0.9601 -0.0912
  808MOL0     O 8969   6.571   0.484   6.933  0.3004 -0.1837 -0.0115
  808MOL0     C 8970   6.467   0.404   6.908 -0.3019  0.1458 -0.0320
  808MOL0     C 8971   6.474   0.275   6.853  0.5358 -0.3002 -0.6408
  808MOL0     C 8972   6.356   0.208   6.827 -0.2153 -0.3370  0.0779
  808MOL0     C 8973   6.229   0.261   6.854 -0.2070 -0.1079 -0.0153
  808MOL0     C 8974   6.103   0.188   6.830 -0.8338 -0.3347  0.4738
  808MOL0     O 8975   6.118   0.059   6.804 -0.6844  0.1464 -0.1095
  808MOL0     C 8976   6.011  -0.016   6.762  0.4596  0.4210  0.8088
  808MOL0     C 8977   5.949  -0.018   6.630 -0.7172  0.2575 -0.2389
  808MOL0     C 8978   5.858  -0.120   6.602  0.0233 -0.2180 -0.5683
  808MOL0     C 8979   5.821  -0.212   6.706 -0.1571  0.4867  0.3937
  808MOL0     O 8980   5.710  -0.298   6.699 -0.2394  0.1673 -0.5335
  808MOL0     C 8981   5.615  -0.288   6.583  0.0582 -0.0436 -1.1598
  808MOL0     C 8982   5.491  -0.351   6.622  0.4768  0.9305  0.5086
  808MOL0     C 8983   5.494  -0.508   6.621 -0.4659  0.5778  0.7118
  808MOL0     C 8984   5.523  -0.572   6.480  0.6188  0.1964 -0.7495
  808MOL0     C 8985   5.391  -0.618   6.420  0.6869  0.4817  0.5376
  808MOL0     C 8986   5.396  -0.646   6.265  0.0610  0.5411 -0.8214
  808MOL0     C 8987   5.246  -0.672   6.210 -0.0025 -0.0969 -0.1033
  808MOL0     C 8988   5.234  -0.670   6.059  0.3907 -0.6131  0.0034
  808MOL0    Cl 8989   5.067  -0.650   6.007 -0.1228  0.2299  0.6538
  808MOL0     C 8990   5.888  -0.206   6.832 -0.2542 -0.2442 -0.8400
  808MOL0     C 8991   5.984  -0.115   6.852 -0.0746  0.8405  0.4880
  808MOL0     O 8992   5.999   0.252   6.822  0.1748  0.8328  0.0326
  808MOL0     C 8993   6.229   0.381   6.926  0.8592  0.5468 -0.8152
  808MOL0     C 8994   6.349   0.455   6.951  0.6359 -0.3237  0.0828
  808MOL0     N 8995   7.040   0.682   7.364  1.5264 -0.0903 -0.2922
  808MOL0     N 8996   6.999   0.730   7.482 -0.1720  0.5714  0.0010
  808MOL0     C 8997   5.841   0.710   7.184  0.0391 -0.6189  0.5345
  808MOL0     C 8998   5.787   0.740   7.052  0.4855 -0.2776 -0.3224
  808MOL0     C 8999   5.549   0.689   6.666  0.2222 -0.6697  0.2501
  808MOL0     C 9000   5.627   0.791   6.589  0.4846 -0.4058 -0.2569
  808MOL0     C 9001   5.599   0.828   6.462  0.3133  0.1579  0.5880
  808MOL0     C 9002   5.493   0.765   6.392  0.1227  1.0773 -1.0660
  808MOL0     O 9003   5.449   0.785   6.262 -0.5827 -0.7619  0.5798
  808MOL0     C 9004   5.474   0.920   6.215 -0.0947 -0.6665  0.5992
  808MOL0     C 9005   5.392   1.028   6.291  0.3182 -0.2615 -0.3682
  808MOL0     C 9006   5.240   1.006   6.273 -0.7811 -0.4191  0.9051
  808MOL0     C 9007   5.165   1.141   6.279 -0.8461 -0.4419  0.5892
  808MOL0     C 9008   5.023   1.125   6.311 -0.5502  0.0082  0.0329
  808MOL0     C 9009   4.907   1.122   6.347  0.3649 -0.4664  0.7132
  808MOL0     C 9010   5.414   0.677   6.466 -0.0233  0.8523 -0.6479
  808MOL0     C 9011   5.440   0.638   6.598 -0.9179  0.1541  0.9979
  808MOL0     C 9012   5.357   0.522   6.656  0.4932  0.0340  0.6414
  808MOL0     H 9013   5.844   0.463   6.885 -0.9988  2.1348 -1.3128
  808MOL0     H 9014   5.950   0.401   7.101  0.7036 -0.4999 -1.5791
  808MOL0     H 9015   5.874   0.658   7.427 -0.6341 -2.0268 -4.2561
  808MOL0     H 9016   5.991   0.547   7.512  1.3311 -0.0620 -0.5419
  808MOL0     H 9017   6.041   0.830   7.421  0.3214  0.0657  0.9363
  808MOL0     H 9018   6.133   0.717   7.320  1.8046  0.3911  1.6170
  808MOL0     H 9019   6.218   0.621   7.539 -1.1931 -0.2533 -2.0329
  808MOL0     H 9020   6.142   0.760   7.621  2.7801  2.7824  1.0265
  808MOL0     H 9021   6.345   0.749   7.397 -2.9665 -5.1047  1.3584
  808MOL0     H 9022   6.308   0.904   7.493 -0.9230  0.1050  2.0291
  808MOL0     H 9023   6.415   0.799   7.690  0.8845 -1.4464  1.1083
  808MOL0     H 9024   6.438   0.653   7.592  0.1971  0.0669  4.0427
  808MOL0     H 9025   6.589   0.799   7.434 -0.3064 -0.8401  0.1190
  808MOL0     H 9026   6.545   0.931   7.557  0.0802  0.9147 -1.3513
  808MOL0     H 9027   6.708   0.680   7.615 -0.1896 -0.0657  0.5461
  808MOL0     H 9028   6.662   0.807   7.729 -0.9712 -0.3244 -0.8002
  808MOL0     H 9029   6.769   0.963   7.545 -0.2130  0.4692  1.9620
  808MOL0     H 9030   6.867   0.893   7.667  1.1093 -3.0395  0.4819
  808MOL0     H 9031   6.745   0.825   7.304  0.7877  2.3955  0.1964
  808MOL0     H 9032   6.945   0.750   7.064  0.5083 -1.7788 -1.3355
  808MOL0     H 9033   7.026   0.604   7.139  0.8816 -0.4092  0.6783
  808MOL0     H 9034   6.818   0.496   7.172 -0.7065  0.6785 -1.0553
  808MOL0     H 9035   6.718   0.616   7.092 -1.6252 -0.6956 -1.1863
  808MOL0     H 9036   6.919   0.461   6.945  0.4847  0.1592  2.2430
  808MOL0     H 9037   6.822   0.594   6.884 -1.0441 -0.6012 -1.8328
  808MOL0     H 9038   6.704   0.337   6.989 -2.6958  0.8745 -0.1385
  808MOL0     H 9039   6.706   0.388   6.822 -3.8034 -0.6427  0.3073
  808MOL0     H 9040   6.569   0.236   6.817  0.9476 -0.8515  0.9398
  808MOL0     H 9041   6.371   0.109   6.785  1.6847  0.4644 -1.2430
  808MOL0     H 9042   5.977   0.054   6.554  2.2767 -1.0700 -0.5330
  808MOL0     H 9043   5.826  -0.152   6.503  1.7353 -1.2203 -0.8254
  808MOL0     H 9044   5.593  -0.184   6.558  2.0423  0.0085 -3.0147
  808MOL0     H 9045   5.660  -0.325   6.491  3.0747 -1.0221  0.5507
  808MOL0     H 9046   5.454  -0.331   6.723 -1.8061 -3.2801  0.7262
  808MOL0     H 9047   5.415  -0.315   6.551 -0.8676 -3.3357 -0.4705
  808MOL0     H 9048   5.574  -0.527   6.693 -1.6937  2.3698  2.6751
  808MOL0     H 9049   5.404  -0.547   6.670  0.1933 -2.7101 -0.4074
  808MOL0     H 9050   5.600  -0.649   6.496  0.8030  0.3898 -0.6920
  808MOL0     H 9051   5.555  -0.500   6.404 -0.2685  1.2562 -0.1390
  808MOL0     H 9052   5.324  -0.532   6.428 -1.9623 -1.4420  0.7817
  808MOL0     H 9053   5.346  -0.703   6.472  0.2069  0.9561  0.9093
  808MOL0     H 9054   5.440  -0.557   6.219 -0.8244  0.6242 -1.5563
  808MOL0     H 9055   5.449  -0.736   6.234 -2.0240 -0.6261 -1.1768
  808MOL0     H 9056   5.193  -0.585   6.250  1.5045  0.9288 -0.2652
  808MOL0     H 9057   5.198  -0.766   6.238  1.8751 -1.1733 -0.3507
  808MOL0     H 9058   5.296  -0.588   6.021 -0.0068 -0.4055 -0.2048
  808MOL0     H 9059   5.278  -0.758   6.011  1.1255  0.7926 -2.0504
  808MOL0     H 9060   5.861  -0.265   6.919  0.8451 -3.8979 -2.7660
  808MOL0     H 9061   6.042  -0.111   6.944  0.2293 -2.6358  0.5518
  808MOL0     H 9062   6.132   0.422   6.953 -0.4217 -0.5967 -3.2931
  808MOL0     H 9063   6.342   0.557   6.988  1.1718  0.4866 -1.9023
  808MOL0     H 9064   5.854   0.777   7.268  0.4326 -0.0653  0.0410
  808MOL0     H 9065   5.734   0.835   7.047 -1.2822 -1.0813  1.4006
  808MOL0     H 9066   5.703   0.851   6.638  0.7407 -0.0928 -1.0240
  808MOL0     H 9067   5.654   0.910   6.416  0.5963  0.1846  0.9675
  808MOL0     H 9068   5.441   0.920   6.110 -1.1804  0.3743  0.9225
  808MOL0     H 9069   5.580   0.946   6.210 -0.5049  0.9297 -0.8506
  808MOL0     H 9070   5.433   1.119   6.247  0.9740  0.0442  0.8241
  808MOL0     H 9071   5.419   1.035   6.397  0.0639  0.6004 -0.3546
  808MOL0     H 9072   5.201   0.934   6.346  0.2851 -0.5982  1.3114
  808MOL0     H 9073   5.218   0.960   6.176 -0.6830  0.6206  0.3730
  808MOL0     H 9074   5.204   1.202   6.361  0.3192 -1.1803  0.5958
  808MOL0     H 9075   5.185   1.200   6.189  3.5250 -0.1395  1.5724
  808MOL0     H 9076   4.803   1.109   6.366 -0.1476  0.4983 -1.1700
  808MOL0     H 9077   5.327   0.639   6.414  0.8452 -1.5563 -0.4662
  808MOL0     H 9078   5.429   0.449   6.696  0.1927 -1.2417 -0.9991
  808MOL0     H 9079   5.300   0.564   6.739 -1.7226  1.9600 -1.6827
  808MOL0     H 9080   5.294   0.475   6.579  0.1076  1.0262  0.3420
  809MOL0     O 9081   4.716   1.572   6.362  0.1484 -0.0552  0.7115
  809MOL0     C 9082   4.723   1.475   6.284 -0.2066 -0.7635 -0.3904
  809MOL0     O 9083   4.635   1.376   6.283 -0.3160  0.4550  0.0986
  809MOL0     C 9084   4.530   1.388   6.363  0.5024  0.1458  0.1464
  809MOL0     C 9085   4.527   1.413   6.504 -0.2528  0.1269 -0.0682
  809MOL0     C 9086   4.410   1.416   6.573  0.5514  0.5210  0.6188
  809MOL0     C 9087   4.288   1.396   6.507  0.6428 -0.0541  0.3606
  809MOL0     O 9088   4.170   1.399   6.581  0.1478  0.1301 -0.7565
  809MOL0     C 9089   4.038   1.427   6.519  0.9699 -1.0479  0.7570
  809MOL0     C 9090   3.956   1.509   6.612  0.0087 -1.0966  0.2163
  809MOL0     C 9091   3.933   1.450   6.749  0.4492  0.7188  0.5372
  809MOL0     C 9092   3.866   1.540   6.848  0.0713  0.7145 -0.4888
  809MOL0     C 9093   3.969   1.636   6.911  0.1992 -0.1392  0.8725
  809MOL0     C 9094   3.902   1.738   7.012  0.2891 -0.8806 -0.3306
  809MOL0     C 9095   3.991   1.855   7.067 -0.3650 -0.0946  0.8805
  809MOL0     C 9096   4.110   1.802   7.148 -0.5686  1.2005 -0.5701
  809MOL0     N 9097   4.247   1.785   7.092  0.7527 -0.3600  0.9458
  809MOL0     C 9098   4.304   1.867   6.996  0.9649  0.5493  0.6330
  809MOL0     C 9099   4.422   1.813   6.974  0.1540 -0.2669  0.2357
  809MOL0     C 9100   4.540   1.860   6.893  0.3790  0.6087 -1.1384
  809MOL0     C 9101   4.589   1.746   6.804 -0.2189 -0.7179 -0.4909
  809MOL0     C 9102   4.698   1.782   6.701 -0.3383  0.6105  0.1916
  809MOL0     C 9103   4.636   1.856   6.584 -1.2375  0.1276  0.9965
  809MOL0     O 9104   4.700   1.981   6.551  0.0892 -0.6300  0.2826
  809MOL0     C 9105   4.825   1.980   6.491  0.9257 -0.6923 -0.1577
  809MOL0     C 9106   4.905   1.874   6.480 -0.7846  0.1074 -0.4210
  809MOL0     C 9107   5.031   1.885   6.420 -0.6079  0.3340 -0.1126
  809MOL0     C 9108   5.073   2.004   6.355  0.0743 -0.0525  0.1013
  809MOL0     C 9109   5.196   2.015   6.261 -1.1221  1.0093 -0.9588
  809MOL0     O 9110   5.270   1.899   6.264  0.3329 -0.1879 -0.0233
  809MOL0     C 9111   5.384   1.880   6.199 -0.2280  0.3654  0.2331
  809MOL0     C 9112   5.449   1.956   6.097 -0.9860  0.2589 -0.1662
  809MOL0     C 9113   5.576   1.915   6.045 -0.2469  0.5709  0.1520
  809MOL0     C 9114   5.655   1.818   6.107 -0.1490  0.3548  0.0067
  809MOL0     O 9115   5.787   1.783   6.070  0.1318 -0.5040  0.0668
  809MOL0     C 9116   5.817   1.644   6.082 -0.4078  0.6728  0.1178
  809MOL0     C 9117   5.940   1.602   5.999 -0.0540 -0.3239  0.1523
  809MOL0     C 9118   5.989   1.462   6.046 -0.8488 -0.1056  0.8884
  809MOL0     C 9119   6.092   1.410   5.939 -0.4275 -0.0989  0.7917
  809MOL0     C 9120   6.149   1.281   5.998  0.6685 -0.3923  0.5690
  809MOL0     C 9121   6.262   1.226   5.903  0.2522  0.0001  0.3813
  809MOL0     C 9122   6.400   1.299   5.909  0.0388 -0.2187 -0.6412
  809MOL0     C 9123   6.476   1.277   6.043 -0.7184 -0.8786 -0.8248
  809MOL0    Cl 9124   6.656   1.286   6.019  0.0574 -0.0303 -0.0608
  809MOL0     C 9125   5.577   1.738   6.201  0.3173  0.4279 -0.0141
  809MOL0     C 9126   5.448   1.771   6.243  0.4805  0.1421 -0.3867
  809MOL0     O 9127   5.233   2.124   6.217  0.6688 -0.3727  0.1230
  809MOL0     C 9128   4.973   2.107   6.354  0.0180 -0.4533 -0.0765
  809MOL0     C 9129   4.858   2.099   6.427 -0.2143 -0.6214 -0.2474
  809MOL0     N 9130   4.444   1.699   7.055  0.0260 -0.4065  0.3569
  809MOL0     N 9131   4.343   1.697   7.132  0.1694 -0.5236 -0.4477
  809MOL0     C 9132   4.288   1.367   6.365  0.5738  0.5295  0.1538
  809MOL0     C 9133   4.403   1.373   6.301 -0.7631  0.2389 -0.2664
  809MOL0     C 9134   4.843   1.463   6.195 -0.2174 -0.5299  1.1393
  809MOL0     C 9135   4.962   1.535   6.228  0.3162 -0.9007 -0.2882
  809MOL0     C 9136   5.083   1.520   6.155  0.5893 -0.3510 -1.1209
  809MOL0     C 9137   5.087   1.448   6.038  0.2508 -0.2635  0.2257
  809MOL0     O 9138   5.203   1.445   5.972 -0.0087  0.4865  0.5448
  809MOL0     C 9139   5.224   1.351   5.863 -0.1683  0.3499 -0.7276
  809MOL0     C 9140   5.373   1.313   5.851  0.6014 -0.7136 -0.3821
  809MOL0     C 9141   5.429   1.245   5.978 -0.6633 -0.3810 -0.8040
  809MOL0     C 9142   5.580   1.221   5.963  0.2876  0.4590  0.2086
  809MOL0     C 9143   5.642   1.210   6.100  0.1286 -0.4305  0.4231
  809MOL0     C 9144   5.693   1.216   6.209 -0.6611  0.1860  0.3553
  809MOL0     C 9145   4.966   1.391   5.992 -0.0660 -0.8446  0.0324
  809MOL0     C 9146   4.843   1.397   6.065 -0.2731 -0.1692 -0.8432
  809MOL0     C 9147   4.718   1.323   6.012 -0.3231  0.5103 -0.3463
  809MOL0     H 9148   4.611   1.439   6.567 -0.5258 -2.9963  1.8059
  809MOL0     H 9149   4.399   1.430   6.680 -2.1414 -2.1454  0.8415
  809MOL0     H 9150   4.052   1.486   6.428  2.9692 -0.4931  1.3682
  809MOL0     H 9151   3.981   1.335   6.505 -0.1440 -0.5794  1.9959
  809MOL0     H 9152   3.852   1.521   6.582 -0.2683  0.7440  1.7388
  809MOL0     H 9153   3.990   1.612   6.617  0.4395 -1.2628  0.8962
  809MOL0     H 9154   4.031   1.437   6.797  0.4659  2.1910  0.9594
  809MOL0     H 9155   3.874   1.359   6.737 -0.8143  1.5253  0.4685
  809MOL0     H 9156   3.789   1.604   6.805  1.1758  3.7524  1.6685
  809MOL0     H 9157   3.819   1.475   6.922  0.1954 -1.8976 -2.5799
  809MOL0     H 9158   4.047   1.576   6.959  2.1161 -1.2700 -3.1997
  809MOL0     H 9159   4.011   1.692   6.827 -2.0764  0.3509 -0.0189
  809MOL0     H 9160   3.821   1.790   6.959  3.3346  0.6116 -3.9905
  809MOL0     H 9161   3.856   1.677   7.090  1.2079 -0.4490  0.5647
  809MOL0     H 9162   3.934   1.924   7.131 -1.4617 -1.1847  1.1064
  809MOL0     H 9163   4.037   1.925   6.996  0.7987  1.1005  2.7108
  809MOL0     H 9164   4.130   1.856   7.241  0.8844 -0.4469  0.1190
  809MOL0     H 9165   4.078   1.702   7.178 -0.4945  1.2039 -0.4808
  809MOL0     H 9166   4.269   1.965   6.964  1.3024  0.0318 -1.4556
  809MOL0     H 9167   4.504   1.943   6.832 -2.0843 -0.8970 -1.8907
  809MOL0     H 9168   4.617   1.887   6.965 -0.7210 -2.2649  1.3487
  809MOL0     H 9169   4.626   1.668   6.871 -1.7148  0.9483  2.4723
  809MOL0     H 9170   4.503   1.701   6.752 -2.4156  2.3578  0.2575
  809MOL0     H 9171   4.737   1.685   6.669 -0.7486  0.3302  0.5389
  809MOL0     H 9172   4.769   1.851   6.746 -0.0236 -0.8906  2.1191
  809MOL0     H 9173   4.531   1.874   6.609 -1.2217  2.5749 -0.3891
  809MOL0     H 9174   4.642   1.793   6.494  2.0544  1.1338  0.3895
  809MOL0     H 9175   4.869   1.784   6.531 -0.3887 -0.9281 -1.8917
  809MOL0     H 9176   5.094   1.797   6.417 -1.2976 -0.1419 -1.5130
  809MOL0     H 9177   5.393   2.037   6.054 -4.7213 -1.1834  1.5446
  809MOL0     H 9178   5.615   1.968   5.958 -2.3286 -2.7746 -3.0904
  809MOL0     H 9179   5.834   1.620   6.187  2.6869 -0.8883 -0.6169
  809MOL0     H 9180   5.735   1.580   6.050  1.3475 -1.9823  0.6441
  809MOL0     H 9181   5.911   1.598   5.893 -1.5147  1.0789  0.4671
  809MOL0     H 9182   6.019   1.676   6.009 -1.8961  1.9583 -1.3208
  809MOL0     H 9183   6.034   1.459   6.145  2.6471 -0.4093 -0.5790
  809MOL0     H 9184   5.908   1.390   6.063 -1.2838  0.5468  1.6005
  809MOL0     H 9185   6.173   1.482   5.926 -1.3764  0.6054 -1.8588
  809MOL0     H 9186   6.043   1.394   5.843  2.4918 -2.5855 -0.4611
  809MOL0     H 9187   6.067   1.210   6.013 -0.1414  0.5205  0.5346
  809MOL0     H 9188   6.190   1.295   6.098 -1.8428  2.6483  1.2914
  809MOL0     H 9189   6.285   1.130   5.952 -1.2552 -0.2410  0.6527
  809MOL0     H 9190   6.232   1.234   5.798  1.7413  3.7862  0.0961
  809MOL0     H 9191   6.391   1.405   5.885  0.5218 -0.3553 -1.4551
  809MOL0     H 9192   6.462   1.252   5.833  1.5933 -1.2192  1.1630
  809MOL0     H 9193   6.463   1.356   6.118 -3.5581 -0.8097 -1.2706
  809MOL0     H 9194   6.458   1.177   6.083  0.1625 -0.5012  0.5766
  809MOL0     H 9195   5.618   1.648   6.245  1.3389  0.9552  0.1422
  809MOL0     H 9196   5.393   1.712   6.316  0.4601 -0.3453 -0.7873
  809MOL0     H 9197   5.004   2.193   6.297  1.1303 -1.8967 -1.7670
  809MOL0     H 9198   4.786   2.179   6.436 -2.0402 -2.3341  1.1506
  809MOL0     H 9199   4.192   1.329   6.329 -0.1098  0.7494  1.6783
  809MOL0     H 9200   4.391   1.360   6.194  1.3072  3.4589 -1.0629
  809MOL0     H 9201   4.967   1.595   6.318 -1.6196 -0.2545 -0.5755
  809MOL0     H 9202   5.172   1.577   6.174  0.5390 -0.5525 -0.2548
  809MOL0     H 9203   5.197   1.398   5.768  0.1567 -0.7124 -1.3586
  809MOL0     H 9204   5.170   1.257   5.877  0.0375  0.2733 -0.4399
  809MOL0     H 9205   5.425   1.409   5.839 -0.2020 -0.0662  1.0381
  809MOL0     H 9206   5.387   1.243   5.768  0.9407 -2.5746  1.1685
  809MOL0     H 9207   5.381   1.149   5.996 -0.5857 -0.2592  0.1090
  809MOL0     H 9208   5.419   1.312   6.064 -2.6870  2.5653 -3.1222
  809MOL0     H 9209   5.608   1.134   5.903 -1.7689  0.6919 -1.1938
  809MOL0     H 9210   5.622   1.311   5.917  0.8400  0.1244  0.0587
  809MOL0     H 9211   5.735   1.229   6.306  2.7669  0.0896 -0.9863
  809MOL0     H 9212   4.959   1.345   5.894  0.6282 -1.2974  0.1830
  809MOL0     H 9213   4.625   1.379   6.000 -0.3605  0.3592 -0.7533
  809MOL0     H 9214   4.741   1.276   5.916 -2.6645  0.8475 -1.1129
  809MOL0     H 9215   4.709   1.239   6.081  3.2852 -0.8700 -1.2935
  810MOL0     O 9216   5.935   9.760   6.545  0.2693  0.3452 -0.2548
  810MOL0     C 9217   5.877   9.717   6.644  0.3250  0.1086 -0.6637
  810MOL0     O 9218   5.734   9.722   6.668  0.2523  0.4599  0.7467
  810MOL0     C 9219   5.650   9.718   6.564 -0.2608 -0.5600 -0.4115
  810MOL0     C 9220   5.676   9.641   6.451  0.1466 -0.3292 -0.4730
  810MOL0     C 9221   5.594   9.665   6.336  0.0664  0.9412 -0.3542
  810MOL0     C 9222   5.481   9.748   6.333  0.8608 -0.4969 -0.4496
  810MOL0     O 9223   5.411   9.775   6.222 -0.2474 -0.1578 -0.2587
  810MOL0     C 9224   5.481   9.779   6.099  0.2202 -0.4368  1.1184
  810MOL0     C 9225   5.542   9.907   6.060  0.5653 -0.6641  0.7368
  810MOL0     C 9226   5.673   9.925   6.135 -0.7900  0.2917  0.6217
  810MOL0     C 9227   5.744  10.058   6.097 -0.1153 -0.3166  0.4601
  810MOL0     C 9228   5.883  10.072   6.171 -0.0812  0.0745 -0.0547
  810MOL0     C 9229   5.865  10.122   6.320 -0.2547 -0.6092 -0.1014
  810MOL0     C 9230   6.008  10.106   6.383 -0.3849 -0.4817  0.2740
  810MOL0     C 9231   5.996  10.124   6.532  0.3153  0.0701 -0.1788
  810MOL0     N 9232   5.927  10.240   6.582 -0.0619  0.6925  0.8020
  810MOL0     C 9233   5.978  10.367   6.600 -0.6367 -0.1885  0.2493
  810MOL0     C 9234   5.886  10.448   6.649 -0.1671 -0.0384  0.3613
  810MOL0     C 9235   5.897  10.593   6.672  0.2640 -0.4959  0.3785
  810MOL0     C 9236   5.945  10.665   6.542 -0.0568  0.3493 -0.6229
  810MOL0     C 9237   5.924  10.819   6.570  0.2617 -0.5053  1.1827
  810MOL0     C 9238   5.964  10.900   6.442  0.0491 -0.5529 -0.2510
  810MOL0     O 9239   6.105  10.871   6.413  0.4452  0.3519 -0.5882
  810MOL0     C 9240   6.193  10.972   6.436  0.4652  0.4868  0.3140
  810MOL0     C 9241   6.300  10.986   6.344  0.9754 -0.0890 -0.2185
  810MOL0     C 9242   6.403  11.071   6.366 -0.8225 -0.6466  0.3307
  810MOL0     C 9243   6.395  11.165   6.473 -0.0182 -0.3694  0.9649
  810MOL0     C 9244   6.512  11.244   6.507  0.2302 -0.1676  0.5626
  810MOL0     O 9245   6.517  11.307   6.623  0.2796 -0.3818  0.4075
  810MOL0     C 9246   6.623  11.386   6.639  0.3954  0.4755 -0.1787
  810MOL0     C 9247   6.720  11.357   6.726 -0.2130 -0.8067 -0.3913
  810MOL0     C 9248   6.832  11.433   6.736  0.4364  0.6078 -0.5454
  810MOL0     C 9249   6.846  11.552   6.658  0.0482  0.1347 -0.0826
  810MOL0     O 9250   6.955  11.626   6.687  0.4464  0.2589 -0.3299
  810MOL0     C 9251   6.984  11.723   6.585  0.0318 -0.2212 -0.3668
  810MOL0     C 9252   7.117  11.785   6.601  0.4939  0.0051 -0.0726
  810MOL0     C 9253   7.111  11.903   6.700 -0.7331  0.5230 -1.2615
  810MOL0     C 9254   7.251  11.947   6.735 -0.3416 -0.1504  0.4545
  810MOL0     C 9255   7.263  12.067   6.821 -0.2673  0.2161 -0.1582
  810MOL0     C 9256   7.411  12.095   6.851 -0.3084 -0.2904 -0.2217
  810MOL0     C 9257   7.426  12.230   6.920 -0.2389 -0.4654 -0.2519
  810MOL0     C 9258   7.436  12.351   6.833 -0.2719  1.1253 -0.0091
  810MOL0    Cl 9259   7.609  12.353   6.764 -0.1757  0.5103  0.3741
  810MOL0     C 9260   6.738  11.588   6.568  0.3304  0.2439 -0.0812
  810MOL0     C 9261   6.623  11.509   6.570 -0.4046  0.3916  0.5701
  810MOL0     O 9262   6.606  11.252   6.422 -0.4482  0.8231 -0.8649
  810MOL0     C 9263   6.278  11.164   6.546  0.2851  0.2833 -0.8480
  810MOL0     C 9264   6.176  11.071   6.530  0.0549  0.3487  0.0730
  810MOL0     N 9265   5.776  10.365   6.669  0.0865  0.0808  0.1205
  810MOL0     N 9266   5.795  10.249   6.611 -0.6185 -0.0586 -0.2477
  810MOL0     C 9267   5.449   9.810   6.449 -0.7068  0.1458 -0.1480
  810MOL0     C 9268   5.536   9.803   6.561 -0.6873  0.5371  0.0086
  810MOL0     C 9269   5.958   9.687   6.756 -0.3436  0.2476 -1.2048
  810MOL0     C 9270   6.074   9.613   6.741 -0.6561  0.7599 -0.1488
  810MOL0     C 9271   6.172   9.580   6.845 -0.1296  0.2315 -0.3198
  810MOL0     C 9272   6.142   9.634   6.973 -0.7071  0.1526  0.3338
  810MOL0     O 9273   6.220   9.625   7.090  0.1311  0.1168  0.5673
  810MOL0     C 9274   6.344   9.557   7.079 -0.5855 -0.3977 -0.2356
  810MOL0     C 9275   6.432   9.599   7.193 -0.0060 -0.2704 -0.1538
  810MOL0     C 9276   6.579   9.554   7.177  0.2644 -0.0672  0.2154
  810MOL0     C 9277   6.668   9.579   7.292 -0.0249 -0.7899  0.1834
  810MOL0     C 9278   6.676   9.720   7.331  0.7045  0.9164 -0.2460
  810MOL0     C 9279   6.658   9.834   7.367  0.1717 -0.2837  0.2766
  810MOL0     C 9280   6.025   9.705   6.989  0.1680  0.3979 -0.2058
  810MOL0     C 9281   5.933   9.729   6.888  0.3060  0.3209  0.1638
  810MOL0     C 9282   5.822   9.834   6.924 -0.4000  0.5912  0.4391
  810MOL0     H 9283   5.762   9.574   6.447  0.8080  0.5291 -1.0671
  810MOL0     H 9284   5.630   9.618   6.245 -0.0133 -1.8666  0.9702
  810MOL0     H 9285   5.559   9.705   6.079 -0.1079 -0.0366 -2.3955
  810MOL0     H 9286   5.409   9.752   6.021  2.6069  0.3706 -1.5486
  810MOL0     H 9287   5.467   9.982   6.086 -1.2033 -1.6976 -1.0707
  810MOL0     H 9288   5.552   9.925   5.952 -1.1988  2.4383  0.9790
  810MOL0     H 9289   5.753   9.857   6.104 -0.2330  1.3661 -0.3838
  810MOL0     H 9290   5.654   9.925   6.243 -1.2042 -0.0233  0.5506
  810MOL0     H 9291   5.769  10.073   5.992 -0.0811  2.3606  0.7923
  810MOL0     H 9292   5.686  10.144   6.133 -1.2940 -0.7847 -0.2808
  810MOL0     H 9293   5.938   9.978   6.160  0.1057  0.4599 -3.7819
  810MOL0     H 9294   5.943  10.144   6.115 -1.4051  1.3704  0.1194
  810MOL0     H 9295   5.844  10.229   6.314 -1.6563 -0.8976 -1.1316
  810MOL0     H 9296   5.798  10.064   6.384 -0.2147 -3.2667 -2.2789
  810MOL0     H 9297   6.079  10.182   6.350 -1.7386  0.2821 -1.0092
  810MOL0     H 9298   6.036  10.002   6.363 -2.2318 -1.3174  1.6980
  810MOL0     H 9299   5.928  10.044   6.564  0.0944  0.4497  0.3169
  810MOL0     H 9300   6.088  10.112   6.589 -0.7163 -0.0030  1.5499
  810MOL0     H 9301   6.080  10.400   6.581  0.2381 -1.6974  1.9135
  810MOL0     H 9302   5.801  10.638   6.700  0.3938  0.2047 -0.2477
  810MOL0     H 9303   5.967  10.606   6.755 -0.8622  0.6950  1.1689
  810MOL0     H 9304   6.050  10.641   6.520  0.3056  1.1121  0.1989
  810MOL0     H 9305   5.876  10.624   6.468 -0.9041 -3.3818  1.9505
  810MOL0     H 9306   5.985  10.854   6.654  0.3569 -1.0710  1.3576
  810MOL0     H 9307   5.822  10.846   6.600  1.7107  3.2150  3.3648
  810MOL0     H 9308   5.950  11.007   6.458 -0.6087  0.0578 -3.9772
  810MOL0     H 9309   5.894  10.877   6.361  2.1727  3.2486 -3.5091
  810MOL0     H 9310   6.313  10.902   6.277 -0.0044 -0.8782  0.5541
  810MOL0     H 9311   6.492  11.068   6.303  0.3025  1.8094  1.6765
  810MOL0     H 9312   6.715  11.260   6.776  0.7191  0.2613  1.8851
  810MOL0     H 9313   6.921  11.409   6.793  0.4660 -0.0850 -0.8614
  810MOL0     H 9314   6.968  11.671   6.490 -0.7351 -0.3517 -0.1789
  810MOL0     H 9315   6.906  11.801   6.582 -0.2313 -0.5009 -2.5081
  810MOL0     H 9316   7.189  11.710   6.637 -3.6948 -2.9997  3.0522
  810MOL0     H 9317   7.158  11.822   6.506  0.6614  0.4393  0.1657
  810MOL0     H 9318   7.049  11.984   6.663 -3.1333 -0.0287  1.2094
  810MOL0     H 9319   7.054  11.869   6.787 -1.3843  0.5180 -1.6890
  810MOL0     H 9320   7.314  11.963   6.647  1.2914 -2.3857  1.1104
  810MOL0     H 9321   7.303  11.866   6.788  3.5529  2.9202  1.8837
  810MOL0     H 9322   7.213  12.045   6.916 -0.0908 -1.7125 -0.4603
  810MOL0     H 9323   7.222  12.152   6.765 -0.6481  1.2401  1.5982
  810MOL0     H 9324   7.442  12.020   6.923  1.1484  0.3100 -0.1894
  810MOL0     H 9325   7.471  12.091   6.760 -0.5845 -1.7440 -0.3500
  810MOL0     H 9326   7.523  12.222   6.970  0.0435 -3.2501 -1.0903
  810MOL0     H 9327   7.345  12.243   6.992 -1.0347  1.4806 -1.4329
  810MOL0     H 9328   7.376  12.351   6.741  1.3302 -0.6035 -1.1293
  810MOL0     H 9329   7.409  12.437   6.895 -1.7239 -0.3861  1.5726
  810MOL0     H 9330   6.745  11.679   6.511  1.2454 -1.1891 -2.4043
  810MOL0     H 9331   6.538  11.538   6.510  1.0391 -1.1926 -2.4569
  810MOL0     H 9332   6.268  11.231   6.631  0.6562  0.1713 -0.7191
  810MOL0     H 9333   6.091  11.081   6.597 -1.9729 -1.0609 -2.1039
  810MOL0     H 9334   5.362   9.875   6.440 -0.9966 -0.3989 -1.4942
  810MOL0     H 9335   5.517   9.850   6.658  1.3358  2.7204 -0.5521
  810MOL0     H 9336   6.091   9.576   6.640 -1.1667 -0.8191  0.3220
  810MOL0     H 9337   6.270   9.545   6.813  1.5437  2.0407  2.4016
  810MOL0     H 9338   6.399   9.567   6.985  1.4376 -3.9192  0.3661
  810MOL0     H 9339   6.308   9.454   7.070 -2.0964  0.2659 -2.7677
  810MOL0     H 9340   6.387   9.552   7.281 -1.8941  0.9105 -0.4276
  810MOL0     H 9341   6.432   9.708   7.203 -0.5950 -0.1496 -1.4033
  810MOL0     H 9342   6.615   9.596   7.083  2.0307 -2.0476 -0.0687
  810MOL0     H 9343   6.601   9.447   7.179  0.6087  0.0111  1.1655
  810MOL0     H 9344   6.626   9.520   7.374 -1.4750 -0.4621 -0.2955
  810MOL0     H 9345   6.769   9.541   7.277 -0.4389 -2.6645  1.7283
  810MOL0     H 9346   6.630   9.932   7.401  0.5994 -0.1810  0.3425
  810MOL0     H 9347   6.017   9.752   7.087 -0.7572 -0.3145  0.0791
  810MOL0     H 9348   5.724   9.790   6.904 -0.7146  1.4662  0.0040
  810MOL0     H 9349   5.825   9.861   7.030  0.6163  1.9322  0.1095
  810MOL0     H 9350   5.830   9.930   6.870  0.8206 -0.0509 -0.5796
  811MOL0     O 9351   0.309   7.863  10.308  0.2647 -0.9352 -0.5196
  811MOL0     C 9352   0.266   7.965  10.244 -0.7589  0.3240  0.1639
  811MOL0     O 9353   0.331   8.076  10.214 -0.6206 -0.5092  0.0823
  811MOL0     C 9354   0.461   8.101  10.266  0.3703  0.8074 -0.1227
  811MOL0     C 9355   0.564   8.153  10.187  0.4093 -0.3672  0.6737
  811MOL0     C 9356   0.685   8.188  10.250 -0.7753  0.7046 -0.1349
  811MOL0     C 9357   0.711   8.172  10.386  0.2159 -0.7751 -0.2474
  811MOL0     O 9358   0.821   8.207  10.449 -0.6058  0.3355 -0.3868
  811MOL0     C 9359   0.921   8.294  10.390 -0.5383  0.7772  0.1736
  811MOL0     C 9360   1.044   8.315  10.485 -0.4615  0.0340 -0.1194
  811MOL0     C 9361   1.153   8.411  10.432  0.1107 -1.3318 -0.9559
  811MOL0     C 9362   1.087   8.549  10.403 -0.1017 -0.1265 -0.4932
  811MOL0     C 9363   1.175   8.668  10.436  0.1992  0.0989  0.5897
  811MOL0     C 9364   1.303   8.665  10.351 -0.0856  0.2377 -0.5287
  811MOL0     C 9365   1.394   8.787  10.368  0.5037 -0.2150 -0.0334
  811MOL0     C 9366   1.351   8.910  10.285 -0.0756 -0.1530  0.1047
  811MOL0     N 9367   1.386   9.039  10.350 -0.5676  0.2998  0.6721
  811MOL0     C 9368   1.512   9.065  10.384 -0.1324  0.5837  0.1711
  811MOL0     C 9369   1.501   9.178  10.458 -0.6030  0.3160 -0.1489
  811MOL0     C 9370   1.611   9.275  10.509  0.0268  0.2671  0.1029
  811MOL0     C 9371   1.581   9.315  10.645 -0.4591 -0.3382 -0.2419
  811MOL0     C 9372   1.649   9.443  10.699 -0.8486  0.7534  0.4119
  811MOL0     C 9373   1.806   9.422  10.702  0.2859  0.5296  0.2335
  811MOL0     O 9374   1.855   9.544  10.765 -0.1563  0.2425  0.1054
  811MOL0     C 9375   1.993   9.545  10.791  0.7834 -0.2559 -0.2148
  811MOL0     C 9376   2.084   9.449  10.747 -0.6546 -0.6992 -0.3993
  811MOL0     C 9377   2.225   9.470  10.756 -0.6372 -0.3057  0.5890
  811MOL0     C 9378   2.270   9.593  10.819  0.2980 -0.4510  0.3453
  811MOL0     C 9379   2.412   9.622  10.825  0.0278 -0.1280  0.0793
  811MOL0     O 9380   2.478   9.563  10.732 -0.7284  0.8260  0.2537
  811MOL0     C 9381   2.607   9.609  10.700  0.9299 -0.6476 -0.3537
  811MOL0     C 9382   2.714   9.617  10.786 -0.0496 -0.1631 -0.4963
  811MOL0     C 9383   2.845   9.638  10.736  0.4351 -0.4346  0.4168
  811MOL0     C 9384   2.870   9.663  10.604 -0.9378  0.5562 -0.2270
  811MOL0     O 9385   2.990   9.708  10.546  0.6536 -0.0358  0.0113
  811MOL0     C 9386   3.108   9.677  10.627  0.1122 -0.3604  0.1274
  811MOL0     C 9387   3.236   9.703  10.533  0.4343  0.1601 -0.3633
  811MOL0     C 9388   3.290   9.574  10.486  0.0445  0.1188  0.9377
  811MOL0     C 9389   3.413   9.594  10.405  0.1093  0.6964 -0.2089
  811MOL0     C 9390   3.452   9.462  10.347  0.8672 -0.1039  0.4253
  811MOL0     C 9391   3.565   9.477  10.245 -0.6111 -0.0059 -0.1874
  811MOL0     C 9392   3.540   9.554  10.116 -0.3226 -0.2378 -0.0548
  811MOL0     C 9393   3.419   9.514  10.038  0.7942  0.3442  0.0453
  811MOL0    Cl 9394   3.423   9.345   9.992 -0.6913  0.4240 -0.1471
  811MOL0     C 9395   2.765   9.650  10.513  0.3734 -0.5626 -0.2328
  811MOL0     C 9396   2.630   9.617  10.564 -0.9295 -0.4218  0.5279
  811MOL0     O 9397   2.458   9.709  10.900  0.2970  0.5296 -0.2936
  811MOL0     C 9398   2.176   9.684  10.877  0.8686  0.0880  0.3563
  811MOL0     C 9399   2.036   9.655  10.867 -0.2120 -0.2052  0.1950
  811MOL0     N 9400   1.365   9.208  10.466 -0.3354  0.2417  0.8289
  811MOL0     N 9401   1.295   9.117  10.411 -0.6055 -0.2006  1.2363
  811MOL0     C 9402   0.609   8.114  10.462 -0.2561 -1.1667 -0.1750
  811MOL0     C 9403   0.482   8.088  10.402 -0.3730  0.1283  0.1179
  811MOL0     C 9404   0.134   7.948  10.198  0.6943 -0.3674 -0.6709
  811MOL0     C 9405   0.042   8.051  10.233  0.2280 -0.5051  0.4830
  811MOL0     C 9406  -0.095   8.046  10.206 -0.3473  0.1022  0.1259
  811MOL0     C 9407  -0.152   7.941  10.137  0.7225  0.2882 -0.7018
  811MOL0     O 9408  -0.284   7.916  10.109  0.0109  0.0757  0.0154
  811MOL0     C 9409  -0.380   7.959  10.211  0.3874 -0.0116  0.0825
  811MOL0     C 9410  -0.454   7.851  10.271  0.3863  0.0276 -0.5032
  811MOL0     C 9411  -0.594   7.821  10.226  0.2640  0.0053  0.1607
  811MOL0     C 9412  -0.610   7.753  10.095  0.5299 -0.0908  0.1233
  811MOL0     C 9413  -0.728   7.813  10.026  0.1943  0.2419 -1.1991
  811MOL0     C 9414  -0.823   7.876   9.988  0.3623  0.0534  0.2772
  811MOL0     C 9415  -0.062   7.836  10.108  1.3267  0.5398 -0.7635
  811MOL0     C 9416   0.076   7.830  10.138  0.3306 -1.2958 -0.5129
  811MOL0     C 9417   0.154   7.712  10.092 -0.2179 -0.4245 -0.5568
  811MOL0     H 9418   0.566   8.164  10.079  0.2590  0.5186  0.7526
  811MOL0     H 9419   0.763   8.229  10.188  1.2981 -0.5698  1.5043
  811MOL0     H 9420   0.947   8.253  10.292  2.9986 -1.5667  1.8822
  811MOL0     H 9421   0.876   8.391  10.364  1.4414  1.6925 -0.0243
  811MOL0     H 9422   1.091   8.217  10.501 -1.1897 -0.5263 -1.3180
  811MOL0     H 9423   1.011   8.362  10.579  2.5849 -1.8259  2.0859
  811MOL0     H 9424   1.177   8.373  10.333 -0.4362 -0.2986 -1.5076
  811MOL0     H 9425   1.238   8.424  10.500 -0.6867  0.9491 -0.3006
  811MOL0     H 9426   1.054   8.554  10.299 -1.4540  0.6931 -0.0561
  811MOL0     H 9427   0.996   8.559  10.464 -0.0318 -3.7018  0.4553
  811MOL0     H 9428   1.119   8.759  10.416 -0.0427 -0.0536  0.5773
  811MOL0     H 9429   1.198   8.659  10.543  1.4250 -0.8308  0.2668
  811MOL0     H 9430   1.364   8.580  10.379 -0.3228 -0.7525 -2.8291
  811MOL0     H 9431   1.283   8.647  10.245 -2.6322 -1.9310  0.1956
  811MOL0     H 9432   1.499   8.758  10.354  0.8296  0.8262  0.1563
  811MOL0     H 9433   1.380   8.818  10.473 -1.7462  0.8518 -0.5874
  811MOL0     H 9434   1.388   8.900  10.183 -3.9629 -1.7508 -1.3455
  811MOL0     H 9435   1.242   8.905  10.281 -0.1971  0.7975  1.3953
  811MOL0     H 9436   1.606   9.014  10.364  0.6127  1.8284  0.3845
  811MOL0     H 9437   1.707   9.224  10.497  0.6648  1.3235  0.6053
  811MOL0     H 9438   1.604   9.357  10.437 -1.4563  0.8140  0.8412
  811MOL0     H 9439   1.476   9.343  10.655 -0.1469  0.0977  2.7005
  811MOL0     H 9440   1.583   9.231  10.716 -1.7872 -1.0135 -0.9739
  811MOL0     H 9441   1.614   9.475  10.797 -1.6907  0.5247  0.1954
  811MOL0     H 9442   1.637   9.527  10.630 -1.7533 -2.0633 -3.1609
  811MOL0     H 9443   1.852   9.409  10.603 -1.9268 -0.4110 -0.7425
  811MOL0     H 9444   1.833   9.333  10.759 -1.7871  0.3173  0.9480
  811MOL0     H 9445   2.047   9.356  10.706  1.7131 -1.9007 -0.0215
  811MOL0     H 9446   2.285   9.389  10.716 -1.0814 -0.7126  0.7384
  811MOL0     H 9447   2.692   9.596  10.891  1.8842  1.3488  0.2719
  811MOL0     H 9448   2.929   9.640  10.805 -0.1991 -2.1261  1.2777
  811MOL0     H 9449   3.102   9.748  10.711  0.5102 -0.0480 -0.1099
  811MOL0     H 9450   3.109   9.574  10.665 -0.4031 -0.5502 -0.3533
  811MOL0     H 9451   3.215   9.775  10.454 -0.7373  0.1331 -0.0876
  811MOL0     H 9452   3.311   9.745  10.601 -0.9210  2.4355 -0.1751
  811MOL0     H 9453   3.319   9.512  10.572  2.2240 -0.4793 -0.1634
  811MOL0     H 9454   3.211   9.522  10.432  1.2522 -3.1916  2.0966
  811MOL0     H 9455   3.488   9.632  10.475 -0.6881 -0.7080  1.4889
  811MOL0     H 9456   3.383   9.668  10.330 -1.0723  1.8511  1.3090
  811MOL0     H 9457   3.364   9.413  10.304  0.9619 -1.0265  1.2501
  811MOL0     H 9458   3.498   9.395  10.420 -1.5922 -1.6992  0.6582
  811MOL0     H 9459   3.649   9.516  10.302  0.0533  0.1991 -1.2778
  811MOL0     H 9460   3.602   9.375  10.230 -2.0346 -0.6460  0.4717
  811MOL0     H 9461   3.625   9.535  10.049 -1.8090 -3.2667 -1.3009
  811MOL0     H 9462   3.538   9.661  10.138  1.5300 -0.5959  2.1244
  811MOL0     H 9463   3.332   9.520  10.104  1.7746 -1.8469  1.6343
  811MOL0     H 9464   3.386   9.571   9.950 -2.2346 -1.0816  0.1324
  811MOL0     H 9465   2.783   9.671  10.409 -1.8133 -0.3007 -0.6098
  811MOL0     H 9466   2.540   9.619  10.502 -0.0569  0.5015 -0.7606
  811MOL0     H 9467   2.202   9.763  10.947  0.5565  0.8550 -0.3807
  811MOL0     H 9468   1.956   9.714  10.910  1.5201  2.6287 -0.1579
  811MOL0     H 9469   0.644   8.102  10.564 -0.6640  2.6007  0.5508
  811MOL0     H 9470   0.401   8.042  10.457 -0.7459  1.4375  0.7078
  811MOL0     H 9471   0.075   8.142  10.282  3.7959 -1.6022  0.4349
  811MOL0     H 9472  -0.156   8.129  10.238 -1.3617 -0.4774 -0.2337
  811MOL0     H 9473  -0.450   8.021  10.155 -1.3594 -1.8804  0.0867
  811MOL0     H 9474  -0.336   8.012  10.295 -1.3818 -0.2435  1.1961
  811MOL0     H 9475  -0.461   7.866  10.379 -0.3385 -1.2207 -0.3629
  811MOL0     H 9476  -0.393   7.761  10.256  0.3980 -0.1873  0.7751
  811MOL0     H 9477  -0.650   7.914  10.242 -1.7038 -1.3754  1.8714
  811MOL0     H 9478  -0.636   7.761  10.307  0.5211  2.3018  2.1039
  811MOL0     H 9479  -0.520   7.770  10.035 -1.0675 -1.0186 -2.7078
  811MOL0     H 9480  -0.621   7.649  10.126 -1.4361  0.5672  1.9461
  811MOL0     H 9481  -0.913   7.930   9.966  0.5517 -0.7936 -3.3150
  811MOL0     H 9482  -0.108   7.746  10.068 -1.2289  0.9101  1.1119
  811MOL0     H 9483   0.257   7.744  10.074 -0.7825  0.3464 -2.7362
  811MOL0     H 9484   0.149   7.639  10.173 -2.2601 -1.3431 -1.4497
  811MOL0     H 9485   0.113   7.672   9.999  1.2970 -1.4065 -0.8355
  812MOL0     O 9486   9.822   5.788   3.986  0.6429  0.1421  0.2746
  812MOL0     C 9487   9.720   5.838   4.029 -0.1592 -1.0172 -0.6847
  812MOL0     O 9488   9.684   5.975   4.008 -0.0266  0.6959  0.4828
  812MOL0     C 9489   9.769   6.064   3.943 -0.6343  0.2878 -0.9759
  812MOL0     C 9490   9.693   6.165   3.890  0.0750 -0.3691 -0.7666
  812MOL0     C 9491   9.763   6.271   3.839  0.2321 -0.1224  0.6751
  812MOL0     C 9492   9.901   6.279   3.838 -0.3122  0.1341  0.4546
  812MOL0     O 9493   9.956   6.388   3.779 -0.2732  0.5386 -0.1111
  812MOL0     C 9494  10.078   6.438   3.844 -0.1436  1.3548  0.2441
  812MOL0     C 9495  10.111   6.568   3.777 -0.9717 -0.3828 -0.0801
  812MOL0     C 9496  10.221   6.639   3.842 -0.2947 -0.5830 -0.1266
  812MOL0     C 9497  10.234   6.784   3.784  0.1144  0.4637 -0.0617
  812MOL0     C 9498  10.364   6.847   3.826 -0.5210  0.9057  0.3964
  812MOL0     C 9499  10.482   6.792   3.746  0.9015 -0.2333 -0.4972
  812MOL0     C 9500  10.616   6.833   3.818 -0.9676  0.2180 -0.6214
  812MOL0     C 9501  10.649   6.980   3.823  0.3079 -0.1650  0.2290
  812MOL0     N 9502  10.790   7.011   3.829  0.2397 -0.0595 -0.1052
  812MOL0     C 9503  10.865   7.016   3.945 -0.6582  0.7440  0.5271
  812MOL0     C 9504  10.987   7.067   3.911  0.3435 -0.5846  0.7436
  812MOL0     C 9505  11.093   7.114   4.006 -0.6245  0.8212 -0.0712
  812MOL0     C 9506  11.231   7.056   3.976  0.1955 -0.5583 -0.7321
  812MOL0     C 9507  11.341   7.119   4.071  0.0349 -0.6824  0.2246
  812MOL0     C 9508  11.337   7.064   4.213 -0.4259  0.0538  0.1218
  812MOL0     O 9509  11.374   6.925   4.229 -0.0201  0.0039 -0.1980
  812MOL0     C 9510  11.506   6.891   4.236 -0.6928  0.4792 -0.0857
  812MOL0     C 9511  11.618   6.977   4.244  0.3478  0.1280 -0.1515
  812MOL0     C 9512  11.740   6.923   4.273 -0.5516  0.1040  0.3602
  812MOL0     C 9513  11.756   6.792   4.312 -0.0505  0.7622  0.7301
  812MOL0     C 9514  11.885   6.736   4.353  0.6834 -0.5630 -0.1773
  812MOL0     O 9515  11.887   6.613   4.419  0.0830  0.7063 -0.0247
  812MOL0     C 9516  12.003   6.560   4.482  1.0124 -0.6168  0.9739
  812MOL0     C 9517  11.972   6.443   4.545  0.4436  0.1292 -0.0859
  812MOL0     C 9518  12.067   6.372   4.622 -1.0865 -0.2536 -0.4166
  812MOL0     C 9519  12.206   6.412   4.619  0.3526 -0.2490 -0.2887
  812MOL0     O 9520  12.305   6.344   4.680 -0.7383  0.5344  0.6936
  812MOL0     C 9521  12.302   6.200   4.662  0.3067 -0.0045  0.4075
  812MOL0     C 9522  12.433   6.147   4.720  0.0986 -0.2150 -0.7383
  812MOL0     C 9523  12.460   5.996   4.705 -0.9045  0.2072  0.0931
  812MOL0     C 9524  12.388   5.900   4.799 -0.2597 -0.0109 -0.2259
  812MOL0     C 9525  12.402   5.747   4.760  0.8925 -0.5638  0.3844
  812MOL0     C 9526  12.311   5.645   4.830  0.7363  0.6440 -0.2475
  812MOL0     C 9527  12.330   5.645   4.987 -0.3079  0.1931  0.2213
  812MOL0     C 9528  12.226   5.555   5.054  0.0019  0.1578 -0.2361
  812MOL0    Cl 9529  12.284   5.384   5.047 -0.9595  0.3923  0.3807
  812MOL0     C 9530  12.243   6.527   4.549  0.1882  0.5607  0.1971
  812MOL0     C 9531  12.141   6.602   4.485 -0.2462  1.4029 -0.0329
  812MOL0     O 9532  11.986   6.806   4.349 -0.2080 -0.5389  0.0288
  812MOL0     C 9533  11.641   6.702   4.300 -0.8953 -0.0818  0.3553
  812MOL0     C 9534  11.516   6.753   4.256 -0.2294  0.4048 -0.6721
  812MOL0     N 9535  10.987   7.082   3.774  0.3417 -0.6156 -0.6080
  812MOL0     N 9536  10.873   7.048   3.725 -0.8010  0.7668  0.2808
  812MOL0     C 9537   9.977   6.174   3.895  0.3742  0.5889  0.3027
  812MOL0     C 9538   9.914   6.065   3.946 -0.6824 -0.3177  0.1606
  812MOL0     C 9539   9.609   5.746   4.082  0.4541 -0.2444 -0.2882
  812MOL0     C 9540   9.496   5.814   4.132 -0.2537  0.1897 -0.4120
  812MOL0     C 9541   9.395   5.748   4.196 -0.7295 -0.5498  0.0015
  812MOL0     C 9542   9.404   5.610   4.210 -0.2947 -0.2487  0.2748
  812MOL0     O 9543   9.309   5.530   4.271 -0.1734  0.2900 -0.3087
  812MOL0     C 9544   9.198   5.581   4.350  0.2181 -0.1502 -0.1578
  812MOL0     C 9545   9.249   5.593   4.492  0.1671 -0.5744  0.0727
  812MOL0     C 9546   9.138   5.654   4.589  0.0536  0.1989 -0.2247
  812MOL0     C 9547   9.197   5.663   4.729  0.5681 -0.4754 -0.3723
  812MOL0     C 9548   9.091   5.719   4.818 -0.8600 -0.3549 -0.2224
  812MOL0     C 9549   8.995   5.762   4.875  1.1385 -0.1139 -0.2038
  812MOL0     C 9550   9.520   5.541   4.172 -0.4964  0.0861 -0.5090
  812MOL0     C 9551   9.617   5.607   4.106  0.1538 -0.3668  0.0099
  812MOL0     C 9552   9.744   5.522   4.075 -0.1865  0.2702  0.3027
  812MOL0     H 9553   9.586   6.167   3.906  0.1836 -1.4592  0.2107
  812MOL0     H 9554   9.706   6.352   3.795 -0.7914 -2.0777 -1.8705
  812MOL0     H 9555  10.054   6.470   3.946  0.5725  0.2190  0.7866
  812MOL0     H 9556  10.159   6.369   3.819  0.9230  2.5658  0.2813
  812MOL0     H 9557  10.023   6.633   3.770 -0.7423  0.0093  0.6115
  812MOL0     H 9558  10.139   6.540   3.675 -1.2960 -0.6167 -0.1086
  812MOL0     H 9559  10.314   6.584   3.823  1.4343  2.2830 -0.7259
  812MOL0     H 9560  10.210   6.645   3.950  1.3403  5.3784  0.0453
  812MOL0     H 9561  10.216   6.773   3.676 -1.6165  0.4072  0.1948
  812MOL0     H 9562  10.149   6.843   3.820  0.2522  0.1114  0.8579
  812MOL0     H 9563  10.350   6.955   3.821 -1.6183  0.7736  0.2349
  812MOL0     H 9564  10.396   6.824   3.928 -0.8468 -1.3689  0.0499
  812MOL0     H 9565  10.476   6.683   3.748  0.3665 -0.2828  3.2662
  812MOL0     H 9566  10.481   6.826   3.642  1.2224  0.8419 -0.1625
  812MOL0     H 9567  10.693   6.775   3.766 -3.8578 -1.9168 -2.8308
  812MOL0     H 9568  10.620   6.801   3.922 -1.0555  0.8064 -0.4369
  812MOL0     H 9569  10.616   7.007   3.723  0.1189 -2.2325 -0.3165
  812MOL0     H 9570  10.586   7.033   3.896  1.6949 -0.1329  1.4394
  812MOL0     H 9571  10.828   6.991   4.044  0.9882 -2.0828  0.5321
  812MOL0     H 9572  11.086   7.223   4.001 -0.6765  0.8222  0.0296
  812MOL0     H 9573  11.075   7.076   4.107 -1.9488  2.2122  0.2396
  812MOL0     H 9574  11.232   6.950   4.001 -1.0954 -0.7223 -1.3335
  812MOL0     H 9575  11.251   7.066   3.869 -0.4172  0.9466 -0.7230
  812MOL0     H 9576  11.334   7.229   4.073  1.4174 -0.5952  1.1106
  812MOL0     H 9577  11.435   7.094   4.022 -1.1303  0.6017 -2.9847
  812MOL0     H 9578  11.242   7.064   4.268  0.9787  1.2913  2.7332
  812MOL0     H 9579  11.406   7.117   4.279 -3.7870  2.8197  1.7060
  812MOL0     H 9580  11.604   7.084   4.232  0.3858  0.1703  0.1806
  812MOL0     H 9581  11.824   6.991   4.264  0.1083 -0.7431  0.0049
  812MOL0     H 9582  11.871   6.404   4.541 -0.2436  1.8057  0.0101
  812MOL0     H 9583  12.035   6.288   4.682  2.0984 -0.6754  0.8838
  812MOL0     H 9584  12.223   6.162   4.726 -0.3220 -0.9891 -0.8984
  812MOL0     H 9585  12.283   6.167   4.559  0.2251  0.8871  0.1298
  812MOL0     H 9586  12.520   6.201   4.682  1.1243  1.0738  3.0306
  812MOL0     H 9587  12.415   6.183   4.821  1.1287  0.7549 -0.8848
  812MOL0     H 9588  12.426   5.972   4.604  0.3711 -1.3537 -0.0096
  812MOL0     H 9589  12.569   5.996   4.719 -0.6865  0.4966 -1.4239
  812MOL0     H 9590  12.286   5.934   4.819  0.0111 -0.6564  2.6699
  812MOL0     H 9591  12.432   5.924   4.896 -0.5088  1.0267 -0.3534
  812MOL0     H 9592  12.507   5.715   4.766  0.5094 -1.6004  3.0380
  812MOL0     H 9593  12.384   5.749   4.652  0.7205  1.6649  0.4070
  812MOL0     H 9594  12.205   5.662   4.810 -0.0304  1.4237  3.6273
  812MOL0     H 9595  12.335   5.542   4.803 -1.2811  0.4645 -1.5566
  812MOL0     H 9596  12.306   5.747   5.019  0.3361  0.2497  0.5265
  812MOL0     H 9597  12.432   5.624   5.020 -1.3719 -2.7797  1.9753
  812MOL0     H 9598  12.216   5.585   5.158  0.8014 -0.7430  0.1072
  812MOL0     H 9599  12.124   5.553   5.013 -1.5032  1.0954  3.1303
  812MOL0     H 9600  12.347   6.557   4.536 -0.1299  1.1866 -1.1018
  812MOL0     H 9601  12.175   6.683   4.422  0.4484  3.8247  3.1767
  812MOL0     H 9602  11.651   6.594   4.312 -0.0453 -0.0723 -0.1869
  812MOL0     H 9603  11.432   6.686   4.246  0.3467 -0.8699  2.1364
  812MOL0     H 9604  10.085   6.179   3.884  0.2589  2.3176 -0.3062
  812MOL0     H 9605   9.970   5.980   3.982  0.5742  0.3332 -0.1793
  812MOL0     H 9606   9.483   5.922   4.120  3.9372  0.8544 -0.5169
  812MOL0     H 9607   9.306   5.804   4.223 -0.8667 -0.7536 -0.0253
  812MOL0     H 9608   9.111   5.515   4.341  1.0109 -1.5273  1.6248
  812MOL0     H 9609   9.160   5.682   4.332 -1.4836 -0.5441  0.9809
  812MOL0     H 9610   9.341   5.650   4.499  1.8742 -3.1851  0.4524
  812MOL0     H 9611   9.277   5.496   4.535  1.0468 -0.7571 -0.8863
  812MOL0     H 9612   9.047   5.594   4.587  0.3952 -0.4820  1.9040
  812MOL0     H 9613   9.126   5.753   4.544  0.5919  0.8634  1.0495
  812MOL0     H 9614   9.221   5.568   4.778 -1.4578 -1.3206 -0.9221
  812MOL0     H 9615   9.278   5.737   4.725  0.0736  0.0931 -0.0320
  812MOL0     H 9616   8.910   5.815   4.913  1.1428 -0.0175 -0.3286
  812MOL0     H 9617   9.520   5.438   4.204 -0.7618  0.0138 -0.7365
  812MOL0     H 9618   9.828   5.545   4.142  0.3854 -0.7440 -0.0412
  812MOL0     H 9619   9.725   5.418   4.104  2.8716  0.1080  2.1701
  812MOL0     H 9620   9.776   5.526   3.971  1.4733 -0.4616  0.7417
  813MOL0     O 9621   5.065   8.122   8.793 -0.4376  0.1024 -0.0424
  813MOL0     C 9622   5.034   8.015   8.832  0.4148  0.2596 -0.2266
  813MOL0     O 9623   5.116   7.923   8.891 -0.6771  0.3758  0.1629
  813MOL0     C 9624   5.254   7.932   8.878 -0.2481 -0.1614 -0.0795
  813MOL0     C 9625   5.317   7.968   8.762  0.7689  0.4515  0.2781
  813MOL0     C 9626   5.455   7.954   8.760 -0.0048  0.2358 -0.4408
  813MOL0     C 9627   5.530   7.900   8.860  0.3696 -0.2036 -0.4368
  813MOL0     O 9628   5.667   7.898   8.834 -0.5432  0.2427  0.1770
  813MOL0     C 9629   5.745   7.856   8.941  0.3014 -0.3321  0.3592
  813MOL0     C 9630   5.887   7.847   8.903  0.1354 -0.1238  0.4622
  813MOL0     C 9631   5.934   7.977   8.834 -0.1825  0.3741  0.3098
  813MOL0     C 9632   6.065   7.961   8.755 -0.9164  0.6126  0.9048
  813MOL0     C 9633   6.144   8.094   8.741  0.2098  0.0957  0.4856
  813MOL0     C 9634   6.066   8.195   8.661 -0.0747 -0.1993 -0.0935
  813MOL0     C 9635   6.104   8.344   8.691  0.4832  1.0586 -0.1190
  813MOL0     C 9636   6.228   8.394   8.632 -0.2776 -0.5923 -0.2844
  813MOL0     N 9637   6.344   8.338   8.705  0.5571  0.6448 -0.7414
  813MOL0     C 9638   6.408   8.384   8.821 -0.3566  0.1378  0.4699
  813MOL0     C 9639   6.508   8.297   8.851  0.4089 -0.5288  0.7012
  813MOL0     C 9640   6.596   8.308   8.969 -0.5369  0.6732  0.4754
  813MOL0     C 9641   6.737   8.361   8.924  0.6906 -0.0935  0.1112
  813MOL0     C 9642   6.833   8.303   9.023 -0.1786 -0.2144 -0.4093
  813MOL0     C 9643   6.973   8.362   9.014  0.1870  0.1637  0.9920
  813MOL0     O 9644   7.018   8.442   9.128  0.1364  0.7419  0.4711
  813MOL0     C 9645   7.140   8.506   9.123  0.7030 -0.2494  0.4166
  813MOL0     C 9646   7.223   8.512   9.011  0.5515  0.1846  0.8329
  813MOL0     C 9647   7.339   8.590   9.005 -0.8576  0.0823  0.9203
  813MOL0     C 9648   7.384   8.659   9.118 -0.9098  0.1533 -0.7012
  813MOL0     C 9649   7.510   8.747   9.127 -1.2827  0.6186  0.1981
  813MOL0     O 9650   7.554   8.791   9.005 -0.6559  0.6668 -0.7055
  813MOL0     C 9651   7.683   8.834   8.983  0.6358 -0.5957  0.1791
  813MOL0     C 9652   7.712   8.936   8.884 -0.0996  0.5043  0.2767
  813MOL0     C 9653   7.841   8.981   8.856  0.4303  0.5087 -0.2231
  813MOL0     C 9654   7.950   8.915   8.916  0.0853 -0.4077  0.1390
  813MOL0     O 9655   8.072   8.973   8.877  0.1842  0.6748 -0.5594
  813MOL0     C 9656   8.190   8.949   8.966 -0.4061  0.0487  0.9182
  813MOL0     C 9657   8.293   9.056   8.936 -0.3286 -0.8745  0.0989
  813MOL0     C 9658   8.428   9.044   9.022 -0.8915 -0.2689  0.3221
  813MOL0     C 9659   8.435   9.120   9.154 -0.5786 -0.1018 -0.4412
  813MOL0     C 9660   8.566   9.073   9.236  0.4992  0.4335  0.4039
  813MOL0     C 9661   8.584   9.167   9.356 -0.7339 -0.1021  0.1516
  813MOL0     C 9662   8.688   9.288   9.347 -1.3749 -0.3719  0.9586
  813MOL0     C 9663   8.651   9.397   9.248 -0.8634  0.2796 -0.0269
  813MOL0    Cl 9664   8.774   9.517   9.246  0.1662 -0.5471  0.3099
  813MOL0     C 9665   7.929   8.812   9.006 -0.5609 -0.2481 -0.5867
  813MOL0     C 9666   7.801   8.767   9.039  0.0341 -0.1908 -0.1029
  813MOL0     O 9667   7.571   8.766   9.233 -0.7437  0.0813 -0.1915
  813MOL0     C 9668   7.304   8.654   9.230 -0.9676 -0.4352 -0.0204
  813MOL0     C 9669   7.182   8.587   9.231 -0.4425 -0.1733  0.0510
  813MOL0     N 9670   6.512   8.204   8.746  0.2527 -0.0367 -0.5457
  813MOL0     N 9671   6.418   8.234   8.660 -0.1121 -0.4803 -0.6853
  813MOL0     C 9672   5.463   7.874   8.980 -0.4797  0.1356 -0.6974
  813MOL0     C 9673   5.327   7.884   8.983  0.1492  0.3700  0.3335
  813MOL0     C 9674   4.891   7.973   8.825  0.7696  0.1018 -0.0718
  813MOL0     C 9675   4.865   7.835   8.843 -0.0737 -0.2982  0.2496
  813MOL0     C 9676   4.732   7.783   8.834 -0.7056 -0.0839  0.4357
  813MOL0     C 9677   4.624   7.869   8.804 -0.1655 -0.9002  0.3967
  813MOL0     O 9678   4.499   7.813   8.794 -0.2408  0.1595  0.3477
  813MOL0     C 9679   4.458   7.703   8.877 -0.2298  0.1350  0.1087
  813MOL0     C 9680   4.307   7.693   8.877  0.5930 -0.4611  0.1487
  813MOL0     C 9681   4.262   7.578   8.965  0.0049 -0.3542 -0.2961
  813MOL0     C 9682   4.106   7.574   8.975 -0.7059 -0.7044  0.1269
  813MOL0     C 9683   4.053   7.452   9.047  0.0712 -0.1617  1.3155
  813MOL0     C 9684   4.016   7.356   9.109  0.8933 -0.6268  0.3495
  813MOL0     C 9685   4.652   8.006   8.792 -0.3750  0.0079  0.5325
  813MOL0     C 9686   4.779   8.060   8.807  0.4687  0.0275 -0.5900
  813MOL0     C 9687   4.794   8.212   8.801  0.4214  0.0554  0.2189
  813MOL0     H 9688   5.271   8.010   8.673 -1.3099  0.5222  1.3321
  813MOL0     H 9689   5.508   7.998   8.677  0.5570  4.0954  1.7319
  813MOL0     H 9690   5.725   7.928   9.020 -1.4832 -2.2768  1.8010
  813MOL0     H 9691   5.707   7.756   8.967 -1.2892 -0.6028 -2.6242
  813MOL0     H 9692   5.890   7.760   8.837  3.9844 -0.4938  0.9454
  813MOL0     H 9693   5.949   7.831   8.991 -0.5559  0.8186  1.1449
  813MOL0     H 9694   5.951   8.051   8.913 -0.6601 -0.3016  1.0642
  813MOL0     H 9695   5.856   8.029   8.778 -1.0628  0.2032  1.3316
  813MOL0     H 9696   6.134   7.890   8.801 -0.6636  1.5143  1.9569
  813MOL0     H 9697   6.043   7.930   8.652 -1.5077  3.3509  0.1290
  813MOL0     H 9698   6.172   8.138   8.837  1.5204  2.5770 -0.9174
  813MOL0     H 9699   6.233   8.068   8.683  0.9014 -1.0703  1.9916
  813MOL0     H 9700   6.080   8.170   8.556  1.1150 -1.8660  0.4060
  813MOL0     H 9701   5.960   8.191   8.685  0.0290 -0.4990  0.3254
  813MOL0     H 9702   6.104   8.357   8.799 -3.3757 -1.2326  0.3429
  813MOL0     H 9703   6.026   8.409   8.648  2.9884  2.8643 -2.2742
  813MOL0     H 9704   6.225   8.366   8.526  0.0661  2.4959 -1.2238
  813MOL0     H 9705   6.231   8.503   8.633  0.3578 -0.6062  0.5784
  813MOL0     H 9706   6.386   8.465   8.890  1.8443  0.1267  1.2391
  813MOL0     H 9707   6.543   8.363   9.047 -3.9879 -1.8062  0.1333
  813MOL0     H 9708   6.605   8.204   9.003 -0.9203 -0.2491 -2.0121
  813MOL0     H 9709   6.757   8.323   8.824 -2.4836  0.7797 -0.9668
  813MOL0     H 9710   6.741   8.470   8.911  1.3198 -0.3419 -2.2513
  813MOL0     H 9711   6.835   8.193   9.028  1.6385 -0.1830  0.8633
  813MOL0     H 9712   6.799   8.341   9.120 -0.9046  0.8465 -1.0696
  813MOL0     H 9713   6.987   8.415   8.919  1.0050 -0.2126  0.8894
  813MOL0     H 9714   7.038   8.274   9.007  1.7888  1.3321  0.4368
  813MOL0     H 9715   7.180   8.472   8.920  1.2636  2.6512 -0.6877
  813MOL0     H 9716   7.400   8.586   8.915 -2.4393  2.9050 -0.4196
  813MOL0     H 9717   7.629   8.994   8.844  0.2580  2.6602  2.4567
  813MOL0     H 9718   7.853   9.063   8.786 -2.1721 -1.1047 -2.7682
  813MOL0     H 9719   8.169   8.952   9.073  0.3742  2.0227  1.0718
  813MOL0     H 9720   8.233   8.850   8.950 -0.6469  0.1931 -0.9082
  813MOL0     H 9721   8.309   9.060   8.828 -0.9258  0.5950  0.0392
  813MOL0     H 9722   8.243   9.151   8.960  1.9551  0.6142 -0.6411
  813MOL0     H 9723   8.455   8.939   9.037 -0.3026  0.0998  2.0821
  813MOL0     H 9724   8.502   9.093   8.958 -2.2138 -0.2248 -1.2559
  813MOL0     H 9725   8.341   9.103   9.208 -0.2787  1.4755  0.6376
  813MOL0     H 9726   8.446   9.227   9.138  2.2291  0.0366  1.5659
  813MOL0     H 9727   8.655   9.079   9.172  0.9593  0.4886  1.0437
  813MOL0     H 9728   8.554   8.973   9.278 -1.8464  1.0635  1.3986
  813MOL0     H 9729   8.490   9.220   9.372 -0.5921  0.0511  0.4951
  813MOL0     H 9730   8.621   9.105   9.439  0.3196 -1.3035 -1.1673
  813MOL0     H 9731   8.781   9.243   9.313  0.4832  2.9859  1.2196
  813MOL0     H 9732   8.695   9.325   9.450 -0.1637  1.4969  0.2641
  813MOL0     H 9733   8.640   9.361   9.145 -3.0650  1.1348 -0.1222
  813MOL0     H 9734   8.551   9.440   9.255 -2.1492 -2.0488 -2.2037
  813MOL0     H 9735   8.012   8.764   9.056 -1.0440 -1.6511 -1.0839
  813MOL0     H 9736   7.799   8.682   9.106 -0.7848 -3.3426 -3.7098
  813MOL0     H 9737   7.332   8.710   9.319 -0.2841 -0.2119 -0.3661
  813MOL0     H 9738   7.116   8.596   9.317 -2.0960 -0.8673 -1.0874
  813MOL0     H 9739   5.519   7.828   9.061 -1.5696 -1.2910 -0.7016
  813MOL0     H 9740   5.275   7.849   9.072  0.8379  1.1250  1.0491
  813MOL0     H 9741   4.943   7.763   8.864  0.3875  0.3452  0.7924
  813MOL0     H 9742   4.734   7.675   8.843  4.0489 -0.0781  2.4428
  813MOL0     H 9743   4.483   7.715   8.983 -0.9716  3.3309  0.0025
  813MOL0     H 9744   4.497   7.610   8.835 -0.1370  0.3980 -0.3921
  813MOL0     H 9745   4.273   7.673   8.775 -1.1096  1.2838  0.3226
  813MOL0     H 9746   4.267   7.787   8.917 -2.1232 -2.0597  1.4477
  813MOL0     H 9747   4.312   7.575   9.062  1.2166 -2.1842 -0.9106
  813MOL0     H 9748   4.300   7.483   8.926  0.8588 -0.8767  1.6563
  813MOL0     H 9749   4.070   7.665   9.025 -0.1520  0.3645 -1.3374
  813MOL0     H 9750   4.059   7.571   8.876 -1.1851  2.6380  0.1272
  813MOL0     H 9751   3.983   7.280   9.177  3.2722 -0.6231  1.6149
  813MOL0     H 9752   4.574   8.077   8.764  0.7382 -0.0283 -3.1675
  813MOL0     H 9753   4.858   8.250   8.881 -2.6694  3.8456  1.1782
  813MOL0     H 9754   4.833   8.254   8.708  3.8316  0.7982  1.8319
  813MOL0     H 9755   4.698   8.257   8.828 -0.0977 -2.4425  3.0036
  814MOL0     O 9756   5.647   7.049   2.595  0.5252  0.2959  0.2731
  814MOL0     C 9757   5.570   6.995   2.516  0.2427  0.0131 -0.2934
  814MOL0     O 9758   5.614   6.917   2.417  0.0753 -0.3021 -0.1485
  814MOL0     C 9759   5.730   6.842   2.439  0.0672 -0.9280 -0.4678
  814MOL0     C 9760   5.799   6.805   2.325 -0.5091 -0.6858 -0.2183
  814MOL0     C 9761   5.895   6.705   2.323  0.1307 -0.3765 -0.9278
  814MOL0     C 9762   5.942   6.656   2.450  0.0936  0.1112 -0.1643
  814MOL0     O 9763   6.037   6.555   2.471  0.4779  0.1077 -0.1350
  814MOL0     C 9764   6.104   6.516   2.348 -0.5173 -0.4552  0.5891
  814MOL0     C 9765   6.208   6.413   2.376 -0.6415  0.5856 -0.4476
  814MOL0     C 9766   6.162   6.278   2.424 -0.3979  0.2093  1.0634
  814MOL0     C 9767   6.288   6.179   2.433 -0.5311  0.0577 -0.1355
  814MOL0     C 9768   6.248   6.054   2.508 -0.8229 -0.4261 -0.0173
  814MOL0     C 9769   6.366   5.967   2.535 -0.2972 -0.2013  0.8801
  814MOL0     C 9770   6.325   5.838   2.613 -0.5122  0.7022  0.4850
  814MOL0     C 9771   6.430   5.766   2.698 -0.6122 -0.3545  0.1087
  814MOL0     N 9772   6.546   5.719   2.618 -0.1095 -0.1778 -0.5095
  814MOL0     C 9773   6.602   5.590   2.612  0.2869 -0.4955 -0.2834
  814MOL0     C 9774   6.726   5.604   2.554  0.6859 -1.4132  0.1354
  814MOL0     C 9775   6.829   5.501   2.525  0.1384  0.3447 -0.1737
  814MOL0     C 9776   6.835   5.398   2.637 -0.4373 -0.4921  0.0492
  814MOL0     C 9777   6.915   5.278   2.599  0.8149 -0.2600  0.3525
  814MOL0     C 9778   7.070   5.286   2.610  0.2409  0.0090  0.1675
  814MOL0     O 9779   7.129   5.169   2.554 -0.0770  0.5070  0.0520
  814MOL0     C 9780   7.258   5.129   2.571 -0.7782  0.8173  0.1504
  814MOL0     C 9781   7.310   5.028   2.487  0.1347  0.0512  0.2022
  814MOL0     C 9782   7.447   4.983   2.498 -0.2968  0.0160  0.0473
  814MOL0     C 9783   7.533   5.043   2.597  0.8548 -0.5763 -1.1637
  814MOL0     C 9784   7.673   4.994   2.603  0.5566 -0.6298  0.6690
  814MOL0     O 9785   7.694   4.871   2.544  0.2871 -0.1639  0.0295
  814MOL0     C 9786   7.815   4.832   2.499 -0.6066  0.0520 -0.3392
  814MOL0     C 9787   7.925   4.915   2.459  0.5408  0.0352 -0.6453
  814MOL0     C 9788   8.053   4.865   2.423  0.6439 -0.7399 -0.2830
  814MOL0     C 9789   8.069   4.722   2.433 -0.2778 -0.6851 -0.5945
  814MOL0     O 9790   8.198   4.676   2.406  0.3445 -0.2247  0.0991
  814MOL0     C 9791   8.250   4.584   2.501  0.7285 -0.2864  0.2325
  814MOL0     C 9792   8.387   4.529   2.456  1.2114 -0.2200  0.5638
  814MOL0     C 9793   8.503   4.620   2.509 -0.0434 -0.1240 -1.2130
  814MOL0     C 9794   8.636   4.569   2.478 -0.8332  0.5896  0.8394
  814MOL0     C 9795   8.752   4.663   2.502 -0.6448  0.1922  0.5442
  814MOL0     C 9796   8.745   4.801   2.423  0.1205 -0.3403 -0.1095
  814MOL0     C 9797   8.883   4.861   2.408  0.1974  0.5214  0.5381
  814MOL0     C 9798   8.870   5.010   2.378 -0.2885 -0.1576 -0.1894
  814MOL0    Cl 9799   8.837   5.107   2.532  0.3185  0.4422 -0.5822
  814MOL0     C 9800   7.960   4.647   2.477 -1.3599 -0.1904 -0.1729
  814MOL0     C 9801   7.840   4.695   2.499  0.4534 -0.5368 -0.3202
  814MOL0     O 9802   7.760   5.074   2.627 -0.3046  0.1837  0.0682
  814MOL0     C 9803   7.482   5.154   2.671  0.4034 -0.0973 -0.0041
  814MOL0     C 9804   7.346   5.192   2.662  0.1346  1.1329  0.0522
  814MOL0     N 9805   6.745   5.745   2.541  0.2025 -0.6579 -0.0373
  814MOL0     N 9806   6.642   5.805   2.581  0.5466 -0.2504 -0.5953
  814MOL0     C 9807   5.879   6.698   2.568 -0.6875 -0.6616 -0.0016
  814MOL0     C 9808   5.779   6.804   2.566 -0.3130  0.0242 -0.3007
  814MOL0     C 9809   5.428   7.002   2.545 -0.5873  1.2866 -0.5994
  814MOL0     C 9810   5.339   6.973   2.437 -0.2224  0.5093 -0.3073
  814MOL0     C 9811   5.202   6.986   2.461  0.1370  0.6700 -0.2646
  814MOL0     C 9812   5.151   7.031   2.586  0.4253 -0.2603  0.1905
  814MOL0     O 9813   5.018   7.049   2.614  0.0562  0.0282 -0.3152
  814MOL0     C 9814   4.934   6.986   2.520  0.2790 -0.0977  0.2520
  814MOL0     C 9815   4.790   7.000   2.550 -1.2196 -0.3444 -0.9763
  814MOL0     C 9816   4.749   6.896   2.660  0.6877  0.7395  0.5162
  814MOL0     C 9817   4.595   6.924   2.698  0.0434  0.2513  0.2438
  814MOL0     C 9818   4.504   6.821   2.631  0.2347  0.3766 -0.0451
  814MOL0     C 9819   4.437   6.741   2.566 -0.0972  0.0217  0.2197
  814MOL0     C 9820   5.238   7.064   2.678 -0.4336  0.2101  0.3006
  814MOL0     C 9821   5.373   7.046   2.667 -0.0073  0.4177 -0.9441
  814MOL0     C 9822   5.453   7.076   2.789  0.2860  0.6239 -0.2935
  814MOL0     H 9823   5.763   6.833   2.226 -2.7022 -0.1838  0.6805
  814MOL0     H 9824   5.928   6.675   2.224 -0.9359 -0.3763 -1.3005
  814MOL0     H 9825   6.032   6.482   2.273 -0.2530  1.3435 -0.5620
  814MOL0     H 9826   6.157   6.593   2.290  2.8384 -1.5660  1.9762
  814MOL0     H 9827   6.271   6.455   2.455 -0.7748  0.2188 -0.1417
  814MOL0     H 9828   6.266   6.410   2.284  0.4946 -0.5544  0.2802
  814MOL0     H 9829   6.088   6.245   2.350  1.3981 -2.3974  0.3015
  814MOL0     H 9830   6.114   6.297   2.521  1.8550 -0.4855  2.3704
  814MOL0     H 9831   6.308   6.146   2.331 -1.0902 -2.0363  0.3924
  814MOL0     H 9832   6.381   6.220   2.474 -1.4832  0.5825  1.6414
  814MOL0     H 9833   6.210   6.085   2.606  1.1603 -0.2929  0.7433
  814MOL0     H 9834   6.174   5.997   2.451  2.1235 -1.6904 -2.8851
  814MOL0     H 9835   6.413   5.934   2.442 -0.4273 -1.9784  1.4097
  814MOL0     H 9836   6.431   6.023   2.602 -0.4116  0.7082  0.2519
  814MOL0     H 9837   6.277   5.768   2.543 -0.5033  0.6338  0.5471
  814MOL0     H 9838   6.244   5.858   2.683 -0.8757 -0.7499  0.5032
  814MOL0     H 9839   6.452   5.829   2.785 -1.3844  3.2386 -2.0867
  814MOL0     H 9840   6.397   5.672   2.744 -0.0759 -0.1809  0.8725
  814MOL0     H 9841   6.559   5.495   2.644 -1.7685  0.9834  1.7118
  814MOL0     H 9842   6.791   5.452   2.435 -2.5790 -0.0111  1.0635
  814MOL0     H 9843   6.926   5.542   2.497  0.5283 -2.3964 -3.4393
  814MOL0     H 9844   6.885   5.450   2.719 -0.4484  1.5721 -1.1710
  814MOL0     H 9845   6.733   5.364   2.655 -0.5536 -1.2344 -1.8294
  814MOL0     H 9846   6.894   5.247   2.496 -1.1528  0.0887  0.6098
  814MOL0     H 9847   6.877   5.198   2.664 -2.7572  3.2067  2.9890
  814MOL0     H 9848   7.088   5.301   2.717  1.1917 -0.6331  0.1051
  814MOL0     H 9849   7.102   5.379   2.564  0.6485  0.1948  0.8130
  814MOL0     H 9850   7.249   4.983   2.409  2.5460 -0.9189 -1.2526
  814MOL0     H 9851   7.485   4.906   2.431 -0.0328  0.1555  0.0341
  814MOL0     H 9852   7.916   5.022   2.445  0.8597  0.4552  1.8326
  814MOL0     H 9853   8.138   4.924   2.390  2.6028 -2.0099  2.1616
  814MOL0     H 9854   8.258   4.632   2.599 -1.3776 -0.7451  0.6868
  814MOL0     H 9855   8.182   4.498   2.505 -0.4114  0.1627 -4.2598
  814MOL0     H 9856   8.399   4.433   2.506  0.4659 -0.6796 -0.1250
  814MOL0     H 9857   8.383   4.518   2.347  0.0449  1.9428  0.3249
  814MOL0     H 9858   8.481   4.718   2.467 -0.9605  0.5186  0.6602
  814MOL0     H 9859   8.497   4.630   2.617  0.3794  1.5110 -1.3218
  814MOL0     H 9860   8.644   4.534   2.375  0.3892  3.1954 -0.0509
  814MOL0     H 9861   8.660   4.488   2.546 -0.4530  2.0113  2.4654
  814MOL0     H 9862   8.844   4.610   2.478  0.8571  1.9895  1.9906
  814MOL0     H 9863   8.756   4.668   2.611 -0.9980 -3.0910  0.8165
  814MOL0     H 9864   8.711   4.795   2.320  4.3592 -0.4336 -1.7181
  814MOL0     H 9865   8.679   4.871   2.475  0.3061 -1.8403  2.2873
  814MOL0     H 9866   8.923   4.790   2.336 -1.2018  1.2230 -0.9873
  814MOL0     H 9867   8.954   4.857   2.492  1.5461  0.5254 -0.5766
  814MOL0     H 9868   8.964   5.053   2.344 -1.4556  3.4982  0.7496
  814MOL0     H 9869   8.782   5.028   2.315  1.0329  3.6178 -1.2447
  814MOL0     H 9870   7.974   4.540   2.467 -1.5581  0.0164 -3.6830
  814MOL0     H 9871   7.761   4.631   2.536 -0.0471  1.8507  3.2138
  814MOL0     H 9872   7.534   5.217   2.742  0.2675 -0.4340  0.4031
  814MOL0     H 9873   7.319   5.269   2.734  0.9588  2.0538 -0.5920
  814MOL0     H 9874   5.899   6.649   2.662 -0.0128  0.6388  0.5581
  814MOL0     H 9875   5.735   6.827   2.663 -0.4478 -2.4625  0.3143
  814MOL0     H 9876   5.360   6.948   2.334  0.5942 -0.8051  0.1582
  814MOL0     H 9877   5.134   6.966   2.379 -3.1780  3.2134  1.6234
  814MOL0     H 9878   4.964   6.882   2.502  1.3929 -0.0113  1.4426
  814MOL0     H 9879   4.948   7.048   2.431  1.0708 -0.2650  0.2573
  814MOL0     H 9880   4.722   6.977   2.467 -1.9084 -0.9226 -0.2555
  814MOL0     H 9881   4.769   7.104   2.580 -0.6887 -1.0168  2.0168
  814MOL0     H 9882   4.797   6.904   2.758 -2.1055 -2.8657  2.4450
  814MOL0     H 9883   4.759   6.793   2.624 -0.1344  0.2935  1.4984
  814MOL0     H 9884   4.589   6.917   2.807  0.7140 -0.2717  0.2587
  814MOL0     H 9885   4.574   7.026   2.666  1.3501  0.7052  0.7659
  814MOL0     H 9886   4.386   6.668   2.506  0.4808  2.5266 -3.6945
  814MOL0     H 9887   5.203   7.100   2.775 -0.3734  3.0399 -0.6463
  814MOL0     H 9888   5.385   7.077   2.875 -1.1455  1.1412 -1.3829
  814MOL0     H 9889   5.519   6.991   2.809  0.4461  0.6658 -0.6457
  814MOL0     H 9890   5.497   7.176   2.784 -0.5159  0.9462 -1.0532
  815MOL0     O 9891   8.375   8.937   8.067 -0.4013  0.2549  0.3704
  815MOL0     C 9892   8.291   8.891   8.141 -0.0431  0.4409 -0.3716
  815MOL0     O 9893   8.298   8.876   8.275 -0.8724  0.4090  0.2243
  815MOL0     C 9894   8.387   8.951   8.340  0.2986 -0.6549  0.6703
  815MOL0     C 9895   8.522   8.968   8.311 -0.6985  1.2136 -0.9636
  815MOL0     C 9896   8.611   9.047   8.397  0.6628 -0.3008 -0.2666
  815MOL0     C 9897   8.561   9.105   8.511 -0.2674  0.5614  0.6947
  815MOL0     O 9898   8.626   9.200   8.588 -0.3920  0.0335 -0.8262
  815MOL0     C 9899   8.750   9.268   8.541 -0.3066  0.8363 -0.3810
  815MOL0     C 9900   8.786   9.380   8.639 -0.3438 -0.4380  0.2533
  815MOL0     C 9901   8.922   9.444   8.600 -0.0240  0.2625  0.0461
  815MOL0     C 9902   8.963   9.538   8.716  0.2968 -0.4549  0.7877
  815MOL0     C 9903   9.090   9.611   8.683  0.3878 -0.6162 -0.0660
  815MOL0     C 9904   9.087   9.722   8.574 -0.5426  0.4159  0.1737
  815MOL0     C 9905   9.220   9.805   8.555  0.6420  0.3732 -0.3872
  815MOL0     C 9906   9.321   9.794   8.679  0.1994  0.2521 -0.3299
  815MOL0     N 9907   9.453   9.859   8.658  0.1509 -0.1911 -0.0855
  815MOL0     C 9908   9.568   9.800   8.608  0.6702 -0.8930  0.8079
  815MOL0     C 9909   9.665   9.882   8.667 -0.2621  0.9084 -0.0925
  815MOL0     C 9910   9.809   9.846   8.682  0.6613  0.6805  0.4945
  815MOL0     C 9911   9.891   9.915   8.577 -0.0584 -0.1552 -0.5394
  815MOL0     C 9912   9.889  10.069   8.585  0.7643 -0.3469  0.8360
  815MOL0     C 9913  10.027  10.122   8.546  1.0349  0.0354  0.5428
  815MOL0     O 9914  10.027  10.260   8.520  0.3155  0.2617  0.0311
  815MOL0     C 9915  10.146  10.330   8.512  0.5948 -0.5366 -0.7314
  815MOL0     C 9916  10.144  10.459   8.469 -0.1529 -0.7631  0.0132
  815MOL0     C 9917  10.259  10.534   8.457  0.0333 -1.2989 -0.7458
  815MOL0     C 9918  10.390  10.483   8.498 -1.2273 -0.0038 -0.1255
  815MOL0     C 9919  10.516  10.562   8.480  0.2605  0.5134 -0.1919
  815MOL0     O 9920  10.627  10.491   8.507 -0.5879  0.3027  0.8083
  815MOL0     C 9921  10.751  10.554   8.496 -0.9446  1.0632  0.1813
  815MOL0     C 9922  10.783  10.661   8.586  0.2856 -0.6656  0.3775
  815MOL0     C 9923  10.910  10.721   8.588  0.4720  0.0783 -0.1575
  815MOL0     C 9924  11.014  10.671   8.501  0.8036 -0.4707  0.1010
  815MOL0     O 9925  11.134  10.724   8.537 -0.9603  0.3354  0.0915
  815MOL0     C 9926  11.201  10.792   8.425  0.4617 -0.2992  0.1544
  815MOL0     C 9927  11.317  10.871   8.485  0.4094  0.2477  0.3065
  815MOL0     C 9928  11.430  10.777   8.536 -0.6942 -0.4233  0.7360
  815MOL0     C 9929  11.572  10.832   8.503 -0.0323  0.4550 -0.1414
  815MOL0     C 9930  11.662  10.718   8.561  0.5324 -1.0138  0.3177
  815MOL0     C 9931  11.699  10.615   8.451  0.7338 -0.8703  0.4929
  815MOL0     C 9932  11.796  10.521   8.515  0.5100  0.4194  0.3074
  815MOL0     C 9933  11.941  10.558   8.501 -0.4261 -0.3384 -0.3539
  815MOL0    Cl 9934  12.050  10.414   8.518 -0.0377  0.1065 -0.0075
  815MOL0     C 9935  10.985  10.567   8.417 -0.1017  0.2918 -0.9851
  815MOL0     C 9936  10.857  10.517   8.410  0.0555  0.3731  0.4939
  815MOL0     O 9937  10.506  10.686   8.463 -0.0190  0.7688 -0.0049
  815MOL0     C 9938  10.384  10.352   8.534 -0.4174  1.3355  0.3493
  815MOL0     C 9939  10.267  10.279   8.546  0.1631  0.4664  0.2700
  815MOL0     N 9940   9.607   9.993   8.730 -0.7655  0.1813  0.0785
  815MOL0     N 9941   9.479   9.977   8.723 -0.1424  0.4515 -0.8436
  815MOL0     C 9942   8.432   9.068   8.547 -0.4517 -0.6730 -0.7669
  815MOL0     C 9943   8.346   8.993   8.466 -0.0148 -0.4910  0.0967
  815MOL0     C 9944   8.172   8.819   8.097 -0.7367  1.4118  0.4243
  815MOL0     C 9945   8.103   8.733   8.171 -1.1092 -0.9638 -0.9231
  815MOL0     C 9946   7.993   8.664   8.126  0.1590 -0.8083 -0.8105
  815MOL0     C 9947   7.937   8.683   7.997  0.5603  0.2188  0.5859
  815MOL0     O 9948   7.807   8.643   7.950  0.3235  0.1813  0.1983
  815MOL0     C 9949   7.695   8.643   8.038  0.8404  0.1635  0.7608
  815MOL0     C 9950   7.573   8.585   7.963  0.7469  0.3154 -0.5601
  815MOL0     C 9951   7.439   8.602   8.036  0.6306  0.4838 -0.4232
  815MOL0     C 9952   7.318   8.542   7.962 -0.6725 -0.3453 -0.1138
  815MOL0     C 9953   7.200   8.584   8.024  0.1841 -0.8253 -0.5177
  815MOL0     C 9954   7.094   8.620   8.059  0.3751 -0.0418 -0.0998
  815MOL0     C 9955   8.011   8.766   7.912 -0.1327 -0.6809  0.3199
  815MOL0     C 9956   8.126   8.838   7.960  0.8581  0.7680  0.6359
  815MOL0     C 9957   8.189   8.926   7.861 -0.8132 -0.8326  0.7311
  815MOL0     H 9958   8.577   8.924   8.228 -0.1277  0.1630 -0.0405
  815MOL0     H 9959   8.715   9.066   8.374  0.8856  0.9144  1.5542
  815MOL0     H 9960   8.836   9.201   8.537 -0.6793  0.2277  1.0991
  815MOL0     H 9961   8.727   9.307   8.442 -2.2107 -0.1565 -0.3681
  815MOL0     H 9962   8.790   9.333   8.738  0.6077  1.7095  1.2959
  815MOL0     H 9963   8.712   9.460   8.648  1.1440  1.8551 -4.5700
  815MOL0     H 9964   8.913   9.499   8.506  1.1196 -0.6914 -0.6460
  815MOL0     H 9965   8.997   9.366   8.585  0.1275  0.7520 -1.9507
  815MOL0     H 9966   8.885   9.615   8.719  0.1787 -0.4404 -1.3176
  815MOL0     H 9967   8.967   9.491   8.815 -1.1037  2.4969  2.3925
  815MOL0     H 9968   9.129   9.655   8.776 -1.1652  1.6339 -0.3975
  815MOL0     H 9969   9.162   9.538   8.647  0.6662 -0.2201 -0.3238
  815MOL0     H 9970   9.073   9.683   8.473  2.5745  1.1992 -0.6708
  815MOL0     H 9971   9.008   9.795   8.596  0.0649  0.9324  0.6831
  815MOL0     H 9972   9.186   9.908   8.542 -0.9953 -0.0007  0.6479
  815MOL0     H 9973   9.281   9.767   8.473  2.3448 -1.0255  1.4450
  815MOL0     H 9974   9.275   9.833   8.770  0.9289  1.1717 -0.3467
  815MOL0     H 9975   9.356   9.694   8.706  2.6592  1.4416  1.1908
  815MOL0     H 9976   9.580   9.709   8.550  1.0112 -0.2759 -0.1049
  815MOL0     H 9977   9.852   9.871   8.780  1.6953  0.9325 -0.0116
  815MOL0     H 9978   9.801   9.738   8.665 -0.8334  0.4989  2.0416
  815MOL0     H 9979   9.989   9.873   8.600 -1.3942 -2.7599  0.9898
  815MOL0     H 9980   9.860   9.877   8.479 -1.0366 -2.0136  0.4216
  815MOL0     H 9981   9.859  10.110   8.682  2.8258  0.7564  1.0702
  815MOL0     H 9982   9.817  10.101   8.509  1.4664  0.5583  0.5337
  815MOL0     H 9983  10.054  10.073   8.452  1.3058  2.4893 -0.7145
  815MOL0     H 9984  10.099  10.088   8.620  1.7923  0.6991  0.1241
  815MOL0     H 9985  10.055  10.514   8.439  0.2802  0.0819  0.2438
  815MOL0     H 9986  10.252  10.631   8.410  0.1988 -1.4696 -1.1329
  815MOL0     H 9987  10.700  10.702   8.642  1.1216 -1.3512  2.1953
  815MOL0     H 9988  10.921  10.799   8.662  1.6925 -1.0674  0.9208
  815MOL0     H 9989  11.239  10.715   8.357 -1.0741 -0.7477 -0.2319
  815MOL0     H 9990  11.141  10.860   8.364  4.2930  0.9035 -2.7489
  815MOL0     H 9991  11.356  10.925   8.398  1.4973  0.0228  0.6345
  815MOL0     H 9992  11.290  10.942   8.563  1.2659  0.2880  0.5807
  815MOL0     H 9993  11.417  10.755   8.642 -1.0200  1.4612  1.1205
  815MOL0     H 9994  11.428  10.677   8.491  0.5463 -1.2358  2.3840
  815MOL0     H 9995  11.581  10.926   8.558 -2.4743  0.4231  0.4415
  815MOL0     H 9996  11.575  10.846   8.395 -1.9946 -3.6985 -0.9621
  815MOL0     H 9997  11.620  10.676   8.652 -2.2065 -0.4491 -0.5931
  815MOL0     H 9998  11.760  10.763   8.580  0.6059 -0.9510 -0.1791
  815MOL0     H 9999  11.613  10.560   8.411  1.9742 -1.2200 -1.8668
  815MOL0     H10000  11.748  10.665   8.368  0.2961 -1.6712 -0.2667
  815MOL0     H10001  11.787  10.431   8.452  2.9137  0.2354  0.1392
  815MOL0     H10002  11.768  10.490   8.616  3.1300 -0.2639  0.9136
  815MOL0     H10003  11.958  10.603   8.403 -0.2640 -0.2990 -0.3079
  815MOL0     H10004  11.964  10.633   8.577  1.7195  1.3903 -2.5221
  815MOL0     H10005  11.063  10.516   8.362 -2.1236 -3.6961 -0.5824
  815MOL0     H10006  10.833  10.430   8.350  2.4768 -0.9684  1.3290
  815MOL0     H10007  10.473  10.292   8.552 -0.3130  1.1341 -0.7663
  815MOL0     H10008  10.281  10.175   8.574 -0.2640  0.4683  0.5048
  815MOL0     H10009   8.384   9.092   8.641 -4.4075 -3.3918 -1.8447
  815MOL0     H10010   8.241   8.985   8.495 -0.2172  0.3659 -0.3631
  815MOL0     H10011   8.146   8.702   8.266 -0.8886 -2.5094 -1.4920
  815MOL0     H10012   7.949   8.598   8.200  0.6935 -0.7569 -0.4442
  815MOL0     H10013   7.683   8.748   8.066 -2.4606  0.8649 -2.4296
  815MOL0     H10014   7.703   8.576   8.124  0.6311 -0.6234  0.1833
  815MOL0     H10015   7.569   8.476   7.949 -0.9202  0.4596 -1.3600
  815MOL0     H10016   7.575   8.628   7.862 -0.9462  0.4434 -0.5662
  815MOL0     H10017   7.431   8.711   8.048  0.1969  0.2730  1.6555
  815MOL0     H10018   7.448   8.575   8.142  1.4058  2.4405  0.0747
  815MOL0     H10019   7.328   8.572   7.858  1.0535 -0.1113  0.1014
  815MOL0     H10020   7.330   8.433   7.965  0.0539 -0.3028 -1.0118
  815MOL0     H10021   6.990   8.640   8.072  0.4671 -0.2656  1.0235
  815MOL0     H10022   7.989   8.777   7.806 -0.5241  0.1346  0.4821
  815MOL0     H10023   8.194   9.027   7.904 -2.2643 -0.9483  1.2182
  815MOL0     H10024   8.288   8.889   7.832  0.4050  1.9060  1.0496
  815MOL0     H10025   8.123   8.939   7.775 -2.5025 -2.3236  1.7516
  816MOL0     O10026   8.917   2.737   0.679  0.6291 -0.0662 -0.9732
  816MOL0     C10027   8.894   2.705   0.800  0.8864  0.3964  0.3417
  816MOL0     O10028   8.986   2.676   0.894 -0.1708  0.6669  0.2242
  816MOL0     C10029   9.117   2.666   0.857 -0.5441  0.7868  0.4123
  816MOL0     C10030   9.186   2.546   0.865 -0.7728 -0.6793 -0.0018
  816MOL0     C10031   9.320   2.538   0.832 -0.2560  0.4699  0.1064
  816MOL0     C10032   9.394   2.646   0.790  0.5912 -0.1954  0.2089
  816MOL0     O10033   9.523   2.618   0.756 -0.7906 -0.7264 -0.0545
  816MOL0     C10034   9.601   2.738   0.729 -0.1279  0.2245 -0.3433
  816MOL0     C10035   9.730   2.685   0.674 -0.0028 -0.8054  0.7516
  816MOL0     C10036   9.799   2.804   0.611 -0.1699 -0.3467  0.3946
  816MOL0     C10037   9.953   2.802   0.585 -0.0081 -0.8783 -0.4618
  816MOL0     C10038  10.019   2.769   0.720  0.1999  0.7638  0.0050
  816MOL0     C10039  10.169   2.799   0.715  0.2217  0.1274 -0.0363
  816MOL0     C10040  10.199   2.951   0.686 -0.1392  0.2838 -0.1261
  816MOL0     C10041  10.341   2.999   0.725  0.2634 -0.8378  0.4206
  816MOL0     N10042  10.446   2.906   0.680  0.2408 -0.3144 -0.2678
  816MOL0     C10043  10.497   2.807   0.758  0.8976 -0.5801  0.0861
  816MOL0     C10044  10.591   2.746   0.677  0.4244  0.4350  0.3631
  816MOL0     C10045  10.680   2.632   0.692  0.1718 -0.1553 -0.3071
  816MOL0     C10046  10.800   2.668   0.778 -0.5876 -0.4444  0.5107
  816MOL0     C10047  10.879   2.792   0.713  1.1689 -0.5103  0.2846
  816MOL0     C10048  11.017   2.793   0.768 -0.0039 -0.6450 -0.4888
  816MOL0     O10049  11.086   2.909   0.723 -0.1803 -0.3235 -0.2517
  816MOL0     C10050  11.219   2.910   0.689 -0.1034  0.4509  0.7368
  816MOL0     C10051  11.243   2.979   0.569 -0.0668 -0.2849 -0.4422
  816MOL0     C10052  11.372   3.001   0.517  0.3386 -0.2555  0.3202
  816MOL0     C10053  11.480   2.945   0.593  0.7765  0.6519 -0.9824
  816MOL0     C10054  11.616   2.955   0.548 -0.0086 -0.2994 -0.6013
  816MOL0     O10055  11.715   2.915   0.631  0.4128 -0.2934 -0.7157
  816MOL0     C10056  11.850   2.944   0.609  0.3495 -0.5551  0.7607
  816MOL0     C10057  11.904   2.918   0.486  0.6343  0.7290  0.8059
  816MOL0     C10058  12.040   2.944   0.459 -0.5370 -0.9270  0.3428
  816MOL0     C10059  12.121   2.977   0.563  0.1857  0.1585 -0.5058
  816MOL0     O10060  12.251   2.964   0.521  0.5889  0.2329 -0.8481
  816MOL0     C10061  12.350   2.975   0.623  0.0719 -0.0256 -0.6974
  816MOL0     C10062  12.495   2.973   0.563  0.2364  0.1182  0.1239
  816MOL0     C10063  12.519   2.863   0.449  0.7616 -1.3722  0.6627
  816MOL0     C10064  12.662   2.860   0.395  0.7431 -0.6813  0.8705
  816MOL0     C10065  12.746   2.758   0.474 -0.3506 -0.5276  0.3205
  816MOL0     C10066  12.899   2.762   0.438 -0.1332 -0.0938 -0.6636
  816MOL0     C10067  12.971   2.640   0.494 -0.6272 -0.5033  0.2559
  816MOL0     C10068  13.131   2.666   0.497  1.1741  0.5618 -0.4899
  816MOL0    Cl10069  13.193   2.723   0.339 -0.1628  0.0789 -0.1734
  816MOL0     C10070  12.066   2.997   0.696 -0.0471  0.3459 -0.3032
  816MOL0     C10071  11.929   2.988   0.711 -0.2203 -0.1939  0.1197
  816MOL0     O10072  11.633   3.011   0.440 -0.3271 -0.3540  0.2426
  816MOL0     C10073  11.451   2.879   0.718 -0.0573 -0.1968  0.2330
  816MOL0     C10074  11.318   2.858   0.767 -0.5599  0.3706 -0.1881
  816MOL0     N10075  10.602   2.819   0.562  0.4918 -0.5708  0.1482
  816MOL0     N10076  10.509   2.910   0.559 -0.8419  0.0150 -0.1272
  816MOL0     C10077   9.333   2.766   0.772  0.3820 -0.9064  0.1007
  816MOL0     C10078   9.193   2.777   0.808 -0.5703 -0.0101 -0.1940
  816MOL0     C10079   8.750   2.698   0.838  0.1363  0.5776  0.3571
  816MOL0     C10080   8.659   2.683   0.731  0.3399 -0.6337  0.2018
  816MOL0     C10081   8.516   2.686   0.755 -0.4967  0.3925  0.3832
  816MOL0     C10082   8.470   2.712   0.884  0.0434 -1.2072 -0.2896
  816MOL0     O10083   8.333   2.714   0.921  0.0179 -0.2757 -0.3061
  816MOL0     C10084   8.269   2.589   0.938 -0.3272  1.4534 -0.2208
  816MOL0     C10085   8.286   2.556   1.092 -0.0088  0.1905  0.4783
  816MOL0     C10086   8.199   2.438   1.142 -0.6507 -0.2876  0.8219
  816MOL0     C10087   8.053   2.489   1.172  0.6895  0.2358  0.3423
  816MOL0     C10088   7.971   2.378   1.217 -0.5077  0.2905 -0.1498
  816MOL0     C10089   7.915   2.279   1.258  0.2952  0.8299 -0.2276
  816MOL0     C10090   8.558   2.737   0.986 -0.0516  0.3565  0.0019
  816MOL0     C10091   8.694   2.725   0.971 -0.1744  0.7666  0.7593
  816MOL0     C10092   8.778   2.761   1.093  0.1552  0.0267 -0.3594
  816MOL0     H10093   9.127   2.458   0.884 -1.9857 -0.3185 -1.8684
  816MOL0     H10094   9.361   2.438   0.839  1.6340  1.0491 -1.6200
  816MOL0     H10095   9.555   2.806   0.657  0.8443 -1.1314 -2.3377
  816MOL0     H10096   9.618   2.784   0.827  1.1729 -2.6142  0.9035
  816MOL0     H10097   9.718   2.607   0.598  1.8723  0.1138 -0.5702
  816MOL0     H10098   9.800   2.658   0.753  1.9761  0.9486 -0.3019
  816MOL0     H10099   9.779   2.890   0.677 -0.7273 -1.4405  1.7047
  816MOL0     H10100   9.744   2.823   0.518  3.2438  0.1286 -1.6848
  816MOL0     H10101   9.982   2.736   0.503 -1.3464  0.4876 -2.0909
  816MOL0     H10102   9.981   2.897   0.539  2.0570 -2.9028 -3.7978
  816MOL0     H10103   9.963   2.822   0.798 -0.0826 -0.2727  0.5225
  816MOL0     H10104  10.014   2.662   0.744 -0.8771  1.0726  1.2962
  816MOL0     H10105  10.211   2.775   0.814  0.5877 -2.0344 -0.6689
  816MOL0     H10106  10.211   2.733   0.639 -2.0141 -2.6423  0.9381
  816MOL0     H10107  10.124   3.011   0.737 -1.5389 -2.2987  1.0702
  816MOL0     H10108  10.191   2.972   0.579 -0.8219 -1.7291 -0.5123
  816MOL0     H10109  10.362   3.094   0.675 -1.3891 -1.8366 -2.3871
  816MOL0     H10110  10.349   3.019   0.832  1.5181  2.2960 -0.1233
  816MOL0     H10111  10.471   2.786   0.861  1.6283  1.0806  0.6464
  816MOL0     H10112  10.615   2.561   0.745 -0.9654  1.0969  0.0191
  816MOL0     H10113  10.723   2.595   0.598  1.6231  3.0079 -1.0202
  816MOL0     H10114  10.773   2.682   0.883 -1.3188  2.4289  0.0348
  816MOL0     H10115  10.869   2.584   0.779 -0.2293 -0.1463  1.2883
  816MOL0     H10116  10.836   2.888   0.744  3.7509  2.0418 -3.2278
  816MOL0     H10117  10.883   2.796   0.603  2.9354  1.9811  0.3722
  816MOL0     H10118  11.070   2.703   0.738  0.6876  0.2482 -2.0252
  816MOL0     H10119  11.012   2.798   0.878  0.9517 -1.6147 -0.3849
  816MOL0     H10120  11.156   3.016   0.515 -0.3743  0.5406  0.5848
  816MOL0     H10121  11.386   3.063   0.428  0.0155  1.1333  1.2018
  816MOL0     H10122  11.836   2.882   0.410 -1.6618  1.3181  2.5023
  816MOL0     H10123  12.083   2.936   0.360 -1.9853  2.6675 -0.7162
  816MOL0     H10124  12.328   3.060   0.688 -0.8589 -1.0088  0.3177
  816MOL0     H10125  12.349   2.892   0.694  0.3405  0.3619 -0.2391
  816MOL0     H10126  12.536   3.065   0.522 -1.9057  0.1766 -2.1445
  816MOL0     H10127  12.558   2.952   0.650  2.8395  0.6145 -1.5654
  816MOL0     H10128  12.473   2.768   0.476 -6.0663  0.3264 -2.6692
  816MOL0     H10129  12.456   2.900   0.367  0.9913 -0.3103  0.9502
  816MOL0     H10130  12.708   2.958   0.409  1.8603 -1.2819  1.5248
  816MOL0     H10131  12.668   2.835   0.289 -0.8218  1.3425  0.2307
  816MOL0     H10132  12.702   2.663   0.441 -0.1135  0.0530 -1.7927
  816MOL0     H10133  12.731   2.753   0.583  2.3010 -2.4745  0.7184
  816MOL0     H10134  12.906   2.773   0.330 -0.2445 -1.8946 -0.8865
  816MOL0     H10135  12.938   2.852   0.487  0.3001  0.2901 -1.6848
  816MOL0     H10136  12.953   2.557   0.425 -0.4549  0.6584 -1.2154
  816MOL0     H10137  12.940   2.621   0.598  2.1415  3.3464  2.0015
  816MOL0     H10138  13.144   2.732   0.583 -2.0087  1.2757 -0.4037
  816MOL0     H10139  13.177   2.571   0.524  0.5053  0.4194  0.1996
  816MOL0     H10140  12.130   3.048   0.767  2.9156  0.4253 -2.8041
  816MOL0     H10141  11.883   3.020   0.804  0.0702  1.0817 -0.1604
  816MOL0     H10142  11.521   2.848   0.794 -0.8338  2.3616  2.1281
  816MOL0     H10143  11.299   2.817   0.866 -3.7032 -1.3862 -1.3715
  816MOL0     H10144   9.380   2.856   0.735 -1.6834  0.7234  1.2064
  816MOL0     H10145   9.140   2.872   0.798  1.2485  1.1771  0.7655
  816MOL0     H10146   8.684   2.673   0.626  0.5271  0.2337  0.1504
  816MOL0     H10147   8.451   2.657   0.673 -0.9208 -0.7054  1.0792
  816MOL0     H10148   8.326   2.511   0.886  1.7374  0.0929  3.6609
  816MOL0     H10149   8.165   2.606   0.910 -0.2646 -0.7466 -2.0855
  816MOL0     H10150   8.247   2.636   1.155 -2.6160 -1.2475  0.8508
  816MOL0     H10151   8.389   2.524   1.114 -0.3081  0.7369  2.9476
  816MOL0     H10152   8.237   2.394   1.235 -2.3750 -1.8382  0.8530
  816MOL0     H10153   8.187   2.365   1.061  0.5448  1.3543 -0.9106
  816MOL0     H10154   8.047   2.567   1.249  0.1372 -0.3856  0.9414
  816MOL0     H10155   8.015   2.533   1.079  2.2900  2.8301  0.7942
  816MOL0     H10156   7.874   2.182   1.280 -0.3333  1.4538  1.5691
  816MOL0     H10157   8.509   2.752   1.082  1.3283 -1.7540  1.1236
  816MOL0     H10158   8.710   2.785   1.175 -0.0263 -4.1461  0.9625
  816MOL0     H10159   8.837   2.671   1.112 -1.3575 -0.7094  1.1371
  816MOL0     H10160   8.835   2.851   1.071  1.6396  0.0806  3.0257
  817MOL0     O10161   4.799   1.081   4.348 -0.3727  0.2653  0.5951
  817MOL0     C10162   4.789   1.122   4.466  0.3785  0.1268 -0.0703
  817MOL0     O10163   4.867   1.079   4.572  0.0972 -0.2702 -0.3343
  817MOL0     C10164   4.961   0.989   4.546  0.5282 -0.4934  0.1589
  817MOL0     C10165   4.942   0.857   4.556  0.1569  0.2976  1.1325
  817MOL0     C10166   5.047   0.767   4.516  0.9160  0.4834  0.0261
  817MOL0     C10167   5.175   0.814   4.491 -0.4131 -0.9470 -0.3774
  817MOL0     O10168   5.279   0.738   4.456 -0.0030  0.0441  0.2910
  817MOL0     C10169   5.390   0.761   4.541  0.1596 -0.8620  0.3180
  817MOL0     C10170   5.491   0.655   4.509  0.2940 -0.0937 -0.9561
  817MOL0     C10171   5.602   0.636   4.613  0.1730 -0.6589  0.4773
  817MOL0     C10172   5.724   0.572   4.542 -0.6644  0.0201  0.0981
  817MOL0     C10173   5.854   0.567   4.622 -0.4474 -0.6353  0.2186
  817MOL0     C10174   5.841   0.490   4.760  0.1659 -0.5578 -0.8945
  817MOL0     C10175   5.814   0.341   4.744 -0.5749  0.8053  0.4246
  817MOL0     C10176   5.783   0.265   4.870 -0.2745  0.0807 -0.1639
  817MOL0     N10177   5.897   0.261   4.958 -0.1607  1.0878  0.0236
  817MOL0     C10178   6.008   0.172   4.955 -0.0675 -0.5651  0.1798
  817MOL0     C10179   6.072   0.178   5.068  0.4835 -0.4478 -0.4263
  817MOL0     C10180   6.198   0.101   5.111  0.2722 -0.4535  0.2933
  817MOL0     C10181   6.332   0.160   5.055 -0.1649  0.5300  0.7737
  817MOL0     C10182   6.454   0.106   5.123 -0.4326 -0.6219  0.4796
  817MOL0     C10183   6.472  -0.046   5.104  0.0433  0.3118 -0.2445
  817MOL0     O10184   6.591  -0.091   5.156  0.3154 -0.1531  0.2043
  817MOL0     C10185   6.701  -0.046   5.093 -0.4554 -0.7598  0.5820
  817MOL0     C10186   6.761  -0.119   4.995  0.0730  0.6575 -0.0606
  817MOL0     C10187   6.882  -0.093   4.940 -0.1256  0.1181 -1.0115
  817MOL0     C10188   6.958   0.012   4.996 -1.0368 -0.0392 -0.2010
  817MOL0     C10189   7.105   0.025   4.954  0.2672  0.2567  0.4328
  817MOL0     O10190   7.144  -0.048   4.840  0.3860  0.1423  0.6153
  817MOL0     C10191   7.266  -0.014   4.787  0.6250 -0.1878  0.4063
  817MOL0     C10192   7.372  -0.058   4.859 -0.5248 -0.1590 -0.0566
  817MOL0     C10193   7.496  -0.038   4.812 -0.4424 -1.3541 -0.4038
  817MOL0     C10194   7.520   0.019   4.688 -0.7020  0.2409 -0.2097
  817MOL0     O10195   7.648   0.010   4.652 -0.0862 -0.2476  0.2621
  817MOL0     C10196   7.695   0.078   4.538  0.1984  0.6051  0.1520
  817MOL0     C10197   7.839   0.036   4.509 -0.4444  0.2593 -0.1269
  817MOL0     C10198   7.939   0.109   4.593 -0.2662  0.6544  0.3241
  817MOL0     C10199   8.077   0.116   4.524  0.3958  0.6904 -0.0466
  817MOL0     C10200   8.146  -0.029   4.541  0.6962  0.4661  0.1638
  817MOL0     C10201   8.285  -0.048   4.472  0.2745  1.1970 -0.0241
  817MOL0     C10202   8.262  -0.038   4.318 -1.4228  0.0852  0.9128
  817MOL0     C10203   8.406  -0.064   4.260  0.1052 -0.0947 -0.9170
  817MOL0    Cl10204   8.538   0.034   4.333  0.0814  0.1137  0.0484
  817MOL0     C10205   7.407   0.074   4.616  0.3634  0.2932 -0.3664
  817MOL0     C10206   7.281   0.054   4.659 -0.4248 -0.1256  0.6014
  817MOL0     O10207   7.168   0.117   5.008  0.4464 -0.3803  0.1990
  817MOL0     C10208   6.901   0.095   5.103 -0.1413  0.8751 -0.5833
  817MOL0     C10209   6.771   0.060   5.149 -0.7365  0.1299  0.3745
  817MOL0     N10210   6.001   0.280   5.139 -0.1646  0.2241 -1.2488
  817MOL0     N10211   5.902   0.334   5.073 -0.2421  0.7261  0.5231
  817MOL0     C10212   5.184   0.949   4.492  0.0542 -0.4380 -0.7137
  817MOL0     C10213   5.088   1.033   4.526  0.5842 -0.1662 -0.2376
  817MOL0     C10214   4.695   1.234   4.497 -0.5674 -0.5321  0.1892
  817MOL0     C10215   4.706   1.278   4.633  0.4777 -0.5931 -0.3615
  817MOL0     C10216   4.617   1.377   4.671  1.1808 -0.2592 -0.6591
  817MOL0     C10217   4.525   1.449   4.588 -0.1670  0.0297 -0.4829
  817MOL0     O10218   4.432   1.532   4.641 -0.0055 -0.0051  0.4806
  817MOL0     C10219   4.326   1.453   4.705 -0.7081 -0.9814  0.2492
  817MOL0     C10220   4.218   1.444   4.592  0.0392  0.6220 -0.2162
  817MOL0     C10221   4.071   1.435   4.636  0.1376 -0.3987 -0.3184
  817MOL0     C10222   3.991   1.551   4.580  0.4190  0.3248  1.0298
  817MOL0     C10223   3.859   1.533   4.639  0.3788 -0.0589 -0.1313
  817MOL0     C10224   3.759   1.520   4.701  0.6283 -0.4180  0.0157
  817MOL0     C10225   4.517   1.397   4.458 -0.1439  0.7982 -0.9946
  817MOL0     C10226   4.597   1.296   4.413 -0.1295 -0.3090  0.3999
  817MOL0     C10227   4.565   1.242   4.279  0.6275  0.2813  0.5107
  817MOL0     H10228   4.837   0.837   4.575 -0.3682 -1.4281 -2.6620
  817MOL0     H10229   5.036   0.659   4.512  0.8807  0.3770  2.2018
  817MOL0     H10230   5.435   0.860   4.524  0.4112 -0.3414  3.4277
  817MOL0     H10231   5.360   0.763   4.646  0.1985  0.7651  0.3363
  817MOL0     H10232   5.537   0.684   4.414  0.8396 -1.2565 -1.0601
  817MOL0     H10233   5.427   0.566   4.506 -1.2573  0.9447 -0.0404
  817MOL0     H10234   5.575   0.584   4.705 -2.1739  0.0664  0.2769
  817MOL0     H10235   5.638   0.736   4.639  1.7772 -1.4092  1.2094
  817MOL0     H10236   5.703   0.473   4.500  1.8863 -0.3965 -0.3897
  817MOL0     H10237   5.744   0.636   4.455  2.4233  0.3270  0.9140
  817MOL0     H10238   5.932   0.520   4.563  1.1553  1.0328  0.9017
  817MOL0     H10239   5.874   0.673   4.642 -1.2512 -0.3526 -0.4055
  817MOL0     H10240   5.936   0.495   4.813 -0.4850 -2.6667  0.5983
  817MOL0     H10241   5.760   0.541   4.815  2.6058  0.1786  2.3203
  817MOL0     H10242   5.894   0.298   4.684 -2.5892 -2.0882 -0.4391
  817MOL0     H10243   5.726   0.326   4.681  0.1525  2.1368 -0.9755
  817MOL0     H10244   5.712   0.316   4.936  1.1749 -0.2995  1.7751
  817MOL0     H10245   5.745   0.165   4.845  0.4193 -0.6395  1.5172
  817MOL0     H10246   6.046   0.100   4.883  2.6119 -0.7394  1.6502
  817MOL0     H10247   6.195   0.116   5.220 -1.6518  3.6449 -0.1065
  817MOL0     H10248   6.186  -0.003   5.079 -0.1320 -0.3509  0.1068
  817MOL0     H10249   6.329   0.139   4.947 -1.1625  0.3024  0.8315
  817MOL0     H10250   6.330   0.269   5.063  0.1684  0.5233  0.9424
  817MOL0     H10251   6.458   0.117   5.232  0.8275  0.4919  0.3528
  817MOL0     H10252   6.536   0.170   5.089 -2.0488 -0.0139 -2.6698
  817MOL0     H10253   6.474  -0.059   4.995  1.9968  4.3262 -0.8645
  817MOL0     H10254   6.383  -0.092   5.147 -0.5048  2.1567  0.6781
  817MOL0     H10255   6.710  -0.210   4.968  0.6454 -0.2994  1.9108
  817MOL0     H10256   6.919  -0.156   4.859 -0.6542 -0.3921 -0.8661
  817MOL0     H10257   7.357  -0.106   4.955  1.9865 -0.7551  0.1100
  817MOL0     H10258   7.574  -0.072   4.880  0.5074 -1.3294 -1.4665
  817MOL0     H10259   7.637   0.046   4.451  1.0539  1.8683 -0.9190
  817MOL0     H10260   7.682   0.183   4.565 -1.2324  0.2849  0.8249
  817MOL0     H10261   7.848  -0.072   4.523  0.9177  0.3169 -0.5149
  817MOL0     H10262   7.848   0.056   4.402  1.1313 -0.0338 -0.0708
  817MOL0     H10263   7.899   0.210   4.599 -1.5195  0.1167  1.5330
  817MOL0     H10264   7.941   0.072   4.697 -1.2535 -0.0940  0.0923
  817MOL0     H10265   8.152   0.177   4.576  1.2625 -2.0739  2.1703
  817MOL0     H10266   8.058   0.148   4.421 -2.2919  0.4404  0.3176
  817MOL0     H10267   8.070  -0.096   4.499  0.0679  2.7539 -2.6557
  817MOL0     H10268   8.153  -0.061   4.646 -0.3882  1.3360  0.5218
  817MOL0     H10269   8.343   0.037   4.510 -1.8970  2.5667  0.3926
  817MOL0     H10270   8.322  -0.146   4.506 -1.0370  1.0803  1.1744
  817MOL0     H10271   8.223   0.063   4.302  0.1816  0.7309  0.8910
  817MOL0     H10272   8.193  -0.112   4.277  0.3954 -2.0301  1.4672
  817MOL0     H10273   8.438  -0.168   4.274  0.2075 -0.0767 -1.0133
  817MOL0     H10274   8.401  -0.044   4.153  0.2148 -2.6898 -1.4566
  817MOL0     H10275   7.414   0.116   4.516 -0.3443  2.5164  0.4793
  817MOL0     H10276   7.200   0.087   4.594  1.5729  1.5979 -1.1511
  817MOL0     H10277   6.959   0.172   5.153  1.3981 -1.9342  2.2431
  817MOL0     H10278   6.720   0.120   5.223 -1.2680 -1.2768  1.1909
  817MOL0     H10279   5.283   0.990   4.470  0.9309 -2.8007 -1.5338
  817MOL0     H10280   5.101   1.141   4.532  1.3010 -0.3275  4.3160
  817MOL0     H10281   4.768   1.243   4.715  1.0398  0.9707 -0.0765
  817MOL0     H10282   4.614   1.401   4.777 -3.0608 -1.6767 -0.2933
  817MOL0     H10283   4.279   1.506   4.789 -2.0748 -0.0118 -1.0626
  817MOL0     H10284   4.371   1.362   4.746  1.5897 -0.9449 -1.9793
  817MOL0     H10285   4.238   1.352   4.537 -0.7551 -0.3341  1.0472
  817MOL0     H10286   4.233   1.530   4.526  0.5928 -0.2683 -1.2880
  817MOL0     H10287   4.068   1.419   4.744 -1.3131  0.3623 -0.2198
  817MOL0     H10288   4.030   1.340   4.598 -0.7392  0.3478 -1.3172
  817MOL0     H10289   4.028   1.649   4.609  0.6017  0.3333  0.7717
  817MOL0     H10290   3.993   1.548   4.471  0.1914  3.2316  0.8914
  817MOL0     H10291   3.671   1.474   4.741  1.0637 -1.7894 -0.5269
  817MOL0     H10292   4.455   1.438   4.379 -1.7805 -0.1730 -0.2548
  817MOL0     H10293   4.560   1.133   4.288  0.4280  0.3196  0.8671
  817MOL0     H10294   4.473   1.284   4.240  0.5136  0.8184  1.3395
  817MOL0     H10295   4.639   1.261   4.200 -2.6445 -0.5414 -3.0417
  818MOL0     O10296   9.413   2.995  10.098 -0.2200  0.0968 -0.6929
  818MOL0     C10297   9.449   2.904  10.031  0.1810  0.3381 -0.2962
  818MOL0     O10298   9.564   2.900   9.952  0.5560 -0.5865  0.5263
  818MOL0     C10299   9.661   2.989  10.003  0.3169 -0.6914  1.6868
  818MOL0     C10300   9.771   2.933  10.052 -0.8310  0.6597 -0.1158
  818MOL0     C10301   9.878   3.015  10.083 -0.2286 -1.1354 -0.3814
  818MOL0     C10302   9.894   3.149  10.045 -0.3193 -0.3382 -1.2016
  818MOL0     O10303  10.006   3.227  10.052 -0.5005  0.7216 -0.2718
  818MOL0     C10304  10.130   3.173  10.082 -0.0965  0.3142 -0.3587
  818MOL0     C10305  10.253   3.257  10.052  0.9750  0.1825  0.1106
  818MOL0     C10306  10.252   3.287   9.897 -0.0381 -0.0525  0.8979
  818MOL0     C10307  10.373   3.370   9.869 -0.3327 -0.6470 -0.9161
  818MOL0     C10308  10.379   3.426   9.723  0.0343  0.5264 -0.3435
  818MOL0     C10309  10.531   3.463   9.706 -0.2870  0.2104 -0.1320
  818MOL0     C10310  10.576   3.519   9.569  0.1739 -0.3206  0.2245
  818MOL0     C10311  10.582   3.411   9.455 -0.0750  0.2712 -0.0518
  818MOL0     N10312  10.720   3.358   9.427  0.0929  0.1901 -0.6217
  818MOL0     C10313  10.810   3.402   9.335 -0.5669  0.5595 -0.1583
  818MOL0     C10314  10.935   3.360   9.372  0.0921  0.4037 -0.9720
  818MOL0     C10315  11.070   3.369   9.306  0.0016 -0.0492  0.1445
  818MOL0     C10316  11.073   3.268   9.185 -0.6084  0.9538  1.3756
  818MOL0     C10317  11.212   3.203   9.170  0.5875  0.3647 -0.6278
  818MOL0     C10318  11.192   3.078   9.079  0.0047  0.3789  0.3096
  818MOL0     O10319  11.235   3.106   8.950 -0.0411 -0.0260 -0.2893
  818MOL0     C10320  11.368   3.105   8.912  0.2792  0.5769  0.4730
  818MOL0     C10321  11.474   3.146   8.995  0.0091  0.1465 -0.0865
  818MOL0     C10322  11.601   3.148   8.941 -1.0757 -0.2665  1.0283
  818MOL0     C10323  11.632   3.100   8.818 -0.5243 -0.1553  0.2471
  818MOL0     C10324  11.766   3.101   8.746 -0.2525  0.1736 -0.4026
  818MOL0     O10325  11.868   3.191   8.784 -0.7749 -0.0636  0.0034
  818MOL0     C10326  11.992   3.170   8.724 -0.4802  0.0880 -0.0626
  818MOL0     C10327  12.077   3.279   8.706  0.5125  0.1749  0.0377
  818MOL0     C10328  12.210   3.263   8.681  0.1053  0.4393  0.6314
  818MOL0     C10329  12.267   3.134   8.652  1.0129  0.3641 -0.4703
  818MOL0     O10330  12.392   3.121   8.611 -0.7741  0.6238 -0.2061
  818MOL0     C10331  12.487   3.205   8.676 -0.2853 -0.3459 -0.1083
  818MOL0     C10332  12.634   3.138   8.698  0.4293  0.3587  0.4465
  818MOL0     C10333  12.737   3.248   8.735 -0.9545 -0.0557  0.5499
  818MOL0     C10334  12.876   3.211   8.701 -0.3199  0.6227  0.6729
  818MOL0     C10335  12.960   3.328   8.760  0.5345  0.2764 -0.3820
  818MOL0     C10336  13.099   3.321   8.706  0.0028 -0.1011  0.3694
  818MOL0     C10337  13.196   3.421   8.774  1.3145  0.5608 -0.2088
  818MOL0     C10338  13.121   3.556   8.799  0.3107  0.5410 -0.4757
  818MOL0    Cl10339  13.240   3.662   8.877 -0.3728 -0.2662 -0.4629
  818MOL0     C10340  12.174   3.027   8.653 -0.4335  0.0989 -0.1237
  818MOL0     C10341  12.047   3.043   8.690  0.8034  0.2729  0.2725
  818MOL0     O10342  11.769   3.025   8.643 -0.3981 -0.0793 -0.7177
  818MOL0     C10343  11.526   3.036   8.751 -0.2630 -0.3560 -0.0990
  818MOL0     C10344  11.399   3.047   8.785  0.2412 -0.6151 -0.6523
  818MOL0     N10345  10.914   3.283   9.489 -0.2708 -0.4754  0.2754
  818MOL0     N10346  10.788   3.284   9.517  0.2076  0.9573  0.0541
  818MOL0     C10347   9.782   3.210  10.004  0.3310 -0.6641 -0.5226
  818MOL0     C10348   9.662   3.132   9.981 -0.4607  0.0018 -0.5491
  818MOL0     C10349   9.334   2.803  10.020 -0.1379  0.0054  0.5793
  818MOL0     C10350   9.194   2.828  10.046  0.6345  0.5192  0.0343
  818MOL0     C10351   9.097   2.723  10.026 -0.1726  0.4228 -0.7085
  818MOL0     C10352   9.135   2.599   9.976 -0.0505  0.0423  0.3356
  818MOL0     O10353   9.042   2.499   9.958 -0.0082 -0.3730  0.3713
  818MOL0     C10354   8.937   2.524   9.870 -0.4522 -0.1077  0.8135
  818MOL0     C10355   8.980   2.582   9.735  0.2441  0.5434  0.4396
  818MOL0     C10356   9.061   2.473   9.655  0.7679  0.6065 -0.4019
  818MOL0     C10357   9.141   2.543   9.549  0.4785 -0.1489  0.9738
  818MOL0     C10358   9.257   2.614   9.591 -0.6457 -1.0617  0.0740
  818MOL0     C10359   9.354   2.675   9.626 -1.0856  0.2238 -0.0773
  818MOL0     C10360   9.272   2.563   9.976  0.0924 -0.2042  0.0547
  818MOL0     C10361   9.375   2.666   9.992 -0.1085 -0.1043  0.8495
  818MOL0     C10362   9.513   2.624   9.975  0.0588 -0.5879 -0.4025
  818MOL0     H10363   9.774   2.825  10.052 -0.5991  0.6637 -0.3517
  818MOL0     H10364   9.973   2.975  10.119  0.9327  1.1089 -0.7848
  818MOL0     H10365  10.126   3.155  10.190  0.6447 -0.0539 -0.3838
  818MOL0     H10366  10.138   3.072  10.040  1.2559  1.0308 -1.9280
  818MOL0     H10367  10.347   3.205  10.073  0.1262 -1.2509  0.4817
  818MOL0     H10368  10.245   3.348  10.113 -0.0143  0.3798 -0.3010
  818MOL0     H10369  10.166   3.349   9.872  2.5465  3.5504  0.1916
  818MOL0     H10370  10.247   3.190   9.847 -0.2811  0.1353  0.5491
  818MOL0     H10371  10.367   3.451   9.942  2.5605 -0.1146 -1.1552
  818MOL0     H10372  10.463   3.313   9.894  0.4196  0.6717 -0.5336
  818MOL0     H10373  10.353   3.355   9.644 -3.3505  0.2615  0.8351
  818MOL0     H10374  10.308   3.510   9.722 -0.6815  0.0510  2.6233
  818MOL0     H10375  10.567   3.530   9.784  0.9871  0.6808 -1.0790
  818MOL0     H10376  10.585   3.368   9.714 -1.1904 -0.3867 -0.9093
  818MOL0     H10377  10.677   3.558   9.579 -1.0264  3.9672 -2.1257
  818MOL0     H10378  10.504   3.599   9.548 -0.6662 -0.5811  1.8907
  818MOL0     H10379  10.521   3.329   9.492  1.1019 -0.2795  0.7108
  818MOL0     H10380  10.545   3.439   9.356  0.4558 -0.6019 -0.5067
  818MOL0     H10381  10.784   3.461   9.248  0.9877  1.6277  0.0517
  818MOL0     H10382  11.098   3.471   9.280  0.2048  1.3018  4.7405
  818MOL0     H10383  11.144   3.336   9.380 -3.0675  1.7539  4.4713
  818MOL0     H10384  10.996   3.196   9.214 -0.1786  0.3905  1.1441
  818MOL0     H10385  11.049   3.322   9.092  2.9951 -2.1325 -1.6674
  818MOL0     H10386  11.243   3.158   9.265  0.8444 -2.6305 -2.0281
  818MOL0     H10387  11.284   3.272   9.126  3.0713 -2.1807 -0.8477
  818MOL0     H10388  11.087   3.048   9.073 -0.8193  3.1716 -1.0471
  818MOL0     H10389  11.253   2.997   9.122  0.6890  1.7320  2.0410
  818MOL0     H10390  11.468   3.172   9.100 -1.0188 -2.2840  0.5292
  818MOL0     H10391  11.679   3.172   9.012 -0.3842  0.5898  0.0224
  818MOL0     H10392  12.033   3.373   8.738 -3.7567 -1.9795  1.2119
  818MOL0     H10393  12.282   3.342   8.663  0.3216  0.0320 -0.3549
  818MOL0     H10394  12.511   3.294   8.617 -1.4465  0.6801  0.9154
  818MOL0     H10395  12.455   3.247   8.771  1.1957  1.6711 -0.4368
  818MOL0     H10396  12.637   3.075   8.788  1.5906 -2.1425 -1.2296
  818MOL0     H10397  12.667   3.084   8.609  0.6807 -0.0780  0.8000
  818MOL0     H10398  12.708   3.337   8.678 -2.7317 -1.2670 -0.5505
  818MOL0     H10399  12.735   3.272   8.842 -2.6616  0.2981  0.4582
  818MOL0     H10400  12.898   3.187   8.597 -0.7400  1.2391  0.4348
  818MOL0     H10401  12.900   3.123   8.762 -1.3039  0.1570  0.4228
  818MOL0     H10402  12.975   3.309   8.867 -0.0861  1.6643 -0.0277
  818MOL0     H10403  12.906   3.419   8.736  0.9751  1.7874  3.6157
  818MOL0     H10404  13.137   3.218   8.703 -1.0179 -0.5053 -2.5419
  818MOL0     H10405  13.091   3.351   8.601 -2.7227  1.9446  1.0674
  818MOL0     H10406  13.275   3.433   8.699  0.4678 -2.7051 -1.8359
  818MOL0     H10407  13.233   3.388   8.872 -1.3615 -3.6427 -0.3641
  818MOL0     H10408  13.078   3.599   8.708 -0.4912 -1.7015 -1.2234
  818MOL0     H10409  13.038   3.541   8.869 -0.2761  0.7821 -1.1136
  818MOL0     H10410  12.202   2.927   8.622  0.4583  1.0560 -2.7097
  818MOL0     H10411  11.988   2.955   8.714  0.4364  0.4385 -0.0136
  818MOL0     H10412  11.536   2.974   8.662 -0.4128 -1.8706  0.9101
  818MOL0     H10413  11.331   3.002   8.713  1.7836  0.3843 -2.8711
  818MOL0     H10414   9.788   3.315   9.976 -0.4320 -0.4481  0.1011
  818MOL0     H10415   9.580   3.188   9.939 -2.3479 -2.0377  0.1688
  818MOL0     H10416   9.150   2.925  10.064  0.4744  1.1869 -3.3317
  818MOL0     H10417   8.994   2.740  10.055  1.0422  1.3980  3.8557
  818MOL0     H10418   8.866   2.601   9.903 -0.5508  0.5024 -0.7229
  818MOL0     H10419   8.875   2.436   9.854  0.0431 -0.3007 -0.0912
  818MOL0     H10420   9.048   2.666   9.747  0.6816  0.3552 -0.5930
  818MOL0     H10421   8.886   2.606   9.686 -1.0640 -0.2708  2.4349
  818MOL0     H10422   8.988   2.401   9.617  1.7143 -1.0495  0.7734
  818MOL0     H10423   9.139   2.418   9.710 -0.7925  0.1078  1.4206
  818MOL0     H10424   9.186   2.466   9.487 -1.3169 -1.6668  1.4705
  818MOL0     H10425   9.066   2.599   9.493  0.2949 -2.4694 -1.2527
  818MOL0     H10426   9.437   2.732   9.662 -0.8704 -0.3556  0.3710
  818MOL0     H10427   9.301   2.459   9.976  0.3870 -0.1408  1.2267
  818MOL0     H10428   9.572   2.682  10.046 -1.7887 -0.7294  1.3501
  818MOL0     H10429   9.529   2.520  10.006  1.5105 -0.8302 -1.8542
  818MOL0     H10430   9.555   2.638   9.875  0.2375  0.0866 -0.2386
  819MOL0     O10431   8.599   2.039   6.327 -0.0599  0.5071  0.1301
  819MOL0     C10432   8.523   2.130   6.290  0.3202 -0.1732 -0.0877
  819MOL0     O10433   8.562   2.243   6.223 -0.6066  0.6039  0.3396
  819MOL0     C10434   8.696   2.255   6.216  0.0301 -1.5638 -0.9189
  819MOL0     C10435   8.779   2.208   6.121  0.1797 -0.6067  0.2839
  819MOL0     C10436   8.911   2.246   6.118 -0.4196 -0.1205 -0.0021
  819MOL0     C10437   8.963   2.341   6.207 -1.4023  0.0980  0.2632
  819MOL0     O10438   9.093   2.393   6.198  0.5729 -0.2012  0.3889
  819MOL0     C10439   9.185   2.348   6.097 -0.5547  0.1619 -0.5040
  819MOL0     C10440   9.297   2.453   6.123 -0.1083  0.7783 -0.3394
  819MOL0     C10441   9.432   2.409   6.069  1.1721 -0.2170  0.4361
  819MOL0     C10442   9.418   2.402   5.909 -0.4273 -0.2317 -0.7004
  819MOL0     C10443   9.563   2.382   5.850 -0.1129  0.4810  0.2266
  819MOL0     C10444   9.550   2.431   5.701 -0.4790 -0.6247  0.2703
  819MOL0     C10445   9.674   2.451   5.627 -0.8775  0.8965 -0.6610
  819MOL0     C10446   9.757   2.573   5.689  0.5240  0.2892  0.3418
  819MOL0     N10447   9.838   2.631   5.585  0.1846  1.0183  0.2504
  819MOL0     C10448   9.915   2.573   5.491  0.0661  0.2597 -0.5091
  819MOL0     C10449   9.960   2.671   5.414  0.1491  0.1399 -0.0596
  819MOL0     C10450  10.045   2.666   5.289  0.0248 -0.2088  0.4497
  819MOL0     C10451   9.996   2.563   5.184  0.5544 -0.3880 -0.2220
  819MOL0     C10452  10.024   2.598   5.032 -0.3713 -0.2898  0.0789
  819MOL0     C10453  10.169   2.634   5.005  0.7632 -0.1774 -0.5582
  819MOL0     O10454  10.183   2.654   4.867 -0.7020 -1.1134 -0.2749
  819MOL0     C10455  10.314   2.682   4.823  0.3313 -0.5350  0.0498
  819MOL0     C10456  10.428   2.681   4.907  0.0311  0.1534  1.3752
  819MOL0     C10457  10.554   2.695   4.841 -0.6596  0.8843  0.9124
  819MOL0     C10458  10.555   2.741   4.705  0.3020 -0.3220 -0.6552
  819MOL0     C10459  10.686   2.774   4.649  0.2039 -0.8760 -0.3862
  819MOL0     O10460  10.790   2.713   4.723 -0.1431 -0.8993  0.4434
  819MOL0     C10461  10.909   2.700   4.652 -0.2978  0.9089 -0.6877
  819MOL0     C10462  11.000   2.798   4.636 -0.5764 -0.2038  1.1435
  819MOL0     C10463  11.113   2.777   4.551  0.6987 -0.3143  0.2857
  819MOL0     C10464  11.144   2.648   4.509 -0.4534 -0.4757  0.1976
  819MOL0     O10465  11.260   2.607   4.446  0.7772  0.0006  0.2223
  819MOL0     C10466  11.357   2.707   4.429 -0.2534  0.2886 -0.2826
  819MOL0     C10467  11.487   2.631   4.399  0.1181  0.1368 -0.7768
  819MOL0     C10468  11.596   2.739   4.352 -0.0346  0.3991 -0.8113
  819MOL0     C10469  11.730   2.673   4.332  0.8142  0.2648  0.1616
  819MOL0     C10470  11.833   2.769   4.269  0.2693  0.3459  0.8193
  819MOL0     C10471  11.797   2.806   4.119 -0.1548  0.0272 -0.8325
  819MOL0     C10472  11.927   2.853   4.049  0.4265 -0.7970  0.1480
  819MOL0     C10473  11.898   2.926   3.919 -0.6953  0.5972 -0.1997
  819MOL0    Cl10474  12.053   2.916   3.828  0.1626 -0.4883  0.2309
  819MOL0     C10475  11.054   2.549   4.534  1.5047  0.2356 -0.2544
  819MOL0     C10476  10.936   2.574   4.600  1.2109  0.6666  0.6481
  819MOL0     O10477  10.694   2.826   4.536 -0.2003  0.1409 -0.3429
  819MOL0     C10478  10.441   2.768   4.639  0.1885 -0.3677 -0.5237
  819MOL0     C10479  10.320   2.742   4.690  0.3238 -0.2967 -0.1519
  819MOL0     N10480   9.912   2.790   5.458 -0.0882  0.0999 -0.2526
  819MOL0     N10481   9.834   2.767   5.559  0.1709  0.1674  0.5084
  819MOL0     C10482   8.875   2.389   6.301 -0.3865 -0.8481  0.4703
  819MOL0     C10483   8.743   2.351   6.309  0.2695  0.4118 -0.4451
  819MOL0     C10484   8.375   2.137   6.328 -0.0363 -0.4887  0.1315
  819MOL0     C10485   8.288   2.231   6.272  0.0783  0.5236 -0.0730
  819MOL0     C10486   8.152   2.221   6.287  0.2585 -0.1447 -0.0283
  819MOL0     C10487   8.096   2.127   6.368  0.5036  0.1284 -0.1189
  819MOL0     O10488   7.961   2.106   6.400 -0.0199  0.4874 -0.0984
  819MOL0     C10489   7.874   2.177   6.316 -0.2087 -0.8721  0.0226
  819MOL0     C10490   7.729   2.144   6.340  0.1115  0.6347 -0.8508
  819MOL0     C10491   7.700   1.999   6.312  0.4385  0.4112  0.0596
  819MOL0     C10492   7.547   1.962   6.295  0.1322 -0.2728  0.1006
  819MOL0     C10493   7.492   2.043   6.187 -1.7016  0.3581 -0.3521
  819MOL0     C10494   7.456   2.110   6.095  0.0416 -0.1884  0.0926
  819MOL0     C10495   8.186   2.035   6.432 -0.4546 -0.9931 -0.1321
  819MOL0     C10496   8.322   2.047   6.419  0.0748  0.5100  0.1709
  819MOL0     C10497   8.399   1.950   6.503  0.0528  0.0938  0.5434
  819MOL0     H10498   8.746   2.137   6.046  2.2363 -0.1777 -1.0982
  819MOL0     H10499   8.973   2.207   6.037 -0.2101  1.0384 -0.4183
  819MOL0     H10500   9.220   2.246   6.118 -1.2143  0.1471  0.6029
  819MOL0     H10501   9.164   2.365   5.991 -0.6807 -0.5904 -0.6083
  819MOL0     H10502   9.310   2.475   6.229 -2.3693  4.0679 -0.5693
  819MOL0     H10503   9.280   2.552   6.078  1.2747 -0.0119 -2.7860
  819MOL0     H10504   9.466   2.312   6.105  3.8705  0.5604  0.2137
  819MOL0     H10505   9.504   2.486   6.096 -2.7962  3.4858  1.7084
  819MOL0     H10506   9.357   2.317   5.878 -2.6600  1.2604 -0.6103
  819MOL0     H10507   9.380   2.493   5.861 -0.7646 -0.6288 -1.1921
  819MOL0     H10508   9.630   2.444   5.911 -0.6467  1.7521 -0.4325
  819MOL0     H10509   9.588   2.277   5.866  0.0261  0.0392 -2.4850
  819MOL0     H10510   9.484   2.360   5.650 -2.3282  1.8688 -1.0468
  819MOL0     H10511   9.491   2.524   5.695  0.5716  0.4239  3.8000
  819MOL0     H10512   9.648   2.481   5.525 -0.3005  1.9224 -0.5220
  819MOL0     H10513   9.731   2.357   5.625  1.5401  2.1873  1.6633
  819MOL0     H10514   9.691   2.654   5.722  0.3082  0.9031 -1.4896
  819MOL0     H10515   9.825   2.542   5.768  0.5491  0.7919  0.5146
  819MOL0     H10516   9.937   2.467   5.487 -0.3429  0.1536 -0.0732
  819MOL0     H10517  10.041   2.764   5.241  0.2595 -0.0733  0.7007
  819MOL0     H10518  10.151   2.648   5.309  0.2394 -0.0465 -0.4811
  819MOL0     H10519  10.041   2.466   5.205  3.2058  0.3931 -1.8376
  819MOL0     H10520   9.886   2.563   5.183  0.4677  2.3906 -1.4990
  819MOL0     H10521   9.956   2.677   4.998 -0.8431 -0.8003 -0.1706
  819MOL0     H10522   9.996   2.513   4.970 -2.2588 -0.6962  1.3737
  819MOL0     H10523  10.231   2.551   5.039 -0.6365 -1.1307 -0.2135
  819MOL0     H10524  10.208   2.718   5.063  1.3973 -0.5382 -0.4595
  819MOL0     H10525  10.442   2.647   5.009  2.1032 -0.4447  0.9424
  819MOL0     H10526  10.635   2.656   4.901 -2.9360 -4.6514  0.9877
  819MOL0     H10527  10.979   2.897   4.675  1.4263  0.6285  0.2517
  819MOL0     H10528  11.187   2.857   4.551  0.0502  0.3414 -1.8045
  819MOL0     H10529  11.331   2.768   4.342 -0.3978 -0.2306 -0.6105
  819MOL0     H10530  11.387   2.770   4.514 -3.4410 -2.3442  3.1160
  819MOL0     H10531  11.512   2.584   4.495  1.1195  2.8035  0.3789
  819MOL0     H10532  11.464   2.559   4.320 -5.0986  0.0695  0.4862
  819MOL0     H10533  11.552   2.791   4.266 -3.1108 -1.2752 -0.3966
  819MOL0     H10534  11.624   2.813   4.429  2.7038  1.6886 -2.9038
  819MOL0     H10535  11.705   2.593   4.262 -1.7601  0.2086  1.0488
  819MOL0     H10536  11.766   2.633   4.427 -0.5266 -1.5984 -0.0596
  819MOL0     H10537  11.929   2.717   4.275  0.5399  0.8867  1.2991
  819MOL0     H10538  11.860   2.859   4.325  4.5205 -1.0662  1.3717
  819MOL0     H10539  11.760   2.718   4.065  1.0138  1.4340 -4.1960
  819MOL0     H10540  11.726   2.890   4.126 -0.5893 -0.5067  3.1780
  819MOL0     H10541  11.995   2.770   4.030  3.2676  1.2162  0.7106
  819MOL0     H10542  11.983   2.923   4.113 -1.5854 -1.7379  3.1630
  819MOL0     H10543  11.829   2.875   3.850 -2.1621  0.0991  1.5461
  819MOL0     H10544  11.862   3.027   3.940 -2.1678 -0.0278  0.4808
  819MOL0     H10545  11.089   2.447   4.528 -2.4789 -1.2075 -2.0091
  819MOL0     H10546  10.890   2.485   4.643  2.9787 -0.6974 -0.1511
  819MOL0     H10547  10.440   2.821   4.544 -2.6253  2.3248  0.8455
  819MOL0     H10548  10.223   2.759   4.643 -0.3736  0.6238  1.5265
  819MOL0     H10549   8.902   2.468   6.370  0.5572 -2.5623  2.1337
  819MOL0     H10550   8.678   2.392   6.386 -0.4025 -1.7777  0.2181
  819MOL0     H10551   8.331   2.309   6.210  0.5007 -0.6328 -1.3036
  819MOL0     H10552   8.106   2.309   6.241  0.2425 -1.4021 -2.5832
  819MOL0     H10553   7.891   2.162   6.209 -0.0642  1.8873 -0.4178
  819MOL0     H10554   7.880   2.285   6.335 -0.4064 -0.8409 -0.0972
  819MOL0     H10555   7.664   2.210   6.283 -0.6670 -1.2198 -2.2060
  819MOL0     H10556   7.704   2.167   6.444  2.3786 -0.6179  0.0375
  819MOL0     H10557   7.735   1.943   6.399 -0.6737 -0.7237 -0.1901
  819MOL0     H10558   7.750   1.962   6.222 -0.7591 -0.6092 -0.2209
  819MOL0     H10559   7.535   1.855   6.280 -1.2220 -0.2279  0.7315
  819MOL0     H10560   7.490   1.996   6.382  2.1731 -0.6262  1.6468
  819MOL0     H10561   7.410   2.151   6.008 -1.5389 -1.4236  0.2929
  819MOL0     H10562   8.148   1.969   6.509 -0.2350 -0.6809  0.2482
  819MOL0     H10563   8.470   1.888   6.447  1.7281  1.5830  0.9216
  819MOL0     H10564   8.459   2.002   6.579 -0.8339  0.1156  1.2431
  819MOL0     H10565   8.339   1.870   6.547 -0.8336  1.2739  1.5477
  820MOL0     O10566   5.037   1.044  10.791 -0.0961 -0.0446 -1.3096
  820MOL0     C10567   4.957   1.128  10.740  0.3192 -0.0275 -0.3700
  820MOL0     O10568   4.978   1.264  10.738 -0.3732 -0.3636 -0.4011
  820MOL0     C10569   5.099   1.312  10.773  0.1464 -0.7999  0.1978
  820MOL0     C10570   5.112   1.414  10.869 -0.5070  0.1517  0.8672
  820MOL0     C10571   5.240   1.455  10.912  0.2830 -0.2353  0.0144
  820MOL0     C10572   5.356   1.406  10.841 -0.7847  0.3022 -0.2922
  820MOL0     O10573   5.481   1.437  10.877  0.0808 -0.1708 -0.7448
  820MOL0     C10574   5.501   1.574  10.921 -0.4827  0.5662  0.0089
  820MOL0     C10575   5.649   1.594  10.903 -0.1665  0.4680 -0.2347
  820MOL0     C10576   5.675   1.608  10.752 -0.2033  0.5746 -0.6788
  820MOL0     C10577   5.822   1.609  10.716  0.1041 -0.1322  0.2604
  820MOL0     C10578   5.841   1.682  10.579 -0.3636 -0.1347 -0.6982
  820MOL0     C10579   5.979   1.647  10.517  0.8780  0.5762 -0.9052
  820MOL0     C10580   6.036   1.745  10.424  0.1834 -0.1933  0.2887
  820MOL0     C10581   6.158   1.695  10.358  0.6312  0.5877 -0.3915
  820MOL0     N10582   6.276   1.680  10.448 -0.7820 -0.4516 -0.1751
  820MOL0     C10583   6.389   1.754  10.423  0.1078 -0.8041 -0.3680
  820MOL0     C10584   6.491   1.698  10.499 -0.1630  0.3609 -0.4528
  820MOL0     C10585   6.644   1.738  10.490  0.4898 -0.1035  0.5677
  820MOL0     C10586   6.724   1.644  10.580 -0.4454  0.8226  0.1648
  820MOL0     C10587   6.875   1.663  10.574 -0.6151  0.1701  0.3484
  820MOL0     C10588   6.948   1.546  10.639 -0.2092  0.7590  0.0200
  820MOL0     O10589   7.090   1.570  10.642  0.8089  0.2017  0.7936
  820MOL0     C10590   7.172   1.476  10.700 -0.8082 -0.2002  0.5073
  820MOL0     C10591   7.312   1.500  10.698 -0.7416  0.4006  0.1732
  820MOL0     C10592   7.401   1.401  10.734  0.9695  0.1619  0.0195
  820MOL0     C10593   7.354   1.281  10.786  0.5734  1.0635 -0.8211
  820MOL0     C10594   7.450   1.180  10.830 -0.0927 -0.2709  0.3143
  820MOL0     O10595   7.574   1.199  10.783  0.4554 -0.9532 -0.0087
  820MOL0     C10596   7.668   1.100  10.812 -0.3711  0.1423 -0.3713
  820MOL0     C10597   7.645   0.971  10.753 -1.0881 -0.4840 -0.9358
  820MOL0     C10598   7.727   0.865  10.805 -0.0748 -0.9294  0.0440
  820MOL0     C10599   7.826   0.883  10.897 -0.3166 -0.6073  1.4670
  820MOL0     O10600   7.900   0.778  10.955 -0.1720  0.7005 -0.0434
  820MOL0     C10601   7.863   0.641  10.921  0.6312 -0.7280 -0.3499
  820MOL0     C10602   7.982   0.550  10.938  1.5433  0.1679 -0.8340
  820MOL0     C10603   8.045   0.563  11.080  0.3979  0.5906 -0.2830
  820MOL0     C10604   8.140   0.441  11.110 -0.2477  0.6564  0.3632
  820MOL0     C10605   8.192   0.440  11.253  0.1652  0.1670  0.3544
  820MOL0     C10606   8.270   0.567  11.294  0.3019  0.3595 -0.0213
  820MOL0     C10607   8.310   0.536  11.444 -0.5238  0.1285  0.8754
  820MOL0     C10608   8.421   0.630  11.485  0.5752  0.7777  0.6016
  820MOL0    Cl10609   8.584   0.576  11.418  0.1287 -0.0837 -0.1361
  820MOL0     C10610   7.851   1.014  10.945 -0.9516 -0.7854  0.0985
  820MOL0     C10611   7.768   1.121  10.908  0.2771 -0.2806 -0.2685
  820MOL0     O10612   7.414   1.088  10.901  0.1063  1.1919  0.8669
  820MOL0     C10613   7.222   1.262  10.806  0.2924  0.0167  0.3700
  820MOL0     C10614   7.127   1.352  10.756  0.8555 -1.2220 -0.0618
  820MOL0     N10615   6.432   1.602  10.574  0.4886  0.3125 -0.0861
  820MOL0     N10616   6.307   1.591  10.550 -0.3572  0.7070 -0.4704
  820MOL0     C10617   5.343   1.303  10.743  0.1735  0.2048  0.0276
  820MOL0     C10618   5.213   1.260  10.721  0.6198  1.2321  0.8754
  820MOL0     C10619   4.830   1.093  10.674  0.0508 -0.9036 -0.2659
  820MOL0     C10620   4.723   1.181  10.709  0.3106  0.3919  0.3149
  820MOL0     C10621   4.603   1.162  10.650 -0.2489 -0.2024 -0.2261
  820MOL0     C10622   4.579   1.060  10.553  0.5962 -0.2536  1.1360
  820MOL0     O10623   4.463   1.055  10.483 -0.1108 -0.5003  0.7122
  820MOL0     C10624   4.445   0.985  10.353  0.1482  0.0794  0.1624
  820MOL0     C10625   4.334   1.068  10.289 -0.1799  1.0854 -0.4421
  820MOL0     C10626   4.211   1.082  10.377  0.1880  0.5906  0.2956
  820MOL0     C10627   4.153   0.946  10.415  0.0411 -0.1975  0.2657
  820MOL0     C10628   4.010   0.956  10.442  0.5631  0.2590  0.5618
  820MOL0     C10629   3.891   0.970  10.467 -0.5445 -0.3958 -0.0774
  820MOL0     C10630   4.683   0.970  10.526 -0.4279 -0.1023 -0.6605
  820MOL0     C10631   4.802   0.975  10.599 -0.0939 -0.9968  0.4239
  820MOL0     C10632   4.911   0.874  10.560  0.4455  0.8715 -0.4355
  820MOL0     H10633   5.017   1.444  10.911 -0.9424 -1.5642  1.1777
  820MOL0     H10634   5.239   1.528  10.992  1.2345  0.9799 -1.0208
  820MOL0     H10635   5.446   1.645  10.858  1.0004  2.2776  0.5396
  820MOL0     H10636   5.479   1.589  11.027 -1.7142 -1.0376  0.0155
  820MOL0     H10637   5.702   1.505  10.937 -3.8945 -1.8667  0.0763
  820MOL0     H10638   5.682   1.683  10.958  0.8907  0.0520 -0.1681
  820MOL0     H10639   5.650   1.712  10.725  1.5259  1.0303 -0.6520
  820MOL0     H10640   5.608   1.541  10.696  1.3076 -2.2721  0.7335
  820MOL0     H10641   5.885   1.661  10.790 -0.7388  1.2708  0.0350
  820MOL0     H10642   5.859   1.507  10.718 -0.2009 -0.2846  2.9612
  820MOL0     H10643   5.763   1.658  10.505 -1.5394 -1.4268  0.8772
  820MOL0     H10644   5.832   1.789  10.596 -0.9658  0.0205 -1.8705
  820MOL0     H10645   6.041   1.627  10.604  2.4779  1.9638 -1.6575
  820MOL0     H10646   5.969   1.555  10.459  3.2497  0.9039 -1.9731
  820MOL0     H10647   6.054   1.842  10.471 -1.6644  0.8801 -1.0721
  820MOL0     H10648   5.961   1.774  10.349 -0.0834 -0.7872  0.3161
  820MOL0     H10649   6.125   1.601  10.314  0.1867 -0.4654  2.0395
  820MOL0     H10650   6.179   1.759  10.272  0.4090 -0.1750 -1.0228
  820MOL0     H10651   6.400   1.825  10.342 -2.5484 -1.7258 -1.6845
  820MOL0     H10652   6.682   1.741  10.388 -0.7375 -1.0178  0.0517
  820MOL0     H10653   6.648   1.838  10.534  2.0115 -1.2883  3.3518
  820MOL0     H10654   6.695   1.655  10.685  1.7462 -2.6620  1.3125
  820MOL0     H10655   6.700   1.542  10.549 -1.6603  1.7853 -2.3333
  820MOL0     H10656   6.913   1.754  10.621  1.7739 -0.7281  0.2902
  820MOL0     H10657   6.899   1.681  10.469  0.8802 -0.2018  0.6055
  820MOL0     H10658   6.927   1.448  10.594  0.6233 -0.3477  1.8938
  820MOL0     H10659   6.905   1.538  10.740 -0.8946  1.2165 -0.2242
  820MOL0     H10660   7.343   1.595  10.655  1.1232 -0.1237  0.2571
  820MOL0     H10661   7.507   1.417  10.718  1.0172  0.0798  0.2460
  820MOL0     H10662   7.561   0.953  10.686 -0.5910  4.1600 -3.1624
  820MOL0     H10663   7.697   0.770  10.762 -0.6698 -0.8925  0.3588
  820MOL0     H10664   7.795   0.611  11.002  0.7204  0.9454  0.3988
  820MOL0     H10665   7.823   0.632  10.819  1.1834  0.8364 -0.7343
  820MOL0     H10666   7.953   0.446  10.921  1.4743  0.0199  0.1193
  820MOL0     H10667   8.063   0.591  10.877  2.6568  1.2021  1.2284
  820MOL0     H10668   8.097   0.659  11.088  1.0687  0.2888 -0.9802
  820MOL0     H10669   7.968   0.563  11.158  1.6687 -0.1564  1.0519
  820MOL0     H10670   8.227   0.442  11.045  1.7546  0.5318  2.8632
  820MOL0     H10671   8.078   0.352  11.102  1.9069 -1.0674  1.6843
  820MOL0     H10672   8.250   0.347  11.257 -0.3722 -0.2328 -0.6582
  820MOL0     H10673   8.102   0.428  11.314 -2.1048  0.1835 -2.7340
  820MOL0     H10674   8.354   0.594  11.230 -0.1022  1.4108 -0.1308
  820MOL0     H10675   8.194   0.646  11.289  0.0603  0.0429 -3.4629
  820MOL0     H10676   8.338   0.431  11.457 -3.0234 -1.2547 -2.8371
  820MOL0     H10677   8.220   0.551  11.504 -2.6958  0.3012 -2.1771
  820MOL0     H10678   8.401   0.727  11.438  2.2513  0.8140 -0.0758
  820MOL0     H10679   8.419   0.639  11.595 -0.8278  2.5166  0.4848
  820MOL0     H10680   7.926   1.033  11.021  1.6612 -2.7430 -1.8186
  820MOL0     H10681   7.768   1.216  10.960 -0.4110 -0.5527  0.2489
  820MOL0     H10682   7.186   1.170  10.852 -1.3741  0.2620 -0.3750
  820MOL0     H10683   7.020   1.338  10.767  0.1163  4.0843  2.6531
  820MOL0     H10684   5.428   1.250  10.702 -0.3103 -2.3308  2.0426
  820MOL0     H10685   5.191   1.178  10.653 -0.8140  2.0576  0.3052
  820MOL0     H10686   4.728   1.256  10.787 -3.0142 -0.8877  1.9841
  820MOL0     H10687   4.528   1.237  10.673  0.3728  0.7631 -1.2614
  820MOL0     H10688   4.415   0.881  10.367  2.1240 -0.6913 -0.9844
  820MOL0     H10689   4.532   0.972  10.288  1.4533  1.3793  1.5553
  820MOL0     H10690   4.304   1.022  10.195  1.7198  0.3997 -0.7582
  820MOL0     H10691   4.368   1.169  10.264  2.2998  0.2172 -0.8482
  820MOL0     H10692   4.133   1.132  10.320  0.5396 -0.1604 -0.8617
  820MOL0     H10693   4.228   1.152  10.460 -1.8528  2.3657 -0.6794
  820MOL0     H10694   4.164   0.879  10.329 -2.1174  0.5838 -0.6808
  820MOL0     H10695   4.203   0.916  10.507 -0.5515  1.3575  1.1292
  820MOL0     H10696   3.792   0.983  10.508  0.0857  2.9805  0.7072
  820MOL0     H10697   4.679   0.887  10.457 -0.8119  1.1721 -2.2157
  820MOL0     H10698   5.000   0.881  10.624 -2.5537  3.1658  4.0063
  820MOL0     H10699   4.876   0.771  10.555  1.6410  0.5158 -2.5421
  820MOL0     H10700   4.952   0.889  10.460 -1.8463  2.1955 -1.2245
  821MOL0     O10701   1.474   8.943   9.001 -0.3851  0.5844  0.2602
  821MOL0     C10702   1.425   8.834   8.968  0.2920  0.7543 -0.3869
  821MOL0     O10703   1.493   8.736   8.900  0.6584 -0.3705 -1.1873
  821MOL0     C10704   1.626   8.757   8.876 -0.3411 -0.5168 -0.0772
  821MOL0     C10705   1.724   8.798   8.969  0.3856 -0.0786 -0.2264
  821MOL0     C10706   1.859   8.780   8.935 -0.2061 -0.4221  0.1783
  821MOL0     C10707   1.901   8.730   8.813  0.4844  0.6931  0.0399
  821MOL0     O10708   2.032   8.694   8.812 -0.2528  0.1276  0.7849
  821MOL0     C10709   2.079   8.612   8.699  0.2758 -1.3672 -0.3510
  821MOL0     C10710   2.228   8.565   8.712  0.6285  0.3382  0.7686
  821MOL0     C10711   2.280   8.505   8.580  0.8524  0.0983 -0.1143
  821MOL0     C10712   2.434   8.514   8.577  0.7706 -0.5627  0.4512
  821MOL0     C10713   2.483   8.458   8.446 -0.3084 -0.7497  0.3752
  821MOL0     C10714   2.629   8.498   8.410  0.4037  0.6710  0.0601
  821MOL0     C10715   2.638   8.646   8.376 -0.0046  0.5279  0.2079
  821MOL0     C10716   2.790   8.684   8.347 -0.1407  0.1484 -0.0724
  821MOL0     N10717   2.805   8.808   8.273  0.0745  0.0376 -0.1104
  821MOL0     C10718   2.821   8.817   8.141 -0.0273 -0.5924  0.0459
  821MOL0     C10719   2.793   8.952   8.111 -0.2854  0.4223  0.2575
  821MOL0     C10720   2.804   9.011   7.973  0.0244  0.0811  0.0068
  821MOL0     C10721   2.945   9.062   7.944  0.1744 -0.3441 -0.3621
  821MOL0     C10722   3.049   8.952   7.930 -0.2615 -0.9988 -0.1768
  821MOL0     C10723   3.191   9.003   7.886 -0.1238  0.7039 -0.1815
  821MOL0     O10724   3.238   9.099   7.988 -0.1443  0.2176 -0.2086
  821MOL0     C10725   3.355   9.158   7.967 -1.5228  0.8256  0.4593
  821MOL0     C10726   3.428   9.152   7.843  0.2584 -0.6200  0.2304
  821MOL0     C10727   3.555   9.203   7.823  1.0023  0.6961 -0.5045
  821MOL0     C10728   3.613   9.274   7.929  0.1645  0.1238 -0.0939
  821MOL0     C10729   3.750   9.336   7.924 -0.6860 -0.1041  0.2111
  821MOL0     O10730   3.806   9.326   7.797 -0.2314  0.1220  0.8490
  821MOL0     C10731   3.921   9.384   7.763  0.0547 -0.1853  0.5278
  821MOL0     C10732   3.990   9.305   7.673  0.7948  0.0642  0.4451
  821MOL0     C10733   4.118   9.342   7.633 -1.3191 -0.6565 -0.5104
  821MOL0     C10734   4.175   9.466   7.675  1.5635 -0.0302  0.9484
  821MOL0     O10735   4.302   9.509   7.649 -0.0626  0.3540 -0.1771
  821MOL0     C10736   4.385   9.421   7.583 -0.1313  0.5186 -0.8082
  821MOL0     C10737   4.518   9.495   7.585  0.1535  0.1462 -0.4017
  821MOL0     C10738   4.627   9.401   7.536  0.7748  0.7729 -0.0805
  821MOL0     C10739   4.757   9.459   7.504 -0.7352  0.2766  0.8864
  821MOL0     C10740   4.853   9.345   7.466 -0.7754  0.1468 -0.4875
  821MOL0     C10741   4.996   9.396   7.451 -0.2919 -0.6814 -0.1559
  821MOL0     C10742   5.090   9.278   7.405  1.1593 -0.4580  0.0733
  821MOL0     C10743   5.222   9.332   7.339 -0.2835  0.0703  0.1622
  821MOL0    Cl10744   5.299   9.200   7.250 -0.2451 -0.4348  0.0783
  821MOL0     C10745   4.093   9.555   7.748 -0.9496  0.4703 -0.2859
  821MOL0     C10746   3.970   9.511   7.799 -0.0022 -0.1888  0.0703
  821MOL0     O10747   3.814   9.362   8.024 -0.1139 -0.8671 -0.8946
  821MOL0     C10748   3.543   9.274   8.053  0.2150 -0.6496  0.0982
  821MOL0     C10749   3.411   9.222   8.073  0.7388 -0.5267  0.6391
  821MOL0     N10750   2.758   9.016   8.222  0.4809 -0.4937  0.2236
  821MOL0     N10751   2.775   8.929   8.322  0.3747 -0.0534  0.0127
  821MOL0     C10752   1.813   8.694   8.714  0.2355  0.0708 -1.0373
  821MOL0     C10753   1.674   8.706   8.755 -0.4847 -0.0110 -0.1311
  821MOL0     C10754   1.286   8.795   9.006  1.1040 -0.1033  0.3145
  821MOL0     C10755   1.264   8.661   9.054  0.9887  0.0065 -0.2997
  821MOL0     C10756   1.131   8.624   9.078 -0.0732  0.8026 -0.8218
  821MOL0     C10757   1.027   8.721   9.079  0.1403  1.1157 -0.4458
  821MOL0     O10758   0.915   8.656   9.139  0.3630 -0.2264  0.1163
  821MOL0     C10759   0.787   8.724   9.135  0.9917  0.6336 -0.2861
  821MOL0     C10760   0.722   8.710   8.992  0.5094 -0.1149  0.6108
  821MOL0     C10761   0.681   8.565   8.980 -0.1307 -0.1739  0.3889
  821MOL0     C10762   0.594   8.544   8.855  0.4183 -0.6343 -0.7448
  821MOL0     C10763   0.483   8.633   8.848 -0.5362  0.5638 -0.6761
  821MOL0     C10764   0.384   8.701   8.819 -0.4185  0.0730 -0.3123
  821MOL0     C10765   1.048   8.846   9.039  0.5144  0.0109  0.2305
  821MOL0     C10766   1.172   8.881   8.998  0.0140 -0.0421  0.1134
  821MOL0     C10767   1.192   9.028   8.972  0.2267 -0.1455  0.4919
  821MOL0     H10768   1.682   8.829   9.064 -0.5358 -2.8543  0.3570
  821MOL0     H10769   1.932   8.807   9.011 -1.2905  1.0562  0.7438
  821MOL0     H10770   2.006   8.531   8.702 -1.4349  0.0953 -0.1995
  821MOL0     H10771   2.063   8.659   8.602 -3.4519  0.4560  0.9474
  821MOL0     H10772   2.243   8.488   8.788  2.7675 -0.3343 -0.2457
  821MOL0     H10773   2.283   8.657   8.737  0.5811  0.1711  1.5290
  821MOL0     H10774   2.231   8.546   8.492 -1.4495  1.6728  1.7899
  821MOL0     H10775   2.248   8.401   8.595 -2.2160  1.1661  1.6326
  821MOL0     H10776   2.456   8.619   8.598 -1.2895 -0.3807  1.9380
  821MOL0     H10777   2.475   8.460   8.662 -4.2128 -1.7812  2.3773
  821MOL0     H10778   2.467   8.350   8.437 -2.2335 -0.4041 -1.0087
  821MOL0     H10779   2.422   8.504   8.368  0.3685 -1.5627 -0.6724
  821MOL0     H10780   2.694   8.472   8.495  0.2221  0.1095  0.0330
  821MOL0     H10781   2.665   8.438   8.326 -3.5381 -1.3885 -0.4017
  821MOL0     H10782   2.590   8.713   8.447 -2.5854  0.0534 -0.9863
  821MOL0     H10783   2.593   8.655   8.277 -0.3480 -4.7203 -0.3762
  821MOL0     H10784   2.844   8.697   8.441  1.5738  1.9909 -1.2281
  821MOL0     H10785   2.844   8.605   8.294  3.4186  2.6814 -0.5571
  821MOL0     H10786   2.855   8.738   8.076  0.6661  0.8491 -1.3994
  821MOL0     H10787   2.779   8.927   7.907  0.8684 -1.6308  1.7540
  821MOL0     H10788   2.730   9.090   7.956 -1.7455 -2.0683 -3.5909
  821MOL0     H10789   2.943   9.127   7.856 -1.5493 -2.4528 -2.0040
  821MOL0     H10790   2.971   9.135   8.022 -1.3341  0.3721 -0.4951
  821MOL0     H10791   3.005   8.886   7.855  2.3647 -0.1912 -2.6291
  821MOL0     H10792   3.080   8.898   8.020  0.9623 -1.8051 -1.0392
  821MOL0     H10793   3.178   9.041   7.784  0.9629 -0.6255 -0.8543
  821MOL0     H10794   3.266   8.923   7.890  1.5652  2.1679 -1.0713
  821MOL0     H10795   3.394   9.099   7.754 -0.7864  1.2366 -0.5361
  821MOL0     H10796   3.599   9.184   7.725 -2.2225 -1.6805 -1.6526
  821MOL0     H10797   3.929   9.220   7.645 -1.0760  0.9819  1.5674
  821MOL0     H10798   4.181   9.275   7.576  0.6062  0.1851  0.5353
  821MOL0     H10799   4.397   9.328   7.638 -0.5895  0.6361 -0.5134
  821MOL0     H10800   4.351   9.417   7.479  0.6356  2.8451 -1.2190
  821MOL0     H10801   4.522   9.578   7.513 -0.2176  0.5640  0.0511
  821MOL0     H10802   4.541   9.527   7.687  2.7528  0.0553 -0.8824
  821MOL0     H10803   4.651   9.326   7.612  1.2007  1.9119  0.9417
  821MOL0     H10804   4.589   9.343   7.452  0.4373 -0.7727  1.0915
  821MOL0     H10805   4.799   9.515   7.588  0.5634  0.9859 -0.1827
  821MOL0     H10806   4.756   9.524   7.416  0.7823  1.0784  1.4272
  821MOL0     H10807   4.817   9.298   7.374 -1.0668  0.7618 -0.6983
  821MOL0     H10808   4.857   9.279   7.553  1.5733  1.1917  0.2940
  821MOL0     H10809   5.000   9.484   7.387 -5.1020  2.8015  3.6473
  821MOL0     H10810   5.027   9.440   7.546 -2.6512  1.0483 -0.0926
  821MOL0     H10811   5.033   9.215   7.337 -1.3263 -0.7306  2.2292
  821MOL0     H10812   5.108   9.201   7.481 -2.8292 -1.4144  0.2777
  821MOL0     H10813   5.187   9.418   7.282 -3.5453 -0.8490  0.5198
  821MOL0     H10814   5.294   9.364   7.414 -0.8226 -1.6088  1.4617
  821MOL0     H10815   4.136   9.646   7.787  3.3692 -0.2618 -2.7851
  821MOL0     H10816   3.917   9.568   7.875  0.4828 -1.5550  1.4815
  821MOL0     H10817   3.586   9.331   8.135  0.5888  3.6980 -2.7996
  821MOL0     H10818   3.351   9.230   8.163 -0.6235 -1.1137 -0.1868
  821MOL0     H10819   1.839   8.639   8.625  1.3524  0.4010 -0.9329
  821MOL0     H10820   1.598   8.669   8.687 -0.3799 -0.2479 -0.1229
  821MOL0     H10821   1.338   8.582   9.059  0.5431 -0.4291 -0.4402
  821MOL0     H10822   1.095   8.531   9.121 -1.5282  2.2846  1.3879
  821MOL0     H10823   0.803   8.828   9.164  0.5321  0.3666  1.0078
  821MOL0     H10824   0.712   8.679   9.202  0.3297 -1.1947 -2.1417
  821MOL0     H10825   0.804   8.727   8.921  1.9139 -0.8488  1.9934
  821MOL0     H10826   0.636   8.775   8.977  1.2167  0.3299 -2.0720
  821MOL0     H10827   0.625   8.534   9.069  0.5995 -1.6003  0.3907
  821MOL0     H10828   0.777   8.514   8.971 -0.2575 -0.5197  0.9797
  821MOL0     H10829   0.649   8.573   8.765  1.0111  3.5682  0.7465
  821MOL0     H10830   0.564   8.439   8.858 -3.3346  0.3106  1.4022
  821MOL0     H10831   0.287   8.742   8.801 -1.3348 -1.3371  1.2257
  821MOL0     H10832   0.961   8.911   9.035  1.8420  2.1845  3.0666
  821MOL0     H10833   1.249   9.056   8.882  0.2771  0.3924  0.6897
  821MOL0     H10834   1.090   9.064   8.958 -0.3363 -1.1207  1.9365
  821MOL0     H10835   1.236   9.084   9.055  2.6476 -0.2121 -0.6703
  822MOL0     O10836  11.111   5.591  10.627  0.4354 -0.3553 -1.3198
  822MOL0     C10837  11.064   5.494  10.680 -0.5888  0.0458 -0.7720
  822MOL0     O10838  11.128   5.417  10.766 -0.2109  0.4338  0.3223
  822MOL0     C10839  11.263   5.415  10.755  0.2385 -0.4275 -0.1340
  822MOL0     C10840  11.326   5.315  10.684  0.2173  0.1612 -0.1574
  822MOL0     C10841  11.464   5.328  10.671  0.0787  0.2837  0.4359
  822MOL0     C10842  11.542   5.436  10.720  0.2261  0.6467 -0.1312
  822MOL0     O10843  11.677   5.433  10.712  0.1153  0.2719  0.3040
  822MOL0     C10844  11.736   5.335  10.789 -0.3220 -0.4001 -0.1987
  822MOL0     C10845  11.885   5.346  10.798  0.2758  0.7617  1.0683
  822MOL0     C10846  11.953   5.284  10.671  0.4037  0.2694  0.6979
  822MOL0     C10847  12.104   5.246  10.687 -0.0751  0.0991 -0.1125
  822MOL0     C10848  12.144   5.128  10.789  0.4536 -0.8663  0.0791
  822MOL0     C10849  12.293   5.126  10.820 -0.2188 -0.1572  0.0779
  822MOL0     C10850  12.334   5.233  10.933 -0.3579 -0.5817  1.3034
  822MOL0     C10851  12.320   5.180  11.079 -0.3891  0.1433  0.2616
  822MOL0     N10852  12.424   5.067  11.105 -0.7284 -0.4465 -0.0189
  822MOL0     C10853  12.556   5.105  11.136 -0.2436  0.4806 -0.0520
  822MOL0     C10854  12.608   4.981  11.160  0.2650  0.0177  0.9058
  822MOL0     C10855  12.735   4.951  11.237 -0.1944  0.4721  0.8956
  822MOL0     C10856  12.870   4.993  11.152  0.2138 -0.0161 -0.9231
  822MOL0     C10857  12.883   5.139  11.140 -0.7688  0.2443  0.3487
  822MOL0     C10858  13.034   5.169  11.087 -0.0631  0.2700 -0.1860
  822MOL0     O10859  13.116   5.183  11.202 -0.4023 -0.2735 -0.0616
  822MOL0     C10860  13.227   5.265  11.187 -0.2050  0.1360  0.4992
  822MOL0     C10861  13.257   5.353  11.085  0.9494  0.1517  0.1048
  822MOL0     C10862  13.379   5.415  11.074  0.1292 -0.0177  0.7024
  822MOL0     C10863  13.469   5.400  11.180 -0.1326  1.1952  0.1749
  822MOL0     C10864  13.605   5.453  11.170 -0.0821 -0.5105 -0.6669
  822MOL0     O10865  13.682   5.445  11.286  0.0022 -0.2667  0.0855
  822MOL0     C10866  13.785   5.535  11.310  0.4422 -1.3966 -0.0762
  822MOL0     C10867  13.896   5.563  11.227  0.2558  0.0169  0.1900
  822MOL0     C10868  14.008   5.633  11.264 -0.1858  0.1871 -0.0634
  822MOL0     C10869  14.014   5.695  11.388  0.0243 -0.6613  0.3789
  822MOL0     O10870  14.135   5.741  11.420 -0.7138 -0.3952 -0.0264
  822MOL0     C10871  14.150   5.794  11.549 -0.3275  0.2952  0.3925
  822MOL0     C10872  14.300   5.841  11.566 -0.7696  0.1482 -0.7291
  822MOL0     C10873  14.339   5.954  11.466 -1.2605  0.2306 -0.2906
  822MOL0     C10874  14.485   6.016  11.501 -0.2735 -1.0174  0.3362
  822MOL0     C10875  14.603   5.944  11.445  0.7776 -0.2194 -0.2357
  822MOL0     C10876  14.727   6.021  11.453 -0.6098  0.6240  0.8928
  822MOL0     C10877  14.839   5.950  11.384  0.9163  0.0288 -0.0952
  822MOL0     C10878  14.954   6.043  11.376 -0.1321  0.6483 -0.0831
  822MOL0    Cl10879  15.097   5.958  11.313 -0.3845 -0.0415 -0.0518
  822MOL0     C10880  13.905   5.674  11.475 -0.1182  0.9044 -0.7960
  822MOL0     C10881  13.788   5.600  11.434  0.0963 -0.1637 -0.4466
  822MOL0     O10882  13.642   5.495  11.063  0.3141  0.0469 -0.1505
  822MOL0     C10883  13.438   5.305  11.285 -1.3248 -0.3361 -0.1059
  822MOL0     C10884  13.317   5.235  11.287 -0.3741  0.7720 -0.8260
  822MOL0     N10885  12.513   4.881  11.135  0.4910  0.5068 -0.6487
  822MOL0     N10886  12.401   4.932  11.100  0.8420  0.2412 -0.2244
  822MOL0     C10887  11.484   5.532  10.801  0.3571  0.2736 -0.1691
  822MOL0     C10888  11.345   5.518  10.819  0.7161  0.4092 -0.9612
  822MOL0     C10889  10.924   5.488  10.659 -0.4321 -0.6111 -0.5217
  822MOL0     C10890  10.872   5.384  10.580 -0.0379  0.0449 -0.8555
  822MOL0     C10891  10.735   5.366  10.555 -0.0993 -0.1456  0.8837
  822MOL0     C10892  10.653   5.471  10.597  0.1676 -0.2717  0.0809
  822MOL0     O10893  10.526   5.479  10.554  0.5313 -0.2512  0.0806
  822MOL0     C10894  10.450   5.365  10.521 -0.3008 -0.3338 -1.2711
  822MOL0     C10895  10.297   5.386  10.520  0.2007 -0.4413 -0.1166
  822MOL0     C10896  10.250   5.464  10.645  0.1052  0.2076 -0.4937
  822MOL0     C10897  10.091   5.453  10.651  0.4630 -0.3819  0.1978
  822MOL0     C10898  10.049   5.490  10.783  0.1276  0.5563 -0.6869
  822MOL0     C10899  10.008   5.530  10.885 -0.2146 -0.1130 -0.3339
  822MOL0     C10900  10.699   5.581  10.673  0.4397 -0.3506 -0.1807
  822MOL0     C10901  10.837   5.593  10.697 -0.3858 -0.6851 -0.2278
  822MOL0     C10902  10.880   5.718  10.787  0.1756 -0.8466 -0.1418
  822MOL0     H10903  11.268   5.237  10.635 -0.9111  0.8296  0.0633
  822MOL0     H10904  11.512   5.250  10.614  0.6694  0.9681 -0.0275
  822MOL0     H10905  11.706   5.355  10.893 -0.7463 -1.1143 -0.1773
  822MOL0     H10906  11.701   5.237  10.755  0.2443 -0.0424 -1.8800
  822MOL0     H10907  11.924   5.287  10.881  0.5352  0.5964  0.8330
  822MOL0     H10908  11.920   5.449  10.811  1.8172  0.5991 -1.1973
  822MOL0     H10909  11.944   5.355  10.589  0.2949 -0.5906 -0.0525
  822MOL0     H10910  11.898   5.192  10.652  0.9478  0.0182  0.3112
  822MOL0     H10911  12.129   5.211  10.587 -1.6450 -1.5686  0.0256
  822MOL0     H10912  12.161   5.337  10.710  1.8191 -1.4397  1.6182
  822MOL0     H10913  12.106   5.148  10.890  1.5885  0.9123  0.1968
  822MOL0     H10914  12.118   5.029  10.751  1.4668 -1.6282  1.2967
  822MOL0     H10915  12.325   5.028  10.857  1.1070  0.1223 -0.2664
  822MOL0     H10916  12.346   5.154  10.728 -2.1763  0.2354 -0.9838
  822MOL0     H10917  12.280   5.327  10.919  1.3498  0.3470  0.6928
  822MOL0     H10918  12.438   5.266  10.921 -0.8427  0.0954 -1.5954
  822MOL0     H10919  12.338   5.261  11.151 -2.1821  1.3428 -0.5728
  822MOL0     H10920  12.218   5.146  11.100 -1.1626  2.3385  0.3021
  822MOL0     H10921  12.599   5.204  11.145  1.9425 -0.1423 -2.3415
  822MOL0     H10922  12.730   4.977  11.344 -3.3716 -0.6487  1.1169
  822MOL0     H10923  12.737   4.841  11.241  1.1082  0.4931  2.8064
  822MOL0     H10924  12.962   4.956  11.197  0.9652  2.1363 -0.5662
  822MOL0     H10925  12.855   4.959  11.049  0.9565  0.8773 -1.3424
  822MOL0     H10926  12.857   5.198  11.228  1.8578  1.7725  0.1977
  822MOL0     H10927  12.812   5.171  11.063  0.7414 -0.1020 -1.2674
  822MOL0     H10928  13.019   5.265  11.037  1.0326  0.6823  0.2527
  822MOL0     H10929  13.068   5.094  11.015 -1.9263  0.5257 -1.4022
  822MOL0     H10930  13.194   5.362  10.997  0.2800 -0.7969  0.4668
  822MOL0     H10931  13.399   5.465  10.980  0.8183  2.3387  2.0082
  822MOL0     H10932  13.895   5.520  11.127 -2.4603 -0.9418  0.5480
  822MOL0     H10933  14.091   5.648  11.196  0.2813  0.0401  0.4638
  822MOL0     H10934  14.082   5.878  11.566 -0.2949  0.5027 -0.4737
  822MOL0     H10935  14.131   5.713  11.620  0.7240 -0.0947  0.2433
  822MOL0     H10936  14.306   5.894  11.662 -1.6515 -1.0026 -0.0081
  822MOL0     H10937  14.375   5.762  11.573 -0.2203  0.7012 -0.1112
  822MOL0     H10938  14.325   5.930  11.360  0.1200 -1.0427 -0.2120
  822MOL0     H10939  14.264   6.033  11.480 -0.3363  0.8642  1.4438
  822MOL0     H10940  14.493   6.029  11.609  0.3432 -1.2807  0.3297
  822MOL0     H10941  14.498   6.112  11.449 -0.1090 -0.3554  1.5668
  822MOL0     H10942  14.579   5.914  11.343  2.1618  0.5856 -0.8261
  822MOL0     H10943  14.610   5.849  11.498 -0.4964  0.0122  0.3893
  822MOL0     H10944  14.704   6.107  11.390 -2.0957 -2.4907 -3.2255
  822MOL0     H10945  14.736   6.038  11.561 -2.6028 -1.5187  1.4946
  822MOL0     H10946  14.812   5.922  11.282  1.0302 -0.8915  0.1131
  822MOL0     H10947  14.868   5.857  11.434  1.8944 -0.8564 -2.1762
  822MOL0     H10948  14.942   6.132  11.314  1.1094 -0.1615 -1.5580
  822MOL0     H10949  14.977   6.069  11.480 -2.5440 -2.7788  1.5366
  822MOL0     H10950  13.902   5.689  11.582  0.7536  0.3753 -0.6852
  822MOL0     H10951  13.706   5.575  11.500 -0.9307  2.4232 -0.6209
  822MOL0     H10952  13.503   5.290  11.370 -2.6169 -0.4314  0.9034
  822MOL0     H10953  13.290   5.159  11.360 -0.6641  3.3403  1.8967
  822MOL0     H10954  11.545   5.608  10.848  1.3243 -1.0273  0.7488
  822MOL0     H10955  11.295   5.591  10.882  0.1166  0.7317 -1.8035
  822MOL0     H10956  10.931   5.298  10.551 -0.8013 -1.0358  0.6141
  822MOL0     H10957  10.705   5.279  10.497  0.5689 -1.4749  2.4647
  822MOL0     H10958  10.472   5.295  10.603 -1.2529 -1.1223 -1.6710
  822MOL0     H10959  10.486   5.326  10.426  0.9146 -0.0437 -0.9484
  822MOL0     H10960  10.258   5.284  10.512 -1.7498  0.2916 -0.5469
  822MOL0     H10961  10.275   5.457  10.441  1.1808 -0.5496 -0.5052
  822MOL0     H10962  10.278   5.569  10.629 -1.1134  0.5020 -0.7619
  822MOL0     H10963  10.301   5.422  10.733  3.3357  0.7327 -1.9555
  822MOL0     H10964  10.052   5.519  10.573 -2.5613 -0.8481  1.1854
  822MOL0     H10965  10.059   5.351  10.627 -0.6453  0.5665 -2.7182
  822MOL0     H10966   9.985   5.550  10.988  0.1016 -0.5638 -0.1741
  822MOL0     H10967  10.627   5.659  10.697  1.2083  0.1614  0.4820
  822MOL0     H10968  10.937   5.694  10.877 -1.3627 -0.4277  0.9799
  822MOL0     H10969  10.945   5.780  10.725  1.7293 -2.1853  0.0827
  822MOL0     H10970  10.789   5.775  10.808 -0.8797 -2.3399 -0.4282
  823MOL0     O10971   7.038  10.230   9.554  0.5516  0.3748 -0.0688
  823MOL0     C10972   6.958  10.133   9.547  0.0897  0.3243  0.5116
  823MOL0     O10973   6.982  10.005   9.600  0.2250 -0.6531  0.5506
  823MOL0     C10974   7.097   9.991   9.657 -0.4110 -1.0202 -0.9865
  823MOL0     C10975   7.122  10.040   9.782  0.3352  0.4502 -1.2891
  823MOL0     C10976   7.243  10.007   9.838 -0.5366 -0.6132 -0.2047
  823MOL0     C10977   7.338   9.924   9.770  0.1296  0.0181  0.0127
  823MOL0     O10978   7.466   9.898   9.804  0.4234 -0.0707  0.0897
  823MOL0     C10979   7.511   9.953   9.924 -0.6137  0.7685  0.4790
  823MOL0     C10980   7.555  10.095   9.894  0.9021 -0.3903  1.0509
  823MOL0     C10981   7.690  10.107   9.824  0.7693 -0.3327 -0.5200
  823MOL0     C10982   7.780  10.222   9.870  0.2134 -0.5504  0.4884
  823MOL0     C10983   7.904  10.223   9.774 -0.1411  0.4266 -0.7515
  823MOL0     C10984   8.011  10.316   9.836 -0.3183  0.0205 -1.0903
  823MOL0     C10985   8.135  10.301   9.740  0.9407 -0.1311 -0.4906
  823MOL0     C10986   8.249  10.387   9.790  0.5859 -0.1126 -0.0925
  823MOL0     N10987   8.370  10.345   9.720 -0.6039  0.2500 -0.3866
  823MOL0     C10988   8.477  10.284   9.776  0.4004 -0.2129 -0.5966
  823MOL0     C10989   8.566  10.283   9.676  0.2704  0.6005  0.0071
  823MOL0     C10990   8.696  10.211   9.677  0.5866 -0.0461  0.2461
  823MOL0     C10991   8.815  10.301   9.713 -0.2762  0.0952  0.4377
  823MOL0     C10992   8.950  10.237   9.686  0.3122 -0.6438  0.4102
  823MOL0     C10993   8.974  10.114   9.765 -0.3157 -0.1255  0.3742
  823MOL0     O10994   8.975  10.147   9.906  0.0215 -0.6682 -0.2249
  823MOL0     C10995   9.091  10.178   9.958 -0.2987  0.7954  0.6787
  823MOL0     C10996   9.220  10.146   9.905 -0.4562  0.5011 -0.0806
  823MOL0     C10997   9.333  10.211   9.954 -0.9560  0.5843 -0.3927
  823MOL0     C10998   9.338  10.287  10.073 -0.7448  0.1109 -0.2503
  823MOL0     C10999   9.470  10.339  10.122 -0.2926 -0.2829 -0.0242
  823MOL0     O11000   9.590  10.298  10.059 -0.1954  0.1150  0.5660
  823MOL0     C11001   9.701  10.340  10.125 -0.4773  1.0267  0.3005
  823MOL0     C11002   9.761  10.467  10.092  0.2522  0.4544 -0.1759
  823MOL0     C11003   9.878  10.515  10.150  0.0454 -0.0670  0.7519
  823MOL0     C11004   9.938  10.430  10.240 -0.1975  0.4749 -0.0665
  823MOL0     O11005  10.049  10.469  10.303 -0.3991  0.0219 -0.2984
  823MOL0     C11006  10.165  10.389  10.267  0.0483 -0.4979  0.2818
  823MOL0     C11007  10.292  10.474  10.287  0.1674  0.4171  0.2507
  823MOL0     C11008  10.332  10.500  10.431  0.0915  0.4344 -0.6770
  823MOL0     C11009  10.413  10.386  10.489 -0.3255 -0.7628  0.6131
  823MOL0     C11010  10.479  10.426  10.621  0.8080 -0.7034 -0.0035
  823MOL0     C11011  10.387  10.486  10.736 -0.3154  0.5038  0.1965
  823MOL0     C11012  10.458  10.542  10.853  0.4595 -1.3910 -0.4935
  823MOL0     C11013  10.413  10.693  10.865  0.3643  0.0028 -0.1980
  823MOL0    Cl11014  10.514  10.786  10.751 -0.1312 -0.3559 -0.0562
  823MOL0     C11015   9.881  10.298  10.269 -1.1849  0.1133 -0.4852
  823MOL0     C11016   9.771  10.248  10.204 -0.7684  0.8112 -0.2939
  823MOL0     O11017   9.470  10.402  10.229  0.0156  0.3259  0.0224
  823MOL0     C11018   9.209  10.316  10.129  0.7721  0.9321 -0.0555
  823MOL0     C11019   9.090  10.264  10.070 -0.0876  0.3688 -0.9276
  823MOL0     N11020   8.516  10.340   9.562  0.0029 -1.0640 -0.7222
  823MOL0     N11021   8.402  10.383   9.598 -0.4379  0.1552 -0.1206
  823MOL0     C11022   7.305   9.881   9.640  0.2663 -0.3918 -0.1346
  823MOL0     C11023   7.186   9.920   9.582 -0.4220 -0.1718  0.1332
  823MOL0     C11024   6.827  10.150   9.477  0.0610 -0.1110  0.8948
  823MOL0     C11025   6.736  10.040   9.477  0.7909  0.3038 -0.4185
  823MOL0     C11026   6.610  10.058   9.418  0.5595  0.5878  0.2873
  823MOL0     C11027   6.572  10.171   9.341 -0.5540 -0.0768  0.0436
  823MOL0     O11028   6.443  10.182   9.291  0.6410  0.5003  0.0685
  823MOL0     C11029   6.390  10.071   9.214 -0.1968 -0.0287 -0.4070
  823MOL0     C11030   6.265  10.018   9.295  0.2794 -0.9313  0.4015
  823MOL0     C11031   6.160  10.127   9.324 -0.0732 -0.4931  0.3736
  823MOL0     C11032   6.063  10.087   9.422  0.4104 -0.3474 -0.2995
  823MOL0     C11033   6.106  10.069   9.562  0.3194  0.1061 -0.4211
  823MOL0     C11034   6.135  10.059   9.678  0.0954 -0.3591 -0.0813
  823MOL0     C11035   6.656  10.281   9.352 -1.0668  0.1271  0.3188
  823MOL0     C11036   6.781  10.269   9.414  0.6104 -1.2685 -0.1391
  823MOL0     C11037   6.865  10.397   9.400 -0.4008 -0.1409  0.5145
  823MOL0     H11038   7.047  10.100   9.834 -0.5638 -0.8493 -1.0389
  823MOL0     H11039   7.273  10.047   9.935  1.4514 -0.8966 -0.6645
  823MOL0     H11040   7.435   9.949  10.002 -0.0027 -0.6877  1.0328
  823MOL0     H11041   7.594   9.893   9.962 -1.1033  1.5816  3.0112
  823MOL0     H11042   7.556  10.160   9.982  0.7609  0.9006  0.1139
  823MOL0     H11043   7.480  10.136   9.826  2.1662  1.1903  0.5596
  823MOL0     H11044   7.667  10.108   9.718 -1.3306  1.6214 -0.1183
  823MOL0     H11045   7.745  10.012   9.831  4.6462  1.6039 -1.8150
  823MOL0     H11046   7.723  10.315   9.866 -1.3990 -1.3666  2.4472
  823MOL0     H11047   7.807  10.213   9.975 -1.0452  1.8875  1.0955
  823MOL0     H11048   7.946  10.122   9.766  0.9572  0.9564 -2.0199
  823MOL0     H11049   7.879  10.252   9.672 -0.5963 -0.8911 -1.0325
  823MOL0     H11050   7.988  10.423   9.828  0.1326  0.2636  0.5118
  823MOL0     H11051   8.029  10.295   9.941 -1.4252  0.6281 -0.7677
  823MOL0     H11052   8.108  10.328   9.638  3.6944 -2.1168 -1.8882
  823MOL0     H11053   8.162  10.194   9.740 -2.2158 -1.0771  2.1766
  823MOL0     H11054   8.233  10.494   9.773 -1.7658  0.0841  2.6559
  823MOL0     H11055   8.258  10.371   9.898 -2.6075 -0.4789  0.2245
  823MOL0     H11056   8.489  10.239   9.875  2.4902 -0.7137 -1.0218
  823MOL0     H11057   8.699  10.129   9.749  2.3700 -0.8068 -0.6181
  823MOL0     H11058   8.719  10.161   9.582 -1.4451 -2.0759  0.7557
  823MOL0     H11059   8.809  10.391   9.651 -1.1674  0.0259  0.4174
  823MOL0     H11060   8.807  10.341   9.815 -1.4134  0.4116  0.2313
  823MOL0     H11061   9.028  10.307   9.716  1.0589 -0.7903 -1.0741
  823MOL0     H11062   8.976  10.220   9.581  2.7659 -3.0395  1.2865
  823MOL0     H11063   9.067  10.068   9.728  0.7231  0.2410  2.3891
  823MOL0     H11064   8.893  10.041   9.757 -0.2387 -0.0985 -0.7683
  823MOL0     H11065   9.237  10.091   9.814 -0.5142  0.4916 -0.0854
  823MOL0     H11066   9.428  10.203   9.902  0.4239  4.4147  1.2022
  823MOL0     H11067   9.702  10.533  10.029 -2.6830 -0.7163  1.1406
  823MOL0     H11068   9.926  10.612  10.140 -1.0283  0.8853  3.8377
  823MOL0     H11069  10.166  10.292  10.316 -0.8942 -1.0506 -0.7449
  823MOL0     H11070  10.167  10.363  10.160 -1.4512 -1.0163  0.3590
  823MOL0     H11071  10.366  10.426  10.223  0.3213 -0.7049  1.2435
  823MOL0     H11072  10.274  10.570  10.238  0.5294  0.6112  0.4943
  823MOL0     H11073  10.395  10.589  10.435  3.1396 -1.5819 -0.5132
  823MOL0     H11074  10.244  10.511  10.496  0.0636  2.2445 -0.9760
  823MOL0     H11075  10.488  10.357  10.414 -0.9469 -2.1148  0.4967
  823MOL0     H11076  10.353  10.298  10.512  0.6996 -1.3313  1.1960
  823MOL0     H11077  10.547  10.508  10.596  1.1058 -1.0979 -0.5113
  823MOL0     H11078  10.540  10.345  10.660 -0.1316 -1.2753  0.3235
  823MOL0     H11079  10.338  10.568  10.681  1.6564  0.2590 -2.0766
  823MOL0     H11080  10.310  10.414  10.766 -0.3292  0.2552 -0.4265
  823MOL0     H11081  10.567  10.533  10.845  0.9984  1.0861  2.0482
  823MOL0     H11082  10.422  10.487  10.941 -1.2685 -1.3056 -1.1085
  823MOL0     H11083  10.307  10.711  10.846  0.6608  0.5602 -1.3970
  823MOL0     H11084  10.433  10.734  10.964 -1.1576  2.2588 -0.7617
  823MOL0     H11085   9.934  10.230  10.336  1.7149  2.4532 -0.1788
  823MOL0     H11086   9.735  10.147  10.225  1.1507  0.1981  0.2579
  823MOL0     H11087   9.190  10.379  10.215 -6.7816 -0.0627 -0.3453
  823MOL0     H11088   8.989  10.280  10.107 -0.3962  0.7540 -1.9006
  823MOL0     H11089   7.363   9.817   9.575  1.1785  2.0256 -1.8484
  823MOL0     H11090   7.159   9.888   9.482  1.0102  2.9165 -1.3707
  823MOL0     H11091   6.759   9.945   9.523 -4.1430 -0.9439  0.0153
  823MOL0     H11092   6.551   9.969   9.438  0.5548  0.8175  1.3896
  823MOL0     H11093   6.465   9.993   9.198  1.0336  0.9505  0.2941
  823MOL0     H11094   6.363  10.113   9.117 -1.2934  0.1119 -0.0472
  823MOL0     H11095   6.299   9.966   9.386  2.3893 -2.0852 -0.9629
  823MOL0     H11096   6.215   9.936   9.244  1.4401 -2.5337  1.7330
  823MOL0     H11097   6.102  10.148   9.233  1.1110 -1.7559 -0.7185
  823MOL0     H11098   6.209  10.218   9.357  0.5451 -0.7933  0.2999
  823MOL0     H11099   5.983  10.161   9.421  1.1016  0.4625  1.2003
  823MOL0     H11100   6.019   9.991   9.393 -0.6879  0.5025 -1.5821
  823MOL0     H11101   6.147  10.049   9.784 -3.3610 -4.7918  0.1694
  823MOL0     H11102   6.632  10.372   9.297  0.2877  1.3520  1.6426
  823MOL0     H11103   6.822  10.477   9.340 -2.5247 -1.2638  0.4814
  823MOL0     H11104   6.896  10.431   9.499  0.9885  0.3616 -0.0642
  823MOL0     H11105   6.956  10.365   9.347 -2.7279 -1.7754 -2.8227
  824MOL0     O11106   4.854   7.584  11.119  0.2186 -0.3057  0.7162
  824MOL0     C11107   4.799   7.691  11.101  0.0560  0.4791 -0.5818
  824MOL0     O11108   4.855   7.812  11.087 -0.1117 -0.2341  0.6116
  824MOL0     C11109   4.991   7.819  11.087  0.0221  0.4673  0.0129
  824MOL0     C11110   5.045   7.872  10.966  0.0786  0.7964  0.4458
  824MOL0     C11111   5.185   7.895  10.959 -0.4357 -0.3480  0.4727
  824MOL0     C11112   5.269   7.868  11.077  0.3529 -0.2209  0.3420
  824MOL0     O11113   5.401   7.905  11.065 -0.9700 -0.0662 -0.1827
  824MOL0     C11114   5.492   7.847  11.149 -0.6255 -0.0841 -0.2299
  824MOL0     C11115   5.552   7.954  11.244 -0.2685 -0.3306 -0.0476
  824MOL0     C11116   5.678   7.915  11.313 -0.1365  0.2319 -0.1750
  824MOL0     C11117   5.727   8.023  11.421 -0.4863  0.4861  0.9619
  824MOL0     C11118   5.847   7.963  11.491  0.7048 -0.7307  0.4292
  824MOL0     C11119   5.856   8.025  11.627 -1.0741 -0.0466 -0.0281
  824MOL0     C11120   5.947   7.935  11.714  0.6383  0.4838  0.2532
  824MOL0     C11121   5.995   8.014  11.839  0.2699 -0.1894 -0.3243
  824MOL0     N11122   5.874   8.030  11.930 -0.1136  0.4940  0.6737
  824MOL0     C11123   5.815   7.928  12.006 -0.3785  0.4955 -0.7274
  824MOL0     C11124   5.732   7.988  12.093  0.5602 -0.5796 -0.7235
  824MOL0     C11125   5.655   7.910  12.201  0.6393 -0.4424 -0.0565
  824MOL0     C11126   5.516   7.857  12.170 -0.1006 -0.5253  0.4591
  824MOL0     C11127   5.419   7.966  12.098  0.1267  0.3956 -0.6691
  824MOL0     C11128   5.268   7.949  12.113  0.6189  0.5299  0.3894
  824MOL0     O11129   5.233   7.820  12.067  0.3645 -0.1759  0.5318
  824MOL0     C11130   5.099   7.795  12.055 -0.3676  0.4564  0.2893
  824MOL0     C11131   5.075   7.669  12.019 -0.4627  0.1117 -0.4122
  824MOL0     C11132   4.953   7.629  11.993 -0.2606  0.2305 -0.2409
  824MOL0     C11133   4.845   7.718  12.000  0.2387  0.4096  0.3777
  824MOL0     C11134   4.706   7.677  11.973  1.7008 -0.7393 -1.5596
  824MOL0     O11135   4.617   7.697  12.071  0.0001 -0.3410  0.8341
  824MOL0     C11136   4.486   7.658  12.053  0.7161 -1.1991  0.2416
  824MOL0     C11137   4.408   7.664  11.929  0.1471 -0.0605 -0.3255
  824MOL0     C11138   4.274   7.622  11.935  0.0442 -0.5039 -0.1628
  824MOL0     C11139   4.223   7.575  12.053 -0.1942 -0.3594  0.0426
  824MOL0     O11140   4.092   7.530  12.040 -0.1997  0.3851 -0.7449
  824MOL0     C11141   4.027   7.471  12.158  0.1100  0.2893  1.0369
  824MOL0     C11142   3.981   7.571  12.276 -0.7323 -0.0310 -0.0382
  824MOL0     C11143   3.941   7.702  12.216  0.5155  0.2947  0.2023
  824MOL0     C11144   3.818   7.706  12.124 -0.1314 -0.6643  0.0648
  824MOL0     C11145   3.691   7.638  12.179  0.1483 -0.0469 -0.1253
  824MOL0     C11146   3.563   7.676  12.103 -0.2250 -0.1797  0.2771
  824MOL0     C11147   3.445   7.584  12.126 -0.1005 -0.1258  1.0098
  824MOL0     C11148   3.408   7.558  12.269  0.2950 -0.0358 -0.5032
  824MOL0    Cl11149   3.324   7.705  12.316  0.3034  0.3036  0.1218
  824MOL0     C11150   4.300   7.581  12.171  0.4322 -0.3261  0.4187
  824MOL0     C11151   4.426   7.628  12.167 -0.2188 -0.1347  0.0664
  824MOL0     O11152   4.685   7.620  11.870 -0.9158  0.5046 -0.0220
  824MOL0     C11153   4.867   7.850  12.042  0.9115  0.1531  0.0254
  824MOL0     C11154   4.992   7.891  12.063 -0.4097  0.4529 -0.3656
  824MOL0     N11155   5.732   8.125  12.069 -0.2437  0.1473  0.1194
  824MOL0     N11156   5.822   8.145  11.977 -0.6309 -0.0587 -0.5822
  824MOL0     C11157   5.214   7.802  11.183  0.4430  0.2462 -0.0103
  824MOL0     C11158   5.081   7.777  11.188  0.8892  0.1147  0.2641
  824MOL0     C11159   4.654   7.691  11.088 -0.6003 -0.8096 -0.7183
  824MOL0     C11160   4.596   7.816  11.080 -0.5362  0.2851 -0.5087
  824MOL0     C11161   4.456   7.827  11.080  0.0465 -0.2754 -0.3618
  824MOL0     C11162   4.367   7.714  11.080  0.4218  0.0426  0.1935
  824MOL0     O11163   4.232   7.731  11.076 -0.2339 -0.1500  0.3261
  824MOL0     C11164   4.146   7.643  11.143  0.2282 -0.9882 -0.2817
  824MOL0     C11165   4.006   7.695  11.149  0.7317 -0.2261 -0.6591
  824MOL0     C11166   3.926   7.693  11.019 -0.3804  0.9564 -0.2685
  824MOL0     C11167   3.995   7.764  10.902 -0.7519  0.0937  0.2726
  824MOL0     C11168   3.914   7.788  10.783 -0.7355  0.0126 -0.5071
  824MOL0     C11169   3.833   7.796  10.688  0.5140 -0.6013 -0.7961
  824MOL0     C11170   4.429   7.594  11.081 -0.1727 -0.0366  0.3539
  824MOL0     C11171   4.568   7.576  11.100 -0.8046 -0.5716  0.6017
  824MOL0     C11172   4.625   7.440  11.110  0.5874  0.1430 -0.1391
  824MOL0     H11173   4.975   7.905  10.891 -2.7571 -0.1272  2.5053
  824MOL0     H11174   5.221   7.935  10.865  0.4762 -1.8336  0.1672
  824MOL0     H11175   5.450   7.756  11.195  0.8262 -0.6417  0.0567
  824MOL0     H11176   5.573   7.803  11.091 -0.0519 -3.0565  2.5092
  824MOL0     H11177   5.482   8.003  11.312  1.0273  3.5097 -1.2552
  824MOL0     H11178   5.582   8.037  11.180  0.1929 -1.1140 -0.8559
  824MOL0     H11179   5.759   7.899  11.240  0.6235 -0.9968  0.8824
  824MOL0     H11180   5.651   7.819  11.357  0.2967  0.0309 -0.3359
  824MOL0     H11181   5.750   8.122  11.379  0.1297 -1.1028 -2.9456
  824MOL0     H11182   5.643   8.033  11.490 -1.5736  2.0751 -0.4921
  824MOL0     H11183   5.849   7.854  11.500  1.2503 -0.6441  1.5155
  824MOL0     H11184   5.940   7.976  11.434 -0.1432 -1.2787 -1.1299
  824MOL0     H11185   5.893   8.127  11.616  0.0904 -0.0341  2.9408
  824MOL0     H11186   5.758   8.023  11.675 -1.1126 -0.5603 -0.1206
  824MOL0     H11187   6.036   7.908  11.656 -0.9984  0.6884 -2.5135
  824MOL0     H11188   5.899   7.839  11.735  0.2582  0.9255  1.4948
  824MOL0     H11189   6.059   7.934  11.877  1.9233 -0.2982 -3.0231
  824MOL0     H11190   6.055   8.104  11.823  0.5475 -0.2259  0.4998
  824MOL0     H11191   5.845   7.824  12.004 -0.1316  0.5617 -0.4394
  824MOL0     H11192   5.732   7.837  12.228  1.4898 -0.4282 -2.2630
  824MOL0     H11193   5.647   7.980  12.285  1.4473  0.6172 -0.8299
  824MOL0     H11194   5.528   7.781  12.091  1.5830  1.7986 -1.6809
  824MOL0     H11195   5.468   7.818  12.260  0.8452 -1.9342  0.3922
  824MOL0     H11196   5.442   7.980  11.992 -1.4319  1.2646 -0.9243
  824MOL0     H11197   5.456   8.055  12.151  2.4673 -1.7672  1.5965
  824MOL0     H11198   5.214   8.033  12.068 -0.2880  0.9153  2.1206
  824MOL0     H11199   5.257   7.945  12.222  2.1116  0.7373  0.5670
  824MOL0     H11200   5.163   7.608  12.002 -0.4325 -0.1756  0.6823
  824MOL0     H11201   4.942   7.527  11.956 -0.1121  0.8288 -1.9933
  824MOL0     H11202   4.461   7.701  11.842 -1.0543  0.0826 -1.0151
  824MOL0     H11203   4.210   7.619  11.847  2.5571  1.4093 -2.2142
  824MOL0     H11204   3.928   7.443  12.122 -0.4190  2.7755  0.3747
  824MOL0     H11205   4.078   7.379  12.187 -2.7099 -1.9445 -0.5803
  824MOL0     H11206   3.900   7.531  12.338 -2.9739  1.2945 -1.9415
  824MOL0     H11207   4.065   7.601  12.339 -1.1938 -1.0809  1.1291
  824MOL0     H11208   3.930   7.773  12.298  0.2410  2.2526 -1.4445
  824MOL0     H11209   4.025   7.748  12.164 -0.9704  0.2094 -2.5055
  824MOL0     H11210   3.846   7.660  12.028  1.4030  1.4640 -0.5867
  824MOL0     H11211   3.801   7.812  12.102  0.2733 -0.4827  0.6174
  824MOL0     H11212   3.684   7.679  12.279 -1.5166  0.6035 -0.4785
  824MOL0     H11213   3.722   7.533  12.176  4.5334  1.0584 -0.9174
  824MOL0     H11214   3.543   7.783  12.114  0.3151  0.0139 -0.5619
  824MOL0     H11215   3.579   7.669  11.995  0.2400  1.3320  0.2196
  824MOL0     H11216   3.462   7.486  12.080 -0.7161 -0.5931  1.7661
  824MOL0     H11217   3.354   7.626  12.082 -0.4930  0.1809  2.0847
  824MOL0     H11218   3.350   7.466  12.270 -1.8841  1.2852 -0.4340
  824MOL0     H11219   3.489   7.543  12.342 -1.4107 -2.6043  1.0045
  824MOL0     H11220   4.250   7.549  12.262 -1.5400  0.7346 -0.2229
  824MOL0     H11221   4.493   7.640  12.251 -1.7216  1.7168  1.0722
  824MOL0     H11222   4.785   7.918  12.060  2.6223  3.8694 -4.2840
  824MOL0     H11223   5.006   7.994  12.092 -3.4106  0.7221  0.4881
  824MOL0     H11224   5.261   7.752  11.267 -0.2688 -0.4242 -0.0049
  824MOL0     H11225   5.038   7.735  11.277 -1.1009  0.6711 -0.3883
  824MOL0     H11226   4.643   7.914  11.086 -0.8135  0.3629  0.8138
  824MOL0     H11227   4.402   7.921  11.089 -0.6904 -0.5674 -1.4201
  824MOL0     H11228   4.182   7.614  11.242  2.9162  0.0376 -0.8743
  824MOL0     H11229   4.144   7.549  11.086  1.9502 -1.0295 -0.3327
  824MOL0     H11230   4.000   7.803  11.170 -0.3608 -0.0861 -1.6255
  824MOL0     H11231   3.946   7.652  11.230  1.3381 -0.6735 -0.4351
  824MOL0     H11232   3.835   7.742  11.054  0.6691  2.2576  0.7510
  824MOL0     H11233   3.887   7.595  10.991  0.0742  0.6198  0.2310
  824MOL0     H11234   4.038   7.857  10.942 -0.2215  0.7371 -1.6726
  824MOL0     H11235   4.079   7.703  10.868 -1.5117 -1.6399  1.3816
  824MOL0     H11236   3.758   7.810  10.613 -1.7541 -3.5197  0.7433
  824MOL0     H11237   4.367   7.505  11.086  0.7627 -0.8212 -1.2010
  824MOL0     H11238   4.680   7.405  11.022  0.2967  1.5388 -0.8898
  824MOL0     H11239   4.673   7.420  11.206  1.5700 -0.8581 -0.8085
  824MOL0     H11240   4.538   7.374  11.104  0.8227 -0.0659 -4.5463
  825MOL0     O11241   2.655   5.882   1.739 -0.6167  0.0163  0.0108
  825MOL0     C11242   2.570   5.957   1.770 -0.6453  0.6211 -0.0525
  825MOL0     O11243   2.584   6.059   1.870 -0.7615  0.7496 -0.4212
  825MOL0     C11244   2.716   6.079   1.910  0.3817 -0.9451  0.9100
  825MOL0     C11245   2.827   6.104   1.818  0.0694 -0.1197 -0.6676
  825MOL0     C11246   2.961   6.107   1.868  0.2950  0.3526  0.7591
  825MOL0     C11247   2.984   6.104   2.007 -0.0379 -0.0295  0.3801
  825MOL0     O11248   3.112   6.114   2.065 -0.3413 -0.5602  0.7656
  825MOL0     C11249   3.231   6.103   1.984  1.0782  0.6889  0.0830
  825MOL0     C11250   3.267   6.241   1.926 -0.0430  0.4096 -0.2578
  825MOL0     C11251   3.379   6.230   1.826 -0.4623 -0.9693 -0.1878
  825MOL0     C11252   3.433   6.374   1.790  0.2311  0.4936 -0.0105
  825MOL0     C11253   3.371   6.440   1.662 -0.5914 -0.1685 -1.3071
  825MOL0     C11254   3.455   6.565   1.634  0.4505 -0.3267 -0.0482
  825MOL0     C11255   3.385   6.661   1.534  0.8042  0.2674  0.0513
  825MOL0     C11256   3.437   6.807   1.537  0.0091  0.0056  0.6728
  825MOL0     N11257   3.558   6.823   1.457 -0.0678 -0.2327 -0.1181
  825MOL0     C11258   3.684   6.784   1.496  0.8221 -0.1055  0.0497
  825MOL0     C11259   3.762   6.826   1.388 -1.1314  0.3250 -0.3753
  825MOL0     C11260   3.906   6.794   1.361 -0.5834  0.2686  1.7060
  825MOL0     C11261   3.969   6.679   1.449  0.7710 -0.1098  0.8945
  825MOL0     C11262   3.993   6.736   1.588 -0.0577 -0.9972 -0.5117
  825MOL0     C11263   4.145   6.763   1.612  0.3865 -0.1140 -0.7492
  825MOL0     O11264   4.167   6.838   1.734 -0.2532 -0.4038 -0.0962
  825MOL0     C11265   4.298   6.868   1.755  0.1308  0.7096  0.9297
  825MOL0     C11266   4.326   6.953   1.869  0.0652  1.0516  0.3558
  825MOL0     C11267   4.457   6.979   1.902 -0.0905  0.2153  0.1743
  825MOL0     C11268   4.572   6.937   1.831  0.2033  0.2877 -0.1017
  825MOL0     C11269   4.709   6.979   1.861 -1.0249 -0.2951 -1.0042
  825MOL0     O11270   4.738   7.069   1.962  0.3529  0.3421 -0.4513
  825MOL0     C11271   4.865   7.111   2.000 -0.0853  0.9942  1.1120
  825MOL0     C11272   4.914   7.119   2.128 -0.5126  1.1979  0.4691
  825MOL0     C11273   5.036   7.166   2.161 -1.1329  0.3172  0.4932
  825MOL0     C11274   5.124   7.209   2.058  0.0338  0.3033 -0.7964
  825MOL0     O11275   5.248   7.267   2.071 -0.5316 -0.1970 -0.1029
  825MOL0     C11276   5.306   7.287   2.202  0.0088  0.3426  0.1666
  825MOL0     C11277   5.456   7.309   2.186 -0.0078  0.3507  0.2539
  825MOL0     C11278   5.542   7.277   2.320 -0.1420  0.2855 -0.5041
  825MOL0     C11279   5.680   7.219   2.301  0.3047 -0.4184 -0.1932
  825MOL0     C11280   5.767   7.302   2.199  0.1205 -0.2288  0.2719
  825MOL0     C11281   5.917   7.266   2.212  0.2010 -0.2457  1.0264
  825MOL0     C11282   5.994   7.298   2.088 -0.1106 -0.2831  0.3920
  825MOL0     C11283   6.149   7.287   2.108  1.0073 -0.8408 -0.1192
  825MOL0    Cl11284   6.191   7.394   2.239 -0.4316 -0.4911 -0.4646
  825MOL0     C11285   5.080   7.209   1.927  1.3683  0.1946 -0.1462
  825MOL0     C11286   4.947   7.167   1.896  0.3731 -0.1370 -0.7415
  825MOL0     O11287   4.800   6.936   1.788  0.0056  0.1822  0.4896
  825MOL0     C11288   4.544   6.866   1.715  0.4280  1.0343  1.1231
  825MOL0     C11289   4.412   6.821   1.678  0.8595 -0.3694 -0.3268
  825MOL0     N11290   3.687   6.902   1.304  0.0375 -0.7230 -0.0455
  825MOL0     N11291   3.567   6.913   1.350 -0.1455  0.6906  0.1863
  825MOL0     C11292   2.873   6.097   2.090 -0.2150  0.4167 -0.0139
  825MOL0     C11293   2.742   6.085   2.052  0.6292 -1.2244  0.4040
  825MOL0     C11294   2.432   5.928   1.718  0.0371 -0.4124 -0.5141
  825MOL0     C11295   2.409   5.808   1.651  0.3646 -0.8597  0.0980
  825MOL0     C11296   2.290   5.786   1.587  0.5875 -0.2489  0.0318
  825MOL0     C11297   2.179   5.875   1.601 -0.2565  0.5057 -1.3127
  825MOL0     O11298   2.068   5.854   1.524  0.6012  0.7583 -0.0707
  825MOL0     C11299   1.945   5.930   1.561 -0.0909  0.0460  0.2652
  825MOL0     C11300   1.883   5.904   1.695 -0.2004  0.7676 -0.1179
  825MOL0     C11301   1.861   5.747   1.720 -0.1382 -0.9085  0.7747
  825MOL0     C11302   1.736   5.691   1.642  0.8101  0.2668 -0.2581
  825MOL0     C11303   1.606   5.765   1.667 -0.0904 -0.1947  0.7604
  825MOL0     C11304   1.492   5.811   1.665  0.2299  0.7386  0.7023
  825MOL0     C11305   2.198   5.993   1.682  0.3319  0.7407 -0.0249
  825MOL0     C11306   2.325   6.022   1.733  0.4546  0.0935 -0.2332
  825MOL0     C11307   2.338   6.158   1.801 -0.2608  0.0863  0.1032
  825MOL0     H11308   2.814   6.114   1.711  2.3383  2.7462 -0.8220
  825MOL0     H11309   3.043   6.107   1.797 -0.5784  0.9947 -0.2849
  825MOL0     H11310   3.314   6.062   2.043 -0.3061 -3.6090 -0.5853
  825MOL0     H11311   3.225   6.028   1.904  1.7816  1.0082 -0.2785
  825MOL0     H11312   3.296   6.311   2.005 -1.0674  0.8639 -0.2693
  825MOL0     H11313   3.182   6.301   1.892 -0.6285 -0.4872 -0.4225
  825MOL0     H11314   3.342   6.181   1.735 -0.4951  0.5603 -1.0296
  825MOL0     H11315   3.466   6.182   1.872  0.6726  1.3068  0.2058
  825MOL0     H11316   3.431   6.443   1.876 -2.4135  4.1025 -2.6433
  825MOL0     H11317   3.536   6.357   1.757  0.1119  1.9353 -1.2592
  825MOL0     H11318   3.378   6.363   1.585 -4.4015 -0.8220 -1.2134
  825MOL0     H11319   3.265   6.460   1.681 -1.3672 -3.2863 -1.8395
  825MOL0     H11320   3.469   6.626   1.723 -1.1688  1.6384 -1.0709
  825MOL0     H11321   3.554   6.537   1.596  0.1194 -0.7028 -0.6585
  825MOL0     H11322   3.284   6.659   1.578  1.5020 -2.1722  1.7748
  825MOL0     H11323   3.380   6.618   1.434  4.3006 -2.5273  0.8623
  825MOL0     H11324   3.361   6.879   1.504  0.2350 -0.0676 -0.0327
  825MOL0     H11325   3.468   6.832   1.638 -0.8510  1.5546  0.5771
  825MOL0     H11326   3.714   6.719   1.578 -0.7621 -0.6130  0.2659
  825MOL0     H11327   3.903   6.760   1.257 -2.2643 -1.9002  2.3692
  825MOL0     H11328   3.967   6.885   1.357 -2.6840  1.7736 -2.8378
  825MOL0     H11329   3.895   6.598   1.454 -0.4599  0.9800  0.8020
  825MOL0     H11330   4.065   6.640   1.412  1.7146  0.4161  2.7030
  825MOL0     H11331   3.960   6.662   1.662  0.0659 -0.6758 -0.1375
  825MOL0     H11332   3.943   6.833   1.595  0.2731 -0.8066 -0.7620
  825MOL0     H11333   4.194   6.823   1.534 -1.8167  2.3426 -0.3770
  825MOL0     H11334   4.196   6.666   1.611  1.9036  0.6475  0.3450
  825MOL0     H11335   4.241   6.980   1.931 -0.6473 -0.8612  0.2645
  825MOL0     H11336   4.468   7.040   1.992 -0.6277 -0.3872  0.6543
  825MOL0     H11337   4.846   7.074   2.200  1.6380 -2.1140  0.6263
  825MOL0     H11338   5.081   7.174   2.259  0.1525 -0.6006  0.0129
  825MOL0     H11339   5.266   7.378   2.246 -0.3290  1.2546 -1.9016
  825MOL0     H11340   5.288   7.201   2.267  0.8805 -0.1979 -0.2833
  825MOL0     H11341   5.489   7.240   2.107 -1.6562  0.1473 -0.2869
  825MOL0     H11342   5.474   7.409   2.147  1.6707  0.8280  2.0648
  825MOL0     H11343   5.554   7.371   2.374 -1.8615  1.1226 -1.5004
  825MOL0     H11344   5.488   7.201   2.376  1.1862 -1.6256 -1.6766
  825MOL0     H11345   5.673   7.121   2.252 -0.2048 -1.4727  1.8761
  825MOL0     H11346   5.736   7.211   2.395  1.6997  4.4764 -0.3680
  825MOL0     H11347   5.757   7.407   2.227  0.4426 -0.1336  0.0405
  825MOL0     H11348   5.714   7.275   2.107  1.3018 -3.4836  0.4345
  825MOL0     H11349   5.949   7.333   2.292 -1.8309  0.8240  1.0423
  825MOL0     H11350   5.934   7.161   2.235  2.3101 -0.3879 -0.8672
  825MOL0     H11351   5.965   7.398   2.054  1.8060  0.0647 -0.3535
  825MOL0     H11352   5.971   7.222   2.012  1.9059 -1.0651  0.5048
  825MOL0     H11353   6.171   7.182   2.127  0.1185 -1.3531 -1.7507
  825MOL0     H11354   6.197   7.328   2.019 -2.3959 -0.4988 -1.9740
  825MOL0     H11355   5.142   7.241   1.844  0.8956  0.4707 -0.3987
  825MOL0     H11356   4.904   7.161   1.796  0.9735 -1.7673 -0.9319
  825MOL0     H11357   4.622   6.833   1.647 -2.9514 -1.7816 -1.8039
  825MOL0     H11358   4.394   6.752   1.597 -1.3083 -0.4359  0.1337
  825MOL0     H11359   2.882   6.109   2.198  1.9494  1.1154 -0.2408
  825MOL0     H11360   2.656   6.082   2.118 -0.9523 -2.6030 -1.5713
  825MOL0     H11361   2.482   5.729   1.633 -0.8007 -1.2998 -3.5796
  825MOL0     H11362   2.277   5.697   1.527  0.4727 -0.8766  0.9593
  825MOL0     H11363   1.876   5.908   1.479 -1.3389  0.1338  1.2559
  825MOL0     H11364   1.967   6.035   1.539  0.0510  0.3958  1.9383
  825MOL0     H11365   1.802   5.976   1.712 -1.4573  0.2889 -3.3455
  825MOL0     H11366   1.955   5.925   1.775  1.3721 -0.9622 -1.0061
  825MOL0     H11367   1.842   5.735   1.827  2.5451 -0.2649  1.4052
  825MOL0     H11368   1.938   5.678   1.685 -2.0923 -3.3109  0.9640
  825MOL0     H11369   1.762   5.684   1.536 -1.2718 -0.9038 -0.7379
  825MOL0     H11370   1.728   5.590   1.683  1.3885  1.3214  2.6899
  825MOL0     H11371   1.395   5.858   1.668  0.2298  1.1980 -2.6709
  825MOL0     H11372   2.112   6.057   1.695  0.4484  0.6157  1.4796
  825MOL0     H11373   2.364   6.149   1.907  1.3125  2.6487  0.0081
  825MOL0     H11374   2.419   6.207   1.746  0.3788 -0.6140  0.4026
  825MOL0     H11375   2.246   6.218   1.800  0.2346  0.8738  0.7061
  826MOL0     O11376  10.855   9.549  10.993 -1.0029 -0.3216  0.3455
  826MOL0     C11377  10.807   9.476  11.078 -0.6813 -0.1108 -0.6560
  826MOL0     O11378  10.873   9.372  11.140 -0.3732  1.0244  0.1822
  826MOL0     C11379  11.003   9.346  11.112 -0.2276 -1.6106 -0.0583
  826MOL0     C11380  11.113   9.445  11.124 -1.3828 -0.4687 -0.1360
  826MOL0     C11381  11.248   9.397  11.100 -0.0860  0.0758 -0.9627
  826MOL0     C11382  11.266   9.271  11.044 -0.7211  0.1440 -0.5098
  826MOL0     O11383  11.395   9.241  11.031  0.0242  0.2105  0.6063
  826MOL0     C11384  11.445   9.235  10.894 -0.6774 -0.1671  0.2080
  826MOL0     C11385  11.557   9.345  10.871 -0.4103  0.3563  0.5195
  826MOL0     C11386  11.665   9.350  10.976  0.3718  0.4702 -0.1202
  826MOL0     C11387  11.746   9.477  10.947 -0.1524 -0.0713 -0.3053
  826MOL0     C11388  11.878   9.479  11.020 -0.4455  0.4491  0.2712
  826MOL0     C11389  11.979   9.389  10.948 -0.4063  0.0910 -0.2349
  826MOL0     C11390  12.121   9.448  10.944  0.8316 -0.5973  0.1620
  826MOL0     C11391  12.213   9.365  10.858 -0.5359  0.2570 -0.0131
  826MOL0     N11392  12.346   9.426  10.850  0.3942 -0.1679  0.0255
  826MOL0     C11393  12.374   9.516  10.755  0.7061 -0.0528  0.5176
  826MOL0     C11394  12.478   9.581  10.794 -0.2908 -1.3850 -0.6596
  826MOL0     C11395  12.547   9.682  10.717  0.8629  0.9503  0.2013
  826MOL0     C11396  12.697   9.687  10.759 -0.1406 -0.0678  0.0012
  826MOL0     C11397  12.758   9.805  10.677 -0.2977  0.3537  0.4053
  826MOL0     C11398  12.910   9.831  10.683  1.4837 -0.5112  0.3708
  826MOL0     O11399  12.954   9.902  10.563  0.0160  0.1398  0.3446
  826MOL0     C11400  13.086   9.937  10.563 -0.0410 -0.0682  0.8452
  826MOL0     C11401  13.178   9.906  10.661 -0.3760  0.1377 -0.2020
  826MOL0     C11402  13.312   9.947  10.647  0.4202 -0.1821 -0.8703
  826MOL0     C11403  13.358  10.010  10.531  0.5313 -1.0863  0.0507
  826MOL0     C11404  13.500  10.061  10.520  0.1117  0.5458 -1.3647
  826MOL0     O11405  13.580  10.031  10.632  0.4658  0.4996  0.1609
  826MOL0     C11406  13.723  10.058  10.622  0.2347  0.0955  1.3740
  826MOL0     C11407  13.813   9.953  10.649  0.2036  0.5478 -0.5153
  826MOL0     C11408  13.950   9.975  10.628 -0.6796  0.3522 -0.0224
  826MOL0     C11409  14.003  10.095  10.591  1.1335  0.0245 -0.4826
  826MOL0     O11410  14.137  10.122  10.590  0.5580 -0.7372  0.2105
  826MOL0     C11411  14.237  10.023  10.568 -0.2839  0.1662  0.5654
  826MOL0     C11412  14.368  10.112  10.556 -0.4805 -0.6212 -0.9429
  826MOL0     C11413  14.505  10.047  10.544  0.1108  0.5616 -0.1916
  826MOL0     C11414  14.599  10.157  10.488  0.1704 -0.3205 -0.0743
  826MOL0     C11415  14.724  10.095  10.429 -0.5568 -0.7525  0.6571
  826MOL0     C11416  14.812  10.013  10.525 -0.6789 -0.6663 -0.2232
  826MOL0     C11417  14.913   9.933  10.450 -0.1387 -0.3077 -0.0966
  826MOL0     C11418  14.991   9.851  10.555 -0.8037 -0.1004 -0.5124
  826MOL0    Cl11419  15.151   9.785  10.485 -0.0213  0.4081  0.1835
  826MOL0     C11420  13.919  10.204  10.562 -0.1444  1.1352 -0.5038
  826MOL0     C11421  13.777  10.183  10.574 -1.0337 -1.0106 -0.6824
  826MOL0     O11422  13.538  10.124  10.420  0.2199  0.0702  0.1552
  826MOL0     C11423  13.275  10.044  10.429  0.6684  1.0222 -0.6702
  826MOL0     C11424  13.139  10.002  10.445 -1.2172  0.1677 -0.5703
  826MOL0     N11425  12.511   9.553  10.923  0.3690  0.0297  0.4107
  826MOL0     N11426  12.428   9.459  10.957  0.1446  0.7478  0.3031
  826MOL0     C11427  11.164   9.183  11.019  0.6796  0.0427 -0.2666
  826MOL0     C11428  11.031   9.225  11.058 -0.2366  0.3141  0.4745
  826MOL0     C11429  10.670   9.492  11.112  0.8129 -0.2153 -0.2777
  826MOL0     C11430  10.646   9.468  11.248  0.4811  0.5124 -0.4534
  826MOL0     C11431  10.519   9.480  11.298  0.1634 -0.8402  0.4882
  826MOL0     C11432  10.404   9.506  11.219 -0.4077 -1.1771 -0.1380
  826MOL0     O11433  10.285   9.521  11.290 -0.3093 -0.2943  0.3197
  826MOL0     C11434  10.161   9.518  11.210  0.9961  0.1834  0.3180
  826MOL0     C11435  10.047   9.431  11.275  0.0638 -0.0879  0.6424
  826MOL0     C11436  10.088   9.279  11.272  0.3469  0.3297  0.5997
  826MOL0     C11437   9.976   9.192  11.305 -0.1152 -0.3613  0.2652
  826MOL0     C11438   9.914   9.223  11.435 -0.2812 -0.0489 -0.0771
  826MOL0     C11439   9.852   9.261  11.535 -0.4819 -0.0088 -1.0713
  826MOL0     C11440  10.431   9.532  11.083 -0.5135  0.5692  0.0820
  826MOL0     C11441  10.566   9.526  11.029 -0.0952  0.7638  0.4437
  826MOL0     C11442  10.578   9.523  10.875  0.2913  1.5018 -0.7368
  826MOL0     H11443  11.088   9.543  11.163 -4.1271 -0.5490 -1.5085
  826MOL0     H11444  11.339   9.453  11.116  0.5631 -1.3868  0.7325
  826MOL0     H11445  11.481   9.133  10.874  0.2895 -0.3183  2.4639
  826MOL0     H11446  11.363   9.261  10.826 -1.4759 -1.4010  0.6713
  826MOL0     H11447  11.519   9.447  10.859  0.6041  0.5264 -1.6498
  826MOL0     H11448  11.605   9.327  10.775 -3.5788 -2.1353 -0.7523
  826MOL0     H11449  11.734   9.266  10.963  2.0464  1.5110  1.5404
  826MOL0     H11450  11.623   9.354  11.077  1.6783  1.1090  0.4235
  826MOL0     H11451  11.753   9.482  10.838  0.8341 -0.3003 -0.2625
  826MOL0     H11452  11.696   9.560  10.997 -0.4228 -1.6050  2.1124
  826MOL0     H11453  11.917   9.581  11.009 -1.7995  0.9264 -0.3071
  826MOL0     H11454  11.878   9.457  11.127  1.2649  0.5500  0.3226
  826MOL0     H11455  11.980   9.294  11.002  2.6507 -1.6971 -3.0555
  826MOL0     H11456  11.942   9.367  10.847 -0.5144 -1.3084  0.0894
  826MOL0     H11457  12.155   9.456  11.047  0.3883  0.9938  0.2189
  826MOL0     H11458  12.098   9.548  10.906 -3.2603 -0.0690  3.3377
  826MOL0     H11459  12.225   9.268  10.907  0.2394 -0.0336 -0.7593
  826MOL0     H11460  12.176   9.349  10.757 -2.7570 -0.0468  0.7904
  826MOL0     H11461  12.331   9.529  10.657  1.3496  1.2777  0.3913
  826MOL0     H11462  12.542   9.649  10.613  1.1429 -1.4557  0.8738
  826MOL0     H11463  12.496   9.777  10.733  0.5178  0.4847  2.1594
  826MOL0     H11464  12.696   9.696  10.868 -4.7073 -0.2688  0.1849
  826MOL0     H11465  12.751   9.596  10.732 -1.0096 -0.1081 -1.7587
  826MOL0     H11466  12.705   9.898  10.696 -0.6930  0.1749  0.1973
  826MOL0     H11467  12.730   9.786  10.573 -3.5062 -0.3998  1.2874
  826MOL0     H11468  12.959   9.735  10.703 -0.9027 -1.2593  3.2711
  826MOL0     H11469  12.933   9.897  10.767  1.8242 -0.2341  0.0708
  826MOL0     H11470  13.142   9.862  10.753  0.6830 -0.4720 -0.0622
  826MOL0     H11471  13.391   9.921  10.717 -0.1849 -1.0045 -0.4721
  826MOL0     H11472  13.790   9.856  10.692  1.8457  1.0644  1.7271
  826MOL0     H11473  14.017   9.895  10.658  0.7159  0.6053 -2.2549
  826MOL0     H11474  14.242   9.968  10.662 -2.1205 -0.2533  0.4423
  826MOL0     H11475  14.217   9.959  10.482  3.1194 -1.0182  0.4968
  826MOL0     H11476  14.352  10.177  10.470  1.0140 -1.8401 -2.2111
  826MOL0     H11477  14.364  10.172  10.648 -4.0314 -1.2757 -0.4946
  826MOL0     H11478  14.539  10.018  10.644 -0.2622  0.7337 -0.0149
  826MOL0     H11479  14.497   9.964  10.474 -1.7751  0.7337 -0.2224
  826MOL0     H11480  14.623  10.237  10.558  0.1445  2.4904 -3.0735
  826MOL0     H11481  14.547  10.207  10.406 -1.1078 -1.3105  0.0865
  826MOL0     H11482  14.778  10.181  10.388 -2.8464 -0.2750 -1.6171
  826MOL0     H11483  14.694  10.050  10.334 -1.8104 -0.6496  0.9895
  826MOL0     H11484  14.866  10.085  10.587  1.0850 -1.1772 -1.0968
  826MOL0     H11485  14.757   9.938  10.582  1.0793 -3.0290 -1.4558
  826MOL0     H11486  14.982   9.999  10.397  0.4255 -1.8065 -1.3032
  826MOL0     H11487  14.865   9.866  10.378 -0.4007  1.3215 -1.5060
  826MOL0     H11488  15.027   9.919  10.632 -0.9084  1.3969 -1.7403
  826MOL0     H11489  14.932   9.767  10.594  0.9309 -0.5926  1.2053
  826MOL0     H11490  13.964  10.293  10.521  0.8896  0.7232 -0.2869
  826MOL0     H11491  13.710  10.266  10.556  0.7895  0.6024 -0.4546
  826MOL0     H11492  13.299  10.104  10.342 -0.5864  3.9563  0.8585
  826MOL0     H11493  13.074  10.016  10.359 -3.0704 -2.7868  0.1610
  826MOL0     H11494  11.173   9.077  11.000 -1.8980 -0.6391  1.7157
  826MOL0     H11495  10.952   9.152  11.047 -0.6346  0.5414  1.6557
  826MOL0     H11496  10.726   9.444  11.318  1.4117  0.4935 -1.4964
  826MOL0     H11497  10.491   9.466  11.402  0.0823  1.7229  0.8651
  826MOL0     H11498  10.173   9.473  11.112 -1.4594  0.8570 -0.3793
  826MOL0     H11499  10.125   9.621  11.199 -0.9456 -0.5246 -0.5185
  826MOL0     H11500   9.954   9.454  11.222  0.1749 -0.4946  0.2613
  826MOL0     H11501  10.020   9.467  11.375 -1.1017  3.9934 -0.9472
  826MOL0     H11502  10.171   9.254  11.339  0.2882  1.3007  1.0395
  826MOL0     H11503  10.117   9.257  11.169  0.8344 -0.2750  0.8513
  826MOL0     H11504   9.896   9.200  11.231  0.1064  1.2844  0.1870
  826MOL0     H11505  10.017   9.090  11.309  1.1933  0.1520  0.6512
  826MOL0     H11506   9.800   9.302  11.620 -0.1295 -0.6527 -0.5416
  826MOL0     H11507  10.346   9.533  11.015 -1.1789  0.0573  0.8787
  826MOL0     H11508  10.647   9.604  10.852 -0.6514  3.3465  2.3435
  826MOL0     H11509  10.604   9.420  10.848 -3.8267 -1.4178  4.3837
  826MOL0     H11510  10.483   9.553  10.830 -0.3019  1.2105  0.2921
  827MOL0     O11511   9.269   5.913   8.252  0.1861 -0.2959  0.4690
  827MOL0     C11512   9.232   5.856   8.359  0.2122  0.0862  0.2716
  827MOL0     O11513   9.315   5.769   8.439  0.5474 -0.4331  0.3901
  827MOL0     C11514   9.445   5.764   8.425 -0.2510 -0.1470  0.5950
  827MOL0     C11515   9.515   5.790   8.538 -0.4809  0.2357  0.2902
  827MOL0     C11516   9.657   5.780   8.533 -1.0208  0.3496  0.3347
  827MOL0     C11517   9.727   5.742   8.412 -0.1595  0.2570 -1.0076
  827MOL0     O11518   9.862   5.723   8.412 -0.3596 -0.1160 -0.0896
  827MOL0     C11519   9.932   5.804   8.314 -0.2856  1.5775 -0.6984
  827MOL0     C11520  10.077   5.762   8.324 -1.1205  0.5960 -1.0026
  827MOL0     C11521  10.163   5.826   8.219  0.4117 -0.1654 -0.4795
  827MOL0     C11522  10.311   5.833   8.247  0.5737  0.0454 -1.4429
  827MOL0     C11523  10.392   5.908   8.145 -0.1183 -0.4292 -0.0571
  827MOL0     C11524  10.414   5.819   8.021  0.4380  0.2135  0.7841
  827MOL0     C11525  10.507   5.871   7.908  0.1349 -0.5981  0.5329
  827MOL0     C11526  10.646   5.895   7.964  0.5960 -0.9261 -0.1044
  827MOL0     N11527  10.751   5.940   7.869 -0.3265 -0.2307  0.1054
  827MOL0     C11528  10.795   5.871   7.755  0.3349  0.1363 -0.9223
  827MOL0     C11529  10.885   5.959   7.701 -0.3325  0.3640  0.9871
  827MOL0     C11530  10.932   5.928   7.564  0.0108  0.6502 -0.3931
  827MOL0     C11531  11.075   5.878   7.552  1.3480 -1.1583 -0.3456
  827MOL0     C11532  11.125   5.867   7.406 -0.5000 -0.0255  0.4171
  827MOL0     C11533  11.262   5.802   7.405 -0.4722 -0.2890 -0.2756
  827MOL0     O11534  11.300   5.755   7.271  0.1419 -0.0469 -0.2097
  827MOL0     C11535  11.389   5.657   7.251 -0.1985 -0.4105  0.4739
  827MOL0     C11536  11.486   5.618   7.346 -0.0862  0.3802  0.1121
  827MOL0     C11537  11.588   5.530   7.309  0.3093  0.0545 -0.1102
  827MOL0     C11538  11.593   5.480   7.180  0.8041  0.1823  0.3695
  827MOL0     C11539  11.703   5.392   7.134  0.8409 -0.5252  1.0181
  827MOL0     O11540  11.792   5.339   7.218 -0.3605 -0.4746  0.0977
  827MOL0     C11541  11.881   5.260   7.153  0.5689  0.1695 -0.1952
  827MOL0     C11542  12.010   5.311   7.114  0.5934  0.6565 -0.3363
  827MOL0     C11543  12.110   5.223   7.076 -0.6831  0.2813  0.2218
  827MOL0     C11544  12.093   5.081   7.079 -0.2915 -0.1354 -0.9222
  827MOL0     O11545  12.206   5.006   7.057 -0.5287 -0.6592  0.8693
  827MOL0     C11546  12.209   4.867   7.088 -0.0555  0.3723  0.0420
  827MOL0     C11547  12.343   4.799   7.059 -0.2237  0.5056 -0.6123
  827MOL0     C11548  12.396   4.786   6.907  0.6982 -0.9358 -0.2195
  827MOL0     C11549  12.486   4.909   6.866 -0.2697  0.2270 -0.3734
  827MOL0     C11550  12.555   4.864   6.730  0.1065  0.0761 -0.0601
  827MOL0     C11551  12.702   4.813   6.767  0.2896 -0.8755  0.0230
  827MOL0     C11552  12.766   4.771   6.628  0.1295 -0.2153  0.2845
  827MOL0     C11553  12.906   4.721   6.665  0.3144 -0.5955  0.4775
  827MOL0    Cl11554  13.000   4.852   6.732 -0.3605  0.6513 -0.2769
  827MOL0     C11555  11.968   5.029   7.111 -0.1104  0.2418  0.8931
  827MOL0     C11556  11.866   5.124   7.145  0.2933  0.4866 -0.3756
  827MOL0     O11557  11.704   5.376   7.010  0.4412 -0.3685  0.3724
  827MOL0     C11558  11.490   5.515   7.090 -0.0191  0.6718 -0.1957
  827MOL0     C11559  11.389   5.599   7.118  0.2767  0.0832 -0.2277
  827MOL0     N11560  10.898   6.071   7.779 -0.8242  0.1221 -0.3489
  827MOL0     N11561  10.804   6.064   7.874 -0.1747 -0.9307 -0.1617
  827MOL0     C11562   9.653   5.731   8.299 -0.0725 -0.6415  0.6037
  827MOL0     C11563   9.516   5.737   8.304 -0.0827 -0.5387  0.0962
  827MOL0     C11564   9.089   5.863   8.401 -0.0307 -0.3663  0.4247
  827MOL0     C11565   9.046   5.784   8.516 -0.7894  0.9459 -0.4834
  827MOL0     C11566   8.913   5.788   8.567 -0.1455  0.6725  0.2966
  827MOL0     C11567   8.827   5.887   8.514  0.3088  1.2594  0.3000
  827MOL0     O11568   8.698   5.900   8.552  0.3110  0.4125  0.3118
  827MOL0     C11569   8.646   5.831   8.668  0.0328 -0.4873  0.1460
  827MOL0     C11570   8.513   5.890   8.715 -0.3839 -0.1585 -0.9626
  827MOL0     C11571   8.491   5.861   8.862 -1.6585 -0.5775 -0.3415
  827MOL0     C11572   8.452   5.723   8.892 -0.2406  0.6053  0.4305
  827MOL0     C11573   8.320   5.689   8.846  0.0176 -0.2237  0.6246
  827MOL0     C11574   8.205   5.676   8.800 -0.5753  0.3796  0.4817
  827MOL0     C11575   8.867   5.965   8.407 -0.4615  0.3618 -0.3456
  827MOL0     C11576   8.998   5.949   8.346  1.3305  0.1268 -0.1090
  827MOL0     C11577   9.022   6.048   8.230 -0.1034 -0.9743 -0.3399
  827MOL0     H11578   9.471   5.814   8.634 -1.5799  0.6026 -0.2963
  827MOL0     H11579   9.722   5.794   8.619  0.8892  0.3760 -1.0540
  827MOL0     H11580   9.886   5.777   8.218  0.7010 -2.6980 -0.1841
  827MOL0     H11581   9.928   5.910   8.338  0.0261  1.0588  1.8520
  827MOL0     H11582  10.081   5.654   8.308  4.9997  0.1437  0.9271
  827MOL0     H11583  10.113   5.782   8.425 -1.8314 -0.0684 -0.5991
  827MOL0     H11584  10.132   5.927   8.191 -0.6078 -0.1956  0.4614
  827MOL0     H11585  10.144   5.774   8.124  1.6138  0.9724 -1.3810
  827MOL0     H11586  10.326   5.862   8.352 -1.0263 -3.0540 -0.2308
  827MOL0     H11587  10.342   5.729   8.249  0.7988  0.0613  1.5223
  827MOL0     H11588  10.334   5.998   8.120 -0.3086 -0.3589  0.6280
  827MOL0     H11589  10.486   5.935   8.194  0.6200  2.1065 -2.5806
  827MOL0     H11590  10.453   5.722   8.052  0.0353 -0.5226 -0.8711
  827MOL0     H11591  10.326   5.792   7.961  1.1231  1.4650 -0.8598
  827MOL0     H11592  10.479   5.957   7.846  1.4561 -0.9843 -0.6615
  827MOL0     H11593  10.519   5.795   7.829 -0.3401 -1.7218  1.5056
  827MOL0     H11594  10.641   5.974   8.040 -1.1145 -1.3586  0.2743
  827MOL0     H11595  10.683   5.817   8.031  1.4159  0.0421  0.6103
  827MOL0     H11596  10.768   5.776   7.711 -0.6750  0.8206 -1.8302
  827MOL0     H11597  10.869   5.851   7.518  1.9170  0.3814 -2.7897
  827MOL0     H11598  10.930   6.016   7.499  0.3718  1.3989  0.5873
  827MOL0     H11599  11.130   5.955   7.608  0.7983  0.6750 -2.2117
  827MOL0     H11600  11.075   5.784   7.607  1.3632 -1.3745 -0.7122
  827MOL0     H11601  11.138   5.968   7.366  0.5068  0.5605  2.0898
  827MOL0     H11602  11.058   5.801   7.351 -0.6404  0.3188  0.1720
  827MOL0     H11603  11.249   5.719   7.475  0.2033 -1.2902 -1.3187
  827MOL0     H11604  11.342   5.862   7.451 -1.0405 -0.2834  0.7336
  827MOL0     H11605  11.478   5.641   7.452 -1.4519 -1.7906  0.5526
  827MOL0     H11606  11.664   5.519   7.386  0.8677  0.5759 -0.5769
  827MOL0     H11607  12.036   5.416   7.116  3.8755 -0.0473  0.0378
  827MOL0     H11608  12.206   5.258   7.040 -0.8418  0.2111 -0.2801
  827MOL0     H11609  12.190   4.844   7.193 -5.0025 -1.2737 -0.9232
  827MOL0     H11610  12.125   4.814   7.042  0.8835  0.0154 -1.3136
  827MOL0     H11611  12.416   4.852   7.120  1.5488 -0.0054 -2.1934
  827MOL0     H11612  12.320   4.701   7.102 -2.6846  0.4401 -1.8887
  827MOL0     H11613  12.445   4.691   6.885  1.5932 -0.4847 -0.1988
  827MOL0     H11614  12.304   4.787   6.848 -0.5111  1.5802  1.4677
  827MOL0     H11615  12.551   4.914   6.953  0.6264 -2.6240 -0.7865
  827MOL0     H11616  12.431   5.004   6.860  1.7965  1.4265 -5.2300
  827MOL0     H11617  12.562   4.954   6.667 -0.1050  0.2781  0.2051
  827MOL0     H11618  12.502   4.782   6.681 -0.6816  1.3591 -1.4674
  827MOL0     H11619  12.751   4.900   6.810 -1.4823 -0.1356  0.6668
  827MOL0     H11620  12.697   4.734   6.843 -1.5303  0.0005  0.8937
  827MOL0     H11621  12.767   4.854   6.557  1.7988  1.3140  1.9718
  827MOL0     H11622  12.709   4.687   6.589  0.1010 -0.5796  1.0923
  827MOL0     H11623  12.910   4.636   6.733  2.6655 -1.1212 -0.2082
  827MOL0     H11624  12.963   4.693   6.576  3.1817  2.5940  1.0797
  827MOL0     H11625  11.945   4.923   7.124 -0.2400  0.2279  0.5598
  827MOL0     H11626  11.767   5.091   7.176  0.3082  0.8324  0.0524
  827MOL0     H11627  11.490   5.478   6.988  0.1546 -0.3784  0.1775
  827MOL0     H11628  11.311   5.624   7.047  3.6494  1.6481 -3.7545
  827MOL0     H11629   9.685   5.711   8.197 -1.9952  1.8268 -0.5795
  827MOL0     H11630   9.455   5.740   8.215  1.9216  3.0899 -1.4131
  827MOL0     H11631   9.092   5.694   8.555  1.3335  1.6156 -1.3480
  827MOL0     H11632   8.879   5.716   8.640  0.3410  0.8451  0.7044
  827MOL0     H11633   8.722   5.845   8.745  1.5787  2.1887 -1.6665
  827MOL0     H11634   8.626   5.726   8.644  0.7508 -0.6118  0.0652
  827MOL0     H11635   8.421   5.859   8.666 -4.2826  0.4604  4.8883
  827MOL0     H11636   8.527   5.995   8.688  0.3276  0.0534  0.1318
  827MOL0     H11637   8.417   5.932   8.901  0.8439  1.4331  1.0690
  827MOL0     H11638   8.582   5.880   8.919 -1.2591 -2.3541 -0.3141
  827MOL0     H11639   8.509   5.650   8.833 -0.1802  1.5707 -0.7562
  827MOL0     H11640   8.468   5.702   8.998  1.2151  0.4083  0.1914
  827MOL0     H11641   8.110   5.676   8.751  0.8981 -0.5535 -2.6487
  827MOL0     H11642   8.800   6.044   8.375 -1.4653  1.0077  3.0079
  827MOL0     H11643   8.942   6.123   8.224  0.3618 -0.5839 -2.6862
  827MOL0     H11644   9.110   6.112   8.246 -0.1195 -0.3911 -2.3478
  827MOL0     H11645   9.035   6.002   8.132  1.8726  1.6443 -1.4272
  828MOL0     O11646   9.337   8.322  10.131 -0.3058  0.3779 -0.0080
  828MOL0     C11647   9.396   8.411  10.196 -0.5235  0.6157 -0.3512
  828MOL0     O11648   9.519   8.460  10.168 -0.1097  0.2928  0.1045
  828MOL0     C11649   9.608   8.394  10.082  1.6764  0.3853 -0.1425
  828MOL0     C11650   9.606   8.260  10.037  0.4908 -0.2559 -0.7913
  828MOL0     C11651   9.713   8.208   9.961 -0.0192 -0.2924 -0.3767
  828MOL0     C11652   9.820   8.283   9.920 -0.2186  0.2323  0.1441
  828MOL0     O11653   9.908   8.244   9.820  0.3450 -0.5554 -0.1546
  828MOL0     C11654   9.957   8.110   9.834  0.5656  0.6038 -0.1521
  828MOL0     C11655  10.085   8.102   9.752  0.1359 -0.6714  0.0094
  828MOL0     C11656  10.207   8.149   9.833  0.4148  0.7906 -0.4269
  828MOL0     C11657  10.321   8.150   9.735  0.4708 -0.4648 -1.4054
  828MOL0     C11658  10.449   8.218   9.787  0.3509  0.7032 -0.2269
  828MOL0     C11659  10.572   8.205   9.699  0.4739  0.7254  0.3512
  828MOL0     C11660  10.693   8.300   9.746 -1.3041 -0.1133 -0.8364
  828MOL0     C11661  10.750   8.248   9.880 -0.0638 -0.1600 -0.2500
  828MOL0     N11662  10.885   8.298   9.903  0.3785 -0.5121  0.3131
  828MOL0     C11663  10.917   8.433   9.890  0.7272  0.3732  0.1418
  828MOL0     C11664  11.047   8.439   9.893  0.4774 -0.8112  0.8942
  828MOL0     C11665  11.111   8.571   9.887  0.6676 -0.3543  0.9586
  828MOL0     C11666  11.222   8.560   9.791 -0.5200  0.7611  0.1913
  828MOL0     C11667  11.293   8.688   9.768 -0.4621 -0.4422 -0.2826
  828MOL0     C11668  11.430   8.680   9.685  0.1170  0.2277  0.6683
  828MOL0     O11669  11.528   8.593   9.735 -0.0396  0.2783  0.0136
  828MOL0     C11670  11.658   8.632   9.725 -1.1534 -0.5787  0.5338
  828MOL0     C11671  11.730   8.664   9.839 -0.1416  0.2112 -0.6067
  828MOL0     C11672  11.859   8.705   9.835 -0.5032 -0.4325 -0.3437
  828MOL0     C11673  11.934   8.700   9.710  0.8211  0.5633 -0.2423
  828MOL0     C11674  12.068   8.748   9.710  0.0043 -0.0026  0.7129
  828MOL0     O11675  12.111   8.812   9.601 -0.4263  0.6179 -0.1089
  828MOL0     C11676  12.245   8.863   9.598 -0.2237 -1.3635 -1.1207
  828MOL0     C11677  12.337   8.822   9.505 -0.6050  0.8785 -0.1896
  828MOL0     C11678  12.459   8.896   9.484 -0.3587 -0.1709  0.0065
  828MOL0     C11679  12.485   9.019   9.543 -0.1610 -0.2143  0.1712
  828MOL0     O11680  12.599   9.097   9.526  0.2190 -0.4408  0.2480
  828MOL0     C11681  12.700   9.066   9.431  0.3158 -0.4773 -0.8060
  828MOL0     C11682  12.782   9.198   9.407  0.1431 -0.3252 -0.6785
  828MOL0     C11683  12.904   9.167   9.323 -0.5846  0.2591 -1.2585
  828MOL0     C11684  12.990   9.291   9.301 -0.4157 -0.0644  0.2087
  828MOL0     C11685  13.129   9.241   9.266  0.1542  0.3518  0.3973
  828MOL0     C11686  13.232   9.334   9.238 -0.5282  0.3578 -0.7126
  828MOL0     C11687  13.282   9.399   9.376 -0.2293 -0.8150  0.0487
  828MOL0     C11688  13.387   9.507   9.359  0.1496  0.8906  0.5191
  828MOL0    Cl11689  13.555   9.438   9.310 -0.4097 -0.2216  0.0283
  828MOL0     C11690  12.382   9.061   9.624 -0.2953 -0.6917 -0.4091
  828MOL0     C11691  12.267   8.991   9.659 -0.4910  0.0920  0.0815
  828MOL0     O11692  12.132   8.728   9.811 -0.3810  0.3890  0.0784
  828MOL0     C11693  11.859   8.668   9.592 -0.4256 -0.0480  1.0142
  828MOL0     C11694  11.722   8.631   9.603  0.5918 -0.7398  0.0238
  828MOL0     N11695  11.100   8.308   9.914 -0.4280  0.1279 -0.0982
  828MOL0     N11696  10.997   8.223   9.922 -0.4470 -0.4799  0.1287
  828MOL0     C11697   9.825   8.414   9.961 -0.0417 -0.4901  0.7176
  828MOL0     C11698   9.720   8.468  10.038  0.6168 -0.6722 -0.2532
  828MOL0     C11699   9.320   8.457  10.319  0.2347  0.0789 -0.4836
  828MOL0     C11700   9.182   8.419  10.340 -0.3160 -0.8377 -0.4548
  828MOL0     C11701   9.114   8.455  10.456  0.0737 -0.3694  0.2100
  828MOL0     C11702   9.185   8.522  10.558  0.8707  0.5244 -0.7256
  828MOL0     O11703   9.132   8.556  10.678 -0.5718  0.5687  0.0622
  828MOL0     C11704   8.991   8.545  10.711 -0.1400 -0.9045 -0.2232
  828MOL0     C11705   8.988   8.565  10.861  0.2543  0.2006 -1.1359
  828MOL0     C11706   9.074   8.464  10.934  0.9285 -0.2972  0.4037
  828MOL0     C11707   9.047   8.480  11.083 -0.5092  0.3679  0.5173
  828MOL0     C11708   8.915   8.426  11.113 -0.2450  0.3144  1.1349
  828MOL0     C11709   8.817   8.383  11.149 -0.7000 -0.0310  0.3448
  828MOL0     C11710   9.323   8.552  10.544 -0.0995 -0.4034 -0.0955
  828MOL0     C11711   9.386   8.526  10.427  0.0687  0.7400  0.6262
  828MOL0     C11712   9.527   8.581  10.428 -0.0214  0.3382  0.9106
  828MOL0     H11713   9.526   8.189  10.053 -0.7442  0.9836 -1.2811
  828MOL0     H11714   9.705   8.105   9.928 -1.4981 -0.3901  0.1807
  828MOL0     H11715   9.966   8.085   9.940 -0.5877 -0.0229 -0.1794
  828MOL0     H11716   9.883   8.035   9.803 -0.3250 -0.2664  3.5417
  828MOL0     H11717  10.078   8.162   9.661  2.3366 -2.6380 -1.5732
  828MOL0     H11718  10.105   7.998   9.725 -0.1789 -0.5399 -0.7604
  828MOL0     H11719  10.228   8.082   9.916 -0.7348  0.1877 -0.6123
  828MOL0     H11720  10.186   8.248   9.875 -0.8480  0.1912  0.4096
  828MOL0     H11721  10.347   8.047   9.709 -2.0645 -2.0854  1.7895
  828MOL0     H11722  10.279   8.199   9.646 -1.6128  0.5174  0.0457
  828MOL0     H11723  10.415   8.320   9.804  1.0989  1.3928 -2.5250
  828MOL0     H11724  10.483   8.170   9.880 -0.9898 -1.6098 -0.8370
  828MOL0     H11725  10.594   8.098   9.701 -0.0385  0.5595  3.7705
  828MOL0     H11726  10.547   8.230   9.596 -3.1224  0.9847  1.1495
  828MOL0     H11727  10.665   8.406   9.757  1.6750  0.6874 -0.0134
  828MOL0     H11728  10.775   8.299   9.673 -0.7291  0.3954 -0.2153
  828MOL0     H11729  10.690   8.269   9.969 -0.3775 -2.7886  0.2414
  828MOL0     H11730  10.761   8.139   9.883 -1.3137 -0.2840  1.4998
  828MOL0     H11731  10.848   8.516   9.878 -0.8970 -1.0354 -0.7220
  828MOL0     H11732  11.041   8.648   9.853  2.0823  1.2003  1.4629
  828MOL0     H11733  11.140   8.595   9.990  0.7496 -1.7365  1.2784
  828MOL0     H11734  11.288   8.486   9.837 -0.7841  1.8921  2.5369
  828MOL0     H11735  11.177   8.534   9.695 -1.1943  2.9765 -0.1609
  828MOL0     H11736  11.298   8.737   9.866 -1.3272 -1.5489  0.3429
  828MOL0     H11737  11.228   8.753   9.709 -0.2775  0.0487  0.0467
  828MOL0     H11738  11.465   8.783   9.672  2.8252 -0.7664 -0.7657
  828MOL0     H11739  11.406   8.637   9.587  0.9928 -1.2170  1.0607
  828MOL0     H11740  11.673   8.664   9.932 -0.1022  0.2150 -0.5825
  828MOL0     H11741  11.915   8.737   9.922  0.5381 -2.0746 -0.3527
  828MOL0     H11742  12.323   8.736   9.439  1.0377  0.9143 -0.6276
  828MOL0     H11743  12.514   8.848   9.404 -1.0673  1.1659 -1.3452
  828MOL0     H11744  12.761   8.994   9.486 -1.7954  0.4458  3.0799
  828MOL0     H11745  12.664   9.034   9.332  0.5365 -3.4605 -0.0334
  828MOL0     H11746  12.716   9.279   9.374 -1.1914 -0.7704  0.8101
  828MOL0     H11747  12.808   9.224   9.510 -0.7173 -2.9192  0.2616
  828MOL0     H11748  12.961   9.101   9.389 -2.4967 -0.6168 -0.4219
  828MOL0     H11749  12.884   9.111   9.231  0.4312 -0.3521 -1.1254
  828MOL0     H11750  13.001   9.357   9.387 -0.8616 -0.1530  0.3372
  828MOL0     H11751  12.946   9.342   9.215 -0.6776 -2.5558 -1.2438
  828MOL0     H11752  13.124   9.169   9.184  2.5349  3.0146 -2.2862
  828MOL0     H11753  13.164   9.179   9.350  2.1280 -1.5777 -1.7111
  828MOL0     H11754  13.313   9.283   9.185 -0.9494 -2.2308  0.9439
  828MOL0     H11755  13.210   9.419   9.172 -0.1744 -0.1150 -1.4507
  828MOL0     H11756  13.325   9.322   9.441 -0.9771  1.4232  3.4405
  828MOL0     H11757  13.193   9.436   9.429 -1.2015 -1.9721 -0.7297
  828MOL0     H11758  13.351   9.575   9.280 -0.5258  1.0599  0.9697
  828MOL0     H11759  13.394   9.563   9.452  0.8590  0.1202  0.9368
  828MOL0     H11760  12.409   9.149   9.682 -1.4612  0.6635 -1.8294
  828MOL0     H11761  12.199   9.029   9.734 -0.8813  0.0946 -0.2691
  828MOL0     H11762  11.909   8.662   9.496  0.9109 -0.8652  1.7294
  828MOL0     H11763  11.659   8.601   9.520 -0.2163  0.9622 -0.0326
  828MOL0     H11764   9.903   8.481   9.925 -1.8317  2.5075  2.0390
  828MOL0     H11765   9.734   8.574  10.057 -1.7369 -0.0055 -1.8105
  828MOL0     H11766   9.122   8.363  10.269 -2.1998 -2.5295  2.2461
  828MOL0     H11767   9.010   8.424  10.458 -0.5740  1.1984 -2.8607
  828MOL0     H11768   8.965   8.443  10.682  2.0236 -1.4914 -0.2467
  828MOL0     H11769   8.928   8.618  10.659  4.4410  2.6379 -1.5054
  828MOL0     H11770   8.883   8.557  10.893  1.5302 -0.4102  3.4907
  828MOL0     H11771   9.019   8.668  10.881  0.7852  0.0990 -1.4205
  828MOL0     H11772   9.177   8.494  10.910  0.9607 -1.0426 -0.4198
  828MOL0     H11773   9.049   8.367  10.891 -3.3319  0.7061  0.2669
  828MOL0     H11774   9.131   8.428  11.131  2.9985  3.6398 -1.5458
  828MOL0     H11775   9.055   8.583  11.118  1.0577  0.3730  0.2146
  828MOL0     H11776   8.730   8.341  11.195 -1.2153 -1.3934 -1.7314
  828MOL0     H11777   9.384   8.583  10.628  1.4857  0.1868 -1.3948
  828MOL0     H11778   9.560   8.649  10.349  4.2505 -0.7616  1.4834
  828MOL0     H11779   9.557   8.627  10.523 -1.2624  0.8953  1.0540
  828MOL0     H11780   9.593   8.497  10.406 -0.1881  0.7859 -1.5542
  829MOL0     O11781   6.439  10.015  10.179 -0.2204  0.0412  1.2875
  829MOL0     C11782   6.344   9.939  10.183  0.5201  0.6769 -0.6834
  829MOL0     O11783   6.342   9.815  10.236 -0.0901  0.2259 -0.2654
  829MOL0     C11784   6.471   9.769  10.274  0.2451 -0.1419 -0.0430
  829MOL0     C11785   6.511   9.654  10.209 -0.1482  0.2012 -0.7487
  829MOL0     C11786   6.635   9.589  10.235  0.2908  0.0586  0.4338
  829MOL0     C11787   6.709   9.634  10.344 -0.6903  0.3254 -0.0340
  829MOL0     O11788   6.828   9.575  10.396 -0.3543 -0.4719  0.1661
  829MOL0     C11789   6.934   9.572  10.303 -0.6125 -0.1726 -0.0494
  829MOL0     C11790   7.055   9.501  10.370 -0.1630 -0.6346  0.6934
  829MOL0     C11791   7.179   9.538  10.285 -0.1321 -0.1310  0.0795
  829MOL0     C11792   7.269   9.649  10.345  0.0237  0.6737  0.0074
  829MOL0     C11793   7.373   9.694  10.254  0.3499  0.4715 -1.1737
  829MOL0     C11794   7.485   9.594  10.250 -0.8498 -0.1339 -0.9896
  829MOL0     C11795   7.598   9.665  10.174 -0.8108  0.2745 -0.1094
  829MOL0     C11796   7.714   9.566  10.173 -0.4748  0.3566  0.2833
  829MOL0     N11797   7.842   9.619  10.107 -0.0163 -0.1993  0.0586
  829MOL0     C11798   7.902   9.733  10.159  0.2311 -0.2094 -0.5090
  829MOL0     C11799   8.011   9.742  10.079 -0.3340 -0.7247 -0.6975
  829MOL0     C11800   8.129   9.841  10.098  0.1981 -0.4980 -0.1079
  829MOL0     C11801   8.245   9.788  10.189  0.1134 -0.6250 -0.7910
  829MOL0     C11802   8.374   9.811  10.119 -0.0374  0.2715  0.0020
  829MOL0     C11803   8.505   9.768  10.188 -0.2371 -0.8521 -0.5154
  829MOL0     O11804   8.617   9.834  10.130 -0.1868 -0.1112 -0.2574
  829MOL0     C11805   8.743   9.842  10.193 -1.1314  0.3206 -0.1096
  829MOL0     C11806   8.765   9.768  10.304 -0.0543  0.1021 -0.6459
  829MOL0     C11807   8.887   9.779  10.373  0.5864  0.4916 -0.6759
  829MOL0     C11808   8.993   9.859  10.336 -0.1867  0.2631  0.5853
  829MOL0     C11809   9.125   9.868  10.397  0.1046 -0.0716 -1.2999
  829MOL0     O11810   9.227   9.920  10.327 -0.0096 -0.1929  0.8772
  829MOL0     C11811   9.355   9.869  10.354  0.9174  0.4307 -0.2070
  829MOL0     C11812   9.433   9.944  10.449 -0.0879 -0.4824  0.2829
  829MOL0     C11813   9.562   9.901  10.487  0.5722 -0.1113 -0.1976
  829MOL0     C11814   9.615   9.778  10.428  1.2313 -0.6057 -0.7665
  829MOL0     O11815   9.744   9.736  10.462  0.1392 -0.5976  0.1517
  829MOL0     C11816   9.790   9.603  10.437  0.1566 -0.2219  0.7958
  829MOL0     C11817   9.943   9.587  10.480 -0.4665  0.0933 -0.4029
  829MOL0     C11818   9.987   9.443  10.463 -0.0829  0.6391 -0.6500
  829MOL0     C11819  10.139   9.424  10.432  0.8718 -0.1126  0.2020
  829MOL0     C11820  10.183   9.279  10.410  0.4120 -0.2135  0.1780
  829MOL0     C11821  10.193   9.246  10.259  1.2620  0.9300 -0.4781
  829MOL0     C11822  10.253   9.105  10.257 -0.1006 -0.0002  0.8091
  829MOL0     C11823  10.407   9.103  10.252 -0.2145  0.2513  0.1557
  829MOL0    Cl11824  10.456   9.168  10.098  0.2143  0.2454  0.5296
  829MOL0     C11825   9.527   9.704  10.341 -0.3113  0.2319  0.2323
  829MOL0     C11826   9.406   9.752  10.299  0.2623 -0.4844 -0.5002
  829MOL0     O11827   9.122   9.852  10.514 -0.0350 -0.7576 -0.0194
  829MOL0     C11828   8.974   9.931  10.217 -0.4063 -0.1471 -0.3940
  829MOL0     C11829   8.851   9.924  10.143 -0.2172 -1.1241 -0.3775
  829MOL0     N11830   8.006   9.653   9.971  0.2883 -0.2417 -0.8308
  829MOL0     N11831   7.898   9.575   9.992 -0.6762  0.2527 -0.1647
  829MOL0     C11832   6.658   9.745  10.420 -0.3963  0.0669 -0.1923
  829MOL0     C11833   6.541   9.818  10.389 -0.5210 -0.0513  0.2514
  829MOL0     C11834   6.210   9.986  10.150  0.7338 -0.0519 -0.6325
  829MOL0     C11835   6.099   9.925  10.203  0.8918  0.3055 -0.2517
  829MOL0     C11836   5.967   9.961  10.186  0.3578 -0.7761  0.3135
  829MOL0     C11837   5.946  10.069  10.099  0.2516  0.2772 -0.9263
  829MOL0     O11838   5.803  10.084  10.075  0.9338 -0.2056  0.1052
  829MOL0     C11839   5.752  10.216  10.043 -0.0981 -0.4953 -0.2394
  829MOL0     C11840   5.706  10.287  10.173 -0.6208  0.4561 -0.8345
  829MOL0     C11841   5.819  10.329  10.262 -0.5763 -0.4422  0.1801
  829MOL0     C11842   5.774  10.414  10.383  0.1560  0.1306  0.8989
  829MOL0     C11843   5.693  10.328  10.470 -0.1757 -0.0632  0.3683
  829MOL0     C11844   5.650  10.234  10.534  0.3268 -0.5701 -0.1548
  829MOL0     C11845   6.046  10.130  10.030  0.6417  0.5481 -0.7828
  829MOL0     C11846   6.185  10.088  10.056 -0.4211  0.0907 -0.2166
  829MOL0     C11847   6.291  10.154   9.966  0.3034  0.4164 -0.5833
  829MOL0     H11848   6.450   9.609  10.132 -0.3142  0.0872 -0.5504
  829MOL0     H11849   6.657   9.503  10.174  0.2524  0.4416 -0.1292
  829MOL0     H11850   6.910   9.522  10.209 -0.6106  0.4376 -0.3774
  829MOL0     H11851   6.952   9.677  10.277 -1.3059 -0.4837 -1.9601
  829MOL0     H11852   7.050   9.392  10.370  1.4446 -0.7330  1.4854
  829MOL0     H11853   7.075   9.540  10.470  0.2789 -0.4425  0.5322
  829MOL0     H11854   7.154   9.568  10.183  2.3169 -0.8273 -0.8032
  829MOL0     H11855   7.231   9.443  10.272 -0.8029 -0.0950 -4.2952
  829MOL0     H11856   7.199   9.733  10.357 -3.0578 -1.2158 -2.8906
  829MOL0     H11857   7.309   9.630  10.445  0.0429  1.1525  0.0936
  829MOL0     H11858   7.330   9.698  10.153  1.0131 -2.4806 -1.6645
  829MOL0     H11859   7.409   9.792  10.288 -0.9450  0.5197  0.1008
  829MOL0     H11860   7.520   9.564  10.349  1.4734 -0.9252 -1.9694
  829MOL0     H11861   7.443   9.513  10.190  0.3499  0.8447 -3.3040
  829MOL0     H11862   7.628   9.760  10.218 -2.1550 -0.8929  3.7823
  829MOL0     H11863   7.576   9.686  10.069  1.4167 -0.9255 -0.8860
  829MOL0     H11864   7.742   9.534  10.273  1.7752 -0.4855 -0.5407
  829MOL0     H11865   7.682   9.481  10.112 -0.1487 -1.1125  2.1007
  829MOL0     H11866   7.885   9.801  10.242  1.7741 -0.7861  0.3083
  829MOL0     H11867   8.169   9.868  10.000  0.0029 -2.9389 -0.9316
  829MOL0     H11868   8.084   9.933  10.138  0.8203  0.5263 -1.6713
  829MOL0     H11869   8.244   9.842  10.285 -2.9551  0.8111 -1.4909
  829MOL0     H11870   8.235   9.681  10.208 -4.6590 -0.0728  1.5165
  829MOL0     H11871   8.376   9.918  10.093 -0.0185  0.4536  0.7418
  829MOL0     H11872   8.370   9.760  10.023  1.6941 -1.3542  0.7329
  829MOL0     H11873   8.510   9.658  10.188  2.4127 -0.8234 -2.5823
  829MOL0     H11874   8.494   9.799  10.292  1.4657  3.4631 -1.4048
  829MOL0     H11875   8.694   9.699  10.348  0.2499  1.3882  2.0772
  829MOL0     H11876   8.901   9.736  10.472 -1.1362  1.0561 -0.1574
  829MOL0     H11877   9.399  10.038  10.490 -0.4419 -0.7037  0.4994
  829MOL0     H11878   9.612   9.971  10.552 -0.7349  2.7530 -2.0490
  829MOL0     H11879   9.725   9.537  10.495 -2.3478  1.4414  0.0426
  829MOL0     H11880   9.779   9.580  10.331  3.9485  0.8279  0.0084
  829MOL0     H11881  10.004   9.651  10.416  0.6072  0.5692  1.0336
  829MOL0     H11882   9.964   9.613  10.584 -1.9267 -2.7707  0.7436
  829MOL0     H11883   9.966   9.388  10.555 -0.5731  0.9495 -0.5717
  829MOL0     H11884   9.929   9.413  10.376  1.5088  2.5832 -2.5106
  829MOL0     H11885  10.177   9.462  10.528 -3.6336  1.4356  1.6276
  829MOL0     H11886  10.165   9.493  10.352  0.1237  0.0438  0.0929
  829MOL0     H11887  10.118   9.216  10.472  0.7229  1.7879  2.7279
  829MOL0     H11888  10.289   9.283  10.439  0.2675  1.1902  0.5629
  829MOL0     H11889  10.092   9.244  10.218  0.4856  0.5224  1.3660
  829MOL0     H11890  10.267   9.300  10.198  1.2518  1.7792  0.2494
  829MOL0     H11891  10.223   9.059  10.162 -0.9113  0.4246  0.8490
  829MOL0     H11892  10.215   9.039  10.336  0.0707 -0.8061  0.2381
  829MOL0     H11893  10.456   9.147  10.339 -1.7794  0.7126  0.8456
  829MOL0     H11894  10.433   8.997  10.252  0.5889  0.4439 -0.1672
  829MOL0     H11895   9.572   9.618  10.293 -0.3848  0.0603  0.4698
  829MOL0     H11896   9.341   9.712  10.222  0.4065 -1.0697 -0.3241
  829MOL0     H11897   9.058   9.987  10.180  0.7661 -0.8254  1.1342
  829MOL0     H11898   8.831   9.978  10.051 -0.8550  1.2203  1.0498
  829MOL0     H11899   6.721   9.763  10.506  0.0321 -0.0759 -0.4741
  829MOL0     H11900   6.502   9.901  10.447 -1.6362  2.9923 -4.2844
  829MOL0     H11901   6.115   9.838  10.265 -0.2575  0.3597  0.1382
  829MOL0     H11902   5.880   9.908  10.224 -0.1807  2.0726  3.5129
  829MOL0     H11903   5.669  10.193   9.976  0.7424 -0.5444 -1.2814
  829MOL0     H11904   5.815  10.281   9.982  2.4627 -1.5386  1.1459
  829MOL0     H11905   5.642  10.215  10.225  3.4953 -1.8730  1.6155
  829MOL0     H11906   5.641  10.373  10.155 -1.1818  0.0937 -0.5674
  829MOL0     H11907   5.885  10.391  10.201 -0.2654  0.5125  1.4415
  829MOL0     H11908   5.879  10.247  10.303 -0.9436 -0.5105  0.5966
  829MOL0     H11909   5.861  10.453  10.436  0.8208 -0.5211  0.3168
  829MOL0     H11910   5.713  10.501  10.355  0.2560 -0.8309 -2.9469
  829MOL0     H11911   5.594  10.163  10.592 -0.5416  0.6230  0.4996
  829MOL0     H11912   6.015  10.202   9.955  0.0890  1.2010  0.0465
  829MOL0     H11913   6.248  10.227   9.897 -0.8310 -0.2738 -0.6264
  829MOL0     H11914   6.380  10.199  10.011  0.0121  1.5887 -1.1417
  829MOL0     H11915   6.329  10.069   9.908 -3.4205 -2.4454  0.7050
  830MOL0     O11916  10.238   5.086   9.065  0.5154  0.2845 -0.4112
  830MOL0     C11917  10.199   5.170   9.147  1.0664  0.1601 -0.7705
  830MOL0     O11918  10.278   5.238   9.231  0.2460  0.1912  0.4918
  830MOL0     C11919  10.405   5.241   9.206 -0.0110 -0.0536  0.2872
  830MOL0     C11920  10.492   5.135   9.254  1.5127  0.1799 -0.2711
  830MOL0     C11921  10.629   5.137   9.233  0.2708 -0.3443 -0.1057
  830MOL0     C11922  10.686   5.254   9.172 -0.2414 -0.0208 -0.2070
  830MOL0     O11923  10.818   5.292   9.167 -0.2894  0.2986  0.0778
  830MOL0     C11924  10.911   5.232   9.265  0.2827 -1.2882  0.9373
  830MOL0     C11925  11.055   5.286   9.225  0.6928  0.9603 -0.1154
  830MOL0     C11926  11.078   5.433   9.263 -0.3666  0.5525 -0.1059
  830MOL0     C11927  11.182   5.498   9.171  0.6666  0.2305  0.9310
  830MOL0     C11928  11.217   5.632   9.235 -0.0564 -0.3109  0.6806
  830MOL0     C11929  11.344   5.694   9.190  0.1217  0.2207  0.5851
  830MOL0     C11930  11.340   5.738   9.042  0.3590 -0.7576 -0.5475
  830MOL0     C11931  11.470   5.792   8.990 -0.2751  0.0360  0.1571
  830MOL0     N11932  11.534   5.903   9.065  0.1375 -0.8449 -0.5227
  830MOL0     C11933  11.617   5.894   9.173  0.1567 -0.3827 -0.1455
  830MOL0     C11934  11.633   6.024   9.215  0.2055 -0.5734  0.1575
  830MOL0     C11935  11.717   6.073   9.326 -0.0456  0.1617 -0.4644
  830MOL0     C11936  11.863   6.073   9.283 -0.9671 -0.6179 -0.8433
  830MOL0     C11937  11.937   6.161   9.394  0.4083  0.6340  0.6850
  830MOL0     C11938  12.090   6.148   9.372 -0.6862  0.3954  1.0939
  830MOL0     O11939  12.144   6.215   9.264 -0.2587  0.4739 -0.3727
  830MOL0     C11940  12.258   6.280   9.264 -0.2239 -0.1759 -0.0870
  830MOL0     C11941  12.292   6.355   9.152  0.1734  0.8407  0.2292
  830MOL0     C11942  12.409   6.420   9.128 -0.1963  0.3701 -0.2981
  830MOL0     C11943  12.500   6.423   9.238 -0.4888 -0.2355  0.6316
  830MOL0     C11944  12.626   6.499   9.234 -0.4122 -0.2258 -0.2140
  830MOL0     O11945  12.695   6.505   9.353 -1.0249 -0.0227  0.6179
  830MOL0     C11946  12.823   6.564   9.369  0.3670 -0.3655  0.6729
  830MOL0     C11947  12.872   6.546   9.505  0.2186 -0.4190 -0.5825
  830MOL0     C11948  13.005   6.573   9.534  0.0153  0.8543 -0.7085
  830MOL0     C11949  13.080   6.639   9.445 -0.7170 -0.3656  0.0948
  830MOL0     O11950  13.202   6.696   9.479 -0.2498  0.2524 -0.4480
  830MOL0     C11951  13.253   6.685   9.614  0.9169 -0.4491 -0.2729
  830MOL0     C11952  13.328   6.553   9.642  1.1388 -0.1396  0.0695
  830MOL0     C11953  13.453   6.552   9.559 -0.8069 -0.2179  0.1952
  830MOL0     C11954  13.568   6.641   9.604  0.9978 -0.1752 -1.3227
  830MOL0     C11955  13.680   6.639   9.494 -0.5207 -0.3491  0.1675
  830MOL0     C11956  13.753   6.506   9.484  0.2482 -0.8619 -0.0872
  830MOL0     C11957  13.879   6.521   9.411 -0.5200 -0.3047  0.8613
  830MOL0     C11958  13.931   6.377   9.364 -0.5281 -0.4944 -0.2511
  830MOL0    Cl11959  13.930   6.265   9.502 -0.0873  0.2964  0.2107
  830MOL0     C11960  13.038   6.667   9.315 -0.1548 -0.6778  0.0401
  830MOL0     C11961  12.907   6.633   9.281 -0.2731 -0.2207 -0.7632
  830MOL0     O11962  12.655   6.556   9.131 -0.0856 -0.0628 -0.2400
  830MOL0     C11963  12.464   6.351   9.358  0.2690  0.2886  0.0092
  830MOL0     C11964  12.352   6.275   9.368 -0.2947 -0.2229  0.2809
  830MOL0     N11965  11.574   6.110   9.127 -0.2108 -0.9204  0.1244
  830MOL0     N11966  11.523   6.036   9.030  0.5188  0.6645 -0.3273
  830MOL0     C11967  10.601   5.350   9.120  1.0668  0.0735  1.1055
  830MOL0     C11968  10.460   5.349   9.139  0.5826  0.2856 -0.4111
  830MOL0     C11969  10.051   5.182   9.149 -0.5969 -0.0933 -0.1039
  830MOL0     C11970   9.968   5.098   9.066 -0.6819 -0.2201 -0.5666
  830MOL0     C11971   9.835   5.114   9.063  0.9822 -0.3828  0.4026
  830MOL0     C11972   9.769   5.205   9.142  0.2303  0.2844  0.1608
  830MOL0     O11973   9.633   5.191   9.143  0.2729 -0.7344 -0.4541
  830MOL0     C11974   9.563   5.314   9.132  0.0065 -0.4005 -0.0635
  830MOL0     C11975   9.411   5.304   9.154  0.1346  0.8498 -0.4452
  830MOL0     C11976   9.324   5.394   9.072 -0.4432  0.3183 -0.1708
  830MOL0     C11977   9.364   5.544   9.097 -1.2377  0.2111 -0.1463
  830MOL0     C11978   9.304   5.628   8.999 -0.0158  0.6855  0.5307
  830MOL0     C11979   9.257   5.684   8.906 -0.0202  0.6912  0.8242
  830MOL0     C11980   9.840   5.288   9.226  0.5477 -0.0758 -0.1705
  830MOL0     C11981   9.977   5.281   9.225  0.6318 -0.1860 -1.0612
  830MOL0     C11982  10.053   5.381   9.311 -0.5690  1.1423 -0.1309
  830MOL0     H11983  10.458   5.047   9.308 -2.7535 -0.1791 -3.0747
  830MOL0     H11984  10.683   5.049   9.265  1.0099  0.0695 -0.1731
  830MOL0     H11985  10.896   5.247   9.373  1.3917 -0.8935  1.0548
  830MOL0     H11986  10.898   5.126   9.241 -3.4478 -0.3669 -2.0559
  830MOL0     H11987  11.051   5.276   9.116  0.7317  0.6567 -0.0894
  830MOL0     H11988  11.136   5.219   9.254  1.2536  0.9414 -1.6768
  830MOL0     H11989  11.110   5.439   9.368  0.4099  0.3962 -0.3226
  830MOL0     H11990  10.984   5.488   9.256 -2.2348 -2.2966  0.5152
  830MOL0     H11991  11.274   5.440   9.181 -0.6363 -1.9356  0.8953
  830MOL0     H11992  11.157   5.506   9.064  2.4703  1.0491  0.5361
  830MOL0     H11993  11.129   5.695   9.218  0.0653 -0.7894 -2.2188
  830MOL0     H11994  11.239   5.631   9.343 -2.7926  3.0549  1.4484
  830MOL0     H11995  11.363   5.775   9.261 -2.9037  1.9040 -0.3753
  830MOL0     H11996  11.419   5.615   9.200  1.6755  1.1177 -2.6284
  830MOL0     H11997  11.266   5.819   9.031 -0.2873 -0.7354  2.8701
  830MOL0     H11998  11.294   5.671   8.970 -3.0477  0.9353 -0.1494
  830MOL0     H11999  11.541   5.709   8.985  0.5124  0.6895  0.2003
  830MOL0     H12000  11.458   5.828   8.887  0.6094 -1.1115 -0.3641
  830MOL0     H12001  11.661   5.808   9.222  0.9687  0.2548  0.2569
  830MOL0     H12002  11.687   6.174   9.353  1.9639  0.6489  0.1773
  830MOL0     H12003  11.700   6.008   9.413  0.1666  2.0305  1.0291
  830MOL0     H12004  11.901   5.971   9.288 -0.3177 -0.3275  3.0639
  830MOL0     H12005  11.873   6.116   9.183  1.4913  0.9407 -0.0134
  830MOL0     H12006  11.912   6.118   9.491  1.2902 -1.2018  0.1391
  830MOL0     H12007  11.911   6.267   9.385  1.6314  0.9588  0.8759
  830MOL0     H12008  12.106   6.040   9.373  0.7906  0.5891  3.0283
  830MOL0     H12009  12.134   6.188   9.463 -0.5084  0.5293  0.9485
  830MOL0     H12010  12.212   6.357   9.079 -0.8952  0.3550  1.3419
  830MOL0     H12011  12.422   6.475   9.035  0.9668  1.6489  0.5739
  830MOL0     H12012  12.805   6.514   9.584  2.8256  0.0519  2.0040
  830MOL0     H12013  13.029   6.554   9.638  0.0150 -3.2591 -1.2783
  830MOL0     H12014  13.319   6.771   9.628 -0.4466  0.6359 -0.3149
  830MOL0     H12015  13.179   6.699   9.693  1.8856 -1.4318  0.8633
  830MOL0     H12016  13.342   6.549   9.750  0.9664 -1.3646  0.0558
  830MOL0     H12017  13.264   6.467   9.619  1.0796 -0.7011  2.1502
  830MOL0     H12018  13.505   6.458   9.535  3.0405  1.7451  0.0537
  830MOL0     H12019  13.425   6.589   9.460  0.9847 -0.2400 -0.3546
  830MOL0     H12020  13.601   6.611   9.704 -1.1921 -0.9230 -0.7542
  830MOL0     H12021  13.532   6.743   9.619  1.3712 -0.2034 -0.0182
  830MOL0     H12022  13.755   6.716   9.518  1.3682 -2.1545  0.3664
  830MOL0     H12023  13.640   6.680   9.401 -0.4841  2.1452  1.1727
  830MOL0     H12024  13.785   6.470   9.582 -2.7814 -1.3134  0.8359
  830MOL0     H12025  13.683   6.435   9.441 -2.0400  1.4889 -0.4881
  830MOL0     H12026  13.953   6.565   9.479  0.8914 -0.0818 -0.7402
  830MOL0     H12027  13.866   6.587   9.325 -3.1008 -1.0395  0.6175
  830MOL0     H12028  13.864   6.329   9.294 -0.9773  1.9983 -1.6676
  830MOL0     H12029  14.024   6.391   9.307 -1.3612  2.6362 -1.0391
  830MOL0     H12030  13.097   6.720   9.241 -0.0482 -1.5640 -0.5380
  830MOL0     H12031  12.878   6.658   9.179  0.9051 -0.5291 -1.1846
  830MOL0     H12032  12.531   6.341   9.442 -0.7249  0.0446  0.7920
  830MOL0     H12033  12.330   6.217   9.457 -0.5375 -0.4699  0.0637
  830MOL0     H12034  10.651   5.427   9.062  1.9872 -0.7114  0.8093
  830MOL0     H12035  10.394   5.433   9.116  0.1965 -0.2493 -1.3092
  830MOL0     H12036  10.014   5.021   9.004  0.0352  2.5517 -3.8221
  830MOL0     H12037   9.766   5.065   8.995 -1.0588  1.4227  1.0414
  830MOL0     H12038   9.584   5.354   9.032 -1.2230 -0.7820 -0.4946
  830MOL0     H12039   9.603   5.379   9.210 -0.5727 -0.7643  0.5518
  830MOL0     H12040   9.376   5.314   9.257  1.5034 -0.8535  0.2329
  830MOL0     H12041   9.396   5.197   9.135 -0.8413  0.3131  2.7244
  830MOL0     H12042   9.223   5.382   9.114 -1.2800  1.8414 -1.6267
  830MOL0     H12043   9.328   5.380   8.963 -1.2814  0.5453 -0.2396
  830MOL0     H12044   9.316   5.573   9.191 -3.1712 -0.6110 -0.8170
  830MOL0     H12045   9.471   5.561   9.091 -1.6121  3.3486  0.4441
  830MOL0     H12046   9.203   5.708   8.817 -3.3001 -2.2723  1.7973
  830MOL0     H12047   9.792   5.351   9.301  1.2148 -0.2130  0.3796
  830MOL0     H12048   9.980   5.445   9.362 -0.9833 -0.5832  1.5343
  830MOL0     H12049  10.104   5.324   9.388 -1.2047 -0.7004 -1.0172
  830MOL0     H12050  10.124   5.441   9.253  0.0321  0.6112  0.0458
  831MOL0     O12051   2.395   7.809   6.712  0.1758 -0.3618  0.4007
  831MOL0     C12052   2.291   7.759   6.757 -0.2987  0.0512  0.4347
  831MOL0     O12053   2.279   7.711   6.884  0.4414  0.1591  0.3031
  831MOL0     C12054   2.380   7.729   6.976  0.2955  0.0493 -0.1228
  831MOL0     C12055   2.457   7.843   6.982 -0.4614 -0.5491  0.1897
  831MOL0     C12056   2.566   7.852   7.073 -0.7605  0.2219 -0.0867
  831MOL0     C12057   2.594   7.742   7.160  0.4959 -0.5099 -0.6393
  831MOL0     O12058   2.684   7.756   7.260  0.0492 -0.3582  0.3900
  831MOL0     C12059   2.797   7.843   7.247  0.2382  0.9016 -1.0648
  831MOL0     C12060   2.758   7.966   7.324 -0.9108  0.2970  0.2772
  831MOL0     C12061   2.856   8.087   7.304 -0.7539  0.1167  1.4013
  831MOL0     C12062   2.801   8.230   7.337 -0.5471  0.3328  0.9228
  831MOL0     C12063   2.758   8.234   7.485 -0.3433 -0.5394 -0.1354
  831MOL0     C12064   2.866   8.208   7.587 -0.2439 -0.1524 -0.5006
  831MOL0     C12065   2.988   8.310   7.586 -0.4440  0.3844  0.4254
  831MOL0     C12066   3.095   8.287   7.694 -0.1685  1.1346  0.0625
  831MOL0     N12067   3.205   8.383   7.681  0.3136  0.7257 -0.2523
  831MOL0     C12068   3.220   8.501   7.760 -0.3410  0.1047  0.7427
  831MOL0     C12069   3.341   8.554   7.728 -0.1452  0.6242 -0.3673
  831MOL0     C12070   3.410   8.658   7.805  0.2693 -0.2282  1.0141
  831MOL0     C12071   3.435   8.796   7.732  0.3901 -0.4434  0.1011
  831MOL0     C12072   3.539   8.797   7.611  0.2013  0.6645 -0.3598
  831MOL0     C12073   3.682   8.766   7.669 -0.3543 -0.3728  0.0408
  831MOL0     O12074   3.746   8.880   7.730 -0.7858 -0.6334 -0.1820
  831MOL0     C12075   3.883   8.892   7.752  0.1834  0.2043 -1.1130
  831MOL0     C12076   3.928   9.008   7.814 -0.1718 -0.9290  0.3664
  831MOL0     C12077   4.065   9.025   7.833 -0.0956  0.5238 -0.2669
  831MOL0     C12078   4.155   8.922   7.806  0.8940  0.1291  0.4705
  831MOL0     C12079   4.304   8.942   7.819  0.8678  0.0160 -0.5821
  831MOL0     O12080   4.343   9.057   7.888 -0.2389  0.5014 -0.3067
  831MOL0     C12081   4.472   9.096   7.871  0.8103  0.7531 -0.1466
  831MOL0     C12082   4.519   9.164   7.991 -1.2986  0.2435  1.1086
  831MOL0     C12083   4.656   9.201   7.997 -0.4870  0.5542  1.1573
  831MOL0     C12084   4.738   9.184   7.888 -0.6732 -1.2106  0.2624
  831MOL0     O12085   4.877   9.211   7.884 -0.2989 -0.0002  0.4660
  831MOL0     C12086   4.946   9.166   8.005  0.2841  0.5570  0.6045
  831MOL0     C12087   5.078   9.115   7.950  0.6636  0.2520  0.4308
  831MOL0     C12088   5.182   9.079   8.060  0.0916 -0.4991  0.3291
  831MOL0     C12089   5.310   9.153   8.051  0.1045  0.8068  0.6038
  831MOL0     C12090   5.427   9.086   8.120  0.0115 -0.3762  0.1874
  831MOL0     C12091   5.555   9.167   8.107 -0.0299  0.3384  0.1786
  831MOL0     C12092   5.560   9.284   8.204  1.4171  0.6383 -0.1577
  831MOL0     C12093   5.674   9.387   8.170  0.4099 -0.5903  0.5399
  831MOL0    Cl12094   5.837   9.305   8.166  0.1923  0.0469 -0.2164
  831MOL0     C12095   4.686   9.128   7.765 -0.1517  0.6382  0.2241
  831MOL0     C12096   4.555   9.079   7.757 -0.3963  0.1647 -0.3394
  831MOL0     O12097   4.379   8.855   7.768 -0.2143 -0.9208  0.3496
  831MOL0     C12098   4.111   8.800   7.754  0.7050  0.3543  0.5537
  831MOL0     C12099   3.977   8.782   7.727 -0.6576 -0.0587  0.0451
  831MOL0     N12100   3.401   8.467   7.639  0.3898  0.0730 -1.4502
  831MOL0     N12101   3.319   8.370   7.608  0.2968 -0.7818 -0.3609
  831MOL0     C12102   2.518   7.620   7.151  0.3610 -1.2021  0.1072
  831MOL0     C12103   2.408   7.615   7.062  0.7297 -0.0380  0.9022
  831MOL0     C12104   2.174   7.753   6.666 -0.7107  0.1863  0.0994
  831MOL0     C12105   2.048   7.770   6.726  0.2258  1.1547  0.6506
  831MOL0     C12106   1.924   7.767   6.660 -0.3982 -0.0383 -0.7417
  831MOL0     C12107   1.924   7.747   6.525  0.6198 -0.7823 -0.0612
  831MOL0     O12108   1.796   7.741   6.471  0.0839 -0.0593 -0.2827
  831MOL0     C12109   1.789   7.759   6.326  0.5039  0.4502  0.1020
  831MOL0     C12110   1.638   7.773   6.289  0.4064 -0.1935  0.0074
  831MOL0     C12111   1.623   7.777   6.139  0.9245  0.4511 -0.5592
  831MOL0     C12112   1.480   7.813   6.108  0.0335  0.3800 -0.3060
  831MOL0     C12113   1.442   7.814   5.966  0.5405 -0.3531  0.5628
  831MOL0     C12114   1.412   7.815   5.848  0.7231  0.5630 -0.3498
  831MOL0     C12115   2.046   7.728   6.462  0.0602 -0.0879 -0.1637
  831MOL0     C12116   2.164   7.731   6.524 -1.1195  0.2305  0.2399
  831MOL0     C12117   2.303   7.697   6.458  1.2695  0.5163  0.6155
  831MOL0     H12118   2.441   7.927   6.915 -2.8155 -0.2805  0.9957
  831MOL0     H12119   2.631   7.939   7.071  0.8194 -0.8451  1.5014
  831MOL0     H12120   2.884   7.795   7.292 -0.6726 -0.7040 -0.9477
  831MOL0     H12121   2.819   7.861   7.142 -0.8525 -0.8010 -1.6278
  831MOL0     H12122   2.754   7.941   7.431 -0.7658 -0.4171  0.1254
  831MOL0     H12123   2.654   7.985   7.295 -1.0390 -3.5686 -2.6977
  831MOL0     H12124   2.889   8.089   7.200 -0.2444  1.4504  1.5711
  831MOL0     H12125   2.940   8.074   7.373 -0.3699  0.5492  1.0212
  831MOL0     H12126   2.893   8.288   7.326  0.0881 -0.4020  2.2470
  831MOL0     H12127   2.726   8.253   7.260  0.3665  0.0020 -0.0871
  831MOL0     H12128   2.721   8.335   7.506  2.7276  0.5632  0.4172
  831MOL0     H12129   2.686   8.153   7.505 -0.4300 -0.2099  0.9615
  831MOL0     H12130   2.828   8.206   7.689 -0.3868 -1.0052 -0.5562
  831MOL0     H12131   2.908   8.109   7.566 -0.1893 -0.1308 -0.4939
  831MOL0     H12132   2.954   8.413   7.598  0.2537  1.5459 -4.9821
  831MOL0     H12133   3.027   8.303   7.484 -2.2149 -0.1788 -0.2543
  831MOL0     H12134   3.048   8.277   7.792  1.9179  2.5000  1.2720
  831MOL0     H12135   3.133   8.190   7.659 -0.0703  1.2274 -0.0911
  831MOL0     H12136   3.144   8.532   7.830 -2.8946  0.4253 -1.9636
  831MOL0     H12137   3.363   8.687   7.900  0.4290  3.9687  0.0200
  831MOL0     H12138   3.509   8.616   7.827 -0.0711 -2.8212 -1.7932
  831MOL0     H12139   3.344   8.821   7.677  0.9371  1.2797 -0.0921
  831MOL0     H12140   3.459   8.881   7.796  0.9531 -0.5265  0.0087
  831MOL0     H12141   3.536   8.891   7.554 -0.5599 -0.5113 -2.3453
  831MOL0     H12142   3.516   8.719   7.539 -3.0778  0.2342  0.9471
  831MOL0     H12143   3.752   8.736   7.590  2.0283  0.5373  1.7026
  831MOL0     H12144   3.685   8.677   7.732  3.1147 -0.0921  0.4336
  831MOL0     H12145   3.868   9.097   7.827  0.4138 -0.6370  1.1290
  831MOL0     H12146   4.107   9.117   7.873 -2.0728  0.8499  1.1715
  831MOL0     H12147   4.461   9.169   8.083 -0.6849  1.0317  1.4632
  831MOL0     H12148   4.706   9.234   8.088 -1.3077 -0.0853  1.8666
  831MOL0     H12149   4.964   9.250   8.074 -1.2346  1.5498 -0.1447
  831MOL0     H12150   4.900   9.083   8.059  2.6021 -0.3082  1.3691
  831MOL0     H12151   5.052   9.022   7.898 -2.2967  1.6211 -0.7769
  831MOL0     H12152   5.111   9.192   7.880  1.3110 -1.4791 -1.2466
  831MOL0     H12153   5.134   9.088   8.158 -1.9126  1.2297 -0.7288
  831MOL0     H12154   5.210   8.975   8.041 -2.9038 -1.0223 -2.0148
  831MOL0     H12155   5.300   9.254   8.092 -0.1996 -0.0909  2.8733
  831MOL0     H12156   5.337   9.162   7.945 -1.3481 -0.4902  0.0875
  831MOL0     H12157   5.429   8.982   8.084  1.1986 -0.6612  1.0474
  831MOL0     H12158   5.392   9.082   8.223 -2.1596  0.5930 -0.4323
  831MOL0     H12159   5.628   9.097   8.147  0.4848  1.4353  1.2292
  831MOL0     H12160   5.581   9.204   8.007  0.6446 -1.4403 -0.3366
  831MOL0     H12161   5.575   9.237   8.302  1.6734 -3.8371 -2.0807
  831MOL0     H12162   5.460   9.328   8.208 -0.1497 -2.6582  0.3579
  831MOL0     H12163   5.655   9.431   8.071 -1.9912 -0.3722  1.0278
  831MOL0     H12164   5.678   9.467   8.245 -0.7740 -0.2223  0.2278
  831MOL0     H12165   4.740   9.120   7.671 -0.6646  1.2138 -0.1308
  831MOL0     H12166   4.518   9.041   7.663  0.1294  3.9683 -2.2524
  831MOL0     H12167   4.186   8.722   7.744  1.0750  0.1355  3.9063
  831MOL0     H12168   3.937   8.687   7.692 -0.7557  0.6788 -2.0291
  831MOL0     H12169   2.542   7.536   7.215  1.0212 -0.4547  0.8596
  831MOL0     H12170   2.330   7.539   7.058 -0.0146  0.5373 -5.2027
  831MOL0     H12171   2.053   7.766   6.835  1.5658 -0.0841  0.5903
  831MOL0     H12172   1.826   7.779   6.705 -0.2173 -2.0945  0.3143
  831MOL0     H12173   1.822   7.670   6.271 -0.4995  1.1669 -1.7573
  831MOL0     H12174   1.851   7.845   6.300  1.4138  0.6274  2.6027
  831MOL0     H12175   1.606   7.868   6.332  2.3785  0.2611  0.5854
  831MOL0     H12176   1.584   7.688   6.332 -3.2306  1.9559  0.0595
  831MOL0     H12177   1.637   7.676   6.098  0.3570  0.0994  0.0969
  831MOL0     H12178   1.686   7.857   6.099  1.9492 -0.1296 -0.1762
  831MOL0     H12179   1.411   7.751   6.165  1.6511 -1.0399  0.1941
  831MOL0     H12180   1.462   7.911   6.153 -0.4275  0.4002 -0.5253
  831MOL0     H12181   1.378   7.803   5.747 -0.6540 -0.3327  0.1862
  831MOL0     H12182   2.049   7.703   6.356 -0.5454 -0.0325 -0.1982
  831MOL0     H12183   2.282   7.625   6.379 -0.1467  0.8940  0.6275
  831MOL0     H12184   2.347   7.788   6.415  0.9975  0.6350  0.5909
  831MOL0     H12185   2.376   7.655   6.528  2.4994 -0.3864 -1.1224
  832MOL0     O12186   0.498   5.731   2.142  0.3104 -0.3268  0.1346
  832MOL0     C12187   0.445   5.836   2.103  0.1741  0.0375  0.3999
  832MOL0     O12188   0.507   5.955   2.077 -0.5311 -0.4708  0.1371
  832MOL0     C12189   0.642   5.969   2.072  0.6078 -0.0483 -0.4229
  832MOL0     C12190   0.724   5.863   2.037  0.6404 -0.2055 -0.2395
  832MOL0     C12191   0.864   5.888   2.042 -0.4386 -0.8984 -0.4860
  832MOL0     C12192   0.917   6.012   2.066 -0.2342  0.1941 -0.5634
  832MOL0     O12193   1.053   6.021   2.078 -0.1424 -0.3680  0.7330
  832MOL0     C12194   1.104   6.149   2.035  0.4851 -0.4102 -0.2145
  832MOL0     C12195   1.259   6.122   2.021 -0.0944 -0.1981 -0.5774
  832MOL0     C12196   1.328   6.244   1.985 -0.3334 -0.1233 -0.3348
  832MOL0     C12197   1.478   6.204   1.965 -0.2646 -0.3736 -0.1859
  832MOL0     C12198   1.563   6.315   1.903  0.3181  0.1488  0.1595
  832MOL0     C12199   1.703   6.256   1.879  0.4181 -0.0010 -0.3471
  832MOL0     C12200   1.801   6.350   1.807 -0.3822 -0.2295 -0.4002
  832MOL0     C12201   1.939   6.297   1.787 -0.0780  0.6791 -0.1949
  832MOL0     N12202   1.992   6.260   1.918  0.5519 -0.5868  0.0808
  832MOL0     C12203   2.022   6.353   2.013  0.1468  0.2522  0.3425
  832MOL0     C12204   2.046   6.272   2.123  0.1549  0.3713  0.4939
  832MOL0     C12205   2.111   6.303   2.249  1.0250 -0.2462  0.1257
  832MOL0     C12206   2.260   6.272   2.233  0.3907 -0.0077 -0.1410
  832MOL0     C12207   2.326   6.306   2.368 -0.5988  0.2225 -0.5879
  832MOL0     C12208   2.477   6.294   2.359  0.9426 -0.3914  0.5597
  832MOL0     O12209   2.533   6.383   2.263 -0.1338  0.3056 -0.0226
  832MOL0     C12210   2.670   6.396   2.271  0.5165  0.6319 -0.1219
  832MOL0     C12211   2.731   6.450   2.163 -0.1529 -0.4613  0.1907
  832MOL0     C12212   2.869   6.463   2.158  0.0268  0.3966 -0.1091
  832MOL0     C12213   2.954   6.399   2.250 -0.6111 -0.1059  0.1414
  832MOL0     C12214   3.101   6.415   2.239 -0.0229 -0.9108 -0.4711
  832MOL0     O12215   3.183   6.350   2.334 -0.4968 -0.2114 -0.1056
  832MOL0     C12216   3.318   6.373   2.324  0.1345 -0.0836  0.0206
  832MOL0     C12217   3.411   6.300   2.260  0.2444 -0.1680  0.7297
  832MOL0     C12218   3.548   6.320   2.265 -0.3015 -0.1906  0.6320
  832MOL0     C12219   3.596   6.428   2.336  0.2830 -0.1671 -0.7338
  832MOL0     O12220   3.738   6.447   2.346  0.2059  0.2181  0.1065
  832MOL0     C12221   3.782   6.575   2.393  0.3256  0.5686  0.6866
  832MOL0     C12222   3.924   6.558   2.420 -0.0774  0.5556 -0.1686
  832MOL0     C12223   4.001   6.688   2.434 -0.9643  0.5582 -1.5018
  832MOL0     C12224   3.954   6.768   2.550  0.1450 -0.4928  1.2586
  832MOL0     C12225   4.034   6.897   2.554 -0.5085  0.0236  0.3161
  832MOL0     C12226   4.101   6.916   2.695 -0.2790  0.3643  0.0773
  832MOL0     C12227   4.213   7.032   2.703  0.7171 -0.0212  0.7932
  832MOL0     C12228   4.253   7.056   2.851  0.1084  0.2443  0.2189
  832MOL0    Cl12229   4.310   6.919   2.953 -0.1439 -0.3060  0.0054
  832MOL0     C12230   3.498   6.517   2.397 -0.3873 -0.0997  0.4841
  832MOL0     C12231   3.363   6.490   2.388 -0.1502 -0.0482 -0.3467
  832MOL0     O12232   3.143   6.469   2.141 -0.2232  0.1129  0.3255
  832MOL0     C12233   2.899   6.334   2.358 -0.6612 -0.1276  0.4467
  832MOL0     C12234   2.755   6.339   2.370 -0.1434 -0.0047  0.0561
  832MOL0     N12235   2.036   6.139   2.094  0.5093 -0.0563  0.2619
  832MOL0     N12236   1.999   6.131   1.974 -0.2322  0.1302  0.1040
  832MOL0     C12237   0.828   6.118   2.099 -0.8328 -0.3552  0.6662
  832MOL0     C12238   0.689   6.100   2.096 -0.3285  0.2883  0.0319
  832MOL0     C12239   0.298   5.821   2.079  0.0135 -0.0901  0.1128
  832MOL0     C12240   0.232   5.720   2.144 -0.2559  0.3477 -0.0188
  832MOL0     C12241   0.098   5.688   2.123 -0.5526 -0.9504  0.7244
  832MOL0     C12242   0.025   5.763   2.033  0.3874 -0.2375 -0.1066
  832MOL0     O12243  -0.108   5.731   2.012 -0.6296  0.9301  0.3195
  832MOL0     C12244  -0.197   5.793   2.098  1.0780 -0.0767 -0.0482
  832MOL0     C12245  -0.258   5.690   2.193  0.4517 -0.2276 -0.0040
  832MOL0     C12246  -0.324   5.576   2.109  0.0909 -0.3410 -0.6151
  832MOL0     C12247  -0.440   5.615   2.019 -0.2645  0.1141  0.2802
  832MOL0     C12248  -0.535   5.703   2.092 -0.0667  0.4432 -0.0407
  832MOL0     C12249  -0.597   5.770   2.165 -0.1114 -0.2576  0.2756
  832MOL0     C12250   0.086   5.868   1.964  0.0604  0.3928 -0.0115
  832MOL0     C12251   0.231   5.894   1.981 -0.0723  0.2887  0.1993
  832MOL0     C12252   0.302   6.007   1.900  0.0370  0.5169 -1.0164
  832MOL0     H12253   0.689   5.763   2.014  2.7073 -0.8798 -0.6487
  832MOL0     H12254   0.930   5.809   2.010 -1.8298 -2.2190 -0.2046
  832MOL0     H12255   1.062   6.173   1.937  2.3337 -0.7335 -1.1387
  832MOL0     H12256   1.080   6.237   2.096  0.9419 -0.2707 -0.2342
  832MOL0     H12257   1.277   6.045   1.945  1.7169  1.2431 -1.6994
  832MOL0     H12258   1.298   6.083   2.115  1.8994 -2.1576 -2.0976
  832MOL0     H12259   1.299   6.300   2.074 -2.8763 -0.6369 -0.7681
  832MOL0     H12260   1.294   6.294   1.894 -1.4247 -2.4349 -1.2863
  832MOL0     H12261   1.522   6.171   2.059 -0.3236 -2.9713 -0.9853
  832MOL0     H12262   1.485   6.121   1.894  1.9588 -1.8428  1.6167
  832MOL0     H12263   1.512   6.349   1.812  0.3423 -1.5005 -0.5094
  832MOL0     H12264   1.577   6.397   1.973  0.0194 -0.0489  0.4530
  832MOL0     H12265   1.732   6.215   1.976 -1.5163 -4.1965 -1.3323
  832MOL0     H12266   1.703   6.172   1.809  4.0784 -0.0942 -0.4415
  832MOL0     H12267   1.809   6.440   1.869 -1.9165  0.1920 -0.7759
  832MOL0     H12268   1.752   6.365   1.711  1.0341 -1.2879 -1.3259
  832MOL0     H12269   1.926   6.218   1.712 -2.8948 -0.0568  0.9516
  832MOL0     H12270   2.007   6.370   1.742 -1.1618 -0.0560 -3.2076
  832MOL0     H12271   2.051   6.457   2.003 -0.7297  0.3165 -2.2265
  832MOL0     H12272   2.097   6.408   2.276 -0.7874  0.1107 -1.8643
  832MOL0     H12273   2.065   6.244   2.328  2.6793 -2.0343 -0.1851
  832MOL0     H12274   2.286   6.171   2.202  4.0895 -0.7986  4.4934
  832MOL0     H12275   2.300   6.342   2.159 -1.7352 -1.0578 -2.4425
  832MOL0     H12276   2.294   6.237   2.447  2.1898 -1.5652 -0.9082
  832MOL0     H12277   2.300   6.411   2.389 -1.9532 -0.1125 -0.4566
  832MOL0     H12278   2.505   6.190   2.345 -0.0846 -0.7234  0.8803
  832MOL0     H12279   2.517   6.313   2.459  0.6095 -1.0373  0.8181
  832MOL0     H12280   2.675   6.495   2.082  0.6878  1.2297  0.4957
  832MOL0     H12281   2.910   6.524   2.078  0.8980  0.4903  0.3965
  832MOL0     H12282   3.373   6.213   2.207  0.9147 -1.8136  2.7616
  832MOL0     H12283   3.624   6.258   2.219  1.7926 -0.6957  4.4033
  832MOL0     H12284   3.769   6.652   2.317  1.7372 -1.1043 -1.3326
  832MOL0     H12285   3.734   6.602   2.488 -1.2559 -0.1243  0.1238
  832MOL0     H12286   3.934   6.494   2.508  1.5717 -1.3516 -1.6536
  832MOL0     H12287   3.970   6.504   2.337  3.4567 -1.7149  2.9658
  832MOL0     H12288   4.106   6.661   2.448 -0.7675  1.4487 -1.2467
  832MOL0     H12289   3.987   6.743   2.341  1.4741  0.5998 -1.9102
  832MOL0     H12290   3.969   6.700   2.634 -0.1222 -0.3964  1.3878
  832MOL0     H12291   3.848   6.796   2.559  0.1734 -0.2281  0.7931
  832MOL0     H12292   3.975   6.986   2.532  2.2558  1.8792 -0.2378
  832MOL0     H12293   4.121   6.900   2.487  0.7696  3.9027  1.8036
  832MOL0     H12294   4.017   6.940   2.761 -1.5907 -3.7505  0.2401
  832MOL0     H12295   4.133   6.816   2.727 -0.8777 -0.3301 -1.3850
  832MOL0     H12296   4.159   7.114   2.655  0.7197  0.6568  1.9173
  832MOL0     H12297   4.299   6.996   2.646  1.0691  1.3637  0.4203
  832MOL0     H12298   4.327   7.136   2.854 -1.2864  1.5545  0.8825
  832MOL0     H12299   4.161   7.092   2.898 -0.7430 -1.0037 -0.4126
  832MOL0     H12300   3.531   6.601   2.458 -1.0054 -0.3259  1.1503
  832MOL0     H12301   3.301   6.553   2.450  0.4468  0.4062 -0.2010
  832MOL0     H12302   2.953   6.283   2.437  0.4316  0.9865  0.4583
  832MOL0     H12303   2.714   6.297   2.462 -2.7783 -0.2546 -1.1445
  832MOL0     H12304   0.854   6.222   2.120 -3.3738  0.0254  2.3099
  832MOL0     H12305   0.621   6.182   2.122  0.0291  1.1755 -1.7016
  832MOL0     H12306   0.285   5.648   2.207 -1.4309 -0.8155 -0.3164
  832MOL0     H12307   0.055   5.603   2.174  3.9358 -3.9323  0.0660
  832MOL0     H12308  -0.278   5.827   2.033  1.9412  0.5764 -0.8253
  832MOL0     H12309  -0.162   5.880   2.154  0.6319  0.6710 -0.9198
  832MOL0     H12310  -0.326   5.744   2.259  1.5990 -0.8349  1.7446
  832MOL0     H12311  -0.182   5.647   2.258 -0.8122 -2.9425 -0.1613
  832MOL0     H12312  -0.362   5.498   2.175  0.4269  0.3455  0.4130
  832MOL0     H12313  -0.249   5.531   2.043  1.1784 -0.1015  0.4189
  832MOL0     H12314  -0.403   5.668   1.931 -2.6920  0.6838 -0.4831
  832MOL0     H12315  -0.491   5.526   1.981 -2.3529  1.8239 -1.1969
  832MOL0     H12316  -0.655   5.837   2.225 -0.2541 -0.2099  0.0812
  832MOL0     H12317   0.024   5.926   1.895 -0.4421 -0.2881 -0.1391
  832MOL0     H12318   0.392   5.986   1.841  1.4377  0.0308  1.1986
  832MOL0     H12319   0.227   6.045   1.829 -1.5809  0.7645  0.7385
  832MOL0     H12320   0.327   6.093   1.962 -0.7508  2.1719 -2.8699
  833MOL0     O12321   7.519   0.850   2.123  0.7508  0.0474  0.2888
  833MOL0     C12322   7.407   0.867   2.080 -0.0353  0.4580  0.5242
  833MOL0     O12323   7.369   0.925   1.956 -0.5050 -0.1231  1.1518
  833MOL0     C12324   7.487   0.949   1.891 -0.9741 -0.0088 -0.1427
  833MOL0     C12325   7.557   1.062   1.919  1.4341 -0.0657 -0.4678
  833MOL0     C12326   7.676   1.095   1.852  0.1835 -0.6813  0.0124
  833MOL0     C12327   7.725   1.012   1.743 -0.2774  0.0965 -0.6364
  833MOL0     O12328   7.835   1.027   1.667  0.1346  0.2940  0.2770
  833MOL0     C12329   7.927   1.130   1.703  0.6084  0.2540  0.3423
  833MOL0     C12330   8.053   1.106   1.631 -0.3427 -0.4227  0.1980
  833MOL0     C12331   8.052   1.165   1.486  1.1428  0.5627  0.4574
  833MOL0     C12332   8.181   1.148   1.404 -0.2934  0.0627 -0.0899
  833MOL0     C12333   8.301   1.224   1.462 -0.2024  0.5027 -0.4932
  833MOL0     C12334   8.423   1.177   1.383 -0.3286  0.9050 -0.2704
  833MOL0     C12335   8.538   1.229   1.470  0.2277  0.0365  0.1316
  833MOL0     C12336   8.668   1.200   1.400 -0.4389  0.9052 -0.4068
  833MOL0     N12337   8.699   1.061   1.416  0.5297  0.2279  0.1014
  833MOL0     C12338   8.778   1.008   1.514 -0.4658  0.1080  0.9274
  833MOL0     C12339   8.791   0.877   1.469  0.7137 -0.3433 -0.3916
  833MOL0     C12340   8.870   0.776   1.548 -0.4499  0.3454  0.1917
  833MOL0     C12341   8.940   0.677   1.449  0.0090 -0.3000 -0.8250
  833MOL0     C12342   9.005   0.561   1.526 -0.3455 -0.3128  0.5990
  833MOL0     C12343   9.012   0.431   1.445  0.5218  0.1247 -0.7079
  833MOL0     O12344   9.105   0.456   1.338  0.0319  0.3115 -0.2895
  833MOL0     C12345   9.241   0.431   1.360 -1.0925 -0.7243  0.3345
  833MOL0     C12346   9.296   0.369   1.473 -0.2053 -0.3103  0.2560
  833MOL0     C12347   9.430   0.346   1.495 -1.0854 -0.4091  0.1985
  833MOL0     C12348   9.518   0.376   1.384 -0.5312 -0.0163  0.6552
  833MOL0     C12349   9.660   0.363   1.395 -0.2553 -0.6812  0.9535
  833MOL0     O12350   9.730   0.380   1.276 -1.6059 -0.0334  0.6259
  833MOL0     C12351   9.871   0.385   1.285  0.4523 -0.5943 -0.5580
  833MOL0     C12352   9.944   0.427   1.394  0.1545 -0.2894 -0.7318
  833MOL0     C12353  10.089   0.450   1.380  0.2803  0.5369 -0.1273
  833MOL0     C12354  10.142   0.429   1.256 -0.7633  0.1001 -0.1699
  833MOL0     O12355  10.277   0.455   1.252 -1.0068  0.4028  0.3610
  833MOL0     C12356  10.342   0.474   1.126 -0.1516 -0.4344 -0.3964
  833MOL0     C12357  10.483   0.532   1.139 -0.2489 -0.3217 -0.5876
  833MOL0     C12358  10.586   0.497   1.038 -0.4481  0.6699 -0.9141
  833MOL0     C12359  10.726   0.509   1.102  0.6172 -0.0561 -0.9405
  833MOL0     C12360  10.837   0.526   0.994 -0.3232 -0.5445 -0.4168
  833MOL0     C12361  10.956   0.570   1.064  0.4535 -0.1837  0.2830
  833MOL0     C12362  11.047   0.651   0.969 -0.1994 -0.3083 -0.0186
  833MOL0     C12363  11.171   0.694   1.048  0.1118 -0.1924 -0.2057
  833MOL0    Cl12364  11.268   0.807   0.946  0.0049  0.1352  0.0647
  833MOL0     C12365  10.071   0.378   1.152 -1.3445 -0.2250 -0.0140
  833MOL0     C12366   9.933   0.350   1.162  0.4244  0.1158  0.9861
  833MOL0     O12367   9.709   0.326   1.503 -0.2220 -0.0434  0.5719
  833MOL0     C12368   9.464   0.441   1.270  0.0528 -1.2194 -0.7594
  833MOL0     C12369   9.322   0.463   1.250 -0.1724 -0.2486 -0.6724
  833MOL0     N12370   8.729   0.865   1.351 -0.5447  0.5288 -0.3485
  833MOL0     N12371   8.662   0.971   1.318 -0.3394  0.2346  0.5105
  833MOL0     C12372   7.655   0.899   1.711  0.0820  0.1869 -0.2119
  833MOL0     C12373   7.533   0.863   1.783  0.8294  0.4187  0.3347
  833MOL0     C12374   7.309   0.817   2.169 -0.2838 -0.1184  0.2044
  833MOL0     C12375   7.182   0.777   2.111 -0.2325  0.0395  0.1149
  833MOL0     C12376   7.079   0.712   2.183  0.4080 -0.9082  0.4483
  833MOL0     C12377   7.096   0.686   2.311 -0.8073 -0.3100  0.0531
  833MOL0     O12378   7.000   0.616   2.373 -0.4819  0.2879  0.4789
  833MOL0     C12379   6.906   0.691   2.448 -0.2410  0.0680  0.2881
  833MOL0     C12380   6.755   0.714   2.391  0.1453 -0.1388 -0.5351
  833MOL0     C12381   6.669   0.791   2.500 -0.1478 -0.2675  0.1830
  833MOL0     C12382   6.532   0.830   2.444  0.1475 -0.4129 -1.3079
  833MOL0     C12383   6.450   0.718   2.388  0.3845 -0.0904 -0.3378
  833MOL0     C12384   6.376   0.633   2.345  0.9129  0.8563  1.2891
  833MOL0     C12385   7.217   0.728   2.373  0.0794 -0.3020 -0.4217
  833MOL0     C12386   7.318   0.792   2.303 -0.4234 -0.5569 -0.9854
  833MOL0     C12387   7.443   0.833   2.382  0.5228 -0.8157  0.1172
  833MOL0     H12388   7.510   1.126   1.994  2.7292 -1.0246  1.2418
  833MOL0     H12389   7.721   1.190   1.877 -1.5181 -0.0334  0.7930
  833MOL0     H12390   7.880   1.223   1.671  0.5823  0.4136  0.8458
  833MOL0     H12391   7.947   1.127   1.810  0.3418 -1.4537  0.3837
  833MOL0     H12392   8.059   0.997   1.626 -1.6776 -0.4788 -0.3341
  833MOL0     H12393   8.137   1.145   1.690 -1.3700  1.7319  0.3107
  833MOL0     H12394   8.030   1.272   1.494  1.1010  0.4830  1.5477
  833MOL0     H12395   7.980   1.108   1.428  0.0249  1.3460  1.0341
  833MOL0     H12396   8.203   1.042   1.412 -1.6434 -0.2293  0.0507
  833MOL0     H12397   8.165   1.185   1.303  0.9037  2.4742  0.5160
  833MOL0     H12398   8.277   1.330   1.448 -0.2860  0.3488 -1.6240
  833MOL0     H12399   8.317   1.212   1.569 -0.0732 -1.0410 -0.6630
  833MOL0     H12400   8.421   1.068   1.375 -0.1607  0.9334 -0.7669
  833MOL0     H12401   8.425   1.226   1.285 -0.3734 -0.7816 -1.1588
  833MOL0     H12402   8.547   1.189   1.572 -2.8820 -0.0953  0.4410
  833MOL0     H12403   8.540   1.338   1.480  1.9814  0.0008  0.6186
  833MOL0     H12404   8.665   1.216   1.292 -1.8244 -1.3072 -0.7668
  833MOL0     H12405   8.746   1.269   1.434 -1.7071  1.9739  0.4379
  833MOL0     H12406   8.820   1.075   1.588 -0.7389 -0.0346  1.2105
  833MOL0     H12407   8.946   0.818   1.615 -0.4277  2.1767 -0.9170
  833MOL0     H12408   8.799   0.721   1.611 -0.7082 -0.6473 -0.9260
  833MOL0     H12409   8.856   0.641   1.388  0.0783 -1.5860 -0.1941
  833MOL0     H12410   9.008   0.720   1.375  0.2265  0.7662 -0.0177
  833MOL0     H12411   8.948   0.538   1.617  0.1595 -1.6822  0.5850
  833MOL0     H12412   9.108   0.587   1.552 -0.3068  1.4323 -1.0373
  833MOL0     H12413   8.917   0.390   1.409  0.3996  0.8167 -1.1964
  833MOL0     H12414   9.051   0.346   1.502  0.9662 -0.2911 -1.6045
  833MOL0     H12415   9.239   0.342   1.561  1.7820  2.5212  2.6087
  833MOL0     H12416   9.463   0.305   1.590 -1.1606  2.2458  1.4489
  833MOL0     H12417   9.900   0.457   1.489 -1.0095 -3.1611 -0.2636
  833MOL0     H12418  10.142   0.490   1.466  0.1759 -0.0828  0.2342
  833MOL0     H12419  10.352   0.377   1.076  2.8495  0.5848 -2.0074
  833MOL0     H12420  10.283   0.546   1.069 -2.0042 -0.7128  1.0915
  833MOL0     H12421  10.481   0.642   1.136  3.6971 -0.1139 -0.0871
  833MOL0     H12422  10.521   0.500   1.236 -2.0264 -0.5542  0.0676
  833MOL0     H12423  10.580   0.394   1.002 -1.3883 -0.0780  1.1711
  833MOL0     H12424  10.579   0.555   0.946 -0.2761  2.2080 -0.0047
  833MOL0     H12425  10.742   0.426   1.171 -0.3083 -1.4938 -2.3746
  833MOL0     H12426  10.717   0.600   1.161 -1.5508 -0.3291 -0.7283
  833MOL0     H12427  10.813   0.600   0.917  3.1684 -0.3472 -1.4805
  833MOL0     H12428  10.855   0.427   0.950 -0.4365 -0.4668 -0.6405
  833MOL0     H12429  10.933   0.625   1.156 -2.7515 -2.7691  1.2598
  833MOL0     H12430  11.010   0.484   1.106  1.2693  0.8593  1.4225
  833MOL0     H12431  10.992   0.739   0.932  0.9619 -0.2184 -1.6168
  833MOL0     H12432  11.090   0.593   0.887  4.6329  2.5734  0.0856
  833MOL0     H12433  11.142   0.739   1.143  0.8348 -0.6104  0.2237
  833MOL0     H12434  11.223   0.601   1.074 -2.0583 -1.3142  0.3706
  833MOL0     H12435  10.132   0.355   1.065 -1.4163 -2.0168  0.3822
  833MOL0     H12436   9.886   0.335   1.065  1.8433 -0.5935  0.3712
  833MOL0     H12437   9.521   0.475   1.184  0.8331  2.6315  1.0554
  833MOL0     H12438   9.281   0.505   1.159 -0.0373  1.7662  0.1453
  833MOL0     H12439   7.701   0.834   1.637 -3.1305 -1.8690 -0.6169
  833MOL0     H12440   7.477   0.774   1.754 -0.4226  2.2652 -3.6434
  833MOL0     H12441   7.154   0.799   2.009  2.2777  1.2841 -0.3882
  833MOL0     H12442   6.990   0.685   2.127 -0.2389  1.1426  0.4111
  833MOL0     H12443   6.952   0.786   2.479  0.0311  1.3334 -3.4373
  833MOL0     H12444   6.892   0.631   2.538 -1.1434 -1.2878 -0.7144
  833MOL0     H12445   6.718   0.617   2.356  1.2356  0.0167 -2.2342
  833MOL0     H12446   6.755   0.775   2.300  1.6701 -0.7883 -1.0026
  833MOL0     H12447   6.730   0.874   2.537 -0.2192 -0.6713  1.2596
  833MOL0     H12448   6.657   0.734   2.593  1.9072  0.2204  0.8031
  833MOL0     H12449   6.486   0.875   2.532  3.0011 -0.3632  0.2825
  833MOL0     H12450   6.546   0.919   2.382  1.2166  0.6972  0.4599
  833MOL0     H12451   6.315   0.564   2.289 -0.1005  2.2296  0.6414
  833MOL0     H12452   7.237   0.709   2.478  2.5918  2.2262 -0.3209
  833MOL0     H12453   7.489   0.925   2.345 -0.5966 -0.9736 -1.7944
  833MOL0     H12454   7.412   0.867   2.481  0.3221 -0.0164 -0.2082
  833MOL0     H12455   7.523   0.759   2.374  1.6954  0.6038 -2.7824
  834MOL0     O12456   7.810   3.198   1.123 -0.4626 -0.4584 -0.3895
  834MOL0     C12457   7.714   3.274   1.101  0.7253  0.4199 -0.4308
  834MOL0     O12458   7.724   3.389   1.019  0.0765  0.1914  0.8500
  834MOL0     C12459   7.837   3.389   0.955 -0.8280 -0.1031  0.1749
  834MOL0     C12460   7.826   3.374   0.819  1.0080 -0.1352 -0.2484
  834MOL0     C12461   7.943   3.381   0.746  0.5077  0.9955 -0.0480
  834MOL0     C12462   8.068   3.420   0.808 -0.1194  0.2293 -0.9460
  834MOL0     O12463   8.180   3.438   0.722 -1.0192  0.1451  0.2266
  834MOL0     C12464   8.304   3.504   0.764  0.9650 -0.2081 -0.2104
  834MOL0     C12465   8.410   3.509   0.655 -0.1778 -0.4262 -0.1041
  834MOL0     C12466   8.537   3.583   0.708 -0.9603 -0.7514 -0.9179
  834MOL0     C12467   8.642   3.603   0.598 -0.1916 -0.1160 -0.5721
  834MOL0     C12468   8.776   3.635   0.664  0.6865  1.0405  0.0014
  834MOL0     C12469   8.884   3.685   0.563  1.1714 -0.4606 -1.0470
  834MOL0     C12470   9.023   3.682   0.628  0.0893  0.4655  0.9614
  834MOL0     C12471   9.143   3.687   0.529  0.1525 -0.2471 -0.2590
  834MOL0     N12472   9.254   3.766   0.577  0.7229 -0.4406 -0.3542
  834MOL0     C12473   9.301   3.776   0.707  0.9529 -0.4089 -0.7069
  834MOL0     C12474   9.428   3.829   0.693  0.2828  0.3354 -1.0091
  834MOL0     C12475   9.517   3.856   0.811  0.4281  0.3568 -0.4513
  834MOL0     C12476   9.600   3.988   0.791  0.4943 -0.5627 -0.0604
  834MOL0     C12477   9.694   4.010   0.909 -0.1162 -0.2893 -0.4303
  834MOL0     C12478   9.777   3.898   0.940 -0.9683  0.7260  0.0365
  834MOL0     O12479   9.873   3.935   1.051  0.4627  0.2037  0.0559
  834MOL0     C12480  10.008   3.956   1.020 -0.1968  0.6819 -0.0154
  834MOL0     C12481  10.092   3.918   1.121  0.5897  1.2283  0.1029
  834MOL0     C12482  10.226   3.927   1.106 -0.2025  0.2832 -0.4988
  834MOL0     C12483  10.285   3.986   0.998 -1.3469  0.8599 -0.1919
  834MOL0     C12484  10.432   3.993   0.993 -0.4054 -0.4728 -0.0878
  834MOL0     O12485  10.500   3.939   1.097  0.3407 -0.4339  0.4765
  834MOL0     C12486  10.622   3.978   1.134 -0.0622  1.0320 -0.4803
  834MOL0     C12487  10.642   4.107   1.179  0.0830  0.2325 -0.4497
  834MOL0     C12488  10.772   4.156   1.216 -0.1760  0.7775  1.6649
  834MOL0     C12489  10.885   4.080   1.194  0.1030 -0.1156  0.2379
  834MOL0     O12490  11.008   4.132   1.222 -0.3179  0.1212 -0.4200
  834MOL0     C12491  11.117   4.069   1.151  0.5864  0.9595 -0.3184
  834MOL0     C12492  11.237   4.156   1.149 -0.6598 -0.3130 -0.0937
  834MOL0     C12493  11.368   4.096   1.114 -0.6313  0.0933 -0.4302
  834MOL0     C12494  11.489   4.142   1.205  0.7142  0.9382 -0.0528
  834MOL0     C12495  11.622   4.090   1.143 -0.1821 -0.0753  0.3931
  834MOL0     C12496  11.647   3.942   1.168 -0.3838  0.0633 -0.3658
  834MOL0     C12497  11.790   3.879   1.147  0.7370 -0.6909 -0.1870
  834MOL0     C12498  11.836   3.882   1.002 -0.5906 -0.5196 -0.0661
  834MOL0    Cl12499  11.858   4.045   0.950  0.0738  0.4949 -0.5435
  834MOL0     C12500  10.861   3.945   1.153 -0.1386  0.3879  0.4083
  834MOL0     C12501  10.733   3.892   1.132  0.5555 -0.0715  0.9354
  834MOL0     O12502  10.488   4.061   0.909 -0.0934  0.1821  0.3386
  834MOL0     C12503  10.200   4.029   0.895 -0.2801 -0.3208  0.2833
  834MOL0     C12504  10.061   4.013   0.902  0.0145  0.3213  0.1464
  834MOL0     N12505   9.462   3.833   0.561  0.4535  0.1726 -0.1145
  834MOL0     N12506   9.358   3.783   0.503 -0.8290 -0.7257  0.0500
  834MOL0     C12507   8.076   3.436   0.940 -0.1116 -0.4474 -0.4361
  834MOL0     C12508   7.961   3.422   1.018  0.2967 -0.0700  0.3749
  834MOL0     C12509   7.585   3.250   1.171 -0.1265  0.5445 -0.0181
  834MOL0     C12510   7.471   3.313   1.110 -1.2316 -0.2324  0.1521
  834MOL0     C12511   7.336   3.296   1.170  0.5738  0.3722  0.5165
  834MOL0     C12512   7.328   3.212   1.277  0.1271  0.0920 -0.5281
  834MOL0     O12513   7.204   3.187   1.328 -0.4283  0.1630  0.0377
  834MOL0     C12514   7.146   3.069   1.282 -0.2065 -0.1245 -0.3740
  834MOL0     C12515   6.990   3.083   1.257 -0.3529  0.5757  0.4548
  834MOL0     C12516   6.939   3.210   1.183  0.1799  0.1843  0.4575
  834MOL0     C12517   6.816   3.194   1.103 -0.7765 -0.3129  0.4399
  834MOL0     C12518   6.705   3.145   1.179 -0.2166 -0.1127  0.4340
  834MOL0     C12519   6.621   3.092   1.245  0.2545 -0.3672  0.2992
  834MOL0     C12520   7.438   3.151   1.338  0.4138  0.6684 -0.2833
  834MOL0     C12521   7.564   3.163   1.286  0.7020  0.7521 -0.6928
  834MOL0     C12522   7.674   3.073   1.351 -0.1382 -0.1100  0.4287
  834MOL0     H12523   7.737   3.336   0.770  2.9071 -1.4208 -2.9413
  834MOL0     H12524   7.937   3.358   0.640  1.4015 -1.7057  0.4134
  834MOL0     H12525   8.277   3.607   0.789 -1.8218 -0.3817 -2.0226
  834MOL0     H12526   8.348   3.455   0.851  0.2454  1.3857  1.0877
  834MOL0     H12527   8.365   3.570   0.577 -1.0601  2.1498  2.2601
  834MOL0     H12528   8.434   3.408   0.620 -0.7584  0.8364 -4.7561
  834MOL0     H12529   8.574   3.530   0.796  0.1973  1.9447  0.3483
  834MOL0     H12530   8.514   3.675   0.762  1.1846  0.7302 -2.3562
  834MOL0     H12531   8.650   3.506   0.547  0.4260 -0.4663  0.1589
  834MOL0     H12532   8.613   3.684   0.530 -0.9405  2.4721  2.5904
  834MOL0     H12533   8.763   3.689   0.759  0.0109 -2.6252  2.2085
  834MOL0     H12534   8.820   3.540   0.696  0.9424  0.3868 -2.1401
  834MOL0     H12535   8.884   3.622   0.473 -0.5915 -2.0532 -0.0291
  834MOL0     H12536   8.864   3.785   0.524 -1.4989 -0.0820  1.0138
  834MOL0     H12537   9.045   3.589   0.682  0.8940 -0.5087 -0.9179
  834MOL0     H12538   9.043   3.767   0.693  1.9459  2.2006 -1.6840
  834MOL0     H12539   9.168   3.581   0.515  1.5733 -0.1959  1.5026
  834MOL0     H12540   9.115   3.735   0.435  1.8176  2.5655  0.5543
  834MOL0     H12541   9.258   3.744   0.802  2.9440  2.3599  1.3069
  834MOL0     H12542   9.464   3.863   0.906 -0.1199  0.3900 -0.7602
  834MOL0     H12543   9.591   3.775   0.814  0.2705  0.2343  0.7029
  834MOL0     H12544   9.661   3.980   0.700  1.1994  1.4888  0.1800
  834MOL0     H12545   9.528   4.065   0.764  0.2075 -1.9320 -3.8331
  834MOL0     H12546   9.634   4.035   0.997 -0.5885  0.3590 -0.9174
  834MOL0     H12547   9.748   4.103   0.886 -1.6830  0.3626 -1.7175
  834MOL0     H12548   9.832   3.876   0.848 -1.5736 -1.1333  0.0800
  834MOL0     H12549   9.710   3.818   0.972  1.4837 -2.2251 -1.6883
  834MOL0     H12550  10.047   3.873   1.209  1.2982  2.1930  0.9902
  834MOL0     H12551  10.298   3.901   1.183  2.6484  2.9540 -2.0614
  834MOL0     H12552  10.558   4.167   1.212 -0.1904  0.5143 -1.6192
  834MOL0     H12553  10.776   4.255   1.260  2.5319  1.6500 -0.2528
  834MOL0     H12554  11.145   3.971   1.192  0.4065  1.1584  0.2837
  834MOL0     H12555  11.095   4.061   1.044 -0.3168 -1.0131 -0.0354
  834MOL0     H12556  11.218   4.238   1.079  3.5594  3.4624  2.6759
  834MOL0     H12557  11.246   4.195   1.251 -0.9230 -0.5074  0.0069
  834MOL0     H12558  11.368   3.987   1.104 -2.0253  0.0848 -0.5281
  834MOL0     H12559  11.404   4.131   1.017  0.5544  2.9018  0.9054
  834MOL0     H12560  11.485   4.099   1.305 -1.7329  0.9411 -0.1016
  834MOL0     H12561  11.489   4.252   1.204 -0.0625  1.0659  3.2609
  834MOL0     H12562  11.702   4.138   1.199  2.2027  0.2106 -2.9641
  834MOL0     H12563  11.622   4.105   1.035  1.8927  0.1316  0.3963
  834MOL0     H12564  11.608   3.913   1.266 -0.3987  1.3193  0.0282
  834MOL0     H12565  11.587   3.883   1.099 -0.8597  0.5082 -0.3364
  834MOL0     H12566  11.781   3.773   1.173  0.3722 -0.2982  1.4663
  834MOL0     H12567  11.861   3.931   1.212 -0.9802  2.7082 -0.8014
  834MOL0     H12568  11.934   3.835   0.991 -0.6919 -0.1321 -3.9105
  834MOL0     H12569  11.762   3.836   0.935  0.2672 -1.3960 -0.4456
  834MOL0     H12570  10.938   3.869   1.143 -0.0427  0.7914 -3.2859
  834MOL0     H12571  10.721   3.787   1.105 -3.2974  0.3796  0.2413
  834MOL0     H12572  10.238   4.060   0.798 -0.1360 -1.2196  0.0439
  834MOL0     H12573   9.988   4.034   0.824  1.5067  2.5411 -0.7620
  834MOL0     H12574   8.165   3.458   0.998 -0.6121 -0.0386  0.1816
  834MOL0     H12575   7.953   3.429   1.126 -2.1254  0.0239  0.2500
  834MOL0     H12576   7.485   3.371   1.020 -1.6132 -0.2648  0.0717
  834MOL0     H12577   7.251   3.337   1.116 -0.0798 -1.5723 -0.0453
  834MOL0     H12578   7.164   2.985   1.348  1.2740  2.0301  2.1748
  834MOL0     H12579   7.193   3.038   1.188  1.1056  1.1180 -0.1712
  834MOL0     H12580   6.937   3.085   1.353  1.0400  0.1461  1.2581
  834MOL0     H12581   6.955   2.987   1.216 -0.8667  0.3130  1.4769
  834MOL0     H12582   7.009   3.251   1.109 -0.8202  0.4928 -0.3340
  834MOL0     H12583   6.939   3.291   1.257  3.8277 -1.1908  2.2378
  834MOL0     H12584   6.789   3.286   1.050  2.5222 -0.2186 -1.3749
  834MOL0     H12585   6.842   3.119   1.028  1.9559 -1.7857  2.6435
  834MOL0     H12586   6.543   3.030   1.286  1.6544 -1.7868  0.9103
  834MOL0     H12587   7.422   3.086   1.424  0.2787  1.0572 -0.0091
  834MOL0     H12588   7.714   3.007   1.273 -1.3695  0.5454 -0.8072
  834MOL0     H12589   7.761   3.135   1.378 -1.1554  1.3513  0.4879
  834MOL0     H12590   7.648   3.020   1.443  0.3484  1.1938  1.3521
  835MOL0     O12591   6.775  11.311   9.338  0.6729 -0.2930  0.0535
  835MOL0     C12592   6.696  11.364   9.427 -0.0263 -0.1069  0.6226
  835MOL0     O12593   6.684  11.499   9.448 -0.2840 -0.3500  0.4799
  835MOL0     C12594   6.784  11.584   9.398 -0.4207 -0.4045 -0.3141
  835MOL0     C12595   6.759  11.701   9.320  0.1625  0.7750  0.4467
  835MOL0     C12596   6.862  11.785   9.264  0.3320 -0.1533  0.5442
  835MOL0     C12597   6.993  11.751   9.290  0.8111  0.0995  0.2042
  835MOL0     O12598   7.082  11.830   9.219  0.0102 -0.5621 -1.4503
  835MOL0     C12599   7.187  11.877   9.297 -0.4797  0.0440 -0.6982
  835MOL0     C12600   7.262  11.975   9.219 -0.7743 -0.4275  0.1621
  835MOL0     C12601   7.366  12.035   9.304  0.8601 -0.5438 -0.2703
  835MOL0     C12602   7.423  12.166   9.236 -0.2385  0.3460  0.5965
  835MOL0     C12603   7.536  12.237   9.309 -0.1610  0.3242 -0.0681
  835MOL0     C12604   7.585  12.362   9.239 -0.9798  0.4091 -0.2821
  835MOL0     C12605   7.709  12.412   9.307 -0.3483  0.1355 -0.2931
  835MOL0     C12606   7.764  12.536   9.227  0.0122 -0.6712 -0.7531
  835MOL0     N12607   7.886  12.593   9.286 -0.1424 -0.9964 -0.6247
  835MOL0     C12608   8.006  12.526   9.297 -0.5257  0.2120  0.6690
  835MOL0     C12609   8.087  12.622   9.347  1.0670  0.2865  0.0686
  835MOL0     C12610   8.228  12.592   9.395 -0.1426  0.4255  0.3561
  835MOL0     C12611   8.355  12.619   9.308  0.7439 -0.3176 -0.0379
  835MOL0     C12612   8.369  12.526   9.179  0.3443  0.7921 -0.9664
  835MOL0     C12613   8.461  12.583   9.062  0.5278 -0.1081 -0.5016
  835MOL0     O12614   8.591  12.630   9.117 -0.3258  0.3287  0.5139
  835MOL0     C12615   8.688  12.545   9.136 -0.1415  0.4798  0.3384
  835MOL0     C12616   8.814  12.605   9.145  0.7880  0.4371 -0.7078
  835MOL0     C12617   8.929  12.522   9.171 -0.5693 -0.4496 -0.9175
  835MOL0     C12618   8.917  12.380   9.180 -0.8240 -0.8269  0.4811
  835MOL0     C12619   9.034  12.298   9.195  0.5459 -0.6989 -0.0687
  835MOL0     O12620   9.147  12.357   9.247 -0.1361 -0.4862 -0.1724
  835MOL0     C12621   9.264  12.301   9.217  0.9052  0.3132  0.1986
  835MOL0     C12622   9.293  12.229   9.101  0.3005  0.3779 -0.3159
  835MOL0     C12623   9.415  12.169   9.074 -0.1867 -1.1571  0.3908
  835MOL0     C12624   9.522  12.177   9.165  0.5756  0.1481  0.2088
  835MOL0     O12625   9.650  12.132   9.124 -0.2008  0.0461 -1.0352
  835MOL0     C12626   9.771  12.127   9.203  0.6050 -0.0258 -0.3138
  835MOL0     C12627   9.849  12.252   9.182 -0.7472  0.0375  0.8597
  835MOL0     C12628   9.958  12.272   9.290  0.1285  0.6219 -0.5383
  835MOL0     C12629  10.025  12.410   9.300 -0.5490  0.1299  0.0023
  835MOL0     C12630  10.119  12.467   9.186  0.2533  0.2828  0.0257
  835MOL0     C12631  10.210  12.576   9.244 -0.4718  0.3190  0.0827
  835MOL0     C12632  10.320  12.611   9.143 -0.4484  0.1135  0.3101
  835MOL0     C12633  10.281  12.638   9.000  1.0018 -0.0723  0.5487
  835MOL0    Cl12634  10.176  12.787   8.985  0.4480  0.1528  0.3370
  835MOL0     C12635   9.497  12.246   9.286  0.4355  0.0411  0.6596
  835MOL0     C12636   9.371  12.304   9.306  0.0647  0.6394  0.1392
  835MOL0     O12637   9.017  12.181   9.160 -1.0900 -0.0323 -0.4731
  835MOL0     C12638   8.791  12.320   9.164  0.6825  0.1639 -0.0638
  835MOL0     C12639   8.678  12.400   9.134 -0.2082 -0.4234 -0.4469
  835MOL0     N12640   8.031  12.744   9.346  0.4385 -0.0422 -0.5122
  835MOL0     N12641   7.908  12.722   9.308  0.3726  0.6490 -0.2045
  835MOL0     C12642   7.026  11.633   9.367  1.0004 -0.2360 -0.1198
  835MOL0     C12643   6.919  11.553   9.418  0.1241  0.6273  0.9575
  835MOL0     C12644   6.604  11.274   9.498 -0.8272 -0.0764  0.1688
  835MOL0     C12645   6.560  11.162   9.427 -0.1844 -0.7803 -0.8044
  835MOL0     C12646   6.448  11.094   9.468 -0.0831 -0.3491  0.2798
  835MOL0     C12647   6.401  11.112   9.591  0.8890  0.1868 -0.1876
  835MOL0     O12648   6.315  11.018   9.639 -0.5343  0.0136  0.6027
  835MOL0     C12649   6.256  11.011   9.771 -0.8661  0.1402 -0.0913
  835MOL0     C12650   6.152  11.121   9.800 -0.3345  0.4873  0.5613
  835MOL0     C12651   6.009  11.066   9.808  0.6322  0.3808  1.0558
  835MOL0     C12652   5.967  10.987   9.941  0.4519 -0.6138 -0.0466
  835MOL0     C12653   6.028  10.859   9.967  0.2709 -0.1479  0.9616
  835MOL0     C12654   6.083  10.758   9.996 -0.1921  0.5514  1.0671
  835MOL0     C12655   6.450  11.217   9.672  0.0847  0.9987 -0.2713
  835MOL0     C12656   6.552  11.304   9.627 -0.2780 -0.2333  0.4274
  835MOL0     C12657   6.580  11.426   9.715 -0.1160  0.1704 -0.8175
  835MOL0     H12658   6.654  11.728   9.309 -0.3405 -1.4755 -0.8632
  835MOL0     H12659   6.837  11.863   9.193  1.8496 -0.5651 -0.5060
  835MOL0     H12660   7.149  11.919   9.390  1.6535 -1.0574  0.7477
  835MOL0     H12661   7.243  11.790   9.334  0.8494  0.1443 -2.3043
  835MOL0     H12662   7.190  12.051   9.187  1.2044  2.4422  1.9827
  835MOL0     H12663   7.312  11.935   9.130 -0.0279  3.3294 -1.3237
  835MOL0     H12664   7.442  11.957   9.320  0.8999 -0.1345  1.7333
  835MOL0     H12665   7.333  12.063   9.404 -1.4767 -2.9159 -0.2657
  835MOL0     H12666   7.469  12.133   9.143  3.8180 -2.2972  3.2001
  835MOL0     H12667   7.341  12.239   9.228 -0.1772  0.4481  0.8957
  835MOL0     H12668   7.506  12.246   9.413  0.3896  1.3746  0.0143
  835MOL0     H12669   7.624  12.173   9.319  0.3495  0.8591 -0.8919
  835MOL0     H12670   7.602  12.333   9.135  0.6326  1.6114 -0.4026
  835MOL0     H12671   7.509  12.441   9.243 -0.0234  1.3103  2.2851
  835MOL0     H12672   7.787  12.335   9.304 -1.4465 -1.1823  1.9789
  835MOL0     H12673   7.701  12.431   9.414  1.9211 -3.6887  0.7579
  835MOL0     H12674   7.788  12.515   9.123  1.9290  2.4238 -1.0606
  835MOL0     H12675   7.690  12.617   9.223  0.0850 -0.5935 -0.5892
  835MOL0     H12676   8.033  12.421   9.286  0.9075  0.6404 -0.2368
  835MOL0     H12677   8.245  12.661   9.478 -0.4103 -0.8371  1.4989
  835MOL0     H12678   8.238  12.491   9.437  2.3412  0.5609  0.2647
  835MOL0     H12679   8.341  12.718   9.262 -2.5080  0.4434  2.2139
  835MOL0     H12680   8.451  12.627   9.359  0.0681  0.9760  1.0952
  835MOL0     H12681   8.268  12.492   9.154  0.1766 -0.3603  1.0389
  835MOL0     H12682   8.422  12.439   9.220  0.7292  1.5250  0.1354
  835MOL0     H12683   8.408  12.660   9.005  1.5337  0.2941 -0.9207
  835MOL0     H12684   8.478  12.501   8.992  1.6305 -0.3513  0.0297
  835MOL0     H12685   8.811  12.711   9.123 -0.0124  0.5736  0.0310
  835MOL0     H12686   9.029  12.561   9.161 -1.5249  1.9009 -1.9766
  835MOL0     H12687   9.226  12.230   9.015 -0.0490 -2.5674 -0.1675
  835MOL0     H12688   9.434  12.124   8.977 -2.8182  0.2852 -0.9298
  835MOL0     H12689   9.756  12.097   9.307 -1.9532  1.7018 -0.0961
  835MOL0     H12690   9.826  12.046   9.153  0.0738 -0.1319 -0.7341
  835MOL0     H12691   9.901  12.246   9.086 -0.1067 -0.0773  1.2082
  835MOL0     H12692   9.780  12.337   9.180  2.3144  2.7789  2.6400
  835MOL0     H12693   9.896  12.255   9.378 -0.2955  1.1537 -0.7332
  835MOL0     H12694  10.037  12.197   9.287 -0.7123 -0.2472 -1.8634
  835MOL0     H12695  10.072  12.425   9.398 -1.4392  3.0246  0.0995
  835MOL0     H12696   9.937  12.475   9.300  0.6274  1.8269 -1.3117
  835MOL0     H12697  10.053  12.487   9.101 -1.6273 -0.4205  1.2363
  835MOL0     H12698  10.179  12.381   9.157 -0.4638 -0.5006  0.7911
  835MOL0     H12699  10.166  12.673   9.268 -1.1767 -0.0428  0.2700
  835MOL0     H12700  10.251  12.535   9.336 -2.1537 -1.5676  0.0475
  835MOL0     H12701  10.381  12.520   9.140 -1.5072 -0.6202  0.5716
  835MOL0     H12702  10.384  12.692   9.181  0.9519 -0.4976 -0.6507
  835MOL0     H12703  10.366  12.663   8.937  0.0744  0.7164 -0.4272
  835MOL0     H12704  10.237  12.549   8.954  0.7371  0.7509 -0.8283
  835MOL0     H12705   9.571  12.257   9.364  0.0028 -0.9103  1.2212
  835MOL0     H12706   9.363  12.367   9.394  2.0232 -0.1096  0.9141
  835MOL0     H12707   8.776  12.213   9.158  1.5517  0.0668 -0.6811
  835MOL0     H12708   8.583  12.354   9.111 -0.7936  1.3737 -1.8858
  835MOL0     H12709   7.131  11.605   9.377  1.1875  0.5391  0.1200
  835MOL0     H12710   6.941  11.459   9.468 -1.6860 -0.1473  0.3757
  835MOL0     H12711   6.606  11.134   9.333  0.1776  0.2105 -0.9373
  835MOL0     H12712   6.419  11.009   9.406 -0.0253  0.4879 -0.9294
  835MOL0     H12713   6.333  11.014   9.849 -2.3689 -0.8242  1.5125
  835MOL0     H12714   6.206  10.913   9.772 -0.3075 -0.1493  0.4601
  835MOL0     H12715   6.160  11.208   9.734 -0.3941 -1.2825 -1.9236
  835MOL0     H12716   6.170  11.169   9.897 -2.6111  0.9930  0.7766
  835MOL0     H12717   5.992  11.001   9.722  1.4170 -1.4550  2.1994
  835MOL0     H12718   5.940  11.150   9.802 -0.3505 -0.5174 -0.7280
  835MOL0     H12719   5.992  11.045  10.030 -0.8438 -0.3022  0.1279
  835MOL0     H12720   5.860  10.968   9.927  0.2590  0.7390 -0.5959
  835MOL0     H12721   6.126  10.661  10.009 -2.0592 -0.7477 -1.5231
  835MOL0     H12722   6.416  11.232   9.774 -1.4248 -1.8042 -0.2650
  835MOL0     H12723   6.684  11.456   9.695 -0.1920  0.7892 -0.3264
  835MOL0     H12724   6.522  11.513   9.684  3.7924  2.0209 -3.9486
  835MOL0     H12725   6.574  11.401   9.821  2.2268 -2.2954 -1.1460
  836MOL0     O12726   2.896   9.852   8.485  1.0024 -0.4890  0.6427
  836MOL0     C12727   2.841   9.900   8.580 -0.4109 -0.6519  0.2395
  836MOL0     O12728   2.903   9.978   8.672 -0.4842 -0.0374 -1.1189
  836MOL0     C12729   3.038   9.971   8.676 -0.2828  0.4089  0.1736
  836MOL0     C12730   3.116  10.094   8.680  0.1037  0.0802  0.4128
  836MOL0     C12731   3.263  10.091   8.670  0.7093  1.2531  0.1378
  836MOL0     C12732   3.328   9.969   8.681 -1.0701 -0.9750 -0.8130
  836MOL0     O12733   3.462   9.982   8.678 -0.0486 -0.5652 -0.2104
  836MOL0     C12734   3.535   9.864   8.641  0.2906  0.3966  0.1470
  836MOL0     C12735   3.678   9.913   8.609  0.2945 -0.6878 -0.3884
  836MOL0     C12736   3.751   9.945   8.740  0.1635 -0.6400 -0.4660
  836MOL0     C12737   3.882  10.024   8.704 -0.1510 -0.4371 -0.0152
  836MOL0     C12738   3.958  10.075   8.830 -0.0484 -0.2126  0.1871
  836MOL0     C12739   4.011   9.959   8.916  0.8886 -0.3592  0.1469
  836MOL0     C12740   4.084  10.018   9.036 -0.2955 -0.7700 -0.3090
  836MOL0     C12741   4.174   9.912   9.104  0.1642  1.2658 -0.1722
  836MOL0     N12742   4.218   9.971   9.232  0.3658 -0.1307  0.2511
  836MOL0     C12743   4.310  10.072   9.244 -0.4573  0.0916  0.0103
  836MOL0     C12744   4.328  10.088   9.371 -0.7410  0.2145 -0.1802
  836MOL0     C12745   4.416  10.182   9.448  0.2186  0.0824  0.1094
  836MOL0     C12746   4.525  10.110   9.524 -0.0774  0.4194  0.4604
  836MOL0     C12747   4.587  10.195   9.638 -0.1214 -0.6986 -0.0371
  836MOL0     C12748   4.627  10.102   9.745 -0.3013 -0.1085 -0.1361
  836MOL0     O12749   4.686  10.174   9.858 -0.2999 -0.1319  0.1356
  836MOL0     C12750   4.804  10.128   9.909 -0.7433  0.6144  0.8221
  836MOL0     C12751   4.916  10.115   9.836  0.9557  0.9480  0.0289
  836MOL0     C12752   5.042  10.074   9.897  0.4268  0.3478  0.5873
  836MOL0     C12753   5.045  10.043  10.030  0.3447  0.0477 -0.0231
  836MOL0     C12754   5.171   9.987  10.088 -0.0501 -0.7303 -0.9785
  836MOL0     O12755   5.290   9.974  10.017  0.1981  0.9005  0.0555
  836MOL0     C12756   5.388   9.900  10.076 -0.5442  0.7900  0.3292
  836MOL0     C12757   5.405   9.770  10.035 -0.5684  0.4776  0.0696
  836MOL0     C12758   5.514   9.699  10.075 -0.0518 -0.2132 -0.0725
  836MOL0     C12759   5.602   9.746  10.171 -0.1935 -0.5797 -0.6828
  836MOL0     O12760   5.720   9.699  10.217  0.2207  0.5496  0.9172
  836MOL0     C12761   5.734   9.559  10.232  0.5704  0.2657 -0.7143
  836MOL0     C12762   5.877   9.519  10.270 -0.0846  0.7327 -0.0037
  836MOL0     C12763   5.887   9.363  10.280 -0.2897 -0.0257  0.6849
  836MOL0     C12764   5.946   9.313  10.411  0.1058 -0.1620 -0.2458
  836MOL0     C12765   5.995   9.163  10.403 -0.3978  0.2659 -0.4012
  836MOL0     C12766   6.049   9.110  10.540  0.1153 -0.0903 -0.2205
  836MOL0     C12767   6.117   8.984  10.510 -0.2920 -0.6301 -0.4690
  836MOL0     C12768   6.199   8.952  10.635 -0.0419  0.4176  0.7980
  836MOL0    Cl12769   6.262   8.780  10.604  0.1238  0.4014 -0.1985
  836MOL0     C12770   5.577   9.876  10.223  0.8381 -0.4261 -0.2643
  836MOL0     C12771   5.470   9.954  10.177  0.5733  0.1417  0.4504
  836MOL0     O12772   5.158   9.958  10.209 -0.2453 -0.3414  1.0573
  836MOL0     C12773   4.926  10.058  10.106  0.3831  0.6385 -0.3975
  836MOL0     C12774   4.809  10.101  10.040 -0.5121 -0.0874 -0.5702
  836MOL0     N12775   4.245  10.003   9.434  0.4547 -0.0945 -0.3636
  836MOL0     N12776   4.182   9.931   9.353  0.1728  1.1902 -0.3887
  836MOL0     C12777   3.249   9.847   8.686 -0.2705  0.3903  0.2654
  836MOL0     C12778   3.109   9.848   8.688 -0.4816 -1.0817 -0.0682
  836MOL0     C12779   2.697   9.897   8.591 -0.3376  0.7008  0.0938
  836MOL0     C12780   2.633   9.990   8.677  0.0394  0.4671  0.4262
  836MOL0     C12781   2.495   9.992   8.682  0.2929  0.3456  0.1456
  836MOL0     C12782   2.414   9.910   8.608 -0.0641 -0.3517 -1.2931
  836MOL0     O12783   2.278   9.911   8.636  0.4906  0.0990  0.3143
  836MOL0     C12784   2.188   9.829   8.558 -0.3900 -0.4247  0.2176
  836MOL0     C12785   2.035   9.848   8.599  0.5365 -0.1068  0.1494
  836MOL0     C12786   1.950   9.747   8.522  0.8659  0.1909  0.0398
  836MOL0     C12787   1.805   9.730   8.568  0.3820 -0.8302  0.4582
  836MOL0     C12788   1.738   9.862   8.593 -0.1490 -0.0444 -0.0577
  836MOL0     C12789   1.691   9.969   8.612  0.6724 -0.1091 -0.3767
  836MOL0     C12790   2.476   9.841   8.510  0.4761  0.1827 -0.4689
  836MOL0     C12791   2.616   9.825   8.498  0.4805 -1.4526  0.2641
  836MOL0     C12792   2.667   9.737   8.381  0.3526  0.6417 -0.5363
  836MOL0     H12793   3.065  10.189   8.672 -1.5727 -0.8814 -0.8321
  836MOL0     H12794   3.298  10.192   8.652 -0.9575  2.0301  1.0077
  836MOL0     H12795   3.547   9.799   8.728 -1.4848  1.0114  0.8775
  836MOL0     H12796   3.493   9.812   8.554  0.2850 -1.3029  1.1189
  836MOL0     H12797   3.674  10.006   8.552 -0.9361 -1.5524 -1.7853
  836MOL0     H12798   3.720   9.838   8.542  3.4323  1.4153 -0.9819
  836MOL0     H12799   3.775   9.850   8.790  1.8592 -0.6408 -1.1859
  836MOL0     H12800   3.688  10.017   8.792 -2.0541 -1.8785 -1.3169
  836MOL0     H12801   3.943   9.962   8.638 -1.3536 -1.3333 -0.3146
  836MOL0     H12802   3.840  10.108   8.648  3.2528  0.4559 -1.5225
  836MOL0     H12803   4.044  10.135   8.798 -0.0192  0.1591  0.9283
  836MOL0     H12804   3.880  10.141   8.869 -0.8350  0.3145 -2.1456
  836MOL0     H12805   3.930   9.890   8.941 -1.4646  2.0454 -0.3420
  836MOL0     H12806   4.084   9.905   8.855  1.5856 -0.0507  0.7000
  836MOL0     H12807   4.003  10.033   9.107  0.8877 -3.8508  1.9092
  836MOL0     H12808   4.120  10.120   9.022  1.5724 -0.9059  2.6874
  836MOL0     H12809   4.114   9.824   9.128  1.7959  0.0217 -0.5140
  836MOL0     H12810   4.256   9.881   9.039 -0.6259 -2.1842  0.2886
  836MOL0     H12811   4.353  10.146   9.178 -0.8391  1.3597  1.1434
  836MOL0     H12812   4.460  10.259   9.384  0.1669  1.0863  1.2410
  836MOL0     H12813   4.346  10.235   9.513 -0.6202 -2.0206  0.9943
  836MOL0     H12814   4.485  10.014   9.555  0.6441 -0.3973 -1.0118
  836MOL0     H12815   4.602  10.078   9.452 -2.5896 -3.0131 -0.9481
  836MOL0     H12816   4.508  10.260   9.678 -1.1578 -2.2978  0.5983
  836MOL0     H12817   4.673  10.252   9.602 -0.2672 -0.1445  0.4778
  836MOL0     H12818   4.706  10.041   9.700  0.6730  0.2551  1.0202
  836MOL0     H12819   4.552  10.030   9.775 -0.2503  0.1822  0.7041
  836MOL0     H12820   4.926  10.142   9.731  2.2916  1.9323  0.3775
  836MOL0     H12821   5.121  10.062   9.823  1.1268 -0.1540  1.3988
  836MOL0     H12822   5.346   9.730   9.953 -0.6601  0.9824 -0.1078
  836MOL0     H12823   5.530   9.606  10.022  0.9918 -0.0943  0.0070
  836MOL0     H12824   5.673   9.522  10.315 -0.4089 -6.1116 -3.6270
  836MOL0     H12825   5.703   9.502  10.143  0.1108  0.2394 -0.5401
  836MOL0     H12826   5.944   9.549  10.189 -1.1869 -0.0616 -1.2611
  836MOL0     H12827   5.910   9.563  10.364  1.9916 -1.1258  0.2253
  836MOL0     H12828   5.788   9.315  10.276 -0.3002  0.0525 -2.1301
  836MOL0     H12829   5.943   9.333  10.191 -3.8261 -2.5747 -0.9674
  836MOL0     H12830   5.867   9.330  10.485 -0.1748  4.5481 -1.3188
  836MOL0     H12831   6.036   9.366  10.444  0.8209 -0.8096 -1.0931
  836MOL0     H12832   6.065   9.158  10.319  2.4847  0.8806  1.8180
  836MOL0     H12833   5.910   9.099  10.376 -0.4698 -0.2680  1.0364
  836MOL0     H12834   6.107   9.190  10.586 -0.9775  1.0046 -0.6898
  836MOL0     H12835   5.962   9.093  10.604 -0.8311  3.6282 -0.2636
  836MOL0     H12836   6.185   8.997  10.426  1.6408 -1.3312  0.9094
  836MOL0     H12837   6.045   8.908  10.480 -2.0598  1.5212 -1.9586
  836MOL0     H12838   6.288   9.014  10.643 -0.4660  1.0930  0.3299
  836MOL0     H12839   6.137   8.966  10.725 -0.9605  2.2872 -0.0648
  836MOL0     H12840   5.657   9.922  10.281  2.1774  0.4500 -2.6505
  836MOL0     H12841   5.449  10.051  10.221 -0.6090 -1.5416  4.0363
  836MOL0     H12842   4.915  10.029  10.210 -4.8740 -0.1789 -0.9180
  836MOL0     H12843   4.720  10.117  10.101 -1.4882  0.7675 -2.1312
  836MOL0     H12844   3.307   9.756   8.697  1.7577  1.7894  2.1894
  836MOL0     H12845   3.057   9.753   8.698 -0.4679 -1.2507 -1.4531
  836MOL0     H12846   2.684  10.061   8.742 -1.0133  2.1000 -0.4728
  836MOL0     H12847   2.447  10.055   8.756 -1.1791  0.2555 -0.6880
  836MOL0     H12848   2.199   9.723   8.583 -4.3279 -1.1338 -0.5069
  836MOL0     H12849   2.206   9.833   8.451 -2.3273 -2.1234 -0.2301
  836MOL0     H12850   2.006   9.950   8.569  0.5620 -0.4802 -1.1817
  836MOL0     H12851   2.025   9.835   8.707  3.0823 -3.8940  0.0913
  836MOL0     H12852   2.005   9.653   8.521  1.9934  0.8289  0.1656
  836MOL0     H12853   1.952   9.777   8.417 -2.5977 -0.3074 -0.2935
  836MOL0     H12854   1.744   9.674   8.496  1.3776  1.4320 -2.3323
  836MOL0     H12855   1.824   9.684   8.666 -1.4074  1.7361  2.1596
  836MOL0     H12856   1.641  10.063   8.623 -2.2510 -1.2065 -3.0581
  836MOL0     H12857   2.405   9.779   8.456 -3.6636  1.5615  2.8395
  836MOL0     H12858   2.750   9.679   8.420 -0.7774 -0.5395  0.1807
  836MOL0     H12859   2.585   9.674   8.345 -0.5297  0.5355  1.5267
  836MOL0     H12860   2.708   9.803   8.303  1.3371  0.5017 -0.1541
  837MOL0     O12861   6.829   6.035   1.356  0.2519  0.4319 -0.5920
  837MOL0     C12862   6.853   6.144   1.311  0.1688 -0.6589  0.6779
  837MOL0     O12863   6.979   6.207   1.304 -0.3171  0.0317  0.3123
  837MOL0     C12864   7.083   6.121   1.297  0.5465  0.6266  0.2443
  837MOL0     C12865   7.100   6.020   1.395  0.7952  0.1388  1.0156
  837MOL0     C12866   7.210   5.939   1.391  0.4424  0.1312 -0.7067
  837MOL0     C12867   7.313   5.956   1.299  0.3250 -0.3699 -0.4264
  837MOL0     O12868   7.423   5.870   1.293  0.6107 -0.7022 -0.4928
  837MOL0     C12869   7.544   5.945   1.277 -0.4415 -0.6745  0.2863
  837MOL0     C12870   7.554   6.053   1.391  0.1316  0.5328  0.4696
  837MOL0     C12871   7.701   6.099   1.400  0.3592 -0.7962  0.5841
  837MOL0     C12872   7.696   6.219   1.492  0.5010  1.1941  0.9249
  837MOL0     C12873   7.840   6.269   1.518  0.8621 -0.4315 -0.3916
  837MOL0     C12874   7.921   6.175   1.621  0.6363  0.3276  0.4594
  837MOL0     C12875   8.072   6.220   1.617 -0.3663 -0.4901  0.4032
  837MOL0     C12876   8.160   6.147   1.718  1.1210 -0.2843  0.1648
  837MOL0     N12877   8.302   6.193   1.734  0.1665  0.2956 -0.5278
  837MOL0     C12878   8.333   6.327   1.768  0.6207 -0.3486 -0.4142
  837MOL0     C12879   8.469   6.320   1.787 -0.4483  0.9760 -0.0033
  837MOL0     C12880   8.552   6.439   1.843  0.5076  0.0099 -0.1477
  837MOL0     C12881   8.561   6.550   1.736 -0.0033 -0.7544 -0.4935
  837MOL0     C12882   8.615   6.691   1.786  0.1584  0.3933  0.4124
  837MOL0     C12883   8.639   6.792   1.669 -0.0999  0.0909  0.1863
  837MOL0     O12884   8.774   6.787   1.623  0.5694  0.4258  0.6084
  837MOL0     C12885   8.882   6.829   1.691 -1.3052 -0.1756  0.4383
  837MOL0     C12886   9.019   6.786   1.659 -0.6895 -0.5064  0.0077
  837MOL0     C12887   9.123   6.817   1.751  0.8718 -0.2781  0.5507
  837MOL0     C12888   9.103   6.906   1.860 -0.0355 -0.4371 -0.0582
  837MOL0     C12889   9.210   6.966   1.947  0.2988  0.3369 -0.3845
  837MOL0     O12890   9.336   6.912   1.954 -0.2909  0.5061 -0.0621
  837MOL0     C12891   9.426   6.986   2.022  0.0096  0.4029  0.9239
  837MOL0     C12892   9.460   7.119   1.991 -0.4681  0.4190  0.5181
  837MOL0     C12893   9.557   7.183   2.067 -0.8275 -0.4186  0.3566
  837MOL0     C12894   9.614   7.123   2.177 -0.1427 -0.3462  0.0786
  837MOL0     O12895   9.697   7.194   2.262 -0.3742 -0.7710 -0.3243
  837MOL0     C12896   9.834   7.185   2.210  1.0314 -0.0674 -0.2309
  837MOL0     C12897   9.918   7.287   2.278 -0.4232 -0.8831 -0.2524
  837MOL0     C12898  10.065   7.252   2.276 -0.2612  0.9132 -0.6853
  837MOL0     C12899  10.139   7.389   2.285  0.5362  0.5331 -0.7920
  837MOL0     C12900  10.105   7.475   2.412  0.0959 -0.2913 -0.7719
  837MOL0     C12901  10.199   7.599   2.414  0.0428 -0.4397 -0.4752
  837MOL0     C12902  10.153   7.697   2.521 -0.0137 -0.8388  0.1877
  837MOL0     C12903  10.169   7.650   2.665 -0.4232 -0.3382 -0.4143
  837MOL0    Cl12904  10.328   7.582   2.672  0.1707 -0.1407 -0.4127
  837MOL0     C12905   9.570   6.993   2.216  0.6845  0.4537 -0.1915
  837MOL0     C12906   9.483   6.924   2.133 -0.5195 -0.8544 -0.4403
  837MOL0     O12907   9.172   7.062   2.014  0.0094 -1.4100 -0.5582
  837MOL0     C12908   8.968   6.949   1.887  0.0349  0.0798 -0.2197
  837MOL0     C12909   8.865   6.909   1.804  0.1400 -0.5946  0.3084
  837MOL0     N12910   8.508   6.190   1.769  0.2709 -0.2166 -0.0073
  837MOL0     N12911   8.410   6.114   1.731 -0.5724 -0.7044  0.5326
  837MOL0     C12912   7.291   6.056   1.200  0.2506 -0.2367 -0.4434
  837MOL0     C12913   7.178   6.136   1.199  0.2305 -0.1570  0.8177
  837MOL0     C12914   6.735   6.236   1.265 -0.7594 -0.3776 -1.0260
  837MOL0     C12915   6.612   6.212   1.324  0.0009 -0.2558  0.2923
  837MOL0     C12916   6.500   6.294   1.285  0.5492  0.3281  0.3698
  837MOL0     C12917   6.510   6.400   1.192 -0.5862  0.5294 -0.4126
  837MOL0     O12918   6.394   6.463   1.149  0.4870  0.4217  0.3298
  837MOL0     C12919   6.399   6.581   1.080  1.0008  0.1079 -0.2610
  837MOL0     C12920   6.271   6.648   1.119  0.5588 -0.2008 -0.3564
  837MOL0     C12921   6.149   6.583   1.054  0.9399 -0.0286 -0.2489
  837MOL0     C12922   6.013   6.652   1.093  0.6496 -0.8036 -0.4817
  837MOL0     C12923   5.907   6.600   1.013 -0.2063  0.2485  0.5634
  837MOL0     C12924   5.843   6.542   0.933 -0.0052 -0.2761 -0.5801
  837MOL0     C12925   6.637   6.425   1.137  0.2318 -0.5769 -1.2198
  837MOL0     C12926   6.745   6.342   1.178  1.1053  0.9373  1.4071
  837MOL0     C12927   6.864   6.366   1.095  0.3434 -0.3517  0.1127
  837MOL0     H12928   7.033   6.002   1.478  1.5761  2.4363  2.2433
  837MOL0     H12929   7.202   5.855   1.458  2.3807  1.3423  1.1600
  837MOL0     H12930   7.621   5.867   1.282 -0.1722 -0.3311  1.9858
  837MOL0     H12931   7.559   6.002   1.184  0.8471 -0.6859  0.4689
  837MOL0     H12932   7.525   5.997   1.481  1.1211  1.9023  1.7064
  837MOL0     H12933   7.485   6.136   1.373 -0.3082 -0.0733 -0.7233
  837MOL0     H12934   7.743   6.132   1.304 -0.0204  2.4458  1.4431
  837MOL0     H12935   7.765   6.017   1.434  3.2925  0.7906 -0.7880
  837MOL0     H12936   7.640   6.303   1.450  0.3130  1.1851  1.1501
  837MOL0     H12937   7.654   6.193   1.590  1.8492 -3.9393  0.4178
  837MOL0     H12938   7.894   6.274   1.423 -0.9802 -1.1014 -1.5199
  837MOL0     H12939   7.845   6.366   1.569  1.6364 -0.7688  0.1951
  837MOL0     H12940   7.884   6.191   1.722  0.6639  4.2615 -0.0134
  837MOL0     H12941   7.899   6.071   1.592 -2.3768 -0.3579  4.3178
  837MOL0     H12942   8.081   6.328   1.638  1.3914 -0.7576  1.2715
  837MOL0     H12943   8.110   6.208   1.516 -0.7760  1.5139 -0.0385
  837MOL0     H12944   8.119   6.155   1.819  1.1599  0.3006  0.1389
  837MOL0     H12945   8.156   6.039   1.699 -0.0212 -0.4001  0.9758
  837MOL0     H12946   8.265   6.411   1.771  0.2846 -0.6382  0.6459
  837MOL0     H12947   8.487   6.472   1.925  0.5125  0.4787 -0.3307
  837MOL0     H12948   8.650   6.419   1.888  1.8412  2.5549 -1.7096
  837MOL0     H12949   8.617   6.509   1.652  0.8779 -0.7787  0.0923
  837MOL0     H12950   8.460   6.573   1.702 -0.3867 -0.2303  0.9305
  837MOL0     H12951   8.707   6.678   1.844  0.7965  1.0010 -0.4387
  837MOL0     H12952   8.540   6.726   1.856 -1.1199 -2.2576  0.4900
  837MOL0     H12953   8.628   6.895   1.706  1.1544  0.8910 -1.5501
  837MOL0     H12954   8.569   6.777   1.587 -0.1661  0.4770  0.1695
  837MOL0     H12955   9.041   6.739   1.564  4.2072  1.0688  0.1211
  837MOL0     H12956   9.224   6.791   1.721  0.1603 -3.2703  0.3966
  837MOL0     H12957   9.409   7.177   1.915 -0.3909 -0.4105 -0.1966
  837MOL0     H12958   9.582   7.286   2.044  1.1063 -0.4338  2.1066
  837MOL0     H12959   9.871   7.082   2.210 -0.1373 -0.5011 -1.0067
  837MOL0     H12960   9.833   7.212   2.105 -3.5324  0.7565 -0.2070
  837MOL0     H12961   9.910   7.390   2.243  0.6449 -0.6025  0.2859
  837MOL0     H12962   9.886   7.294   2.382  1.5041 -0.0202  0.3269
  837MOL0     H12963  10.089   7.182   2.356  0.0226  2.4533  0.6041
  837MOL0     H12964  10.085   7.200   2.181 -0.8099 -0.2733 -0.1725
  837MOL0     H12965  10.118   7.449   2.196 -0.9825 -0.4845 -1.1587
  837MOL0     H12966  10.247   7.375   2.277  0.7787  2.9813 -3.9112
  837MOL0     H12967  10.118   7.412   2.501  2.4592 -1.5172 -1.8932
  837MOL0     H12968  10.005   7.514   2.391  0.4024 -0.2726 -2.2437
  837MOL0     H12969  10.302   7.564   2.422 -0.3252 -1.1948  3.8674
  837MOL0     H12970  10.200   7.654   2.320 -1.5364 -1.0928 -0.8989
  837MOL0     H12971  10.054   7.735   2.493 -0.1657 -0.1188  1.6133
  837MOL0     H12972  10.222   7.781   2.510 -1.0484 -0.1663 -1.6892
  837MOL0     H12973  10.167   7.737   2.732  1.8840 -0.8669  0.4320
  837MOL0     H12974  10.098   7.570   2.688 -0.8528  0.6651  2.0649
  837MOL0     H12975   9.636   6.960   2.295  1.5459  1.1112 -0.6118
  837MOL0     H12976   9.440   6.831   2.169 -0.1339 -0.9876 -0.3204
  837MOL0     H12977   8.934   7.007   1.973 -0.9817 -1.0864  0.1942
  837MOL0     H12978   8.777   6.968   1.827  0.8444  0.5661  0.0458
  837MOL0     H12979   7.363   6.081   1.122  0.1427  1.3422 -0.0733
  837MOL0     H12980   7.163   6.213   1.124  1.6622 -0.8274 -0.2172
  837MOL0     H12981   6.602   6.129   1.393 -0.3621 -1.0520 -0.6873
  837MOL0     H12982   6.406   6.280   1.338 -0.4268 -0.2553 -1.4328
  837MOL0     H12983   6.399   6.567   0.971 -2.5649  1.4820 -0.5867
  837MOL0     H12984   6.492   6.629   1.110  0.5578 -0.5160  2.3374
  837MOL0     H12985   6.281   6.752   1.084 -0.6323  0.0624  0.0409
  837MOL0     H12986   6.255   6.653   1.227  4.9586 -0.2945  0.4895
  837MOL0     H12987   6.139   6.475   1.066 -2.3903 -0.1534 -2.8057
  837MOL0     H12988   6.144   6.598   0.946 -5.2309 -4.6374 -1.1552
  837MOL0     H12989   5.992   6.612   1.193  2.0570 -2.0182 -0.6333
  837MOL0     H12990   6.019   6.761   1.087  0.0685 -0.7500 -0.1148
  837MOL0     H12991   5.779   6.497   0.859 -1.7080 -0.7013  1.0676
  837MOL0     H12992   6.647   6.506   1.065 -0.9707  2.2254  1.4924
  837MOL0     H12993   6.885   6.275   1.038 -0.7684 -0.7080  0.2493
  837MOL0     H12994   6.863   6.453   1.028  2.3382 -0.2770  0.1312
  837MOL0     H12995   6.948   6.384   1.162 -0.7903  2.5538  0.9208
  838MOL0     O12996   1.458   9.515   2.749  0.5509 -0.1057  0.5566
  838MOL0     C12997   1.386   9.608   2.725 -0.0270 -0.3311  0.4239
  838MOL0     O12998   1.420   9.712   2.641  0.2603 -0.1069 -0.7908
  838MOL0     C12999   1.550   9.720   2.593 -0.5765 -0.0061  0.6144
  838MOL0     C13000   1.665   9.688   2.665  0.3148  0.6118 -0.3573
  838MOL0     C13001   1.782   9.732   2.608 -0.0780 -0.1544  0.7168
  838MOL0     C13002   1.793   9.763   2.469 -1.0478 -0.8758  0.1911
  838MOL0     O13003   1.920   9.786   2.424 -0.4593  0.1520 -0.2202
  838MOL0     C13004   1.953   9.853   2.299  0.1312 -0.1062 -0.3587
  838MOL0     C13005   2.100   9.900   2.281  0.2391  0.4656  0.3129
  838MOL0     C13006   2.154   9.961   2.414 -0.5346  0.7060  0.3810
  838MOL0     C13007   2.291  10.033   2.413  0.2460  0.0932  0.2064
  838MOL0     C13008   2.327  10.100   2.540  0.4311 -0.4164  0.2736
  838MOL0     C13009   2.477  10.132   2.548 -0.4371  0.4965  0.5946
  838MOL0     C13010   2.528  10.195   2.685 -0.6229 -0.1411 -0.2183
  838MOL0     C13011   2.666  10.146   2.712 -0.5850  0.4484  0.0476
  838MOL0     N13012   2.764  10.224   2.638 -0.6303 -0.0227  0.4649
  838MOL0     C13013   2.773  10.362   2.641 -0.8597 -0.5452  0.8259
  838MOL0     C13014   2.864  10.397   2.548  1.2067 -0.0565 -0.1149
  838MOL0     C13015   2.921  10.533   2.521 -0.8225 -0.3734 -0.7157
  838MOL0     C13016   3.066  10.540   2.542  0.5613 -1.5572  0.1839
  838MOL0     C13017   3.116  10.690   2.536  0.3463  0.1021 -0.0690
  838MOL0     C13018   3.267  10.685   2.557  0.4486 -0.1325 -0.6031
  838MOL0     O13019   3.292  10.643   2.693  0.8116  0.0456 -0.4437
  838MOL0     C13020   3.419  10.639   2.735  0.0711 -0.5899  0.4037
  838MOL0     C13021   3.522  10.694   2.651  0.1174  0.3810  0.8978
  838MOL0     C13022   3.658  10.686   2.702  0.3815 -0.2554  0.0307
  838MOL0     C13023   3.684  10.626   2.825 -0.2614 -0.4503  0.6334
  838MOL0     C13024   3.828  10.628   2.867  0.9700  0.1806 -0.2351
  838MOL0     O13025   3.924  10.665   2.770 -0.0089 -0.4764  0.4492
  838MOL0     C13026   4.052  10.647   2.795 -0.1741  1.0349 -0.8272
  838MOL0     C13027   4.136  10.747   2.818  0.1375  0.5599  0.0757
  838MOL0     C13028   4.272  10.724   2.847 -0.0465  0.9475 -0.1519
  838MOL0     C13029   4.319  10.594   2.852 -0.1795 -0.2452 -0.2872
  838MOL0     O13030   4.456  10.576   2.877  0.6644 -0.8786  0.0579
  838MOL0     C13031   4.507  10.450   2.932 -0.2638  0.2861 -0.2917
  838MOL0     C13032   4.664  10.441   2.952  0.3670  0.3181  0.3490
  838MOL0     C13033   4.706  10.510   3.081 -0.4958 -0.0743 -0.4604
  838MOL0     C13034   4.861  10.513   3.092 -0.3959 -0.2229  0.5558
  838MOL0     C13035   4.897  10.375   3.157 -0.7630 -0.3844  0.0939
  838MOL0     C13036   5.058  10.352   3.159 -0.0573 -0.4144  0.0193
  838MOL0     C13037   5.096  10.226   3.238 -1.2757 -0.3468 -0.6306
  838MOL0     C13038   5.151  10.114   3.152  0.1214  0.2685  1.3782
  838MOL0    Cl13039   5.032  10.059   3.040 -0.2616 -0.4318 -0.0658
  838MOL0     C13040   4.227  10.491   2.840 -0.2988 -0.4208 -0.7411
  838MOL0     C13041   4.091  10.514   2.821  0.0383  0.1927  0.9996
  838MOL0     O13042   3.853  10.576   2.978  0.2783 -0.4343  0.2219
  838MOL0     C13043   3.582  10.576   2.893 -0.2118  0.0307  0.1870
  838MOL0     C13044   3.453  10.578   2.851 -0.1376  0.4352  0.3802
  838MOL0     N13045   2.895  10.276   2.488 -0.9430  0.2398 -0.1960
  838MOL0     N13046   2.844  10.168   2.540  0.1180 -0.2139 -0.2482
  838MOL0     C13047   1.682   9.783   2.405  0.3890  0.2875  0.8891
  838MOL0     C13048   1.561   9.769   2.461  0.4785 -0.0425 -0.4695
  838MOL0     C13049   1.241   9.606   2.769 -0.4530 -0.1176  1.0591
  838MOL0     C13050   1.171   9.724   2.742 -0.3438  0.2749 -0.4248
  838MOL0     C13051   1.041   9.749   2.782  0.0930 -0.7894  0.4334
  838MOL0     C13052   0.971   9.644   2.835  0.2373 -0.6054  0.4985
  838MOL0     O13053   0.843   9.650   2.881 -0.3035  0.0529 -0.0974
  838MOL0     C13054   0.741   9.724   2.802  0.2177  0.2472  0.3508
  838MOL0     C13055   0.743   9.672   2.650  0.1152  0.3257 -1.1184
  838MOL0     C13056   0.634   9.731   2.564  0.6741 -0.7359  0.1201
  838MOL0     C13057   0.634   9.888   2.549  0.2432  0.2919  0.1365
  838MOL0     C13058   0.553   9.939   2.433  0.1578  0.4706 -0.2528
  838MOL0     C13059   0.489   9.990   2.344  0.6927  0.6536 -0.8807
  838MOL0     C13060   1.034   9.527   2.858 -0.4248 -0.3815  0.1194
  838MOL0     C13061   1.161   9.502   2.825 -0.7064  0.2010 -0.3295
  838MOL0     C13062   1.223   9.369   2.845  0.3979 -0.0809 -0.7706
  838MOL0     H13063   1.668   9.651   2.768  3.5289  1.9747  0.1573
  838MOL0     H13064   1.868   9.733   2.674  0.3961  1.7413  0.1301
  838MOL0     H13065   1.928   9.783   2.218  1.8039 -1.2562  0.0702
  838MOL0     H13066   1.886   9.938   2.282  0.3496  0.6158  2.0053
  838MOL0     H13067   2.114   9.961   2.191  1.1251 -1.3522 -0.8336
  838MOL0     H13068   2.158   9.811   2.257  0.6203  0.4274  1.2960
  838MOL0     H13069   2.150   9.885   2.493 -0.0875  0.7251  0.4270
  838MOL0     H13070   2.075  10.031   2.441 -2.8579 -1.2514 -0.9915
  838MOL0     H13071   2.365   9.954   2.395  0.7738  0.3825  1.0618
  838MOL0     H13072   2.297  10.111   2.337  0.0285  0.5046  0.6117
  838MOL0     H13073   2.267  10.191   2.552 -0.1417 -0.8430  0.7251
  838MOL0     H13074   2.296  10.037   2.624 -0.4809 -3.1459 -1.9661
  838MOL0     H13075   2.540  10.044   2.534 -1.2174 -0.1285  0.9885
  838MOL0     H13076   2.503  10.201   2.466  3.2587 -0.8868  0.4212
  838MOL0     H13077   2.468  10.152   2.766  0.9700 -1.1417  0.4684
  838MOL0     H13078   2.511  10.303   2.688  2.3347  0.3943  2.0616
  838MOL0     H13079   2.681  10.163   2.819 -1.3673 -1.1533  0.4509
  838MOL0     H13080   2.679  10.038   2.702  0.5144  0.2254  2.9153
  838MOL0     H13081   2.731  10.432   2.713  1.0877 -0.6869  2.1692
  838MOL0     H13082   2.892  10.574   2.424 -0.3649  0.7558 -0.3884
  838MOL0     H13083   2.876  10.595   2.599  0.1241  1.2684 -1.4241
  838MOL0     H13084   3.100  10.503   2.639  2.5734  0.2220  0.2315
  838MOL0     H13085   3.107  10.479   2.462 -0.0396 -1.1632 -0.4341
  838MOL0     H13086   3.067  10.749   2.614 -1.9106 -2.4234  0.5516
  838MOL0     H13087   3.102  10.743   2.441 -1.7258  0.6603  0.4940
  838MOL0     H13088   3.300  10.789   2.552  3.1184 -0.8022  1.0665
  838MOL0     H13089   3.312  10.621   2.480 -0.9078 -1.7250 -0.1287
  838MOL0     H13090   3.497  10.761   2.569 -1.3469  0.5731  1.4703
  838MOL0     H13091   3.733  10.745   2.652  0.4687  0.2319  0.7177
  838MOL0     H13092   4.102  10.846   2.790 -1.4098  0.9018  2.8176
  838MOL0     H13093   4.337  10.810   2.859 -1.6096  2.2682 -0.6906
  838MOL0     H13094   4.467  10.421   3.029  2.3507 -0.9797  0.5058
  838MOL0     H13095   4.483  10.373   2.858  1.9661  1.6575 -2.6351
  838MOL0     H13096   4.691  10.335   2.954 -1.0147 -0.0595  0.0233
  838MOL0     H13097   4.707  10.490   2.864  0.6517 -3.4821 -1.8257
  838MOL0     H13098   4.670  10.612   3.069  0.7425  0.4353 -0.0669
  838MOL0     H13099   4.659  10.467   3.170  0.7206 -1.0932 -0.2745
  838MOL0     H13100   4.901  10.590   3.159  0.0995  0.4621 -0.5002
  838MOL0     H13101   4.924  10.542   3.008 -0.2477 -1.6226  0.1549
  838MOL0     H13102   4.856  10.292   3.098  1.0985 -0.9238 -0.5472
  838MOL0     H13103   4.867  10.366   3.262  0.8203  2.9866  0.9807
  838MOL0     H13104   5.111  10.340   3.064  1.4827 -1.5890  0.9695
  838MOL0     H13105   5.100  10.440   3.209  1.3146  1.2379 -3.6406
  838MOL0     H13106   5.008  10.193   3.293 -0.4598  0.2192  1.0695
  838MOL0     H13107   5.172  10.252   3.312 -2.8231  2.1174  0.2384
  838MOL0     H13108   5.242  10.150   3.104  0.0408 -1.3514 -0.0932
  838MOL0     H13109   5.180  10.026   3.211  0.8354  0.9076  2.0004
  838MOL0     H13110   4.256  10.388   2.858  0.8483 -0.0969 -0.7095
  838MOL0     H13111   4.022  10.431   2.830 -0.5155  0.4613 -0.3539
  838MOL0     H13112   3.601  10.517   2.983 -3.5104 -2.4515 -0.5236
  838MOL0     H13113   3.382  10.520   2.909 -0.3847  0.4659  0.1089
  838MOL0     H13114   1.670   9.797   2.298  0.4918 -1.4083  0.6298
  838MOL0     H13115   1.474   9.789   2.400  0.1333  1.6120  0.4846
  838MOL0     H13116   1.231   9.808   2.707  1.0213  0.5773  2.3062
  838MOL0     H13117   0.999   9.849   2.772 -2.0889 -1.8568 -2.7236
  838MOL0     H13118   0.762   9.832   2.808  1.2992  0.4831 -4.1688
  838MOL0     H13119   0.644   9.703   2.848 -0.8853  1.3104 -1.3620
  838MOL0     H13120   0.740   9.563   2.648  1.2406  0.2280  0.5478
  838MOL0     H13121   0.837   9.705   2.606 -0.4323  2.7221 -0.6297
  838MOL0     H13122   0.533   9.707   2.599 -0.1929  0.4524 -1.4509
  838MOL0     H13123   0.641   9.681   2.467  2.3040  0.0176 -0.1808
  838MOL0     H13124   0.586   9.930   2.637 -2.2725 -2.2068  0.0993
  838MOL0     H13125   0.734   9.933   2.558 -0.2542  0.9829  2.9902
  838MOL0     H13126   0.431  10.049   2.276 -1.0885  0.4496  0.3907
  838MOL0     H13127   0.970   9.451   2.903 -2.5340  1.4680  0.4233
  838MOL0     H13128   1.177   9.341   2.940 -0.1189  3.0561  0.0414
  838MOL0     H13129   1.200   9.303   2.762 -0.5980  3.5746 -3.6923
  838MOL0     H13130   1.329   9.375   2.871  0.5244  2.0114 -1.5493
  839MOL0     O13131   1.019   8.527   4.524 -0.4858  0.2289 -0.1959
  839MOL0     C13132   0.961   8.622   4.470  0.1722 -0.8840 -0.5770
  839MOL0     O13133   1.023   8.710   4.379  0.1093 -0.1741  0.0950
  839MOL0     C13134   1.147   8.661   4.340  0.8980 -0.9862 -0.2379
  839MOL0     C13135   1.171   8.622   4.215  0.1331  0.9689  0.4053
  839MOL0     C13136   1.308   8.587   4.177  0.1768 -0.1549 -0.8142
  839MOL0     C13137   1.418   8.585   4.265  0.4812 -0.9826  0.1459
  839MOL0     O13138   1.537   8.544   4.209 -0.8277 -0.2647 -0.4447
  839MOL0     C13139   1.658   8.579   4.272 -0.1682 -0.6141 -0.4681
  839MOL0     C13140   1.711   8.707   4.210  0.0379  0.3901 -0.0268
  839MOL0     C13141   1.674   8.837   4.281 -1.3034 -1.1182  0.1382
  839MOL0     C13142   1.794   8.901   4.356 -0.3249 -0.8661  0.5095
  839MOL0     C13143   1.765   9.004   4.465 -0.0687  0.7335 -1.1101
  839MOL0     C13144   1.712   9.136   4.401 -0.2959  0.2105  0.3200
  839MOL0     C13145   1.688   9.237   4.504  0.0394 -0.8110  0.0641
  839MOL0     C13146   1.641   9.361   4.434  0.1015  0.6893 -0.3506
  839MOL0     N13147   1.749   9.416   4.347  0.2531 -1.1786 -0.2670
  839MOL0     C13148   1.843   9.505   4.396 -0.1675  0.1049  0.3410
  839MOL0     C13149   1.933   9.515   4.298 -0.5161  0.4250  0.3005
  839MOL0     C13150   2.070   9.592   4.294 -0.5634 -0.3637  0.4017
  839MOL0     C13151   2.162   9.554   4.407  0.0637  0.9731 -0.6185
  839MOL0     C13152   2.305   9.617   4.399 -0.2514 -0.3682  0.6860
  839MOL0     C13153   2.400   9.528   4.474  0.1507  0.6951  0.1590
  839MOL0     O13154   2.527   9.582   4.458  0.1390 -0.0477  0.0650
  839MOL0     C13155   2.636   9.514   4.516  0.1556 -0.6766 -1.0672
  839MOL0     C13156   2.762   9.572   4.504  0.9763 -0.3759  0.8143
  839MOL0     C13157   2.870   9.525   4.567 -0.8476  0.2221  0.5225
  839MOL0     C13158   2.863   9.405   4.643  0.0888 -0.8260  0.0609
  839MOL0     C13159   2.986   9.368   4.714  0.5018 -0.6514  1.0296
  839MOL0     O13160   3.105   9.397   4.666 -0.0896 -0.2902  0.7557
  839MOL0     C13161   3.219   9.344   4.718 -0.8469  0.1984 -0.4750
  839MOL0     C13162   3.244   9.335   4.856 -0.6151  0.0876 -0.0367
  839MOL0     C13163   3.374   9.285   4.898 -0.0199 -0.7422 -0.6298
  839MOL0     C13164   3.475   9.245   4.811 -1.1898 -0.3976 -0.0136
  839MOL0     O13165   3.598   9.202   4.871  0.8304 -0.7086  0.0191
  839MOL0     C13166   3.690   9.120   4.794 -0.4447 -0.1241  0.2292
  839MOL0     C13167   3.811   9.078   4.870  1.1211  0.4833  0.3697
  839MOL0     C13168   3.787   9.001   5.003 -1.1886  0.6718 -0.1974
  839MOL0     C13169   3.891   8.890   5.025 -0.1395 -0.3760 -0.3893
  839MOL0     C13170   3.869   8.818   5.161  1.1352 -0.9900  0.9432
  839MOL0     C13171   3.955   8.687   5.177 -0.0869 -0.7520 -1.1470
  839MOL0     C13172   3.872   8.569   5.226  0.4476 -0.6290  0.2019
  839MOL0     C13173   3.937   8.427   5.206 -0.5566 -0.9784  0.1190
  839MOL0    Cl13174   4.103   8.413   5.287 -0.6548  0.0847  0.1671
  839MOL0     C13175   3.451   9.272   4.674  0.1646  0.3546 -0.0891
  839MOL0     C13176   3.324   9.311   4.630  0.2721  0.5220 -0.4776
  839MOL0     O13177   2.959   9.292   4.811  0.2744 -0.5305  0.3925
  839MOL0     C13178   2.735   9.341   4.657 -0.1718 -1.0050 -0.0373
  839MOL0     C13179   2.625   9.396   4.593 -0.3557  0.2301 -0.0297
  839MOL0     N13180   1.879   9.453   4.184 -0.4286 -0.1841  0.4908
  839MOL0     N13181   1.769   9.391   4.211  0.4737 -0.1401 -1.0662
  839MOL0     C13182   1.382   8.631   4.398  0.9571 -0.7070  0.6266
  839MOL0     C13183   1.253   8.673   4.434  0.1619  0.2783 -0.7623
  839MOL0     C13184   0.814   8.630   4.477  0.1178 -0.2290 -0.4954
  839MOL0     C13185   0.750   8.592   4.592  0.7118 -0.3929 -0.1807
  839MOL0     C13186   0.607   8.593   4.602 -0.1100 -0.4286  0.2826
  839MOL0     C13187   0.532   8.638   4.493  0.1115 -0.1076 -0.6383
  839MOL0     O13188   0.389   8.631   4.496 -0.4896  0.4365  0.0128
  839MOL0     C13189   0.309   8.699   4.407  0.6569 -0.4314  0.7315
  839MOL0     C13190   0.176   8.694   4.474  0.2409 -0.0900  0.3020
  839MOL0     C13191   0.073   8.776   4.401 -0.6336  0.1035 -0.0088
  839MOL0     C13192  -0.061   8.788   4.478 -0.7863  0.0188 -0.1195
  839MOL0     C13193  -0.137   8.894   4.407  0.2544  1.3038  0.4226
  839MOL0     C13194  -0.203   8.967   4.333 -0.3897  1.0722 -0.2009
  839MOL0     C13195   0.601   8.675   4.378  0.3717 -0.5483  0.2063
  839MOL0     C13196   0.741   8.668   4.362  0.2702  0.2801 -0.4643
  839MOL0     C13197   0.792   8.716   4.223 -0.3792  0.2206  0.8459
  839MOL0     H13198   1.103   8.637   4.133  0.4263  2.2231  0.3776
  839MOL0     H13199   1.323   8.566   4.072 -0.1994 -1.0046 -0.7115
  839MOL0     H13200   1.645   8.587   4.380  0.1514  1.4304 -0.5521
  839MOL0     H13201   1.736   8.502   4.261  1.6417  1.1250 -0.3023
  839MOL0     H13202   1.674   8.704   4.107 -1.2317 -0.2942  0.4260
  839MOL0     H13203   1.819   8.697   4.202  0.0058  1.1120 -1.7622
  839MOL0     H13204   1.588   8.829   4.349  0.1688  0.5206  2.3434
  839MOL0     H13205   1.657   8.907   4.199  1.7247  1.0791  1.2231
  839MOL0     H13206   1.855   8.821   4.399  1.9596 -0.3154 -1.5039
  839MOL0     H13207   1.851   8.951   4.278  0.9488 -3.2708 -0.1887
  839MOL0     H13208   1.679   8.970   4.523  0.1204 -2.0163 -2.2633
  839MOL0     H13209   1.848   9.030   4.531 -0.5705  0.4104 -0.3450
  839MOL0     H13210   1.792   9.166   4.332  1.3128  0.7282  2.2997
  839MOL0     H13211   1.621   9.102   4.352  0.3761 -0.9555 -0.1522
  839MOL0     H13212   1.780   9.269   4.555 -0.1400 -2.2575  1.3852
  839MOL0     H13213   1.613   9.197   4.573 -0.0976  1.5003  1.3529
  839MOL0     H13214   1.555   9.339   4.370  1.3980 -0.7337 -1.7189
  839MOL0     H13215   1.607   9.424   4.516  0.7474  0.6875 -0.0744
  839MOL0     H13216   1.855   9.548   4.496  2.4817 -0.4445  0.3305
  839MOL0     H13217   2.125   9.569   4.202  1.4340  0.2068  1.4111
  839MOL0     H13218   2.045   9.698   4.294 -0.5844 -0.3691  0.3332
  839MOL0     H13219   2.120   9.592   4.501  2.0973 -1.0889  1.2731
  839MOL0     H13220   2.174   9.445   4.406 -1.0121  0.8308 -2.7493
  839MOL0     H13221   2.305   9.715   4.447 -1.5966  1.1290 -2.1472
  839MOL0     H13222   2.338   9.622   4.295  3.5749  0.6463  1.7872
  839MOL0     H13223   2.397   9.426   4.434  3.2804  0.5207  0.1050
  839MOL0     H13224   2.370   9.520   4.579  3.2911 -2.2491  1.0164
  839MOL0     H13225   2.768   9.667   4.452  2.2861 -1.1064 -0.4403
  839MOL0     H13226   2.963   9.581   4.567 -1.0146  0.5883  2.7803
  839MOL0     H13227   3.164   9.358   4.925  1.4118 -0.1870  2.5695
  839MOL0     H13228   3.399   9.284   5.003  2.0415  2.3870 -0.9696
  839MOL0     H13229   3.638   9.030   4.758 -2.5138  2.4957 -4.2223
  839MOL0     H13230   3.719   9.169   4.701 -0.4456  2.0099  1.3037
  839MOL0     H13231   3.891   9.030   4.812  2.8450  2.0256  1.3441
  839MOL0     H13232   3.855   9.178   4.884 -0.2010  1.4151 -1.6639
  839MOL0     H13233   3.798   9.075   5.083  4.5774 -1.1094  1.1281
  839MOL0     H13234   3.689   8.953   5.013 -0.5900 -0.7760 -0.9666
  839MOL0     H13235   3.993   8.928   5.027 -0.5431  0.7677 -0.5263
  839MOL0     H13236   3.891   8.831   4.932 -2.8352 -1.4181  0.1797
  839MOL0     H13237   3.763   8.790   5.160  1.4635 -2.3300 -0.5446
  839MOL0     H13238   3.886   8.885   5.246 -0.2859 -3.0272  2.9473
  839MOL0     H13239   4.000   8.661   5.081  2.2025  0.7356 -0.5438
  839MOL0     H13240   4.037   8.693   5.250  0.9810  0.4760 -2.4089
  839MOL0     H13241   3.777   8.569   5.172 -0.5960  1.1228  1.9162
  839MOL0     H13242   3.838   8.578   5.330 -0.5143 -2.4510  0.0743
  839MOL0     H13243   3.870   8.345   5.231  1.7418 -3.1691 -0.4629
  839MOL0     H13244   3.960   8.398   5.103 -0.0337 -1.7944  0.4556
  839MOL0     H13245   3.521   9.253   4.593  2.0559 -1.4296  1.8257
  839MOL0     H13246   3.301   9.320   4.524 -1.5341 -0.4365 -0.2106
  839MOL0     H13247   2.712   9.264   4.730 -0.0272  1.4348  2.7594
  839MOL0     H13248   2.535   9.337   4.611  0.8303 -2.2757 -1.8157
  839MOL0     H13249   1.454   8.626   4.478  3.6764 -2.5647 -1.7259
  839MOL0     H13250   1.226   8.713   4.531 -0.2215  1.2820 -1.2597
  839MOL0     H13251   0.816   8.553   4.669  0.7205 -1.5533 -0.7667
  839MOL0     H13252   0.563   8.557   4.694  0.6188  0.8379  1.1552
  839MOL0     H13253   0.294   8.658   4.306 -4.0094  2.9254 -0.2793
  839MOL0     H13254   0.346   8.801   4.391  2.2191 -0.6555  2.6415
  839MOL0     H13255   0.171   8.731   4.577  0.5237  0.3240  0.1688
  839MOL0     H13256   0.146   8.589   4.468 -2.1307  0.5304  0.1118
  839MOL0     H13257   0.054   8.734   4.302 -1.7555 -2.1268  1.0848
  839MOL0     H13258   0.126   8.870   4.382  1.0489 -0.5606  1.1203
  839MOL0     H13259  -0.116   8.694   4.476  0.4702 -0.7363 -1.4629
  839MOL0     H13260  -0.044   8.816   4.582  2.2083 -0.2400 -0.4438
  839MOL0     H13261  -0.280   9.021   4.284 -2.2539  0.0662  1.4602
  839MOL0     H13262   0.537   8.697   4.293 -0.7375  1.1728  1.4068
  839MOL0     H13263   0.839   8.815   4.227 -3.7457  2.0119 -0.4225
  839MOL0     H13264   0.869   8.649   4.184  1.4422  1.2240  2.4889
  839MOL0     H13265   0.712   8.719   4.149  0.1302 -0.2500  0.2696
  840MOL0     O13266   1.083   2.582   2.265 -1.4065 -0.2776  0.4499
  840MOL0     C13267   1.084   2.549   2.147  1.4656  0.2129 -0.0503
  840MOL0     O13268   1.163   2.597   2.043 -0.3783 -0.0353 -0.2317
  840MOL0     C13269   1.295   2.617   2.078  0.2394  0.0866 -0.3592
  840MOL0     C13270   1.363   2.732   2.045  0.0094 -0.1703 -0.7696
  840MOL0     C13271   1.505   2.733   2.067 -0.0111  0.6952 -0.1576
  840MOL0     C13272   1.579   2.630   2.128  0.7017  0.0531 -0.0065
  840MOL0     O13273   1.702   2.639   2.178 -0.6355 -0.0036 -0.0673
  840MOL0     C13274   1.755   2.770   2.193  0.3154 -0.2048  0.8438
  840MOL0     C13275   1.891   2.757   2.271  0.4313  0.1014  0.0704
  840MOL0     C13276   2.004   2.726   2.159 -0.2412  0.1165  0.1903
  840MOL0     C13277   2.124   2.679   2.237 -0.2333 -0.0801 -0.0246
  840MOL0     C13278   2.240   2.648   2.144  0.1503 -0.6847 -0.1647
  840MOL0     C13279   2.374   2.633   2.227  0.4533 -0.0095 -0.8943
  840MOL0     C13280   2.502   2.608   2.146 -0.1003  0.3230 -0.1364
  840MOL0     C13281   2.618   2.664   2.227 -0.3233 -0.4217 -0.4088
  840MOL0     N13282   2.737   2.680   2.132  0.6095 -0.1417  0.6830
  840MOL0     C13283   2.796   2.571   2.062 -0.4635 -0.3828  0.3284
  840MOL0     C13284   2.876   2.634   1.972 -0.3699  1.0088 -0.3821
  840MOL0     C13285   2.961   2.566   1.868 -0.0051 -0.3608  0.2073
  840MOL0     C13286   3.093   2.533   1.931 -0.8204 -0.0306 -0.5202
  840MOL0     C13287   3.180   2.440   1.840 -0.5141  0.8839 -0.8814
  840MOL0     C13288   3.307   2.395   1.923 -0.8534 -0.0554 -0.0347
  840MOL0     O13289   3.258   2.315   2.026 -0.0683 -0.3796 -0.9737
  840MOL0     C13290   3.349   2.244   2.094  0.5726  0.5089 -0.1494
  840MOL0     C13291   3.486   2.227   2.058  0.0362 -0.5484  0.7913
  840MOL0     C13292   3.576   2.167   2.146 -0.4205 -0.1351 -0.1128
  840MOL0     C13293   3.533   2.111   2.265  0.8076 -0.0388  0.0667
  840MOL0     C13294   3.638   2.070   2.364 -0.1080 -0.5748 -0.7234
  840MOL0     O13295   3.772   2.089   2.334 -0.0593 -0.1365 -0.8633
  840MOL0     C13296   3.861   2.070   2.436 -0.7038  0.6546 -0.0744
  840MOL0     C13297   3.902   1.942   2.474  0.7525 -0.5011  0.4786
  840MOL0     C13298   4.003   1.921   2.560 -0.5169 -0.7892 -1.0386
  840MOL0     C13299   4.070   2.032   2.622  0.5213  0.7870 -0.2449
  840MOL0     O13300   4.186   2.025   2.706 -0.4023 -0.1511  0.4432
  840MOL0     C13301   4.242   1.890   2.727  0.1123 -0.9325  0.5508
  840MOL0     C13302   4.367   1.906   2.817 -0.3162  0.1274 -0.2350
  840MOL0     C13303   4.337   1.992   2.939 -0.2092  0.6013  0.1870
  840MOL0     C13304   4.445   2.083   2.996  0.0702  0.1802  0.3076
  840MOL0     C13305   4.574   2.010   3.032 -0.1354  0.6710 -0.5615
  840MOL0     C13306   4.692   2.098   3.060  0.1735 -0.5252 -0.1998
  840MOL0     C13307   4.806   2.028   3.125  0.3506  0.1588  0.6346
  840MOL0     C13308   4.925   2.122   3.134  0.8046 -0.1665 -1.1397
  840MOL0    Cl13309   5.004   2.143   2.982  0.1304 -0.2960 -0.3031
  840MOL0     C13310   4.023   2.157   2.600 -0.0961 -0.7289  0.0169
  840MOL0     C13311   3.921   2.179   2.501 -0.3708 -0.0870 -0.2141
  840MOL0     O13312   3.591   2.037   2.471  0.0936  0.6188 -0.1979
  840MOL0     C13313   3.397   2.114   2.302 -0.1745 -0.3349  0.1286
  840MOL0     C13314   3.308   2.188   2.220  0.3695 -0.3936  0.2951
  840MOL0     N13315   2.866   2.764   1.993 -0.1455  0.2273  0.1484
  840MOL0     N13316   2.785   2.797   2.086 -0.0420 -1.0083 -0.8477
  840MOL0     C13317   1.506   2.513   2.147 -0.3927  0.1830 -0.2482
  840MOL0     C13318   1.366   2.501   2.121  0.3911  0.1971 -0.2508
  840MOL0     C13319   0.960   2.482   2.103  0.4810  0.8226  0.0180
  840MOL0     C13320   0.916   2.513   1.974  0.4496  0.6507  1.3092
  840MOL0     C13321   0.790   2.472   1.921 -0.2893  0.2930  0.4168
  840MOL0     C13322   0.717   2.393   1.998  0.8788  0.3732 -0.0291
  840MOL0     O13323   0.604   2.338   1.947  0.0160 -0.5304  0.0440
  840MOL0     C13324   0.504   2.283   2.023 -0.3618 -0.0202 -0.3733
  840MOL0     C13325   0.385   2.257   1.928  0.2219  0.7026  0.5599
  840MOL0     C13326   0.255   2.225   2.006 -0.0344  0.3910  0.4897
  840MOL0     C13327   0.140   2.190   1.911 -0.6182 -0.4044 -0.1038
  840MOL0     C13328   0.027   2.187   2.002 -0.0904  0.0119  0.2950
  840MOL0     C13329  -0.063   2.175   2.081  0.1219  0.2343  0.5396
  840MOL0     C13330   0.768   2.345   2.119 -0.2835  0.2396 -0.4199
  840MOL0     C13331   0.886   2.387   2.179 -1.5063  1.1223 -0.7960
  840MOL0     C13332   0.919   2.346   2.321 -0.0308  0.5859  0.7444
  840MOL0     H13333   1.312   2.818   2.001 -0.4586  1.9174  3.3111
  840MOL0     H13334   1.545   2.831   2.044  3.5083 -0.3960  0.7699
  840MOL0     H13335   1.760   2.820   2.096  0.7580 -3.5370 -0.9982
  840MOL0     H13336   1.678   2.824   2.248 -1.1557 -2.6861  1.3655
  840MOL0     H13337   1.877   2.688   2.354  1.9840  0.5783  0.7650
  840MOL0     H13338   1.903   2.858   2.311  0.1528 -0.0995  0.6718
  840MOL0     H13339   2.026   2.818   2.105  0.2542 -0.1735 -0.1126
  840MOL0     H13340   1.972   2.649   2.088 -0.0464 -0.0365  0.2665
  840MOL0     H13341   2.153   2.750   2.315 -2.5170 -2.4969  3.3058
  840MOL0     H13342   2.089   2.584   2.278 -1.8345 -0.1021 -1.3157
  840MOL0     H13343   2.221   2.553   2.093 -0.0473 -1.3165  1.0489
  840MOL0     H13344   2.249   2.732   2.074  3.3383 -0.5922  0.2418
  840MOL0     H13345   2.376   2.720   2.293  0.9461 -1.9772  1.8090
  840MOL0     H13346   2.359   2.550   2.296 -0.7814 -0.8233 -2.0890
  840MOL0     H13347   2.487   2.657   2.049  0.7809  0.3916 -0.2452
  840MOL0     H13348   2.506   2.503   2.116 -1.8740  0.3672 -0.6484
  840MOL0     H13349   2.585   2.760   2.267 -2.0507 -1.6472  1.2744
  840MOL0     H13350   2.654   2.599   2.307 -2.1323 -0.2983  0.5558
  840MOL0     H13351   2.766   2.467   2.075 -2.9998  0.0227 -1.3272
  840MOL0     H13352   2.904   2.478   1.837 -2.6454  1.3699 -0.2016
  840MOL0     H13353   2.968   2.636   1.784  5.3578 -1.3534 -0.5663
  840MOL0     H13354   3.146   2.621   1.969 -2.0671  1.4575 -2.0270
  840MOL0     H13355   3.061   2.472   2.015  2.9367 -3.9539 -1.6084
  840MOL0     H13356   3.222   2.490   1.752  1.4658 -2.2347 -1.8782
  840MOL0     H13357   3.131   2.358   1.787 -0.2275 -0.0771  0.2794
  840MOL0     H13358   3.360   2.481   1.964 -0.1284 -0.9384  0.9435
  840MOL0     H13359   3.371   2.342   1.851 -1.3011 -0.6885  0.0245
  840MOL0     H13360   3.521   2.268   1.964 -1.5827 -0.4998  0.1625
  840MOL0     H13361   3.684   2.169   2.131 -0.5855 -0.6032 -1.5963
  840MOL0     H13362   3.851   1.852   2.440 -2.7061  1.6589 -0.5645
  840MOL0     H13363   4.031   1.817   2.554 -0.7839 -0.8702 -0.9027
  840MOL0     H13364   4.164   1.828   2.771  0.2559 -1.5070  0.0029
  840MOL0     H13365   4.267   1.850   2.628  1.3941  4.6990 -1.8019
  840MOL0     H13366   4.397   1.807   2.851  1.6097  0.7826  0.1055
  840MOL0     H13367   4.450   1.951   2.762  0.6987 -2.6550 -1.1815
  840MOL0     H13368   4.258   2.066   2.926 -0.2675  0.5243  0.1030
  840MOL0     H13369   4.304   1.929   3.023 -0.9551  2.9305  1.7195
  840MOL0     H13370   4.413   2.123   3.092  0.9472 -0.0243  0.6984
  840MOL0     H13371   4.456   2.157   2.916  0.1788  2.9127  2.7118
  840MOL0     H13372   4.597   1.943   2.949 -2.7886  2.3010 -2.8193
  840MOL0     H13373   4.553   1.950   3.120 -1.2309  0.9231 -0.6342
  840MOL0     H13374   4.721   2.148   2.967 -0.1384  2.4043  1.1648
  840MOL0     H13375   4.673   2.180   3.130 -0.6562  0.4458 -1.5269
  840MOL0     H13376   4.834   1.938   3.068  1.2592 -0.2445  1.6710
  840MOL0     H13377   4.779   1.997   3.226 -0.3653  1.0649  0.7247
  840MOL0     H13378   4.904   2.220   3.179  2.4648 -0.1634 -0.2980
  840MOL0     H13379   4.988   2.081   3.213  0.7463  3.1105  0.7975
  840MOL0     H13380   4.065   2.236   2.661 -1.0176  0.2056 -0.5206
  840MOL0     H13381   3.894   2.281   2.478 -1.1270  1.2194  5.2028
  840MOL0     H13382   3.368   2.080   2.400  0.0005  1.4540  0.8344
  840MOL0     H13383   3.204   2.206   2.246  0.4451 -3.0940  3.0996
  840MOL0     H13384   1.554   2.429   2.195 -0.2200  0.9444  0.9490
  840MOL0     H13385   1.305   2.415   2.145 -0.9714  0.7567 -1.4855
  840MOL0     H13386   0.983   2.577   1.916  0.9226  0.1349  1.2788
  840MOL0     H13387   0.760   2.500   1.821  0.7924  0.4967  0.1294
  840MOL0     H13388   0.476   2.349   2.105  0.2597  0.8007 -0.7966
  840MOL0     H13389   0.539   2.186   2.059 -2.4609 -1.2354 -1.4402
  840MOL0     H13390   0.404   2.165   1.872 -1.7775 -0.2318  1.3077
  840MOL0     H13391   0.367   2.344   1.864 -2.1264 -0.8731 -1.1052
  840MOL0     H13392   0.232   2.320   2.057 -0.5800  1.2819 -1.3384
  840MOL0     H13393   0.270   2.150   2.084 -0.3460  0.9861  1.1372
  840MOL0     H13394   0.136   2.272   1.838  0.0839 -0.2744 -0.0070
  840MOL0     H13395   0.145   2.091   1.865 -1.6266 -0.2771 -0.5065
  840MOL0     H13396  -0.136   2.162   2.159  0.2775 -0.7021  0.5464
  840MOL0     H13397   0.729   2.264   2.181 -0.3665  1.5578  1.3359
  840MOL0     H13398   1.017   2.296   2.319  1.0005  2.5003  0.3197
  840MOL0     H13399   0.921   2.436   2.384 -2.3794  0.9692  0.3581
  840MOL0     H13400   0.849   2.277   2.368  1.1454  0.1680  1.9767
  841MOL0     O13401   2.679  11.334  11.279 -0.5636 -0.0341  0.8725
  841MOL0     C13402   2.625  11.260  11.357 -0.0931  0.5250 -0.7172
  841MOL0     O13403   2.693  11.209  11.475  0.6329  0.0596  0.4313
  841MOL0     C13404   2.813  11.259  11.508 -0.1507 -1.3434  0.0897
  841MOL0     C13405   2.932  11.217  11.453 -0.2495  0.0598 -0.5048
  841MOL0     C13406   3.057  11.275  11.489  0.0027 -0.8263 -0.1387
  841MOL0     C13407   3.054  11.378  11.590  0.2448  0.9024 -0.0667
  841MOL0     O13408   3.166  11.448  11.631 -0.5204 -0.1777  0.0985
  841MOL0     C13409   3.298  11.393  11.605 -0.2944  0.1963 -0.6946
  841MOL0     C13410   3.407  11.491  11.649  0.7506  0.2260  0.1397
  841MOL0     C13411   3.545  11.434  11.663  0.2017  0.2240 -0.1037
  841MOL0     C13412   3.639  11.529  11.737 -0.0922  0.0357 -0.5888
  841MOL0     C13413   3.771  11.464  11.758  0.3671 -0.0819 -0.1699
  841MOL0     C13414   3.851  11.547  11.861 -0.3948  0.0249 -0.3991
  841MOL0     C13415   3.972  11.468  11.911 -0.4669  0.8337 -1.0090
  841MOL0     C13416   4.035  11.533  12.031  0.1208 -0.8069 -0.2835
  841MOL0     N13417   4.182  11.510  12.050  0.0738 -0.6214  0.1400
  841MOL0     C13418   4.232  11.386  12.044 -0.5112  0.1079 -0.1588
  841MOL0     C13419   4.356  11.396  12.104  1.3497  0.1823  0.3527
  841MOL0     C13420   4.458  11.286  12.110 -0.0577 -0.0159 -0.5734
  841MOL0     C13421   4.593  11.333  12.183  0.0202  0.1596 -0.2510
  841MOL0     C13422   4.695  11.229  12.205 -0.7188  0.4034 -1.0544
  841MOL0     C13423   4.827  11.282  12.268 -0.7110 -0.4451 -0.5492
  841MOL0     O13424   4.910  11.163  12.276  0.7242 -0.2537 -0.3663
  841MOL0     C13425   5.039  11.159  12.324  0.4628  0.0247 -0.0839
  841MOL0     C13426   5.111  11.037  12.320 -0.9526  0.5022 -0.5045
  841MOL0     C13427   5.232  11.018  12.384  0.2156 -0.4507 -0.6086
  841MOL0     C13428   5.301  11.128  12.443 -0.2826  0.1520 -0.2645
  841MOL0     C13429   5.437  11.106  12.493 -0.6518  0.5485 -0.4150
  841MOL0     O13430   5.499  10.991  12.456 -0.8926  0.7852 -1.2371
  841MOL0     C13431   5.628  10.974  12.486  0.2595  0.6185  0.3639
  841MOL0     C13432   5.722  10.971  12.384 -0.3243 -0.3750  0.7103
  841MOL0     C13433   5.856  10.948  12.420  0.2397  0.0077 -0.3302
  841MOL0     C13434   5.900  10.920  12.548 -0.3491 -0.1426  0.0083
  841MOL0     O13435   6.031  10.896  12.579  0.1476 -0.5734  0.2647
  841MOL0     C13436   6.130  10.986  12.521 -0.4234  0.1385 -0.4364
  841MOL0     C13437   6.260  10.960  12.594  0.1605 -0.0779 -0.2012
  841MOL0     C13438   6.381  10.991  12.504  0.3926 -0.0012 -0.4148
  841MOL0     C13439   6.520  11.014  12.571  0.8085  0.2441  0.4250
  841MOL0     C13440   6.611  11.069  12.465  0.1979 -0.4361 -0.4286
  841MOL0     C13441   6.754  11.086  12.515 -0.6372  0.0019 -0.3717
  841MOL0     C13442   6.851  11.154  12.418 -0.5289  0.0626  0.4478
  841MOL0     C13443   6.999  11.160  12.472  0.1975  0.0850  0.4121
  841MOL0    Cl13444   7.036  11.191  12.645 -0.3552  0.1371 -0.3801
  841MOL0     C13445   5.802  10.924  12.647 -0.2653  0.9464 -1.2693
  841MOL0     C13446   5.664  10.943  12.617 -0.2343 -0.0797 -0.6664
  841MOL0     O13447   5.486  11.201  12.556  0.1801  0.0823  0.0853
  841MOL0     C13448   5.229  11.247  12.445 -0.1243 -0.3539  0.4347
  841MOL0     C13449   5.104  11.263  12.391  0.7653  0.0699 -0.5074
  841MOL0     N13450   4.367  11.531  12.147 -0.1186 -0.0361  0.7912
  841MOL0     N13451   4.263  11.601  12.109 -0.2214 -0.4682  0.1221
  841MOL0     C13452   2.934  11.419  11.653 -0.5750  0.1422 -0.5441
  841MOL0     C13453   2.821  11.354  11.610  0.2260  0.7265 -0.8648
  841MOL0     C13454   2.489  11.214  11.327 -0.0397 -0.0454  0.1716
  841MOL0     C13455   2.433  11.253  11.199 -0.5134  0.2393 -0.3516
  841MOL0     C13456   2.300  11.230  11.167 -0.1370 -0.4181  0.2413
  841MOL0     C13457   2.228  11.141  11.245  0.0485 -0.7668 -0.0334
  841MOL0     O13458   2.096  11.110  11.223 -0.1763  0.0934 -0.5046
  841MOL0     C13459   2.059  11.067  11.087 -0.0127  0.0076 -0.0442
  841MOL0     C13460   1.905  11.095  11.064 -0.3589  0.2235 -0.8368
  841MOL0     C13461   1.810  11.033  11.171  0.1259 -0.0656 -0.6307
  841MOL0     C13462   1.665  11.068  11.146  0.2682 -0.2861 -0.4285
  841MOL0     C13463   1.592  10.978  11.048  0.2705 -0.1349  0.6624
  841MOL0     C13464   1.537  10.909  10.963  0.1776 -0.5172  0.1589
  841MOL0     C13465   2.277  11.109  11.372 -0.1224 -0.1562 -0.2759
  841MOL0     C13466   2.404  11.139  11.417  0.2712  0.4098  0.1049
  841MOL0     C13467   2.431  11.107  11.567 -0.6968 -0.3861  0.3197
  841MOL0     H13468   2.936  11.139  11.377 -0.1085 -0.2532 -0.1782
  841MOL0     H13469   3.148  11.247  11.436 -0.4988 -0.7054 -1.0823
  841MOL0     H13470   3.313  11.305  11.667  1.4198 -0.2869 -1.7517
  841MOL0     H13471   3.315  11.371  11.499 -1.8575 -1.2014 -0.6964
  841MOL0     H13472   3.387  11.518  11.753 -0.3696  1.5919 -0.4081
  841MOL0     H13473   3.401  11.581  11.588  0.0771  1.2834  1.7129
  841MOL0     H13474   3.593  11.399  11.572  0.2746 -2.6848  0.9455
  841MOL0     H13475   3.545  11.342  11.722  2.6075 -0.9046 -1.7445
  841MOL0     H13476   3.649  11.621  11.678 -0.5905  1.4185  1.3728
  841MOL0     H13477   3.591  11.545  11.834  0.3502 -1.8354 -0.0120
  841MOL0     H13478   3.749  11.368  11.806 -0.0881  0.7101  1.2521
  841MOL0     H13479   3.820  11.457  11.660 -2.5184  0.6148 -1.7837
  841MOL0     H13480   3.889  11.634  11.807  1.9746 -0.5930  0.1504
  841MOL0     H13481   3.792  11.587  11.944  0.4089  1.4238 -0.4857
  841MOL0     H13482   4.051  11.452  11.838  0.0590  1.5640 -0.6110
  841MOL0     H13483   3.944  11.369  11.949  0.3691  0.8566 -0.3061
  841MOL0     H13484   4.022  11.642  12.025 -0.6587 -0.9419 -1.3958
  841MOL0     H13485   3.981  11.502  12.120  1.0227  0.9964  0.9684
  841MOL0     H13486   4.182  11.299  12.002 -1.2973  0.5594 -0.1819
  841MOL0     H13487   4.410  11.203  12.163  1.9996 -0.8961  0.0006
  841MOL0     H13488   4.486  11.254  12.009  1.7617  1.1954 -0.4910
  841MOL0     H13489   4.638  11.421  12.137  2.0980 -1.4341 -1.4108
  841MOL0     H13490   4.560  11.378  12.277 -2.9030  1.1908 -1.6317
  841MOL0     H13491   4.728  11.173  12.117  1.7280 -0.7118  0.4715
  841MOL0     H13492   4.640  11.153  12.261 -0.1455  0.4704 -0.3868
  841MOL0     H13493   4.806  11.317  12.369  4.1636 -0.7453  0.8342
  841MOL0     H13494   4.882  11.357  12.211 -0.3026  0.9007  1.5187
  841MOL0     H13495   5.074  10.945  12.276 -2.2393  1.5185 -1.6809
  841MOL0     H13496   5.276  10.920  12.368 -1.2395 -0.6409 -4.5743
  841MOL0     H13497   5.702  10.979  12.278  3.2591  0.9899 -0.0106
  841MOL0     H13498   5.931  10.959  12.342  1.8726  0.6359  1.2612
  841MOL0     H13499   6.152  10.949  12.421 -0.5337 -0.1484 -0.3572
  841MOL0     H13500   6.096  11.089  12.516  0.3334  0.3178 -2.7438
  841MOL0     H13501   6.265  11.035  12.674  0.0007  0.9840 -1.1635
  841MOL0     H13502   6.262  10.855  12.625 -0.5996 -0.1060 -0.2321
  841MOL0     H13503   6.392  10.914  12.427  1.7754  0.4633 -0.7127
  841MOL0     H13504   6.356  11.081  12.447 -2.9179 -0.2843  0.4127
  841MOL0     H13505   6.560  10.916  12.597 -1.0735 -0.3134  1.3980
  841MOL0     H13506   6.529  11.078  12.660  0.8517 -2.7085  2.6940
  841MOL0     H13507   6.575  11.160  12.417  0.6204  0.7369  1.3670
  841MOL0     H13508   6.611  10.992  12.387 -0.6543  1.0683 -1.9782
  841MOL0     H13509   6.742  11.145  12.607 -0.5052  0.9209 -0.9273
  841MOL0     H13510   6.796  10.986  12.529  0.4065 -0.1756 -3.8174
  841MOL0     H13511   6.809  11.254  12.404  3.5720  1.7243 -1.6773
  841MOL0     H13512   6.860  11.113  12.316 -1.2016 -0.3703  0.5543
  841MOL0     H13513   7.047  11.066  12.442  0.3504  0.3870 -0.3083
  841MOL0     H13514   7.048  11.243  12.420 -0.6193  0.0096 -0.4973
  841MOL0     H13515   5.838  10.910  12.749  0.9544  3.1118 -1.3285
  841MOL0     H13516   5.587  10.937  12.693  0.7965  2.8791  0.7579
  841MOL0     H13517   5.267  11.337  12.494 -3.4621  0.9873  0.8457
  841MOL0     H13518   5.056  11.356  12.416  0.1359 -0.5576  0.7184
  841MOL0     H13519   2.927  11.492  11.732  1.6585  0.1205 -0.2633
  841MOL0     H13520   2.725  11.366  11.660  1.3815  1.5473  1.2816
  841MOL0     H13521   2.500  11.311  11.136  3.0733 -2.3109  0.7726
  841MOL0     H13522   2.249  11.279  11.085 -1.0831  1.9831  2.1277
  841MOL0     H13523   2.080  10.959  11.084  2.0336  0.3301 -3.8186
  841MOL0     H13524   2.119  11.115  11.009  0.1152  0.7166  0.4833
  841MOL0     H13525   1.879  11.042  10.971 -0.7745 -1.0674 -0.0142
  841MOL0     H13526   1.892  11.200  11.036 -1.2520  0.2386 -0.3960
  841MOL0     H13527   1.831  11.074  11.270 -1.9453 -0.3532 -0.0280
  841MOL0     H13528   1.822  10.925  11.165 -0.3556 -0.0962 -1.1630
  841MOL0     H13529   1.606  11.066  11.238 -2.1971  0.9098 -1.8827
  841MOL0     H13530   1.656  11.169  11.105 -1.8646 -1.7234 -3.9839
  841MOL0     H13531   1.503  10.872  10.868 -0.3329 -0.5847  0.3682
  841MOL0     H13532   2.206  11.059  11.438 -1.5249 -0.1491 -1.7040
  841MOL0     H13533   2.398  11.192  11.628 -1.3213  1.4297 -2.3743
  841MOL0     H13534   2.375  11.021  11.606 -0.6345 -0.2379  0.7509
  841MOL0     H13535   2.536  11.079  11.580 -1.5842 -3.0992  2.7294
  842MOL0     O13536   2.743   6.865   1.968 -0.2515  0.4497  0.0970
  842MOL0     C13537   2.656   6.842   1.886  0.1722  0.5207 -0.3652
  842MOL0     O13538   2.675   6.856   1.754  0.3308  0.5633 -0.2969
  842MOL0     C13539   2.794   6.920   1.709 -0.4596 -0.3635  0.5310
  842MOL0     C13540   2.867   6.871   1.602 -0.4785 -0.2229 -0.7296
  842MOL0     C13541   2.979   6.943   1.548  0.3170  0.1053  0.4069
  842MOL0     C13542   3.012   7.076   1.596 -0.3127 -0.5701  0.0584
  842MOL0     O13543   3.118   7.148   1.541 -0.3174 -0.0229 -0.4076
  842MOL0     C13544   3.250   7.108   1.588  0.5093 -0.8935 -0.3750
  842MOL0     C13545   3.314   7.230   1.656  0.1585 -0.3304  1.1102
  842MOL0     C13546   3.455   7.216   1.721  0.4118  0.0876  0.1952
  842MOL0     C13547   3.568   7.225   1.620 -0.0779  0.0553 -0.3286
  842MOL0     C13548   3.695   7.147   1.661  0.0968 -0.0681 -0.4112
  842MOL0     C13549   3.723   7.138   1.818  0.4733 -0.3583  0.1835
  842MOL0     C13550   3.841   7.047   1.853 -1.1338 -0.7199  0.2110
  842MOL0     C13551   3.926   7.088   1.983 -0.2908  0.1894 -0.0290
  842MOL0     N13552   3.853   7.061   2.102  0.1589 -1.0622 -0.4914
  842MOL0     C13553   3.759   7.142   2.149  0.6331  0.0391  0.0302
  842MOL0     C13554   3.712   7.074   2.262 -0.9320  0.6261 -0.8802
  842MOL0     C13555   3.597   7.136   2.348  0.6569  0.2241  0.2559
  842MOL0     C13556   3.459   7.093   2.280 -0.7549 -0.6598 -0.5548
  842MOL0     C13557   3.429   7.144   2.134 -0.0460  0.3766 -0.0962
  842MOL0     C13558   3.421   7.297   2.134  0.1354  0.4886 -0.3408
  842MOL0     O13559   3.328   7.342   2.229  0.1514  0.0097  0.3910
  842MOL0     C13560   3.189   7.342   2.199  0.0909 -0.2253  0.2602
  842MOL0     C13561   3.092   7.390   2.288 -0.5920 -0.1900 -1.0536
  842MOL0     C13562   2.967   7.405   2.263  0.7705  0.3795  0.4898
  842MOL0     C13563   2.910   7.342   2.153  0.9546 -0.3515  0.5239
  842MOL0     C13564   2.758   7.342   2.132 -0.1824 -0.6978 -0.5123
  842MOL0     O13565   2.714   7.307   2.005  0.1940  0.5280  0.5011
  842MOL0     C13566   2.580   7.283   1.988 -0.8893  1.0080  0.4720
  842MOL0     C13567   2.526   7.159   1.995 -0.6352 -0.0495 -0.5205
  842MOL0     C13568   2.391   7.140   1.973  0.4148  0.4263  0.0080
  842MOL0     C13569   2.298   7.245   1.946  0.3705  0.6968 -0.5309
  842MOL0     O13570   2.161   7.222   1.928 -0.0991  0.2252  0.2622
  842MOL0     C13571   2.114   7.092   1.907  0.4807  0.1649 -0.2071
  842MOL0     C13572   1.968   7.090   1.854  0.5465 -0.5190  0.2005
  842MOL0     C13573   1.928   6.960   1.794  0.1516  0.8106  1.2580
  842MOL0     C13574   1.775   6.960   1.746 -0.4088 -0.3603 -0.1696
  842MOL0     C13575   1.722   6.814   1.748  0.0623  0.1850 -0.2354
  842MOL0     C13576   1.569   6.810   1.753 -0.3478 -0.4510 -0.4915
  842MOL0     C13577   1.516   6.665   1.765  1.0852  0.2090  0.5255
  842MOL0     C13578   1.382   6.656   1.835 -0.0230  0.3793 -0.0417
  842MOL0    Cl13579   1.268   6.760   1.744 -0.2060 -0.2669  0.2506
  842MOL0     C13580   2.350   7.376   1.955 -0.6686  0.0988  0.8814
  842MOL0     C13581   2.491   7.395   1.976 -0.2115 -0.4697 -0.1495
  842MOL0     O13582   2.677   7.382   2.221 -0.3395 -0.1810  0.1773
  842MOL0     C13583   2.994   7.282   2.064 -0.2486  0.3004  0.9451
  842MOL0     C13584   3.136   7.290   2.083  0.5476  0.8508 -0.2488
  842MOL0     N13585   3.790   6.959   2.277 -0.7923  0.2534 -0.3936
  842MOL0     N13586   3.876   6.952   2.182  0.4699 -0.5036 -0.1593
  842MOL0     C13587   2.929   7.120   1.699  0.1449  0.1259 -0.2072
  842MOL0     C13588   2.832   7.047   1.757 -0.1426  0.3188  0.1261
  842MOL0     C13589   2.520   6.801   1.945  0.0398 -0.7300 -0.0866
  842MOL0     C13590   2.416   6.777   1.853  0.0899 -0.2674  0.0222
  842MOL0     C13591   2.291   6.728   1.883 -0.0627 -0.3773  0.1309
  842MOL0     C13592   2.264   6.713   2.018 -0.4246  0.4224  0.1776
  842MOL0     O13593   2.139   6.679   2.042 -0.2375 -0.1400 -0.2256
  842MOL0     C13594   2.070   6.728   2.160  0.8238  0.7621  0.3887
  842MOL0     C13595   1.917   6.705   2.133 -0.0470 -0.1885 -0.4588
  842MOL0     C13596   1.839   6.734   2.258  0.1684 -0.3525  1.1762
  842MOL0     C13597   1.692   6.680   2.256 -0.3461  0.4182 -0.2200
  842MOL0     C13598   1.699   6.534   2.266 -0.2395  0.1412 -0.1623
  842MOL0     C13599   1.698   6.415   2.290  0.4380 -0.1784  0.4830
  842MOL0     C13600   2.359   6.742   2.112  0.2284  0.0190 -0.4471
  842MOL0     C13601   2.494   6.790   2.089  0.7028 -0.3486  0.3611
  842MOL0     C13602   2.581   6.823   2.206 -0.2414  1.2650  0.1880
  842MOL0     H13603   2.851   6.769   1.567  0.6376 -0.8332  0.4602
  842MOL0     H13604   3.032   6.897   1.465  0.7301 -1.8703  1.6710
  842MOL0     H13605   3.242   7.032   1.667  2.1722 -0.8458 -0.1177
  842MOL0     H13606   3.324   7.078   1.513 -0.0563 -3.1049 -0.1262
  842MOL0     H13607   3.236   7.263   1.726 -0.0879  1.4306  0.0712
  842MOL0     H13608   3.325   7.306   1.578 -1.3011 -1.0503  0.1566
  842MOL0     H13609   3.453   7.124   1.779 -2.9206 -1.1542 -1.6478
  842MOL0     H13610   3.473   7.294   1.796  4.5053 -1.1601  0.7326
  842MOL0     H13611   3.535   7.177   1.528  0.9387 -0.7809 -0.2671
  842MOL0     H13612   3.597   7.329   1.603  1.7836 -0.0866  1.5655
  842MOL0     H13613   3.691   7.049   1.613  0.2901 -0.6633  0.7784
  842MOL0     H13614   3.788   7.190   1.622  2.3319 -1.9524  2.4608
  842MOL0     H13615   3.732   7.241   1.854 -4.7728 -0.1722  1.7231
  842MOL0     H13616   3.633   7.113   1.874  0.5238  1.6523  1.2367
  842MOL0     H13617   3.919   7.054   1.777  0.2609 -0.8791  1.5769
  842MOL0     H13618   3.808   6.943   1.849 -1.0158 -0.7301 -0.7003
  842MOL0     H13619   4.007   7.014   1.982  0.2859  0.8230 -0.6072
  842MOL0     H13620   3.950   7.195   1.986 -0.3261  0.1803  1.3647
  842MOL0     H13621   3.715   7.223   2.092 -0.6290 -1.6986 -1.5878
  842MOL0     H13622   3.604   7.087   2.446 -1.0057  0.3465  0.4675
  842MOL0     H13623   3.603   7.245   2.350 -0.4404  0.2823  0.7126
  842MOL0     H13624   3.455   6.984   2.281 -1.2016 -0.6875  2.0960
  842MOL0     H13625   3.373   7.123   2.342 -1.7131 -1.4109 -1.4913
  842MOL0     H13626   3.336   7.092   2.109  0.3260 -0.1096 -0.4800
  842MOL0     H13627   3.503   7.104   2.064  0.4021 -0.0664  0.6295
  842MOL0     H13628   3.380   7.331   2.038 -1.3365  1.4245  0.5634
  842MOL0     H13629   3.514   7.350   2.155  0.2586  0.1813 -0.1162
  842MOL0     H13630   3.140   7.421   2.380 -0.3549  0.9301 -1.5406
  842MOL0     H13631   2.896   7.436   2.339  1.2171  2.5375  0.0775
  842MOL0     H13632   2.594   7.077   2.015 -0.3343  0.7017  1.8055
  842MOL0     H13633   2.354   7.038   1.972 -0.0657  0.5811 -1.5977
  842MOL0     H13634   2.176   7.040   1.833  0.0546 -0.9936  0.2234
  842MOL0     H13635   2.113   7.044   2.005 -1.3139  1.8299  0.6762
  842MOL0     H13636   1.899   7.116   1.934 -1.9960  1.0095 -2.3133
  842MOL0     H13637   1.947   7.161   1.774 -0.9868  0.8587  1.7545
  842MOL0     H13638   1.979   6.933   1.701  1.2624 -1.4069  2.4224
  842MOL0     H13639   1.954   6.883   1.867  2.6427  0.4818  0.1121
  842MOL0     H13640   1.756   7.009   1.650 -2.3319 -1.8658 -0.6317
  842MOL0     H13641   1.724   7.019   1.822  0.7276 -1.4241  1.5065
  842MOL0     H13642   1.756   6.759   1.836  0.6377 -0.6069 -0.9274
  842MOL0     H13643   1.759   6.764   1.658 -2.0634  0.3568 -1.2739
  842MOL0     H13644   1.530   6.865   1.838 -0.7188  1.3555 -1.7898
  842MOL0     H13645   1.532   6.850   1.658  0.5637 -0.3534 -0.8192
  842MOL0     H13646   1.577   6.595   1.823 -1.5271 -1.3653  1.5450
  842MOL0     H13647   1.505   6.624   1.664 -2.4651 -2.4750  1.8210
  842MOL0     H13648   1.346   6.553   1.842 -0.6259  0.4309 -1.8281
  842MOL0     H13649   1.398   6.697   1.935 -1.2301  0.8651 -0.0243
  842MOL0     H13650   2.285   7.463   1.945  0.9281  1.5143  2.2842
  842MOL0     H13651   2.527   7.497   1.985 -0.0614 -0.6454  1.9212
  842MOL0     H13652   2.955   7.217   1.987 -1.1247 -0.1257  1.7196
  842MOL0     H13653   3.194   7.228   2.015  0.8835  1.7358 -0.7788
  842MOL0     H13654   2.959   7.218   1.735  2.2856 -0.0010 -1.4791
  842MOL0     H13655   2.770   7.091   1.834 -3.4902 -1.1702 -1.5010
  842MOL0     H13656   2.442   6.790   1.748  4.5946  1.3867  1.1154
  842MOL0     H13657   2.224   6.706   1.800 -0.8542 -0.1791  0.7029
  842MOL0     H13658   2.093   6.834   2.177 -2.2175  1.5454  0.2747
  842MOL0     H13659   2.095   6.655   2.237 -1.7843 -2.7798 -1.8338
  842MOL0     H13660   1.901   6.601   2.104 -0.0037 -0.4029  0.2833
  842MOL0     H13661   1.890   6.781   2.059  1.4584  0.4500 -0.3902
  842MOL0     H13662   1.844   6.842   2.276  2.9716  0.1165 -1.6197
  842MOL0     H13663   1.896   6.693   2.343 -0.6973 -1.1161  1.3956
  842MOL0     H13664   1.625   6.728   2.328 -2.2345  0.2743 -1.8094
  842MOL0     H13665   1.639   6.711   2.166 -1.6060 -1.8972 -0.3506
  842MOL0     H13666   1.712   6.309   2.303  0.9115  0.0477  1.9221
  842MOL0     H13667   2.321   6.743   2.213 -0.4825  0.9056 -0.7071
  842MOL0     H13668   2.601   6.930   2.215  0.6898  0.8941  5.1088
  842MOL0     H13669   2.551   6.782   2.303 -0.1550 -0.2663 -0.4131
  842MOL0     H13670   2.674   6.770   2.185 -0.3874  0.7090  0.9163
  843MOL0     O13671   0.421   3.771   4.710  0.0667  0.5017 -0.7184
  843MOL0     C13672   0.344   3.680   4.734  0.9775 -0.0079  0.2825
  843MOL0     O13673   0.355   3.543   4.696  0.9555 -0.0951 -0.6382
  843MOL0     C13674   0.482   3.489   4.667  0.2932 -0.0761 -0.5382
  843MOL0     C13675   0.602   3.549   4.694  0.1305  0.7083 -0.6443
  843MOL0     C13676   0.726   3.484   4.666  0.3724 -0.4256  0.2133
  843MOL0     C13677   0.720   3.357   4.603 -0.1411  0.3341 -0.3428
  843MOL0     O13678   0.815   3.276   4.554 -0.5517  0.2196  0.2093
  843MOL0     C13679   0.949   3.331   4.565  0.2630 -0.0639  0.8412
  843MOL0     C13680   1.037   3.245   4.478  0.9290  0.7843 -0.1326
  843MOL0     C13681   1.187   3.284   4.491 -0.3109  0.4597  0.6505
  843MOL0     C13682   1.283   3.227   4.382 -1.1490  0.1450  0.2002
  843MOL0     C13683   1.431   3.260   4.422 -0.0005 -0.5473 -0.0319
  843MOL0     C13684   1.535   3.155   4.366  0.7934 -0.9593  0.7784
  843MOL0     C13685   1.672   3.187   4.416  0.2205  0.2253 -1.0247
  843MOL0     C13686   1.766   3.083   4.362 -0.3719  0.4666 -0.3566
  843MOL0     N13687   1.908   3.125   4.354 -0.0863 -0.2418  0.3323
  843MOL0     C13688   1.990   3.100   4.464 -0.0206  0.8638 -0.6439
  843MOL0     C13689   2.091   3.191   4.446 -0.2280  0.2157  0.0227
  843MOL0     C13690   2.214   3.231   4.533  0.1657 -0.0175 -0.2940
  843MOL0     C13691   2.345   3.230   4.455  0.9160 -0.2184  0.0685
  843MOL0     C13692   2.446   3.305   4.536  0.1193  0.8882 -0.2345
  843MOL0     C13693   2.566   3.337   4.447  0.1580  0.6405 -0.4110
  843MOL0     O13694   2.680   3.342   4.542 -0.0552 -0.3684 -0.1079
  843MOL0     C13695   2.802   3.362   4.489  0.4033  0.5753  0.3327
  843MOL0     C13696   2.915   3.340   4.566  0.0413  0.1074 -0.1432
  843MOL0     C13697   3.044   3.358   4.520  0.4252 -0.2097 -0.1299
  843MOL0     C13698   3.070   3.399   4.390  1.2043 -0.0774  0.1963
  843MOL0     C13699   3.212   3.400   4.345 -0.0241 -1.4192  0.6235
  843MOL0     O13700   3.244   3.389   4.207 -0.1880 -0.0453 -0.6981
  843MOL0     C13701   3.371   3.421   4.166 -0.4868  0.3462  0.3193
  843MOL0     C13702   3.374   3.510   4.055 -0.3912  0.5162  1.1565
  843MOL0     C13703   3.498   3.539   3.996  0.0612  0.6188  0.3201
  843MOL0     C13704   3.619   3.498   4.054 -0.4611 -0.2123  0.1325
  843MOL0     O13705   3.735   3.538   3.997 -0.3983  0.3667 -0.3485
  843MOL0     C13706   3.848   3.541   4.086 -0.6208  1.2003  0.0601
  843MOL0     C13707   3.960   3.622   4.018  0.5909  0.2493 -0.3080
  843MOL0     C13708   4.084   3.610   4.098  0.8955 -0.0021 -0.3926
  843MOL0     C13709   4.143   3.467   4.108 -1.3688 -0.0330  0.7093
  843MOL0     C13710   4.293   3.460   4.146  0.0818  0.2307  0.1153
  843MOL0     C13711   4.387   3.465   4.024  0.1542  0.1724  0.4929
  843MOL0     C13712   4.529   3.430   4.067 -0.6900  0.9833  0.0853
  843MOL0     C13713   4.629   3.437   3.949 -0.4493  0.2277 -0.2963
  843MOL0    Cl13714   4.576   3.353   3.792 -0.2519 -0.3176 -0.2068
  843MOL0     C13715   3.616   3.420   4.169  0.3125 -0.1058 -0.7659
  843MOL0     C13716   3.492   3.390   4.229  0.0963  0.0868 -0.4805
  843MOL0     O13717   3.290   3.423   4.436  0.3227 -0.9560  0.0005
  843MOL0     C13718   2.956   3.420   4.311  0.1469  0.2896 -0.4450
  843MOL0     C13719   2.825   3.396   4.357 -1.0979  0.3534 -0.6849
  843MOL0     N13720   2.065   3.262   4.325 -0.7068  0.2357  0.8734
  843MOL0     N13721   1.951   3.230   4.281  0.0820  0.5543  0.5322
  843MOL0     C13722   0.599   3.300   4.589 -0.1279 -0.3016 -0.1548
  843MOL0     C13723   0.483   3.358   4.625  0.8976 -0.4531 -0.9197
  843MOL0     C13724   0.207   3.718   4.784  0.1383  0.0553 -0.7101
  843MOL0     C13725   0.097   3.645   4.734  0.0943 -1.0834 -0.3257
  843MOL0     C13726  -0.035   3.694   4.762 -0.7810  1.3132  0.8892
  843MOL0     C13727  -0.065   3.798   4.844 -0.8609  0.1799  0.6419
  843MOL0     O13728  -0.197   3.830   4.874 -0.2788  0.1567  0.8480
  843MOL0     C13729  -0.233   3.923   4.966  0.9943 -0.7854 -0.3941
  843MOL0     C13730  -0.233   3.851   5.098 -0.1144 -1.3181 -0.3787
  843MOL0     C13731  -0.304   3.920   5.218  0.3493 -0.0824 -0.4686
  843MOL0     C13732  -0.300   4.079   5.238 -0.1914  0.2469  0.4662
  843MOL0     C13733  -0.165   4.105   5.273 -0.2261 -0.3155  0.3656
  843MOL0     C13734  -0.055   4.153   5.307  0.2454  0.5597 -0.0792
  843MOL0     C13735   0.050   3.864   4.895  0.8589  0.5216 -0.2422
  843MOL0     C13736   0.182   3.831   4.861  0.1551 -0.0931 -0.3850
  843MOL0     C13737   0.289   3.922   4.905 -0.2957 -1.1943  0.0184
  843MOL0     H13738   0.606   3.645   4.744  1.6897  0.8894 -1.0921
  843MOL0     H13739   0.812   3.539   4.703 -1.7891  2.7800  0.8971
  843MOL0     H13740   0.950   3.431   4.521 -1.2805 -0.0972  0.6842
  843MOL0     H13741   0.988   3.329   4.667  3.7019 -3.4123 -0.2849
  843MOL0     H13742   1.000   3.241   4.376 -0.5908 -1.7678  0.4268
  843MOL0     H13743   1.026   3.145   4.519  0.8730  1.3193  1.2256
  843MOL0     H13744   1.230   3.253   4.587 -1.6466 -1.5729  0.6437
  843MOL0     H13745   1.191   3.394   4.487 -0.9177  0.4523 -1.1668
  843MOL0     H13746   1.271   3.118   4.381  3.3213 -0.5486  1.3006
  843MOL0     H13747   1.265   3.274   4.285  0.2934  0.1926 -0.0670
  843MOL0     H13748   1.466   3.361   4.400  0.1058 -0.9976 -2.0502
  843MOL0     H13749   1.440   3.248   4.531 -1.9293 -2.5351 -0.0083
  843MOL0     H13750   1.511   3.050   4.387  1.2982 -2.3165 -4.1047
  843MOL0     H13751   1.529   3.166   4.257 -3.8005 -0.4148  0.8841
  843MOL0     H13752   1.664   3.183   4.524  0.5245  1.7763 -0.9178
  843MOL0     H13753   1.699   3.292   4.400  0.6757  0.1266 -0.9284
  843MOL0     H13754   1.760   2.999   4.432 -0.7556 -0.8223 -1.8490
  843MOL0     H13755   1.737   3.049   4.262  0.4044 -1.0217 -0.1090
  843MOL0     H13756   1.982   3.018   4.535 -0.8893 -0.3814 -2.1490
  843MOL0     H13757   2.189   3.335   4.556 -0.1961  0.0667 -1.0284
  843MOL0     H13758   2.214   3.173   4.626  0.0694  1.5979  0.7450
  843MOL0     H13759   2.373   3.129   4.425  0.4229  0.5104 -3.2289
  843MOL0     H13760   2.317   3.279   4.361 -1.0019 -1.9132 -0.3029
  843MOL0     H13761   2.476   3.235   4.615  0.6315  1.7462  0.3443
  843MOL0     H13762   2.412   3.398   4.582  1.1617  0.1580  2.1764
  843MOL0     H13763   2.559   3.424   4.381 -1.7340 -0.5443 -1.8773
  843MOL0     H13764   2.590   3.253   4.382  0.4907 -0.4507  1.0780
  843MOL0     H13765   2.900   3.293   4.663  1.8364  0.3011  0.2667
  843MOL0     H13766   3.130   3.325   4.579 -0.5884 -1.9084  0.4824
  843MOL0     H13767   3.285   3.552   4.008 -0.1965  0.4992  0.7729
  843MOL0     H13768   3.516   3.605   3.912  1.5965 -2.3670 -1.8648
  843MOL0     H13769   3.837   3.586   4.185  0.9260  2.1971 -0.1789
  843MOL0     H13770   3.886   3.438   4.091 -0.6425  1.0108 -2.2875
  843MOL0     H13771   3.987   3.594   3.916  0.2009  0.8028 -0.5682
  843MOL0     H13772   3.931   3.727   4.027  1.1259  0.3101  0.9558
  843MOL0     H13773   4.144   3.691   4.056  0.0050  1.1604  0.4996
  843MOL0     H13774   4.066   3.645   4.200 -4.4848  1.0307 -1.3853
  843MOL0     H13775   4.128   3.412   4.015 -1.6439  1.7431 -0.3601
  843MOL0     H13776   4.081   3.410   4.177 -0.8277 -1.1626  0.2824
  843MOL0     H13777   4.306   3.365   4.199  0.3267 -0.3979 -1.0415
  843MOL0     H13778   4.315   3.538   4.219  1.7408 -3.0499  3.4582
  843MOL0     H13779   4.350   3.392   3.951 -1.4231  1.2209  0.1913
  843MOL0     H13780   4.388   3.563   3.976 -1.4850 -1.4893 -3.3594
  843MOL0     H13781   4.530   3.328   4.106  2.7144  1.5562  1.9336
  843MOL0     H13782   4.560   3.491   4.152  2.5371 -0.3928  0.0685
  843MOL0     H13783   4.652   3.542   3.930 -0.4665  0.5341  1.2359
  843MOL0     H13784   4.718   3.391   3.991 -0.6694  2.0866  2.4829
  843MOL0     H13785   3.710   3.389   4.214  0.5187 -0.9166 -1.7452
  843MOL0     H13786   3.488   3.323   4.314  0.4656  0.1057 -0.4444
  843MOL0     H13787   2.989   3.460   4.216  0.0828 -0.6544 -0.8745
  843MOL0     H13788   2.745   3.398   4.283  0.1169 -4.9266 -2.5955
  843MOL0     H13789   0.588   3.199   4.551 -0.9339 -0.7195  1.1135
  843MOL0     H13790   0.394   3.299   4.607  0.2786 -0.6822  2.3287
  843MOL0     H13791   0.114   3.563   4.665  1.4457 -0.9351 -0.1918
  843MOL0     H13792  -0.121   3.633   4.735 -0.1094  0.2743  1.0662
  843MOL0     H13793  -0.339   3.948   4.962  0.5995 -2.2987  0.1192
  843MOL0     H13794  -0.169   4.012   4.966  0.0941 -0.1143 -1.0847
  843MOL0     H13795  -0.126   3.848   5.121  0.2221 -0.0344 -1.5609
  843MOL0     H13796  -0.272   3.750   5.083 -0.5427 -0.8797 -2.5985
  843MOL0     H13797  -0.261   3.880   5.310 -0.6640  3.1918  1.6063
  843MOL0     H13798  -0.409   3.890   5.226  0.6542 -0.7282  1.7446
  843MOL0     H13799  -0.347   4.134   5.156 -0.5013 -0.2629  0.3035
  843MOL0     H13800  -0.355   4.096   5.331 -0.5492 -2.3586  0.7972
  843MOL0     H13801   0.034   4.201   5.342  1.7461 -1.4540 -0.9245
  843MOL0     H13802   0.042   3.952   4.957 -0.9646  0.0286  0.2936
  843MOL0     H13803   0.386   3.873   4.912  1.2432  1.4681 -1.3452
  843MOL0     H13804   0.294   4.006   4.836  3.7518 -0.1529  1.3198
  843MOL0     H13805   0.266   3.970   5.001 -2.8822  0.2818 -1.2263
  844MOL0     O13806   2.311   2.377   4.869  0.1658 -0.6204  0.2911
  844MOL0     C13807   2.236   2.328   4.954  0.7402 -0.1883  0.3532
  844MOL0     O13808   2.231   2.370   5.088  0.5550 -0.4340  0.4118
  844MOL0     C13809   2.308   2.471   5.122 -0.2785  0.2554  0.6867
  844MOL0     C13810   2.448   2.457   5.140  0.6857 -0.1142 -0.3889
  844MOL0     C13811   2.519   2.565   5.183  0.1845 -0.2012  0.3420
  844MOL0     C13812   2.452   2.683   5.223 -0.0278 -0.1325 -0.5631
  844MOL0     O13813   2.539   2.781   5.267  0.1930 -0.8112 -0.0509
  844MOL0     C13814   2.495   2.919   5.282  0.6586  0.2572  0.8745
  844MOL0     C13815   2.612   3.017   5.331  0.5168  0.4124 -0.3248
  844MOL0     C13816   2.675   2.967   5.462 -0.1063  0.4201 -0.2620
  844MOL0     C13817   2.785   3.067   5.510 -0.4304  0.2503 -0.2850
  844MOL0     C13818   2.881   3.013   5.613 -0.3132  0.3504 -0.4434
  844MOL0     C13819   2.964   3.129   5.664  0.0359 -0.4770  0.0304
  844MOL0     C13820   3.086   3.073   5.740  0.3299 -0.9429  0.1035
  844MOL0     C13821   3.173   3.177   5.797 -0.4655 -0.0800 -0.5227
  844MOL0     N13822   3.280   3.131   5.889 -0.5224  0.4839  0.2775
  844MOL0     C13823   3.315   2.997   5.894 -0.3791 -0.3679 -0.2836
  844MOL0     C13824   3.412   2.983   5.985  1.3125  0.0458  0.2456
  844MOL0     C13825   3.488   2.857   6.030 -0.7825 -0.6073 -0.1071
  844MOL0     C13826   3.638   2.860   5.979  0.1743 -0.0592 -0.5852
  844MOL0     C13827   3.729   2.965   6.032 -0.5626 -0.3927 -0.5457
  844MOL0     C13828   3.879   2.927   6.048  1.1155 -0.4581 -0.0834
  844MOL0     O13829   3.917   2.889   5.919  0.1097 -0.2216  0.0437
  844MOL0     C13830   4.035   2.822   5.908 -0.6056 -0.4213 -0.3177
  844MOL0     C13831   4.067   2.787   5.776 -0.5141 -0.0199 -0.4278
  844MOL0     C13832   4.179   2.714   5.743  0.7209  0.5074 -0.5231
  844MOL0     C13833   4.280   2.694   5.846  0.6927 -0.7209 -0.3333
  844MOL0     C13834   4.414   2.633   5.816  0.6008 -0.4609  0.0104
  844MOL0     O13835   4.481   2.585   5.919  0.5523  0.0021  0.4757
  844MOL0     C13836   4.614   2.550   5.906  0.2378 -0.3190 -0.1409
  844MOL0     C13837   4.640   2.428   5.854 -0.4795  0.4618  0.0480
  844MOL0     C13838   4.770   2.380   5.839 -0.1882  0.4757  0.2314
  844MOL0     C13839   4.881   2.456   5.890  0.1773  0.2361 -0.3998
  844MOL0     O13840   5.009   2.423   5.890 -0.3160 -0.8961  0.5164
  844MOL0     C13841   5.055   2.323   5.789  0.7522  0.1704  0.1618
  844MOL0     C13842   5.206   2.320   5.780 -0.5117 -0.8474  0.4801
  844MOL0     C13843   5.274   2.342   5.909  0.2447  0.4833  0.2091
  844MOL0     C13844   5.418   2.305   5.913 -0.1467 -0.0157 -0.1634
  844MOL0     C13845   5.461   2.334   6.053 -1.2136 -0.0192 -0.3383
  844MOL0     C13846   5.621   2.302   6.070 -0.0868  0.1031 -0.3844
  844MOL0     C13847   5.671   2.308   6.215  0.4836  0.7964  0.3016
  844MOL0     C13848   5.763   2.432   6.243  0.5981 -0.6082  0.1635
  844MOL0    Cl13849   5.780   2.457   6.416  0.2129 -0.0950  0.2018
  844MOL0     C13850   4.848   2.580   5.946 -0.0185  0.9690  0.7319
  844MOL0     C13851   4.722   2.633   5.948 -0.0105  0.5611  0.7002
  844MOL0     O13852   4.451   2.630   5.700 -0.8289 -0.0287  0.0765
  844MOL0     C13853   4.248   2.736   5.981 -0.2445 -0.3821  0.1724
  844MOL0     C13854   4.133   2.814   6.005 -0.3258  1.0164  0.1368
  844MOL0     N13855   3.431   3.103   6.050  0.3654  0.6119 -0.1978
  844MOL0     N13856   3.346   3.186   5.991  0.3800  0.5082 -0.3002
  844MOL0     C13857   2.311   2.696   5.210  0.8878 -0.7167 -0.3587
  844MOL0     C13858   2.238   2.590   5.161  0.0268  0.1078  0.0861
  844MOL0     C13859   2.139   2.234   4.913  0.7577 -0.3110 -0.8273
  844MOL0     C13860   2.009   2.242   4.953 -0.8913 -0.3043 -0.2367
  844MOL0     C13861   1.921   2.139   4.917  0.4743 -0.7010 -0.3252
  844MOL0     C13862   1.966   2.031   4.845 -0.0458  0.3189  0.7180
  844MOL0     O13863   1.901   1.914   4.810  0.4839 -0.2927 -0.6680
  844MOL0     C13864   1.767   1.896   4.853 -0.3896 -0.2741 -0.0360
  844MOL0     C13865   1.724   1.770   4.779  0.8607  0.0777  0.0701
  844MOL0     C13866   1.700   1.810   4.631  1.0079 -0.7508 -0.6939
  844MOL0     C13867   1.680   1.703   4.526 -0.4155  0.0266 -0.7140
  844MOL0     C13868   1.579   1.600   4.569  0.2341 -0.8205  0.2553
  844MOL0     C13869   1.505   1.512   4.609  0.3634  0.1885  0.0916
  844MOL0     C13870   2.089   2.034   4.789  0.0326  0.6532  0.1566
  844MOL0     C13871   2.181   2.127   4.828 -0.7476  0.0214  0.6084
  844MOL0     C13872   2.327   2.094   4.774 -0.4555 -0.2839 -0.0172
  844MOL0     H13873   2.491   2.363   5.108 -0.1911  0.2026 -2.7285
  844MOL0     H13874   2.624   2.564   5.211  0.5830  1.8051 -0.8931
  844MOL0     H13875   2.453   2.956   5.188 -0.6681  0.1835  1.4116
  844MOL0     H13876   2.418   2.919   5.360 -0.5291 -0.5362 -0.2472
  844MOL0     H13877   2.586   3.123   5.347 -0.5591 -0.0904  1.5543
  844MOL0     H13878   2.682   3.005   5.248 -1.5440 -1.3949 -1.9100
  844MOL0     H13879   2.721   2.870   5.440  0.9800  1.1194 -1.1586
  844MOL0     H13880   2.587   2.963   5.528 -1.2185 -2.1792 -1.7233
  844MOL0     H13881   2.842   3.094   5.420 -0.5964 -0.1555 -0.5115
  844MOL0     H13882   2.743   3.155   5.559 -1.9729 -0.6629  0.0865
  844MOL0     H13883   2.828   2.971   5.699  1.4142 -0.8457  0.0883
  844MOL0     H13884   2.935   2.929   5.570  0.4482 -0.1298  1.3578
  844MOL0     H13885   3.000   3.193   5.584  0.4986 -0.6561  0.0894
  844MOL0     H13886   2.894   3.183   5.729 -0.9358 -0.4705 -0.9861
  844MOL0     H13887   3.153   3.030   5.665  0.6490 -0.0474 -0.1386
  844MOL0     H13888   3.046   3.004   5.816 -1.0662 -1.7997 -1.3434
  844MOL0     H13889   3.215   3.240   5.718 -0.6520 -0.6945 -1.1262
  844MOL0     H13890   3.110   3.251   5.847  0.7834  0.9586 -0.4313
  844MOL0     H13891   3.281   2.921   5.824 -0.4320 -1.7999  1.2379
  844MOL0     H13892   3.479   2.846   6.138  0.6732  0.7211  0.1933
  844MOL0     H13893   3.434   2.776   5.980 -0.8824  0.1435 -1.2557
  844MOL0     H13894   3.689   2.766   6.001  0.1679 -0.7271 -3.1395
  844MOL0     H13895   3.638   2.869   5.870 -0.7879 -0.5812 -0.6385
  844MOL0     H13896   3.696   3.004   6.129 -0.9447 -0.6414 -0.5726
  844MOL0     H13897   3.734   3.054   5.969 -0.4939  0.9097  1.2187
  844MOL0     H13898   3.894   2.852   6.126 -1.9130  0.2706  1.3455
  844MOL0     H13899   3.928   3.023   6.064 -0.4101  0.7607 -2.1557
  844MOL0     H13900   3.999   2.803   5.692 -0.9292 -1.8585 -0.4816
  844MOL0     H13901   4.210   2.685   5.643  1.1806  1.1181 -0.5654
  844MOL0     H13902   4.553   2.369   5.827 -0.4948  0.7252 -0.5144
  844MOL0     H13903   4.785   2.280   5.800  0.1587  0.9453 -0.8699
  844MOL0     H13904   5.016   2.222   5.805  2.2468 -0.5985 -0.7966
  844MOL0     H13905   5.013   2.366   5.697 -0.1104  2.6133  1.6012
  844MOL0     H13906   5.245   2.224   5.746  3.5296  0.3207  1.2476
  844MOL0     H13907   5.245   2.397   5.712 -2.5331  0.6059  0.8928
  844MOL0     H13908   5.265   2.447   5.939 -3.8160  0.8525 -1.7160
  844MOL0     H13909   5.236   2.277   5.988  1.6656 -0.3981  0.2028
  844MOL0     H13910   5.457   2.370   5.835  1.3961  1.3495  1.6402
  844MOL0     H13911   5.424   2.197   5.894 -0.9083  0.2236 -1.8947
  844MOL0     H13912   5.398   2.271   6.117 -0.4768  1.4304  1.9156
  844MOL0     H13913   5.441   2.437   6.085 -1.7364 -0.3352  0.3842
  844MOL0     H13914   5.637   2.200   6.035  0.1347  0.3382 -1.0000
  844MOL0     H13915   5.684   2.364   6.004  0.9044  0.0471  0.4958
  844MOL0     H13916   5.736   2.224   6.242  1.4164  1.5317  0.4120
  844MOL0     H13917   5.589   2.308   6.288  0.1340  1.0798 -0.0857
  844MOL0     H13918   5.859   2.419   6.193 -0.8706  0.3624 -3.2486
  844MOL0     H13919   5.722   2.524   6.200  1.2922  0.2684  1.3199
  844MOL0     H13920   4.931   2.631   5.994  1.4991 -3.5691  3.5443
  844MOL0     H13921   4.705   2.731   5.992  1.2908  1.7135 -1.2342
  844MOL0     H13922   4.313   2.711   6.064  0.9996  1.5427 -0.1507
  844MOL0     H13923   4.127   2.843   6.110  3.4933  1.1295  0.4597
  844MOL0     H13924   2.260   2.785   5.244  0.6289  0.4838 -3.5559
  844MOL0     H13925   2.132   2.604   5.149  0.1730  0.8560 -0.3879
  844MOL0     H13926   1.968   2.323   5.011 -0.3026 -1.2286  1.5300
  844MOL0     H13927   1.814   2.145   4.935  0.1465 -2.9748 -1.1917
  844MOL0     H13928   1.708   1.984   4.823 -1.5135 -0.8666  0.3987
  844MOL0     H13929   1.758   1.879   4.960 -0.9118 -0.3928 -0.0974
  844MOL0     H13930   1.634   1.727   4.824 -0.8054  0.8304 -2.3746
  844MOL0     H13931   1.803   1.695   4.790 -0.6508 -1.2176  3.7609
  844MOL0     H13932   1.784   1.865   4.589 -0.9493  2.0821 -1.1920
  844MOL0     H13933   1.604   1.862   4.638 -0.9634 -4.2806  1.8441
  844MOL0     H13934   1.645   1.747   4.432 -2.5756  1.3793  0.6213
  844MOL0     H13935   1.776   1.654   4.509 -2.0226 -2.6532 -3.1570
  844MOL0     H13936   1.427   1.439   4.617  0.4541  0.0449 -0.2798
  844MOL0     H13937   2.124   1.953   4.727 -0.6825 -0.4761  1.1863
  844MOL0     H13938   2.363   2.181   4.718 -0.7379 -0.4183 -0.4189
  844MOL0     H13939   2.396   2.073   4.856 -1.0540 -3.6138 -0.2369
  844MOL0     H13940   2.332   2.008   4.707  1.3805 -1.8191  1.9621
  845MOL0     O13941   5.199   4.859   0.398  0.2338 -0.3301 -0.0287
  845MOL0     C13942   5.202   4.903   0.285  0.7115  0.7758 -0.0542
  845MOL0     O13943   5.299   4.885   0.193  0.4142 -0.8031 -0.5920
  845MOL0     C13944   5.403   4.802   0.231 -0.1012 -0.5907  0.0502
  845MOL0     C13945   5.519   4.857   0.276  0.3562 -0.5197  0.8229
  845MOL0     C13946   5.639   4.783   0.301  0.6434 -0.9706 -1.3643
  845MOL0     C13947   5.634   4.641   0.291 -0.5190 -0.4614  0.7291
  845MOL0     O13948   5.734   4.557   0.310 -0.7217  0.6092 -0.5047
  845MOL0     C13949   5.875   4.602   0.327  0.1033 -0.2426  0.4129
  845MOL0     C13950   5.958   4.484   0.372  0.5613  0.4546 -0.1520
  845MOL0     C13951   6.099   4.532   0.401 -0.3149 -0.2257  0.8833
  845MOL0     C13952   6.189   4.413   0.431 -0.3916  0.8815  0.4690
  845MOL0     C13953   6.335   4.453   0.463 -0.3647 -0.5216  0.4580
  845MOL0     C13954   6.409   4.329   0.517 -0.1845 -0.4639 -0.3929
  845MOL0     C13955   6.550   4.361   0.568 -0.3437  0.2423  0.6108
  845MOL0     C13956   6.647   4.413   0.463  0.3599 -0.6096 -0.1953
  845MOL0     N13957   6.790   4.393   0.494 -0.6541 -0.3531 -0.1368
  845MOL0     C13958   6.871   4.291   0.460 -0.7049  0.4445  0.6977
  845MOL0     C13959   6.993   4.315   0.520  0.1261 -0.1318  0.9772
  845MOL0     C13960   7.125   4.234   0.486  0.6871 -0.1823 -0.0420
  845MOL0     C13961   7.164   4.154   0.608 -0.8343 -0.6159 -0.5271
  845MOL0     C13962   7.324   4.143   0.616  0.2380 -0.4947  0.6536
  845MOL0     C13963   7.382   4.074   0.494 -0.1101  0.3478  0.0435
  845MOL0     O13964   7.442   4.170   0.396  0.2758 -0.8432 -0.1081
  845MOL0     C13965   7.583   4.188   0.401 -0.0432 -0.0508 -0.5893
  845MOL0     C13966   7.667   4.158   0.512  0.6047 -0.1020 -0.6229
  845MOL0     C13967   7.804   4.194   0.506  0.0293  0.0797 -0.5374
  845MOL0     C13968   7.857   4.253   0.391  0.0411 -0.0348  0.1153
  845MOL0     C13969   8.001   4.288   0.391 -0.0214 -0.3475  1.2823
  845MOL0     O13970   8.051   4.319   0.266  0.7554  0.4141 -0.0005
  845MOL0     C13971   8.188   4.340   0.254  0.0986  0.2545  0.0510
  845MOL0     C13972   8.260   4.430   0.335  0.7563  0.5703 -0.5407
  845MOL0     C13973   8.404   4.437   0.326  0.4678  0.1047 -0.7551
  845MOL0     C13974   8.468   4.374   0.218  0.0096 -0.5874 -0.6331
  845MOL0     O13975   8.607   4.388   0.222 -0.5315 -0.4901 -0.3224
  845MOL0     C13976   8.686   4.269   0.195  0.0625 -0.0004  0.5517
  845MOL0     C13977   8.687   4.188   0.325 -0.5895  0.1032  0.3176
  845MOL0     C13978   8.759   4.251   0.448 -0.2712 -0.1343  0.4948
  845MOL0     C13979   8.810   4.135   0.545  0.5549 -0.5146  0.1314
  845MOL0     C13980   8.955   4.101   0.539  1.1603  0.2768  0.0629
  845MOL0     C13981   9.058   4.209   0.585 -0.9377  0.2864  0.0883
  845MOL0     C13982   9.188   4.186   0.505 -0.0897  0.4842  0.0625
  845MOL0     C13983   9.295   4.283   0.564  0.2178 -0.2177  0.0153
  845MOL0    Cl13984   9.466   4.271   0.499  0.1922 -0.4979 -0.0621
  845MOL0     C13985   8.397   4.282   0.136 -0.2115 -0.4109 -0.0231
  845MOL0     C13986   8.256   4.268   0.163  0.1298 -0.1356  0.0705
  845MOL0     O13987   8.065   4.283   0.494 -0.5437  0.4093 -0.2855
  845MOL0     C13988   7.770   4.283   0.284  1.0242  1.0615  0.2763
  845MOL0     C13989   7.635   4.243   0.289 -0.3568  0.3510 -0.6160
  845MOL0     N13990   6.982   4.430   0.595  1.1795 -0.7285  0.0558
  845MOL0     N13991   6.865   4.479   0.575  0.3758  1.5611  0.1740
  845MOL0     C13992   5.509   4.579   0.260 -0.7790 -0.6287 -0.1231
  845MOL0     C13993   5.397   4.662   0.224 -0.5145  0.6677  0.0226
  845MOL0     C13994   5.073   4.953   0.226  0.6780  0.3833  0.6246
  845MOL0     C13995   5.078   5.055   0.131 -0.2882  0.0224 -0.4414
  845MOL0     C13996   4.962   5.104   0.071  0.0799  0.4851  0.4382
  845MOL0     C13997   4.836   5.056   0.107 -0.6585  0.2457  0.2734
  845MOL0     O13998   4.722   5.103   0.057  0.0135  0.0204  0.5101
  845MOL0     C13999   4.589   5.075   0.111 -0.5687  0.0941 -0.3846
  845MOL0     C14000   4.503   5.185   0.058 -0.2090 -0.1604 -0.8170
  845MOL0     C14001   4.372   5.174   0.139  0.1340 -0.3492  0.0666
  845MOL0     C14002   4.295   5.053   0.101  0.5156 -0.4184  0.1563
  845MOL0     C14003   4.151   5.077   0.131 -0.2701  0.5025  0.4022
  845MOL0     C14004   4.027   5.097   0.136  0.7697 -0.0366  0.1449
  845MOL0     C14005   4.835   4.940   0.191 -0.7543 -0.1641 -0.6040
  845MOL0     C14006   4.952   4.889   0.256  0.4032 -0.2795 -0.2422
  845MOL0     C14007   4.936   4.774   0.352  0.0125 -0.7887 -0.0036
  845MOL0     H14008   5.515   4.966   0.280  3.2363 -0.3234  0.9183
  845MOL0     H14009   5.727   4.835   0.337 -0.9878  1.2476 -0.3764
  845MOL0     H14010   5.918   4.657   0.243 -0.8443  1.6521  1.1184
  845MOL0     H14011   5.876   4.667   0.415 -3.4033 -0.3075  0.6319
  845MOL0     H14012   5.960   4.401   0.301 -3.5393 -1.5811  1.7432
  845MOL0     H14013   5.913   4.440   0.462 -1.6228 -0.3782 -1.5747
  845MOL0     H14014   6.098   4.603   0.484 -1.2331  3.3451 -1.9128
  845MOL0     H14015   6.142   4.589   0.318 -0.2810 -2.4490 -0.7185
  845MOL0     H14016   6.140   4.358   0.512 -1.1852 -0.6079 -0.9594
  845MOL0     H14017   6.192   4.336   0.353 -1.3045 -1.6606  2.7686
  845MOL0     H14018   6.378   4.490   0.370 -1.4782 -1.1436 -0.3327
  845MOL0     H14019   6.344   4.535   0.534  1.5313  0.7328 -1.1424
  845MOL0     H14020   6.364   4.272   0.598  2.0626 -0.1345  1.1637
  845MOL0     H14021   6.427   4.261   0.433 -0.8575 -1.7092  0.4321
  845MOL0     H14022   6.589   4.264   0.603 -0.2359  0.0575 -0.0003
  845MOL0     H14023   6.558   4.433   0.650  0.3767  0.3095  0.4906
  845MOL0     H14024   6.629   4.356   0.372 -3.2475 -1.7183  1.0263
  845MOL0     H14025   6.630   4.517   0.435 -0.2356 -1.1417 -1.9016
  845MOL0     H14026   6.854   4.210   0.389  2.7225 -0.0728  0.3011
  845MOL0     H14027   7.101   4.168   0.402 -0.1828  1.8228 -1.4601
  845MOL0     H14028   7.201   4.305   0.450  1.9540 -1.3147  0.3237
  845MOL0     H14029   7.130   4.195   0.703 -1.2442 -3.0998  0.4940
  845MOL0     H14030   7.127   4.051   0.600  0.8707 -1.3241  0.1611
  845MOL0     H14031   7.349   4.075   0.698  1.0601 -1.3076 -0.2396
  845MOL0     H14032   7.370   4.242   0.625 -1.6638  1.1909 -4.3507
  845MOL0     H14033   7.303   4.021   0.440 -0.5677 -0.1494  1.1658
  845MOL0     H14034   7.457   3.999   0.521 -0.3717 -0.4937 -1.4540
  845MOL0     H14035   7.628   4.111   0.602  1.4283 -2.1496 -1.2619
  845MOL0     H14036   7.872   4.180   0.590 -0.6613  2.1960  0.4510
  845MOL0     H14037   8.212   4.478   0.420  0.7429 -1.1814  0.4899
  845MOL0     H14038   8.457   4.489   0.405 -1.2480  3.5435 -1.6891
  845MOL0     H14039   8.642   4.217   0.110 -0.2887  3.4329 -1.5385
  845MOL0     H14040   8.781   4.300   0.150  1.1486  0.2996  2.8647
  845MOL0     H14041   8.582   4.168   0.348 -0.8650  0.5694 -0.4658
  845MOL0     H14042   8.731   4.098   0.282 -0.4638  0.9085 -1.3316
  845MOL0     H14043   8.851   4.300   0.415  0.8015 -1.9592  0.6447
  845MOL0     H14044   8.689   4.318   0.500  0.0273  1.2692 -0.8262
  845MOL0     H14045   8.745   4.049   0.526 -0.0975 -0.2588  1.1308
  845MOL0     H14046   8.784   4.159   0.648 -1.1955  0.5824 -0.5006
  845MOL0     H14047   8.976   4.085   0.432  2.8784 -0.2554  0.4481
  845MOL0     H14048   8.975   4.010   0.596  1.5143 -0.1370 -0.6940
  845MOL0     H14049   9.015   4.308   0.564 -1.2965  0.6559  2.2889
  845MOL0     H14050   9.060   4.205   0.694 -1.7802 -0.8542  0.0776
  845MOL0     H14051   9.175   4.199   0.397  0.7698 -0.6023 -0.1940
  845MOL0     H14052   9.218   4.082   0.520 -1.2168 -0.1390 -1.6257
  845MOL0     H14053   9.258   4.385   0.551 -0.7989 -0.8154 -2.0975
  845MOL0     H14054   9.302   4.257   0.670  0.3188 -0.7921 -0.1299
  845MOL0     H14055   8.444   4.236   0.050  0.2931 -0.2033  0.1352
  845MOL0     H14056   8.202   4.211   0.089 -0.0309  1.1479 -0.8443
  845MOL0     H14057   7.795   4.352   0.205  0.4081  0.2226 -0.6696
  845MOL0     H14058   7.575   4.260   0.201 -0.6295  3.0014 -0.0053
  845MOL0     H14059   5.501   4.471   0.260  2.4428 -1.0242  2.7734
  845MOL0     H14060   5.307   4.612   0.189  1.1651 -0.1589 -3.4784
  845MOL0     H14061   5.173   5.096   0.097 -0.1674 -0.0402 -0.1817
  845MOL0     H14062   4.967   5.179  -0.007  3.5890 -1.1398 -1.1449
  845MOL0     H14063   4.596   5.088   0.219  1.9410  1.6594 -0.6549
  845MOL0     H14064   4.564   4.970   0.095  0.1371 -0.3057  0.9896
  845MOL0     H14065   4.496   5.181  -0.051 -0.7025 -2.1943 -0.7504
  845MOL0     H14066   4.540   5.283   0.091  1.0709 -1.1280  0.8137
  845MOL0     H14067   4.309   5.262   0.123  0.4602  0.4348  2.6923
  845MOL0     H14068   4.387   5.177   0.247  0.2845 -1.0979  0.0725
  845MOL0     H14069   4.309   5.021  -0.002 -2.7261 -2.7811  0.2718
  845MOL0     H14070   4.315   4.969   0.168 -1.3025  2.3491  4.6426
  845MOL0     H14071   3.929   5.135   0.156  0.9998  1.3227 -1.1717
  845MOL0     H14072   4.744   4.884   0.206  0.3401 -2.7052 -2.6134
  845MOL0     H14073   4.833   4.749   0.377 -0.0086  2.0488  3.5013
  845MOL0     H14074   4.997   4.689   0.319 -1.0054 -2.4889  2.2629
  845MOL0     H14075   4.976   4.795   0.452  0.5391 -2.7123  0.2435
  846MOL0     O14076   4.830   6.042   8.409 -0.2308 -0.2126 -0.8624
  846MOL0     C14077   4.780   6.120   8.329 -0.1747  0.4009  1.0531
  846MOL0     O14078   4.851   6.176   8.226  0.1726  0.6420  0.2079
  846MOL0     C14079   4.980   6.136   8.191 -0.8996 -0.2207 -0.0045
  846MOL0     C14080   5.090   6.158   8.274 -0.3452 -1.7133  0.2753
  846MOL0     C14081   5.217   6.106   8.256 -0.2099 -0.4467  0.6241
  846MOL0     C14082   5.241   6.040   8.137 -0.0264  0.6164 -0.1212
  846MOL0     O14083   5.362   5.984   8.103  0.2623 -0.4941  0.5544
  846MOL0     C14084   5.476   6.073   8.121  0.2875  0.1127 -1.3737
  846MOL0     C14085   5.571   6.001   8.221 -0.3992 -0.4537  0.3791
  846MOL0     C14086   5.672   6.097   8.269  0.3147 -0.4295  0.4907
  846MOL0     C14087   5.780   6.026   8.354  0.0746 -0.9596 -0.1834
  846MOL0     C14088   5.877   5.946   8.272  0.1902  0.6607  0.7892
  846MOL0     C14089   5.956   6.010   8.159  0.6140 -0.5839  0.2762
  846MOL0     C14090   6.023   6.137   8.214  0.7104 -0.3613 -0.2705
  846MOL0     C14091   6.118   6.134   8.334  0.5561  0.4450  0.0626
  846MOL0     N14092   6.239   6.042   8.293 -0.1751  0.9958  0.0358
  846MOL0     C14093   6.340   6.076   8.205  0.4393 -0.0270 -0.2568
  846MOL0     C14094   6.412   5.968   8.192 -0.8307 -0.5831 -0.5439
  846MOL0     C14095   6.542   5.958   8.120  0.4857 -0.7155 -0.4117
  846MOL0     C14096   6.657   6.039   8.181  0.0629 -0.4202 -0.4511
  846MOL0     C14097   6.685   5.992   8.324  1.0516  0.3538 -0.0347
  846MOL0     C14098   6.779   6.075   8.409  0.1284  0.1706 -0.7349
  846MOL0     O14099   6.909   6.073   8.363 -0.2721  0.2785  0.4567
  846MOL0     C14100   6.999   6.163   8.398 -0.3907 -0.3338  0.3876
  846MOL0     C14101   6.973   6.273   8.483 -0.3529  1.2999 -0.1181
  846MOL0     C14102   7.074   6.354   8.527  0.1149  0.4512 -0.1342
  846MOL0     C14103   7.205   6.331   8.487  0.7906  0.3309 -0.9083
  846MOL0     C14104   7.306   6.427   8.529  0.0916  0.1077 -0.1202
  846MOL0     O14105   7.266   6.541   8.600 -0.2568 -0.4067  0.1599
  846MOL0     C14106   7.364   6.646   8.623 -0.4624  0.6907 -0.6368
  846MOL0     C14107   7.487   6.603   8.677  0.2461 -0.0893 -0.0942
  846MOL0     C14108   7.595   6.691   8.708  0.4386 -0.1798  0.7033
  846MOL0     C14109   7.570   6.825   8.689 -0.0411  0.0686  0.3500
  846MOL0     O14110   7.682   6.896   8.709  0.0757  0.4519 -0.0614
  846MOL0     C14111   7.704   7.024   8.639 -0.3151 -0.6489 -0.4911
  846MOL0     C14112   7.844   7.081   8.680  0.1138  0.0178  0.7876
  846MOL0     C14113   7.942   6.986   8.608  0.0731 -0.1970  0.5006
  846MOL0     C14114   8.087   7.034   8.631  0.8157 -0.5847 -0.2027
  846MOL0     C14115   8.199   6.935   8.583 -0.1066 -0.2434 -0.5896
  846MOL0     C14116   8.335   6.960   8.657 -0.1345 -0.6599  0.2678
  846MOL0     C14117   8.404   7.078   8.596  0.7357  0.5386  0.2467
  846MOL0     C14118   8.556   7.087   8.627 -0.2106 -0.2557  0.3855
  846MOL0    Cl14119   8.621   7.236   8.564 -0.1548 -0.4970 -0.2487
  846MOL0     C14120   7.448   6.875   8.643  0.6640 -0.5540  0.0989
  846MOL0     C14121   7.347   6.782   8.603  0.2820 -0.2591 -0.1689
  846MOL0     O14122   7.422   6.403   8.495  0.2507 -0.3508  0.2735
  846MOL0     C14123   7.232   6.226   8.404 -0.2052  0.3144 -0.4331
  846MOL0     C14124   7.132   6.134   8.366  0.6068  0.8660 -0.1668
  846MOL0     N14125   6.371   5.868   8.284 -0.1602  0.1484  0.1782
  846MOL0     N14126   6.267   5.922   8.344 -0.3950  0.4227 -0.8609
  846MOL0     C14127   5.140   6.017   8.046  0.4420  0.3380  0.9563
  846MOL0     C14128   5.013   6.058   8.071  0.7143  0.1871  0.1865
  846MOL0     C14129   4.638   6.162   8.341  0.1812  0.1223  0.0577
  846MOL0     C14130   4.574   6.152   8.462 -1.3569 -0.6773  0.8102
  846MOL0     C14131   4.437   6.174   8.481 -0.4282  0.6623  0.5297
  846MOL0     C14132   4.360   6.212   8.369 -0.3632 -0.3715 -1.0600
  846MOL0     O14133   4.227   6.256   8.397 -0.2281 -0.8026  0.2219
  846MOL0     C14134   4.158   6.348   8.306 -0.3430  0.0858  0.6023
  846MOL0     C14135   4.030   6.398   8.369  0.4024 -0.3267  0.3236
  846MOL0     C14136   3.941   6.458   8.264 -0.6388  1.0887  0.0464
  846MOL0     C14137   4.002   6.567   8.173 -0.1487 -0.6431 -0.7036
  846MOL0     C14138   4.095   6.648   8.252 -0.4363  0.2160  0.0110
  846MOL0     C14139   4.158   6.716   8.326 -0.2063  0.3518  0.4424
  846MOL0     C14140   4.421   6.218   8.242  1.3334  0.8314 -0.0923
  846MOL0     C14141   4.560   6.194   8.224 -0.1831 -0.1921 -0.5270
  846MOL0     C14142   4.606   6.211   8.086 -0.3088 -0.7990  0.3599
  846MOL0     H14143   5.075   6.219   8.363 -0.5984 -3.1332  1.2463
  846MOL0     H14144   5.289   6.131   8.333  1.0106  4.1062 -1.6308
  846MOL0     H14145   5.523   6.096   8.025  0.1079  0.6657 -1.3341
  846MOL0     H14146   5.447   6.169   8.166 -0.3474  0.3704 -2.3056
  846MOL0     H14147   5.629   5.921   8.175 -0.6982  0.0755 -0.9386
  846MOL0     H14148   5.520   5.960   8.309 -1.9083  1.1063  0.2872
  846MOL0     H14149   5.608   6.155   8.337 -0.1245  0.4337 -0.6218
  846MOL0     H14150   5.712   6.157   8.187 -0.7110 -1.2539 -0.6367
  846MOL0     H14151   5.838   6.093   8.416  0.5823 -3.1375  1.8362
  846MOL0     H14152   5.731   5.955   8.421  1.8503 -0.9108  1.2200
  846MOL0     H14153   5.948   5.893   8.336  1.6572  3.7401  1.9120
  846MOL0     H14154   5.831   5.862   8.221  2.9644 -0.3872 -0.1742
  846MOL0     H14155   6.036   5.946   8.117  1.5530  0.6211  0.1780
  846MOL0     H14156   5.891   6.025   8.072  1.2685  0.5248 -0.0467
  846MOL0     H14157   5.952   6.216   8.242 -0.9946 -1.4277 -1.3403
  846MOL0     H14158   6.063   6.178   8.121 -0.1790  0.0415 -0.4933
  846MOL0     H14159   6.166   6.231   8.350  4.8414 -1.2157 -1.2793
  846MOL0     H14160   6.076   6.103   8.430  0.4751  0.6226  0.0842
  846MOL0     H14161   6.357   6.174   8.161 -1.1634 -0.8051 -2.7858
  846MOL0     H14162   6.564   5.851   8.124  1.1174 -0.5815 -0.0909
  846MOL0     H14163   6.530   5.992   8.017  2.1737  1.3884 -0.0014
  846MOL0     H14164   6.743   6.017   8.117  2.2711 -3.4859  3.1108
  846MOL0     H14165   6.635   6.146   8.175  0.0139 -0.4666 -1.2094
  846MOL0     H14166   6.710   5.886   8.321 -0.3388 -0.0845  2.3275
  846MOL0     H14167   6.591   5.994   8.378  1.4355 -1.6236  0.8023
  846MOL0     H14168   6.781   6.048   8.515 -1.6266 -0.6726 -0.8880
  846MOL0     H14169   6.740   6.176   8.396 -0.0914  0.0317 -1.1767
  846MOL0     H14170   6.870   6.292   8.512 -1.6067 -1.1294 -2.5205
  846MOL0     H14171   7.051   6.442   8.586 -0.4945  1.1332 -1.3766
  846MOL0     H14172   7.491   6.497   8.701  1.5386  0.2257  1.2688
  846MOL0     H14173   7.680   6.645   8.756  0.3306 -3.1274 -1.6321
  846MOL0     H14174   7.680   7.020   8.533  1.6856  1.3991 -1.0886
  846MOL0     H14175   7.630   7.098   8.673  0.3773  1.0060 -2.3868
  846MOL0     H14176   7.850   7.186   8.651  1.0477 -0.3459 -0.4643
  846MOL0     H14177   7.852   7.073   8.789  1.6386  3.2909  1.0465
  846MOL0     H14178   7.936   6.882   8.644  0.4826  0.3358  2.1820
  846MOL0     H14179   7.927   6.987   8.500  1.7109 -0.3989  0.2459
  846MOL0     H14180   8.104   7.047   8.738  0.2462  0.4258 -0.2223
  846MOL0     H14181   8.105   7.126   8.576 -0.4995 -0.9114 -1.2602
  846MOL0     H14182   8.202   6.939   8.474  1.6282  2.0695 -0.5479
  846MOL0     H14183   8.173   6.835   8.618  0.2840  0.1278  0.8441
  846MOL0     H14184   8.316   6.978   8.763  0.0027 -3.2633  0.7975
  846MOL0     H14185   8.397   6.873   8.633 -2.6277 -1.2270 -6.1736
  846MOL0     H14186   8.354   7.163   8.644 -0.8893  0.2873 -0.9213
  846MOL0     H14187   8.398   7.088   8.487  4.9723 -0.0691 -0.1852
  846MOL0     H14188   8.566   7.078   8.736  0.5356 -1.4887  0.2349
  846MOL0     H14189   8.611   7.001   8.589  0.1099  0.3521 -0.5594
  846MOL0     H14190   7.437   6.982   8.653  2.0830 -0.4268  0.5123
  846MOL0     H14191   7.257   6.827   8.563  0.3654  0.6631  0.6422
  846MOL0     H14192   7.335   6.205   8.374  0.7911  0.6142  2.5154
  846MOL0     H14193   7.146   6.044   8.307  0.7199  1.2808 -0.7913
  846MOL0     H14194   5.167   5.973   7.951  4.0708  2.0776  1.0194
  846MOL0     H14195   4.934   6.041   7.998  2.5729 -0.0603 -1.8701
  846MOL0     H14196   4.629   6.106   8.543 -0.2529 -3.0584 -1.1685
  846MOL0     H14197   4.393   6.175   8.580  2.9653  1.0402  2.1741
  846MOL0     H14198   4.137   6.296   8.212 -0.4505  0.5588  0.3617
  846MOL0     H14199   4.227   6.429   8.283  0.6173 -1.2184 -1.3453
  846MOL0     H14200   4.059   6.477   8.439  1.3844  0.1403 -0.5814
  846MOL0     H14201   3.985   6.310   8.417 -1.7639 -1.5740 -3.5258
  846MOL0     H14202   3.844   6.485   8.306 -1.3250 -1.0998 -0.0049
  846MOL0     H14203   3.909   6.380   8.195 -2.4586  3.1204 -1.5739
  846MOL0     H14204   4.035   6.517   8.081  1.4465  0.3216 -0.6820
  846MOL0     H14205   3.920   6.634   8.146  0.7407 -0.2965 -2.7433
  846MOL0     H14206   4.201   6.779   8.401 -2.8179  0.6737  1.7986
  846MOL0     H14207   4.351   6.230   8.160 -0.8853 -4.9189  0.5069
  846MOL0     H14208   4.530   6.188   8.010 -1.3114  1.9577  0.4010
  846MOL0     H14209   4.657   6.307   8.079  0.5908 -1.3658 -1.6108
  846MOL0     H14210   4.685   6.138   8.066 -1.9231 -2.7637  0.7892
  847MOL0     O14211   2.022   2.367   7.569  0.4630 -1.0979  0.0457
  847MOL0     C14212   2.048   2.256   7.614 -0.1891  0.2189 -0.1003
  847MOL0     O14213   2.146   2.234   7.710 -0.0701 -0.7185 -0.6100
  847MOL0     C14214   2.262   2.304   7.720  0.7338 -0.5888 -0.0134
  847MOL0     C14215   2.278   2.443   7.670 -0.1883 -0.1056 -0.2556
  847MOL0     C14216   2.407   2.500   7.675 -0.8596  0.1343 -0.3818
  847MOL0     C14217   2.506   2.444   7.752 -0.3232 -0.0592 -0.2824
  847MOL0     O14218   2.630   2.497   7.781  0.0565 -0.0127  0.1108
  847MOL0     C14219   2.639   2.641   7.797 -0.4583 -0.2445 -0.1033
  847MOL0     C14220   2.773   2.674   7.858  0.4722  1.4716  0.1870
  847MOL0     C14221   2.793   2.823   7.840  0.9178  0.7721 -0.2651
  847MOL0     C14222   2.942   2.851   7.876 -0.1051  0.1085 -0.3616
  847MOL0     C14223   3.023   2.929   7.769  0.1392 -0.4830 -0.3712
  847MOL0     C14224   3.174   2.939   7.803  0.3323 -0.3093  0.0320
  847MOL0     C14225   3.257   3.002   7.689  0.8132  0.6326  0.2605
  847MOL0     C14226   3.310   2.891   7.591 -0.3080  0.1139  0.9134
  847MOL0     N14227   3.448   2.906   7.548  0.1486 -0.0697  0.1290
  847MOL0     C14228   3.490   3.012   7.470  0.5564 -0.7588 -0.7808
  847MOL0     C14229   3.625   3.008   7.482 -0.4195  0.2865 -0.0675
  847MOL0     C14230   3.717   3.113   7.438 -0.0704 -0.6818  0.0301
  847MOL0     C14231   3.818   3.065   7.336 -0.2470 -0.2993  1.1155
  847MOL0     C14232   3.926   2.986   7.398 -0.3939  0.5932 -0.1669
  847MOL0     C14233   4.034   2.956   7.287  0.2733 -0.0065 -0.6866
  847MOL0     O14234   4.094   3.082   7.258  0.2037 -0.1797  0.3987
  847MOL0     C14235   4.211   3.098   7.188 -0.2377  0.8018  0.7728
  847MOL0     C14236   4.285   3.213   7.203  0.6299  0.1988 -0.8713
  847MOL0     C14237   4.407   3.229   7.128 -0.4018 -0.3865 -0.0761
  847MOL0     C14238   4.463   3.126   7.048  0.2418  0.3677 -0.3149
  847MOL0     C14239   4.597   3.149   6.996  0.6578  0.7681 -0.4544
  847MOL0     O14240   4.644   3.058   6.910  0.4098 -0.2153  0.0446
  847MOL0     C14241   4.783   3.067   6.903  0.3252  0.3703  0.1338
  847MOL0     C14242   4.861   3.022   7.010  0.1136 -0.3522  0.5783
  847MOL0     C14243   5.004   3.037   6.994 -0.1012  0.1766 -0.4733
  847MOL0     C14244   5.061   3.105   6.887 -0.7563 -0.6845 -0.1972
  847MOL0     O14245   5.196   3.125   6.867  0.0146 -0.1549  0.0007
  847MOL0     C14246   5.277   3.135   6.982  0.4569  1.0200  0.5207
  847MOL0     C14247   5.376   3.237   6.947 -0.3993  0.9092  0.6215
  847MOL0     C14248   5.472   3.246   7.061 -0.0616 -0.0515 -0.6558
  847MOL0     C14249   5.588   3.337   7.039 -0.9830 -0.0550 -0.4950
  847MOL0     C14250   5.706   3.330   7.150 -0.0650  0.3785  0.3881
  847MOL0     C14251   5.846   3.377   7.109  0.5736 -1.2442 -0.2575
  847MOL0     C14252   5.934   3.417   7.238 -0.1434 -0.4166 -0.1775
  847MOL0     C14253   6.048   3.507   7.203 -0.8993  0.8036  1.1159
  847MOL0    Cl14254   6.149   3.546   7.338 -0.6200  0.1517  0.2432
  847MOL0     C14255   4.975   3.158   6.792  0.6276  0.2260 -0.2467
  847MOL0     C14256   4.838   3.145   6.799  0.2912  0.3444  0.3036
  847MOL0     O14257   4.652   3.251   7.031 -0.9727 -0.2594 -0.3072
  847MOL0     C14258   4.379   3.020   7.031  0.9778 -0.6867  0.4069
  847MOL0     C14259   4.257   3.002   7.097 -0.2965  0.4965  0.3866
  847MOL0     N14260   3.663   2.904   7.562  0.0540 -0.6212  0.6909
  847MOL0     N14261   3.555   2.839   7.600  0.3975 -0.4699  0.3751
  847MOL0     C14262   2.490   2.316   7.802  0.0998  0.3880 -0.5494
  847MOL0     C14263   2.370   2.243   7.781  0.0546 -0.1535 -0.1144
  847MOL0     C14264   1.956   2.152   7.590 -0.3278  0.0445  0.1152
  847MOL0     C14265   2.023   2.028   7.573  0.8085 -0.1180  0.2380
  847MOL0     C14266   1.951   1.911   7.544  0.8824 -0.0972  1.4350
  847MOL0     C14267   1.815   1.914   7.515 -0.0622  0.6120 -0.5540
  847MOL0     O14268   1.745   1.804   7.473 -0.1135  0.3640 -0.2287
  847MOL0     C14269   1.818   1.679   7.483 -0.4945 -0.5272  0.1306
  847MOL0     C14270   1.726   1.571   7.442  0.8294  0.5419 -0.4710
  847MOL0     C14271   1.756   1.442   7.521 -0.9935 -0.1357  0.2222
  847MOL0     C14272   1.623   1.391   7.572 -0.4768  0.3990 -0.4822
  847MOL0     C14273   1.515   1.376   7.473  0.5450 -0.0083 -0.1982
  847MOL0     C14274   1.418   1.387   7.399 -0.0705  0.4714 -0.3075
  847MOL0     C14275   1.754   2.036   7.533  0.4094 -0.1727  0.5077
  847MOL0     C14276   1.816   2.159   7.575 -0.9590  0.5645  0.3174
  847MOL0     C14277   1.736   2.282   7.581 -0.3389 -0.0434 -0.1572
  847MOL0     H14278   2.197   2.497   7.623  0.7285  0.6910 -0.9443
  847MOL0     H14279   2.428   2.598   7.634  1.3435  0.7265  1.9043
  847MOL0     H14280   2.626   2.696   7.704  1.0602  1.4724  0.6352
  847MOL0     H14281   2.566   2.674   7.872 -1.9772 -2.6297 -0.4215
  847MOL0     H14282   2.849   2.625   7.796 -0.2884 -0.1289  0.4769
  847MOL0     H14283   2.777   2.635   7.959 -2.6531 -4.3347 -1.5145
  847MOL0     H14284   2.726   2.862   7.917 -0.5044 -4.4599  1.5789
  847MOL0     H14285   2.772   2.873   7.745 -0.8004 -0.8424 -0.7944
  847MOL0     H14286   2.940   2.902   7.973  1.8880 -1.2171  0.4586
  847MOL0     H14287   2.995   2.757   7.898  0.7469  0.9921  1.6026
  847MOL0     H14288   3.023   2.885   7.669  1.8614 -0.2495 -0.5049
  847MOL0     H14289   2.979   3.029   7.764 -1.3885 -1.1826 -1.5414
  847MOL0     H14290   3.190   2.986   7.900  0.0273 -1.0741  0.4559
  847MOL0     H14291   3.209   2.836   7.813 -1.9481 -1.0243  1.1439
  847MOL0     H14292   3.350   3.033   7.737  1.3977 -0.1667 -0.3165
  847MOL0     H14293   3.202   3.085   7.644 -1.2454 -0.6745  0.2049
  847MOL0     H14294   3.300   2.794   7.642 -2.2272 -1.0856 -1.5248
  847MOL0     H14295   3.258   2.897   7.495  2.2175  3.1516 -0.4191
  847MOL0     H14296   3.446   3.098   7.421  0.9688 -1.4364 -2.4395
  847MOL0     H14297   3.675   3.199   7.385  0.8889  0.7548  1.4944
  847MOL0     H14298   3.767   3.160   7.523  1.9757  1.0498 -1.9811
  847MOL0     H14299   3.778   3.004   7.255  2.9212 -0.7726 -0.2339
  847MOL0     H14300   3.862   3.151   7.284 -1.0497  0.5187  1.7561
  847MOL0     H14301   3.888   2.886   7.423  2.5335 -0.9097 -1.2467
  847MOL0     H14302   3.973   3.033   7.485 -0.0972  1.0568 -0.5684
  847MOL0     H14303   3.983   2.907   7.204 -3.0550 -2.7922  2.6980
  847MOL0     H14304   4.115   2.891   7.321  0.1199 -0.7518 -1.6972
  847MOL0     H14305   4.247   3.288   7.271 -3.0136 -1.9923 -0.2674
  847MOL0     H14306   4.454   3.327   7.123 -2.1537  0.4470 -1.9433
  847MOL0     H14307   4.815   2.960   7.086 -0.9451 -1.9801 -1.2911
  847MOL0     H14308   5.068   2.997   7.072  0.4703  0.0359 -1.0056
  847MOL0     H14309   5.215   3.151   7.071 -1.2166  1.3258 -0.6593
  847MOL0     H14310   5.330   3.043   7.007 -0.4948 -0.7585 -3.2580
  847MOL0     H14311   5.430   3.200   6.859  0.6700  0.1555  1.5617
  847MOL0     H14312   5.329   3.332   6.920  0.0585  0.5435 -1.7183
  847MOL0     H14313   5.420   3.274   7.153 -0.5260  0.5896 -1.1038
  847MOL0     H14314   5.508   3.145   7.082 -0.7335 -0.5301 -1.7460
  847MOL0     H14315   5.555   3.440   7.021 -1.1444  0.3155  1.6567
  847MOL0     H14316   5.645   3.304   6.951  1.7144  2.5082  0.1543
  847MOL0     H14317   5.711   3.224   7.178  0.5534  0.7583  1.8283
  847MOL0     H14318   5.673   3.396   7.231  2.5351 -0.1348  1.9790
  847MOL0     H14319   5.895   3.292   7.061  3.6425  0.2347 -0.0039
  847MOL0     H14320   5.852   3.459   7.037  3.0885 -1.1856 -0.0728
  847MOL0     H14321   5.961   3.333   7.302 -1.0733 -0.3784  0.2781
  847MOL0     H14322   5.869   3.485   7.294  0.3092  0.4223 -0.6341
  847MOL0     H14323   6.102   3.437   7.139  0.6788  2.4526  0.5622
  847MOL0     H14324   6.013   3.597   7.152 -0.8238 -0.6178 -1.6583
  847MOL0     H14325   5.029   3.219   6.720  0.3625  0.9701  0.1823
  847MOL0     H14326   4.766   3.194   6.735  0.0389  1.3360  1.3054
  847MOL0     H14327   4.411   2.949   6.956 -1.2501 -0.2685 -1.0402
  847MOL0     H14328   4.209   2.907   7.077  1.5691  0.0412 -2.5153
  847MOL0     H14329   2.569   2.285   7.870 -0.0981  2.2549  0.5943
  847MOL0     H14330   2.357   2.139   7.812 -3.2877  0.9407  2.8017
  847MOL0     H14331   2.130   2.018   7.584  0.7825 -1.1152 -0.2797
  847MOL0     H14332   2.007   1.818   7.548 -0.1489 -0.7025  2.6126
  847MOL0     H14333   1.858   1.670   7.584  0.8187 -1.0985 -0.4247
  847MOL0     H14334   1.908   1.674   7.422  1.0738 -0.1017  2.2969
  847MOL0     H14335   1.743   1.552   7.335  2.3101  0.0761 -0.1755
  847MOL0     H14336   1.625   1.605   7.465 -0.5441 -4.2765  1.9460
  847MOL0     H14337   1.823   1.463   7.605  0.7650  1.6780 -1.5326
  847MOL0     H14338   1.798   1.364   7.457  2.5302 -0.2730  2.4137
  847MOL0     H14339   1.645   1.292   7.611 -0.8358  0.8657  0.9584
  847MOL0     H14340   1.597   1.451   7.660 -0.0919 -1.7307  1.1687
  847MOL0     H14341   1.328   1.387   7.342  0.8087 -2.7043 -1.9601
  847MOL0     H14342   1.647   2.027   7.513  0.7526 -0.9618 -1.0724
  847MOL0     H14343   1.781   2.338   7.663  0.9203 -3.6962  1.8597
  847MOL0     H14344   1.751   2.342   7.490  0.7395  0.6145  0.4382
  847MOL0     H14345   1.629   2.274   7.606 -0.4598  0.8252 -0.3499
  848MOL0     O14346   5.932   8.398   8.396  0.1782  1.3008  0.5871
  848MOL0     C14347   5.900   8.461   8.295  0.7848 -0.0044 -0.7086
  848MOL0     O14348   5.985   8.538   8.219 -0.1876 -0.4513  0.4041
  848MOL0     C14349   6.117   8.545   8.247 -0.9542 -0.4242  0.1472
  848MOL0     C14350   6.171   8.657   8.309  0.2435  0.6902  1.2244
  848MOL0     C14351   6.309   8.666   8.350  0.0172  0.6659  0.0096
  848MOL0     C14352   6.393   8.554   8.329 -0.1934 -0.6289  0.6777
  848MOL0     O14353   6.517   8.571   8.387  0.4473  0.2388  0.7391
  848MOL0     C14354   6.575   8.451   8.436  0.2756  0.9800  0.3464
  848MOL0     C14355   6.714   8.488   8.494  0.1096  0.1653  0.0854
  848MOL0     C14356   6.720   8.582   8.616 -0.2028 -0.2710 -0.4949
  848MOL0     C14357   6.856   8.615   8.678 -0.1119 -0.5070  0.4834
  848MOL0     C14358   6.931   8.734   8.610 -1.3146  0.6219  0.8157
  848MOL0     C14359   7.081   8.721   8.639  0.8142  0.7075 -0.5564
  848MOL0     C14360   7.165   8.816   8.565 -0.2358  0.3051  0.5102
  848MOL0     C14361   7.214   8.764   8.421 -0.4735 -0.6032  0.8811
  848MOL0     N14362   7.287   8.868   8.344  0.0699  0.0742  0.3392
  848MOL0     C14363   7.235   8.992   8.315  0.0465 -0.4612  0.3992
  848MOL0     C14364   7.329   9.045   8.230  0.5792  0.1565 -0.5977
  848MOL0     C14365   7.316   9.185   8.173  0.1892  1.5733 -0.3219
  848MOL0     C14366   7.363   9.286   8.274  0.0363  0.3535 -0.0694
  848MOL0     C14367   7.347   9.420   8.194 -0.8683  0.3724 -0.2889
  848MOL0     C14368   7.380   9.537   8.281 -0.6164 -0.1168 -0.0587
  848MOL0     O14369   7.410   9.650   8.201  0.0883  0.4483 -0.1970
  848MOL0     C14370   7.312   9.708   8.121 -0.6385 -0.0480  0.2861
  848MOL0     C14371   7.171   9.695   8.121 -0.2300  0.2898 -0.7681
  848MOL0     C14372   7.095   9.767   8.029 -0.3626  0.3302 -0.3032
  848MOL0     C14373   7.149   9.853   7.933  0.2546 -0.7860 -0.3912
  848MOL0     C14374   7.074   9.927   7.834  0.1130  0.3786 -0.0908
  848MOL0     O14375   7.135   9.947   7.708 -0.0403 -1.0688 -0.5056
  848MOL0     C14376   7.091  10.032   7.601 -0.1065  0.6224 -0.8390
  848MOL0     C14377   7.181  10.089   7.510  0.1175 -0.0102 -0.0838
  848MOL0     C14378   7.135  10.155   7.398  0.1154 -0.6024  0.3902
  848MOL0     C14379   6.993  10.165   7.378 -0.1267 -0.1195  0.3465
  848MOL0     O14380   6.950  10.254   7.283 -0.0186  0.0889 -0.4450
  848MOL0     C14381   6.823  10.236   7.220  0.7234  0.1642 -0.6532
  848MOL0     C14382   6.770  10.370   7.172 -0.5832  0.7908  0.5406
  848MOL0     C14383   6.827  10.408   7.029  0.2408 -0.3211  0.3472
  848MOL0     C14384   6.742  10.524   6.969  1.1112  0.3337  0.0244
  848MOL0     C14385   6.797  10.577   6.827 -0.7994 -0.3933  0.1030
  848MOL0     C14386   6.957  10.582   6.818  0.3619  0.6528  0.9397
  848MOL0     C14387   7.003  10.626   6.681 -0.5884 -0.1087 -0.2009
  848MOL0     C14388   7.129  10.548   6.627  0.7652  0.4439 -0.3266
  848MOL0    Cl14389   7.256  10.533   6.757 -0.4942 -0.0010  0.2670
  848MOL0     C14390   6.911  10.092   7.465 -0.1235  0.6853  0.6135
  848MOL0     C14391   6.958  10.023   7.571  0.5943  0.1376  0.2545
  848MOL0     O14392   6.970   9.973   7.872 -0.1998 -0.0927  1.3970
  848MOL0     C14393   7.286   9.864   7.933  0.6215 -0.6695 -0.2836
  848MOL0     C14394   7.367   9.798   8.027  0.0961  0.0379 -1.0483
  848MOL0     N14395   7.432   8.952   8.224 -0.1933 -0.2317  0.6624
  848MOL0     N14396   7.404   8.847   8.289  0.5578 -0.7889  0.3109
  848MOL0     C14397   6.344   8.444   8.264 -0.2897  0.1675 -0.2330
  848MOL0     C14398   6.207   8.432   8.216 -0.0516 -0.7545  0.0518
  848MOL0     C14399   5.766   8.433   8.241 -1.3435 -0.8619  0.7231
  848MOL0     C14400   5.665   8.369   8.319 -0.3131  0.0005  0.5310
  848MOL0     C14401   5.536   8.348   8.279 -0.1043 -0.3076  0.0096
  848MOL0     C14402   5.491   8.394   8.158  0.5129  0.1865  0.0846
  848MOL0     O14403   5.364   8.370   8.108  0.3375 -0.1254 -1.0264
  848MOL0     C14404   5.256   8.356   8.195  0.4070 -0.7350 -1.0967
  848MOL0     C14405   5.133   8.342   8.116  0.6206 -0.0500  0.4571
  848MOL0     C14406   5.009   8.326   8.201  0.3284  0.6173 -0.4699
  848MOL0     C14407   4.890   8.328   8.109 -1.8385  0.1183 -0.0879
  848MOL0     C14408   4.772   8.320   8.204 -1.0041  0.3105  0.7246
  848MOL0     C14409   4.690   8.301   8.291  1.2542 -0.5060  0.3129
  848MOL0     C14410   5.579   8.459   8.080  0.0108  0.3335  0.4255
  848MOL0     C14411   5.718   8.482   8.118  0.8380 -0.1940 -0.3858
  848MOL0     C14412   5.799   8.553   8.010  0.5162 -0.3358 -0.0668
  848MOL0     H14413   6.111   8.745   8.326  2.2017  1.8010  2.8013
  848MOL0     H14414   6.344   8.747   8.414 -2.1989  0.8282  1.1125
  848MOL0     H14415   6.505   8.422   8.515  0.5838  2.0938  1.0511
  848MOL0     H14416   6.607   8.380   8.359 -0.4551  2.1696 -1.0827
  848MOL0     H14417   6.772   8.545   8.420 -0.3399  0.0038 -0.3948
  848MOL0     H14418   6.767   8.397   8.522 -1.0299  0.1794  2.5621
  848MOL0     H14419   6.659   8.538   8.695  0.8054 -0.5199  0.1646
  848MOL0     H14420   6.679   8.676   8.576 -0.4669  0.3492  1.1402
  848MOL0     H14421   6.850   8.642   8.784 -3.8731 -2.2306  0.8534
  848MOL0     H14422   6.917   8.525   8.672 -1.6333 -1.4844 -1.1036
  848MOL0     H14423   6.920   8.719   8.502 -1.0084 -2.8004  1.1548
  848MOL0     H14424   6.889   8.832   8.635 -3.2301  0.2129 -0.5812
  848MOL0     H14425   7.106   8.743   8.743  4.4025 -0.0755 -1.1376
  848MOL0     H14426   7.121   8.619   8.632 -1.0574 -0.0628 -0.5788
  848MOL0     H14427   7.262   8.828   8.614 -0.7450  0.9496  1.3912
  848MOL0     H14428   7.110   8.910   8.563 -3.2634 -1.2095  3.2887
  848MOL0     H14429   7.285   8.682   8.438  3.0544  1.2484 -3.1456
  848MOL0     H14430   7.132   8.733   8.356  0.4691 -1.7648  0.2019
  848MOL0     H14431   7.137   9.025   8.348  0.6719 -0.0997  1.9672
  848MOL0     H14432   7.385   9.181   8.088  0.7496 -0.8474  0.1719
  848MOL0     H14433   7.211   9.187   8.145 -0.2437 -1.7115  0.5766
  848MOL0     H14434   7.295   9.296   8.359 -0.5773  2.9002 -0.7856
  848MOL0     H14435   7.469   9.270   8.299  0.1151 -2.7754 -1.8295
  848MOL0     H14436   7.248   9.431   8.149 -1.4866 -1.8620  0.3807
  848MOL0     H14437   7.410   9.418   8.105 -0.8446 -0.1320 -0.2632
  848MOL0     H14438   7.467   9.528   8.347  1.6749  2.4530 -2.4502
  848MOL0     H14439   7.293   9.567   8.341  1.4243  3.1521  1.5263
  848MOL0     H14440   7.134   9.633   8.202 -2.0725 -0.9607 -2.4696
  848MOL0     H14441   6.988   9.754   8.037 -0.4534  1.0690 -0.2138
  848MOL0     H14442   7.287  10.077   7.527  0.7248  3.4807 -0.7338
  848MOL0     H14443   7.196  10.215   7.330 -1.5169  0.0161 -0.6021
  848MOL0     H14444   6.831  10.160   7.141  2.4262 -0.9765  0.5537
  848MOL0     H14445   6.752  10.207   7.298  1.4285  5.4132  2.3717
  848MOL0     H14446   6.662  10.367   7.158 -0.5011 -2.9703 -0.1445
  848MOL0     H14447   6.807  10.440   7.247 -1.7112  2.2649 -0.2110
  848MOL0     H14448   6.934  10.430   7.032 -0.0783  1.4781 -0.5462
  848MOL0     H14449   6.809  10.327   6.958  2.6602 -0.4865 -0.1391
  848MOL0     H14450   6.742  10.614   7.031 -0.5326  0.8083 -0.6098
  848MOL0     H14451   6.638  10.496   6.953  1.3358  0.2602 -1.4549
  848MOL0     H14452   6.757  10.677   6.809  2.4574  0.7834 -1.3258
  848MOL0     H14453   6.779  10.501   6.751  3.9065 -0.4496 -1.2600
  848MOL0     H14454   6.993  10.662   6.884 -1.9020  2.7263 -0.1895
  848MOL0     H14455   7.000  10.482   6.833  1.6534  0.2864 -3.6434
  848MOL0     H14456   7.033  10.731   6.685  0.6690 -0.4368  4.7407
  848MOL0     H14457   6.921  10.623   6.608  0.7313 -0.6375 -1.7286
  848MOL0     H14458   7.100  10.447   6.597  0.2850 -0.0770  1.7397
  848MOL0     H14459   7.172  10.593   6.537  0.5334  1.7518  0.2000
  848MOL0     H14460   6.803  10.082   7.450  0.0338  2.5152 -2.9564
  848MOL0     H14461   6.894   9.953   7.623 -0.8593 -0.0636 -1.6965
  848MOL0     H14462   7.334   9.931   7.863 -0.0352  0.3837  0.2592
  848MOL0     H14463   7.475   9.803   8.032  0.1026  1.4719 -1.8198
  848MOL0     H14464   6.412   8.361   8.249  1.5492  1.5854 -0.1941
  848MOL0     H14465   6.169   8.357   8.149 -0.4012  1.0600 -1.8935
  848MOL0     H14466   5.685   8.344   8.423 -0.4373  0.7893  0.7487
  848MOL0     H14467   5.468   8.309   8.353 -2.2229  2.2746 -0.4320
  848MOL0     H14468   5.251   8.438   8.267  1.8481  0.4818 -2.3052
  848MOL0     H14469   5.258   8.258   8.244  0.1113 -0.4721 -0.5495
  848MOL0     H14470   5.155   8.259   8.049 -0.6797  1.0812 -1.4599
  848MOL0     H14471   5.116   8.430   8.053  1.8134  0.0353  0.2344
  848MOL0     H14472   4.999   8.393   8.287  1.5746  1.4576 -0.9572
  848MOL0     H14473   5.009   8.226   8.246 -2.6779  1.1382  0.9859
  848MOL0     H14474   4.887   8.429   8.067 -1.3494  0.5888  0.9664
  848MOL0     H14475   4.887   8.250   8.032  0.3113  1.9719 -2.2526
  848MOL0     H14476   4.608   8.305   8.359  0.2364  2.1255 -0.9406
  848MOL0     H14477   5.536   8.497   7.987  1.0955 -2.2331 -1.2375
  848MOL0     H14478   5.734   8.573   7.924 -0.4744  0.5866  0.8694
  848MOL0     H14479   5.836   8.647   8.052  0.7660  0.3858 -1.8362
  848MOL0     H14480   5.888   8.496   7.981  0.4458 -0.3079 -0.3387
  849MOL0     O14481  10.367   2.109  11.055 -0.9216  0.0382  0.1887
  849MOL0     C14482  10.254   2.114  11.008 -0.4039  0.4114 -0.1187
  849MOL0     O14483  10.221   2.195  10.909  0.1958 -0.3639 -0.2379
  849MOL0     C14484  10.324   2.277  10.874 -0.2367  0.6994 -0.1226
  849MOL0     C14485  10.380   2.363  10.967 -0.9677 -0.7505  0.3111
  849MOL0     C14486  10.480   2.454  10.935  1.0504 -0.3713  0.3468
  849MOL0     C14487  10.534   2.455  10.804  0.4791  0.4059 -0.2383
  849MOL0     O14488  10.645   2.534  10.780 -0.0570 -0.0033 -0.2473
  849MOL0     C14489  10.724   2.504  10.661  1.3367  0.3284 -0.0663
  849MOL0     C14490  10.851   2.592  10.653  0.4986  0.4233  0.4135
  849MOL0     C14491  10.823   2.729  10.711 -0.3996 -0.1117 -0.0943
  849MOL0     C14492  10.955   2.828  10.702 -0.0445 -0.3544 -0.1683
  849MOL0     C14493  11.013   2.852  10.559 -0.6380  0.2005 -0.7013
  849MOL0     C14494  10.938   2.967  10.498 -0.1503 -0.0413 -0.2468
  849MOL0     C14495  10.967   3.013  10.352 -0.5765 -0.0080  0.3239
  849MOL0     C14496  11.112   3.069  10.340  0.8438 -0.6987 -0.1290
  849MOL0     N14497  11.131   3.084  10.196 -0.4098 -0.8556 -0.0554
  849MOL0     C14498  11.107   3.199  10.109 -0.1496 -0.1183  0.2256
  849MOL0     C14499  11.137   3.147   9.981  0.6964 -0.4942 -0.2777
  849MOL0     C14500  11.129   3.216   9.851 -0.1346 -1.1208 -0.5860
  849MOL0     C14501  11.265   3.214   9.775 -0.3697  0.4291  0.0309
  849MOL0     C14502  11.260   3.293   9.655  0.3863  0.8423 -0.6275
  849MOL0     C14503  11.384   3.250   9.574 -0.1624 -1.0708 -0.4289
  849MOL0     O14504  11.361   3.301   9.444  0.1360 -0.4147  0.1584
  849MOL0     C14505  11.481   3.319   9.374  0.4867 -0.0803  0.0638
  849MOL0     C14506  11.592   3.226   9.367  0.1281  0.5702  0.5654
  849MOL0     C14507  11.704   3.250   9.283 -0.1246  0.7716 -0.0644
  849MOL0     C14508  11.709   3.364   9.206  0.2093 -0.3681 -0.7381
  849MOL0     C14509  11.826   3.390   9.123  0.0176 -0.4379 -0.0847
  849MOL0     O14510  11.811   3.490   9.024  0.9991 -0.3306  0.1012
  849MOL0     C14511  11.911   3.553   8.962 -0.3591 -0.3132  0.0987
  849MOL0     C14512  11.867   3.621   8.848  0.5254  0.0734 -0.3180
  849MOL0     C14513  11.955   3.686   8.771 -0.1142 -0.0581  0.8851
  849MOL0     C14514  12.087   3.698   8.798  0.6635  0.9114 -0.9033
  849MOL0     O14515  12.163   3.771   8.714  0.1831 -0.2581 -0.8726
  849MOL0     C14516  12.233   3.887   8.777  0.9020  0.3459  0.9732
  849MOL0     C14517  12.170   4.001   8.719 -0.7450  0.3613 -0.1236
  849MOL0     C14518  12.050   4.051   8.791 -0.1429 -0.7950 -1.3414
  849MOL0     C14519  12.033   4.194   8.756  0.1391 -0.2896  0.1125
  849MOL0     C14520  11.906   4.262   8.815 -0.1799 -0.3685  0.0911
  849MOL0     C14521  11.866   4.391   8.743 -0.0111  0.3186  0.1683
  849MOL0     C14522  11.795   4.496   8.826 -0.3905 -0.0103 -0.2176
  849MOL0     C14523  11.745   4.616   8.733 -0.1119  0.0294  0.1761
  849MOL0    Cl14524  11.883   4.713   8.694 -0.0380  0.0684  0.5104
  849MOL0     C14525  12.137   3.623   8.903 -0.3613 -0.2115  0.8526
  849MOL0     C14526  12.053   3.565   8.997 -0.2389 -0.4944  0.6954
  849MOL0     O14527  11.932   3.349   9.167  0.0746  0.6794  0.2559
  849MOL0     C14528  11.604   3.457   9.210 -0.1692 -0.5694  0.4057
  849MOL0     C14529  11.490   3.426   9.291  0.7602 -0.1355 -0.2907
  849MOL0     N14530  11.184   3.019   9.994 -0.3673 -0.6030  0.4651
  849MOL0     N14531  11.180   2.980  10.115 -0.1572 -0.2454 -0.0218
  849MOL0     C14532  10.474   2.376  10.707  0.4499  0.7358  0.1993
  849MOL0     C14533  10.365   2.292  10.742 -0.2419  0.0334 -0.5370
  849MOL0     C14534  10.146   2.039  11.082 -0.0428 -0.0888 -0.3414
  849MOL0     C14535  10.019   2.098  11.088  0.4812 -0.4252 -0.5743
  849MOL0     C14536   9.905   2.039  11.147  0.2711  0.2353 -0.2119
  849MOL0     C14537   9.914   1.919  11.213  0.6727  0.3345  0.3419
  849MOL0     O14538   9.814   1.856  11.291  0.0310  0.7542 -0.1564
  849MOL0     C14539   9.684   1.902  11.303  0.3479 -0.3711 -0.2874
  849MOL0     C14540   9.627   1.880  11.162 -0.4597 -0.4513 -0.2080
  849MOL0     C14541   9.484   1.846  11.195  0.1209 -0.1555  0.3860
  849MOL0     C14542   9.405   1.830  11.067 -0.0708  0.1063  0.5921
  849MOL0     C14543   9.383   1.950  10.988  0.1714  0.0106  0.2449
  849MOL0     C14544   9.359   2.048  10.911  0.3228  1.0779 -0.1081
  849MOL0     C14545  10.042   1.867  11.220 -0.6335  0.2093  0.1111
  849MOL0     C14546  10.154   1.917  11.152 -0.0806 -0.5230  0.7301
  849MOL0     C14547  10.282   1.833  11.161 -0.2019  0.1943  0.2058
  849MOL0     H14548  10.356   2.354  11.072  0.1635 -1.4211  0.5260
  849MOL0     H14549  10.504   2.522  11.016 -1.0857 -1.4919  2.0402
  849MOL0     H14550  10.749   2.398  10.673 -0.7466 -0.5094 -2.2624
  849MOL0     H14551  10.654   2.513  10.577 -3.1663 -0.9539  3.1136
  849MOL0     H14552  10.872   2.612  10.548 -3.5000  1.4191 -0.3509
  849MOL0     H14553  10.934   2.539  10.703  0.8381  0.6855  0.1282
  849MOL0     H14554  10.811   2.730  10.820 -1.7576 -0.9244 -0.2117
  849MOL0     H14555  10.739   2.781  10.664  2.3599  4.2354 -0.7126
  849MOL0     H14556  10.940   2.927  10.745  0.8440 -1.1825  2.2344
  849MOL0     H14557  11.019   2.772  10.771  0.2743 -1.1957 -1.1364
  849MOL0     H14558  11.117   2.883  10.572  0.0815 -2.1809 -0.3017
  849MOL0     H14559  11.017   2.763  10.496  2.6846 -1.7592  1.9331
  849MOL0     H14560  10.833   2.946  10.522  0.0737  0.2754  1.0984
  849MOL0     H14561  10.961   3.049  10.567  2.0905  1.8264 -2.9564
  849MOL0     H14562  10.882   3.076  10.326 -0.5230  0.6965  1.7682
  849MOL0     H14563  10.973   2.923  10.289  0.9403  1.5352 -1.8863
  849MOL0     H14564  11.111   3.163  10.395 -3.4882  1.3189 -3.0320
  849MOL0     H14565  11.179   2.991  10.378  1.2042 -0.7675 -0.8963
  849MOL0     H14566  11.074   3.300  10.130 -0.0566 -0.4118  1.9373
  849MOL0     H14567  11.045   3.180   9.791 -0.1989  0.9732 -1.8551
  849MOL0     H14568  11.109   3.323   9.866 -0.7004 -1.5359  2.0414
  849MOL0     H14569  11.348   3.243   9.841  1.1725 -0.6909 -1.3436
  849MOL0     H14570  11.290   3.111   9.749 -0.7786  0.3233  0.0606
  849MOL0     H14571  11.256   3.400   9.678 -2.3998  0.3045  1.9179
  849MOL0     H14572  11.173   3.257   9.599  1.3755 -2.1792 -0.4198
  849MOL0     H14573  11.400   3.141   9.575 -0.0426 -1.0945  2.3499
  849MOL0     H14574  11.475   3.293   9.616 -0.0311  0.1253 -1.8755
  849MOL0     H14575  11.594   3.128   9.413 -0.9196 -0.5170 -1.5224
  849MOL0     H14576  11.777   3.171   9.269 -0.7188  0.1154  0.4435
  849MOL0     H14577  11.764   3.618   8.816  0.3662  0.7273  0.1264
  849MOL0     H14578  11.923   3.715   8.671 -0.8896 -1.3110  0.7451
  849MOL0     H14579  12.212   3.883   8.885 -1.4379 -0.7157  0.5516
  849MOL0     H14580  12.339   3.869   8.758  0.1800 -3.0074 -0.7649
  849MOL0     H14581  12.242   4.081   8.740 -2.1462  0.5736  5.5633
  849MOL0     H14582  12.150   4.000   8.612  0.0564 -1.3926 -0.2983
  849MOL0     H14583  11.960   3.996   8.761  1.1631 -3.0611 -1.3160
  849MOL0     H14584  12.059   4.037   8.899 -2.0360 -1.6119 -1.2386
  849MOL0     H14585  12.016   4.198   8.648 -3.1196  2.1636  0.5521
  849MOL0     H14586  12.125   4.249   8.779  0.5197 -1.3852  1.3145
  849MOL0     H14587  11.924   4.278   8.922 -0.4275 -0.9160  0.2172
  849MOL0     H14588  11.813   4.206   8.807 -1.4702  1.5173  0.9770
  849MOL0     H14589  11.958   4.426   8.696 -0.6836  1.6736 -0.1848
  849MOL0     H14590  11.798   4.354   8.666  1.5400 -2.4246 -0.0341
  849MOL0     H14591  11.862   4.532   8.905  1.6345 -1.4188 -1.1919
  849MOL0     H14592  11.717   4.449   8.887 -0.2178  1.9676  1.6367
  849MOL0     H14593  11.700   4.568   8.647  2.4594 -1.8316 -0.2551
  849MOL0     H14594  11.668   4.676   8.782 -2.3958 -0.9173 -2.1027
  849MOL0     H14595  12.245   3.634   8.905 -0.4020  0.8674 -0.9046
  849MOL0     H14596  12.111   3.529   9.082  0.2488 -2.0460 -0.2431
  849MOL0     H14597  11.606   3.538   9.138  1.6878 -0.1875  0.8276
  849MOL0     H14598  11.410   3.499   9.284  0.1701 -0.4558  2.1602
  849MOL0     H14599  10.487   2.385  10.599 -2.6486 -0.4105 -0.3919
  849MOL0     H14600  10.324   2.221  10.671  0.5335  0.1145 -1.0677
  849MOL0     H14601  10.015   2.197  11.045  0.1340 -0.1893 -0.0146
  849MOL0     H14602   9.808   2.087  11.158 -2.9594 -4.7484 -3.0808
  849MOL0     H14603   9.663   2.005  11.334 -1.5624 -0.5389 -0.8986
  849MOL0     H14604   9.641   1.844  11.385  0.8423 -2.7561 -1.5979
  849MOL0     H14605   9.671   1.789  11.119 -1.8034 -0.5236 -1.4823
  849MOL0     H14606   9.636   1.968  11.098 -0.8982 -0.1211  0.1750
  849MOL0     H14607   9.433   1.924  11.252 -0.9966 -0.7680  0.2553
  849MOL0     H14608   9.470   1.756  11.256 -1.7834 -0.4107 -0.3740
  849MOL0     H14609   9.444   1.751  11.001 -3.0789 -0.2750 -0.9048
  849MOL0     H14610   9.309   1.780  11.088  0.4600 -0.5431  1.5880
  849MOL0     H14611   9.346   2.139  10.856  1.0611  0.5835 -1.1348
  849MOL0     H14612  10.055   1.779  11.282 -0.6355 -2.2272 -3.1098
  849MOL0     H14613  10.328   1.817  11.063  3.5546  2.6312  1.3292
  849MOL0     H14614  10.351   1.892  11.223 -0.8736  0.6469  0.5412
  849MOL0     H14615  10.268   1.737  11.210 -0.8777  2.4376  5.0610
  850MOL0     O14616   6.304   0.846   2.801  0.3490  0.1508  0.1091
  850MOL0     C14617   6.267   0.961   2.823  0.1110 -0.1130 -0.1075
  850MOL0     O14618   6.360   1.065   2.869  0.1832  0.4753 -0.4900
  850MOL0     C14619   6.491   1.034   2.872  0.5454  0.6368  0.1213
  850MOL0     C14620   6.566   1.041   2.757 -0.2754 -0.5523  0.2068
  850MOL0     C14621   6.705   1.018   2.770  0.0829  0.2691 -0.6590
  850MOL0     C14622   6.765   0.968   2.886 -0.1518  0.0913  0.8702
  850MOL0     O14623   6.897   0.933   2.882 -0.1475 -0.5467  0.1044
  850MOL0     C14624   6.918   0.803   2.827  1.2218  0.3288  0.7931
  850MOL0     C14625   7.045   0.745   2.907 -0.6369 -0.0871 -0.3644
  850MOL0     C14626   7.007   0.631   3.004 -0.0591 -0.0343 -0.1040
  850MOL0     C14627   6.968   0.686   3.147 -0.7082 -0.1231  0.9064
  850MOL0     C14628   6.967   0.585   3.261  0.1872 -0.5531  0.0846
  850MOL0     C14629   6.885   0.454   3.227 -0.3177 -0.4978  0.3818
  850MOL0     C14630   6.883   0.351   3.338 -0.3097  0.3391 -0.9327
  850MOL0     C14631   6.820   0.217   3.318  0.1422 -0.4475  0.0704
  850MOL0     N14632   6.807   0.186   3.175 -0.9964  0.3155  0.3059
  850MOL0     C14633   6.699   0.217   3.105  0.0631  0.1903 -0.7698
  850MOL0     C14634   6.726   0.164   2.985 -0.6564 -0.2415  0.2577
  850MOL0     C14635   6.626   0.169   2.868  0.2502  0.0766 -0.0705
  850MOL0     C14636   6.605   0.309   2.817  0.6621 -0.0953 -0.3960
  850MOL0     C14637   6.728   0.380   2.767  0.2860 -0.3955  0.5096
  850MOL0     C14638   6.797   0.300   2.651 -0.3549 -0.3102  0.7608
  850MOL0     O14639   6.906   0.384   2.604  0.5087  0.0735  0.7678
  850MOL0     C14640   7.031   0.364   2.660 -0.6751  0.0389  0.6089
  850MOL0     C14641   7.131   0.457   2.639 -0.8168 -0.5312  0.4146
  850MOL0     C14642   7.241   0.458   2.728  0.0404 -0.0633  0.8441
  850MOL0     C14643   7.268   0.371   2.825 -0.2289  0.3722  0.1784
  850MOL0     C14644   7.381   0.376   2.912  0.5668 -0.1670  0.7178
  850MOL0     O14645   7.437   0.502   2.925  0.4278  0.5931 -0.2028
  850MOL0     C14646   7.533   0.518   3.028 -0.1512  0.2745 -0.6517
  850MOL0     C14647   7.653   0.594   2.986  0.2905  0.1166 -0.7035
  850MOL0     C14648   7.758   0.610   3.089 -0.4630  0.7655 -0.2821
  850MOL0     C14649   7.749   0.546   3.216  0.9087  0.2578  0.2982
  850MOL0     O14650   7.837   0.549   3.326 -0.6135 -0.3070  0.3045
  850MOL0     C14651   7.973   0.570   3.284 -0.2000 -0.6793  0.0916
  850MOL0     C14652   8.055   0.570   3.418  1.0520 -0.5490  0.4319
  850MOL0     C14653   8.204   0.603   3.393  0.2209 -0.7115 -0.2277
  850MOL0     C14654   8.283   0.649   3.514  0.7358  0.5376 -0.1787
  850MOL0     C14655   8.430   0.644   3.476 -0.3715 -0.8609 -0.4686
  850MOL0     C14656   8.525   0.665   3.595  0.1674 -0.0456 -0.4901
  850MOL0     C14657   8.670   0.696   3.560 -0.2194 -0.0338  0.3634
  850MOL0     C14658   8.763   0.695   3.673 -0.2947  0.2251  0.1096
  850MOL0    Cl14659   8.931   0.714   3.607 -0.3667 -0.2280  0.2979
  850MOL0     C14660   7.638   0.478   3.244 -0.6357 -0.6868 -1.3004
  850MOL0     C14661   7.524   0.473   3.163  0.3561 -0.6379  0.5287
  850MOL0     O14662   7.411   0.280   2.982  1.1552  0.1573  0.4616
  850MOL0     C14663   7.171   0.275   2.852 -0.9700 -0.0773  0.4253
  850MOL0     C14664   7.059   0.269   2.771 -0.2217  0.3508 -1.2323
  850MOL0     N14665   6.840   0.092   2.986  0.2954  0.4886 -0.4451
  850MOL0     N14666   6.891   0.102   3.102  0.0150  0.0205  0.4487
  850MOL0     C14667   6.682   0.943   2.996 -0.1487  0.5690  0.9261
  850MOL0     C14668   6.545   0.974   2.988  1.0755 -0.0934 -0.0006
  850MOL0     C14669   6.123   0.995   2.788  0.1899  0.0879  0.3266
  850MOL0     C14670   6.090   1.137   2.777 -0.6393 -0.3526 -0.6317
  850MOL0     C14671   5.963   1.180   2.735  0.7818 -0.2032  0.2781
  850MOL0     C14672   5.861   1.079   2.712 -0.1707 -0.1751  0.3238
  850MOL0     O14673   5.728   1.091   2.684  1.1463 -0.4927  0.1361
  850MOL0     C14674   5.681   1.223   2.630  0.8744 -0.2579  0.0470
  850MOL0     C14675   5.588   1.299   2.725 -0.5527 -0.9410 -0.3310
  850MOL0     C14676   5.662   1.345   2.848  0.0507  0.3189 -0.3004
  850MOL0     C14677   5.591   1.460   2.913  0.0072 -0.3048  0.0391
  850MOL0     C14678   5.447   1.445   2.949  0.0883 -0.4295 -0.4839
  850MOL0     C14679   5.327   1.426   2.982 -0.4692  0.3922 -0.1445
  850MOL0     C14680   5.895   0.947   2.735  0.2034  0.2085 -0.7048
  850MOL0     C14681   6.022   0.896   2.773  0.4547  0.9360  0.1557
  850MOL0     C14682   6.041   0.751   2.801  0.6186 -0.0913  0.4507
  850MOL0     H14683   6.512   1.064   2.665 -1.4095 -0.1120  0.9608
  850MOL0     H14684   6.771   1.019   2.684  1.8374 -0.0771  0.6228
  850MOL0     H14685   6.830   0.742   2.845 -0.2831  1.9503 -0.6416
  850MOL0     H14686   6.925   0.807   2.718 -0.1032  2.5654  0.7383
  850MOL0     H14687   7.112   0.818   2.954  1.3049 -1.2640 -1.1731
  850MOL0     H14688   7.117   0.703   2.835  1.6641  2.2964  0.3677
  850MOL0     H14689   7.094   0.566   3.020 -1.4584 -1.5789  1.6892
  850MOL0     H14690   6.923   0.575   2.963  0.7426  0.1916 -2.1581
  850MOL0     H14691   7.032   0.771   3.173  0.2639  0.0088 -1.6185
  850MOL0     H14692   6.871   0.736   3.141 -0.2629  1.0196  2.5653
  850MOL0     H14693   7.074   0.573   3.281  0.1519 -0.7088  0.1858
  850MOL0     H14694   6.921   0.637   3.346  0.3705  2.1537 -1.3484
  850MOL0     H14695   6.786   0.495   3.208  0.5771  2.5250  1.6653
  850MOL0     H14696   6.939   0.412   3.141  0.0154 -1.0466  0.8555
  850MOL0     H14697   6.832   0.399   3.423 -1.1156 -0.4018 -0.9781
  850MOL0     H14698   6.984   0.340   3.378 -1.2512 -2.2555  1.0230
  850MOL0     H14699   6.879   0.145   3.377  2.9422  1.8385  0.3037
  850MOL0     H14700   6.720   0.227   3.359 -0.4370 -2.4187 -0.7201
  850MOL0     H14701   6.615   0.270   3.147  0.0173 -1.8500  2.0492
  850MOL0     H14702   6.659   0.106   2.785 -1.0281  1.9656 -2.1076
  850MOL0     H14703   6.532   0.128   2.906 -0.0050 -1.8145 -2.5165
  850MOL0     H14704   6.534   0.292   2.735 -0.8893 -2.4408  1.3121
  850MOL0     H14705   6.535   0.369   2.876 -2.7811 -0.7058 -3.4232
  850MOL0     H14706   6.792   0.399   2.854 -0.3375 -0.9738  1.1109
  850MOL0     H14707   6.701   0.475   2.720 -1.8035 -1.0918  0.1675
  850MOL0     H14708   6.720   0.277   2.576  1.3670 -1.1447 -0.8454
  850MOL0     H14709   6.840   0.208   2.690  1.4072  0.9100  1.8298
  850MOL0     H14710   7.123   0.538   2.567  1.8440  0.1138  0.7711
  850MOL0     H14711   7.312   0.537   2.702 -3.5731  4.0951  2.4176
  850MOL0     H14712   7.682   0.622   2.885 -0.6859 -0.1806 -1.0754
  850MOL0     H14713   7.844   0.670   3.060  0.4105 -0.5547 -0.5079
  850MOL0     H14714   8.010   0.483   3.228  0.0846 -1.3872  1.3442
  850MOL0     H14715   7.986   0.659   3.222 -2.3531  0.1711  0.7722
  850MOL0     H14716   8.013   0.649   3.481  3.6880  1.7334 -0.4683
  850MOL0     H14717   8.045   0.471   3.465  3.2555 -1.8392 -1.5764
  850MOL0     H14718   8.249   0.512   3.353 -0.9091 -0.0819 -3.2035
  850MOL0     H14719   8.204   0.680   3.315 -1.8494 -0.0283  0.3807
  850MOL0     H14720   8.248   0.600   3.605  0.1335  0.4781 -0.4354
  850MOL0     H14721   8.271   0.756   3.536  1.4143  0.4885  0.4656
  850MOL0     H14722   8.453   0.730   3.412  0.1651 -1.3895 -0.9994
  850MOL0     H14723   8.465   0.554   3.425  3.3621 -0.2332  0.6497
  850MOL0     H14724   8.468   0.747   3.639 -1.4121 -0.6768 -1.2765
  850MOL0     H14725   8.510   0.574   3.653  0.3971 -0.3426 -0.8959
  850MOL0     H14726   8.672   0.790   3.505  2.7885 -0.3314 -0.2099
  850MOL0     H14727   8.693   0.616   3.489 -0.6648 -0.6866  0.9399
  850MOL0     H14728   8.746   0.772   3.749  0.4118  0.4130  0.0840
  850MOL0     H14729   8.758   0.600   3.727 -1.8404  0.5170  0.5250
  850MOL0     H14730   7.632   0.427   3.340  2.3671 -0.9867 -1.1670
  850MOL0     H14731   7.428   0.442   3.203 -1.5897  0.7796 -2.6537
  850MOL0     H14732   7.177   0.205   2.934 -1.9860 -1.6130 -0.7475
  850MOL0     H14733   6.999   0.184   2.802  0.1337  0.3541 -0.5177
  850MOL0     H14734   6.727   0.898   3.085  0.2051  0.4618  0.6960
  850MOL0     H14735   6.478   0.958   3.072  1.6382  0.7000  0.6202
  850MOL0     H14736   6.159   1.215   2.806 -0.9998  1.1205 -3.3886
  850MOL0     H14737   5.934   1.284   2.724 -2.1619 -1.1634 -2.7314
  850MOL0     H14738   5.616   1.190   2.548 -1.2813  0.2312  1.4465
  850MOL0     H14739   5.759   1.285   2.586  0.0342 -0.9543 -2.5966
  850MOL0     H14740   5.515   1.226   2.761  1.4132 -1.5892  2.7119
  850MOL0     H14741   5.536   1.384   2.680 -0.4420 -0.4582  0.4359
  850MOL0     H14742   5.756   1.384   2.808 -1.3963  2.8584 -1.4636
  850MOL0     H14743   5.682   1.264   2.919  0.9874  1.5987  0.9706
  850MOL0     H14744   5.637   1.482   3.010  0.6083  0.4194 -0.3958
  850MOL0     H14745   5.614   1.548   2.852  2.9800 -1.4568 -0.7033
  850MOL0     H14746   5.226   1.412   3.014 -0.3821 -2.0681 -0.7162
  850MOL0     H14747   5.819   0.870   2.722  0.2692  0.2214 -1.1995
  850MOL0     H14748   5.945   0.701   2.821 -0.7619  1.7778 -1.0556
  850MOL0     H14749   6.085   0.704   2.713  0.5785 -1.3679  1.0904
  850MOL0     H14750   6.102   0.747   2.891 -0.0927 -0.7033  0.9270
  851MOL0     O14751   2.426   3.488   5.480  0.0669  1.0943 -0.0594
  851MOL0     C14752   2.421   3.551   5.376 -0.0021  0.4827  0.6322
  851MOL0     O14753   2.530   3.604   5.307  0.4110  0.0882 -0.3137
  851MOL0     C14754   2.660   3.573   5.344  0.1375 -0.3645 -0.1858
  851MOL0     C14755   2.755   3.680   5.350 -0.0211  0.0040 -0.0823
  851MOL0     C14756   2.896   3.649   5.364 -0.7181  0.0892  1.0754
  851MOL0     C14757   2.937   3.518   5.386  0.5401  0.5616 -0.1098
  851MOL0     O14758   3.064   3.480   5.412  0.1726  0.4119 -0.0041
  851MOL0     C14759   3.162   3.534   5.325  0.3280 -0.2200 -0.9349
  851MOL0     C14760   3.274   3.590   5.406  0.1956 -0.3400 -0.1730
  851MOL0     C14761   3.257   3.722   5.481 -0.5208 -1.0942 -0.6165
  851MOL0     C14762   3.373   3.745   5.576  0.8338 -0.3428 -0.6292
  851MOL0     C14763   3.370   3.875   5.656 -0.3261  0.5381  0.0469
  851MOL0     C14764   3.425   3.998   5.578 -0.3219 -0.5808  0.1170
  851MOL0     C14765   3.571   4.006   5.601 -0.5393 -0.0196  0.2611
  851MOL0     C14766   3.605   4.138   5.533 -0.8891 -0.4648 -1.1286
  851MOL0     N14767   3.748   4.158   5.513  0.4488  0.0730  0.2760
  851MOL0     C14768   3.813   4.099   5.411  0.8526  0.1077  0.0077
  851MOL0     C14769   3.941   4.104   5.444 -0.1161  0.0593 -0.3725
  851MOL0     C14770   4.057   4.046   5.373  0.0531 -0.3072  0.0231
  851MOL0     C14771   4.193   4.120   5.388 -0.6403 -0.1768 -0.5187
  851MOL0     C14772   4.288   4.074   5.278 -0.0603 -0.3505  0.1725
  851MOL0     C14773   4.434   4.093   5.315 -0.6629  0.0027  0.0061
  851MOL0     O14774   4.455   4.220   5.379 -0.2664  0.3270 -0.4524
  851MOL0     C14775   4.584   4.256   5.375 -0.3819 -0.5963  0.3023
  851MOL0     C14776   4.688   4.170   5.417  0.2313 -0.0272  0.1641
  851MOL0     C14777   4.817   4.208   5.408 -0.7031  0.1789  0.9816
  851MOL0     C14778   4.855   4.329   5.349 -1.0193  0.3028 -0.2939
  851MOL0     C14779   4.998   4.367   5.349  0.0158  0.1346  0.6907
  851MOL0     O14780   5.091   4.265   5.387 -0.3334 -0.7158  0.3380
  851MOL0     C14781   5.215   4.314   5.385 -0.0922  0.2864 -0.6523
  851MOL0     C14782   5.296   4.308   5.499 -0.1555 -0.2021 -0.4829
  851MOL0     C14783   5.433   4.345   5.483  0.2514  0.1953 -0.5034
  851MOL0     C14784   5.487   4.398   5.368  0.0993 -0.1509 -0.5507
  851MOL0     O14785   5.606   4.465   5.359  0.7705 -0.8427 -0.2363
  851MOL0     C14786   5.698   4.452   5.472  1.2684  0.5217  0.8613
  851MOL0     C14787   5.841   4.476   5.427  0.9163  0.5788 -0.2791
  851MOL0     C14788   5.884   4.367   5.334 -0.0621 -0.5530  0.3591
  851MOL0     C14789   6.001   4.423   5.242 -0.0611 -0.2963 -0.3294
  851MOL0     C14790   6.090   4.312   5.173 -0.3838  0.3788 -0.1943
  851MOL0     C14791   6.188   4.262   5.274  0.0750 -0.3781  0.2467
  851MOL0     C14792   6.299   4.367   5.304  0.4034  0.5145 -1.0310
  851MOL0     C14793   6.363   4.327   5.432 -0.3161 -0.3173  0.1100
  851MOL0    Cl14794   6.500   4.436   5.483 -0.3544 -0.2355  0.5788
  851MOL0     C14795   5.405   4.392   5.260  0.2055 -0.4504  0.7374
  851MOL0     C14796   5.274   4.349   5.261  0.2689 -0.3467 -0.6662
  851MOL0     O14797   5.025   4.479   5.306  0.3160  0.2691  0.2454
  851MOL0     C14798   4.750   4.415   5.317 -0.1597 -0.3049  1.1201
  851MOL0     C14799   4.616   4.384   5.334 -0.4627 -0.4324 -0.3014
  851MOL0     N14800   3.960   4.176   5.559  0.0333  1.4085 -0.3214
  851MOL0     N14801   3.838   4.210   5.597 -1.2200 -0.4728 -0.6401
  851MOL0     C14802   2.836   3.418   5.389  0.4996 -0.7494 -0.3368
  851MOL0     C14803   2.700   3.442   5.368 -0.7969  0.2985  0.4643
  851MOL0     C14804   2.283   3.575   5.311  0.3848  0.6995  0.1448
  851MOL0     C14805   2.271   3.687   5.227 -0.0349  0.1736 -0.2842
  851MOL0     C14806   2.153   3.711   5.157  0.3569  0.5415  0.3311
  851MOL0     C14807   2.040   3.633   5.178  1.3707 -0.0660 -0.0969
  851MOL0     O14808   1.931   3.685   5.115  0.6998  0.4638  0.4163
  851MOL0     C14809   1.806   3.632   5.155 -0.3417  0.0385  0.5560
  851MOL0     C14810   1.761   3.510   5.071 -0.2108  0.1062 -0.2317
  851MOL0     C14811   1.637   3.438   5.130 -0.9261 -0.6935  0.0645
  851MOL0     C14812   1.654   3.286   5.153  0.5200  0.6174 -0.9638
  851MOL0     C14813   1.745   3.245   5.250 -0.0909 -0.1581 -0.0410
  851MOL0     C14814   1.825   3.217   5.339 -0.2977  0.4131  0.1808
  851MOL0     C14815   2.054   3.523   5.258 -0.3256  1.0913 -0.2317
  851MOL0     C14816   2.165   3.500   5.333 -0.0847  0.2597 -0.6185
  851MOL0     C14817   2.162   3.382   5.438 -0.4617  0.4295 -0.3908
  851MOL0     H14818   2.719   3.781   5.333  4.0580  1.5075 -1.1892
  851MOL0     H14819   2.969   3.729   5.369 -3.9610  3.4457  0.2023
  851MOL0     H14820   3.192   3.458   5.253 -1.3356  0.3756 -2.3197
  851MOL0     H14821   3.119   3.617   5.269 -1.5583  0.5395  1.4302
  851MOL0     H14822   3.353   3.607   5.331 -1.8376  1.0080 -2.1370
  851MOL0     H14823   3.318   3.514   5.470  1.6042 -1.9617 -2.8669
  851MOL0     H14824   3.165   3.720   5.539 -0.2524  2.4720  0.1607
  851MOL0     H14825   3.255   3.812   5.419 -0.4776  2.7805  4.3644
  851MOL0     H14826   3.374   3.659   5.644 -1.8440  0.2215  0.2625
  851MOL0     H14827   3.470   3.739   5.527  0.2740  1.3876 -2.0533
  851MOL0     H14828   3.270   3.908   5.685 -1.0744  0.9221 -2.6518
  851MOL0     H14829   3.425   3.866   5.750  1.8239 -0.2105 -1.1929
  851MOL0     H14830   3.415   3.988   5.470 -1.4553 -0.1059  0.1606
  851MOL0     H14831   3.371   4.091   5.600 -0.7386 -1.3508  2.8051
  851MOL0     H14832   3.633   3.933   5.548 -2.0436  0.5131 -2.4826
  851MOL0     H14833   3.601   4.005   5.706 -0.4578 -1.6008  0.2441
  851MOL0     H14834   3.551   4.141   5.438 -2.1374 -1.0734 -0.4583
  851MOL0     H14835   3.587   4.226   5.596  2.3841 -0.7376  0.4004
  851MOL0     H14836   3.770   4.059   5.320 -0.2939  3.2248 -0.9787
  851MOL0     H14837   4.059   3.945   5.416 -0.5262  0.2143  1.3444
  851MOL0     H14838   4.043   4.050   5.265  0.0294  1.8706  0.0576
  851MOL0     H14839   4.171   4.227   5.385 -1.0379 -0.2462 -0.2062
  851MOL0     H14840   4.235   4.095   5.485 -2.1107 -0.3258  0.1059
  851MOL0     H14841   4.255   4.124   5.187  1.3138  0.2700 -0.0103
  851MOL0     H14842   4.285   3.967   5.257 -2.4152 -0.8867  2.7515
  851MOL0     H14843   4.503   4.076   5.232 -0.0584  2.6170 -0.1120
  851MOL0     H14844   4.466   4.024   5.394 -0.1508 -1.5015 -1.4541
  851MOL0     H14845   4.672   4.081   5.476  1.4884 -1.1917 -1.1582
  851MOL0     H14846   4.888   4.133   5.442 -0.9944  0.0974  1.4166
  851MOL0     H14847   5.244   4.283   5.590 -2.5222  0.6190 -1.5394
  851MOL0     H14848   5.488   4.334   5.577  0.1299  1.5488 -0.2588
  851MOL0     H14849   5.670   4.523   5.550  1.5931  3.3351 -1.4261
  851MOL0     H14850   5.701   4.347   5.505 -1.5130 -0.2026 -0.8470
  851MOL0     H14851   5.854   4.575   5.382  2.7226  0.3242 -0.3802
  851MOL0     H14852   5.910   4.485   5.511 -0.0023  0.0408  0.5592
  851MOL0     H14853   5.906   4.279   5.395  3.0234  0.9783  1.6910
  851MOL0     H14854   5.798   4.333   5.275 -0.8085  0.3719  0.8921
  851MOL0     H14855   6.055   4.509   5.284  0.2891  0.3858 -2.0789
  851MOL0     H14856   5.944   4.472   5.163  1.5067  2.7949  0.2623
  851MOL0     H14857   6.136   4.354   5.083  0.2527 -3.7061 -1.9723
  851MOL0     H14858   6.028   4.233   5.131 -1.3300  0.7822  0.3976
  851MOL0     H14859   6.130   4.234   5.363  0.0057  2.2397  1.1204
  851MOL0     H14860   6.241   4.183   5.220  0.2977 -0.4738  0.6002
  851MOL0     H14861   6.261   4.468   5.317  0.0396  0.1541  1.1619
  851MOL0     H14862   6.374   4.369   5.225  1.3941 -2.1022 -0.2914
  851MOL0     H14863   6.290   4.319   5.513  0.2162 -0.6284  0.5657
  851MOL0     H14864   6.414   4.231   5.420 -1.7110 -1.2904  1.5527
  851MOL0     H14865   5.445   4.432   5.168  0.7581  0.5429  1.3852
  851MOL0     H14866   5.219   4.350   5.168 -0.9585  2.5899 -0.0003
  851MOL0     H14867   4.771   4.510   5.270  2.4038 -1.1498  0.3970
  851MOL0     H14868   4.536   4.451   5.302  1.7885  2.9954  0.7064
  851MOL0     H14869   2.886   3.324   5.411  0.6529 -0.6034 -0.0629
  851MOL0     H14870   2.621   3.368   5.357 -3.5716  3.2060 -0.9738
  851MOL0     H14871   2.351   3.758   5.209 -1.5312  2.4270  1.4228
  851MOL0     H14872   2.139   3.807   5.109 -2.1630  0.6107  1.0184
  851MOL0     H14873   1.735   3.713   5.138  0.4692  0.6491  0.0151
  851MOL0     H14874   1.810   3.613   5.263 -1.2224 -0.0197  0.5919
  851MOL0     H14875   1.838   3.435   5.051  0.4872  0.2014  1.8391
  851MOL0     H14876   1.726   3.557   4.979 -0.5703  0.7580  0.2332
  851MOL0     H14877   1.558   3.452   5.055 -0.9675 -0.8248  0.0836
  851MOL0     H14878   1.603   3.483   5.223 -0.9036 -2.3642  0.9110
  851MOL0     H14879   1.552   3.260   5.186  1.1413  0.6731  1.1555
  851MOL0     H14880   1.671   3.233   5.059 -0.9470 -0.3521 -0.7242
  851MOL0     H14881   1.890   3.189   5.420 -1.8294 -0.7794  1.0539
  851MOL0     H14882   1.972   3.454   5.280 -0.4162  1.8632  2.1380
  851MOL0     H14883   2.128   3.420   5.535  0.0902  1.4100 -0.5698
  851MOL0     H14884   2.099   3.299   5.406  2.9695 -2.2449 -0.8553
  851MOL0     H14885   2.258   3.329   5.438 -0.8729 -0.4579  2.4967
  852MOL0     O14886   8.357   5.226   1.804  0.3900 -0.9564  0.1585
  852MOL0     C14887   8.275   5.320   1.788  0.5464 -0.7392 -1.1949
  852MOL0     O14888   8.289   5.430   1.704 -1.0937 -0.2745 -0.0462
  852MOL0     C14889   8.412   5.444   1.659 -0.0540  0.7471  0.1371
  852MOL0     C14890   8.503   5.515   1.729 -0.6561 -0.3079  0.6325
  852MOL0     C14891   8.631   5.544   1.674  1.4199 -0.1157  0.4558
  852MOL0     C14892   8.672   5.485   1.549  0.5856 -0.4161  1.0169
  852MOL0     O14893   8.792   5.491   1.493 -1.1448 -0.3417  0.5471
  852MOL0     C14894   8.864   5.618   1.505 -0.6313 -0.1239  0.0983
  852MOL0     C14895   8.959   5.615   1.631  0.4547 -0.1583  0.2837
  852MOL0     C14896   9.109   5.642   1.607 -0.5455 -0.6053 -0.0023
  852MOL0     C14897   9.174   5.515   1.546  0.0090 -0.6919 -0.0891
  852MOL0     C14898   9.318   5.542   1.484  0.2301 -0.9431 -0.5502
  852MOL0     C14899   9.293   5.605   1.351  0.5303  0.1255  0.9878
  852MOL0     C14900   9.404   5.573   1.257 -0.4841  0.9032 -0.3802
  852MOL0     C14901   9.533   5.655   1.295  0.0772  0.8183  0.6023
  852MOL0     N14902   9.631   5.582   1.377 -0.2916  0.4338 -0.2114
  852MOL0     C14903   9.697   5.470   1.330 -0.7407 -0.2442 -0.8301
  852MOL0     C14904   9.787   5.435   1.427  0.2455 -0.5598  0.8972
  852MOL0     C14905   9.898   5.332   1.431  0.0792 -0.3873 -0.5124
  852MOL0     C14906   9.838   5.188   1.443 -0.0005 -0.2961 -0.0140
  852MOL0     C14907   9.738   5.179   1.556  0.9964 -0.3264 -0.4814
  852MOL0     C14908   9.794   5.187   1.699  0.1671 -0.9068 -0.3883
  852MOL0     O14909   9.681   5.148   1.783  0.3313  0.7403 -0.2049
  852MOL0     C14910   9.670   5.018   1.833 -0.3181  0.6386 -0.6414
  852MOL0     C14911   9.544   4.967   1.828  0.1129 -0.1536  0.0942
  852MOL0     C14912   9.515   4.842   1.890 -0.1951 -0.1887 -0.6167
  852MOL0     C14913   9.622   4.759   1.934 -0.1098 -0.8247  0.7096
  852MOL0     C14914   9.595   4.628   1.982  0.4602  0.1515  0.1363
  852MOL0     O14915   9.470   4.580   1.950 -0.1146  0.1251 -0.3781
  852MOL0     C14916   9.436   4.447   1.961 -0.5392  0.6855  0.2562
  852MOL0     C14917   9.519   4.339   1.937 -1.1120 -0.0750  0.5874
  852MOL0     C14918   9.479   4.205   1.936  0.5361  1.3214  0.0457
  852MOL0     C14919   9.343   4.174   1.963 -0.3285  0.1513 -0.7128
  852MOL0     O14920   9.296   4.040   1.967 -0.0787  0.1377 -0.1114
  852MOL0     C14921   9.150   4.014   1.981 -0.5840 -0.5044 -0.0121
  852MOL0     C14922   9.116   3.866   2.001  0.4970  0.0687  0.2164
  852MOL0     C14923   8.963   3.865   2.045 -0.6370 -0.1255 -0.8839
  852MOL0     C14924   8.881   3.731   2.042 -0.7207  0.8897  0.5093
  852MOL0     C14925   8.760   3.727   2.134  0.6409 -0.4634  0.4593
  852MOL0     C14926   8.699   3.586   2.116  0.0986 -1.2915 -0.2566
  852MOL0     C14927   8.567   3.560   2.206 -0.7476  0.7537  0.7806
  852MOL0     C14928   8.529   3.415   2.194  1.0272 -0.3591 -0.0580
  852MOL0    Cl14929   8.353   3.405   2.245  0.2994 -0.1930  0.4587
  852MOL0     C14930   9.258   4.285   1.989 -0.2627  0.0050  0.4434
  852MOL0     C14931   9.302   4.412   1.989  0.0530 -0.0112 -0.7165
  852MOL0     O14932   9.682   4.563   2.037  1.0411 -0.0260 -0.2568
  852MOL0     C14933   9.754   4.809   1.931 -0.1800  0.3862  0.0550
  852MOL0     C14934   9.778   4.935   1.872 -0.3882 -0.1699  0.3739
  852MOL0     N14935   9.790   5.540   1.517  1.0682 -0.1354 -0.3686
  852MOL0     N14936   9.694   5.621   1.488 -0.3934 -0.5261  0.8952
  852MOL0     C14937   8.579   5.400   1.488  0.3497  0.3554 -1.1270
  852MOL0     C14938   8.450   5.387   1.534  0.5092 -0.6194 -0.0791
  852MOL0     C14939   8.158   5.332   1.877  0.1736  0.5911 -0.1341
  852MOL0     C14940   8.064   5.440   1.864 -0.6607  0.4623  0.1179
  852MOL0     C14941   7.948   5.444   1.932 -0.2274  0.1908  0.4883
  852MOL0     C14942   7.917   5.346   2.030 -0.1556  0.4205  0.5430
  852MOL0     O14943   7.799   5.361   2.095 -0.1393 -1.2174  0.4130
  852MOL0     C14944   7.789   5.299   2.228  0.2624  0.2018  1.1871
  852MOL0     C14945   7.729   5.375   2.347 -0.1935  0.0695 -0.4043
  852MOL0     C14946   7.611   5.450   2.308  0.2123 -0.7585 -0.0208
  852MOL0     C14947   7.489   5.362   2.291  0.3342 -0.0512  0.0223
  852MOL0     C14948   7.359   5.421   2.326  0.0908  1.0549 -0.8152
  852MOL0     C14949   7.256   5.477   2.360  0.6485  0.6036  0.3067
  852MOL0     C14950   8.006   5.238   2.045 -0.4917 -0.8541  0.7169
  852MOL0     C14951   8.127   5.230   1.970  0.5545 -0.0303  1.0714
  852MOL0     C14952   8.206   5.100   1.987  1.4976 -0.3847  0.8525
  852MOL0     H14953   8.486   5.566   1.823 -1.8527 -0.4721  0.5268
  852MOL0     H14954   8.692   5.611   1.734  1.1762 -0.4847  1.1258
  852MOL0     H14955   8.911   5.652   1.412 -1.7508 -1.7809 -1.1267
  852MOL0     H14956   8.793   5.696   1.536  0.0145 -0.7236  3.5087
  852MOL0     H14957   8.956   5.514   1.674 -0.0678 -0.4513 -0.4319
  852MOL0     H14958   8.925   5.682   1.711  1.1148 -1.6147  1.8531
  852MOL0     H14959   9.158   5.663   1.703  2.0245 -0.2363 -1.3073
  852MOL0     H14960   9.128   5.734   1.551  1.1878 -1.0119 -0.1552
  852MOL0     H14961   9.189   5.445   1.628  1.0912 -0.5817 -0.1779
  852MOL0     H14962   9.113   5.476   1.464  0.7165  1.2915 -1.6541
  852MOL0     H14963   9.376   5.614   1.544 -1.4928  0.5522 -0.5882
  852MOL0     H14964   9.381   5.453   1.493  2.2316  0.4104 -0.5752
  852MOL0     H14965   9.213   5.558   1.293  1.2920  0.6967 -0.5805
  852MOL0     H14966   9.263   5.710   1.356  2.1467  0.6821 -0.1288
  852MOL0     H14967   9.385   5.606   1.155  0.3998 -0.2982 -0.9578
  852MOL0     H14968   9.425   5.466   1.266 -0.6483  1.0328  2.1830
  852MOL0     H14969   9.586   5.690   1.206  1.1420 -1.0715  0.4179
  852MOL0     H14970   9.504   5.740   1.357  0.2501  0.5056  1.1191
  852MOL0     H14971   9.672   5.413   1.241  0.7538 -1.9666 -0.2133
  852MOL0     H14972   9.960   5.329   1.341  0.9572 -0.6262  0.0853
  852MOL0     H14973   9.953   5.357   1.522 -0.8162  2.2865 -0.6153
  852MOL0     H14974   9.786   5.158   1.352 -0.6329 -1.1869  0.6196
  852MOL0     H14975   9.923   5.120   1.460  0.8823  1.4327  3.3670
  852MOL0     H14976   9.692   5.083   1.532  3.8009 -1.9655  0.1794
  852MOL0     H14977   9.657   5.251   1.549 -0.9919 -1.7302  4.2725
  852MOL0     H14978   9.828   5.288   1.725  0.6252 -0.7551 -1.4927
  852MOL0     H14979   9.884   5.126   1.712 -0.4540 -1.8854 -0.5978
  852MOL0     H14980   9.480   5.030   1.768  1.4626  0.6453 -0.5457
  852MOL0     H14981   9.411   4.812   1.888 -0.9345  2.0653  0.9406
  852MOL0     H14982   9.623   4.366   1.919 -0.3128 -2.4076  1.2343
  852MOL0     H14983   9.539   4.116   1.920  1.0009  1.7497 -0.6184
  852MOL0     H14984   9.106   4.078   2.057 -1.8926  1.0255 -1.9487
  852MOL0     H14985   9.110   4.044   1.884 -0.3860 -2.1940 -0.6623
  852MOL0     H14986   9.119   3.816   1.904 -1.9579  3.6846 -1.9733
  852MOL0     H14987   9.180   3.812   2.071  0.3718  0.2577  0.4766
  852MOL0     H14988   8.975   3.879   2.153 -0.9668 -1.9525 -0.5866
  852MOL0     H14989   8.908   3.950   2.002 -0.8498 -0.1539 -0.6697
  852MOL0     H14990   8.947   3.649   2.071 -1.6205 -0.8169 -1.9561
  852MOL0     H14991   8.842   3.717   1.940 -2.2732  1.2496  1.0224
  852MOL0     H14992   8.684   3.802   2.114 -1.3019 -2.1311  1.1606
  852MOL0     H14993   8.798   3.730   2.237 -1.4294 -3.2931  1.4417
  852MOL0     H14994   8.691   3.582   2.007  4.2909  0.4445 -0.8241
  852MOL0     H14995   8.779   3.517   2.143 -0.3586 -1.1200  1.7445
  852MOL0     H14996   8.483   3.617   2.167 -1.9348  0.1580  2.3704
  852MOL0     H14997   8.597   3.587   2.308 -1.4852 -0.9522  1.4939
  852MOL0     H14998   8.542   3.374   2.093  0.2505 -0.9401  0.0717
  852MOL0     H14999   8.578   3.364   2.277 -2.1701 -1.5096  1.3011
  852MOL0     H15000   9.154   4.276   2.018 -0.1797 -1.7549  0.2813
  852MOL0     H15001   9.235   4.495   2.011 -0.7139 -0.8727  0.2690
  852MOL0     H15002   9.841   4.763   1.975  0.7001  2.2848  0.4263
  852MOL0     H15003   9.878   4.975   1.853 -0.0084 -2.0006 -2.0248
  852MOL0     H15004   8.604   5.348   1.396  2.5574  1.0836 -0.9937
  852MOL0     H15005   8.375   5.330   1.481 -1.5692  0.6843  1.2932
  852MOL0     H15006   8.079   5.517   1.789 -2.6144  1.5360  0.7340
  852MOL0     H15007   7.884   5.530   1.915  0.0182  0.5303  1.2254
  852MOL0     H15008   7.887   5.269   2.266 -0.3624  0.3819  3.0437
  852MOL0     H15009   7.742   5.201   2.219  0.0927  0.3777 -0.1209
  852MOL0     H15010   7.815   5.426   2.390 -0.5957 -0.6833  1.4056
  852MOL0     H15011   7.704   5.308   2.430  2.7438  0.2918  0.7820
  852MOL0     H15012   7.634   5.531   2.238 -0.9877  2.4227  2.9216
  852MOL0     H15013   7.586   5.514   2.393 -1.1341  1.7312 -2.1565
  852MOL0     H15014   7.492   5.344   2.183  1.3042 -0.2682  0.0758
  852MOL0     H15015   7.493   5.268   2.348 -2.7213  1.2292  2.6248
  852MOL0     H15016   7.159   5.520   2.374 -1.5939 -3.3822 -1.2400
  852MOL0     H15017   7.975   5.161   2.114  0.6280 -1.2092  0.8534
  852MOL0     H15018   8.312   5.119   2.007  1.5644  1.7471 -1.1481
  852MOL0     H15019   8.157   5.041   2.065 -0.3907 -1.5566 -1.1281
  852MOL0     H15020   8.183   5.046   1.895 -2.5277  1.1216  0.8049
  853MOL0     O15021   2.000   6.816   8.724 -0.9421 -0.1089  0.0782
  853MOL0     C15022   1.902   6.806   8.652 -0.3691 -0.8409  0.4623
  853MOL0     O15023   1.903   6.766   8.516  0.1480 -0.5987  0.1629
  853MOL0     C15024   2.024   6.750   8.458 -0.0801  0.4440  0.0694
  853MOL0     C15025   2.098   6.631   8.487 -0.0892 -0.0302  0.9734
  853MOL0     C15026   2.231   6.623   8.440  0.2309 -0.5259  0.3759
  853MOL0     C15027   2.289   6.722   8.352 -0.3779  0.0613  0.2349
  853MOL0     O15028   2.419   6.700   8.316  0.2088  0.2092  0.0085
  853MOL0     C15029   2.476   6.756   8.200  0.4110  0.1538  0.0456
  853MOL0     C15030   2.622   6.716   8.199 -0.2386  0.7305  0.3634
  853MOL0     C15031   2.654   6.564   8.225 -0.3248  0.5283 -0.1166
  853MOL0     C15032   2.806   6.534   8.228  1.2940  0.4603  0.4413
  853MOL0     C15033   2.847   6.391   8.261  0.2296 -0.5096 -0.7481
  853MOL0     C15034   2.992   6.349   8.211 -0.1442 -0.2274 -0.3938
  853MOL0     C15035   3.108   6.448   8.237  0.7407 -0.1404 -0.6805
  853MOL0     C15036   3.162   6.438   8.379 -0.1201  0.0254 -0.6585
  853MOL0     N15037   3.284   6.517   8.394  0.4598 -0.0218  0.5144
  853MOL0     C15038   3.294   6.650   8.411  0.0683 -0.0884  0.8671
  853MOL0     C15039   3.416   6.670   8.450 -0.5613 -0.0607 -0.0406
  853MOL0     C15040   3.465   6.799   8.505  0.4624  0.0382 -0.2126
  853MOL0     C15041   3.618   6.811   8.485  0.4723 -0.3680 -0.6653
  853MOL0     C15042   3.671   6.948   8.448 -0.4739  0.2964 -0.5000
  853MOL0     C15043   3.813   6.965   8.420  0.4276  0.0422 -0.0297
  853MOL0     O15044   3.903   6.925   8.528 -0.4797  0.0828 -0.7592
  853MOL0     C15045   4.032   6.975   8.529 -0.5641 -0.1954 -0.0344
  853MOL0     C15046   4.119   6.936   8.630  0.1142  1.0266 -0.5258
  853MOL0     C15047   4.255   6.956   8.626 -1.2988  0.3506  0.0624
  853MOL0     C15048   4.305   7.013   8.510 -0.5112  0.1345 -0.3305
  853MOL0     C15049   4.449   7.025   8.494  0.3870  0.2618  0.1640
  853MOL0     O15050   4.527   7.012   8.611 -0.9626  0.7181  0.3661
  853MOL0     C15051   4.666   6.999   8.610 -0.1693  0.3130 -0.8134
  853MOL0     C15052   4.733   6.891   8.680 -0.6730 -0.8762 -0.9095
  853MOL0     C15053   4.870   6.866   8.665 -0.1874  0.9210 -0.5421
  853MOL0     C15054   4.954   6.943   8.583  0.9074  0.3010  0.0361
  853MOL0     O15055   5.086   6.909   8.580  0.1983 -0.1250 -0.1395
  853MOL0     C15056   5.176   7.009   8.521  0.5936  0.5187  1.0578
  853MOL0     C15057   5.324   6.998   8.553 -0.1087  0.7399  0.9450
  853MOL0     C15058   5.374   6.848   8.545 -0.5428  0.2245  0.0796
  853MOL0     C15059   5.534   6.837   8.540 -0.1964  0.1393  0.6810
  853MOL0     C15060   5.613   6.851   8.678 -1.1607  0.3305 -0.4660
  853MOL0     C15061   5.752   6.788   8.685 -0.0610 -0.5227  0.1406
  853MOL0     C15062   5.864   6.888   8.628 -0.0580  0.2124 -0.0631
  853MOL0     C15063   5.975   6.808   8.571  0.0446 -0.6019 -0.6949
  853MOL0    Cl15064   6.050   6.680   8.675 -0.1368  0.0568  0.2533
  853MOL0     C15065   4.890   7.049   8.518 -0.3546  0.1839 -0.0129
  853MOL0     C15066   4.749   7.076   8.528  0.0142  0.4344  0.4697
  853MOL0     O15067   4.488   7.049   8.376 -0.1147  0.0974 -0.0100
  853MOL0     C15068   4.220   7.051   8.401  1.2976  0.0687  0.0957
  853MOL0     C15069   4.080   7.051   8.422 -0.4276 -0.0265 -0.3400
  853MOL0     N15070   3.487   6.554   8.443 -0.5183 -0.4416 -0.2241
  853MOL0     N15071   3.402   6.461   8.421  0.1213  0.6275 -0.0095
  853MOL0     C15072   2.219   6.840   8.339  0.0892  0.0583 -0.0973
  853MOL0     C15073   2.084   6.856   8.391 -0.5445  1.1757 -0.8664
  853MOL0     C15074   1.767   6.851   8.707  0.6123 -0.6965  0.8651
  853MOL0     C15075   1.647   6.793   8.660  1.3624 -0.1392  0.2859
  853MOL0     C15076   1.515   6.813   8.705  0.3668  1.1366 -0.3756
  853MOL0     C15077   1.505   6.892   8.820 -1.3482 -0.3598  0.5222
  853MOL0     O15078   1.384   6.915   8.876  0.1642 -0.8322  0.1610
  853MOL0     C15079   1.282   6.816   8.872 -0.1210 -0.4783  0.2195
  853MOL0     C15080   1.180   6.829   8.978  0.1102  0.1774  1.0861
  853MOL0     C15081   1.123   6.980   8.971 -0.1889  0.1851  0.1570
  853MOL0     C15082   1.034   7.025   9.080  0.3231 -0.3595 -0.7882
  853MOL0     C15083   0.911   6.947   9.102 -0.2493  0.5985  0.1879
  853MOL0     C15084   0.815   6.878   9.115  0.3010  0.2681 -0.1808
  853MOL0     C15085   1.626   6.959   8.870  0.9024  0.0301 -0.3523
  853MOL0     C15086   1.752   6.941   8.817 -0.0665  1.3698 -0.8615
  853MOL0     C15087   1.861   7.016   8.885  0.0221  0.4451 -0.5286
  853MOL0     H15088   2.051   6.551   8.544  2.6265 -1.1183  1.8329
  853MOL0     H15089   2.284   6.531   8.464 -3.5804 -3.2096 -0.4502
  853MOL0     H15090   2.419   6.735   8.109 -2.6355 -3.1247  2.4508
  853MOL0     H15091   2.476   6.866   8.203 -1.0520  0.4133 -3.7481
  853MOL0     H15092   2.682   6.779   8.265  1.6904 -1.3779  0.7499
  853MOL0     H15093   2.665   6.731   8.099  2.1542 -0.0874  1.1977
  853MOL0     H15094   2.604   6.513   8.142  3.0098 -0.3793 -1.7181
  853MOL0     H15095   2.603   6.520   8.312 -1.1674  1.0661 -0.3308
  853MOL0     H15096   2.838   6.552   8.125 -4.0014  1.0274 -1.4094
  853MOL0     H15097   2.851   6.602   8.302 -0.4826  0.7401  1.3043
  853MOL0     H15098   2.837   6.377   8.369 -0.2168  0.0517 -0.7096
  853MOL0     H15099   2.784   6.322   8.204  0.5427 -0.7000 -0.8688
  853MOL0     H15100   3.013   6.250   8.252  0.3310 -0.0489 -0.1960
  853MOL0     H15101   2.979   6.341   8.103 -0.0528  0.3551 -0.4550
  853MOL0     H15102   3.074   6.545   8.201  0.0512  0.0111  0.3214
  853MOL0     H15103   3.188   6.414   8.170  2.6236  0.0378  1.3628
  853MOL0     H15104   3.081   6.472   8.444 -1.3831 -2.4998 -0.7796
  853MOL0     H15105   3.181   6.334   8.406 -2.6843 -0.4252 -0.3565
  853MOL0     H15106   3.220   6.728   8.401  1.0305  1.2271  3.2795
  853MOL0     H15107   3.419   6.870   8.436 -1.4967  0.4028  1.3756
  853MOL0     H15108   3.426   6.820   8.605  2.6915  2.4890  0.2511
  853MOL0     H15109   3.675   6.766   8.567  2.1525  1.3623 -0.8168
  853MOL0     H15110   3.640   6.753   8.395  2.9133 -0.8029  0.1378
  853MOL0     H15111   3.637   7.012   8.530  0.2281 -1.7932  1.5370
  853MOL0     H15112   3.621   6.970   8.354 -2.2719 -0.8943  0.1405
  853MOL0     H15113   3.829   7.069   8.392 -2.2816 -0.0697 -2.5245
  853MOL0     H15114   3.847   6.916   8.328 -0.1301 -0.3407 -0.0407
  853MOL0     H15115   4.076   6.893   8.721 -0.5410 -0.6011 -1.5520
  853MOL0     H15116   4.315   6.902   8.699 -2.2572 -1.7862 -0.6402
  853MOL0     H15117   4.680   6.839   8.759  0.0103 -0.4571 -0.1545
  853MOL0     H15118   4.910   6.783   8.723 -1.1118 -0.3176 -1.6138
  853MOL0     H15119   5.164   7.003   8.413 -0.1608  0.8548  1.1138
  853MOL0     H15120   5.147   7.109   8.555  0.2502  0.4329  1.0161
  853MOL0     H15121   5.378   7.065   8.486  1.4466 -0.5681  0.8075
  853MOL0     H15122   5.339   7.033   8.656  1.9440  2.4213  0.1230
  853MOL0     H15123   5.346   6.790   8.633 -0.4816 -0.8150 -0.5760
  853MOL0     H15124   5.325   6.802   8.458  2.8742 -1.5660 -1.0986
  853MOL0     H15125   5.564   6.919   8.475 -5.0846  1.6139 -0.1032
  853MOL0     H15126   5.554   6.738   8.498 -2.9780  0.4550 -1.7039
  853MOL0     H15127   5.549   6.807   8.754 -1.0730  3.0685  1.3277
  853MOL0     H15128   5.613   6.957   8.706  0.3935  0.8232 -2.1211
  853MOL0     H15129   5.768   6.761   8.790  0.8558 -2.1687 -0.3807
  853MOL0     H15130   5.750   6.691   8.633 -1.6428 -1.5096  1.9108
  853MOL0     H15131   5.902   6.949   8.711 -0.2444 -1.0451  0.9746
  853MOL0     H15132   5.822   6.957   8.554  0.8040  0.5953 -0.2117
  853MOL0     H15133   5.945   6.762   8.476  0.6573 -0.8452 -0.7744
  853MOL0     H15134   6.058   6.872   8.541  1.1268 -2.2606 -1.3786
  853MOL0     H15135   4.935   7.114   8.444 -1.8948  2.2309  0.7323
  853MOL0     H15136   4.698   7.154   8.472  2.7608  0.0510 -2.8757
  853MOL0     H15137   4.259   7.110   8.319 -1.5467 -0.3038 -1.6507
  853MOL0     H15138   4.020   7.079   8.335 -0.1393 -2.7270 -1.4814
  853MOL0     H15139   2.270   6.919   8.286  2.2161 -0.1545  1.5372
  853MOL0     H15140   2.042   6.953   8.368 -0.2351  1.8028  1.0649
  853MOL0     H15141   1.659   6.725   8.577 -1.4015 -0.9652  0.4551
  853MOL0     H15142   1.424   6.789   8.651  0.0908  2.9581 -0.7786
  853MOL0     H15143   1.319   6.714   8.878 -2.1751 -1.2331  1.0263
  853MOL0     H15144   1.235   6.836   8.775 -0.1430  1.0721  0.5226
  853MOL0     H15145   1.217   6.804   9.077  2.1060  0.3437  0.4165
  853MOL0     H15146   1.107   6.751   8.953 -0.0055  1.0466 -1.6760
  853MOL0     H15147   1.073   6.994   8.874 -1.3207 -1.6584  0.4293
  853MOL0     H15148   1.210   7.046   8.967  0.7352 -1.0554 -1.4448
  853MOL0     H15149   1.100   7.025   9.168 -1.5047 -3.7109  0.7994
  853MOL0     H15150   1.003   7.127   9.054  0.2380 -0.2105 -0.1329
  853MOL0     H15151   0.728   6.817   9.134 -1.2059  2.4127  0.1741
  853MOL0     H15152   1.599   7.023   8.954  0.0485  0.5346 -0.9906
  853MOL0     H15153   1.922   7.071   8.813 -0.6096  1.8784 -0.0010
  853MOL0     H15154   1.821   7.092   8.953 -4.2757 -0.8442 -1.2920
  853MOL0     H15155   1.929   6.953   8.943  0.5880  0.4878 -1.1340
  854MOL0     O15156   8.050   2.398  10.815 -0.0253  0.0037  0.0399
  854MOL0     C15157   8.056   2.283  10.788  0.2300  0.1946  0.2854
  854MOL0     O15158   8.148   2.198  10.837  0.1192 -0.5034 -0.0523
  854MOL0     C15159   8.277   2.251  10.843 -0.0536 -0.5048 -0.6309
  854MOL0     C15160   8.311   2.350  10.934  0.1925 -0.6347  0.7417
  854MOL0     C15161   8.451   2.391  10.943 -1.1465 -0.0468  0.8318
  854MOL0     C15162   8.554   2.324  10.864 -0.4646 -0.1506  0.4362
  854MOL0     O15163   8.684   2.362  10.879  0.0637 -0.5481  0.4054
  854MOL0     C15164   8.724   2.476  10.811 -0.6242  0.6585  0.3883
  854MOL0     C15165   8.795   2.565  10.913 -0.3911  0.2860  0.0526
  854MOL0     C15166   8.941   2.516  10.951 -0.1809 -0.1613  0.0078
  854MOL0     C15167   9.036   2.530  10.828 -1.0103 -0.4612  0.1099
  854MOL0     C15168   9.172   2.452  10.856 -0.0012  0.2076  0.3289
  854MOL0     C15169   9.291   2.505  10.780  0.0474  0.1796  0.2583
  854MOL0     C15170   9.333   2.650  10.825 -0.1439  0.5697  0.6072
  854MOL0     C15171   9.447   2.701  10.741 -0.1878 -0.6381  0.4176
  854MOL0     N15172   9.493   2.837  10.782  0.2358 -0.0611 -0.3968
  854MOL0     C15173   9.417   2.950  10.769  0.0426 -0.6301  0.5633
  854MOL0     C15174   9.496   3.051  10.823 -0.1053 -0.3969  0.1079
  854MOL0     C15175   9.456   3.204  10.829  0.2302  0.9131  0.2965
  854MOL0     C15176   9.503   3.288  10.709 -0.5165 -0.2403 -0.3258
  854MOL0     C15177   9.620   3.379  10.734  0.9705 -0.5621 -0.1985
  854MOL0     C15178   9.654   3.458  10.600  0.5012 -1.1789 -0.2759
  854MOL0     O15179   9.760   3.554  10.623 -0.5946 -0.4673 -0.3029
  854MOL0     C15180   9.872   3.570  10.535 -0.1946 -0.1081 -1.1579
  854MOL0     C15181   9.965   3.656  10.594  0.6095  0.4855  0.0650
  854MOL0     C15182  10.089   3.675  10.547 -0.2014  0.1167  0.0233
  854MOL0     C15183  10.138   3.604  10.434  0.9774  0.5227 -0.4356
  854MOL0     C15184  10.282   3.615  10.393 -0.0552  1.1371  0.0360
  854MOL0     O15185  10.351   3.730  10.421 -0.2891  0.1135  0.5370
  854MOL0     C15186  10.481   3.756  10.390  0.4789  0.3074 -0.1644
  854MOL0     C15187  10.526   3.732  10.260  0.0568 -0.3898  0.4892
  854MOL0     C15188  10.658   3.753  10.229 -0.4663 -0.0244  0.1509
  854MOL0     C15189  10.740   3.816  10.327 -0.5728  0.0445  0.4199
  854MOL0     O15190  10.865   3.858  10.298 -0.3833 -0.1293 -0.4669
  854MOL0     C15191  10.923   3.835  10.171 -0.4151 -0.2065  0.2517
  854MOL0     C15192  11.065   3.900  10.172  1.2347  0.3033 -0.0500
  854MOL0     C15193  11.128   3.894  10.030  0.5966  1.0942  0.2884
  854MOL0     C15194  11.269   3.948  10.031  0.9559 -0.1483 -0.7789
  854MOL0     C15195  11.371   3.869  10.122  0.5304  0.8945  0.5999
  854MOL0     C15196  11.511   3.905  10.117 -0.8603 -0.6982  0.4315
  854MOL0     C15197  11.526   4.033  10.204  0.2171 -0.4279 -0.0148
  854MOL0     C15198  11.670   4.091  10.196  0.1613  0.0788 -0.0292
  854MOL0    Cl15199  11.685   4.175  10.039  0.1939 -0.6309 -0.1033
  854MOL0     C15200  10.696   3.826  10.454  0.7679 -0.3145 -0.0811
  854MOL0     C15201  10.565   3.803  10.489  0.2814  0.2396 -0.5457
  854MOL0     O15202  10.325   3.517  10.336 -0.4015 -0.6048 -0.0233
  854MOL0     C15203  10.044   3.510  10.375 -0.0975  0.1442 -0.1985
  854MOL0     C15204   9.913   3.493  10.426 -0.6210  0.1509  0.0953
  854MOL0     N15205   9.607   2.989  10.868  0.3438 -0.0500 -0.4511
  854MOL0     N15206   9.603   2.868  10.844  0.4491  0.2021  0.1542
  854MOL0     C15207   8.514   2.225  10.764 -0.2102  0.3297  0.2030
  854MOL0     C15208   8.375   2.194  10.760 -0.0282 -0.0127 -0.1939
  854MOL0     C15209   7.954   2.222  10.692  0.3404  0.6238 -0.2881
  854MOL0     C15210   7.965   2.084  10.663  0.4293  0.7894 -0.7423
  854MOL0     C15211   7.883   2.018  10.575  0.3157  0.6115  0.0635
  854MOL0     C15212   7.776   2.079  10.522  0.5492  0.2483  0.0522
  854MOL0     O15213   7.696   1.997  10.440  0.0761 -0.1827 -1.0988
  854MOL0     C15214   7.568   2.043  10.389  0.5058  0.2468 -0.6599
  854MOL0     C15215   7.517   1.934  10.285  0.4209 -0.1027  0.3060
  854MOL0     C15216   7.629   1.874  10.190 -0.6295  0.3645  0.0439
  854MOL0     C15217   7.669   1.965  10.078  0.3813 -0.6024 -0.4462
  854MOL0     C15218   7.571   1.968   9.970 -0.1192 -0.6175  0.3772
  854MOL0     C15219   7.496   1.979   9.882  0.0828  0.0116 -0.0677
  854MOL0     C15220   7.756   2.213  10.550  0.3944 -0.2479  0.1509
  854MOL0     C15221   7.845   2.286  10.633  0.3790 -0.3729  0.0923
  854MOL0     C15222   7.794   2.426  10.667 -0.0421  0.0062  0.3041
  854MOL0     H15223   8.239   2.395  11.001  0.8022 -0.0803  1.0346
  854MOL0     H15224   8.478   2.456  11.026  1.7381 -1.3706  1.0361
  854MOL0     H15225   8.789   2.455  10.726  0.9506  1.7221  1.2951
  854MOL0     H15226   8.636   2.525  10.768 -0.7052 -0.9693 -1.4335
  854MOL0     H15227   8.730   2.578  10.999 -1.1716  1.5693 -0.6968
  854MOL0     H15228   8.803   2.670  10.880  0.4835 -0.3291 -1.8366
  854MOL0     H15229   8.944   2.410  10.976  0.3133  0.4593  2.9165
  854MOL0     H15230   8.976   2.579  11.033 -1.3713 -1.6937  1.7978
  854MOL0     H15231   8.991   2.508  10.731 -3.6480 -0.5241  1.2530
  854MOL0     H15232   9.054   2.638  10.833 -0.3645 -0.5821  0.4372
  854MOL0     H15233   9.191   2.447  10.964  0.4279  1.4402  0.3230
  854MOL0     H15234   9.158   2.349  10.822 -0.5422  0.1477  0.7084
  854MOL0     H15235   9.376   2.437  10.787  0.2993  0.4899  0.2400
  854MOL0     H15236   9.255   2.513  10.677 -2.5744  1.6064  1.1722
  854MOL0     H15237   9.353   2.654  10.932  1.5117  1.0538  0.3061
  854MOL0     H15238   9.250   2.721  10.812 -1.5895 -1.0636  0.5198
  854MOL0     H15239   9.528   2.627  10.733 -1.6910 -2.1647 -2.4007
  854MOL0     H15240   9.415   2.705  10.636 -0.1582 -2.1389  0.3282
  854MOL0     H15241   9.324   2.958  10.714 -0.1692  0.1169  1.0175
  854MOL0     H15242   9.348   3.213  10.838  0.0185 -2.5076  5.2803
  854MOL0     H15243   9.507   3.245  10.917  1.2313  3.9348 -1.5465
  854MOL0     H15244   9.546   3.216  10.639  1.8906  1.9068 -1.2343
  854MOL0     H15245   9.419   3.341  10.664  0.3659 -0.2040 -2.0327
  854MOL0     H15246   9.705   3.320  10.769  1.4322  0.3684  0.3139
  854MOL0     H15247   9.586   3.447  10.813 -0.6217 -1.7034  0.1344
  854MOL0     H15248   9.558   3.503  10.576  0.1585 -0.8229  1.5983
  854MOL0     H15249   9.679   3.386  10.522  1.9283 -0.9161 -0.0958
  854MOL0     H15250   9.926   3.706  10.682 -0.4032 -0.8573  0.4261
  854MOL0     H15251  10.153   3.737  10.610 -1.0575 -2.8311  4.2237
  854MOL0     H15252  10.463   3.690  10.182  0.7289 -2.4917  1.0032
  854MOL0     H15253  10.697   3.718  10.134  1.6633 -0.2408  1.0470
  854MOL0     H15254  10.922   3.727  10.152 -2.2417 -0.9155  3.5858
  854MOL0     H15255  10.860   3.890  10.102  1.8713  2.6585  0.2274
  854MOL0     H15256  11.060   4.001  10.214  1.5250  0.2363  0.1396
  854MOL0     H15257  11.127   3.829  10.226  0.3543 -2.6877 -2.6283
  854MOL0     H15258  11.124   3.789  10.000  2.5188  1.3654 -1.1186
  854MOL0     H15259  11.061   3.945   9.960 -1.6551  0.1477  1.6317
  854MOL0     H15260  11.268   4.056  10.049 -1.5147 -0.2054 -0.1985
  854MOL0     H15261  11.315   3.924   9.934  2.7150  1.7976 -0.4891
  854MOL0     H15262  11.360   3.771  10.074 -0.0593  1.7545 -1.0970
  854MOL0     H15263  11.342   3.865  10.228  1.5934  3.7075  1.0710
  854MOL0     H15264  11.562   3.821  10.164  2.2898  0.2767 -0.9659
  854MOL0     H15265  11.552   3.925  10.017  2.1354  0.4390  1.7996
  854MOL0     H15266  11.517   4.016  10.312  3.0181  1.5724  0.6646
  854MOL0     H15267  11.445   4.101  10.177 -0.2655 -1.1051 -0.2926
  854MOL0     H15268  11.677   4.165  10.277 -2.3312  1.4081 -0.9159
  854MOL0     H15269  11.750   4.018  10.207  1.5266  1.6736  1.2889
  854MOL0     H15270  10.768   3.853  10.530  0.2212  1.2656 -0.0809
  854MOL0     H15271  10.537   3.802  10.594 -3.5962 -4.7088 -1.2223
  854MOL0     H15272  10.081   3.451  10.291  0.3065 -0.2904  0.2794
  854MOL0     H15273   9.853   3.415  10.380 -2.0485  1.0661  0.3344
  854MOL0     H15274   8.594   2.179  10.707  0.5875 -1.6218  2.6709
  854MOL0     H15275   8.335   2.132  10.681 -0.5113  1.2277 -0.9521
  854MOL0     H15276   8.048   2.029  10.706 -0.3653 -0.6129 -0.9629
  854MOL0     H15277   7.920   1.921  10.543 -2.7996 -1.4038  1.9998
  854MOL0     H15278   7.582   2.138  10.336 -3.4909  1.6949  0.4948
  854MOL0     H15279   7.492   2.063  10.465  0.0607  0.8792 -1.2569
  854MOL0     H15280   7.438   1.968  10.217 -0.2491 -6.4412 -2.8069
  854MOL0     H15281   7.480   1.839  10.326 -1.5502 -0.1116 -1.3280
  854MOL0     H15282   7.599   1.779  10.144  2.2201  0.3321 -1.9760
  854MOL0     H15283   7.716   1.850  10.252  0.0866 -2.5037 -1.8808
  854MOL0     H15284   7.675   2.063  10.127 -0.3773 -0.8530  0.1600
  854MOL0     H15285   7.771   1.952  10.039 -0.2325 -1.8585 -1.7176
  854MOL0     H15286   7.432   1.964   9.798  0.9147 -2.1606 -0.3839
  854MOL0     H15287   7.665   2.260  10.515 -1.3736 -2.2915  1.6854
  854MOL0     H15288   7.802   2.438  10.775 -1.9142  0.5537  0.4192
  854MOL0     H15289   7.848   2.503  10.612  0.7063  0.1332  1.2131
  854MOL0     H15290   7.690   2.442  10.637  0.3988  0.6381 -0.9673
  855MOL0     O15291  10.896   8.455   6.735  0.7757  0.5372  0.1072
  855MOL0     C15292  10.977   8.377   6.794  0.5957 -0.2197  0.9917
  855MOL0     O15293  10.952   8.312   6.911 -0.1036 -0.2320 -0.1937
  855MOL0     C15294  10.850   8.353   6.987  0.3153  1.1378  0.5003
  855MOL0     C15295  10.870   8.374   7.121  0.2526  0.6929  0.4105
  855MOL0     C15296  10.767   8.408   7.211 -0.6840  0.0099  0.6705
  855MOL0     C15297  10.639   8.414   7.158  0.4127 -1.1265 -0.7428
  855MOL0     O15298  10.540   8.448   7.255 -0.7023 -0.5292 -0.6441
  855MOL0     C15299  10.400   8.441   7.229 -0.0356  0.3188 -0.8127
  855MOL0     C15300  10.342   8.581   7.199 -0.2858 -0.5365 -0.0023
  855MOL0     C15301  10.192   8.570   7.156  0.0836 -0.8583 -0.3944
  855MOL0     C15302  10.105   8.628   7.264  0.7920 -0.2565 -0.0222
  855MOL0     C15303   9.950   8.591   7.240  0.0913 -0.4072  0.7048
  855MOL0     C15304   9.865   8.637   7.349  0.0195  0.2479  0.5005
  855MOL0     C15305   9.876   8.795   7.338  0.2477 -1.3485 -0.3285
  855MOL0     C15306   9.756   8.870   7.395  0.5386 -0.0887 -1.0082
  855MOL0     N15307   9.637   8.881   7.322 -0.6792 -0.2875  0.5623
  855MOL0     C15308   9.564   8.778   7.276 -0.1052  0.1093  0.3270
  855MOL0     C15309   9.472   8.827   7.191 -1.6707  0.3259 -0.1557
  855MOL0     C15310   9.378   8.744   7.120 -0.6522  0.1720 -0.3750
  855MOL0     C15311   9.420   8.668   6.996 -0.3135 -0.3196 -0.2661
  855MOL0     C15312   9.518   8.551   7.006 -0.3794 -0.0275  0.4425
  855MOL0     C15313   9.524   8.460   6.897 -0.9105  0.4188  0.2386
  855MOL0     O15314   9.631   8.355   6.919  0.6124 -0.0970  0.9599
  855MOL0     C15315   9.763   8.376   6.894  0.2516 -0.0584 -0.9391
  855MOL0     C15316   9.818   8.497   6.857  0.1812 -0.2531  0.0546
  855MOL0     C15317   9.948   8.523   6.827  0.0353  0.3125  0.0530
  855MOL0     C15318  10.037   8.415   6.844  0.3276  0.3788  0.0122
  855MOL0     C15319  10.187   8.431   6.813  0.1608  0.1695 -1.1362
  855MOL0     O15320  10.226   8.558   6.774  0.6149  0.0414 -0.7744
  855MOL0     C15321  10.336   8.585   6.704 -0.6490 -0.5350 -0.0683
  855MOL0     C15322  10.333   8.709   6.637 -0.2019 -0.2765  0.6782
  855MOL0     C15323  10.441   8.764   6.559 -0.2190 -0.5065  0.3915
  855MOL0     C15324  10.562   8.691   6.552 -0.0773  1.0292  0.0107
  855MOL0     O15325  10.669   8.748   6.481 -0.1613  0.2080 -0.4382
  855MOL0     C15326  10.792   8.676   6.492 -0.2233  0.4456  0.1169
  855MOL0     C15327  10.908   8.768   6.435  0.2083  1.0469 -0.2861
  855MOL0     C15328  11.037   8.715   6.470  0.7088  0.0268  0.4828
  855MOL0     C15329  11.151   8.799   6.408  0.0062 -0.8733 -0.4432
  855MOL0     C15330  11.291   8.735   6.422  0.3015 -0.4099  0.4660
  855MOL0     C15331  11.406   8.820   6.363  1.0050  0.2093  0.2610
  855MOL0     C15332  11.542   8.788   6.423 -0.1003 -0.4037 -0.2705
  855MOL0     C15333  11.583   8.639   6.402 -0.2329 -0.4085 -0.4517
  855MOL0    Cl15334  11.750   8.619   6.462  0.0680  0.3135 -0.0378
  855MOL0     C15335  10.566   8.562   6.614  0.1388  0.2431 -0.7060
  855MOL0     C15336  10.456   8.510   6.689 -0.2598  0.1306 -0.0210
  855MOL0     O15337  10.253   8.328   6.801 -0.8482 -0.8567  0.0658
  855MOL0     C15338   9.988   8.287   6.880  0.1477  0.0280 -0.0572
  855MOL0     C15339   9.852   8.272   6.908 -0.3611  0.2340  0.8712
  855MOL0     N15340   9.501   8.964   7.174 -0.0806  0.0582  0.0335
  855MOL0     N15341   9.604   8.993   7.255 -0.3796  0.3440 -0.3105
  855MOL0     C15342  10.617   8.376   7.026 -0.2043  0.8218 -0.3851
  855MOL0     C15343  10.718   8.339   6.944 -0.0840  0.7964 -0.1940
  855MOL0     C15344  11.113   8.370   6.744 -0.5040 -1.5623  0.4744
  855MOL0     C15345  11.217   8.415   6.822  0.5352  0.0274 -0.3414
  855MOL0     C15346  11.349   8.401   6.772  0.2359  0.1306  1.1291
  855MOL0     C15347  11.383   8.343   6.652  1.1139  0.5805 -0.1061
  855MOL0     O15348  11.511   8.307   6.610  0.2975  0.3880 -0.6460
  855MOL0     C15349  11.611   8.355   6.706 -0.0366 -0.3081 -0.0680
  855MOL0     C15350  11.747   8.312   6.652 -0.0756 -0.7487 -1.1394
  855MOL0     C15351  11.873   8.378   6.720  0.2333  0.7176 -0.0283
  855MOL0     C15352  11.881   8.394   6.867  0.0073 -0.4317 -0.5704
  855MOL0     C15353  12.018   8.421   6.915  0.3756  0.0332  0.8578
  855MOL0     C15354  12.133   8.436   6.950  0.1963  0.1691 -0.6202
  855MOL0     C15355  11.278   8.299   6.581  0.8832 -0.6327  0.4404
  855MOL0     C15356  11.143   8.304   6.623  0.2895  0.5104  0.3123
  855MOL0     C15357  11.032   8.256   6.531 -0.1642  0.5319 -0.1452
  855MOL0     H15358  10.973   8.359   7.152  1.5934  2.1583 -2.8216
  855MOL0     H15359  10.778   8.447   7.312  0.5682 -1.5875  1.1760
  855MOL0     H15360  10.376   8.387   7.137  0.2565  0.7253 -1.1280
  855MOL0     H15361  10.356   8.406   7.323  1.2980 -2.4888 -1.1168
  855MOL0     H15362  10.412   8.618   7.124  4.2559 -4.6286  1.6784
  855MOL0     H15363  10.355   8.643   7.288 -2.7087 -0.9968  0.7484
  855MOL0     H15364  10.165   8.464   7.148 -3.2693 -0.0640 -1.5603
  855MOL0     H15365  10.168   8.611   7.058  1.8705 -0.8411 -0.8488
  855MOL0     H15366  10.133   8.597   7.365 -1.1223  1.1235  0.9909
  855MOL0     H15367  10.127   8.735   7.261 -1.2542  0.3127  2.1892
  855MOL0     H15368   9.912   8.626   7.143 -2.7494  2.1615  2.5525
  855MOL0     H15369   9.950   8.482   7.229  0.1732 -0.4547  1.1639
  855MOL0     H15370   9.763   8.610   7.319 -0.7277  1.9710  1.3715
  855MOL0     H15371   9.902   8.593   7.443 -0.8506 -0.3652  0.5716
  855MOL0     H15372   9.883   8.838   7.238  2.0390  1.3581  0.8324
  855MOL0     H15373   9.953   8.833   7.406 -1.4557  1.6871  0.1137
  855MOL0     H15374   9.725   8.806   7.478  0.4372 -1.8811 -2.3523
  855MOL0     H15375   9.775   8.970   7.433  0.0157  0.8029 -2.9685
  855MOL0     H15376   9.573   8.673   7.303  1.7069  0.7988  2.6738
  855MOL0     H15377   9.330   8.674   7.188  1.2973  2.1197  3.2804
  855MOL0     H15378   9.311   8.826   7.091 -0.6019  1.1078  1.9276
  855MOL0     H15379   9.328   8.632   6.950 -1.8983 -1.1127  3.1552
  855MOL0     H15380   9.464   8.751   6.940 -1.8587  0.0064 -1.0492
  855MOL0     H15381   9.486   8.512   7.103  0.0969  0.7354  0.9195
  855MOL0     H15382   9.617   8.594   7.025 -1.2372  1.8330  0.9546
  855MOL0     H15383   9.548   8.518   6.807 -0.9754 -1.2226 -0.8943
  855MOL0     H15384   9.425   8.414   6.883 -3.0254  4.3116  0.8854
  855MOL0     H15385   9.765   8.591   6.843  1.4906  0.5930  0.5930
  855MOL0     H15386   9.985   8.620   6.794  3.2957  0.4852  3.5854
  855MOL0     H15387  10.255   8.784   6.638 -0.6083 -0.6340 -0.8826
  855MOL0     H15388  10.440   8.866   6.522  0.4952 -0.3511  0.7877
  855MOL0     H15389  10.814   8.648   6.596 -0.1053  0.0810 -0.0067
  855MOL0     H15390  10.783   8.584   6.433  1.5817 -0.2557  0.8519
  855MOL0     H15391  10.895   8.782   6.327 -2.2632  0.2639 -0.1655
  855MOL0     H15392  10.900   8.870   6.473 -1.1114  0.1847  1.8903
  855MOL0     H15393  11.046   8.718   6.579 -1.5930  2.0600  0.7105
  855MOL0     H15394  11.042   8.610   6.439 -2.5734 -0.1844  0.3288
  855MOL0     H15395  11.147   8.893   6.466 -1.2171 -2.2592  1.8708
  855MOL0     H15396  11.135   8.821   6.302 -0.5839 -1.7370 -0.5440
  855MOL0     H15397  11.286   8.640   6.367 -0.4320 -0.2457  0.2497
  855MOL0     H15398  11.296   8.708   6.528 -2.5593  1.6932  1.2387
  855MOL0     H15399  11.404   8.803   6.255  2.8104  0.0631  0.2195
  855MOL0     H15400  11.385   8.925   6.384  1.6321  0.1244  1.3814
  855MOL0     H15401  11.547   8.807   6.531 -0.1740  1.4386 -0.5503
  855MOL0     H15402  11.615   8.853   6.374  1.4087 -1.1971  0.8302
  855MOL0     H15403  11.519   8.569   6.456  1.9500 -3.5088 -1.5901
  855MOL0     H15404  11.588   8.619   6.294  0.7693  1.0586 -0.7034
  855MOL0     H15405  10.654   8.499   6.630 -0.0249  0.1428 -0.1826
  855MOL0     H15406  10.482   8.411   6.724  1.5981  0.0864 -1.3850
  855MOL0     H15407  10.058   8.204   6.879 -2.2933 -2.2897  2.7029
  855MOL0     H15408   9.803   8.176   6.922  0.7797 -0.7267 -1.3292
  855MOL0     H15409  10.518   8.378   6.981  0.3813 -2.4766 -2.2083
  855MOL0     H15410  10.702   8.305   6.842 -0.5620 -0.0406  0.1476
  855MOL0     H15411  11.197   8.471   6.913  0.3163 -2.4218  1.1861
  855MOL0     H15412  11.428   8.426   6.843  2.8579 -1.6710 -0.9264
  855MOL0     H15413  11.586   8.307   6.801 -3.4413  3.8198  1.4284
  855MOL0     H15414  11.604   8.464   6.714 -1.5916 -0.3534 -0.5109
  855MOL0     H15415  11.746   8.316   6.543 -0.5891 -0.1776 -1.1242
  855MOL0     H15416  11.750   8.206   6.677  2.4875 -1.0375 -2.4041
  855MOL0     H15417  11.883   8.480   6.683  0.4152  0.8001  0.2476
  855MOL0     H15418  11.962   8.318   6.697 -0.5360 -0.6978  0.5493
  855MOL0     H15419  11.834   8.488   6.899 -0.2297 -1.1895  1.4647
  855MOL0     H15420  11.831   8.304   6.904 -1.1579  0.3637 -0.1300
  855MOL0     H15421  12.234   8.438   6.985 -0.2623 -3.9440  1.5111
  855MOL0     H15422  11.299   8.253   6.485  1.1316  1.1951 -0.4396
  855MOL0     H15423  11.014   8.149   6.547  1.2516 -0.2696 -3.1789
  855MOL0     H15424  10.943   8.319   6.539 -0.5301 -0.1576  2.0316
  855MOL0     H15425  11.082   8.256   6.434  1.4244  1.2122  0.6408
  856MOL0     O15426   9.077   4.818   1.343  0.3643 -0.6022 -0.3849
  856MOL0     C15427   8.978   4.888   1.351 -0.9665  0.5657  0.2452
  856MOL0     O15428   8.934   4.974   1.256 -1.0691 -0.8184  0.8138
  856MOL0     C15429   8.996   4.962   1.135 -0.1031 -0.4915 -0.1646
  856MOL0     C15430   9.110   5.043   1.105 -0.1731  0.1284  0.3904
  856MOL0     C15431   9.174   5.033   0.985  0.1733 -0.3885 -0.4774
  856MOL0     C15432   9.134   4.957   0.878  0.8260  0.1626  0.4136
  856MOL0     O15433   9.207   4.931   0.768  0.4523  0.3517 -0.0676
  856MOL0     C15434   9.165   4.850   0.657  0.5554 -0.1199  0.6835
  856MOL0     C15435   9.258   4.861   0.536 -0.2349 -0.0783  0.5599
  856MOL0     C15436   9.363   4.749   0.520 -0.3399  0.1450 -0.1233
  856MOL0     C15437   9.458   4.760   0.406 -0.8930 -0.4882  0.9700
  856MOL0     C15438   9.564   4.872   0.393  0.1056 -0.2995  0.0274
  856MOL0     C15439   9.695   4.845   0.470 -0.4327  0.4644  0.0282
  856MOL0     C15440   9.694   4.864   0.621  0.1750 -0.0963  0.1134
  856MOL0     C15441   9.645   5.001   0.671 -0.3923  0.6876 -0.6571
  856MOL0     N15442   9.678   5.016   0.807  0.3918  0.3742 -0.0525
  856MOL0     C15443   9.578   4.998   0.902 -0.6374 -0.3303  1.4228
  856MOL0     C15444   9.648   5.009   1.022  0.1788 -0.7035 -0.5047
  856MOL0     C15445   9.594   5.021   1.166  0.3781  0.1221 -0.1785
  856MOL0     C15446   9.526   5.155   1.187 -0.1206  0.0442 -0.0976
  856MOL0     C15447   9.456   5.183   1.321  0.6393 -0.3421  0.1404
  856MOL0     C15448   9.415   5.060   1.409  0.6667 -0.0864  0.8197
  856MOL0     O15449   9.328   5.109   1.517  0.5345 -0.1172  0.0438
  856MOL0     C15450   9.266   5.008   1.595 -0.4406 -0.1770 -0.0922
  856MOL0     C15451   9.278   4.866   1.589 -0.8837  0.4720 -0.3409
  856MOL0     C15452   9.210   4.777   1.674 -0.0156 -0.2079 -0.0413
  856MOL0     C15453   9.130   4.831   1.771 -0.5212  0.3555  0.6555
  856MOL0     C15454   9.063   4.735   1.859 -0.7867 -0.6964  0.1442
  856MOL0     O15455   9.000   4.621   1.802 -0.6732 -0.3864  0.0878
  856MOL0     C15456   8.924   4.541   1.877 -0.3335 -0.1070  0.3411
  856MOL0     C15457   8.831   4.585   1.967  0.7060 -0.1943  0.2905
  856MOL0     C15458   8.741   4.492   2.019 -0.2102  0.6474  0.0515
  856MOL0     C15459   8.759   4.354   1.997  0.2881  0.8285 -0.5082
  856MOL0     O15460   8.673   4.256   2.058 -0.2442  0.0336  1.0860
  856MOL0     C15461   8.593   4.289   2.175  0.0174 -0.6125 -0.0539
  856MOL0     C15462   8.544   4.153   2.233  0.0716  0.9217 -0.4900
  856MOL0     C15463   8.432   4.091   2.141 -0.1040 -0.1213 -0.6911
  856MOL0     C15464   8.397   3.953   2.198 -0.3484 -0.6310 -0.7852
  856MOL0     C15465   8.304   3.872   2.115  0.5426 -0.0132 -0.4042
  856MOL0     C15466   8.207   3.768   2.188 -0.7656  0.6915  0.8516
  856MOL0     C15467   8.118   3.702   2.079  0.5044 -0.0819  0.6180
  856MOL0     C15468   8.006   3.623   2.151  0.1937 -1.1327  0.5457
  856MOL0    Cl15469   8.055   3.463   2.234 -0.0143 -0.2212  0.0566
  856MOL0     C15470   8.861   4.310   1.917 -0.5555  0.4453  0.1748
  856MOL0     C15471   8.939   4.402   1.845 -0.4586  0.2657  0.0467
  856MOL0     O15472   9.066   4.757   1.976  0.8230  1.0433  0.2692
  856MOL0     C15473   9.125   4.968   1.782  0.0319 -0.4825 -0.7151
  856MOL0     C15474   9.177   5.059   1.693 -0.4829 -0.3811 -0.0539
  856MOL0     N15475   9.786   5.005   0.992 -0.1644  0.1798 -0.1478
  856MOL0     N15476   9.800   5.030   0.863  0.1627 -0.1496 -0.3616
  856MOL0     C15477   9.009   4.890   0.903  0.3137  0.1015 -0.1342
  856MOL0     C15478   8.950   4.881   1.029 -0.8760 -0.2352 -0.0512
  856MOL0     C15479   8.893   4.875   1.471  0.1330 -0.5933  0.4669
  856MOL0     C15480   8.857   4.747   1.514  0.4275  0.0114  0.0275
  856MOL0     C15481   8.771   4.734   1.631  0.7471 -0.0196  0.2664
  856MOL0     C15482   8.715   4.842   1.694  0.0143 -0.1011  0.1809
  856MOL0     O15483   8.616   4.817   1.794  1.0122 -0.0673 -0.2997
  856MOL0     C15484   8.573   4.921   1.883  0.1404  0.3954 -0.5596
  856MOL0     C15485   8.528   4.880   2.020 -0.6882 -0.2271  0.5784
  856MOL0     C15486   8.393   4.807   2.012  0.1161  0.2427 -0.2586
  856MOL0     C15487   8.358   4.769   2.163 -0.2778  1.1280  0.9492
  856MOL0     C15488   8.372   4.878   2.259  0.0683 -0.4042 -0.4868
  856MOL0     C15489   8.408   4.955   2.338  0.3821 -0.2741 -0.1195
  856MOL0     C15490   8.736   4.970   1.633  0.6289  0.2490  0.4061
  856MOL0     C15491   8.824   4.992   1.525 -0.1018 -0.2583 -0.4202
  856MOL0     C15492   8.826   5.139   1.477 -0.4061 -0.2682  0.2930
  856MOL0     H15493   9.148   5.103   1.187  0.4824  1.0192 -0.5413
  856MOL0     H15494   9.263   5.094   0.977 -0.6204  0.8775 -0.0419
  856MOL0     H15495   9.139   4.747   0.683 -1.3008 -0.0336 -0.5722
  856MOL0     H15496   9.066   4.889   0.628  0.5377  0.9370  2.0861
  856MOL0     H15497   9.305   4.959   0.552 -0.6601  0.4697 -1.3332
  856MOL0     H15498   9.196   4.864   0.447  2.1472 -0.7043 -1.2262
  856MOL0     H15499   9.305   4.657   0.509 -0.9551  0.7175 -2.1985
  856MOL0     H15500   9.432   4.751   0.605  0.0708  2.1551 -0.4393
  856MOL0     H15501   9.509   4.664   0.411 -2.2878 -1.2872  0.2645
  856MOL0     H15502   9.400   4.756   0.313  0.1504  2.4540  0.0675
  856MOL0     H15503   9.605   4.875   0.292  1.9647  0.7460  0.7568
  856MOL0     H15504   9.518   4.969   0.414  1.3982  0.6008 -1.1148
  856MOL0     H15505   9.717   4.742   0.443  2.8333  1.6792 -2.7310
  856MOL0     H15506   9.781   4.905   0.437  0.5629 -0.6244  0.5753
  856MOL0     H15507   9.792   4.848   0.666 -0.3101  1.2591  1.7460
  856MOL0     H15508   9.633   4.789   0.672 -1.0993  2.2961  2.2981
  856MOL0     H15509   9.685   5.087   0.615  4.6369  0.4764  2.0500
  856MOL0     H15510   9.537   5.001   0.656 -0.5837 -1.7370  0.2865
  856MOL0     H15511   9.472   4.984   0.880 -0.5349 -1.8531  1.7963
  856MOL0     H15512   9.525   4.940   1.192 -0.3898  0.3495 -1.4218
  856MOL0     H15513   9.675   5.005   1.238  0.2631  1.8676  0.3959
  856MOL0     H15514   9.603   5.230   1.169  0.6572 -0.4353  1.1801
  856MOL0     H15515   9.463   5.171   1.098  2.2716 -0.4414 -1.9873
  856MOL0     H15516   9.364   5.238   1.300 -0.7200 -2.2482  0.8048
  856MOL0     H15517   9.522   5.242   1.385  2.8997 -2.2527 -0.2790
  856MOL0     H15518   9.501   4.998   1.436  1.7950  0.0335 -2.0906
  856MOL0     H15519   9.358   4.995   1.342  1.4933  0.0937 -0.0863
  856MOL0     H15520   9.338   4.814   1.515 -0.8709  0.5747 -0.4021
  856MOL0     H15521   9.209   4.669   1.665 -1.0652 -0.3258  1.2808
  856MOL0     H15522   8.822   4.693   1.978  2.8556  0.1924 -1.0385
  856MOL0     H15523   8.652   4.527   2.069  0.7614  2.2712  0.7319
  856MOL0     H15524   8.657   4.347   2.242 -0.7481  0.7726 -0.4805
  856MOL0     H15525   8.509   4.356   2.155  0.7408  0.6911  1.1549
  856MOL0     H15526   8.620   4.074   2.241 -0.8656  0.1393  1.2775
  856MOL0     H15527   8.508   4.173   2.335  2.8745 -0.0619  0.7951
  856MOL0     H15528   8.342   4.151   2.132  1.4581  2.9961  2.3818
  856MOL0     H15529   8.472   4.070   2.041 -0.5941 -0.5150 -0.8054
  856MOL0     H15530   8.352   3.963   2.297  1.7879 -0.0051  0.1718
  856MOL0     H15531   8.490   3.899   2.220 -1.1095 -0.9457  2.1139
  856MOL0     H15532   8.370   3.824   2.042 -0.0224  2.1596 -2.5045
  856MOL0     H15533   8.243   3.936   2.051 -0.8849 -0.6735  0.2456
  856MOL0     H15534   8.252   3.692   2.253 -2.2894  0.7687  2.0331
  856MOL0     H15535   8.145   3.836   2.247 -0.6245  1.5368  0.0499
  856MOL0     H15536   8.178   3.648   2.005  1.3846 -2.4129  2.8652
  856MOL0     H15537   8.063   3.775   2.019 -0.7399 -4.0460 -3.6611
  856MOL0     H15538   7.964   3.690   2.227  2.0335 -1.1696  1.6509
  856MOL0     H15539   7.931   3.605   2.074  0.7993  1.6963 -0.8394
  856MOL0     H15540   8.869   4.205   1.891  0.0503  0.9360 -1.8320
  856MOL0     H15541   9.019   4.373   1.778 -0.3663  1.6085 -0.4659
  856MOL0     H15542   9.067   5.009   1.865 -1.9191 -2.5602 -0.9505
  856MOL0     H15543   9.166   5.167   1.697 -2.1891 -0.4273 -1.8643
  856MOL0     H15544   8.964   4.834   0.822  0.6086  1.0798 -0.9988
  856MOL0     H15545   8.871   4.809   1.049  0.2177 -2.2093 -2.3469
  856MOL0     H15546   8.899   4.658   1.468  0.2311 -0.8606  1.4750
  856MOL0     H15547   8.740   4.633   1.658  0.6244 -0.6868 -2.1186
  856MOL0     H15548   8.491   4.973   1.835  0.4170 -0.0296 -1.5189
  856MOL0     H15549   8.662   4.984   1.887  0.1934  0.4088 -1.7011
  856MOL0     H15550   8.537   4.964   2.091  0.2045 -0.4866  0.7884
  856MOL0     H15551   8.595   4.808   2.067 -1.9345 -1.1102  1.0546
  856MOL0     H15552   8.391   4.714   1.955 -2.1360  0.9049 -1.3904
  856MOL0     H15553   8.320   4.876   1.969 -1.4244  0.0579  1.8664
  856MOL0     H15554   8.257   4.726   2.158  0.3131 -0.1784 -0.7575
  856MOL0     H15555   8.421   4.682   2.184 -2.5652 -0.6894  0.7062
  856MOL0     H15556   8.432   5.036   2.404 -0.6794 -0.6452  0.7697
  856MOL0     H15557   8.687   5.058   1.673  0.7235  0.7745 -0.5965
  856MOL0     H15558   8.913   5.146   1.410  0.7308  3.6327  1.8594
  856MOL0     H15559   8.736   5.133   1.415 -1.1797  0.1984  1.3619
  856MOL0     H15560   8.824   5.209   1.561 -3.8819 -3.1128  2.8619
  857MOL0     O15561   4.033   1.516   8.273  0.3401 -0.8053 -0.5866
  857MOL0     C15562   4.032   1.522   8.400  0.0567 -0.9769  0.5334
  857MOL0     O15563   4.140   1.525   8.481  0.1124  0.8304  0.3658
  857MOL0     C15564   4.269   1.523   8.429 -0.0495  0.0039  0.2704
  857MOL0     C15565   4.361   1.494   8.529  0.1221  0.1425 -0.4473
  857MOL0     C15566   4.494   1.454   8.487  0.3101 -0.1197 -0.5899
  857MOL0     C15567   4.541   1.470   8.357 -0.9044 -0.8682 -0.5474
  857MOL0     O15568   4.669   1.443   8.320  0.2160 -0.4823  0.4036
  857MOL0     C15569   4.762   1.433   8.428  0.1030  0.0978 -0.1314
  857MOL0     C15570   4.899   1.417   8.365  0.7971 -0.6180 -0.1501
  857MOL0     C15571   5.010   1.345   8.443  0.1169  0.0423 -0.5051
  857MOL0     C15572   5.076   1.434   8.545 -0.4852  0.0606  0.4667
  857MOL0     C15573   5.210   1.379   8.583  0.4029  0.2751 -0.8923
  857MOL0     C15574   5.201   1.268   8.691 -0.8879  0.1063  0.3901
  857MOL0     C15575   5.322   1.260   8.782  0.1826 -0.2608 -0.8026
  857MOL0     C15576   5.313   1.348   8.910  0.2206 -0.1547 -0.1430
  857MOL0     N15577   5.438   1.338   8.978  0.0398 -0.6140  0.5432
  857MOL0     C15578   5.463   1.298   9.106  0.2000 -0.1156 -0.0507
  857MOL0     C15579   5.592   1.316   9.123 -0.0332  0.2992 -0.6057
  857MOL0     C15580   5.675   1.297   9.248 -0.4192 -1.0052  0.3575
  857MOL0     C15581   5.662   1.416   9.341  0.2536 -0.1193 -0.8565
  857MOL0     C15582   5.744   1.402   9.471 -1.4355 -0.8126  0.1537
  857MOL0     C15583   5.877   1.466   9.446  0.4168  0.0783  1.0866
  857MOL0     O15584   5.962   1.439   9.551 -0.1085  0.1436 -0.0981
  857MOL0     C15585   6.094   1.491   9.560  0.1454 -0.1283 -0.1598
  857MOL0     C15586   6.179   1.453   9.663 -0.2825  0.0900 -0.1830
  857MOL0     C15587   6.311   1.503   9.672 -0.5947  0.5780  0.5285
  857MOL0     C15588   6.360   1.588   9.571 -0.0205  0.7080 -0.7329
  857MOL0     C15589   6.494   1.640   9.569 -0.2252  0.2966 -0.1145
  857MOL0     O15590   6.527   1.701   9.451  0.3791  0.1097  0.5770
  857MOL0     C15591   6.656   1.744   9.430  0.8849 -0.6632 -0.2578
  857MOL0     C15592   6.763   1.656   9.425 -0.1196 -0.6548 -0.3867
  857MOL0     C15593   6.894   1.711   9.421  0.0284  0.1943 -0.3596
  857MOL0     C15594   6.917   1.847   9.425 -0.3264  0.4306  0.0320
  857MOL0     O15595   7.046   1.895   9.436  0.0976  0.1569 -0.0556
  857MOL0     C15596   7.081   2.030   9.426 -0.0231 -0.3719  0.0235
  857MOL0     C15597   7.228   2.045   9.436 -0.8047 -0.7284 -0.6278
  857MOL0     C15598   7.282   2.181   9.414 -0.0670 -0.2041 -0.7328
  857MOL0     C15599   7.230   2.287   9.526  0.2089  0.3800 -0.8399
  857MOL0     C15600   7.276   2.422   9.486 -0.9233 -1.0282  0.3163
  857MOL0     C15601   7.413   2.468   9.539  0.0266 -0.0052 -0.7937
  857MOL0     C15602   7.522   2.394   9.473 -0.4264 -0.7570  0.2515
  857MOL0     C15603   7.648   2.484   9.471  0.3301  0.4957 -0.1171
  857MOL0    Cl15604   7.784   2.389   9.404  0.6320  0.1433  0.2396
  857MOL0     C15605   6.804   1.931   9.432 -0.0014 -0.7307  0.2388
  857MOL0     C15606   6.673   1.877   9.427  0.2141 -0.0010 -0.1764
  857MOL0     O15607   6.569   1.626   9.663 -0.4469 -0.4891  0.8377
  857MOL0     C15608   6.268   1.623   9.467  0.0203 -0.2622  0.0978
  857MOL0     C15609   6.140   1.581   9.465  0.8095 -0.1614 -0.5722
  857MOL0     N15610   5.643   1.364   9.011  0.0300 -0.6866  0.6503
  857MOL0     N15611   5.550   1.368   8.924  0.3863 -0.2651  0.6571
  857MOL0     C15612   4.457   1.517   8.262  0.3136 -0.1135 -0.0427
  857MOL0     C15613   4.323   1.547   8.294  0.4317  0.4759 -0.5316
  857MOL0     C15614   3.897   1.514   8.467  0.2003 -0.7241 -0.5612
  857MOL0     C15615   3.893   1.468   8.604 -0.6166 -0.3403  0.5000
  857MOL0     C15616   3.765   1.440   8.658 -0.7748 -0.7432  0.2558
  857MOL0     C15617   3.642   1.459   8.593 -0.3476  0.1386  0.3130
  857MOL0     O15618   3.520   1.443   8.647  0.2667 -0.1160  0.2307
  857MOL0     C15619   3.522   1.376   8.777  0.3333 -0.4049  0.1541
  857MOL0     C15620   3.380   1.346   8.817  0.1432 -0.2680 -0.0473
  857MOL0     C15621   3.283   1.295   8.715  0.2167 -0.2716 -0.0642
  857MOL0     C15622   3.162   1.392   8.694  0.5557 -0.4108  0.1441
  857MOL0     C15623   3.069   1.387   8.803  0.5572 -0.4666  0.1066
  857MOL0     C15624   2.984   1.379   8.894 -0.4400  0.0902  0.2731
  857MOL0     C15625   3.645   1.516   8.467  0.9621  1.2441 -0.1138
  857MOL0     C15626   3.772   1.534   8.404 -0.2450  0.6635  0.6837
  857MOL0     C15627   3.748   1.568   8.249 -0.0335 -0.0554  0.0597
  857MOL0     H15628   4.318   1.490   8.629 -0.6278  1.8350 -0.6569
  857MOL0     H15629   4.559   1.405   8.559 -0.9156 -0.8618  0.0495
  857MOL0     H15630   4.758   1.516   8.500 -1.3476 -0.4388  0.4417
  857MOL0     H15631   4.747   1.340   8.485 -5.5194  1.6791  1.6413
  857MOL0     H15632   4.935   1.519   8.346  1.0038 -0.9184 -1.4527
  857MOL0     H15633   4.895   1.368   8.268  0.6933  1.7071 -1.4075
  857MOL0     H15634   5.082   1.309   8.369 -0.3900  1.1631 -1.5666
  857MOL0     H15635   4.977   1.252   8.491 -1.4010  1.8894  2.3723
  857MOL0     H15636   5.086   1.532   8.498 -0.8563 -0.9801 -1.9203
  857MOL0     H15637   5.003   1.445   8.626 -4.1954 -1.1243 -2.3974
  857MOL0     H15638   5.267   1.343   8.498  1.4392 -2.7876  0.9509
  857MOL0     H15639   5.273   1.458   8.625  1.3719 -0.2111 -1.3989
  857MOL0     H15640   5.110   1.269   8.752  0.4879  0.6081  2.5494
  857MOL0     H15641   5.196   1.175   8.634 -1.8807  1.4495 -1.8690
  857MOL0     H15642   5.414   1.279   8.725  1.0504 -0.3103  0.5383
  857MOL0     H15643   5.325   1.154   8.810 -2.3888 -0.6929 -1.8593
  857MOL0     H15644   5.293   1.453   8.886 -1.0273  0.9864  4.7159
  857MOL0     H15645   5.225   1.322   8.970 -0.8059 -0.8039 -1.8698
  857MOL0     H15646   5.394   1.248   9.174  0.5394 -1.0765 -0.3848
  857MOL0     H15647   5.639   1.205   9.296  0.4418 -1.0251  0.9829
  857MOL0     H15648   5.779   1.289   9.217  0.1544  2.4874  0.9825
  857MOL0     H15649   5.684   1.510   9.291 -0.4260  0.2955 -0.3906
  857MOL0     H15650   5.559   1.415   9.379 -0.3092 -1.6354 -2.3316
  857MOL0     H15651   5.760   1.299   9.505 -2.7890 -0.0676  3.4924
  857MOL0     H15652   5.705   1.460   9.555  0.6113 -1.1136  1.3684
  857MOL0     H15653   5.860   1.571   9.422 -0.2386 -0.4868 -1.2175
  857MOL0     H15654   5.914   1.418   9.355  1.1765  1.3788  0.6755
  857MOL0     H15655   6.133   1.396   9.743  1.2837  1.6227  1.9475
  857MOL0     H15656   6.373   1.482   9.759  0.7547 -1.1865 -0.7827
  857MOL0     H15657   6.733   1.552   9.427 -3.1395  0.1033  1.7393
  857MOL0     H15658   6.982   1.647   9.424  0.9927  1.4870  1.1248
  857MOL0     H15659   7.049   2.074   9.330 -0.8789 -0.7729  0.1159
  857MOL0     H15660   7.035   2.089   9.506  0.8603  0.0543  0.2364
  857MOL0     H15661   7.261   2.024   9.539  0.0974  0.6810 -0.6029
  857MOL0     H15662   7.275   1.976   9.365 -0.0599  0.3222 -1.1883
  857MOL0     H15663   7.389   2.162   9.422 -0.3674 -1.5287  0.8776
  857MOL0     H15664   7.257   2.218   9.315  1.3441  1.5852 -0.4584
  857MOL0     H15665   7.279   2.257   9.619  3.3879  1.3400 -2.0611
  857MOL0     H15666   7.121   2.292   9.539  0.1674  1.5249 -1.4828
  857MOL0     H15667   7.200   2.490   9.525 -1.0290  0.0912 -1.7103
  857MOL0     H15668   7.280   2.420   9.376 -0.6042  0.1908  0.2946
  857MOL0     H15669   7.432   2.572   9.509  0.2543 -0.2497 -1.5237
  857MOL0     H15670   7.421   2.440   9.644  0.9050 -2.0957 -1.3720
  857MOL0     H15671   7.489   2.367   9.372 -0.5793 -0.8678  0.3300
  857MOL0     H15672   7.563   2.309   9.530  0.3558  0.7468  2.0493
  857MOL0     H15673   7.642   2.582   9.420  5.0499  0.4840 -1.1490
  857MOL0     H15674   7.675   2.510   9.574  0.8454  0.6726 -0.2921
  857MOL0     H15675   6.810   2.038   9.449 -3.4399  0.0148 -2.1908
  857MOL0     H15676   6.581   1.934   9.414  0.1152 -0.3558 -1.1580
  857MOL0     H15677   6.296   1.686   9.383  2.2053  0.8937  1.5917
  857MOL0     H15678   6.080   1.631   9.389 -2.2323  1.8045  2.8063
  857MOL0     H15679   4.504   1.521   8.164  3.4779 -0.5544  1.3309
  857MOL0     H15680   4.253   1.572   8.215  0.4832 -0.6986 -0.9732
  857MOL0     H15681   3.981   1.443   8.663 -1.4088  0.2946  2.0192
  857MOL0     H15682   3.764   1.399   8.759 -5.6806 -0.8419  0.4253
  857MOL0     H15683   3.578   1.423   8.859  1.0363  1.3010 -1.2458
  857MOL0     H15684   3.563   1.276   8.763 -1.3577 -1.1576  0.3702
  857MOL0     H15685   3.347   1.441   8.859 -2.0374 -0.4411 -1.1686
  857MOL0     H15686   3.370   1.264   8.889 -2.6701  1.5776  1.8615
  857MOL0     H15687   3.250   1.195   8.747  0.1413  0.5232  2.4973
  857MOL0     H15688   3.335   1.287   8.619  0.1917 -0.1161 -0.0910
  857MOL0     H15689   3.201   1.494   8.681  1.9148 -0.8744  0.4198
  857MOL0     H15690   3.108   1.352   8.608  0.2358 -0.6176  0.4372
  857MOL0     H15691   2.919   1.352   8.975 -1.9854  0.1835 -0.8779
  857MOL0     H15692   3.551   1.530   8.414 -0.0928 -1.9830  0.6746
  857MOL0     H15693   3.647   1.535   8.227  0.7319 -1.3529 -1.6508
  857MOL0     H15694   3.753   1.675   8.226  3.7399 -0.4480 -1.6573
  857MOL0     H15695   3.818   1.513   8.186  1.0535  0.5629  0.6853
  858MOL0     O15696   2.592   5.243   2.498 -0.1296  0.0136 -0.5669
  858MOL0     C15697   2.569   5.127   2.513  0.0307  0.1478 -0.1656
  858MOL0     O15698   2.657   5.031   2.504 -0.9752  0.0712  0.3331
  858MOL0     C15699   2.783   5.053   2.457  0.8813 -0.1471 -0.3695
  858MOL0     C15700   2.805   5.100   2.330  0.2226  0.0995  0.6163
  858MOL0     C15701   2.935   5.102   2.266 -1.1012  0.2591 -0.1443
  858MOL0     C15702   3.043   5.078   2.352 -0.1000 -0.2703 -0.6492
  858MOL0     O15703   3.175   5.074   2.322  0.3010 -0.3005  0.2517
  858MOL0     C15704   3.246   5.190   2.277 -0.3766  0.1831  0.1077
  858MOL0     C15705   3.387   5.215   2.336 -0.0919  0.1709 -0.1396
  858MOL0     C15706   3.428   5.360   2.318  0.8595  0.7554 -0.3876
  858MOL0     C15707   3.582   5.373   2.369  0.3133 -0.7377 -0.2132
  858MOL0     C15708   3.630   5.521   2.350 -0.1725  0.7445 -0.3450
  858MOL0     C15709   3.770   5.542   2.417 -0.5823 -0.4081  1.0845
  858MOL0     C15710   3.869   5.457   2.351 -0.7327 -0.2725  0.3085
  858MOL0     C15711   4.009   5.492   2.398  0.5702  0.9101 -0.0535
  858MOL0     N15712   4.105   5.445   2.305  0.4063 -0.2016  0.1858
  858MOL0     C15713   4.233   5.477   2.311  0.0705 -0.4643 -0.4058
  858MOL0     C15714   4.297   5.436   2.200 -0.2460 -0.3804 -0.1904
  858MOL0     C15715   4.445   5.447   2.164  0.0764  0.2935  0.1305
  858MOL0     C15716   4.505   5.584   2.230  0.9016 -0.2165 -0.1384
  858MOL0     C15717   4.652   5.595   2.186  0.1637  0.2262  0.1620
  858MOL0     C15718   4.727   5.716   2.248 -0.8629  0.1397  0.3960
  858MOL0     O15719   4.865   5.692   2.208 -0.7682 -0.0601 -0.4978
  858MOL0     C15720   4.928   5.755   2.104  0.1289 -1.0958 -0.1168
  858MOL0     C15721   4.871   5.850   2.019 -0.2523  0.6911  0.0274
  858MOL0     C15722   4.950   5.921   1.920  0.8259  0.2301 -0.5289
  858MOL0     C15723   5.086   5.890   1.906 -0.4305 -0.2490  0.9489
  858MOL0     C15724   5.155   5.951   1.792 -1.3158  0.1111  0.3499
  858MOL0     O15725   5.095   6.009   1.692 -0.9341 -0.4807  0.1687
  858MOL0     C15726   5.162   6.065   1.586  1.0007  1.0534  0.1824
  858MOL0     C15727   5.128   6.024   1.459 -0.4289 -0.1642  0.1437
  858MOL0     C15728   5.199   6.077   1.355 -0.4223 -0.1588  0.0975
  858MOL0     C15729   5.296   6.174   1.369  0.0829  0.3061 -0.0212
  858MOL0     O15730   5.367   6.224   1.265 -0.0109 -0.8887  0.3528
  858MOL0     C15731   5.392   6.130   1.155  0.1636 -0.9707 -0.4215
  858MOL0     C15732   5.486   6.192   1.050 -0.1474 -0.0035 -0.3842
  858MOL0     C15733   5.592   6.291   1.099  1.2003  0.0125 -0.2470
  858MOL0     C15734   5.706   6.209   1.161  0.1119 -0.6197 -0.2067
  858MOL0     C15735   5.803   6.307   1.225 -0.7054 -0.8213 -0.8459
  858MOL0     C15736   5.921   6.252   1.304 -0.5008  0.0715  0.0424
  858MOL0     C15737   6.024   6.361   1.353  0.0437  0.7633  0.2796
  858MOL0     C15738   6.109   6.321   1.470  0.4453  0.1502  0.7742
  858MOL0    Cl15739   6.037   6.231   1.593  0.3857 -0.0527  0.3269
  858MOL0     C15740   5.316   6.223   1.495  0.1121 -0.4941  0.0994
  858MOL0     C15741   5.256   6.160   1.601 -0.2246 -0.4339  0.3357
  858MOL0     O15742   5.276   5.927   1.794  0.0991 -0.2311  0.7435
  858MOL0     C15743   5.140   5.789   1.993 -0.2708 -0.0927  0.5428
  858MOL0     C15744   5.067   5.735   2.094  1.1610 -0.1164  0.9923
  858MOL0     N15745   4.203   5.373   2.113 -0.1358  0.7391 -0.2390
  858MOL0     N15746   4.088   5.381   2.185  0.9205  0.2222 -0.2474
  858MOL0     C15747   3.019   5.051   2.487  0.0813 -1.0229 -1.7206
  858MOL0     C15748   2.890   5.037   2.544 -0.4186 -0.2678 -0.5096
  858MOL0     C15749   2.435   5.096   2.564 -0.0840 -0.8863  0.2028
  858MOL0     C15750   2.421   4.975   2.627  0.5140  0.5995  0.5250
  858MOL0     C15751   2.291   4.929   2.659  0.4641  0.7257 -0.5347
  858MOL0     C15752   2.172   4.994   2.624 -1.1156 -0.4235  0.0046
  858MOL0     O15753   2.053   4.933   2.665 -0.3143 -0.4028  0.0422
  858MOL0     C15754   1.935   5.017   2.674 -0.3103 -0.1256  0.5568
  858MOL0     C15755   1.823   4.934   2.752  0.5581  0.3632 -0.1964
  858MOL0     C15756   1.674   4.967   2.721 -0.5566 -0.2256 -0.4730
  858MOL0     C15757   1.576   4.883   2.807 -0.1746  0.3036 -0.2856
  858MOL0     C15758   1.580   4.914   2.951  0.4172 -0.7886 -0.2179
  858MOL0     C15759   1.591   4.949   3.067  0.1925 -0.6850  0.1702
  858MOL0     C15760   2.186   5.119   2.558 -1.2399 -0.1729 -0.1838
  858MOL0     C15761   2.319   5.171   2.529 -0.0001  0.0714 -0.0390
  858MOL0     C15762   2.328   5.303   2.473  0.3586  0.7319  0.4785
  858MOL0     H15763   2.724   5.118   2.260  0.6599 -2.3342 -0.6458
  858MOL0     H15764   2.960   5.125   2.163  0.8593 -2.4406 -0.3795
  858MOL0     H15765   3.263   5.190   2.169 -1.7846  0.2250 -0.1265
  858MOL0     H15766   3.190   5.281   2.299  0.7386  1.5927 -2.4007
  858MOL0     H15767   3.468   5.159   2.288 -0.4401  0.3160 -0.9121
  858MOL0     H15768   3.387   5.189   2.443 -1.7523  2.3081  0.4353
  858MOL0     H15769   3.361   5.423   2.376  0.0796 -1.0034  0.6818
  858MOL0     H15770   3.419   5.372   2.209  0.5651 -0.8250 -0.5643
  858MOL0     H15771   3.586   5.347   2.475 -0.0833  0.6755  0.1798
  858MOL0     H15772   3.647   5.312   2.305  3.7807  0.8050  1.5389
  858MOL0     H15773   3.639   5.544   2.243  2.1859 -0.2458 -0.4161
  858MOL0     H15774   3.564   5.593   2.400 -1.3171  0.0593 -0.8315
  858MOL0     H15775   3.803   5.644   2.393 -0.1679 -0.6798  0.4930
  858MOL0     H15776   3.772   5.530   2.526 -3.5111  0.6696  1.3660
  858MOL0     H15777   3.853   5.470   2.243 -1.0706  2.7047  0.6561
  858MOL0     H15778   3.859   5.349   2.366 -0.2865 -0.2662  0.6867
  858MOL0     H15779   4.009   5.601   2.390  1.6961  0.7596 -3.6788
  858MOL0     H15780   4.035   5.453   2.497  0.8258 -3.0656 -1.5004
  858MOL0     H15781   4.276   5.539   2.389 -0.0936 -0.0494 -0.6468
  858MOL0     H15782   4.498   5.354   2.188  0.8440  0.6974  0.0202
  858MOL0     H15783   4.461   5.461   2.056  0.4100 -1.7930 -0.1351
  858MOL0     H15784   4.437   5.663   2.198 -0.1862 -0.4896  1.4063
  858MOL0     H15785   4.497   5.573   2.338  3.0536 -0.1345  0.0719
  858MOL0     H15786   4.654   5.608   2.077  1.3525 -1.6138 -0.0777
  858MOL0     H15787   4.708   5.505   2.212 -0.9733 -0.2112  1.2223
  858MOL0     H15788   4.719   5.714   2.357  2.0898 -1.0852  0.6585
  858MOL0     H15789   4.678   5.804   2.205  2.5474  1.0594 -1.9772
  858MOL0     H15790   4.766   5.878   2.023 -0.4364 -0.1096  1.4051
  858MOL0     H15791   4.913   5.996   1.850 -0.9709 -0.8044 -0.7474
  858MOL0     H15792   5.058   5.941   1.454  0.1261 -0.7873  1.9057
  858MOL0     H15793   5.174   6.034   1.259  0.7306 -0.0755 -0.2530
  858MOL0     H15794   5.430   6.031   1.182 -0.9924 -1.1089  0.7764
  858MOL0     H15795   5.292   6.117   1.112 -2.0922  1.8398  3.3662
  858MOL0     H15796   5.539   6.099   1.026 -0.9797 -0.8742  1.0397
  858MOL0     H15797   5.421   6.241   0.976 -0.4720  0.7920  0.4098
  858MOL0     H15798   5.631   6.334   1.006  0.6148 -1.6140 -1.2836
  858MOL0     H15799   5.557   6.367   1.169  0.6732 -1.7745  1.4934
  858MOL0     H15800   5.761   6.161   1.079  0.5762  1.5634 -1.2564
  858MOL0     H15801   5.660   6.142   1.234 -1.8664  0.8945  0.0046
  858MOL0     H15802   5.751   6.373   1.295  0.9035  0.4145 -0.7793
  858MOL0     H15803   5.845   6.367   1.144 -0.7941  1.2394  0.5586
  858MOL0     H15804   5.884   6.200   1.393  2.1235 -2.5693 -0.2878
  858MOL0     H15805   5.982   6.175   1.256 -2.4726 -1.8233  0.4281
  858MOL0     H15806   5.974   6.455   1.379  0.4453  1.5076 -1.5020
  858MOL0     H15807   6.082   6.387   1.263 -3.1964  0.9020 -1.9482
  858MOL0     H15808   6.196   6.273   1.426 -0.4615  1.2670 -2.5496
  858MOL0     H15809   6.134   6.415   1.520 -1.0092  0.1415  1.5974
  858MOL0     H15810   5.389   6.302   1.511 -1.4234  0.7627  1.2278
  858MOL0     H15811   5.276   6.211   1.695  0.0710  3.5508 -1.6716
  858MOL0     H15812   5.246   5.763   1.987 -0.1681  0.5571 -0.8023
  858MOL0     H15813   5.114   5.659   2.156 -1.9675 -4.3175 -1.2460
  858MOL0     H15814   3.109   5.052   2.547 -0.7107  3.0987 -0.3317
  858MOL0     H15815   2.878   5.009   2.648 -0.8198  2.6831  0.3026
  858MOL0     H15816   2.506   4.911   2.649  1.8119  1.7478 -0.8880
  858MOL0     H15817   2.289   4.824   2.689 -0.4034  0.4915 -1.3670
  858MOL0     H15818   1.887   5.050   2.582 -4.4326  0.6011  2.7316
  858MOL0     H15819   1.956   5.102   2.739 -2.7122 -0.9200  2.5445
  858MOL0     H15820   1.843   4.952   2.858 -1.0260  1.6497 -0.0810
  858MOL0     H15821   1.856   4.829   2.751  0.1731  0.2453 -0.9512
  858MOL0     H15822   1.662   4.946   2.614  2.7484  2.4775 -1.5647
  858MOL0     H15823   1.664   5.075   2.732  1.7001 -0.0590  0.6417
  858MOL0     H15824   1.478   4.908   2.765  0.2184  0.6711 -1.0160
  858MOL0     H15825   1.599   4.777   2.796  3.1517  0.5911  2.3568
  858MOL0     H15826   1.605   4.959   3.172 -1.6554 -0.7304  0.4531
  858MOL0     H15827   2.102   5.186   2.540 -1.2407 -0.7074 -2.5168
  858MOL0     H15828   2.369   5.300   2.372  0.4111  2.1392  0.4403
  858MOL0     H15829   2.223   5.335   2.469  0.4737  0.9884 -0.6186
  858MOL0     H15830   2.378   5.370   2.544  1.9777 -0.5949  0.6275
  859MOL0     O15831   2.254   4.021   0.037  0.2367 -0.0401  0.4893
  859MOL0     C15832   2.257   3.981   0.154 -0.8304 -0.0176  0.1833
  859MOL0     O15833   2.376   3.968   0.222  1.0276  0.0929  0.3441
  859MOL0     C15834   2.495   4.014   0.175  0.2344 -0.5026  0.4512
  859MOL0     C15835   2.513   4.155   0.153  0.0114  0.5885 -0.5212
  859MOL0     C15836   2.638   4.195   0.116 -0.3505 -0.7499  1.0816
  859MOL0     C15837   2.743   4.105   0.085 -0.5770 -0.2940 -0.4528
  859MOL0     O15838   2.870   4.152   0.055 -0.0584 -0.3104  0.3545
  859MOL0     C15839   2.988   4.065   0.060 -0.0657 -0.1902  0.2609
  859MOL0     C15840   2.996   3.975  -0.068 -0.2243 -0.4161 -0.5162
  859MOL0     C15841   3.142   3.987  -0.124 -0.2396  0.0964  0.6312
  859MOL0     C15842   3.163   4.122  -0.192 -0.3912  0.3083  0.2575
  859MOL0     C15843   3.291   4.121  -0.274  0.4712  0.1374  1.1076
  859MOL0     C15844   3.411   4.140  -0.187  0.6533 -0.4950 -0.3690
  859MOL0     C15845   3.530   4.200  -0.258  0.1594  0.0105 -1.0317
  859MOL0     C15846   3.641   4.213  -0.157  0.0098 -0.2779  0.6862
  859MOL0     N15847   3.758   4.260  -0.217  0.0292 -0.4378 -0.2636
  859MOL0     C15848   3.836   4.180  -0.303  0.6970  0.0275  0.5089
  859MOL0     C15849   3.924   4.263  -0.350  0.8028  0.4399  1.0548
  859MOL0     C15850   4.020   4.250  -0.462  0.2337 -0.7288  0.2229
  859MOL0     C15851   4.022   4.118  -0.541  0.2313 -0.0586  0.3207
  859MOL0     C15852   4.136   4.105  -0.652 -0.4459 -0.3923 -0.4598
  859MOL0     C15853   4.111   4.199  -0.772 -0.5315  0.9174  1.2452
  859MOL0     O15854   4.134   4.343  -0.743  0.3513 -0.4201 -0.3315
  859MOL0     C15855   4.256   4.405  -0.729  0.1221 -0.6448 -0.0594
  859MOL0     C15856   4.275   4.503  -0.631  0.0865 -0.0395 -0.0598
  859MOL0     C15857   4.396   4.566  -0.607  0.1604 -0.1318 -1.0444
  859MOL0     C15858   4.507   4.520  -0.682 -0.3338 -0.3056 -0.0199
  859MOL0     C15859   4.646   4.584  -0.664  0.2412  1.0300  0.8532
  859MOL0     O15860   4.740   4.562  -0.764  0.7436  0.2133 -1.1064
  859MOL0     C15861   4.849   4.645  -0.776 -0.2495 -0.4283  0.5380
  859MOL0     C15862   4.955   4.598  -0.856  0.4162  0.1349  0.9002
  859MOL0     C15863   5.071   4.670  -0.883 -0.0593  0.7183 -0.2667
  859MOL0     C15864   5.072   4.807  -0.847  0.2083  0.4171 -0.3416
  859MOL0     O15865   5.185   4.877  -0.884 -0.8361 -0.2270  0.8328
  859MOL0     C15866   5.227   5.004  -0.823 -0.0949 -0.7285  0.5219
  859MOL0     C15867   5.362   4.986  -0.753 -0.8746 -0.1703 -0.8231
  859MOL0     C15868   5.427   5.127  -0.719  0.7162  0.3210  0.3805
  859MOL0     C15869   5.553   5.134  -0.636  1.5648  0.6226  0.3580
  859MOL0     C15870   5.618   5.281  -0.663  1.1597 -0.0498  0.3861
  859MOL0     C15871   5.726   5.325  -0.567  0.4161  0.3796 -0.3868
  859MOL0     C15872   5.836   5.224  -0.562 -0.3895  0.0067  0.3350
  859MOL0     C15873   5.922   5.216  -0.431  0.5140  0.7828  0.7298
  859MOL0    Cl15874   5.933   5.379  -0.358  0.2516  0.4542  0.1835
  859MOL0     C15875   4.964   4.862  -0.779  0.3320  0.0336  0.0905
  859MOL0     C15876   4.854   4.783  -0.742  0.4360 -0.4046  0.6133
  859MOL0     O15877   4.667   4.646  -0.565  0.3464 -0.2960  0.4702
  859MOL0     C15878   4.492   4.417  -0.778 -0.3389 -0.8747 -0.3139
  859MOL0     C15879   4.364   4.363  -0.807  0.0829  0.1884  0.7434
  859MOL0     N15880   3.899   4.384  -0.286  0.0364  0.4068  0.1199
  859MOL0     N15881   3.811   4.378  -0.200  0.0597  0.0854 -0.0330
  859MOL0     C15882   2.725   3.971   0.107  0.6012  0.0389  0.3922
  859MOL0     C15883   2.598   3.924   0.141 -0.7050 -0.0267 -0.5954
  859MOL0     C15884   2.135   3.935   0.222 -0.8701 -0.1110 -0.7771
  859MOL0     C15885   2.032   3.885   0.136 -1.0744 -0.2682 -0.1070
  859MOL0     C15886   1.926   3.822   0.191  0.2335 -0.6252  0.0670
  859MOL0     C15887   1.892   3.835   0.327  0.1677 -0.5300 -0.1584
  859MOL0     O15888   1.781   3.766   0.371  0.3264 -0.9501  0.0394
  859MOL0     C15889   1.766   3.729   0.506 -0.4956 -0.8433  1.0215
  859MOL0     C15890   1.690   3.830   0.586  0.0012 -0.4790 -0.2426
  859MOL0     C15891   1.546   3.865   0.534 -0.6891  1.1231 -0.5752
  859MOL0     C15892   1.468   3.952   0.630 -0.0028 -0.1297 -0.0120
  859MOL0     C15893   1.326   3.972   0.606 -0.3036  1.0016  0.1638
  859MOL0     C15894   1.209   3.990   0.580 -0.5995  0.4309  0.6934
  859MOL0     C15895   1.985   3.902   0.406 -0.5062  0.6038 -0.3944
  859MOL0     C15896   2.107   3.953   0.357  0.0737 -0.1976 -0.7548
  859MOL0     C15897   2.196   4.033   0.452  0.8309 -0.0411  0.3705
  859MOL0     H15898   2.430   4.224   0.162 -0.5049 -0.1173  0.3835
  859MOL0     H15899   2.666   4.299   0.099 -0.4780 -0.7723  0.7115
  859MOL0     H15900   3.071   4.136   0.061  2.0292 -2.5198  1.7699
  859MOL0     H15901   2.996   4.007   0.152  2.4832  0.6195  0.6099
  859MOL0     H15902   2.917   3.997  -0.141 -0.6718 -2.7316 -0.8155
  859MOL0     H15903   2.973   3.869  -0.054 -2.4824  0.0712  0.0032
  859MOL0     H15904   3.163   3.912  -0.201 -0.9268  2.4091 -1.9866
  859MOL0     H15905   3.211   3.984  -0.040  0.9217 -1.7248 -0.3191
  859MOL0     H15906   3.086   4.147  -0.266  2.3680 -1.9997 -3.8638
  859MOL0     H15907   3.173   4.200  -0.116  0.3405  0.6235 -0.1423
  859MOL0     H15908   3.311   4.045  -0.350 -0.0291  0.5737  0.5263
  859MOL0     H15909   3.284   4.211  -0.336 -2.2873  1.5833  3.2791
  859MOL0     H15910   3.381   4.202  -0.103  2.8679  0.4057 -0.1724
  859MOL0     H15911   3.442   4.040  -0.155 -0.7192 -2.3982 -4.3188
  859MOL0     H15912   3.505   4.302  -0.289 -0.7498  0.5065  1.0991
  859MOL0     H15913   3.558   4.141  -0.345  0.8649 -3.2543  1.2193
  859MOL0     H15914   3.620   4.291  -0.083  3.4457  0.8520  0.6402
  859MOL0     H15915   3.650   4.125  -0.092 -1.7172 -0.4605  0.7171
  859MOL0     H15916   3.814   4.083  -0.346  1.8656 -0.4170  0.8503
  859MOL0     H15917   4.008   4.328  -0.537  1.5849 -1.4630 -0.7965
  859MOL0     H15918   4.119   4.271  -0.421  0.1091  1.3567 -0.4643
  859MOL0     H15919   4.020   4.040  -0.465  3.5093  1.8439  2.5845
  859MOL0     H15920   3.929   4.101  -0.598  0.5379  0.6194 -0.4036
  859MOL0     H15921   4.128   3.998  -0.672  0.1649 -1.0243  2.2847
  859MOL0     H15922   4.239   4.118  -0.616  0.9263 -0.6593 -3.8633
  859MOL0     H15923   4.008   4.191  -0.808  0.5982 -1.0338 -2.0209
  859MOL0     H15924   4.178   4.179  -0.857  0.3628  1.9590  1.6828
  859MOL0     H15925   4.197   4.549  -0.571  0.4870  0.5631 -0.0019
  859MOL0     H15926   4.412   4.653  -0.545  0.1627 -1.4531  0.9049
  859MOL0     H15927   4.938   4.497  -0.892 -3.1718  0.8600  0.1783
  859MOL0     H15928   5.153   4.621  -0.934  0.9757  0.6804  1.3423
  859MOL0     H15929   5.238   5.080  -0.900  2.8590 -2.1958 -0.6483
  859MOL0     H15930   5.159   5.034  -0.743  0.5215  0.6657  0.5440
  859MOL0     H15931   5.344   4.919  -0.669  2.3101 -0.4991 -0.2873
  859MOL0     H15932   5.440   4.938  -0.813  0.6004  0.7134  0.3062
  859MOL0     H15933   5.444   5.165  -0.821 -2.5122  0.3746 -0.2347
  859MOL0     H15934   5.355   5.198  -0.677 -1.8306 -1.1983 -1.1719
  859MOL0     H15935   5.610   5.045  -0.663  0.0213 -0.0251 -0.9922
  859MOL0     H15936   5.527   5.124  -0.531  1.1790  1.8734  0.4019
  859MOL0     H15937   5.542   5.359  -0.672  0.1410 -1.0212  0.3351
  859MOL0     H15938   5.660   5.279  -0.765 -2.3968 -1.5426 -1.2026
  859MOL0     H15939   5.753   5.428  -0.592  0.6584  0.3160 -0.3966
  859MOL0     H15940   5.676   5.329  -0.470 -0.6989 -1.7950 -0.8117
  859MOL0     H15941   5.902   5.255  -0.643 -0.2528  0.4584  0.6162
  859MOL0     H15942   5.801   5.122  -0.580  2.5647 -0.8387 -1.2932
  859MOL0     H15943   5.871   5.150  -0.360 -1.6391  3.2600  1.6326
  859MOL0     H15944   6.022   5.178  -0.456 -0.1076 -0.5637  0.1919
  859MOL0     H15945   4.967   4.969  -0.763  3.9659  0.5105 -2.4703
  859MOL0     H15946   4.765   4.828  -0.700 -0.2936  0.6198 -1.8430
  859MOL0     H15947   4.584   4.378  -0.822  0.9620 -1.5017  2.6780
  859MOL0     H15948   4.366   4.298  -0.893  0.4531 -0.7275  1.4236
  859MOL0     H15949   2.795   3.892   0.080  0.5226  0.0430  0.1791
  859MOL0     H15950   2.586   3.818   0.163 -0.1160  0.4307  2.3976
  859MOL0     H15951   2.042   3.898   0.028  3.8446 -0.9984  0.0709
  859MOL0     H15952   1.861   3.774   0.119  1.4304 -0.5648 -1.0867
  859MOL0     H15953   1.864   3.707   0.547  0.8909 -0.7225 -1.9603
  859MOL0     H15954   1.708   3.636   0.513  0.3400 -1.3413  1.5245
  859MOL0     H15955   1.742   3.926   0.580 -0.7787 -0.1346 -2.1991
  859MOL0     H15956   1.674   3.798   0.690 -0.1912  0.7165  0.1061
  859MOL0     H15957   1.502   3.765   0.532 -2.7012  1.9602 -0.7409
  859MOL0     H15958   1.560   3.916   0.438  1.4120  2.1687  0.2057
  859MOL0     H15959   1.470   3.916   0.733 -0.2456 -2.9896 -0.9207
  859MOL0     H15960   1.523   4.046   0.624  2.2558 -1.3610  0.3406
  859MOL0     H15961   1.106   3.997   0.552 -0.1631  6.2747 -0.6030
  859MOL0     H15962   1.956   3.926   0.508  1.3436 -0.5479  0.4602
  859MOL0     H15963   2.134   4.092   0.521 -0.9319 -1.9222  0.5046
  859MOL0     H15964   2.257   3.969   0.517 -1.7360 -2.5126  0.5761
  859MOL0     H15965   2.251   4.108   0.395 -2.0715  3.5593  1.8539
  860MOL0     O15966  10.384   8.235  10.930 -0.4321 -0.0150 -0.4203
  860MOL0     C15967  10.289   8.215  11.000  0.6266 -0.8529 -0.2013
  860MOL0     O15968  10.271   8.248  11.136 -0.1392  0.0080  0.1211
  860MOL0     C15969  10.356   8.306  11.223 -0.0189 -0.2896  1.1001
  860MOL0     C15970  10.453   8.400  11.184  0.1785 -0.4095 -0.1413
  860MOL0     C15971  10.520   8.474  11.276  0.3514  0.1891 -0.1176
  860MOL0     C15972  10.499   8.450  11.410  0.3638 -1.1018 -0.2768
  860MOL0     O15973  10.572   8.518  11.503 -0.7203  0.4032 -0.1433
  860MOL0     C15974  10.565   8.659  11.488 -0.6964  0.3623 -0.5791
  860MOL0     C15975  10.602   8.729  11.622  0.3272 -0.5387 -0.3549
  860MOL0     C15976  10.747   8.694  11.669 -0.2438  0.2763  0.7113
  860MOL0     C15977  10.782   8.751  11.807  0.5642  0.0272  0.8950
  860MOL0     C15978  10.919   8.709  11.850 -0.0662 -0.1535  0.2297
  860MOL0     C15979  11.027   8.712  11.741 -0.7694 -0.5815  0.1394
  860MOL0     C15980  11.162   8.684  11.809 -0.5940  0.4856  0.2003
  860MOL0     C15981  11.262   8.673  11.700  0.4264  0.6386 -0.1388
  860MOL0     N15982  11.397   8.698  11.755  0.5092 -0.1886 -0.6067
  860MOL0     C15983  11.465   8.650  11.864 -0.4561 -0.0534  0.0775
  860MOL0     C15984  11.583   8.713  11.872 -0.2539  0.0290  0.0535
  860MOL0     C15985  11.702   8.701  11.965  0.8166  0.7829 -0.6114
  860MOL0     C15986  11.804   8.613  11.898 -0.2555  0.7688 -0.4407
  860MOL0     C15987  11.762   8.460  11.897  0.0933  0.4587  0.1166
  860MOL0     C15988  11.721   8.395  12.025  0.6583 -0.1901 -0.5198
  860MOL0     O15989  11.594   8.433  12.073 -0.5336  0.2650 -0.0958
  860MOL0     C15990  11.560   8.400  12.205 -0.1237 -0.8156 -0.6068
  860MOL0     C15991  11.628   8.300  12.272  0.1784  0.0384  0.4382
  860MOL0     C15992  11.567   8.254  12.392 -0.6034  0.0059  0.0990
  860MOL0     C15993  11.433   8.290  12.430  0.3844 -0.3317  0.9569
  860MOL0     C15994  11.366   8.215  12.531 -0.5945 -0.0805 -0.0667
  860MOL0     O15995  11.439   8.102  12.572 -0.0639  0.1009  0.3194
  860MOL0     C15996  11.381   8.045  12.682 -0.2304  0.2364 -0.1378
  860MOL0     C15997  11.284   7.939  12.662  0.5791  0.9597 -0.7287
  860MOL0     C15998  11.228   7.873  12.779  0.7769  0.6008  0.3969
  860MOL0     C15999  11.286   7.894  12.900  0.2340  0.0137  0.3187
  860MOL0     O16000  11.211   7.836  13.001 -0.3037 -0.0796  0.4320
  860MOL0     C16001  11.227   7.863  13.136  0.4861 -1.0556 -0.0100
  860MOL0     C16002  11.142   7.998  13.170  0.2705  0.5647 -0.1269
  860MOL0     C16003  11.108   8.016  13.318 -0.0167  0.2737  0.3292
  860MOL0     C16004  11.233   8.068  13.397 -0.4869  1.0928  0.4712
  860MOL0     C16005  11.182   8.165  13.502 -0.4902 -0.3071  0.4546
  860MOL0     C16006  11.290   8.239  13.569 -0.5209 -0.0093  0.1542
  860MOL0     C16007  11.241   8.324  13.673  0.6925 -0.3576 -0.4842
  860MOL0     C16008  11.349   8.396  13.752  0.3237  0.4081 -0.5498
  860MOL0    Cl16009  11.458   8.289  13.852  0.1069 -0.0268 -0.4396
  860MOL0     C16010  11.384   7.992  12.919 -0.0401 -0.8315  0.3796
  860MOL0     C16011  11.427   8.073  12.810 -0.8103 -0.7332 -0.6207
  860MOL0     O16012  11.254   8.254  12.571 -0.3691 -0.2964  0.6124
  860MOL0     C16013  11.370   8.397  12.359  0.1808 -0.6608 -1.5047
  860MOL0     C16014  11.433   8.447  12.249  0.5901 -0.2194 -0.1520
  860MOL0     N16015  11.591   8.791  11.759  1.2597 -0.1739 -0.1312
  860MOL0     N16016  11.481   8.789  11.693  0.5012 -0.4655 -0.0994
  860MOL0     C16017  10.404   8.361  11.452 -0.6111 -0.1816 -0.1903
  860MOL0     C16018  10.334   8.289  11.357  0.9513  0.4757 -0.6724
  860MOL0     C16019  10.169   8.153  10.944 -0.3645 -0.4174 -0.5587
  860MOL0     C16020  10.066   8.121  11.032 -0.5314 -0.1276 -0.3483
  860MOL0     C16021   9.941   8.089  10.993  0.4817  0.2935  0.1181
  860MOL0     C16022   9.922   8.068  10.860  0.5127  0.0862  0.0202
  860MOL0     O16023   9.794   8.018  10.815 -0.1312 -0.0007  0.4138
  860MOL0     C16024   9.678   8.035  10.900  0.2705  0.1758 -0.1140
  860MOL0     C16025   9.548   7.979  10.834  1.2227 -0.0883 -1.0298
  860MOL0     C16026   9.492   8.097  10.751  0.3973 -0.0883 -0.0679
  860MOL0     C16027   9.359   8.052  10.688 -0.0874  0.0388 -0.5994
  860MOL0     C16028   9.339   8.095  10.550  0.6264  0.3797  0.8808
  860MOL0     C16029   9.337   8.105  10.433 -0.8799 -0.3374 -0.0162
  860MOL0     C16030  10.027   8.085  10.770  1.5702  0.7485  0.4874
  860MOL0     C16031  10.153   8.128  10.806 -0.4755  0.7881 -0.6729
  860MOL0     C16032  10.256   8.144  10.698 -1.2754 -1.0554  0.2639
  860MOL0     H16033  10.460   8.426  11.079 -0.1022 -0.0707 -0.0800
  860MOL0     H16034  10.601   8.543  11.255 -0.0286  0.3651 -1.0136
  860MOL0     H16035  10.643   8.689  11.418 -0.1612 -0.5828 -0.3920
  860MOL0     H16036  10.459   8.682  11.472 -1.1571  0.8342  2.5202
  860MOL0     H16037  10.529   8.715  11.702  1.2234  1.9218  1.0153
  860MOL0     H16038  10.595   8.837  11.608 -1.7604 -0.9435 -3.3508
  860MOL0     H16039  10.817   8.721  11.590 -0.4695 -1.2239 -0.0384
  860MOL0     H16040  10.749   8.585  11.683 -2.1552  0.3572  2.0115
  860MOL0     H16041  10.781   8.860  11.797 -1.3341 -0.1436 -1.9423
  860MOL0     H16042  10.707   8.722  11.881  2.0113 -1.1730  1.9582
  860MOL0     H16043  10.950   8.771  11.935  1.1107 -1.0199  0.4569
  860MOL0     H16044  10.917   8.606  11.886  0.0632  0.4679  2.1541
  860MOL0     H16045  11.008   8.630  11.670 -0.0282 -0.4449 -0.2262
  860MOL0     H16046  11.037   8.810  11.695 -2.1375 -0.8287 -0.7492
  860MOL0     H16047  11.164   8.590  11.865 -1.8502  0.5790  0.4102
  860MOL0     H16048  11.189   8.767  11.875  1.3626 -1.3232  1.8094
  860MOL0     H16049  11.258   8.575  11.651 -0.6773  1.0689 -0.9512
  860MOL0     H16050  11.241   8.748  11.623  0.9027 -0.2935 -1.2196
  860MOL0     H16051  11.426   8.577  11.935  2.0443 -2.8114 -1.1848
  860MOL0     H16052  11.749   8.800  11.971  0.6701  0.8716 -0.8769
  860MOL0     H16053  11.680   8.661  12.064  2.4881  1.9029  0.2621
  860MOL0     H16054  11.823   8.646  11.795 -1.2144  0.4447 -0.7387
  860MOL0     H16055  11.897   8.623  11.954 -0.8425  2.5391  0.2587
  860MOL0     H16056  11.850   8.409  11.858 -0.2675  1.0586 -1.5839
  860MOL0     H16057  11.683   8.443  11.823  1.6746 -0.3971 -1.4143
  860MOL0     H16058  11.795   8.429  12.098  0.1607  2.3840 -1.1140
  860MOL0     H16059  11.712   8.286  12.014 -1.1162  0.0940 -2.2587
  860MOL0     H16060  11.723   8.263  12.236  0.9744  4.0735 -2.2866
  860MOL0     H16061  11.635   8.185  12.442  0.6068 -1.1277 -2.9142
  860MOL0     H16062  11.243   7.923  12.563 -0.6867  0.5038 -0.1670
  860MOL0     H16063  11.144   7.809  12.753  1.6339  0.1375 -1.3845
  860MOL0     H16064  11.193   7.779  13.198  0.5715 -0.8235  0.3529
  860MOL0     H16065  11.331   7.878  13.167  0.3942 -0.4000 -0.0172
  860MOL0     H16066  11.187   8.089  13.130  3.3661 -1.0479 -0.6503
  860MOL0     H16067  11.051   7.978  13.112  0.9384  2.2549 -1.8716
  860MOL0     H16068  11.030   8.093  13.314 -0.8189 -0.5848 -3.0048
  860MOL0     H16069  11.061   7.924  13.355  0.4318 -0.5069 -1.0058
  860MOL0     H16070  11.303   8.123  13.334 -0.6978 -0.0344 -0.7785
  860MOL0     H16071  11.296   7.994  13.448 -1.1770 -0.3410 -0.6980
  860MOL0     H16072  11.111   8.127  13.576 -2.2686  1.0545 -0.4908
  860MOL0     H16073  11.133   8.246  13.448  0.3929 -0.1152 -0.0873
  860MOL0     H16074  11.345   8.157  13.616 -1.8875 -1.6192 -0.9459
  860MOL0     H16075  11.348   8.292  13.492 -0.1405 -3.1721 -1.9406
  860MOL0     H16076  11.180   8.272  13.748 -1.1499 -0.9428 -2.3067
  860MOL0     H16077  11.177   8.404  13.636 -1.6473 -1.4858  0.8642
  860MOL0     H16078  11.418   8.455  13.690  0.2618  0.3900 -0.6352
  860MOL0     H16079  11.299   8.473  13.812  1.2494  0.2608  0.4513
  860MOL0     H16080  11.427   7.993  13.019 -1.9949 -2.6567  1.3287
  860MOL0     H16081  11.499   8.154  12.809 -2.0569  0.4047 -0.9348
  860MOL0     H16082  11.268   8.428  12.375  1.2221  3.2714 -1.5151
  860MOL0     H16083  11.373   8.517  12.192 -0.2100 -0.6438  0.1457
  860MOL0     H16084  10.379   8.358  11.557 -0.7796  5.2587  0.2244
  860MOL0     H16085  10.271   8.213  11.404 -0.5188  1.9395 -0.1773
  860MOL0     H16086  10.074   8.118  11.141 -2.1968  1.5591 -0.1360
  860MOL0     H16087   9.862   8.079  11.067  2.4706 -0.6748  2.2154
  860MOL0     H16088   9.681   8.142  10.919  0.7428  0.7732 -3.0543
  860MOL0     H16089   9.701   7.990  10.997  0.6188  2.2573  0.8084
  860MOL0     H16090   9.478   7.944  10.910  1.4593 -1.1618 -1.2987
  860MOL0     H16091   9.567   7.888  10.776  1.7371 -0.1227 -0.8163
  860MOL0     H16092   9.561   8.118  10.668 -0.4553 -1.3021 -1.1172
  860MOL0     H16093   9.485   8.191  10.806  3.1154  1.7805 -2.5639
  860MOL0     H16094   9.358   7.943  10.694  1.8572  0.0657  1.0653
  860MOL0     H16095   9.274   8.083  10.750  1.3536 -0.4061  1.6765
  860MOL0     H16096   9.324   8.114  10.327 -2.0407 -2.4930 -0.1124
  860MOL0     H16097  10.006   8.040  10.673  0.1889  2.4163 -0.0416
  860MOL0     H16098  10.297   8.246  10.692  1.2990 -2.0322  0.0650
  860MOL0     H16099  10.350   8.092  10.721 -1.5772 -2.5563 -1.6682
  860MOL0     H16100  10.221   8.111  10.600  1.3878  0.0720 -1.1855
  861MOL0     O16101   9.718   5.429   2.805 -0.2502 -0.6401  0.3467
  861MOL0     C16102   9.660   5.540   2.809 -0.0267  0.2567 -0.0564
  861MOL0     O16103   9.703   5.646   2.880 -0.3486  0.3704 -0.3170
  861MOL0     C16104   9.815   5.634   2.956 -0.3413 -0.3121 -0.2106
  861MOL0     C16105   9.914   5.740   2.949 -0.6547  0.4653 -0.6941
  861MOL0     C16106  10.019   5.734   3.034  0.1104 -0.3768 -0.8514
  861MOL0     C16107  10.044   5.623   3.122 -0.2472 -0.8342 -0.5983
  861MOL0     O16108  10.165   5.614   3.193 -0.0334  0.2650  0.6170
  861MOL0     C16109  10.239   5.497   3.217 -0.2925 -0.8009 -0.6099
  861MOL0     C16110  10.332   5.534   3.331  0.7719  0.5388  0.9602
  861MOL0     C16111  10.457   5.616   3.277 -0.9114  0.8514  0.3132
  861MOL0     C16112  10.537   5.702   3.384  0.2718  0.1990 -0.2237
  861MOL0     C16113  10.690   5.700   3.367  0.1309  0.0442 -0.2106
  861MOL0     C16114  10.726   5.770   3.237  0.2340 -0.3074  0.4990
  861MOL0     C16115  10.864   5.716   3.193  0.0535 -0.0050 -0.4997
  861MOL0     C16116  10.876   5.741   3.042  0.2939 -0.8802 -0.6201
  861MOL0     N16117  10.860   5.881   3.014 -0.2370  0.2252 -0.5369
  861MOL0     C16118  10.949   5.988   3.024  0.6552  0.3420 -0.5185
  861MOL0     C16119  10.890   6.088   2.951  0.5975  0.0132 -0.4325
  861MOL0     C16120  10.948   6.224   2.931 -0.8893  0.1552  0.5261
  861MOL0     C16121  11.034   6.231   2.803  0.3096 -0.2545 -0.2834
  861MOL0     C16122  11.093   6.367   2.801  0.0975 -0.1546 -0.5572
  861MOL0     C16123  11.198   6.382   2.689 -0.3871 -0.5691 -0.9368
  861MOL0     O16124  11.202   6.507   2.621  0.2182  0.7828 -0.3710
  861MOL0     C16125  11.278   6.616   2.659  0.3532 -0.3222 -0.7130
  861MOL0     C16126  11.305   6.719   2.571  0.0334 -0.3039  1.0339
  861MOL0     C16127  11.382   6.837   2.607  0.3536  0.0256 -0.0363
  861MOL0     C16128  11.410   6.845   2.747 -0.8626 -0.7889  0.6030
  861MOL0     C16129  11.482   6.965   2.795 -0.2439 -0.3779 -0.3313
  861MOL0     O16130  11.499   7.063   2.709 -0.6187  0.1108 -0.5353
  861MOL0     C16131  11.534   7.191   2.747 -0.0752  0.6925 -0.8720
  861MOL0     C16132  11.609   7.261   2.656 -0.0711  0.3301  0.0754
  861MOL0     C16133  11.630   7.392   2.674 -0.5940  0.4543 -0.3551
  861MOL0     C16134  11.597   7.460   2.797  0.4234 -1.5043  0.0828
  861MOL0     O16135  11.603   7.594   2.826 -0.0974  0.5312 -1.4726
  861MOL0     C16136  11.593   7.672   2.707 -0.3732 -0.3834  0.2479
  861MOL0     C16137  11.547   7.815   2.744  0.0596  0.0950 -0.5103
  861MOL0     C16138  11.399   7.816   2.770  0.8167  0.1609  1.0899
  861MOL0     C16139  11.303   7.806   2.654  0.4111 -0.4917  0.5170
  861MOL0     C16140  11.163   7.864   2.687 -0.4978  0.3816 -0.0581
  861MOL0     C16141  11.057   7.832   2.579 -0.8091  0.5646 -0.1630
  861MOL0     C16142  11.060   7.929   2.461  0.6565  0.4300  0.1235
  861MOL0     C16143  10.991   7.856   2.340 -0.3200  0.5268  0.4377
  861MOL0    Cl16144  11.115   7.743   2.252  0.0389  0.1823 -0.2753
  861MOL0     C16145  11.543   7.390   2.904  0.7501  0.4129  0.6307
  861MOL0     C16146  11.498   7.249   2.871 -0.4726 -0.5505 -0.3245
  861MOL0     O16147  11.505   6.970   2.916  0.0193  0.3502  0.5768
  861MOL0     C16148  11.394   6.735   2.839 -0.6396  0.8150  0.0506
  861MOL0     C16149  11.331   6.629   2.788  0.2836  0.0611 -1.0847
  861MOL0     N16150  10.769   6.050   2.907 -0.5969  1.0728  0.0239
  861MOL0     N16151  10.743   5.930   2.962  0.4405  0.0995 -0.9680
  861MOL0     C16152   9.945   5.526   3.133 -0.2644 -0.9609  0.1058
  861MOL0     C16153   9.831   5.529   3.052  0.1414  0.7877  0.0729
  861MOL0     C16154   9.544   5.565   2.719 -0.6478 -0.1389  1.2731
  861MOL0     C16155   9.530   5.487   2.599 -0.1918  0.5468 -0.5819
  861MOL0     C16156   9.429   5.504   2.502 -0.4411 -0.2208  0.2378
  861MOL0     C16157   9.339   5.611   2.525 -0.6269  1.0567  0.5382
  861MOL0     O16158   9.241   5.652   2.444  0.2808  0.0883 -0.8773
  861MOL0     C16159   9.217   5.573   2.334  0.7607  0.3501  0.1998
  861MOL0     C16160   9.075   5.599   2.281 -0.0684 -0.0258 -0.4189
  861MOL0     C16161   8.960   5.602   2.384 -1.1126 -0.3282  0.2579
  861MOL0     C16162   8.851   5.681   2.317 -0.2566  0.5324  0.0646
  861MOL0     C16163   8.710   5.658   2.367 -0.0990 -0.1909  0.1265
  861MOL0     C16164   8.591   5.647   2.406 -0.0555  0.3448 -0.8217
  861MOL0     C16165   9.352   5.695   2.637  0.4985 -0.2344  1.3993
  861MOL0     C16166   9.447   5.667   2.737  0.0575  0.0812 -0.8509
  861MOL0     C16167   9.435   5.732   2.874  0.4542  0.0122  0.1086
  861MOL0     H16168   9.913   5.822   2.879 -1.2870  0.9725 -0.1048
  861MOL0     H16169  10.088   5.818   3.034  3.2094 -2.7238  0.4297
  861MOL0     H16170  10.175   5.412   3.241  0.0524 -0.5091  1.5463
  861MOL0     H16171  10.293   5.458   3.131 -1.0904 -1.6160 -0.7517
  861MOL0     H16172  10.362   5.441   3.381  1.4193  0.4099  0.3579
  861MOL0     H16173  10.277   5.596   3.402 -1.5790 -0.4087  0.0549
  861MOL0     H16174  10.418   5.674   3.193  0.9954 -1.0931 -2.0892
  861MOL0     H16175  10.517   5.545   3.218 -2.1967 -1.5742  1.7361
  861MOL0     H16176  10.503   5.806   3.393 -0.3902 -0.1838  2.6700
  861MOL0     H16177  10.518   5.663   3.484  0.9865  0.1471 -0.1045
  861MOL0     H16178  10.724   5.750   3.458 -0.2859 -2.0031  1.1362
  861MOL0     H16179  10.720   5.595   3.362  0.8746  0.2967 -1.4783
  861MOL0     H16180  10.667   5.741   3.149  2.6361 -0.8202 -1.0291
  861MOL0     H16181  10.717   5.878   3.252  2.8632  0.1317 -0.6302
  861MOL0     H16182  10.878   5.609   3.211  2.6973  0.7314  2.7361
  861MOL0     H16183  10.951   5.757   3.245 -0.6210 -0.7748  1.3293
  861MOL0     H16184  10.971   5.702   3.004 -0.2425 -1.0088 -1.8599
  861MOL0     H16185  10.791   5.691   2.995 -0.4240 -0.5366  0.2982
  861MOL0     H16186  11.050   5.990   3.065  0.3690  0.0505  0.2231
  861MOL0     H16187  10.865   6.295   2.924 -1.7427 -0.6844  1.5805
  861MOL0     H16188  10.991   6.257   3.026 -0.6039  1.4694 -0.0359
  861MOL0     H16189  11.114   6.158   2.816  0.0479 -0.4027  0.5257
  861MOL0     H16190  10.982   6.210   2.709  1.3218  0.5753 -1.0505
  861MOL0     H16191  11.121   6.404   2.900  1.0901 -1.0127 -0.5036
  861MOL0     H16192  11.009   6.430   2.771  0.2961  0.0266 -0.7339
  861MOL0     H16193  11.180   6.312   2.607 -2.9625 -1.1538  0.0458
  861MOL0     H16194  11.293   6.340   2.726 -1.1024 -1.2450  0.1889
  861MOL0     H16195  11.266   6.713   2.470 -0.0665  1.9497  0.8940
  861MOL0     H16196  11.412   6.916   2.538 -2.7289  2.2209  0.9050
  861MOL0     H16197  11.635   7.202   2.569  2.4689  1.5149 -0.0462
  861MOL0     H16198  11.680   7.450   2.598 -0.6044  2.8076  1.3204
  861MOL0     H16199  11.694   7.671   2.664 -0.6091  0.9094 -0.3869
  861MOL0     H16200  11.528   7.643   2.624  1.1917  0.9050 -1.5164
  861MOL0     H16201  11.608   7.852   2.828  0.6473  1.8193 -1.6480
  861MOL0     H16202  11.575   7.869   2.653  1.3668 -2.8857 -2.0521
  861MOL0     H16203  11.392   7.729   2.836  1.1348  0.3826  1.4179
  861MOL0     H16204  11.381   7.910   2.823 -1.9000 -0.1181  0.7910
  861MOL0     H16205  11.288   7.704   2.619 -1.8207  0.7691 -2.6977
  861MOL0     H16206  11.356   7.844   2.566  0.6932 -1.2886  0.3352
  861MOL0     H16207  11.167   7.969   2.715 -0.3455  0.7120 -1.2914
  861MOL0     H16208  11.128   7.797   2.767  0.9882 -2.6244 -1.7643
  861MOL0     H16209  11.079   7.730   2.548  0.1138  0.5688  0.4391
  861MOL0     H16210  10.956   7.827   2.620 -1.5076  2.3070 -1.5409
  861MOL0     H16211  11.160   7.956   2.426  2.2554 -0.8159  3.3000
  861MOL0     H16212  10.987   8.009   2.475 -1.0301 -0.8352 -0.9950
  861MOL0     H16213  10.911   7.790   2.373 -0.1845  0.6029  0.9420
  861MOL0     H16214  10.949   7.927   2.269 -0.9236  0.2472  0.5177
  861MOL0     H16215  11.525   7.452   2.991 -0.3271 -0.3294  0.9650
  861MOL0     H16216  11.437   7.201   2.947  0.3526 -0.9300  0.1066
  861MOL0     H16217  11.441   6.731   2.938 -1.0325 -4.9522  0.3477
  861MOL0     H16218  11.301   6.548   2.854 -1.5914  0.8566 -0.9249
  861MOL0     H16219   9.954   5.443   3.202  0.0865  0.0059  1.2416
  861MOL0     H16220   9.766   5.445   3.072  1.1586  0.2608  1.2958
  861MOL0     H16221   9.582   5.395   2.576 -2.3297 -0.3724 -2.1017
  861MOL0     H16222   9.440   5.443   2.412  3.4590  0.6566 -0.0442
  861MOL0     H16223   9.238   5.469   2.360  4.9294  0.7374 -0.9003
  861MOL0     H16224   9.293   5.585   2.256 -2.8661 -0.6162 -3.9194
  861MOL0     H16225   9.056   5.511   2.220 -2.2851  0.5863 -0.7039
  861MOL0     H16226   9.069   5.679   2.207 -0.7463  1.8810  1.5662
  861MOL0     H16227   8.994   5.637   2.482  0.9662 -0.5062 -0.3467
  861MOL0     H16228   8.924   5.501   2.406 -2.4222  0.5368  2.4298
  861MOL0     H16229   8.878   5.786   2.327 -0.9088  0.4629  4.1569
  861MOL0     H16230   8.840   5.654   2.211  0.0646  0.7728 -0.0302
  861MOL0     H16231   8.490   5.649   2.441 -0.0650  0.7580 -0.8737
  861MOL0     H16232   9.277   5.772   2.651  0.2378 -0.5437  1.7120
  861MOL0     H16233   9.332   5.768   2.882  0.3498  0.3420 -2.1324
  861MOL0     H16234   9.467   5.656   2.946  4.4640  2.3109  1.0512
  861MOL0     H16235   9.509   5.812   2.884  1.6289 -0.8808 -1.1550
  862MOL0     O16236   7.346   7.820   4.300 -0.7996 -0.5604 -0.3706
  862MOL0     C16237   7.291   7.788   4.400  0.4192  0.3856 -0.1309
  862MOL0     O16238   7.346   7.786   4.523  0.0462 -0.3859 -1.0530
  862MOL0     C16239   7.481   7.829   4.548 -0.4757  0.0332  0.1315
  862MOL0     C16240   7.544   7.938   4.478  0.0104  0.3362 -0.6152
  862MOL0     C16241   7.677   7.980   4.503  1.2072 -0.0880 -0.0984
  862MOL0     C16242   7.754   7.906   4.595  0.1627  0.5570  0.0687
  862MOL0     O16243   7.882   7.934   4.631  0.5373  0.2705 -0.5068
  862MOL0     C16244   7.872   8.028   4.740 -0.4967 -0.7349 -0.6384
  862MOL0     C16245   8.023   8.050   4.787 -1.9610  0.0588 -0.1120
  862MOL0     C16246   8.090   7.923   4.840 -0.4424 -1.1020 -0.3041
  862MOL0     C16247   8.229   7.949   4.895  0.5543 -0.8802  0.2476
  862MOL0     C16248   8.276   7.846   4.994 -0.5009  0.2456  0.9734
  862MOL0     C16249   8.421   7.855   5.031 -1.4189  0.2374  0.3617
  862MOL0     C16250   8.438   7.754   5.145 -0.0026  0.1860  0.0535
  862MOL0     C16251   8.579   7.738   5.174  0.3744 -0.6311  0.2728
  862MOL0     N16252   8.650   7.857   5.232  0.2486 -0.5457  1.0849
  862MOL0     C16253   8.649   7.895   5.363  0.1196 -0.1733 -0.3745
  862MOL0     C16254   8.721   8.015   5.370  0.9265 -0.5892  0.1431
  862MOL0     C16255   8.749   8.101   5.489 -0.0181  0.7346  0.9991
  862MOL0     C16256   8.827   8.228   5.469 -0.4084 -0.9602 -0.8597
  862MOL0     C16257   8.978   8.183   5.481  0.3135  0.4729  0.0012
  862MOL0     C16258   9.074   8.289   5.439 -0.0905 -0.1847  0.8597
  862MOL0     O16259   9.044   8.402   5.521 -0.1903 -0.1198  0.4023
  862MOL0     C16260   9.110   8.513   5.489 -0.2754 -0.8013  0.3607
  862MOL0     C16261   9.209   8.528   5.389 -0.4591 -0.2708  0.4643
  862MOL0     C16262   9.279   8.646   5.375  0.1969 -0.1371  0.3097
  862MOL0     C16263   9.244   8.763   5.446 -0.1210  0.2288  0.0400
  862MOL0     C16264   9.321   8.886   5.439  0.5965 -0.4936  0.2563
  862MOL0     O16265   9.268   8.991   5.510  0.5443  0.3266  0.5053
  862MOL0     C16266   9.345   9.096   5.551 -0.5356  0.2131 -0.4971
  862MOL0     C16267   9.482   9.080   5.566 -0.6673 -0.4796 -0.1712
  862MOL0     C16268   9.562   9.182   5.608 -0.1212  0.5493  1.1679
  862MOL0     C16269   9.515   9.301   5.643  0.1261  0.6352  0.4038
  862MOL0     O16270   9.605   9.391   5.686 -0.1024 -0.9865 -1.4137
  862MOL0     C16271   9.556   9.502   5.765  0.6191 -0.7775 -0.1501
  862MOL0     C16272   9.495   9.445   5.899  0.0938 -0.5654  0.1365
  862MOL0     C16273   9.477   9.541   6.015  0.4856  0.6437  0.1698
  862MOL0     C16274   9.405   9.679   5.987  0.4567  0.5895  1.5354
  862MOL0     C16275   9.430   9.780   6.096  0.2228 -1.0849  0.2936
  862MOL0     C16276   9.369   9.740   6.228 -0.2085  1.1642 -0.3550
  862MOL0     C16277   9.401   9.845   6.329 -0.4156  0.1588 -0.7473
  862MOL0     C16278   9.529   9.815   6.415 -0.3441 -0.1570 -0.4025
  862MOL0    Cl16279   9.554   9.945   6.536 -0.0774  0.1265 -0.0353
  862MOL0     C16280   9.372   9.318   5.621 -0.5022  0.6707 -0.2660
  862MOL0     C16281   9.287   9.219   5.576  0.3064 -0.0559  0.1647
  862MOL0     O16282   9.415   8.897   5.364 -0.8537  0.2997  0.3233
  862MOL0     C16283   9.132   8.749   5.534  0.3736  0.0169 -0.1900
  862MOL0     C16284   9.076   8.625   5.563 -0.2652 -0.1513  0.1085
  862MOL0     N16285   8.768   8.047   5.245 -0.8017 -0.5763  0.3434
  862MOL0     N16286   8.731   7.948   5.169  0.3575 -0.0458 -0.0171
  862MOL0     C16287   7.695   7.795   4.656 -0.5236  0.2693 -0.3375
  862MOL0     C16288   7.559   7.751   4.640 -0.4308  0.4938  0.1425
  862MOL0     C16289   7.164   7.719   4.386  0.6064  1.3713  1.3831
  862MOL0     C16290   7.071   7.744   4.485  0.2190 -0.8459  0.8533
  862MOL0     C16291   6.943   7.683   4.485  0.1092  0.0948  0.4164
  862MOL0     C16292   6.917   7.573   4.394  0.3504 -0.6110 -0.1268
  862MOL0     O16293   6.800   7.501   4.413 -0.1476 -0.6942 -0.0900
  862MOL0     C16294   6.760   7.412   4.312  0.1224 -1.1131 -0.5023
  862MOL0     C16295   6.611   7.396   4.307  0.3536  1.0630 -0.5015
  862MOL0     C16296   6.564   7.249   4.304 -0.1184 -0.1995 -0.5108
  862MOL0     C16297   6.594   7.176   4.168 -0.3052  0.1998  0.0108
  862MOL0     C16298   6.535   7.246   4.049  0.4861 -0.3148 -0.5454
  862MOL0     C16299   6.487   7.322   3.970 -0.5486 -0.1838 -0.1347
  862MOL0     C16300   7.002   7.565   4.290 -1.4286  0.4432  0.6113
  862MOL0     C16301   7.127   7.636   4.279  0.0799  0.4580 -0.1287
  862MOL0     C16302   7.210   7.630   4.154 -0.0390 -0.1216 -0.0929
  862MOL0     H16303   7.482   7.986   4.404 -1.0500 -0.3589 -0.1952
  862MOL0     H16304   7.708   8.049   4.425 -3.8136  0.1886 -2.2693
  862MOL0     H16305   7.826   8.121   4.705 -0.5847 -0.6624 -0.3330
  862MOL0     H16306   7.814   7.992   4.825 -1.2639  0.3301 -0.6859
  862MOL0     H16307   8.025   8.133   4.858 -1.6751 -0.9716  1.1160
  862MOL0     H16308   8.072   8.095   4.700  2.4655 -1.6970  1.1763
  862MOL0     H16309   8.096   7.853   4.756  0.3808 -4.2531  2.1718
  862MOL0     H16310   8.033   7.866   4.914 -0.2010 -1.0750 -0.0968
  862MOL0     H16311   8.308   7.951   4.819  0.4317  2.1501  0.1089
  862MOL0     H16312   8.225   8.044   4.949 -1.3677 -1.0493  0.4839
  862MOL0     H16313   8.209   7.850   5.080 -1.4976 -2.6799  0.4263
  862MOL0     H16314   8.268   7.751   4.942  2.3804 -0.7303  2.0791
  862MOL0     H16315   8.490   7.841   4.947 -0.9050  0.4748  0.7386
  862MOL0     H16316   8.446   7.956   5.065 -1.4513 -0.4564  2.5564
  862MOL0     H16317   8.389   7.660   5.119  0.9218 -0.2952 -0.0085
  862MOL0     H16318   8.390   7.801   5.231 -0.2141 -1.5509  0.9324
  862MOL0     H16319   8.598   7.666   5.254  1.6365 -0.5330  0.0840
  862MOL0     H16320   8.624   7.693   5.085 -2.3203  1.7318 -2.5235
  862MOL0     H16321   8.587   7.841   5.434 -1.8740  0.2049 -1.7460
  862MOL0     H16322   8.653   8.134   5.530 -0.0761  4.4828 -1.5931
  862MOL0     H16323   8.798   8.038   5.563  1.1269 -2.4651 -2.1510
  862MOL0     H16324   8.814   8.286   5.377 -0.1490  2.4235  1.0665
  862MOL0     H16325   8.818   8.299   5.552 -0.5597 -2.2466  0.2592
  862MOL0     H16326   9.005   8.097   5.419  1.5765 -0.7239  2.1006
  862MOL0     H16327   9.008   8.154   5.582  1.1609 -1.7219 -0.7961
  862MOL0     H16328   9.046   8.306   5.334 -0.5349 -0.0677  0.9951
  862MOL0     H16329   9.180   8.265   5.446 -0.5641 -2.6179  0.4196
  862MOL0     H16330   9.245   8.450   5.322 -0.2363  0.0079  0.2557
  862MOL0     H16331   9.362   8.646   5.305 -1.8960  2.0046 -2.3708
  862MOL0     H16332   9.536   8.987   5.552 -2.6779 -1.5736 -1.1565
  862MOL0     H16333   9.662   9.154   5.639  0.1147 -0.2181 -0.1930
  862MOL0     H16334   9.631   9.582   5.769 -0.0380  0.2276 -3.9077
  862MOL0     H16335   9.473   9.549   5.712  1.1084  1.4819  0.9500
  862MOL0     H16336   9.393   9.410   5.880 -1.5164  2.7177  1.8378
  862MOL0     H16337   9.556   9.366   5.944  2.1908  0.3759 -0.9387
  862MOL0     H16338   9.397   9.494   6.074 -0.2347  0.3404 -1.0173
  862MOL0     H16339   9.570   9.541   6.073  1.2050  1.6297 -0.9650
  862MOL0     H16340   9.299   9.653   5.984  0.0871  2.0746 -0.4150
  862MOL0     H16341   9.416   9.708   5.882 -0.5172 -0.1864  1.2011
  862MOL0     H16342   9.387   9.874   6.060  1.9392 -0.8242 -1.2059
  862MOL0     H16343   9.539   9.792   6.102  0.2596 -0.7345 -0.8274
  862MOL0     H16344   9.260   9.729   6.224 -0.0692 -1.5790  0.7075
  862MOL0     H16345   9.416   9.647   6.265 -0.0350  1.2209 -0.4327
  862MOL0     H16346   9.318   9.861   6.399  0.4709  2.7643 -0.1767
  862MOL0     H16347   9.415   9.936   6.271 -1.6850  0.3734 -0.7554
  862MOL0     H16348   9.519   9.725   6.476 -2.2512  0.9904  1.0702
  862MOL0     H16349   9.614   9.804   6.346  0.8991  0.4353  0.9941
  862MOL0     H16350   9.317   9.409   5.642 -3.2593 -0.7522 -0.8157
  862MOL0     H16351   9.181   9.238   5.575 -0.1574 -2.2333 -1.7243
  862MOL0     H16352   9.095   8.834   5.590  3.7790  0.5643  1.4919
  862MOL0     H16353   9.001   8.616   5.641  1.0424 -0.7770  1.3569
  862MOL0     H16354   7.754   7.725   4.714 -0.3369  1.2375  0.6942
  862MOL0     H16355   7.509   7.667   4.687 -0.3783  1.0312  1.1865
  862MOL0     H16356   7.090   7.813   4.567  2.0998  0.3422 -0.4950
  862MOL0     H16357   6.877   7.685   4.572  0.4764  0.1230  0.6957
  862MOL0     H16358   6.817   7.318   4.311 -0.3058 -1.3733 -0.8076
  862MOL0     H16359   6.783   7.459   4.216 -1.8555  0.1247 -0.4118
  862MOL0     H16360   6.590   7.431   4.206  0.8047 -1.6257 -1.6020
  862MOL0     H16361   6.557   7.449   4.387  2.7524  2.0069  0.6118
  862MOL0     H16362   6.461   7.243   4.342 -0.9248  1.9232 -2.1475
  862MOL0     H16363   6.611   7.201   4.390  2.1405  0.0948 -1.5060
  862MOL0     H16364   6.702   7.166   4.151  0.2060  2.6879  1.4470
  862MOL0     H16365   6.557   7.073   4.177  0.5511 -0.3504 -2.0943
  862MOL0     H16366   6.409   7.376   3.920 -0.1708 -1.3176 -2.0763
  862MOL0     H16367   6.994   7.485   4.216  0.7354  0.3712  0.4077
  862MOL0     H16368   7.314   7.607   4.178  0.7226 -0.8775 -3.5602
  862MOL0     H16369   7.162   7.575   4.072  0.1237  0.9002 -0.8895
  862MOL0     H16370   7.202   7.731   4.113  1.4545 -0.1236 -0.4322
  863MOL0     O16371   4.716  10.834   1.605  0.7912 -0.6451 -0.4108
  863MOL0     C16372   4.664  10.757   1.678  0.2725  0.1149 -0.2727
  863MOL0     O16373   4.706  10.734   1.809  0.3784  0.0008  0.3259
  863MOL0     C16374   4.815  10.817   1.847 -0.6479  0.4021  0.5045
  863MOL0     C16375   4.942  10.767   1.860  0.0394  0.4831  0.1994
  863MOL0     C16376   5.047  10.839   1.900 -0.4204 -0.0847 -0.2908
  863MOL0     C16377   5.027  10.982   1.924  0.7309  0.6155  0.0751
  863MOL0     O16378   5.125  11.063   1.967  0.0465 -0.0364  0.8252
  863MOL0     C16379   5.209  11.118   1.866 -0.0982  0.0141 -0.0705
  863MOL0     C16380   5.333  11.181   1.935  0.2377  0.1150  0.1659
  863MOL0     C16381   5.452  11.079   1.953  0.3197 -0.6473 -0.8542
  863MOL0     C16382   5.478  11.048   2.103  0.3461 -0.1680 -0.6001
  863MOL0     C16383   5.589  10.944   2.137  0.5174  0.7400  0.0144
  863MOL0     C16384   5.551  10.801   2.086 -0.1007  0.5369  0.1420
  863MOL0     C16385   5.654  10.691   2.129 -0.5257 -0.4566  0.6798
  863MOL0     C16386   5.793  10.719   2.070  0.2500  0.5914 -0.4317
  863MOL0     N16387   5.873  10.612   2.118  0.4815  1.4301  0.2662
  863MOL0     C16388   5.924  10.602   2.254  0.1070 -0.0979  0.5009
  863MOL0     C16389   6.001  10.492   2.252 -0.6304 -0.2249 -0.0639
  863MOL0     C16390   6.079  10.439   2.375  0.2470 -0.2836  0.0599
  863MOL0     C16391   6.230  10.422   2.342  0.2034 -0.6417  0.8959
  863MOL0     C16392   6.279  10.294   2.414  0.2698  0.0208  0.0881
  863MOL0     C16393   6.422  10.301   2.453  0.1213 -0.3261 -0.2261
  863MOL0     O16394   6.448  10.181   2.531 -0.6860  0.0691 -0.1562
  863MOL0     C16395   6.543  10.215   2.631  0.0732 -0.3068 -1.0160
  863MOL0     C16396   6.539  10.125   2.741 -0.0481 -0.1495 -0.0604
  863MOL0     C16397   6.641  10.131   2.843  0.3703 -0.2886 -0.0562
  863MOL0     C16398   6.736  10.236   2.840  0.8332  0.0284  0.4876
  863MOL0     C16399   6.824  10.268   2.948  0.1948 -0.0967 -0.9398
  863MOL0     O16400   6.883  10.393   2.954  0.0919 -0.3565 -0.4696
  863MOL0     C16401   6.969  10.419   3.061 -0.7911  0.2844  0.7679
  863MOL0     C16402   6.924  10.479   3.184  0.1597 -0.0782 -1.0172
  863MOL0     C16403   7.017  10.499   3.285 -0.1506 -0.3259 -0.3178
  863MOL0     C16404   7.153  10.463   3.271  0.2428 -0.2083  0.1745
  863MOL0     O16405   7.244  10.487   3.372 -0.2515 -0.1754  0.1001
  863MOL0     C16406   7.202  10.561   3.490  0.5078  0.3897 -0.4126
  863MOL0     C16407   7.314  10.580   3.590  0.1303 -0.3896 -0.2461
  863MOL0     C16408   7.262  10.634   3.730 -0.2367 -0.0027  0.9683
  863MOL0     C16409   7.382  10.668   3.816  0.1938 -0.4278  0.0521
  863MOL0     C16410   7.341  10.716   3.947 -0.2303  0.4751 -0.1990
  863MOL0     C16411   7.272  10.614   4.038  0.8878  0.4861  0.1137
  863MOL0     C16412   7.230  10.659   4.172  0.5109  0.6266  0.1248
  863MOL0     C16413   7.184  10.547   4.257 -0.3924 -0.0483 -0.3809
  863MOL0    Cl16414   7.315  10.426   4.288  0.2154  0.1514  0.7231
  863MOL0     C16415   7.193  10.405   3.147  0.2867 -0.3706  0.1622
  863MOL0     C16416   7.103  10.382   3.044  0.4534  0.3987  0.2652
  863MOL0     O16417   6.835  10.184   3.037 -0.3480  0.3538  0.0641
  863MOL0     C16418   6.743  10.323   2.726  0.2247  0.5333  0.4658
  863MOL0     C16419   6.656  10.303   2.625  0.3803  0.0576  0.5118
  863MOL0     N16420   6.006  10.439   2.128  0.4865 -0.6679  0.2869
  863MOL0     N16421   5.929  10.507   2.046  0.3094 -0.5872 -0.5547
  863MOL0     C16422   4.906  11.038   1.915  0.7849  0.0784 -0.1218
  863MOL0     C16423   4.802  10.957   1.868  0.8303  0.4618 -0.0611
  863MOL0     C16424   4.556  10.671   1.624  0.0770  0.3902 -0.1704
  863MOL0     C16425   4.529  10.550   1.691 -0.4264 -0.0062 -0.0824
  863MOL0     C16426   4.413  10.475   1.671 -0.3934 -1.2878  0.1751
  863MOL0     C16427   4.330  10.504   1.568  0.6179  0.3999 -0.4541
  863MOL0     O16428   4.226  10.418   1.564 -0.5487 -0.3954  0.4266
  863MOL0     C16429   4.136  10.460   1.459  0.0278 -0.1655 -0.6835
  863MOL0     C16430   4.031  10.346   1.449 -0.3211  0.1553  0.2067
  863MOL0     C16431   3.950  10.376   1.323  0.7868  0.1028  0.4238
  863MOL0     C16432   3.824  10.287   1.329  0.3188 -0.6919 -0.0474
  863MOL0     C16433   3.786  10.282   1.186 -0.1647  0.0239  0.6512
  863MOL0     C16434   3.739  10.271   1.073  0.7291  0.8197 -0.0479
  863MOL0     C16435   4.362  10.621   1.493  0.0406  0.4078 -0.9932
  863MOL0     C16436   4.475  10.695   1.508 -0.2966 -0.6636  0.4753
  863MOL0     C16437   4.497  10.817   1.415 -0.7751 -0.7315  0.2516
  863MOL0     H16438   4.950  10.659   1.845  0.3006  0.6331 -0.8493
  863MOL0     H16439   5.144  10.794   1.919 -0.4309 -0.4434 -1.0207
  863MOL0     H16440   5.240  11.039   1.798  1.3523 -1.3754  2.0898
  863MOL0     H16441   5.154  11.193   1.808  0.4122 -1.1007 -2.0899
  863MOL0     H16442   5.299  11.221   2.030 -0.7536 -2.2794  0.8962
  863MOL0     H16443   5.371  11.264   1.875 -2.4181  0.3799 -1.3089
  863MOL0     H16444   5.551  11.113   1.920  1.2564 -2.0803  0.2798
  863MOL0     H16445   5.433  10.979   1.912  0.1894 -0.8195 -0.3840
  863MOL0     H16446   5.495  11.147   2.144  2.0541  1.6382 -5.0112
  863MOL0     H16447   5.392  11.006   2.155  1.8612  0.6089  2.8035
  863MOL0     H16448   5.687  10.974   2.098  1.5946 -0.9230  1.2671
  863MOL0     H16449   5.607  10.933   2.245  1.0040  2.9618  0.2092
  863MOL0     H16450   5.449  10.777   2.118  1.0241 -2.2405  2.0276
  863MOL0     H16451   5.535  10.806   1.978 -2.6685 -0.6337  0.3949
  863MOL0     H16452   5.623  10.595   2.088  1.1513 -0.3204 -1.0423
  863MOL0     H16453   5.658  10.688   2.238  0.5102  1.4116  0.7419
  863MOL0     H16454   5.789  10.717   1.961 -0.5189 -0.7726 -0.3982
  863MOL0     H16455   5.818  10.818   2.109  0.4299  0.6744 -0.7510
  863MOL0     H16456   5.917  10.672   2.337  1.7356  0.2530  0.3874
  863MOL0     H16457   6.080  10.511   2.457  4.0600  1.9344 -1.6850
  863MOL0     H16458   6.034  10.346   2.413 -0.2781  1.0121  2.8684
  863MOL0     H16459   6.250  10.411   2.235 -0.2876 -0.3260  0.7701
  863MOL0     H16460   6.288  10.508   2.376  0.1597 -0.8232  1.4535
  863MOL0     H16461   6.268  10.206   2.350  3.0701 -1.4417  1.3978
  863MOL0     H16462   6.229  10.275   2.510  1.5969  0.6242  0.9453
  863MOL0     H16463   6.424  10.388   2.519  0.0844  0.6296 -1.4543
  863MOL0     H16464   6.477  10.303   2.359  1.8532 -0.7978  0.7324
  863MOL0     H16465   6.465  10.045   2.740 -2.0895  1.6459 -1.1845
  863MOL0     H16466   6.622  10.059   2.922  2.0476 -2.2339 -1.3108
  863MOL0     H16467   6.822  10.515   3.197  0.7779  1.6477 -0.6415
  863MOL0     H16468   6.975  10.557   3.366  0.5845 -0.6219  0.2852
  863MOL0     H16469   7.164  10.659   3.461 -2.3504 -0.3696  0.4781
  863MOL0     H16470   7.118  10.514   3.541  0.2574  1.6905  0.4329
  863MOL0     H16471   7.366  10.487   3.615  2.3810  0.9605  0.4347
  863MOL0     H16472   7.385  10.653   3.551  0.1768  1.1047  2.3886
  863MOL0     H16473   7.204  10.723   3.700  1.3010  0.9647  0.7538
  863MOL0     H16474   7.197  10.559   3.777  0.3463 -2.1892 -1.4772
  863MOL0     H16475   7.440  10.743   3.761 -3.5304  2.0295 -0.8918
  863MOL0     H16476   7.450  10.582   3.823 -1.1518 -1.4826  0.5045
  863MOL0     H16477   7.273  10.801   3.946 -2.8327 -1.4322  1.0534
  863MOL0     H16478   7.434  10.747   3.997  0.4612  0.4505 -1.4308
  863MOL0     H16479   7.183  10.567   3.995 -0.5938  1.8159  1.6001
  863MOL0     H16480   7.354  10.542   4.046  0.5479  0.2316  1.5470
  863MOL0     H16481   7.139  10.720   4.164 -1.0587 -1.4465  1.2895
  863MOL0     H16482   7.312  10.718   4.214  1.3212 -0.0807 -0.4431
  863MOL0     H16483   7.153  10.584   4.355  1.8113  1.2433 -0.1278
  863MOL0     H16484   7.104  10.488   4.209  1.9151 -3.2217 -0.6591
  863MOL0     H16485   7.297  10.374   3.144 -0.0460 -1.6763  1.2334
  863MOL0     H16486   7.129  10.334   2.950 -4.2505  1.6174 -1.9150
  863MOL0     H16487   6.811  10.407   2.720  2.0987 -1.0173 -1.7070
  863MOL0     H16488   6.646  10.366   2.538 -2.5718  0.7626  1.2278
  863MOL0     H16489   4.875  11.135   1.952 -1.3907 -0.8734  0.7105
  863MOL0     H16490   4.699  10.991   1.862  1.3748  2.3974  0.6043
  863MOL0     H16491   4.584  10.528   1.782 -0.5837  0.7414  0.2057
  863MOL0     H16492   4.388  10.394   1.738 -0.9947  1.0523  2.9394
  863MOL0     H16493   4.182  10.477   1.362  0.2245  1.4762 -0.3340
  863MOL0     H16494   4.077  10.550   1.479  0.4305 -0.3613  1.8023
  863MOL0     H16495   3.972  10.336   1.541 -0.0443  0.5297  0.4254
  863MOL0     H16496   4.084  10.251   1.438  1.4736  0.5892  3.5355
  863MOL0     H16497   4.017  10.357   1.238  1.7653 -0.6574  1.3456
  863MOL0     H16498   3.937  10.484   1.320  4.4507  0.6792 -2.0999
  863MOL0     H16499   3.859  10.190   1.365 -0.2099 -1.1486 -0.7501
  863MOL0     H16500   3.738  10.321   1.387 -0.4350 -2.5658 -0.0040
  863MOL0     H16501   3.714  10.263   0.969  2.0655 -2.8601 -0.2524
  863MOL0     H16502   4.303  10.638   1.403 -2.3454 -0.2690  0.3406
  863MOL0     H16503   4.460  10.905   1.468 -1.6007 -0.7765 -0.2384
  863MOL0     H16504   4.593  10.829   1.365 -2.4893 -2.1215 -3.8161
  863MOL0     H16505   4.441  10.796   1.324  3.9482 -3.6416 -2.3797
  864MOL0     O16506   7.413   9.150   9.792 -0.4376  0.0961 -0.0509
  864MOL0     C16507   7.440   9.266   9.825  0.3753 -0.6879 -0.5677
  864MOL0     O16508   7.564   9.312   9.852  0.0329  0.6469 -0.5392
  864MOL0     C16509   7.666   9.220   9.885  0.0533  1.4725  0.0564
  864MOL0     C16510   7.663   9.087   9.941  0.0857  0.0951 -0.3635
  864MOL0     C16511   7.779   9.012   9.952  0.3894 -0.1783  0.3695
  864MOL0     C16512   7.906   9.059   9.917  0.1111  0.1231  0.3847
  864MOL0     O16513   8.015   8.979   9.942 -0.2604  0.3499  0.0928
  864MOL0     C16514   8.149   9.028   9.941  0.5416  0.1271  0.4697
  864MOL0     C16515   8.243   8.945  10.036 -0.1414 -0.6177 -0.0447
  864MOL0     C16516   8.383   9.001  10.037 -0.4853  0.4972  0.3268
  864MOL0     C16517   8.477   8.933   9.935  0.6254  0.0914  0.2796
  864MOL0     C16518   8.614   8.988   9.943  0.1600  1.0164 -0.1552
  864MOL0     C16519   8.688   8.913   9.832 -0.2574 -0.1140  0.0251
  864MOL0     C16520   8.827   8.968   9.809 -0.5477 -0.8623  0.0524
  864MOL0     C16521   8.916   8.870   9.736  0.5488 -0.1603  0.1471
  864MOL0     N16522   8.912   8.891   9.590 -0.6193 -0.0391  0.6121
  864MOL0     C16523   8.955   8.999   9.525  0.2574  0.1278 -0.5671
  864MOL0     C16524   8.940   8.968   9.398  0.6231 -0.4153 -0.1509
  864MOL0     C16525   8.990   9.053   9.282 -0.4850 -0.5038 -0.5040
  864MOL0     C16526   9.144   9.036   9.258  0.3878 -0.2672 -0.9575
  864MOL0     C16527   9.204   9.068   9.120 -0.4721 -0.4608 -0.0757
  864MOL0     C16528   9.355   9.034   9.121  0.1972  0.1099  0.6837
  864MOL0     O16529   9.426   9.106   9.227  0.1744 -0.1619  0.1872
  864MOL0     C16530   9.561   9.097   9.235 -0.9596  0.2439 -0.2356
  864MOL0     C16531   9.651   9.064   9.129  0.4007  0.6081  0.5003
  864MOL0     C16532   9.788   9.055   9.147  1.3183  1.0578  0.1134
  864MOL0     C16533   9.838   9.099   9.273 -0.6061  1.3843  0.4788
  864MOL0     C16534   9.983   9.085   9.286 -0.6736  0.1774 -0.2825
  864MOL0     O16535  10.061   9.049   9.176  0.5358  0.0366  0.0670
  864MOL0     C16536  10.191   9.033   9.209 -0.4830  0.0772  0.7072
  864MOL0     C16537  10.277   9.118   9.141 -0.7286  0.1324 -0.1325
  864MOL0     C16538  10.413   9.107   9.164 -0.0686  0.8133  0.4485
  864MOL0     C16539  10.473   9.023   9.253  0.5185 -0.2019 -0.4204
  864MOL0     O16540  10.607   9.028   9.271 -0.9832  0.1992 -0.3129
  864MOL0     C16541  10.665   8.963   9.387  0.1720 -0.3426 -0.1030
  864MOL0     C16542  10.824   8.973   9.398 -0.5255 -0.7126 -0.0056
  864MOL0     C16543  10.873   9.034   9.540 -0.5375  1.1108  0.3471
  864MOL0     C16544  11.008   8.960   9.589  0.3333  0.0488  0.4144
  864MOL0     C16545  11.131   8.990   9.497  0.4824 -0.0969  0.1419
  864MOL0     C16546  11.227   9.090   9.561  0.0490 -0.3533 -0.0766
  864MOL0     C16547  11.348   9.106   9.476  0.0420 -0.1078  0.4089
  864MOL0     C16548  11.455   9.210   9.544 -1.0293 -0.2026 -0.1667
  864MOL0    Cl16549  11.369   9.374   9.550 -0.3164  0.0582 -0.3079
  864MOL0     C16550  10.384   8.939   9.322 -1.0049 -0.5569 -0.0684
  864MOL0     C16551  10.246   8.937   9.290 -0.3569 -0.2560 -0.9972
  864MOL0     O16552  10.022   9.104   9.399 -0.2864  0.9414  0.1582
  864MOL0     C16553   9.750   9.125   9.379 -0.5862  0.4088  0.5746
  864MOL0     C16554   9.614   9.120   9.361 -1.1962  0.8431 -0.4473
  864MOL0     N16555   8.869   8.851   9.384 -0.3149  0.0427  0.2314
  864MOL0     N16556   8.849   8.803   9.501 -0.1876 -0.0559  0.0811
  864MOL0     C16557   7.909   9.177   9.845  0.2549 -0.0166  0.5895
  864MOL0     C16558   7.790   9.261   9.831 -0.2429  0.1077 -0.6057
  864MOL0     C16559   7.322   9.353   9.851 -0.0060  0.9399 -0.0307
  864MOL0     C16560   7.215   9.287   9.908  0.4027 -0.6906  0.2287
  864MOL0     C16561   7.103   9.355   9.945  0.4428  0.1201  0.6688
  864MOL0     C16562   7.085   9.491   9.910  0.0998 -0.3745 -1.0527
  864MOL0     O16563   6.960   9.558   9.939 -0.0146  0.3745  0.0215
  864MOL0     C16564   6.940   9.692   9.880 -0.3960  1.2307  0.1658
  864MOL0     C16565   6.802   9.747   9.921 -0.6693 -0.0948  0.7155
  864MOL0     C16566   6.766   9.883   9.853 -0.6894 -0.0296 -0.3377
  864MOL0     C16567   6.624   9.937   9.892  0.2897  0.5965 -0.2918
  864MOL0     C16568   6.514   9.854   9.846  0.8184  0.4798 -0.0628
  864MOL0     C16569   6.437   9.780   9.788  0.0771  1.1263 -0.9547
  864MOL0     C16570   7.199   9.560   9.860 -0.4262 -0.1481  0.1193
  864MOL0     C16571   7.317   9.488   9.828  1.1112  0.1184  1.1418
  864MOL0     C16572   7.432   9.543   9.750  0.2265  0.3504 -0.1699
  864MOL0     H16573   7.566   9.045   9.968 -0.4344  1.6160  0.2176
  864MOL0     H16574   7.771   8.908   9.983 -0.9938 -1.0186 -2.4334
  864MOL0     H16575   8.189   9.032   9.840  0.8486  2.5270  0.6308
  864MOL0     H16576   8.145   9.133   9.970 -0.8191  0.5300 -1.0014
  864MOL0     H16577   8.237   8.841  10.004 -0.6618  0.1196 -2.6213
  864MOL0     H16578   8.204   8.958  10.137  2.1134  0.7288  0.7290
  864MOL0     H16579   8.426   8.990  10.137  0.0482 -4.9265 -0.2023
  864MOL0     H16580   8.379   9.109  10.017 -0.1680  0.2768 -0.9677
  864MOL0     H16581   8.466   8.824   9.949  0.9116  0.2646  2.1447
  864MOL0     H16582   8.437   8.956   9.836 -0.9797 -1.4026  0.5197
  864MOL0     H16583   8.605   9.093   9.913 -3.2783  1.3741  1.6279
  864MOL0     H16584   8.661   8.981  10.041 -0.8706  1.7214  0.4026
  864MOL0     H16585   8.704   8.810   9.865  2.3628  0.2391  0.0858
  864MOL0     H16586   8.628   8.918   9.740 -2.5735  0.5504  1.5042
  864MOL0     H16587   8.876   8.987   9.905  0.6627  1.9503 -0.9825
  864MOL0     H16588   8.821   9.063   9.754  0.5353  0.4277  2.0352
  864MOL0     H16589   9.020   8.888   9.765  0.3028 -0.3615  1.2213
  864MOL0     H16590   8.881   8.768   9.756  1.9554 -0.6997  0.0059
  864MOL0     H16591   9.006   9.085   9.567 -2.2255  1.8215 -0.8299
  864MOL0     H16592   8.947   9.018   9.188 -1.6564 -1.1041  0.2337
  864MOL0     H16593   8.969   9.158   9.304 -2.1266 -0.6104 -1.3985
  864MOL0     H16594   9.199   9.092   9.334 -2.0400 -0.8554  1.3757
  864MOL0     H16595   9.168   8.931   9.278  0.2106 -0.6912 -2.8084
  864MOL0     H16596   9.185   9.174   9.100 -1.0038 -0.1914  1.6712
  864MOL0     H16597   9.152   9.005   9.047 -0.7408  0.1063 -0.3769
  864MOL0     H16598   9.387   9.057   9.019  2.5336  0.0082  1.3374
  864MOL0     H16599   9.363   8.926   9.139 -5.6822 -0.6667  0.5858
  864MOL0     H16600   9.607   9.041   9.032  0.8118 -2.1047  0.8694
  864MOL0     H16601   9.851   9.024   9.064  1.7169  0.9645  0.4466
  864MOL0     H16602  10.232   9.186   9.070  0.0402 -1.4452 -2.2112
  864MOL0     H16603  10.477   9.170   9.103 -3.5222  2.2955 -2.0246
  864MOL0     H16604  10.615   8.999   9.478  0.1033 -1.3192  0.2637
  864MOL0     H16605  10.646   8.856   9.369 -0.1711 -0.4598  0.8790
  864MOL0     H16606  10.873   8.876   9.389 -2.1636 -1.7372  1.5735
  864MOL0     H16607  10.856   9.041   9.318 -0.7472  0.4694  0.8909
  864MOL0     H16608  10.893   9.142   9.543 -0.0584  1.0106  1.7683
  864MOL0     H16609  10.802   9.013   9.621  0.7313  0.3600  1.3117
  864MOL0     H16610  10.981   8.854   9.595 -1.3439  0.5159  1.6136
  864MOL0     H16611  11.024   9.003   9.688  3.5416 -1.0001  0.4677
  864MOL0     H16612  11.089   9.029   9.403 -3.7670  0.5002  2.0652
  864MOL0     H16613  11.189   8.901   9.471 -0.2331 -1.4213  2.7170
  864MOL0     H16614  11.173   9.185   9.565 -1.1258 -1.0247  0.6017
  864MOL0     H16615  11.259   9.052   9.659  1.8811  0.3283 -0.3810
  864MOL0     H16616  11.318   9.136   9.375 -0.1004 -0.0197  0.4751
  864MOL0     H16617  11.396   9.009   9.467  1.1855  0.2887  1.7546
  864MOL0     H16618  11.494   9.192   9.645  2.1619 -0.0135 -1.2732
  864MOL0     H16619  11.545   9.220   9.484  0.1087 -2.1999  1.0975
  864MOL0     H16620  10.412   8.862   9.394 -0.1396  2.0595  2.5811
  864MOL0     H16621  10.174   8.864   9.326  0.3891 -0.8936 -0.7686
  864MOL0     H16622   9.798   9.137   9.476  3.9342  4.5704 -1.7229
  864MOL0     H16623   9.548   9.143   9.445 -0.0306  4.5181 -0.3417
  864MOL0     H16624   8.002   9.207   9.798  2.0330  1.4914  4.6311
  864MOL0     H16625   7.794   9.347   9.766  0.3734 -0.6469 -1.5947
  864MOL0     H16626   7.223   9.180   9.921  0.1882 -0.5478  1.6638
  864MOL0     H16627   7.019   9.299   9.983  0.2609 -1.1111 -1.3683
  864MOL0     H16628   6.943   9.682   9.772  0.2270  1.8970  0.1157
  864MOL0     H16629   7.014   9.768   9.906 -2.5184  2.8626  1.9030
  864MOL0     H16630   6.796   9.761  10.029 -0.3458  0.0154  0.7205
  864MOL0     H16631   6.725   9.675   9.892 -0.1662 -0.1495 -0.5488
  864MOL0     H16632   6.764   9.870   9.744 -4.8597 -0.5049 -0.3520
  864MOL0     H16633   6.842   9.959   9.876 -0.6905 -0.5356  1.4171
  864MOL0     H16634   6.630   9.943  10.001  2.1078  2.2302 -0.4256
  864MOL0     H16635   6.614  10.037   9.848 -2.3610 -0.4273 -2.3085
  864MOL0     H16636   6.379   9.706   9.736 -0.5955  0.1798  1.0343
  864MOL0     H16637   7.181   9.664   9.836  0.5050  0.4607  1.8902
  864MOL0     H16638   7.448   9.494   9.654  1.0468 -1.4220  0.8235
  864MOL0     H16639   7.418   9.650   9.730 -0.9499  0.2176 -0.1315
  864MOL0     H16640   7.522   9.538   9.812  1.1503 -0.7628 -1.5552
  865MOL0     O16641   9.437   7.960   8.555  0.0322 -0.5226  0.5440
  865MOL0     C16642   9.347   8.005   8.623 -0.4078  0.5537  0.2981
  865MOL0     O16643   9.331   8.123   8.672  0.5544  0.2043 -0.7235
  865MOL0     C16644   9.436   8.196   8.702 -0.2621 -1.0397  0.4771
  865MOL0     C16645   9.446   8.323   8.640  0.3063  0.6259 -0.3833
  865MOL0     C16646   9.559   8.407   8.666  0.3461  0.8064 -0.4642
  865MOL0     C16647   9.666   8.360   8.739  0.4892  0.2925 -0.3353
  865MOL0     O16648   9.764   8.454   8.777  0.3870  0.0813  0.1299
  865MOL0     C16649   9.891   8.389   8.773  0.0759 -0.7636 -0.1087
  865MOL0     C16650   9.997   8.492   8.718 -0.0614  0.6041 -1.3963
  865MOL0     C16651  10.140   8.444   8.731 -0.7056  0.3201  0.1098
  865MOL0     C16652  10.224   8.517   8.629  0.1111 -0.6413  0.7820
  865MOL0     C16653  10.382   8.489   8.654  0.0875  0.2486  0.5049
  865MOL0     C16654  10.457   8.538   8.531 -0.0082  0.6954  0.1962
  865MOL0     C16655  10.600   8.530   8.559  0.4599  1.0182 -0.2174
  865MOL0     C16656  10.681   8.479   8.438  0.4440 -0.2741 -0.2057
  865MOL0     N16657  10.716   8.590   8.341 -0.3805 -0.1125  0.1476
  865MOL0     C16658  10.710   8.590   8.205 -0.8489  0.8191 -0.9391
  865MOL0     C16659  10.744   8.709   8.159 -0.2060  0.2413 -0.2345
  865MOL0     C16660  10.770   8.736   8.011  0.2146 -0.1534 -0.3591
  865MOL0     C16661  10.916   8.738   7.984  0.6292 -1.1130 -0.3490
  865MOL0     C16662  10.960   8.769   7.840 -0.2857 -0.1355 -0.4206
  865MOL0     C16663  11.117   8.760   7.810  0.4425 -0.0737 -0.4122
  865MOL0     O16664  11.178   8.884   7.846  0.8083  0.7467  0.2160
  865MOL0     C16665  11.321   8.892   7.848 -0.6362 -0.4746 -0.2050
  865MOL0     C16666  11.400   8.791   7.797 -0.3389  0.3367 -0.3137
  865MOL0     C16667  11.538   8.813   7.782  0.3879 -0.5655 -0.2126
  865MOL0     C16668  11.595   8.936   7.819 -0.1698  0.3906 -0.2764
  865MOL0     C16669  11.743   8.961   7.806 -0.4978  0.4155  0.1351
  865MOL0     O16670  11.786   9.084   7.759  0.0266 -0.1309 -0.4214
  865MOL0     C16671  11.920   9.091   7.736  0.0486 -0.4908 -0.0299
  865MOL0     C16672  12.018   9.120   7.835  0.6192  0.9734  1.1566
  865MOL0     C16673  12.150   9.100   7.799 -0.2704 -0.9634 -0.4878
  865MOL0     C16674  12.194   9.085   7.673  0.3966 -0.1381  0.2832
  865MOL0     O16675  12.326   9.086   7.663 -0.1166 -0.1648 -0.7892
  865MOL0     C16676  12.385   9.014   7.562 -0.2199 -0.0809  0.0428
  865MOL0     C16677  12.534   9.039   7.548 -0.3959 -0.0232  0.8255
  865MOL0     C16678  12.621   8.923   7.522  0.3019 -0.9548 -0.4631
  865MOL0     C16679  12.768   8.961   7.490 -0.2471  0.4017  0.0616
  865MOL0     C16680  12.857   8.838   7.481 -0.6742  0.2859 -0.5963
  865MOL0     C16681  12.897   8.779   7.618  0.6409 -1.1563  0.1253
  865MOL0     C16682  13.024   8.691   7.608  0.3171  0.3788  0.0236
  865MOL0     C16683  13.047   8.627   7.749 -0.1208  0.7311 -0.7035
  865MOL0    Cl16684  13.067   8.750   7.878 -0.3181  0.2453  0.2007
  865MOL0     C16685  12.097   9.077   7.569  0.3134  0.7074  0.3723
  865MOL0     C16686  11.962   9.075   7.603 -0.5654  0.1292  0.1868
  865MOL0     O16687  11.819   8.864   7.840  0.6035  1.4780  0.2097
  865MOL0     C16688  11.512   9.037   7.878  0.0286  0.5974  0.4247
  865MOL0     C16689  11.377   9.010   7.897 -0.2976  0.8672  0.2281
  865MOL0     N16690  10.777   8.790   8.270 -0.6065  0.4187 -0.3034
  865MOL0     N16691  10.762   8.719   8.372  0.4988  0.7705  0.0266
  865MOL0     C16692   9.658   8.226   8.796 -1.0345  0.6059  0.4178
  865MOL0     C16693   9.545   8.151   8.783 -0.4367  0.9757 -0.2589
  865MOL0     C16694   9.241   7.911   8.641  0.3842 -0.0242 -0.3459
  865MOL0     C16695   9.167   7.873   8.526  0.1097 -0.2733  0.4994
  865MOL0     C16696   9.057   7.792   8.532 -0.1169  0.1572 -0.0488
  865MOL0     C16697   9.012   7.752   8.658 -0.3325  0.2355 -0.1148
  865MOL0     O16698   8.908   7.666   8.678  0.2592  0.1791  0.1222
  865MOL0     C16699   8.841   7.613   8.562 -0.3054 -0.0958 -0.0648
  865MOL0     C16700   8.696   7.576   8.620 -1.1989 -0.7836  0.1935
  865MOL0     C16701   8.614   7.703   8.667  0.4272 -0.0832 -1.1015
  865MOL0     C16702   8.524   7.776   8.574  0.2650 -0.6668  0.4623
  865MOL0     C16703   8.579   7.800   8.450  0.2082  0.2729 -0.3073
  865MOL0     C16704   8.635   7.812   8.344 -0.4174 -0.1583 -0.4196
  865MOL0     C16705   9.084   7.786   8.776 -0.0973 -0.0370  0.4338
  865MOL0     C16706   9.198   7.871   8.770 -0.6457  0.3904 -0.9974
  865MOL0     C16707   9.275   7.917   8.891 -0.0047 -0.1067  0.1545
  865MOL0     H16708   9.355   8.358   8.592  0.0204 -0.1945 -0.4588
  865MOL0     H16709   9.572   8.496   8.605 -0.0788  0.7193 -0.6882
  865MOL0     H16710   9.917   8.378   8.879 -0.1573 -0.7812 -0.0543
  865MOL0     H16711   9.906   8.292   8.724  2.7527 -0.1086 -0.7598
  865MOL0     H16712   9.987   8.586   8.774  0.9407  0.4554 -0.9525
  865MOL0     H16713   9.972   8.519   8.615 -6.8220  3.0119  0.3678
  865MOL0     H16714  10.147   8.335   8.727 -2.2834  0.1927  0.1935
  865MOL0     H16715  10.182   8.462   8.830  1.9412 -0.6103 -0.7357
  865MOL0     H16716  10.211   8.478   8.528 -3.2288 -1.3176  1.3517
  865MOL0     H16717  10.206   8.624   8.631 -1.9304 -0.9475  0.7393
  865MOL0     H16718  10.408   8.537   8.749 -0.9286 -3.0663  2.6454
  865MOL0     H16719  10.405   8.382   8.668 -0.2132  0.1164  0.0232
  865MOL0     H16720  10.426   8.471   8.450  2.7388 -2.6027  1.6154
  865MOL0     H16721  10.422   8.641   8.522 -2.9956 -0.2027  0.3383
  865MOL0     H16722  10.616   8.460   8.641 -3.0111  0.1320 -0.1778
  865MOL0     H16723  10.640   8.627   8.593 -2.1069  2.7294 -1.7260
  865MOL0     H16724  10.769   8.437   8.487 -1.5800 -1.0495  3.0497
  865MOL0     H16725  10.636   8.389   8.394  2.1738 -1.2424 -0.0708
  865MOL0     H16726  10.707   8.498   8.148 -1.7675 -0.9850  1.8294
  865MOL0     H16727  10.719   8.667   7.942  2.0714 -0.2204 -1.7559
  865MOL0     H16728  10.727   8.833   7.985 -0.1146 -0.4986 -1.1599
  865MOL0     H16729  10.958   8.813   8.052 -0.7417 -2.2430  1.8711
  865MOL0     H16730  10.957   8.639   8.006  0.6201 -0.8736  0.8356
  865MOL0     H16731  10.922   8.865   7.804  0.8092  0.7505  0.6830
  865MOL0     H16732  10.922   8.696   7.768 -1.5985  0.3074 -0.2157
  865MOL0     H16733  11.134   8.741   7.704 -0.4979 -0.8530 -0.4495
  865MOL0     H16734  11.162   8.674   7.862  0.1075 -2.2068 -3.3748
  865MOL0     H16735  11.370   8.695   7.755 -1.3607  0.4363  0.1538
  865MOL0     H16736  11.593   8.733   7.733  1.2353 -1.1022  1.5439
  865MOL0     H16737  11.994   9.126   7.941  0.3276  0.3059  1.1333
  865MOL0     H16738  12.223   9.113   7.879 -1.9132 -0.4130  0.9926
  865MOL0     H16739  12.367   8.907   7.580 -0.9711  0.0232 -0.0667
  865MOL0     H16740  12.349   9.050   7.466 -2.9535 -0.3274  0.9079
  865MOL0     H16741  12.547   9.104   7.461 -1.2291 -1.5521 -0.4919
  865MOL0     H16742  12.568   9.095   7.636  0.3138  1.6874 -0.4819
  865MOL0     H16743  12.625   8.855   7.607  0.1210 -2.5598 -1.6806
  865MOL0     H16744  12.585   8.867   7.435 -0.6971  1.8182 -1.9534
  865MOL0     H16745  12.791   9.024   7.577 -2.2040  1.0026  0.1912
  865MOL0     H16746  12.765   9.025   7.401  1.1609  0.8137  0.2731
  865MOL0     H16747  12.950   8.872   7.435 -0.2748  3.4562  2.2020
  865MOL0     H16748  12.818   8.759   7.416 -1.4289 -0.8722  1.1779
  865MOL0     H16749  12.923   8.867   7.678 -2.8593  1.1780 -1.3941
  865MOL0     H16750  12.815   8.742   7.680  0.5317 -2.8970 -1.0025
  865MOL0     H16751  13.106   8.757   7.578  0.2825 -0.5926 -2.4904
  865MOL0     H16752  13.004   8.620   7.527  1.2217 -0.1762  0.2762
  865MOL0     H16753  12.959   8.572   7.783  0.6345  0.3442  0.7655
  865MOL0     H16754  13.132   8.558   7.750 -1.5370 -1.0941 -1.0536
  865MOL0     H16755  12.137   9.064   7.469 -0.2291 -0.5915  0.3051
  865MOL0     H16756  11.878   9.072   7.534 -0.1866  0.2042 -0.2746
  865MOL0     H16757  11.557   9.134   7.895  0.6803  0.3931 -0.0793
  865MOL0     H16758  11.308   9.077   7.948 -2.9943 -1.2912 -0.3784
  865MOL0     H16759   9.734   8.179   8.859 -1.3699  0.6392  0.8516
  865MOL0     H16760   9.530   8.058   8.836 -3.2338  2.9519  2.8159
  865MOL0     H16761   9.190   7.909   8.426  1.3977 -0.4837  0.7034
  865MOL0     H16762   9.003   7.778   8.439 -0.5897 -0.4303  0.3032
  865MOL0     H16763   8.886   7.529   8.508 -1.7760 -0.2641 -1.0922
  865MOL0     H16764   8.838   7.690   8.484  0.3102  0.3043  0.3023
  865MOL0     H16765   8.722   7.519   8.710 -1.1583  0.5954  1.0926
  865MOL0     H16766   8.642   7.515   8.547  0.6128 -1.4596 -0.6384
  865MOL0     H16767   8.676   7.777   8.719  1.5495 -0.1307 -2.3303
  865MOL0     H16768   8.540   7.662   8.738 -1.0731  1.3285 -1.7917
  865MOL0     H16769   8.438   7.710   8.569  1.5140 -3.1445  5.1710
  865MOL0     H16770   8.491   7.868   8.623  0.1034 -0.7761  0.5613
  865MOL0     H16771   8.699   7.800   8.259 -1.0816 -4.1946 -0.5211
  865MOL0     H16772   9.050   7.734   8.864 -0.0320 -0.9707 -0.0845
  865MOL0     H16773   9.247   7.852   8.974 -5.8355 -0.3879 -1.5496
  865MOL0     H16774   9.382   7.906   8.869 -0.8256 -2.4887 -3.4440
  865MOL0     H16775   9.244   8.019   8.911  0.3383  0.5554 -2.3173
  866MOL0     O16776   9.798   1.251   7.493 -0.5574  0.4733  0.0011
  866MOL0     C16777   9.756   1.349   7.553 -0.1207 -0.1637  0.0529
  866MOL0     O16778   9.835   1.459   7.594  1.0787  0.0637  0.0879
  866MOL0     C16779   9.968   1.458   7.567 -0.3257 -0.5876  0.5233
  866MOL0     C16780  10.056   1.520   7.663  0.8981  0.1840 -0.1471
  866MOL0     C16781  10.193   1.541   7.632 -0.0038 -0.1176 -0.2755
  866MOL0     C16782  10.253   1.491   7.514  0.6298  0.1727 -0.2237
  866MOL0     O16783  10.390   1.497   7.512  0.3137 -0.1836  0.6793
  866MOL0     C16784  10.457   1.391   7.440 -0.3524  0.4319  0.1832
  866MOL0     C16785  10.599   1.449   7.433 -0.4658  0.5360 -0.5019
  866MOL0     C16786  10.687   1.331   7.384  0.3726 -0.2550 -0.9294
  866MOL0     C16787  10.835   1.351   7.398  0.4463 -1.4634  0.4382
  866MOL0     C16788  10.921   1.238   7.342 -0.0623  0.5262 -0.5134
  866MOL0     C16789  11.070   1.270   7.358 -0.1498 -0.3423  0.3236
  866MOL0     C16790  11.160   1.144   7.333  1.3620 -0.8725 -0.4346
  866MOL0     C16791  11.306   1.169   7.343 -0.5314 -0.5715  0.5358
  866MOL0     N16792  11.352   1.292   7.281 -1.0147 -0.6205 -0.1666
  866MOL0     C16793  11.328   1.342   7.155  0.5678  0.1294  0.4821
  866MOL0     C16794  11.380   1.469   7.152  0.6220  0.3189  0.4647
  866MOL0     C16795  11.378   1.558   7.031 -1.0137  0.6250  0.4166
  866MOL0     C16796  11.489   1.523   6.930 -0.0255  0.6369 -0.1241
  866MOL0     C16797  11.630   1.509   6.976  0.4147  0.2612  0.9741
  866MOL0     C16798  11.741   1.554   6.880 -0.4039 -0.6502  1.0275
  866MOL0     O16799  11.745   1.491   6.749  0.7578  1.1510 -0.4927
  866MOL0     C16800  11.834   1.520   6.646  0.0136  0.6766 -0.4578
  866MOL0     C16801  11.907   1.643   6.653 -0.1676  0.3282 -0.0348
  866MOL0     C16802  11.997   1.677   6.549 -0.1945  0.0925 -0.4889
  866MOL0     C16803  12.012   1.589   6.436  0.8233  0.8975  0.8194
  866MOL0     C16804  12.112   1.609   6.327  0.4740 -0.0936  0.0612
  866MOL0     O16805  12.111   1.519   6.231 -0.1704 -0.6590 -0.3495
  866MOL0     C16806  12.239   1.514   6.170  0.8483  0.0789 -0.0934
  866MOL0     C16807  12.252   1.542   6.032  0.5458 -0.6064  0.3373
  866MOL0     C16808  12.376   1.537   5.966 -0.4467  0.3713  1.3291
  866MOL0     C16809  12.493   1.489   6.031  0.1011 -0.0746 -0.2536
  866MOL0     O16810  12.608   1.472   5.953 -0.8959  0.0560  0.3332
  866MOL0     C16811  12.735   1.477   6.010  0.5129  0.1516 -0.4588
  866MOL0     C16812  12.827   1.551   5.910  0.7195  0.4937 -0.2728
  866MOL0     C16813  12.932   1.648   5.981  0.8009  0.2973  0.1965
  866MOL0     C16814  13.067   1.571   5.995  0.3407 -0.3924  0.2705
  866MOL0     C16815  13.146   1.647   6.099 -0.4981  0.3766 -0.3045
  866MOL0     C16816  13.255   1.559   6.173  0.6001 -0.6503  0.2329
  866MOL0     C16817  13.340   1.652   6.263 -0.2494  0.3750 -0.8064
  866MOL0     C16818  13.476   1.598   6.293  0.0854  1.0985 -0.3673
  866MOL0    Cl16819  13.574   1.561   6.150 -0.4504  0.3190  0.0311
  866MOL0     C16820  12.482   1.464   6.170  0.7797  0.3856 -0.1532
  866MOL0     C16821  12.358   1.478   6.235  0.6451  0.5310 -0.3315
  866MOL0     O16822  12.185   1.708   6.334 -0.3600  0.2653  0.6044
  866MOL0     C16823  11.925   1.476   6.433 -0.0536 -0.5799  1.0199
  866MOL0     C16824  11.845   1.439   6.535  0.4578  0.4147  0.1238
  866MOL0     N16825  11.413   1.516   7.282 -0.1946  0.0587 -0.4582
  866MOL0     N16826  11.402   1.403   7.357  0.2575  0.6618  0.2485
  866MOL0     C16827  10.164   1.437   7.418  0.3540  0.0055 -1.0783
  866MOL0     C16828  10.028   1.423   7.443  0.4911  1.3472  0.5675
  866MOL0     C16829   9.619   1.357   7.602 -0.4410  0.4821  0.7801
  866MOL0     C16830   9.596   1.412   7.730 -0.1928 -0.1043  0.4639
  866MOL0     C16831   9.467   1.416   7.781 -0.5111  0.3820  0.7750
  866MOL0     C16832   9.356   1.356   7.711 -0.5482 -0.6432 -0.2210
  866MOL0     O16833   9.229   1.364   7.767  0.2625 -0.2050 -0.1038
  866MOL0     C16834   9.116   1.298   7.707  0.2754  0.5963  1.0090
  866MOL0     C16835   8.982   1.314   7.776  0.3826 -0.4302 -0.4413
  866MOL0     C16836   8.890   1.207   7.733  1.1314  0.4079  0.1877
  866MOL0     C16837   8.819   1.145   7.852 -0.4230 -1.3819  0.3173
  866MOL0     C16838   8.920   1.089   7.949  0.4121  0.3373 -0.6083
  866MOL0     C16839   9.005   1.059   8.027 -0.7436  1.1392  0.6573
  866MOL0     C16840   9.380   1.311   7.581 -0.0070 -0.1417 -0.9496
  866MOL0     C16841   9.512   1.310   7.522  0.2562  0.7331 -0.7870
  866MOL0     C16842   9.515   1.261   7.382  0.7279  0.6898  0.3227
  866MOL0     H16843   9.993   1.548   7.746 -0.1691 -0.8316 -0.5802
  866MOL0     H16844  10.256   1.592   7.704 -2.4659 -1.1780  2.8423
  866MOL0     H16845  10.448   1.291   7.485 -2.5931 -0.5910 -2.2368
  866MOL0     H16846  10.441   1.375   7.333  1.1628 -1.3204  0.1706
  866MOL0     H16847  10.627   1.472   7.536 -1.2608 -2.5874  0.5369
  866MOL0     H16848  10.595   1.533   7.363 -0.0717 -0.3272 -1.6011
  866MOL0     H16849  10.671   1.301   7.280  1.9295  0.1317 -1.3067
  866MOL0     H16850  10.663   1.248   7.451  1.4538 -0.0447 -0.2468
  866MOL0     H16851  10.872   1.434   7.336 -0.3432 -0.8858  0.7300
  866MOL0     H16852  10.864   1.370   7.501 -1.2921 -2.1642  1.0842
  866MOL0     H16853  10.894   1.159   7.413  0.8744 -0.0476 -0.7832
  866MOL0     H16854  10.908   1.200   7.241  5.1076 -1.0699 -0.8614
  866MOL0     H16855  11.103   1.347   7.287  3.0045 -1.7299  0.1340
  866MOL0     H16856  11.103   1.312   7.454  0.8179 -2.1803  0.8481
  866MOL0     H16857  11.138   1.116   7.230 -0.4603  0.8873 -0.5769
  866MOL0     H16858  11.129   1.062   7.399  0.5887 -0.3585 -0.1436
  866MOL0     H16859  11.334   1.182   7.448  0.4701  0.3003  0.1798
  866MOL0     H16860  11.360   1.077   7.319 -2.3562 -1.3916 -0.5772
  866MOL0     H16861  11.271   1.292   7.078  1.7144  1.7542 -1.5264
  866MOL0     H16862  11.281   1.534   6.986 -2.1469  0.9857  2.5299
  866MOL0     H16863  11.389   1.664   7.056 -1.2749  0.7121  0.1703
  866MOL0     H16864  11.455   1.432   6.879  2.2699 -1.8332  2.4013
  866MOL0     H16865  11.491   1.602   6.855  5.1977  1.1111  0.1496
  866MOL0     H16866  11.642   1.400   6.978 -1.0258  0.0471 -0.1090
  866MOL0     H16867  11.639   1.557   7.074  2.3813  0.9061  0.5180
  866MOL0     H16868  11.842   1.538   6.918 -0.9283 -2.3530  1.8317
  866MOL0     H16869  11.728   1.662   6.870 -2.7883 -0.9626 -0.1127
  866MOL0     H16870  11.905   1.704   6.743  4.7083 -0.8018  1.1800
  866MOL0     H16871  12.064   1.762   6.544 -0.4942  0.2800 -1.6477
  866MOL0     H16872  12.165   1.577   5.978 -0.8143 -0.9608  2.1947
  866MOL0     H16873  12.366   1.560   5.860  0.5804 -1.7224  0.7323
  866MOL0     H16874  12.742   1.527   6.107 -3.7270  2.0915 -0.9330
  866MOL0     H16875  12.770   1.375   6.027 -0.8093 -0.2570 -0.0934
  866MOL0     H16876  12.879   1.467   5.864  0.5131 -0.2835  0.8455
  866MOL0     H16877  12.769   1.611   5.839 -1.9523 -1.5162  0.0315
  866MOL0     H16878  12.939   1.743   5.928  1.4649  1.6846  2.6400
  866MOL0     H16879  12.888   1.668   6.079 -0.6808  1.5848 -0.7016
  866MOL0     H16880  13.117   1.571   5.898  0.2349  2.2966  0.1420
  866MOL0     H16881  13.043   1.467   6.020  1.3361 -0.6590  0.1710
  866MOL0     H16882  13.082   1.695   6.174 -0.9306  0.2405 -0.5795
  866MOL0     H16883  13.198   1.725   6.044  1.9585 -0.1290  1.1642
  866MOL0     H16884  13.208   1.484   6.238  3.0325 -0.6074  2.1914
  866MOL0     H16885  13.319   1.507   6.102  0.8286 -0.7545  0.5119
  866MOL0     H16886  13.283   1.653   6.356  1.9506 -1.1852  0.6505
  866MOL0     H16887  13.346   1.750   6.215 -0.3031  1.1537  0.7270
  866MOL0     H16888  13.532   1.670   6.353  0.4116  1.0871 -0.6533
  866MOL0     H16889  13.477   1.510   6.358  1.5963  1.7398  0.5191
  866MOL0     H16890  12.560   1.426   6.236 -2.9748 -2.9029  2.8728
  866MOL0     H16891  12.354   1.455   6.341  0.6152  1.4346 -0.1287
  866MOL0     H16892  11.927   1.426   6.337  0.8827 -0.3302  0.9020
  866MOL0     H16893  11.769   1.361   6.528 -0.3408  1.2170 -0.5288
  866MOL0     H16894  10.204   1.401   7.324  1.8458  2.2326 -1.3376
  866MOL0     H16895   9.957   1.385   7.370  0.2462 -0.1251  1.5288
  866MOL0     H16896   9.675   1.470   7.777  0.6249 -0.6342 -0.2214
  866MOL0     H16897   9.455   1.468   7.875  0.9067  0.2820  1.0375
  866MOL0     H16898   9.147   1.193   7.712 -0.0472  0.5608  2.7183
  866MOL0     H16899   9.098   1.319   7.601  2.8314 -2.5181 -0.2361
  866MOL0     H16900   8.934   1.406   7.742 -1.0988 -0.9685  0.0956
  866MOL0     H16901   8.990   1.318   7.885 -2.9756 -0.9455 -0.0704
  866MOL0     H16902   8.936   1.132   7.667 -1.2092  0.3401 -1.5243
  866MOL0     H16903   8.804   1.250   7.680 -1.0821 -0.9187  2.4777
  866MOL0     H16904   8.760   1.225   7.897  0.8316 -0.9031  1.1702
  866MOL0     H16905   8.762   1.054   7.833 -0.9557 -0.8386 -0.8088
  866MOL0     H16906   9.095   1.040   8.082 -0.5256 -1.2184 -0.3727
  866MOL0     H16907   9.290   1.276   7.532  0.0979 -0.3522 -0.9939
  866MOL0     H16908   9.416   1.271   7.336  1.9086  0.8976 -2.3931
  866MOL0     H16909   9.578   1.332   7.328  1.7507  2.2377  3.3320
  866MOL0     H16910   9.543   1.155   7.375  1.5549  0.4256  4.7638
  867MOL0     O16911   7.520   5.267   4.589 -0.6137 -0.1518  0.8571
  867MOL0     C16912   7.469   5.202   4.681 -1.2428  0.2234  0.4045
  867MOL0     O16913   7.537   5.136   4.780 -0.1560 -0.0830  0.5229
  867MOL0     C16914   7.661   5.089   4.746  0.6036 -0.2332  0.1477
  867MOL0     C16915   7.688   4.957   4.711 -0.2320 -0.2838  0.2454
  867MOL0     C16916   7.818   4.917   4.678  0.6485  1.1586 -0.1134
  867MOL0     C16917   7.910   5.012   4.641  0.4558 -0.4914  0.5773
  867MOL0     O16918   8.027   4.968   4.585  0.1681  0.0687  0.6330
  867MOL0     C16919   8.142   5.050   4.550 -0.1658 -0.3838  0.7539
  867MOL0     C16920   8.206   5.109   4.678 -0.5125 -0.2644  0.2188
  867MOL0     C16921   8.340   5.180   4.655  0.5261 -0.5415 -0.1224
  867MOL0     C16922   8.426   5.177   4.788  0.7625  0.1218 -0.2424
  867MOL0     C16923   8.557   5.106   4.761  0.8089 -0.3316 -0.2312
  867MOL0     C16924   8.645   5.074   4.884 -0.4553  0.2046  0.2601
  867MOL0     C16925   8.606   4.942   4.953  0.5218 -0.4628 -0.0661
  867MOL0     C16926   8.703   4.901   5.053 -0.1887 -0.5969 -0.1511
  867MOL0     N16927   8.695   4.760   5.088 -0.0765  0.0561  0.2904
  867MOL0     C16928   8.732   4.647   5.001 -0.0551 -0.5017  0.8659
  867MOL0     C16929   8.708   4.542   5.071 -0.1258  0.2578  0.2838
  867MOL0     C16930   8.733   4.402   5.012  0.9702 -0.4042 -0.9862
  867MOL0     C16931   8.758   4.301   5.126 -0.7183 -0.2983 -0.6684
  867MOL0     C16932   8.890   4.335   5.201 -0.1362  0.5997  0.4153
  867MOL0     C16933   8.941   4.221   5.284  0.1925  0.3970  0.1798
  867MOL0     O16934   9.037   4.264   5.375 -0.4637  0.8307 -0.4439
  867MOL0     C16935   9.164   4.300   5.334  0.1149 -0.9991 -0.8489
  867MOL0     C16936   9.220   4.294   5.212 -0.1615  0.3602 -0.1846
  867MOL0     C16937   9.353   4.334   5.185 -0.3697 -0.5940 -0.2100
  867MOL0     C16938   9.428   4.404   5.277  0.2874  0.2950 -0.0913
  867MOL0     C16939   9.560   4.464   5.246  0.5760 -0.1014 -0.4865
  867MOL0     O16940   9.606   4.444   5.114  0.4316 -0.2309 -0.9420
  867MOL0     C16941   9.724   4.495   5.068  0.0267  0.5127  0.1130
  867MOL0     C16942   9.848   4.476   5.134  0.2843  0.4741  0.3206
  867MOL0     C16943   9.963   4.532   5.074 -0.2690  0.5966 -0.1245
  867MOL0     C16944   9.953   4.608   4.952 -0.3382  0.1151 -0.5725
  867MOL0     O16945  10.060   4.673   4.892 -0.3209  0.6075  0.2948
  867MOL0     C16946  10.181   4.669   4.966 -0.2886  0.3719  0.3501
  867MOL0     C16947  10.276   4.734   4.863 -0.4984  0.4632 -0.2992
  867MOL0     C16948  10.420   4.709   4.892 -0.6145 -0.3964 -0.5983
  867MOL0     C16949  10.509   4.738   4.768 -0.2811  0.8715  0.2632
  867MOL0     C16950  10.661   4.759   4.812  1.0558  0.5855  0.3954
  867MOL0     C16951  10.753   4.817   4.699  0.1327  0.4197  0.2265
  867MOL0     C16952  10.869   4.906   4.740 -0.5604  0.1040  0.1917
  867MOL0     C16953  10.953   4.846   4.843 -0.2723  0.2836 -0.6278
  867MOL0    Cl16954  11.107   4.946   4.855 -0.2162 -0.1214  0.3913
  867MOL0     C16955   9.827   4.626   4.891  0.1026  0.3980  1.4061
  867MOL0     C16956   9.717   4.564   4.945  0.9293 -0.1996  1.2440
  867MOL0     O16957   9.610   4.536   5.335 -0.0094 -0.1475 -0.3598
  867MOL0     C16958   9.370   4.407   5.407 -0.4739  0.0745  0.3917
  867MOL0     C16959   9.239   4.357   5.431  0.3657  0.9258 -0.2579
  867MOL0     N16960   8.650   4.574   5.189 -0.1635  0.7894 -0.6894
  867MOL0     N16961   8.637   4.704   5.197  0.6380  0.4838  0.3095
  867MOL0     C16962   7.884   5.141   4.655  0.0408 -0.3900  0.0486
  867MOL0     C16963   7.755   5.187   4.704  0.5281 -0.4701 -0.5358
  867MOL0     C16964   7.321   5.195   4.695  0.5914  1.3236  0.9795
  867MOL0     C16965   7.261   5.085   4.768 -0.4738  0.2302 -0.5643
  867MOL0     C16966   7.127   5.072   4.798  0.3070 -0.4524 -1.2710
  867MOL0     C16967   7.032   5.159   4.734  0.0072  0.2728 -0.8312
  867MOL0     O16968   6.896   5.143   4.764 -0.0501  0.3667 -0.6780
  867MOL0     C16969   6.837   5.011   4.744  0.0884  0.1825  0.0479
  867MOL0     C16970   6.689   5.035   4.763  0.3806  0.0056 -0.7865
  867MOL0     C16971   6.594   4.934   4.703 -0.0477  0.1598 -0.6372
  867MOL0     C16972   6.604   4.913   4.549  0.0028  0.3747  0.4363
  867MOL0     C16973   6.481   4.847   4.507  0.9114 -0.2953 -0.1884
  867MOL0     C16974   6.373   4.791   4.470  0.1848 -0.0256  0.8452
  867MOL0     C16975   7.093   5.262   4.656  0.0671 -0.0417  0.0054
  867MOL0     C16976   7.227   5.285   4.642  0.6913  0.1597  0.5278
  867MOL0     C16977   7.257   5.413   4.567 -0.2261 -0.2999  0.5727
  867MOL0     H16978   7.608   4.884   4.713 -3.2956  2.5051 -3.4126
  867MOL0     H16979   7.852   4.814   4.675 -2.4592  0.0419 -1.3865
  867MOL0     H16980   8.227   4.991   4.513  2.0340  1.4879  2.4396
  867MOL0     H16981   8.116   5.131   4.481  1.6070 -0.6120 -0.2685
  867MOL0     H16982   8.224   5.020   4.739 -0.9155 -0.9107 -0.6040
  867MOL0     H16983   8.148   5.187   4.729 -0.2830  1.5384 -2.1236
  867MOL0     H16984   8.329   5.279   4.610 -2.2129 -1.3905 -1.5166
  867MOL0     H16985   8.397   5.135   4.574 -1.8941 -3.1683 -0.5419
  867MOL0     H16986   8.432   5.281   4.822 -1.2969  0.1559  0.1734
  867MOL0     H16987   8.375   5.126   4.871 -2.6894  0.8069 -1.7492
  867MOL0     H16988   8.534   5.012   4.710  0.0962 -1.2100  1.5860
  867MOL0     H16989   8.624   5.169   4.702  1.3645  0.2883  1.0130
  867MOL0     H16990   8.749   5.057   4.853  0.0179 -3.3607  3.0854
  867MOL0     H16991   8.642   5.158   4.954 -2.1962 -1.2365  2.0137
  867MOL0     H16992   8.595   4.862   4.879  1.1802 -0.2341 -0.4236
  867MOL0     H16993   8.512   4.951   5.008  0.5175  4.4572 -0.4006
  867MOL0     H16994   8.801   4.932   5.014  0.0882  0.4684  1.3019
  867MOL0     H16995   8.683   4.957   5.145 -1.5718 -0.6889 -0.3743
  867MOL0     H16996   8.791   4.651   4.910  3.6550 -2.1114  3.0177
  867MOL0     H16997   8.642   4.361   4.967  1.9421 -1.1754 -2.3550
  867MOL0     H16998   8.814   4.394   4.939 -0.1345 -0.0693 -2.2818
  867MOL0     H16999   8.679   4.307   5.201  2.2239 -0.2024  2.6928
  867MOL0     H17000   8.765   4.196   5.095 -3.8686 -0.5791 -0.7451
  867MOL0     H17001   8.875   4.420   5.269 -2.0119  0.4429  0.2497
  867MOL0     H17002   8.971   4.364   5.134 -0.3707 -2.0285 -1.1347
  867MOL0     H17003   8.980   4.145   5.216 -1.1778 -0.9561  0.8523
  867MOL0     H17004   8.859   4.172   5.336  1.9939 -3.2031 -0.0665
  867MOL0     H17005   9.169   4.237   5.135  0.1091 -0.4326  0.2076
  867MOL0     H17006   9.397   4.312   5.089  0.3795  3.7465 -1.1023
  867MOL0     H17007   9.843   4.419   5.227  0.9725  1.0248  0.7056
  867MOL0     H17008  10.058   4.512   5.124 -0.2164 -3.8821 -1.5216
  867MOL0     H17009  10.182   4.726   5.060 -1.2544  1.6207 -0.3643
  867MOL0     H17010  10.211   4.566   4.986 -2.4713  0.0021  2.1239
  867MOL0     H17011  10.260   4.675   4.772 -2.4063  0.1845  0.1777
  867MOL0     H17012  10.255   4.839   4.840 -0.5240  0.5340  0.0402
  867MOL0     H17013  10.452   4.774   4.974 -0.5023  1.4448 -2.0426
  867MOL0     H17014  10.445   4.608   4.925 -0.7558 -0.1374  0.3376
  867MOL0     H17015  10.480   4.831   4.720  0.8969  0.5120 -1.2331
  867MOL0     H17016  10.494   4.661   4.691 -1.3953  1.6776 -0.3485
  867MOL0     H17017  10.707   4.662   4.835  0.8667  0.8647  2.0908
  867MOL0     H17018  10.669   4.827   4.897 -4.1508  0.7647  1.0452
  867MOL0     H17019  10.788   4.736   4.634  2.3990  1.4210  0.0965
  867MOL0     H17020  10.687   4.876   4.635  0.8334  0.9550 -0.0145
  867MOL0     H17021  10.834   5.004   4.773 -3.0089 -0.4031 -0.6752
  867MOL0     H17022  10.925   4.926   4.649  2.2011 -0.1670  1.7268
  867MOL0     H17023  10.898   4.839   4.937 -3.9837 -0.2756 -2.6696
  867MOL0     H17024  10.985   4.746   4.812  0.4472 -0.4999  2.2567
  867MOL0     H17025   9.832   4.690   4.803  1.5578  2.8654  3.1297
  867MOL0     H17026   9.627   4.586   4.889  0.4606  1.0900  2.4496
  867MOL0     H17027   9.428   4.454   5.485  0.9325 -1.2364  0.1811
  867MOL0     H17028   9.202   4.360   5.533 -0.7547 -0.5421 -0.5934
  867MOL0     H17029   7.950   5.224   4.633 -0.4419  0.1874  0.6963
  867MOL0     H17030   7.718   5.289   4.713 -0.6502 -0.7523 -1.8453
  867MOL0     H17031   7.334   5.019   4.814  0.7036  2.2811  0.6649
  867MOL0     H17032   7.105   4.990   4.867 -1.2020 -0.5080 -1.7735
  867MOL0     H17033   6.862   4.932   4.815 -4.0059 -1.2853  0.1424
  867MOL0     H17034   6.861   4.976   4.643 -2.9969  0.6921 -0.9746
  867MOL0     H17035   6.661   5.133   4.723  0.4047  0.8198  1.1018
  867MOL0     H17036   6.667   5.043   4.870 -1.8837  1.1993 -1.2675
  867MOL0     H17037   6.495   4.973   4.725 -1.2781 -3.4037  0.8070
  867MOL0     H17038   6.592   4.840   4.759  0.1844  1.7810  2.2788
  867MOL0     H17039   6.608   5.011   4.499  2.5819 -0.0274 -0.3010
  867MOL0     H17040   6.693   4.867   4.504 -1.5180 -0.1063 -2.3553
  867MOL0     H17041   6.287   4.744   4.427  0.8265  0.1139 -0.6438
  867MOL0     H17042   7.024   5.332   4.612 -1.1830  0.1718  2.1331
  867MOL0     H17043   7.257   5.388   4.461 -0.7058 -3.1283  1.1522
  867MOL0     H17044   7.184   5.491   4.585 -1.5951 -0.5342 -3.1602
  867MOL0     H17045   7.356   5.449   4.598  0.4077 -2.6216  1.5023
  868MOL0     O17046   7.380   7.145   2.129  0.2962  0.2542 -0.3098
  868MOL0     C17047   7.297   7.229   2.094  0.3628 -0.6997 -0.7852
  868MOL0     O17048   7.327   7.360   2.056 -0.2252  0.3866 -0.1209
  868MOL0     C17049   7.449   7.415   2.065 -0.5916  0.3226  0.1594
  868MOL0     C17050   7.537   7.393   2.174 -0.2901 -0.0316  0.2813
  868MOL0     C17051   7.670   7.446   2.176  0.8342 -0.7934 -0.3215
  868MOL0     C17052   7.709   7.515   2.071  1.0226 -0.2914 -0.0880
  868MOL0     O17053   7.829   7.572   2.070  0.2452  0.2218  0.4309
  868MOL0     C17054   7.901   7.601   2.190 -0.0869 -1.1464 -0.2460
  868MOL0     C17055   7.840   7.718   2.268 -0.4672  0.4193 -0.4103
  868MOL0     C17056   7.933   7.786   2.370  0.4459  0.8807 -0.0600
  868MOL0     C17057   7.952   7.705   2.505  0.7204  0.8447  0.5947
  868MOL0     C17058   8.042   7.779   2.609 -0.4992  0.6666  0.1879
  868MOL0     C17059   8.185   7.799   2.553  0.4254 -0.1080  0.3591
  868MOL0     C17060   8.277   7.881   2.653  0.6867 -0.0393  1.0143
  868MOL0     C17061   8.240   8.039   2.652  0.3471  1.3010  0.3366
  868MOL0     N17062   8.250   8.085   2.514 -0.3096  0.0701  0.0220
  868MOL0     C17063   8.363   8.116   2.442  0.0362 -0.5240 -0.9960
  868MOL0     C17064   8.317   8.153   2.327 -0.4594 -0.4036  0.3233
  868MOL0     C17065   8.396   8.173   2.204 -0.3615  1.1066  0.1656
  868MOL0     C17066   8.537   8.228   2.220 -0.1386 -0.0130  0.0970
  868MOL0     C17067   8.600   8.241   2.073  0.0815  0.3145 -0.5700
  868MOL0     C17068   8.744   8.303   2.078  0.5922 -0.3802 -0.0827
  868MOL0     O17069   8.843   8.224   2.146  0.1253  0.0987 -0.2758
  868MOL0     C17070   8.975   8.268   2.153 -0.4906  0.3948  0.4399
  868MOL0     C17071   9.002   8.394   2.218 -0.8257 -0.6195 -0.2119
  868MOL0     C17072   9.134   8.440   2.228  0.0700 -0.2322 -0.3145
  868MOL0     C17073   9.233   8.368   2.163 -0.5939 -0.6520  0.9904
  868MOL0     C17074   9.370   8.418   2.181  0.4048 -0.1317  0.0685
  868MOL0     O17075   9.385   8.550   2.212  0.2371  0.0772  0.1177
  868MOL0     C17076   9.509   8.595   2.238 -0.0584 -0.8284  0.3571
  868MOL0     C17077   9.602   8.620   2.135 -0.6169 -0.8020  0.5609
  868MOL0     C17078   9.730   8.688   2.159  0.1971  0.0534 -0.4374
  868MOL0     C17079   9.764   8.714   2.289  0.5832  0.6239  0.7721
  868MOL0     O17080   9.892   8.759   2.312  0.0065 -0.1099 -0.4902
  868MOL0     C17081   9.921   8.825   2.434  0.0980 -0.7275  0.0905
  868MOL0     C17082  10.064   8.888   2.421 -0.0291  0.2887 -0.6817
  868MOL0     C17083  10.114   8.943   2.551 -0.3235 -0.5089  0.3102
  868MOL0     C17084  10.260   8.987   2.562  0.0760  0.0355 -0.3860
  868MOL0     C17085  10.315   9.006   2.711  0.1454  0.1896  0.1726
  868MOL0     C17086  10.460   9.039   2.701 -0.0793 -0.2316  0.2536
  868MOL0     C17087  10.515   9.098   2.824 -0.0138  0.6646  0.0030
  868MOL0     C17088  10.666   9.118   2.813  0.3594  0.1024 -0.2174
  868MOL0    Cl17089  10.726   9.236   2.691  0.6652  0.3369 -0.0538
  868MOL0     C17090   9.678   8.675   2.393  0.7816  0.0424 -0.3435
  868MOL0     C17091   9.548   8.620   2.366 -0.0826  0.5214  0.2454
  868MOL0     O17092   9.461   8.338   2.168 -0.0132  0.1721 -0.0355
  868MOL0     C17093   9.206   8.243   2.097 -0.0736 -0.4569  0.0606
  868MOL0     C17094   9.078   8.197   2.098  0.6597  0.5186  0.3566
  868MOL0     N17095   8.174   8.145   2.323  0.3704 -0.9338  0.0623
  868MOL0     N17096   8.141   8.098   2.441  0.2152 -0.4786  0.4969
  868MOL0     C17097   7.628   7.529   1.955  0.4376 -0.5045  0.3228
  868MOL0     C17098   7.495   7.488   1.955 -0.1388  0.7786 -0.1841
  868MOL0     C17099   7.151   7.175   2.088 -0.4500  0.5381  0.5396
  868MOL0     C17100   7.062   7.243   2.003  0.1275 -0.2329  0.1391
  868MOL0     C17101   6.927   7.210   1.979 -0.2078 -0.4125 -0.1522
  868MOL0     C17102   6.879   7.093   2.043 -0.4839  0.0911  0.6995
  868MOL0     O17103   6.756   7.040   2.028 -1.0382 -0.9605 -0.2980
  868MOL0     C17104   6.665   7.067   1.919 -0.1593  0.1990 -0.2554
  868MOL0     C17105   6.572   6.950   1.913  0.3196 -0.5623 -0.6102
  868MOL0     C17106   6.442   6.982   1.838 -0.4321 -0.0547 -0.1121
  868MOL0     C17107   6.343   7.082   1.907 -0.2030 -0.2748  0.3401
  868MOL0     C17108   6.206   7.060   1.865  0.0479  0.5160  0.0713
  868MOL0     C17109   6.104   7.045   1.811  0.1758  0.8104  0.7268
  868MOL0     C17110   6.961   7.019   2.131  0.5207  0.1469  0.2170
  868MOL0     C17111   7.097   7.060   2.152  0.0580 -0.3327 -0.1898
  868MOL0     C17112   7.171   6.969   2.248  0.6536 -1.1057  0.3013
  868MOL0     H17113   7.489   7.339   2.255 -2.4253  0.0263 -0.8782
  868MOL0     H17114   7.716   7.425   2.272 -2.0675 -1.1427  1.1215
  868MOL0     H17115   7.911   7.513   2.253  1.8083 -0.3870  0.5925
  868MOL0     H17116   8.001   7.632   2.157  0.0619 -0.8797  0.4403
  868MOL0     H17117   7.748   7.678   2.313 -0.3606 -0.9379 -1.3133
  868MOL0     H17118   7.810   7.795   2.197  0.2803  0.4311 -0.7236
  868MOL0     H17119   7.905   7.891   2.384  0.6079  1.0751 -1.0740
  868MOL0     H17120   8.027   7.803   2.316  0.3396  1.8472  0.0398
  868MOL0     H17121   7.852   7.678   2.540  1.3693 -3.0654 -0.0551
  868MOL0     H17122   8.003   7.611   2.483  1.0231  1.5255 -1.9095
  868MOL0     H17123   8.004   7.881   2.627 -1.0480  0.5184 -0.1053
  868MOL0     H17124   8.052   7.719   2.699 -0.5366  0.6521  0.1824
  868MOL0     H17125   8.234   7.704   2.532  0.6343 -0.0291  0.4805
  868MOL0     H17126   8.193   7.846   2.454  3.8465 -1.2493 -0.0357
  868MOL0     H17127   8.376   7.863   2.610  0.1047  0.0991 -0.4424
  868MOL0     H17128   8.264   7.846   2.756 -3.1849  1.4127  1.1803
  868MOL0     H17129   8.145   8.053   2.705 -0.1978  1.2611 -0.5956
  868MOL0     H17130   8.306   8.101   2.714 -0.9936  2.6520  0.4966
  868MOL0     H17131   8.463   8.109   2.485 -2.0041 -0.0899  4.6809
  868MOL0     H17132   8.406   8.076   2.154  1.1611  1.2848  0.0900
  868MOL0     H17133   8.338   8.248   2.149 -2.6773 -1.1883 -0.7344
  868MOL0     H17134   8.543   8.321   2.277 -1.1656  0.9110 -1.2234
  868MOL0     H17135   8.594   8.149   2.270 -0.2924 -0.4194 -0.3609
  868MOL0     H17136   8.535   8.306   2.014  0.3829  0.8826 -0.2884
  868MOL0     H17137   8.611   8.141   2.031  2.6784  0.6782 -0.8886
  868MOL0     H17138   8.736   8.401   2.127  0.8069  0.2591 -1.2903
  868MOL0     H17139   8.775   8.323   1.975 -1.0744  0.1927 -0.5110
  868MOL0     H17140   8.914   8.445   2.256 -1.0602 -0.9139 -0.3518
  868MOL0     H17141   9.157   8.527   2.288  0.9229  0.6592 -1.8697
  868MOL0     H17142   9.585   8.596   2.030  0.9327 -3.5763  0.8701
  868MOL0     H17143   9.802   8.709   2.081  1.5406  1.9652  1.2075
  868MOL0     H17144   9.850   8.907   2.450 -1.3064 -1.9604  0.3077
  868MOL0     H17145   9.922   8.755   2.518 -1.7291  1.9661  2.5770
  868MOL0     H17146  10.134   8.811   2.389 -2.1185 -1.7848 -0.5263
  868MOL0     H17147  10.075   8.952   2.333  1.6368 -0.0888 -0.7867
  868MOL0     H17148  10.057   9.029   2.585  0.7852  0.1984  0.4422
  868MOL0     H17149  10.096   8.870   2.631  1.7741  0.1644  1.4814
  868MOL0     H17150  10.268   9.084   2.512 -0.7210  1.0567  1.3778
  868MOL0     H17151  10.323   8.911   2.514  0.9568 -0.5902  1.6368
  868MOL0     H17152  10.296   8.918   2.773 -1.6287  1.7693  1.9765
  868MOL0     H17153  10.252   9.080   2.760  0.0793 -1.5295  2.9166
  868MOL0     H17154  10.511   8.950   2.664 -1.9954 -2.0713  1.7832
  868MOL0     H17155  10.460   9.122   2.630 -1.3815  1.0416  1.6587
  868MOL0     H17156  10.483   9.039   2.911  3.1612  2.2568  2.4783
  868MOL0     H17157  10.468   9.196   2.835 -1.9244 -0.1664 -0.3970
  868MOL0     H17158  10.695   9.176   2.902 -2.1578  1.6562 -0.3194
  868MOL0     H17159  10.713   9.019   2.805  1.8743  0.8400 -0.8594
  868MOL0     H17160   9.708   8.687   2.497 -0.6783 -0.7149  0.1853
  868MOL0     H17161   9.477   8.596   2.444  1.6670 -1.1804  1.3869
  868MOL0     H17162   9.287   8.187   2.052  2.0085  1.9220  0.5987
  868MOL0     H17163   9.075   8.105   2.041 -1.2570  2.4667 -3.0129
  868MOL0     H17164   7.669   7.562   1.861  0.0543 -1.0654 -0.0487
  868MOL0     H17165   7.435   7.495   1.864 -1.6817 -0.2835  0.7127
  868MOL0     H17166   7.101   7.327   1.947  1.4345 -2.5849 -2.7308
  868MOL0     H17167   6.873   7.277   1.914  2.2521  0.1769 -1.7643
  868MOL0     H17168   6.721   7.074   1.825 -1.3097  4.2656 -0.8123
  868MOL0     H17169   6.607   7.159   1.923  3.1136  2.4492 -0.7249
  868MOL0     H17170   6.549   6.912   2.013  1.0753 -0.1696 -0.2838
  868MOL0     H17171   6.625   6.868   1.864  1.0759 -1.3625  1.4216
  868MOL0     H17172   6.393   6.887   1.816  2.0182 -1.3299 -0.3375
  868MOL0     H17173   6.463   7.030   1.741  0.0204  0.3290  0.1685
  868MOL0     H17174   6.341   7.054   2.012 -0.7000 -0.6512  0.2335
  868MOL0     H17175   6.369   7.188   1.903  0.5942 -0.4604  0.5963
  868MOL0     H17176   6.009   7.021   1.768  1.4637 -0.0340 -1.8732
  868MOL0     H17177   6.925   6.935   2.189 -2.8782 -0.5505 -2.5620
  868MOL0     H17178   7.181   7.015   2.347  0.1426  1.0976 -0.6271
  868MOL0     H17179   7.122   6.872   2.262 -2.1222 -0.2269 -2.2826
  868MOL0     H17180   7.269   6.944   2.206  0.6046 -1.5471  0.4391
  869MOL0     O17181   2.238   9.127   1.850  0.3670  0.5349 -0.3439
  869MOL0     C17182   2.284   9.082   1.956 -0.2865 -0.5930 -0.2923
  869MOL0     O17183   2.245   8.961   2.021 -0.3158 -0.9170  0.9072
  869MOL0     C17184   2.133   8.892   1.971 -0.9471  0.7398  0.2717
  869MOL0     C17185   2.005   8.927   2.013  0.1844  0.2866 -0.2433
  869MOL0     C17186   1.902   8.862   1.949  0.1344 -0.3374 -0.2297
  869MOL0     C17187   1.918   8.773   1.841 -0.9227  0.2170  0.2792
  869MOL0     O17188   1.807   8.709   1.799 -0.7024  0.3173 -0.9086
  869MOL0     C17189   1.820   8.597   1.711  0.2268  0.2177  0.3490
  869MOL0     C17190   1.686   8.523   1.679 -0.0941 -0.0201  0.0695
  869MOL0     C17191   1.649   8.424   1.788  0.3926 -0.2771  0.7124
  869MOL0     C17192   1.500   8.403   1.800 -0.4899  0.5177  0.5115
  869MOL0     C17193   1.453   8.294   1.893  0.1104 -0.1663 -0.8098
  869MOL0     C17194   1.507   8.319   2.037  0.3922  0.9867  0.5327
  869MOL0     C17195   1.452   8.441   2.107  0.2259 -0.4443 -0.3065
  869MOL0     C17196   1.310   8.428   2.150  0.5465 -0.3028 -0.1584
  869MOL0     N17197   1.278   8.518   2.260  0.2703  0.8291 -0.9750
  869MOL0     C17198   1.349   8.528   2.372  0.8670  0.5389  0.3173
  869MOL0     C17199   1.277   8.608   2.453 -0.0566 -0.1841  1.1665
  869MOL0     C17200   1.314   8.630   2.596  0.5508 -0.1312  0.4276
  869MOL0     C17201   1.443   8.710   2.597 -0.2950  0.1754  0.2273
  869MOL0     C17202   1.476   8.740   2.744  0.8489  0.4541  0.1858
  869MOL0     C17203   1.590   8.822   2.748  0.2256 -0.3558  0.0159
  869MOL0     O17204   1.700   8.735   2.720  0.6412 -0.3421 -0.4717
  869MOL0     C17205   1.820   8.763   2.780 -0.7255 -0.3920  0.2405
  869MOL0     C17206   1.910   8.664   2.815  1.2266 -0.2239  0.5668
  869MOL0     C17207   2.032   8.693   2.873 -0.6467 -0.4212  0.3710
  869MOL0     C17208   2.075   8.830   2.894 -0.3979 -0.3551 -0.3727
  869MOL0     C17209   2.211   8.869   2.945 -0.3880  0.1562 -0.6498
  869MOL0     O17210   2.240   9.004   2.958  0.2482  0.1508  0.5002
  869MOL0     C17211   2.370   9.040   2.984 -0.2452  0.1161  0.7579
  869MOL0     C17212   2.445   9.063   2.870 -0.0279 -0.4992  0.0830
  869MOL0     C17213   2.573   9.133   2.880  0.8646  0.1970 -0.3702
  869MOL0     C17214   2.613   9.180   3.007  0.4743  0.3027 -0.1654
  869MOL0     O17215   2.729   9.240   3.052 -0.7990  0.1712 -0.0971
  869MOL0     C17216   2.828   9.265   2.947  1.3546  0.5440  0.9911
  869MOL0     C17217   2.918   9.359   3.012  0.6809 -0.3024  0.0085
  869MOL0     C17218   3.042   9.382   2.926 -0.4563 -0.5940  0.6598
  869MOL0     C17219   3.130   9.501   2.974  1.3091  0.5750  0.1616
  869MOL0     C17220   3.231   9.529   2.871 -0.6625 -0.3495  0.9630
  869MOL0     C17221   3.324   9.640   2.917 -0.5013  0.3248 -0.0495
  869MOL0     C17222   3.414   9.597   3.026  0.0225 -0.3166  0.2930
  869MOL0     C17223   3.545   9.666   3.042  0.8298 -0.0714 -0.5111
  869MOL0    Cl17224   3.523   9.842   3.097 -0.6064 -0.3020  0.5231
  869MOL0     C17225   2.536   9.158   3.123 -0.3124  0.0995  0.2227
  869MOL0     C17226   2.409   9.099   3.105  0.3236 -0.4048 -1.4446
  869MOL0     O17227   2.293   8.779   2.958  0.3294 -0.1402 -0.3329
  869MOL0     C17228   1.980   8.932   2.861  0.6603  0.0562  1.6706
  869MOL0     C17229   1.855   8.890   2.807 -0.4385  0.2426 -0.2354
  869MOL0     N17230   1.163   8.646   2.389  0.0355 -0.3494  0.3753
  869MOL0     N17231   1.169   8.599   2.264  1.1112  0.2023 -0.7403
  869MOL0     C17232   2.049   8.747   1.795  0.0198  0.5309 -0.9265
  869MOL0     C17233   2.158   8.802   1.867  0.2002 -0.5871  0.2908
  869MOL0     C17234   2.384   9.170   2.027 -0.8475  0.2368 -0.4714
  869MOL0     C17235   2.467   9.250   1.945  1.2507  0.6150 -0.0226
  869MOL0     C17236   2.582   9.307   1.998  0.1089  0.7057  0.3269
  869MOL0     C17237   2.614   9.292   2.129  0.1732  0.3766 -1.4200
  869MOL0     O17238   2.728   9.356   2.171  0.2592 -0.1816  0.5686
  869MOL0     C17239   2.705   9.472   2.254 -0.9940 -0.2152  0.0138
  869MOL0     C17240   2.745   9.590   2.174 -0.7661 -0.7992 -0.5337
  869MOL0     C17241   2.898   9.576   2.150  0.6864 -0.3925  0.1186
  869MOL0     C17242   2.973   9.710   2.104  0.3696 -0.6579 -0.8706
  869MOL0     C17243   2.912   9.769   1.985 -0.4335 -0.2401  0.2710
  869MOL0     C17244   2.876   9.818   1.878  0.9466  0.1659 -0.7203
  869MOL0     C17245   2.527   9.230   2.220  0.5653 -0.4710  0.1678
  869MOL0     C17246   2.407   9.170   2.167  0.1658  0.2998 -0.4224
  869MOL0     C17247   2.326   9.096   2.261  0.5101 -0.9774 -0.1158
  869MOL0     H17248   1.986   8.991   2.099  1.2998  0.1793  0.1056
  869MOL0     H17249   1.802   8.874   1.989  0.2534 -0.9793  0.2667
  869MOL0     H17250   1.855   8.643   1.618 -3.2149 -1.6912 -2.1202
  869MOL0     H17251   1.888   8.523   1.753 -0.3435 -1.2962 -1.2961
  869MOL0     H17252   1.688   8.463   1.587 -2.5336  1.1655 -0.8617
  869MOL0     H17253   1.617   8.606   1.665  0.9950  0.5755 -2.1642
  869MOL0     H17254   1.690   8.453   1.885  1.6271 -0.2185  0.1826
  869MOL0     H17255   1.702   8.331   1.764  1.4079  0.6819 -0.9056
  869MOL0     H17256   1.452   8.497   1.829  1.5443  1.5572  0.7015
  869MOL0     H17257   1.462   8.371   1.702  1.8517  2.5322 -1.2085
  869MOL0     H17258   1.345   8.300   1.875  0.3539  1.1102 -1.9958
  869MOL0     H17259   1.500   8.199   1.866  2.7542  0.5755  0.7606
  869MOL0     H17260   1.487   8.229   2.095  0.3764 -1.0261 -2.3866
  869MOL0     H17261   1.616   8.332   2.036  0.3493  1.5616  1.6654
  869MOL0     H17262   1.466   8.516   2.029 -1.0506 -1.6016 -1.7364
  869MOL0     H17263   1.513   8.461   2.195 -1.9663 -1.8806  1.6387
  869MOL0     H17264   1.237   8.444   2.071 -0.7382  2.2872  1.3795
  869MOL0     H17265   1.304   8.330   2.197  2.4819 -0.3982 -0.0147
  869MOL0     H17266   1.439   8.471   2.393 -0.4901 -1.8425 -0.0813
  869MOL0     H17267   1.232   8.677   2.650 -0.2456  0.3634 -1.1406
  869MOL0     H17268   1.335   8.533   2.642  0.1605 -0.8116 -0.7736
  869MOL0     H17269   1.524   8.649   2.555 -1.2981 -2.8291  2.2749
  869MOL0     H17270   1.428   8.804   2.544 -0.3014  0.3762  0.5900
  869MOL0     H17271   1.502   8.645   2.792 -0.5983  0.1645  0.4479
  869MOL0     H17272   1.398   8.796   2.797  1.8112  2.4265 -0.3764
  869MOL0     H17273   1.595   8.870   2.846 -3.2121 -2.3209  1.3571
  869MOL0     H17274   1.593   8.903   2.674  2.6007  0.4689  0.9291
  869MOL0     H17275   1.878   8.561   2.804 -1.5768  0.7486 -1.6271
  869MOL0     H17276   2.102   8.613   2.898  2.6248  2.0630 -0.1910
  869MOL0     H17277   2.397   9.034   2.777 -2.7831 -0.1889  1.3350
  869MOL0     H17278   2.635   9.152   2.793 -0.6873  1.7614 -1.2091
  869MOL0     H17279   2.876   9.170   2.923  1.2295  0.7775 -0.2231
  869MOL0     H17280   2.797   9.315   2.855 -0.4384  0.2401  1.3869
  869MOL0     H17281   2.874   9.457   3.032  1.9382  0.1228  0.7989
  869MOL0     H17282   2.943   9.315   3.108 -2.2314  2.0162  2.0048
  869MOL0     H17283   3.107   9.295   2.922  0.1536 -0.1522  0.8008
  869MOL0     H17284   3.017   9.394   2.820 -3.5632 -0.5111  1.2908
  869MOL0     H17285   3.164   9.478   3.075 -2.6311  3.6526  2.5228
  869MOL0     H17286   3.061   9.584   2.995 -0.7309 -1.4827  2.0927
  869MOL0     H17287   3.200   9.559   2.771  1.2253  0.4921  0.5930
  869MOL0     H17288   3.291   9.443   2.840 -1.7693 -0.2727 -1.6399
  869MOL0     H17289   3.394   9.658   2.834  0.6647  1.0292  1.0467
  869MOL0     H17290   3.262   9.723   2.951 -0.9401  0.7900 -1.8524
  869MOL0     H17291   3.448   9.493   3.026 -2.9151 -1.3686  0.3889
  869MOL0     H17292   3.358   9.604   3.120  0.9259 -0.9062  0.8895
  869MOL0     H17293   3.615   9.621   3.113 -0.8311  2.6148  3.1556
  869MOL0     H17294   3.588   9.670   2.941  2.5840  0.5354  0.2262
  869MOL0     H17295   2.561   9.205   3.217  0.2038  2.2305 -0.9076
  869MOL0     H17296   2.351   9.086   3.196  1.3415 -0.3890 -0.7739
  869MOL0     H17297   1.999   9.038   2.876 -1.5239  0.3430  2.8107
  869MOL0     H17298   1.788   8.973   2.791 -1.7504 -0.3962  1.5584
  869MOL0     H17299   2.070   8.678   1.713 -1.6252 -1.4706  0.2397
  869MOL0     H17300   2.258   8.769   1.839  1.6904  0.3404  3.9589
  869MOL0     H17301   2.456   9.264   1.838 -0.1014  1.6101  0.2271
  869MOL0     H17302   2.643   9.368   1.931 -0.7891  2.8080  1.3458
  869MOL0     H17303   2.761   9.485   2.348 -3.0711  0.2433  1.2592
  869MOL0     H17304   2.599   9.489   2.271 -1.2492 -0.7891 -0.9484
  869MOL0     H17305   2.731   9.676   2.240  0.3525 -0.1227 -1.1408
  869MOL0     H17306   2.688   9.611   2.083 -0.0709 -0.4702 -0.9064
  869MOL0     H17307   2.917   9.509   2.066 -2.1069  0.2260 -1.1434
  869MOL0     H17308   2.943   9.532   2.239 -1.6638 -3.0088  0.1325
  869MOL0     H17309   2.970   9.773   2.194  0.5103  0.5692 -1.6954
  869MOL0     H17310   3.076   9.688   2.078  0.6780 -0.4169  0.0868
  869MOL0     H17311   2.830   9.846   1.786  1.5061  1.2831 -0.6791
  869MOL0     H17312   2.553   9.222   2.325 -0.2722 -2.1469  0.2845
  869MOL0     H17313   2.340   9.130   2.364 -1.9783 -0.6801  0.1799
  869MOL0     H17314   2.221   9.120   2.241  0.3872 -1.9214 -0.7222
  869MOL0     H17315   2.339   8.987   2.265 -0.5286 -1.2106 -1.8942
  870MOL0     O17316   9.843   0.444   9.882  0.3022  0.0082 -0.6249
  870MOL0     C17317   9.954   0.467   9.932 -0.0746  0.1580  0.1560
  870MOL0     O17318   9.976   0.508  10.063  0.1809  0.3860 -0.1595
  870MOL0     C17319   9.879   0.480  10.158  0.4779 -0.1450  0.3846
  870MOL0     C17320   9.825   0.352  10.177 -0.0939  0.8755  0.0006
  870MOL0     C17321   9.733   0.322  10.273 -0.1626  0.2548 -0.2967
  870MOL0     C17322   9.684   0.430  10.352 -0.0539 -0.8349 -0.0429
  870MOL0     O17323   9.586   0.431  10.438 -0.0878  0.1488 -1.2218
  870MOL0     C17324   9.515   0.306  10.460  0.4970 -0.0752 -0.2601
  870MOL0     C17325   9.396   0.333  10.555  0.2856 -0.2946 -0.5527
  870MOL0     C17326   9.441   0.360  10.704  0.7434  0.5532 -0.3253
  870MOL0     C17327   9.320   0.334  10.798  0.4275 -1.0169 -0.4585
  870MOL0     C17328   9.346   0.374  10.946  0.4533 -0.4219 -0.0972
  870MOL0     C17329   9.456   0.299  11.015  0.4606  0.3193 -0.0978
  870MOL0     C17330   9.439   0.315  11.172  0.4410 -0.2727 -0.3037
  870MOL0     C17331   9.499   0.448  11.220  0.1023  0.4026  0.7588
  870MOL0     N17332   9.646   0.470  11.204  0.1489  0.6941 -0.2128
  870MOL0     C17333   9.733   0.368  11.171 -0.5037  0.1010 -0.1460
  870MOL0     C17334   9.854   0.430  11.170  0.0129  0.3124 -0.0331
  870MOL0     C17335   9.990   0.365  11.167  0.2918  0.4893 -1.1008
  870MOL0     C17336  10.054   0.369  11.023  0.4429  0.2936 -0.2459
  870MOL0     C17337  10.199   0.325  11.038  0.7432 -0.5632 -0.1865
  870MOL0     C17338  10.280   0.390  10.919  0.2142  0.2111  0.4127
  870MOL0     O17339  10.417   0.383  10.943  0.1956  1.3946  0.8373
  870MOL0     C17340  10.503   0.408  10.840  0.1064 -0.6851  0.1968
  870MOL0     C17341  10.461   0.452  10.709 -0.5263  0.0488 -0.2109
  870MOL0     C17342  10.562   0.482  10.614  0.1035 -0.0201  0.3728
  870MOL0     C17343  10.698   0.477  10.648  0.4067  0.1989  0.9919
  870MOL0     C17344  10.796   0.542  10.553 -0.2348 -0.0643 -0.6039
  870MOL0     O17345  10.929   0.513  10.584 -0.3529  0.2200 -0.5121
  870MOL0     C17346  11.034   0.597  10.548  0.2258 -0.0946 -0.7363
  870MOL0     C17347  11.132   0.602  10.647 -0.5353 -0.0760  0.2735
  870MOL0     C17348  11.235   0.696  10.640 -0.5628  0.4361 -0.2530
  870MOL0     C17349  11.234   0.799  10.542 -0.2403  0.3154  0.0517
  870MOL0     O17350  11.336   0.889  10.548  0.3214 -0.0811 -0.5545
  870MOL0     C17351  11.379   0.968  10.440 -0.6401  0.8759  0.4192
  870MOL0     C17352  11.313   1.107  10.440  0.8706  0.3792  1.1118
  870MOL0     C17353  11.399   1.212  10.353 -0.3396 -0.0164 -1.0380
  870MOL0     C17354  11.525   1.269  10.427  0.6548  0.0679  1.0568
  870MOL0     C17355  11.588   1.390  10.355 -1.0243  0.5327  0.3848
  870MOL0     C17356  11.626   1.360  10.210 -0.1384  0.0517  0.0002
  870MOL0     C17357  11.720   1.473  10.159  0.9058  0.1086  0.0676
  870MOL0     C17358  11.631   1.597  10.119 -0.2587  0.5225  0.1029
  870MOL0    Cl17359  11.748   1.703  10.046 -0.2644  0.3328 -0.1441
  870MOL0     C17360  11.130   0.794  10.446 -0.7526 -0.0133 -0.4267
  870MOL0     C17361  11.036   0.691  10.444 -0.1940 -0.0580  0.6151
  870MOL0     O17362  10.759   0.621  10.471  1.2862 -0.7632  0.5852
  870MOL0     C17363  10.735   0.436  10.776  1.1401  0.2418 -0.3054
  870MOL0     C17364  10.637   0.400  10.873 -0.7051  0.9609 -0.0159
  870MOL0     N17365   9.829   0.571  11.174  0.6208  0.2288 -0.4071
  870MOL0     N17366   9.704   0.587  11.193  0.4383 -0.1129 -0.6231
  870MOL0     C17367   9.748   0.551  10.344 -0.1080  0.0187  0.1059
  870MOL0     C17368   9.854   0.573  10.256 -0.6293  0.4961 -0.1220
  870MOL0     C17369  10.068   0.480   9.838  1.0986  0.3281  0.5160
  870MOL0     C17370  10.195   0.507   9.892 -1.0316 -0.2320  0.3180
  870MOL0     C17371  10.299   0.534   9.807 -0.3330 -0.0919 -1.2317
  870MOL0     C17372  10.284   0.552   9.667  0.2274  0.3170 -0.5278
  870MOL0     O17373  10.391   0.594   9.591  0.8739 -0.0971  0.1287
  870MOL0     C17374  10.530   0.558   9.612  0.5192 -0.5706  0.6299
  870MOL0     C17375  10.609   0.537   9.482 -0.2380 -0.3198 -0.0661
  870MOL0     C17376  10.734   0.455   9.514 -0.7097  0.0938  0.3439
  870MOL0     C17377  10.834   0.474   9.389  0.5128  0.4217 -0.4526
  870MOL0     C17378  10.940   0.364   9.397  0.0714 -0.4286  0.2331
  870MOL0     C17379  11.033   0.290   9.417 -0.0937 -0.0068  0.5330
  870MOL0     C17380  10.158   0.522   9.607  0.1408 -0.9444 -1.1186
  870MOL0     C17381  10.048   0.489   9.691  0.2305  0.7609  0.2790
  870MOL0     C17382   9.914   0.476   9.615  0.9801 -0.1796 -0.1342
  870MOL0     H17383   9.866   0.273  10.115  0.2601 -1.2832  2.7396
  870MOL0     H17384   9.706   0.219  10.295  1.1419  0.0013  0.2528
  870MOL0     H17385   9.484   0.264  10.364 -1.5866  1.1709 -0.2094
  870MOL0     H17386   9.576   0.233  10.514 -2.0182 -0.2815  2.5789
  870MOL0     H17387   9.337   0.242  10.560  1.4526 -1.0037  2.2417
  870MOL0     H17388   9.331   0.414  10.521  0.7011 -0.5932 -2.1802
  870MOL0     H17389   9.476   0.463  10.711  2.6264 -0.1509  2.5377
  870MOL0     H17390   9.525   0.298  10.737  2.0327  1.0793 -2.4019
  870MOL0     H17391   9.236   0.386  10.751  0.7139 -1.9463 -2.0454
  870MOL0     H17392   9.305   0.225  10.804 -2.3354 -0.7263 -0.8624
  870MOL0     H17393   9.358   0.483  10.953  0.3340  0.0577 -4.6015
  870MOL0     H17394   9.255   0.355  11.003  0.3738 -0.3728 -0.2073
  870MOL0     H17395   9.441   0.196  10.984 -0.5739  0.8982 -1.6067
  870MOL0     H17396   9.551   0.339  10.978 -1.8083  2.8847 -3.7972
  870MOL0     H17397   9.477   0.227  11.225 -1.7473 -2.0025 -1.4193
  870MOL0     H17398   9.333   0.303  11.197 -0.4089  2.1739 -2.3827
  870MOL0     H17399   9.454   0.525  11.158  2.0450  0.3475 -0.8028
  870MOL0     H17400   9.475   0.473  11.324 -0.0702  0.1361  0.7844
  870MOL0     H17401   9.713   0.262  11.176  2.0018 -0.3995  0.7242
  870MOL0     H17402  10.049   0.426  11.236 -1.2305  1.6008 -0.7178
  870MOL0     H17403   9.996   0.261  11.200  1.3716  1.1596  1.0116
  870MOL0     H17404   9.997   0.309  10.951  3.8882 -2.3508 -1.0167
  870MOL0     H17405  10.051   0.472  10.984  2.6974  1.5137  2.5035
  870MOL0     H17406  10.210   0.216  11.043 -0.7356 -0.6786  1.4605
  870MOL0     H17407  10.243   0.365  11.130 -1.2881  0.1832  0.5188
  870MOL0     H17408  10.256   0.496  10.906 -2.3215 -0.3225  0.1921
  870MOL0     H17409  10.241   0.346  10.827  0.1443  2.1038 -0.5177
  870MOL0     H17410  10.356   0.469  10.686 -0.1331  4.7780  0.5393
  870MOL0     H17411  10.537   0.516  10.514  0.5256  0.9621  0.5925
  870MOL0     H17412  11.131   0.523  10.721 -0.0001  0.0288  0.3922
  870MOL0     H17413  11.307   0.710  10.720 -1.9978  1.1056  0.9824
  870MOL0     H17414  11.488   0.977  10.438 -0.2344 -2.1528  1.9883
  870MOL0     H17415  11.356   0.918  10.345 -0.3751  3.3570 -1.0344
  870MOL0     H17416  11.211   1.097  10.401 -0.3971 -2.4978  4.6526
  870MOL0     H17417  11.305   1.158  10.536  0.7255  0.7760  0.8934
  870MOL0     H17418  11.431   1.165  10.260  0.8056 -1.5750  0.0945
  870MOL0     H17419  11.338   1.302  10.339 -0.6804 -0.2088 -0.8051
  870MOL0     H17420  11.595   1.185  10.431 -0.3193 -0.7924  0.4536
  870MOL0     H17421  11.492   1.299  10.527  1.6811 -1.6075  1.9569
  870MOL0     H17422  11.680   1.415  10.409 -0.7659 -1.2218  0.8221
  870MOL0     H17423  11.516   1.472  10.351 -1.8139  0.0016  2.3876
  870MOL0     H17424  11.672   1.262  10.193 -3.2603 -1.7586  1.0983
  870MOL0     H17425  11.533   1.363  10.152 -1.6365 -1.9013  2.0894
  870MOL0     H17426  11.769   1.430  10.070 -1.5141 -5.1127  0.9016
  870MOL0     H17427  11.797   1.509  10.228  1.1314 -1.6334  0.7661
  870MOL0     H17428  11.555   1.569  10.045 -1.6943 -3.8698  2.8317
  870MOL0     H17429  11.576   1.640  10.203  1.0032  1.4448  0.4845
  870MOL0     H17430  11.117   0.881  10.382  0.0954  0.9600  0.6740
  870MOL0     H17431  10.961   0.694  10.365 -0.3142  0.7149  0.7524
  870MOL0     H17432  10.836   0.447  10.815  0.4768  3.3496  0.8339
  870MOL0     H17433  10.668   0.377  10.974  0.6932 -0.5664 -0.7494
  870MOL0     H17434   9.707   0.626  10.412 -2.0587 -0.0645 -0.9101
  870MOL0     H17435   9.914   0.662  10.264 -0.1779  0.3015 -1.1618
  870MOL0     H17436  10.205   0.505  10.000  0.0203  0.2437  0.2493
  870MOL0     H17437  10.396   0.550   9.854 -0.1925 -0.1045 -1.5182
  870MOL0     H17438  10.531   0.467   9.673 -2.0474 -0.9617  0.2030
  870MOL0     H17439  10.576   0.630   9.681  4.3753 -2.6176  0.4809
  870MOL0     H17440  10.642   0.631   9.437  0.7408 -1.0167 -0.8225
  870MOL0     H17441  10.542   0.484   9.414  1.6232  0.4151 -2.6203
  870MOL0     H17442  10.715   0.349   9.534 -1.1635  0.1900  0.4393
  870MOL0     H17443  10.780   0.501   9.602 -1.0376 -4.1487  2.9868
  870MOL0     H17444  10.796   0.463   9.287  2.0723 -0.0628 -1.0130
  870MOL0     H17445  10.877   0.574   9.392 -1.1906  1.1641  1.3219
  870MOL0     H17446  11.121   0.234   9.440 -1.5352 -1.7856  2.0581
  870MOL0     H17447  10.164   0.543   9.500 -1.5214  0.1106 -1.0559
  870MOL0     H17448   9.877   0.374   9.630 -1.2100  1.1208  5.6730
  870MOL0     H17449   9.843   0.545   9.662  0.0661  0.1651 -1.9176
  870MOL0     H17450   9.929   0.502   9.510 -0.7038  1.7753  0.0412
  871MOL0     O17451   8.826   2.449   3.434 -0.6168  0.9384  0.1766
  871MOL0     C17452   8.825   2.329   3.436 -0.5718 -0.2362 -0.0250
  871MOL0     O17453   8.933   2.253   3.455  0.3563  0.0877  0.7056
  871MOL0     C17454   9.056   2.299   3.440  0.1437 -0.0901 -0.5108
  871MOL0     C17455   9.159   2.229   3.501 -0.4433 -0.6358  0.0076
  871MOL0     C17456   9.297   2.279   3.501 -0.7634 -0.5747 -0.1807
  871MOL0     C17457   9.325   2.399   3.448  0.3251 -1.1364  0.2968
  871MOL0     O17458   9.454   2.452   3.451  0.7427 -0.3000 -0.0715
  871MOL0     C17459   9.460   2.592   3.467  0.0799  0.6215 -0.5202
  871MOL0     C17460   9.612   2.627   3.453  0.6059 -0.0638  0.5627
  871MOL0     C17461   9.642   2.685   3.316 -0.7153  0.1746  0.5628
  871MOL0     C17462   9.793   2.698   3.311  0.0165  0.7667 -0.3137
  871MOL0     C17463   9.843   2.767   3.180 -0.4405  0.0796 -0.3913
  871MOL0     C17464   9.837   2.920   3.185  0.4693  0.6196 -0.4829
  871MOL0     C17465   9.892   2.998   3.065 -0.6326  0.8006  0.8889
  871MOL0     C17466  10.036   3.031   3.084  0.2476 -0.3288 -0.4491
  871MOL0     N17467  10.124   2.920   3.036  1.0551  0.1684  0.1527
  871MOL0     C17468  10.148   2.877   2.905  1.1055 -0.1790 -0.3764
  871MOL0     C17469  10.238   2.772   2.915  0.3802 -0.2815  0.2977
  871MOL0     C17470  10.286   2.684   2.801  0.8521  0.1559  0.5786
  871MOL0     C17471  10.381   2.762   2.702 -0.9359 -0.1882  0.0191
  871MOL0     C17472  10.455   2.660   2.616  0.0323  0.0869 -0.0533
  871MOL0     C17473  10.589   2.711   2.566  0.2013  0.7779  0.0102
  871MOL0     O17474  10.692   2.692   2.661 -0.2049  0.0045 -0.7655
  871MOL0     C17475  10.819   2.744   2.632  0.0155 -1.0867 -0.6956
  871MOL0     C17476  10.854   2.817   2.512  0.5964 -0.2944 -0.5763
  871MOL0     C17477  10.991   2.852   2.483 -0.4488 -0.1497 -1.0391
  871MOL0     C17478  11.091   2.819   2.586  0.1106 -0.9391 -0.0281
  871MOL0     C17479  11.231   2.861   2.560 -0.3543 -0.8191  0.9958
  871MOL0     O17480  11.333   2.811   2.635 -0.3856  0.0969  0.0802
  871MOL0     C17481  11.460   2.852   2.592  0.1799 -0.2318 -0.2763
  871MOL0     C17482  11.511   2.824   2.465 -0.2620  0.8359 -0.3446
  871MOL0     C17483  11.641   2.857   2.431 -0.2152  0.4967  0.0182
  871MOL0     C17484  11.728   2.926   2.522  0.1128  0.4524 -0.3315
  871MOL0     O17485  11.851   2.960   2.488  0.7617  0.2011 -0.3888
  871MOL0     C17486  11.958   2.920   2.575  0.1935  1.0354 -0.6851
  871MOL0     C17487  12.087   2.990   2.514  0.7530 -0.7241 -0.0987
  871MOL0     C17488  12.221   2.925   2.542 -0.2735 -0.1629 -0.2801
  871MOL0     C17489  12.340   3.006   2.477  0.4932 -0.7771  0.6473
  871MOL0     C17490  12.468   2.917   2.469  0.7274 -0.6185  0.3588
  871MOL0     C17491  12.573   2.974   2.387  0.9030  0.1202  0.2535
  871MOL0     C17492  12.624   3.113   2.413  0.7120 -0.4386 -0.7119
  871MOL0     C17493  12.771   3.116   2.365  0.5031  0.2013 -0.0502
  871MOL0    Cl17494  12.785   3.112   2.189  0.0342 -0.1308 -0.1557
  871MOL0     C17495  11.675   2.948   2.649  0.3769  0.3506 -0.1083
  871MOL0     C17496  11.548   2.919   2.677  0.2644 -0.0130 -0.3596
  871MOL0     O17497  11.243   2.943   2.472  0.3613 -0.5524 -0.7945
  871MOL0     C17498  11.049   2.755   2.703 -0.7882 -0.5344  0.1081
  871MOL0     C17499  10.914   2.714   2.727  0.6604  0.4312  0.2556
  871MOL0     N17500  10.262   2.747   3.054 -0.4823 -0.4076 -0.1164
  871MOL0     N17501  10.195   2.839   3.117 -0.8017  0.2260 -0.8548
  871MOL0     C17502   9.228   2.458   3.372  0.6090 -0.3121 -0.2161
  871MOL0     C17503   9.100   2.406   3.364 -0.6435  0.1684  0.4662
  871MOL0     C17504   8.697   2.251   3.412 -0.0831  0.6373 -1.5414
  871MOL0     C17505   8.707   2.102   3.427  0.0402 -1.5977  0.0594
  871MOL0     C17506   8.607   2.015   3.405 -0.0466 -0.2676  0.1223
  871MOL0     C17507   8.482   2.069   3.374  0.2581  0.4497 -0.1568
  871MOL0     O17508   8.385   1.976   3.367  0.2476 -0.0296 -0.0727
  871MOL0     C17509   8.254   2.035   3.356 -0.2680 -0.3351 -0.3328
  871MOL0     C17510   8.159   1.911   3.361  0.5143 -0.1574  0.2883
  871MOL0     C17511   8.190   1.804   3.478 -0.0794 -0.3281 -0.0575
  871MOL0     C17512   8.093   1.690   3.486  0.2091 -0.1615  0.1804
  871MOL0     C17513   7.956   1.734   3.526 -0.1532  0.0950 -0.4443
  871MOL0     C17514   7.853   1.771   3.574 -0.3405  0.3357 -0.1302
  871MOL0     C17515   8.470   2.205   3.337 -0.4389 -0.1052 -0.0802
  871MOL0     C17516   8.566   2.300   3.372 -1.1219  0.5520  0.5638
  871MOL0     C17517   8.541   2.444   3.346 -0.0109  0.5961  0.3300
  871MOL0     H17518   9.135   2.143   3.563 -0.4393 -0.4581  0.2584
  871MOL0     H17519   9.377   2.230   3.556 -0.2794  0.3736 -0.0090
  871MOL0     H17520   9.403   2.646   3.391 -0.2442 -1.9963 -2.2475
  871MOL0     H17521   9.440   2.631   3.567  0.4853  3.7760 -1.5656
  871MOL0     H17522   9.671   2.536   3.465  0.6250  0.0385  1.3125
  871MOL0     H17523   9.647   2.696   3.531  1.4446  0.0091  0.1368
  871MOL0     H17524   9.588   2.778   3.301  1.5960  1.2639 -1.7680
  871MOL0     H17525   9.612   2.616   3.236  2.6749 -3.1145  1.8032
  871MOL0     H17526   9.831   2.752   3.398 -0.2674  3.1549 -1.5884
  871MOL0     H17527   9.826   2.595   3.325 -0.7065  0.6176  0.3867
  871MOL0     H17528   9.945   2.742   3.149 -1.1777 -0.2272 -2.7773
  871MOL0     H17529   9.777   2.733   3.100 -3.2407  0.7620  1.4654
  871MOL0     H17530   9.730   2.944   3.192  0.3185  0.0134 -0.6074
  871MOL0     H17531   9.885   2.950   3.279  1.4809  0.2876 -0.8806
  871MOL0     H17532   9.838   3.093   3.050  0.5004  1.2187 -0.7182
  871MOL0     H17533   9.873   2.929   2.983  1.5456  0.9124  0.2476
  871MOL0     H17534  10.057   3.129   3.041 -1.8725  0.5965  0.4591
  871MOL0     H17535  10.060   3.041   3.191 -1.7871  0.3970 -0.0139
  871MOL0     H17536  10.099   2.916   2.816  0.2300  1.0922  0.6420
  871MOL0     H17537  10.335   2.594   2.839  1.6955 -0.7418 -2.3976
  871MOL0     H17538  10.194   2.656   2.750  1.8956  0.4736 -1.5901
  871MOL0     H17539  10.320   2.831   2.642 -0.2589  2.8782  2.5460
  871MOL0     H17540  10.449   2.821   2.764 -0.1460  0.2820 -1.2660
  871MOL0     H17541  10.399   2.621   2.531  0.9973 -0.9904 -0.2216
  871MOL0     H17542  10.474   2.583   2.691  0.7436  2.1194  1.9994
  871MOL0     H17543  10.587   2.815   2.533  2.7545  1.1826  0.8804
  871MOL0     H17544  10.599   2.654   2.473  0.2746 -0.2838  0.6435
  871MOL0     H17545  10.778   2.847   2.442 -0.1679  0.8895  0.7043
  871MOL0     H17546  11.002   2.921   2.399 -3.4138 -0.4131 -1.7577
  871MOL0     H17547  11.447   2.776   2.392  1.5299 -1.7474 -0.3676
  871MOL0     H17548  11.681   2.853   2.330 -0.1039  6.9452 -0.5819
  871MOL0     H17549  11.951   2.949   2.680 -0.1317 -2.3069  0.3324
  871MOL0     H17550  11.960   2.811   2.575 -2.4685  0.8344 -4.1195
  871MOL0     H17551  12.065   3.000   2.408 -0.9572  0.5724  0.3290
  871MOL0     H17552  12.085   3.081   2.575 -0.9528 -0.4971 -0.4496
  871MOL0     H17553  12.244   2.921   2.649  0.9953  4.4709 -0.1344
  871MOL0     H17554  12.222   2.827   2.495 -0.6099 -0.4408  0.2861
  871MOL0     H17555  12.363   3.094   2.537  0.6677 -0.0505 -0.4374
  871MOL0     H17556  12.318   3.039   2.375  4.6882 -0.1150 -0.2238
  871MOL0     H17557  12.444   2.816   2.434 -0.6577 -0.5746  1.1177
  871MOL0     H17558  12.503   2.912   2.573  1.4178 -0.8976  0.1221
  871MOL0     H17559  12.660   2.909   2.390  0.7591 -0.0671  0.3449
  871MOL0     H17560  12.528   2.974   2.287 -0.0038  0.3598  0.6562
  871MOL0     H17561  12.625   3.144   2.517 -1.9609 -0.6247 -0.5728
  871MOL0     H17562  12.566   3.188   2.359  0.5170 -1.0453 -1.3573
  871MOL0     H17563  12.812   3.210   2.404  2.7384 -0.8327  0.2417
  871MOL0     H17564  12.825   3.038   2.419 -0.0918  0.4549  0.9526
  871MOL0     H17565  11.738   2.992   2.726 -1.4691  1.5864  0.7474
  871MOL0     H17566  11.524   2.911   2.782  0.9569 -1.2143 -0.2749
  871MOL0     H17567  11.116   2.722   2.782  2.9573 -2.0574 -3.3412
  871MOL0     H17568  10.877   2.662   2.814 -2.0621 -2.2054 -2.2401
  871MOL0     H17569   9.249   2.551   3.320 -0.0513 -0.4424 -0.7320
  871MOL0     H17570   9.032   2.449   3.290 -1.2302 -0.0962  0.8472
  871MOL0     H17571   8.803   2.068   3.467  1.1513  1.1879 -0.0292
  871MOL0     H17572   8.624   1.909   3.425 -0.1005 -0.9079 -2.7507
  871MOL0     H17573   8.234   2.097   3.268 -1.4115  1.5992  1.1977
  871MOL0     H17574   8.231   2.099   3.441  0.3540  0.8945 -1.0687
  871MOL0     H17575   8.181   1.862   3.266 -0.1806  1.8277 -0.9642
  871MOL0     H17576   8.055   1.946   3.359  0.0608 -1.4674 -1.4709
  871MOL0     H17577   8.197   1.848   3.577  1.6443 -1.9231  0.5830
  871MOL0     H17578   8.293   1.777   3.451  1.0665  2.5531  1.0691
  871MOL0     H17579   8.086   1.648   3.385 -1.6511  2.0075 -0.6710
  871MOL0     H17580   8.131   1.623   3.564  0.7436  2.0118  1.8711
  871MOL0     H17581   7.755   1.793   3.612 -1.2980 -1.6740 -1.2823
  871MOL0     H17582   8.381   2.246   3.292  0.0390  0.2544 -0.7082
  871MOL0     H17583   8.564   2.466   3.242 -0.8640  2.1012  0.4366
  871MOL0     H17584   8.442   2.485   3.369  1.0161  3.9601 -0.7807
  871MOL0     H17585   8.599   2.503   3.417 -2.2153  0.1653  2.6359
  872MOL0     O17586   1.196   1.123   7.526  0.4160 -0.4312  0.6295
  872MOL0     C17587   1.125   1.211   7.580  0.4982  1.1226 -0.1636
  872MOL0     O17588   1.162   1.277   7.702  0.4588  0.1264 -0.4947
  872MOL0     C17589   1.271   1.241   7.774 -0.0556 -0.0205  0.1033
  872MOL0     C17590   1.316   1.109   7.800 -0.0425 -0.2750  0.1824
  872MOL0     C17591   1.427   1.092   7.884  0.4544  0.1424 -0.5646
  872MOL0     C17592   1.486   1.198   7.957  0.4463 -1.0290 -0.3050
  872MOL0     O17593   1.577   1.188   8.061  1.0811 -0.3897  0.6013
  872MOL0     C17594   1.660   1.072   8.062  0.3185  0.2349  0.5623
  872MOL0     C17595   1.743   1.064   8.185 -0.4722  0.0415 -0.4025
  872MOL0     C17596   1.848   1.167   8.168 -0.8296  0.0569 -0.7741
  872MOL0     C17597   1.943   1.166   8.286 -0.4562  0.4230  0.0923
  872MOL0     C17598   2.055   1.270   8.282  0.1671 -1.0297 -0.3945
  872MOL0     C17599   2.163   1.246   8.178  0.2592 -0.6870 -0.6138
  872MOL0     C17600   2.257   1.369   8.174 -0.7446  0.0787  0.2670
  872MOL0     C17601   2.384   1.324   8.101 -0.3179  0.3597  0.8509
  872MOL0     N17602   2.478   1.443   8.097  0.3801 -0.1913 -0.2447
  872MOL0     C17603   2.472   1.540   8.007  1.0636 -0.1691 -0.1843
  872MOL0     C17604   2.562   1.633   8.057  0.0141  0.2418 -0.3444
  872MOL0     C17605   2.581   1.772   8.013 -0.2706 -0.2780  0.2808
  872MOL0     C17606   2.494   1.863   8.103 -0.2929  0.4438 -0.4918
  872MOL0     C17607   2.522   2.017   8.074  0.1357  0.2531  0.2437
  872MOL0     C17608   2.648   2.064   8.139 -0.1036 -0.6153  0.4450
  872MOL0     O17609   2.668   2.207   8.129 -0.1783 -0.6056  0.0269
  872MOL0     C17610   2.800   2.259   8.140  0.9925 -1.0037  1.1914
  872MOL0     C17611   2.826   2.370   8.061 -0.0368 -1.0998 -0.5023
  872MOL0     C17612   2.957   2.423   8.053  0.1951 -0.2665 -0.9506
  872MOL0     C17613   3.058   2.365   8.126  0.3194  1.0188  0.4825
  872MOL0     C17614   3.196   2.413   8.125 -0.2267 -0.7794  0.4137
  872MOL0     O17615   3.288   2.334   8.180 -0.6920  0.3049 -0.4649
  872MOL0     C17616   3.423   2.374   8.194 -0.6135 -0.1825 -0.1562
  872MOL0     C17617   3.470   2.464   8.292 -0.4577  0.1875 -0.0244
  872MOL0     C17618   3.603   2.506   8.293 -0.1045 -0.3629  0.3880
  872MOL0     C17619   3.697   2.455   8.191 -0.0377  0.3675 -0.4049
  872MOL0     O17620   3.840   2.469   8.205  0.3297 -0.4275 -0.4553
  872MOL0     C17621   3.916   2.458   8.088  0.9228 -0.1100  0.3297
  872MOL0     C17622   4.063   2.519   8.098  0.5383  0.0843 -0.0410
  872MOL0     C17623   4.146   2.421   8.184  0.5114 -1.3125  0.1567
  872MOL0     C17624   4.285   2.448   8.151 -1.0019  0.5124 -0.5704
  872MOL0     C17625   4.385   2.360   8.228 -0.2635  0.0861  0.0284
  872MOL0     C17626   4.525   2.423   8.228 -0.6051 -0.3783 -0.1896
  872MOL0     C17627   4.605   2.378   8.352 -1.3846 -0.3559  0.0503
  872MOL0     C17628   4.744   2.443   8.329 -0.2948  0.0951 -0.0615
  872MOL0    Cl17629   4.827   2.392   8.474  0.0244 -0.1665  0.4571
  872MOL0     C17630   3.638   2.381   8.092 -0.0184 -0.2033  0.4235
  872MOL0     C17631   3.506   2.331   8.094 -0.3665  0.2172  0.2202
  872MOL0     O17632   3.211   2.529   8.077  0.2828  0.8781 -0.8279
  872MOL0     C17633   3.023   2.251   8.199  0.2877 -0.8183 -0.4977
  872MOL0     C17634   2.897   2.191   8.216 -0.2796  0.7725  0.0129
  872MOL0     N17635   2.610   1.587   8.180  0.3175  0.1042  0.6810
  872MOL0     N17636   2.563   1.472   8.203 -0.5630  0.0491 -0.3155
  872MOL0     C17637   1.443   1.328   7.924  1.5724 -0.7551 -0.9404
  872MOL0     C17638   1.332   1.352   7.838 -0.3545 -0.3644  0.3016
  872MOL0     C17639   0.986   1.232   7.540 -0.1780 -0.7494 -0.2943
  872MOL0     C17640   0.915   1.319   7.621  0.9896  0.6262 -0.3553
  872MOL0     C17641   0.778   1.353   7.587  0.3121 -0.1900  0.6011
  872MOL0     C17642   0.707   1.304   7.477 -0.4187 -0.4403  0.3643
  872MOL0     O17643   0.583   1.345   7.442  0.3314  0.2148  0.3924
  872MOL0     C17644   0.529   1.442   7.528  0.1345 -0.4307 -0.0063
  872MOL0     C17645   0.383   1.462   7.482  0.7383  0.0705  0.6762
  872MOL0     C17646   0.314   1.595   7.534 -0.0180 -0.4219 -0.2097
  872MOL0     C17647   0.267   1.598   7.676 -0.9266  0.5315  1.0539
  872MOL0     C17648   0.380   1.635   7.763 -0.5798  1.2441 -0.5118
  872MOL0     C17649   0.489   1.655   7.824  0.3735  0.6734  0.0679
  872MOL0     C17650   0.787   1.232   7.396  0.5422 -0.1802  0.9645
  872MOL0     C17651   0.924   1.194   7.417  1.4804  0.1442  0.4995
  872MOL0     C17652   0.999   1.135   7.304  0.3449 -0.2714 -0.9183
  872MOL0     H17653   1.263   1.026   7.755  0.6381 -0.8203  0.3677
  872MOL0     H17654   1.463   0.992   7.908  0.6314  0.4743  0.5932
  872MOL0     H17655   1.600   0.981   8.053 -0.8384  1.0827 -0.7374
  872MOL0     H17656   1.729   1.050   7.981  0.8401 -0.0216  1.0691
  872MOL0     H17657   1.788   0.965   8.198 -4.1322 -1.4328  3.4302
  872MOL0     H17658   1.678   1.084   8.271 -2.8337 -0.7899 -1.9082
  872MOL0     H17659   1.801   1.263   8.149 -2.7501 -0.5133  0.7759
  872MOL0     H17660   1.907   1.139   8.080 -0.4924 -0.7101 -0.3203
  872MOL0     H17661   1.890   1.192   8.377  0.7889  0.7363  0.7441
  872MOL0     H17662   1.991   1.069   8.306 -3.0681 -1.4098 -1.7788
  872MOL0     H17663   2.012   1.369   8.264  2.4326 -0.1636 -1.4736
  872MOL0     H17664   2.111   1.278   8.375 -0.0528  2.3835 -0.4248
  872MOL0     H17665   2.220   1.163   8.222 -0.4091  0.5597  2.9461
  872MOL0     H17666   2.113   1.225   8.083 -1.9575 -2.0567  0.7470
  872MOL0     H17667   2.278   1.403   8.275 -0.8144 -0.9802  0.6509
  872MOL0     H17668   2.213   1.456   8.125  0.7133  0.7309  0.0777
  872MOL0     H17669   2.436   1.243   8.153 -0.3737 -0.2160  0.0294
  872MOL0     H17670   2.366   1.289   7.999  1.0252 -2.7953  1.5680
  872MOL0     H17671   2.408   1.555   7.920 -1.6427  2.0768  1.9704
  872MOL0     H17672   2.688   1.794   8.015 -0.1014 -0.5034 -2.3353
  872MOL0     H17673   2.555   1.779   7.907 -1.7880  2.4441  0.7346
  872MOL0     H17674   2.389   1.839   8.084 -0.3354 -0.9896  1.2859
  872MOL0     H17675   2.517   1.838   8.207 -2.9568  0.8080  0.2474
  872MOL0     H17676   2.441   2.071   8.124 -0.3669 -1.5825  1.4982
  872MOL0     H17677   2.534   2.045   7.969  0.9399 -2.0224 -0.3232
  872MOL0     H17678   2.730   2.006   8.095 -3.3336 -2.0994 -4.4238
  872MOL0     H17679   2.651   2.046   8.247 -2.6260 -1.1097  0.4937
  872MOL0     H17680   2.752   2.413   7.994  0.6525 -2.6503 -2.3516
  872MOL0     H17681   2.971   2.517   8.000 -1.3825 -0.1399 -1.1793
  872MOL0     H17682   3.393   2.498   8.361 -1.4366 -2.3317  0.2529
  872MOL0     H17683   3.652   2.569   8.367  1.7867 -0.1751 -0.9716
  872MOL0     H17684   3.925   2.351   8.067  0.4191  0.0875 -0.9490
  872MOL0     H17685   3.857   2.499   8.006 -0.5090  0.0439  1.3894
  872MOL0     H17686   4.102   2.520   7.996 -1.2759 -1.1908 -0.7951
  872MOL0     H17687   4.062   2.616   8.148  0.2015 -0.5977  1.3328
  872MOL0     H17688   4.115   2.448   8.285 -2.4719 -2.9330 -0.2046
  872MOL0     H17689   4.126   2.315   8.169 -0.7187 -1.6244  3.3457
  872MOL0     H17690   4.306   2.554   8.168 -0.6660  0.0453  2.5778
  872MOL0     H17691   4.296   2.440   8.043 -3.1652 -2.1959 -0.7035
  872MOL0     H17692   4.382   2.255   8.197  0.0375 -0.0932  0.6047
  872MOL0     H17693   4.351   2.368   8.332 -1.6979 -0.1767 -0.3875
  872MOL0     H17694   4.584   2.407   8.137  1.2505  1.2485  0.6321
  872MOL0     H17695   4.515   2.532   8.237  1.0817 -0.2341  0.3441
  872MOL0     H17696   4.631   2.273   8.365  0.9507  0.3912  2.1843
  872MOL0     H17697   4.551   2.423   8.436 -0.7474  1.5866 -0.5152
  872MOL0     H17698   4.788   2.414   8.233 -0.9965  2.1821 -1.0793
  872MOL0     H17699   4.741   2.552   8.337  0.6146  0.1231 -0.0065
  872MOL0     H17700   3.691   2.347   8.004 -2.8753  0.2704 -1.6150
  872MOL0     H17701   3.469   2.260   8.020 -1.4853  1.6399 -0.6499
  872MOL0     H17702   3.105   2.209   8.257 -0.2916  0.3513  1.2263
  872MOL0     H17703   2.896   2.098   8.272 -0.6182  1.3406  0.9599
  872MOL0     H17704   1.482   1.413   7.978 -2.2435  1.3229 -1.0496
  872MOL0     H17705   1.308   1.454   7.809  0.8653  0.3657  1.7550
  872MOL0     H17706   0.962   1.364   7.708 -1.6521  0.1642  1.4140
  872MOL0     H17707   0.738   1.417   7.665  1.2242 -2.9040  3.4833
  872MOL0     H17708   0.578   1.539   7.514 -0.0788 -0.5491 -1.9186
  872MOL0     H17709   0.535   1.414   7.633  2.4973  0.9008  0.2968
  872MOL0     H17710   0.304   1.391   7.507  1.1401 -1.7265 -2.6296
  872MOL0     H17711   0.382   1.467   7.373 -1.9364  0.8963  0.6673
  872MOL0     H17712   0.221   1.609   7.478 -0.7944 -1.2113  0.8458
  872MOL0     H17713   0.371   1.683   7.504 -0.1372 -0.9216 -2.0395
  872MOL0     H17714   0.193   1.677   7.692 -1.7298 -0.5433  3.0516
  872MOL0     H17715   0.214   1.504   7.696 -2.0747  0.5739 -1.3826
  872MOL0     H17716   0.576   1.672   7.884  0.5568  0.3698 -0.1070
  872MOL0     H17717   0.748   1.210   7.298 -0.1433  1.5032  0.8190
  872MOL0     H17718   1.087   1.076   7.332  0.1445 -0.4892 -0.7500
  872MOL0     H17719   0.935   1.077   7.236 -2.8175  1.1795  0.6137
  872MOL0     H17720   1.041   1.215   7.242 -1.9879  1.6379 -0.1766
  873MOL0     O17721   7.578   7.002   1.476  0.3773 -0.3890 -0.1021
  873MOL0     C17722   7.549   7.091   1.392 -0.4478 -0.7369  0.9783
  873MOL0     O17723   7.629   7.203   1.370 -0.4091  0.2682 -0.0644
  873MOL0     C17724   7.733   7.235   1.452  0.3832  0.3520 -0.7235
  873MOL0     C17725   7.851   7.159   1.433  0.2707 -0.5431 -0.1713
  873MOL0     C17726   7.972   7.213   1.486 -0.6229  0.6520 -1.0712
  873MOL0     C17727   7.968   7.331   1.565 -0.7650 -0.2312  0.3100
  873MOL0     O17728   8.097   7.377   1.615 -0.5456 -0.0035  0.0540
  873MOL0     C17729   8.095   7.470   1.726  0.3789 -0.2997 -0.5145
  873MOL0     C17730   8.244   7.510   1.759 -0.5764 -0.8401  0.3817
  873MOL0     C17731   8.270   7.606   1.889 -0.6014  0.3781  0.3038
  873MOL0     C17732   8.172   7.719   1.899  0.0731 -0.4665  0.7432
  873MOL0     C17733   8.219   7.836   1.988 -0.5716  0.3469  0.3640
  873MOL0     C17734   8.110   7.946   2.013  0.3569 -0.7065 -0.8782
  873MOL0     C17735   8.035   7.997   1.879 -0.0237  0.5935  0.1970
  873MOL0     C17736   7.963   8.130   1.891  0.3367 -0.0664 -0.4062
  873MOL0     N17737   7.852   8.118   1.991  0.1314 -0.0283  0.6326
  873MOL0     C17738   7.862   8.133   2.130  1.0077  0.0384 -0.3424
  873MOL0     C17739   7.744   8.101   2.189 -0.0153 -1.0462  0.9105
  873MOL0     C17740   7.715   8.108   2.340  0.8649  0.2913 -0.5045
  873MOL0     C17741   7.623   8.229   2.376 -0.2834  0.3655  0.0942
  873MOL0     C17742   7.710   8.357   2.386 -1.3929 -0.3896 -0.6890
  873MOL0     C17743   7.616   8.476   2.402 -0.3727  0.1555  0.4827
  873MOL0     O17744   7.607   8.500   2.545 -0.9217  0.5221  0.4730
  873MOL0     C17745   7.496   8.558   2.611  0.4566 -0.6932  0.1406
  873MOL0     C17746   7.468   8.524   2.744 -0.9254 -0.0428 -0.8446
  873MOL0     C17747   7.367   8.580   2.814  0.5508 -0.3031 -0.4475
  873MOL0     C17748   7.281   8.675   2.761  0.1978 -0.1686  0.8012
  873MOL0     C17749   7.164   8.721   2.839 -0.0472 -0.7587  0.0946
  873MOL0     O17750   7.077   8.804   2.771  0.6718  0.7418 -0.4379
  873MOL0     C17751   6.959   8.848   2.833 -0.5111  0.2735  0.1779
  873MOL0     C17752   6.896   8.945   2.766  0.3356 -0.1364  0.4275
  873MOL0     C17753   6.756   8.979   2.798 -0.5454  0.6736 -0.3565
  873MOL0     C17754   6.691   8.923   2.901  0.7455  0.2639  0.1450
  873MOL0     O17755   6.565   8.958   2.937 -0.4000 -0.6270  0.9263
  873MOL0     C17756   6.487   8.880   3.012 -0.4925 -0.3575 -0.0977
  873MOL0     C17757   6.344   8.955   3.007 -0.3952  0.6144  0.4998
  873MOL0     C17758   6.252   8.874   3.108  0.0675 -0.1000 -0.1950
  873MOL0     C17759   6.109   8.930   3.132  0.1652 -0.2446  1.1358
  873MOL0     C17760   6.025   8.823   3.187 -0.0239 -0.0584 -0.6403
  873MOL0     C17761   5.876   8.865   3.187 -0.0924 -0.2601 -0.4787
  873MOL0     C17762   5.787   8.751   3.250 -0.1182 -0.3576  0.7284
  873MOL0     C17763   5.649   8.792   3.291 -0.5780 -0.4551 -0.3209
  873MOL0    Cl17764   5.561   8.884   3.164 -0.0958 -0.1143  0.3397
  873MOL0     C17765   6.758   8.817   2.964  0.3831 -0.8454  0.0331
  873MOL0     C17766   6.892   8.786   2.935 -0.0461  0.4981 -0.3371
  873MOL0     O17767   7.167   8.695   2.961 -0.4414 -0.0332  0.4791
  873MOL0     C17768   7.300   8.714   2.628  1.0303  0.2433  0.6784
  873MOL0     C17769   7.404   8.650   2.550 -0.5723 -0.8278 -0.1828
  873MOL0     N17770   7.661   8.063   2.085 -0.4574  0.2760 -0.3665
  873MOL0     N17771   7.717   8.080   1.973 -0.4556 -0.1587  0.1260
  873MOL0     C17772   7.855   7.402   1.580  0.3756  0.0716  0.0746
  873MOL0     C17773   7.738   7.356   1.523  0.2747 -0.4509  0.3448
  873MOL0     C17774   7.428   7.069   1.319  0.0665 -0.2859 -0.1255
  873MOL0     C17775   7.329   7.163   1.341 -0.2930  0.2461 -0.0019
  873MOL0     C17776   7.201   7.164   1.276  0.1704  0.4361  0.4738
  873MOL0     C17777   7.179   7.061   1.185 -0.6782 -0.7029 -0.7729
  873MOL0     O17778   7.054   7.034   1.130 -0.2659  0.0172 -0.6854
  873MOL0     C17779   6.939   7.120   1.163  0.9260  0.9177  0.9063
  873MOL0     C17780   6.818   7.109   1.061  0.4770 -0.6577 -0.3708
  873MOL0     C17781   6.771   6.964   1.032 -0.3007 -0.1903  0.1096
  873MOL0     C17782   6.628   6.945   0.969 -0.2587  0.2841  0.2923
  873MOL0     C17783   6.523   6.969   1.068 -0.5098 -0.1015 -0.1622
  873MOL0     C17784   6.431   7.008   1.138 -0.5588 -0.8859 -0.0583
  873MOL0     C17785   7.284   6.977   1.154  0.6338  0.4250  0.1115
  873MOL0     C17786   7.408   6.972   1.221 -0.5118 -0.4372  0.8698
  873MOL0     C17787   7.526   6.880   1.173  0.6749  0.3726  0.2640
  873MOL0     H17788   7.839   7.083   1.357 -1.0310 -0.0401 -0.4975
  873MOL0     H17789   8.064   7.155   1.487 -0.8469  0.2190  1.2364
  873MOL0     H17790   8.040   7.560   1.698  2.1286  1.9549  2.6066
  873MOL0     H17791   8.051   7.424   1.814 -0.6022 -1.5618 -1.6312
  873MOL0     H17792   8.287   7.566   1.676 -1.4522 -2.5555 -1.3028
  873MOL0     H17793   8.297   7.415   1.769 -0.2680 -0.7626 -0.4765
  873MOL0     H17794   8.371   7.647   1.887 -0.6555  0.5638  1.0837
  873MOL0     H17795   8.260   7.541   1.976 -2.8386  0.6372  0.3089
  873MOL0     H17796   8.163   7.757   1.797  0.5827 -2.1559  0.0319
  873MOL0     H17797   8.075   7.675   1.925 -0.2537 -0.9185 -1.0958
  873MOL0     H17798   8.250   7.782   2.078 -2.6185  0.1445  0.9982
  873MOL0     H17799   8.301   7.891   1.940 -0.9480 -0.6457 -1.5010
  873MOL0     H17800   8.029   7.904   2.074  0.4571 -1.0182 -0.9589
  873MOL0     H17801   8.155   8.031   2.064  0.8045 -1.4241 -0.0273
  873MOL0     H17802   7.972   7.919   1.835 -0.1705 -0.7139  2.5591
  873MOL0     H17803   8.113   8.014   1.804 -2.6524  2.4321 -2.3032
  873MOL0     H17804   8.040   8.201   1.923 -0.9353  1.0807  0.2144
  873MOL0     H17805   7.921   8.154   1.793  0.0821  1.2567  0.0055
  873MOL0     H17806   7.946   8.167   2.191  0.2855 -0.7280  1.1351
  873MOL0     H17807   7.660   8.014   2.355  4.2990 -2.0539 -1.5407
  873MOL0     H17808   7.811   8.113   2.392  1.6754 -0.8201 -1.8087
  873MOL0     H17809   7.544   8.236   2.300  2.3750 -0.9624 -3.0101
  873MOL0     H17810   7.580   8.211   2.475  0.5344 -0.8309  0.2492
  873MOL0     H17811   7.772   8.369   2.297 -3.2279  3.7642 -1.6639
  873MOL0     H17812   7.783   8.350   2.467 -1.8891  0.9656 -0.0830
  873MOL0     H17813   7.516   8.466   2.358  1.0099  1.5674 -3.3299
  873MOL0     H17814   7.659   8.560   2.346 -3.6285  0.3029 -2.1352
  873MOL0     H17815   7.537   8.454   2.789 -1.4577 -1.4113 -2.0760
  873MOL0     H17816   7.343   8.553   2.917 -0.8202  1.2842 -0.2970
  873MOL0     H17817   6.958   8.992   2.690 -0.4097 -0.5233 -0.4287
  873MOL0     H17818   6.713   9.065   2.747  0.2054  0.8852 -0.6419
  873MOL0     H17819   6.479   8.783   2.963  3.4293  0.2154 -2.2629
  873MOL0     H17820   6.526   8.878   3.114 -1.1782 -1.8548  0.1571
  873MOL0     H17821   6.369   9.053   3.050  0.1497  0.3594  0.7763
  873MOL0     H17822   6.310   8.956   2.903 -0.0073  0.5778  0.3711
  873MOL0     H17823   6.240   8.778   3.056 -0.9138 -0.0382 -0.1041
  873MOL0     H17824   6.306   8.861   3.202 -0.7582 -2.4595  0.0264
  873MOL0     H17825   6.068   8.965   3.036  3.3760 -1.0564 -0.6703
  873MOL0     H17826   6.102   9.024   3.188 -0.2362 -0.4706  1.4772
  873MOL0     H17827   6.054   8.799   3.289 -1.7583 -3.8345 -0.8620
  873MOL0     H17828   6.045   8.741   3.117 -1.2460  1.0282 -2.3536
  873MOL0     H17829   5.855   8.960   3.237  2.0655 -1.0056  2.0888
  873MOL0     H17830   5.845   8.874   3.083 -0.0423  4.5831 -0.3176
  873MOL0     H17831   5.844   8.702   3.329 -0.3857  1.5317  2.1816
  873MOL0     H17832   5.771   8.675   3.173  1.1014 -1.2436  1.3153
  873MOL0     H17833   5.587   8.704   3.309 -0.2063 -1.4203 -3.2527
  873MOL0     H17834   5.660   8.857   3.378 -0.7674 -1.4691  0.4817
  873MOL0     H17835   6.715   8.775   3.054  0.1333 -0.5792  0.0396
  873MOL0     H17836   6.949   8.710   2.988  1.1895  1.5131 -0.1596
  873MOL0     H17837   7.231   8.787   2.588  3.5742  1.6977 -1.4004
  873MOL0     H17838   7.421   8.683   2.448 -1.5382 -2.3649 -0.8858
  873MOL0     H17839   7.833   7.503   1.612 -2.5491 -0.1955 -0.8589
  873MOL0     H17840   7.646   7.411   1.538 -0.0530 -1.4662  2.3767
  873MOL0     H17841   7.343   7.224   1.430 -2.5924 -0.7946  1.1507
  873MOL0     H17842   7.121   7.225   1.316  0.0024 -0.5986  1.7651
  873MOL0     H17843   6.971   7.225   1.164 -1.0714  1.5746  0.5764
  873MOL0     H17844   6.901   7.082   1.258  0.4455 -1.5039 -0.1627
  873MOL0     H17845   6.856   7.148   0.966 -1.2024  0.5091 -0.6221
  873MOL0     H17846   6.735   7.174   1.091  0.3462  0.1266 -2.2728
  873MOL0     H17847   6.777   6.905   1.124 -0.1697  1.0610  0.9340
  873MOL0     H17848   6.845   6.921   0.964  2.0587 -1.2236  3.0607
  873MOL0     H17849   6.615   7.015   0.886 -1.6721 -0.6046 -0.2727
  873MOL0     H17850   6.617   6.851   0.915  3.1352  0.1766 -0.4297
  873MOL0     H17851   6.342   7.050   1.182  1.1983  2.8774  0.2287
  873MOL0     H17852   7.245   6.899   1.089  1.1833  1.5061 -1.5862
  873MOL0     H17853   7.544   6.804   1.249  1.0245  2.0777  1.9496
  873MOL0     H17854   7.511   6.833   1.075  1.5299  0.6346 -0.0019
  873MOL0     H17855   7.621   6.934   1.165  0.0046  1.7878  1.2808
  874MOL0     O17856   6.313   8.732   5.724  0.2040  0.0829  0.1079
  874MOL0     C17857   6.374   8.626   5.712  0.0179 -0.1959 -0.8855
  874MOL0     O17858   6.510   8.612   5.741  0.2527  0.1690  0.1521
  874MOL0     C17859   6.583   8.719   5.789 -0.0804  0.9604  0.4579
  874MOL0     C17860   6.679   8.784   5.715  0.2064 -0.1189  0.4685
  874MOL0     C17861   6.758   8.887   5.783 -0.8907 -0.5198  0.2339
  874MOL0     C17862   6.742   8.909   5.924  0.4780 -0.1950 -0.5879
  874MOL0     O17863   6.820   8.984   6.011 -0.2798  0.8452  0.3971
  874MOL0     C17864   6.943   9.037   5.962  0.1977 -0.0211  0.1482
  874MOL0     C17865   7.036   9.072   6.075  0.1879 -0.2449 -0.3036
  874MOL0     C17866   7.156   9.141   6.021  0.3528  0.8963  0.8459
  874MOL0     C17867   7.260   9.158   6.118 -0.0665 -0.1377  0.7413
  874MOL0     C17868   7.385   9.228   6.058  0.6476 -0.0659  0.2637
  874MOL0     C17869   7.517   9.201   6.133 -1.1190 -0.2607 -0.1508
  874MOL0     C17870   7.633   9.273   6.056 -0.4342  0.6425 -0.2384
  874MOL0     C17871   7.771   9.194   6.045  0.3344 -0.8518 -0.4070
  874MOL0     N17872   7.879   9.268   5.978 -0.2067 -0.7381 -0.0609
  874MOL0     C17873   7.927   9.387   6.031 -0.4638 -0.2630  0.2688
  874MOL0     C17874   8.015   9.436   5.938  0.2484  0.4270  0.6485
  874MOL0     C17875   8.075   9.572   5.944 -0.1027  0.0562 -0.6152
  874MOL0     C17876   8.219   9.576   5.909 -0.3587 -0.4702 -0.1778
  874MOL0     C17877   8.254   9.713   5.849 -0.1565  0.3010 -0.2467
  874MOL0     C17878   8.405   9.728   5.822 -0.6942 -0.2164 -0.4210
  874MOL0     O17879   8.465   9.600   5.793  0.6817 -0.0540 -0.1633
  874MOL0     C17880   8.603   9.602   5.775 -0.0572  1.0828 -0.2161
  874MOL0     C17881   8.659   9.477   5.730  0.2538 -0.5845  0.4532
  874MOL0     C17882   8.793   9.472   5.684  0.4177 -0.3360 -0.4451
  874MOL0     C17883   8.882   9.588   5.679  0.8150 -0.1500 -0.8356
  874MOL0     C17884   9.026   9.576   5.623 -0.2865 -0.1072 -0.0586
  874MOL0     O17885   9.100   9.685   5.612  0.1817  0.8552  0.4990
  874MOL0     C17886   9.225   9.682   5.556  0.1509  0.0162 -0.3594
  874MOL0     C17887   9.301   9.793   5.590  0.7129  0.3190 -0.0402
  874MOL0     C17888   9.435   9.805   5.544 -1.0133 -1.0414 -0.5978
  874MOL0     C17889   9.484   9.716   5.443 -0.0818  0.6766  0.3226
  874MOL0     O17890   9.612   9.740   5.390  0.0914  0.6147  0.4153
  874MOL0     C17891   9.698   9.624   5.381 -0.7847  0.3299 -0.1362
  874MOL0     C17892   9.831   9.680   5.346 -0.1889  0.3449  0.7034
  874MOL0     C17893   9.883   9.765   5.463 -0.0168  0.2223 -0.3185
  874MOL0     C17894  10.022   9.823   5.444 -0.0641  0.2730 -0.2389
  874MOL0     C17895  10.137   9.716   5.442 -0.8196  0.4570  0.0553
  874MOL0     C17896  10.273   9.770   5.476 -0.3428 -0.0169 -0.1990
  874MOL0     C17897  10.338   9.848   5.351 -0.6150  0.4115  0.2594
  874MOL0     C17898  10.405   9.756   5.235  0.1127  0.4237 -0.1457
  874MOL0    Cl17899  10.523   9.642   5.307  0.0048 -0.0593 -0.2145
  874MOL0     C17900   9.400   9.614   5.396  0.0024  0.0018  0.6924
  874MOL0     C17901   9.271   9.599   5.447 -0.3488 -0.6061 -0.0884
  874MOL0     O17902   9.069   9.465   5.595  0.5497 -0.3570  0.1432
  874MOL0     C17903   8.817   9.710   5.713  0.6615  0.5958  0.5620
  874MOL0     C17904   8.686   9.716   5.756  0.8908 -0.5199  0.9857
  874MOL0     N17905   8.019   9.347   5.833 -0.0359 -1.0776  0.3363
  874MOL0     N17906   7.937   9.247   5.856 -0.0215  0.1298  0.5512
  874MOL0     C17907   6.643   8.836   5.992 -0.3418  0.4146  0.1289
  874MOL0     C17908   6.568   8.742   5.921  0.4014  0.1315 -0.4551
  874MOL0     C17909   6.291   8.501   5.690 -0.2718  0.7703  0.2522
  874MOL0     C17910   6.345   8.378   5.723 -0.4884 -0.0884  0.4660
  874MOL0     C17911   6.275   8.259   5.729  0.5368 -0.3853  0.8054
  874MOL0     C17912   6.140   8.256   5.692  0.8023  0.2633 -0.0303
  874MOL0     O17913   6.071   8.138   5.697  0.5406 -0.2103  0.0363
  874MOL0     C17914   6.120   8.006   5.728 -0.7048 -0.5187  0.3710
  874MOL0     C17915   6.035   7.896   5.664 -0.6994 -0.4189  0.1700
  874MOL0     C17916   5.943   7.827   5.777 -0.8281 -0.7976  0.7212
  874MOL0     C17917   5.865   7.725   5.702 -1.2132  0.9136  0.2348
  874MOL0     C17918   5.956   7.611   5.671  0.0879 -0.9826  0.3996
  874MOL0     C17919   6.051   7.527   5.650 -0.0307 -0.4856 -0.5556
  874MOL0     C17920   6.080   8.368   5.648  0.5742 -0.2961  0.2955
  874MOL0     C17921   6.154   8.491   5.647 -0.0474 -0.0550  0.5502
  874MOL0     C17922   6.070   8.610   5.607  0.0237 -0.7475 -0.6088
  874MOL0     H17923   6.714   8.773   5.612  0.1304  1.7544  0.2218
  874MOL0     H17924   6.828   8.948   5.726 -0.9251 -1.3650 -0.7584
  874MOL0     H17925   7.000   8.961   5.907  1.9875  1.8213 -0.6821
  874MOL0     H17926   6.927   9.128   5.903 -0.2170 -0.0946  0.1488
  874MOL0     H17927   7.071   8.983   6.129 -0.6452 -0.8502 -0.7491
  874MOL0     H17928   6.984   9.134   6.149  0.4065  0.8332 -1.0459
  874MOL0     H17929   7.137   9.240   5.978  0.2552 -0.2879 -2.0790
  874MOL0     H17930   7.197   9.079   5.941 -1.6787  1.1653 -0.4620
  874MOL0     H17931   7.236   9.224   6.202  0.6594  0.0133  0.8445
  874MOL0     H17932   7.289   9.060   6.156 -0.9758 -0.5883  0.2789
  874MOL0     H17933   7.406   9.204   5.953  0.5736  2.1006 -0.3155
  874MOL0     H17934   7.361   9.335   6.054  0.2352 -0.1715 -0.2829
  874MOL0     H17935   7.505   9.230   6.238 -1.9949  1.3122 -0.6640
  874MOL0     H17936   7.531   9.092   6.138 -0.7316 -0.3164 -1.8933
  874MOL0     H17937   7.639   9.378   6.087 -4.1414  0.4376  1.8253
  874MOL0     H17938   7.609   9.272   5.950 -2.9756 -0.8890  0.2707
  874MOL0     H17939   7.818   9.165   6.139  3.2094 -2.6477 -2.2402
  874MOL0     H17940   7.753   9.101   5.990 -0.3114 -1.4608  0.7758
  874MOL0     H17941   7.900   9.454   6.112 -0.4139  0.7466 -0.5193
  874MOL0     H17942   8.024   9.634   5.870  1.2021  1.1021 -0.6663
  874MOL0     H17943   8.059   9.607   6.047 -1.4421 -0.8454 -0.4857
  874MOL0     H17944   8.275   9.547   5.998  1.5184  2.1936 -0.3751
  874MOL0     H17945   8.242   9.505   5.829  2.1476  0.2834 -0.1912
  874MOL0     H17946   8.220   9.793   5.916  1.5304 -0.3212  1.4569
  874MOL0     H17947   8.205   9.732   5.753  0.8447  0.0349 -0.8261
  874MOL0     H17948   8.450   9.774   5.910  0.9912  3.0515 -2.7640
  874MOL0     H17949   8.424   9.798   5.740 -2.1627  0.6791 -0.0318
  874MOL0     H17950   8.598   9.387   5.724  0.5737 -0.8035  0.4723
  874MOL0     H17951   8.843   9.383   5.647  0.6309 -0.1422 -0.6227
  874MOL0     H17952   9.271   9.862   5.669  0.5446  3.8219 -2.8879
  874MOL0     H17953   9.501   9.877   5.590 -2.3693 -0.3370  0.3201
  874MOL0     H17954   9.699   9.576   5.479  1.4114  5.0326  2.4995
  874MOL0     H17955   9.671   9.556   5.300  1.4544 -0.2074 -0.4813
  874MOL0     H17956   9.904   9.602   5.323 -1.1512 -1.0676  2.1582
  874MOL0     H17957   9.836   9.744   5.258  1.0950 -1.9386 -0.9978
  874MOL0     H17958   9.816   9.851   5.465  0.9273  0.9664  0.2527
  874MOL0     H17959   9.877   9.723   5.564 -0.3030  0.6249 -0.1652
  874MOL0     H17960  10.037   9.891   5.528 -1.3141  1.5901 -1.0298
  874MOL0     H17961  10.012   9.876   5.348 -1.8445 -2.8835 -1.9752
  874MOL0     H17962  10.141   9.666   5.345  0.1813  1.7413 -0.5947
  874MOL0     H17963  10.100   9.651   5.522 -1.6656  0.7141 -0.1184
  874MOL0     H17964  10.264   9.839   5.561 -4.4035  1.6613 -1.7256
  874MOL0     H17965  10.339   9.689   5.506 -0.1294  0.8836  1.9430
  874MOL0     H17966  10.424   9.903   5.389  0.9464 -1.4880 -0.3575
  874MOL0     H17967  10.255   9.908   5.313 -0.8143 -0.2653 -0.4020
  874MOL0     H17968  10.331   9.707   5.171 -0.4029  1.9152 -0.7384
  874MOL0     H17969  10.473   9.815   5.172  2.0566 -0.9615  0.5628
  874MOL0     H17970   9.445   9.549   5.322  1.1663  0.9592  0.5250
  874MOL0     H17971   9.210   9.524   5.396  0.8965 -0.7727 -1.4165
  874MOL0     H17972   8.868   9.804   5.698 -0.8971  1.4612  0.5045
  874MOL0     H17973   8.655   9.819   5.772  1.6419  0.6869 -3.8788
  874MOL0     H17974   6.624   8.836   6.099  1.0872  1.2989  0.4050
  874MOL0     H17975   6.506   8.673   5.979  0.4204  0.4654 -0.0270
  874MOL0     H17976   6.452   8.369   5.737 -0.5045  0.6087  1.0895
  874MOL0     H17977   6.329   8.169   5.757  0.6269 -0.5918  0.0028
  874MOL0     H17978   6.133   8.003   5.837  1.7892 -0.9023  0.1219
  874MOL0     H17979   6.221   7.984   5.690 -1.0828  0.7326 -1.4932
  874MOL0     H17980   6.100   7.820   5.619 -3.8322 -2.7019 -0.8731
  874MOL0     H17981   5.970   7.942   5.589 -1.9820 -0.0614  1.4493
  874MOL0     H17982   5.874   7.894   5.829  1.1382  1.6062  0.3628
  874MOL0     H17983   6.011   7.790   5.854 -0.9720  1.7830  2.1932
  874MOL0     H17984   5.796   7.695   5.782  2.0716 -2.9051  2.0192
  874MOL0     H17985   5.808   7.755   5.613  0.3197 -0.3058 -1.2208
  874MOL0     H17986   6.123   7.449   5.659  0.3033 -0.0530  0.8123
  874MOL0     H17987   5.975   8.377   5.626  0.6528 -2.8283 -1.5128
  874MOL0     H17988   6.056   8.684   5.687 -1.1066 -0.7940 -0.7419
  874MOL0     H17989   6.120   8.656   5.521 -1.2091  1.2678 -0.2980
  874MOL0     H17990   5.969   8.584   5.574  0.9375 -0.9082 -3.5459
  875MOL0     O17991   7.241   3.448   4.506  0.2873  0.7150  0.3070
  875MOL0     C17992   7.270   3.351   4.432 -0.3870  0.4499  0.2043
  875MOL0     O17993   7.400   3.290   4.433  0.5651  0.1933  0.4068
  875MOL0     C17994   7.492   3.359   4.506  0.4015 -0.0592 -0.0190
  875MOL0     C17995   7.570   3.455   4.440 -0.0853 -0.7839 -0.1558
  875MOL0     C17996   7.662   3.537   4.509  0.5486 -0.5746  0.2302
  875MOL0     C17997   7.672   3.528   4.652  0.0403 -1.0831  0.0718
  875MOL0     O17998   7.746   3.622   4.719 -0.4722  0.0666  0.5358
  875MOL0     C17999   7.824   3.572   4.820 -0.8863  0.5988 -0.3608
  875MOL0     C18000   7.938   3.666   4.839 -0.4758 -0.1482 -0.7655
  875MOL0     C18001   8.027   3.643   4.966  0.3346 -0.3640 -0.0032
  875MOL0     C18002   8.121   3.758   4.986  0.1230 -0.8965  0.4027
  875MOL0     C18003   8.231   3.745   5.096 -0.2400 -0.4511 -0.3857
  875MOL0     C18004   8.342   3.654   5.046  0.6725  0.4227 -0.0965
  875MOL0     C18005   8.463   3.662   5.140 -0.7166  0.1953  0.4063
  875MOL0     C18006   8.547   3.795   5.117  0.0651  0.2807  1.0665
  875MOL0     N18007   8.636   3.834   5.223  0.3255 -0.4144 -1.6186
  875MOL0     C18008   8.725   3.747   5.284  1.3005 -0.1774  0.3692
  875MOL0     C18009   8.797   3.823   5.369 -0.2138 -0.0567 -0.1136
  875MOL0     C18010   8.925   3.781   5.447  0.3568  0.7855 -0.3954
  875MOL0     C18011   9.051   3.868   5.410  0.4057  0.6992 -0.1978
  875MOL0     C18012   9.173   3.838   5.505  0.0469  0.5860  0.3220
  875MOL0     C18013   9.222   3.964   5.592  0.9751 -0.2946  0.2081
  875MOL0     O18014   9.350   3.935   5.644 -0.0580 -0.3430 -0.0132
  875MOL0     C18015   9.463   3.981   5.573 -0.0282  0.4725  0.8958
  875MOL0     C18016   9.589   3.983   5.628  0.3041  0.3470  0.3115
  875MOL0     C18017   9.705   4.024   5.562  0.3492 -0.2240  0.2557
  875MOL0     C18018   9.691   4.068   5.433 -0.1488 -0.1591 -0.4866
  875MOL0     C18019   9.807   4.134   5.363  0.0020 -0.7329 -0.0461
  875MOL0     O18020   9.918   4.168   5.436 -0.4406  0.5720  0.8962
  875MOL0     C18021  10.034   4.206   5.367  0.4024  0.4886  0.0315
  875MOL0     C18022  10.115   4.289   5.448  0.1815  0.2666 -0.5265
  875MOL0     C18023  10.231   4.352   5.396 -0.4719 -0.0698  0.0528
  875MOL0     C18024  10.260   4.338   5.256  0.3292  0.3716 -0.3770
  875MOL0     O18025  10.359   4.409   5.194  0.6174 -0.3287 -0.3943
  875MOL0     C18026  10.422   4.515   5.269 -0.2203  0.6911  1.5260
  875MOL0     C18027  10.557   4.541   5.201  0.0570 -0.9180 -0.1581
  875MOL0     C18028  10.650   4.630   5.292 -0.2382 -0.5172 -0.7006
  875MOL0     C18029  10.784   4.655   5.209  0.2631 -0.2389  0.2032
  875MOL0     C18030  10.885   4.735   5.287 -0.0188 -0.2361  0.3253
  875MOL0     C18031  11.021   4.753   5.215 -0.7545  0.5340  0.1178
  875MOL0     C18032  11.115   4.833   5.305 -0.1996 -0.2204  0.4295
  875MOL0     C18033  11.258   4.824   5.257 -0.2901  0.1467 -1.8505
  875MOL0    Cl18034  11.344   4.938   5.358  0.2432 -0.3336 -0.4167
  875MOL0     C18035  10.168   4.266   5.178 -0.4239  0.3755 -0.8999
  875MOL0     C18036  10.064   4.198   5.233  0.1247  0.6978  0.1011
  875MOL0     O18037   9.780   4.166   5.242  0.0407  1.1898 -0.1372
  875MOL0     C18038   9.573   4.049   5.366  0.1261 -0.2360  0.5723
  875MOL0     C18039   9.454   4.020   5.440 -0.4253 -0.2674 -0.1408
  875MOL0     N18040   8.754   3.953   5.356 -1.2403 -0.2245  0.6425
  875MOL0     N18041   8.657   3.957   5.273  0.1689  0.5754  0.0721
  875MOL0     C18042   7.583   3.443   4.719  0.4942  0.6784  0.5876
  875MOL0     C18043   7.492   3.357   4.648  0.0122 -0.6308 -0.1184
  875MOL0     C18044   7.168   3.275   4.356 -0.5386 -0.2227  0.1114
  875MOL0     C18045   7.211   3.147   4.302 -0.3535 -0.5010  0.5139
  875MOL0     C18046   7.130   3.080   4.215 -0.5522 -0.3553 -0.5490
  875MOL0     C18047   7.011   3.129   4.170 -0.0961 -0.8698 -0.4736
  875MOL0     O18048   6.921   3.064   4.091 -0.4023 -0.3121 -0.6266
  875MOL0     C18049   6.943   2.934   4.046  0.8432  0.0125 -0.6041
  875MOL0     C18050   6.866   2.924   3.923 -0.0684 -0.2017 -0.0754
  875MOL0     C18051   6.930   2.985   3.796 -1.1143 -0.5955 -0.0959
  875MOL0     C18052   6.877   2.922   3.663 -1.0297  0.6987 -0.2285
  875MOL0     C18053   6.738   2.961   3.649  0.5820  0.6603 -0.8699
  875MOL0     C18054   6.630   3.000   3.641 -0.4607  0.0984 -0.1864
  875MOL0     C18055   6.972   3.248   4.215  0.0822 -0.1034 -0.2204
  875MOL0     C18056   7.044   3.326   4.315  0.7975 -0.3751  0.6293
  875MOL0     C18057   6.984   3.458   4.373  0.4166  0.4157  0.1094
  875MOL0     H18058   7.574   3.454   4.331  1.1862 -0.5772 -0.1295
  875MOL0     H18059   7.720   3.606   4.448  3.4428 -2.4431  0.6641
  875MOL0     H18060   7.773   3.548   4.914  0.5280  0.0106  0.2782
  875MOL0     H18061   7.871   3.479   4.788 -1.1949 -0.1535  1.2607
  875MOL0     H18062   7.903   3.770   4.844 -1.1556 -0.4275  2.3373
  875MOL0     H18063   8.003   3.644   4.754  0.7151 -0.2246  0.1331
  875MOL0     H18064   8.067   3.541   4.965 -1.6287 -1.2385  1.5460
  875MOL0     H18065   7.958   3.646   5.051 -1.9020 -0.3503 -1.6979
  875MOL0     H18066   8.165   3.779   4.888  1.4702  0.5831  1.2711
  875MOL0     H18067   8.066   3.849   5.009 -2.3007 -1.2904 -3.1278
  875MOL0     H18068   8.281   3.840   5.118 -0.4915  0.1950 -2.3914
  875MOL0     H18069   8.197   3.698   5.189  0.9402 -0.4459  0.0601
  875MOL0     H18070   8.305   3.551   5.039  1.3334  0.0643  1.2692
  875MOL0     H18071   8.378   3.684   4.947  3.6588 -0.4175  0.6219
  875MOL0     H18072   8.530   3.577   5.119 -1.8075 -0.2430 -1.4835
  875MOL0     H18073   8.427   3.650   5.242 -0.3018 -0.4660  0.4799
  875MOL0     H18074   8.613   3.784   5.030 -1.9676  1.2593 -0.7166
  875MOL0     H18075   8.476   3.874   5.090  1.8017  1.2714 -0.9400
  875MOL0     H18076   8.748   3.647   5.249  0.6053 -0.3743  0.4505
  875MOL0     H18077   8.912   3.792   5.555 -1.4971  1.8136 -0.6791
  875MOL0     H18078   8.956   3.680   5.416  0.9935  0.5175  1.0594
  875MOL0     H18079   9.056   3.843   5.304  0.4032 -0.7121  0.1144
  875MOL0     H18080   9.028   3.975   5.413  0.1683  0.6364  0.4912
  875MOL0     H18081   9.255   3.811   5.438 -1.2295  0.3430 -1.2015
  875MOL0     H18082   9.165   3.749   5.567  2.6063  0.6302  0.8599
  875MOL0     H18083   9.156   3.977   5.679  3.1046  0.9877  1.7375
  875MOL0     H18084   9.207   4.057   5.536  0.8784 -1.9547 -2.7355
  875MOL0     H18085   9.611   3.947   5.728 -1.2258 -1.3570  0.0902
  875MOL0     H18086   9.803   4.012   5.607 -0.6135 -0.0374  2.5489
  875MOL0     H18087  10.092   4.291   5.554  0.0800  0.2403 -0.5485
  875MOL0     H18088  10.289   4.408   5.468 -1.3215  1.0610 -0.1232
  875MOL0     H18089  10.348   4.595   5.268 -2.0322 -0.8782 -0.0198
  875MOL0     H18090  10.443   4.490   5.373 -4.2966 -2.2178  1.8775
  875MOL0     H18091  10.617   4.451   5.187 -0.8630 -1.4159 -1.0737
  875MOL0     H18092  10.546   4.596   5.107  1.8829  0.9400  0.6600
  875MOL0     H18093  10.611   4.731   5.308  0.5943 -0.6380  2.9442
  875MOL0     H18094  10.669   4.582   5.389 -0.6516 -0.7563 -0.7375
  875MOL0     H18095  10.765   4.712   5.117 -1.1713 -1.7965 -0.5260
  875MOL0     H18096  10.822   4.558   5.176  0.5760 -0.8939  2.3579
  875MOL0     H18097  10.913   4.688   5.382  3.8214 -1.6719 -1.3048
  875MOL0     H18098  10.845   4.836   5.298  0.5638  0.4091 -2.6949
  875MOL0     H18099  11.075   4.659   5.206 -1.9989 -0.3931  1.7009
  875MOL0     H18100  11.010   4.800   5.117 -1.9039 -1.0706 -0.5542
  875MOL0     H18101  11.100   4.801   5.409  0.8474  2.2143  1.4013
  875MOL0     H18102  11.075   4.935   5.311 -3.1151 -1.2163 -0.4095
  875MOL0     H18103  11.282   4.720   5.282  1.6718  0.4331 -2.3409
  875MOL0     H18104  11.297   4.851   5.158 -0.3146  1.2756 -1.5622
  875MOL0     H18105  10.195   4.262   5.073  0.0518 -0.0834 -0.7683
  875MOL0     H18106  10.006   4.135   5.167  1.2873 -1.4563  1.0350
  875MOL0     H18107   9.557   4.080   5.263 -0.8681  0.4921  0.9346
  875MOL0     H18108   9.372   4.009   5.370 -0.0548 -0.1060 -0.6052
  875MOL0     H18109   7.583   3.422   4.825 -0.1139  0.6101  0.5774
  875MOL0     H18110   7.422   3.288   4.693 -0.2071 -0.2003  0.2130
  875MOL0     H18111   7.305   3.101   4.330  0.5084  1.5191  1.1389
  875MOL0     H18112   7.170   2.988   4.173 -0.6785 -1.4784  1.6503
  875MOL0     H18113   6.897   2.858   4.110  2.3126  0.0849  0.6006
  875MOL0     H18114   7.046   2.904   4.026  0.4963 -1.8653  0.1994
  875MOL0     H18115   6.762   2.958   3.927 -1.0617 -2.9592 -0.3494
  875MOL0     H18116   6.860   2.817   3.898 -1.7514 -0.6749  2.1055
  875MOL0     H18117   7.039   2.991   3.794 -1.0338 -1.5009 -3.0894
  875MOL0     H18118   6.897   3.089   3.790  0.0336 -0.2500 -0.6834
  875MOL0     H18119   6.936   2.960   3.580  3.5678 -1.1976  1.8388
  875MOL0     H18120   6.887   2.813   3.670  0.2968  0.6902 -1.8908
  875MOL0     H18121   6.538   3.050   3.619  0.2158  1.7676  0.6378
  875MOL0     H18122   6.871   3.278   4.190 -0.6811 -0.8933  1.7530
  875MOL0     H18123   6.985   3.466   4.482 -0.6483  0.1138  0.1521
  875MOL0     H18124   7.023   3.548   4.325 -2.2343  2.2338  1.1456
  875MOL0     H18125   6.880   3.449   4.342  0.9452  2.5244 -2.6706
  876MOL0     O18126  10.345   9.147   0.805 -0.4448 -0.5951 -1.1747
  876MOL0     C18127  10.321   9.031   0.779  0.6542  0.5715 -0.1793
  876MOL0     O18128  10.411   8.944   0.711 -0.3820 -0.1819 -0.5365
  876MOL0     C18129  10.529   9.005   0.666  0.5633  0.4719  0.3142
  876MOL0     C18130  10.625   9.056   0.753 -0.2284  0.3442  0.3557
  876MOL0     C18131  10.741   9.115   0.703 -0.7028  0.0719 -0.0228
  876MOL0     C18132  10.757   9.141   0.566 -0.5542  0.6721 -0.1264
  876MOL0     O18133  10.873   9.188   0.531 -0.5065  0.1650  0.0645
  876MOL0     C18134  10.969   9.085   0.534 -1.0965  0.3701 -0.3168
  876MOL0     C18135  11.106   9.141   0.499  0.1932  0.3183 -0.4673
  876MOL0     C18136  11.141   9.256   0.583 -1.3414  0.0569  0.4130
  876MOL0     C18137  11.269   9.314   0.525 -0.8039 -0.7141  0.0525
  876MOL0     C18138  11.319   9.442   0.600  0.0680 -0.3418  0.1813
  876MOL0     C18139  11.393   9.534   0.492 -0.4546  0.0003 -0.2135
  876MOL0     C18140  11.393   9.675   0.547  0.6357  0.5329 -0.0020
  876MOL0     C18141  11.489   9.763   0.465 -0.0861 -0.7339 -0.0247
  876MOL0     N18142  11.515   9.904   0.522 -0.1161 -0.3964  0.3522
  876MOL0     C18143  11.638   9.956   0.557 -0.2300  0.3609  0.1643
  876MOL0     C18144  11.631  10.092   0.560  0.5900  0.6130  0.2911
  876MOL0     C18145  11.745  10.169   0.597 -0.2744 -0.3197  1.6065
  876MOL0     C18146  11.790  10.263   0.473  0.8684  0.5888  0.4229
  876MOL0     C18147  11.930  10.311   0.503  0.4618  0.0794  0.4976
  876MOL0     C18148  12.005  10.352   0.376 -0.1535 -0.0374  0.7200
  876MOL0     O18149  12.077  10.240   0.325 -0.0754  0.0722  0.2400
  876MOL0     C18150  12.178  10.264   0.237 -0.3965  0.8021 -0.4546
  876MOL0     C18151  12.251  10.151   0.217 -0.1242 -0.2324  0.7456
  876MOL0     C18152  12.376  10.158   0.152  0.9819 -0.4136  0.2738
  876MOL0     C18153  12.412  10.276   0.082 -0.8410  0.0442  0.6461
  876MOL0     C18154  12.541  10.282   0.006 -0.1269  0.2363 -0.1145
  876MOL0     O18155  12.612  10.399   0.004 -0.1662  0.2680 -0.0360
  876MOL0     C18156  12.723  10.407  -0.078  0.1839  0.5870 -0.3231
  876MOL0     C18157  12.837  10.450  -0.021  0.5969  0.2287  0.3090
  876MOL0     C18158  12.955  10.478  -0.096 -0.0849 -0.6142  0.0694
  876MOL0     C18159  12.953  10.453  -0.238  0.4861 -0.1355  0.4398
  876MOL0     O18160  13.041  10.499  -0.332 -0.1988 -0.2145 -0.2288
  876MOL0     C18161  13.161  10.557  -0.279  0.0466 -0.5585  0.8896
  876MOL0     C18162  13.248  10.590  -0.408 -0.2712  0.2869 -0.6290
  876MOL0     C18163  13.367  10.679  -0.373 -0.5323  0.4462 -0.0418
  876MOL0     C18164  13.454  10.646  -0.253  0.1049  0.5904 -0.5136
  876MOL0     C18165  13.593  10.691  -0.270 -0.1750 -0.5449  0.0951
  876MOL0     C18166  13.667  10.685  -0.142  0.6331 -0.5189 -0.8773
  876MOL0     C18167  13.794  10.767  -0.146  0.4271 -1.3344  0.3370
  876MOL0     C18168  13.876  10.786  -0.020 -0.0333  0.2789  0.7496
  876MOL0    Cl18169  13.926  10.613   0.030 -0.0922  0.7023 -0.2857
  876MOL0     C18170  12.831  10.397  -0.292 -0.3265 -0.1677  0.1237
  876MOL0     C18171  12.726  10.380  -0.213 -0.2824 -0.0567 -0.3644
  876MOL0     O18172  12.587  10.175  -0.031 -0.0026 -0.1905  0.1844
  876MOL0     C18173  12.334  10.389   0.109 -1.6509  0.2681 -0.5207
  876MOL0     C18174  12.212  10.386   0.189 -0.3323  0.2736 -0.7749
  876MOL0     N18175  11.498  10.116   0.537 -0.2629  0.4354 -0.5874
  876MOL0     N18176  11.427  10.007   0.510  0.3913 -0.2880  0.7329
  876MOL0     C18177  10.655   9.092   0.469 -0.1707  0.1396 -0.5946
  876MOL0     C18178  10.541   9.028   0.526 -0.1430  0.0594 -0.0367
  876MOL0     C18179  10.180   8.976   0.814 -0.5355  0.7707  0.4752
  876MOL0     C18180  10.124   8.890   0.728 -0.0370 -0.1414 -0.6159
  876MOL0     C18181   9.987   8.846   0.736 -0.2144  0.5125 -0.6744
  876MOL0     C18182   9.910   8.875   0.841  0.4977 -0.5170 -0.8206
  876MOL0     O18183   9.785   8.839   0.839  0.5905 -0.7590 -0.9816
  876MOL0     C18184   9.727   8.775   0.959 -0.1876 -0.9783  0.3013
  876MOL0     C18185   9.620   8.851   1.019  0.5050  0.3123 -0.1818
  876MOL0     C18186   9.505   8.875   0.913  0.4804  0.3038 -0.3576
  876MOL0     C18187   9.377   8.931   0.982  0.3219  0.2054  0.4683
  876MOL0     C18188   9.267   8.934   0.885  0.1015 -0.4140 -0.3550
  876MOL0     C18189   9.178   8.951   0.810 -0.3950 -0.5422 -0.5157
  876MOL0     C18190   9.964   8.964   0.941 -0.7911  0.5088 -0.0538
  876MOL0     C18191  10.094   9.015   0.926  0.7068 -0.4226 -0.0794
  876MOL0     C18192  10.152   9.100   1.040  0.5059  0.1654 -0.7718
  876MOL0     H18193  10.620   9.036   0.860 -0.8914 -1.7538 -0.0269
  876MOL0     H18194  10.813   9.154   0.774  2.9757 -3.5406 -1.4236
  876MOL0     H18195  10.985   9.043   0.633  0.3482 -0.0190 -0.6833
  876MOL0     H18196  10.947   9.004   0.464 -3.4795  0.5712  0.1153
  876MOL0     H18197  11.109   9.172   0.394 -1.3978  2.5109  0.0515
  876MOL0     H18198  11.174   9.059   0.521 -1.4049 -0.8199  0.5069
  876MOL0     H18199  11.157   9.231   0.688 -0.6040  1.2880  0.6133
  876MOL0     H18200  11.055   9.325   0.591  0.1919  1.9105  1.9592
  876MOL0     H18201  11.344   9.235   0.535 -0.3303 -0.0307  2.6509
  876MOL0     H18202  11.248   9.341   0.421 -0.2852 -1.4511 -0.2588
  876MOL0     H18203  11.239   9.488   0.659  0.0019 -1.7834  1.2907
  876MOL0     H18204  11.391   9.431   0.682 -0.5932  1.6969  1.1005
  876MOL0     H18205  11.493   9.495   0.467 -0.8373  0.0647 -1.9651
  876MOL0     H18206  11.331   9.531   0.402 -0.6421  0.1378 -0.0877
  876MOL0     H18207  11.423   9.693   0.651 -2.4763  0.2885  1.0155
  876MOL0     H18208  11.291   9.713   0.540  0.6597  0.4035 -1.2509
  876MOL0     H18209  11.588   9.717   0.474 -0.2291 -1.0418 -0.0103
  876MOL0     H18210  11.457   9.762   0.361 -0.4239  2.0034 -0.0040
  876MOL0     H18211  11.727   9.895   0.572 -1.2724 -1.3336 -0.2610
  876MOL0     H18212  11.717  10.229   0.684 -1.3597 -1.4816  2.0936
  876MOL0     H18213  11.825  10.097   0.621 -1.9970 -1.8169  3.2365
  876MOL0     H18214  11.776  10.212   0.377 -3.3252 -1.0157  1.6672
  876MOL0     H18215  11.723  10.348   0.457 -1.0465 -1.3401 -3.0901
  876MOL0     H18216  11.988  10.236   0.558 -0.2311 -0.8620 -0.0290
  876MOL0     H18217  11.914  10.398   0.569 -2.1256  0.7982 -0.9459
  876MOL0     H18218  12.075  10.432   0.400  1.8028 -1.7646  1.1128
  876MOL0     H18219  11.949  10.392   0.291  0.6870 -1.8148 -0.7702
  876MOL0     H18220  12.218  10.056   0.257  0.2016  0.8955  3.9948
  876MOL0     H18221  12.431  10.065   0.144 -0.9763 -1.7146  1.2687
  876MOL0     H18222  12.833  10.466   0.087 -0.2217  2.2922  0.0259
  876MOL0     H18223  13.049  10.513  -0.055 -0.2596 -1.3173  1.0937
  876MOL0     H18224  13.147  10.645  -0.214  0.8925 -1.8197  2.8952
  876MOL0     H18225  13.220  10.486  -0.221 -0.3067 -1.5062  0.0985
  876MOL0     H18226  13.282  10.492  -0.444 -0.4467 -0.9518  2.2718
  876MOL0     H18227  13.188  10.639  -0.484 -0.3715 -0.5237 -1.0878
  876MOL0     H18228  13.413  10.684  -0.473 -0.4063 -1.3277 -0.1013
  876MOL0     H18229  13.328  10.778  -0.350 -0.9645  0.3701 -0.4381
  876MOL0     H18230  13.463  10.539  -0.234 -0.0359  0.4893 -1.0262
  876MOL0     H18231  13.414  10.680  -0.157 -1.6980 -0.2021 -0.9452
  876MOL0     H18232  13.586  10.798  -0.294 -1.9032  0.0601  2.8693
  876MOL0     H18233  13.644  10.632  -0.346  1.6795  1.2110 -0.1263
  876MOL0     H18234  13.601  10.723  -0.064  1.3298 -1.7735  0.3822
  876MOL0     H18235  13.672  10.576  -0.126 -1.6799 -0.6120 -0.4371
  876MOL0     H18236  13.755  10.865  -0.172  1.1923 -1.4567 -1.4385
  876MOL0     H18237  13.859  10.731  -0.226  1.0178  0.3312  0.0298
  876MOL0     H18238  13.948  10.861  -0.053  1.8077 -1.6446  0.1707
  876MOL0     H18239  13.810  10.832   0.054  2.2863  1.0041  2.5085
  876MOL0     H18240  12.827  10.378  -0.399 -2.0952  0.4884  0.0370
  876MOL0     H18241  12.638  10.336  -0.260 -1.1073  0.7931  0.3627
  876MOL0     H18242  12.374  10.480   0.066 -0.2898  0.4517  1.0243
  876MOL0     H18243  12.152  10.476   0.203  1.0040  0.8655  1.7576
  876MOL0     H18244  10.664   9.113   0.363  0.1993 -0.5133 -0.6956
  876MOL0     H18245  10.458   8.997   0.463 -0.2999 -0.0090  0.2045
  876MOL0     H18246  10.170   8.887   0.630  1.0449 -0.2160 -0.1121
  876MOL0     H18247   9.948   8.801   0.645 -2.4761  0.9180  0.0395
  876MOL0     H18248   9.811   8.763   1.029  1.5436  1.0613 -1.2901
  876MOL0     H18249   9.681   8.680   0.931 -1.3375 -1.0606  2.2439
  876MOL0     H18250   9.664   8.947   1.045 -2.2843  1.9792 -1.2208
  876MOL0     H18251   9.586   8.804   1.112  1.5359 -0.6211 -0.2595
  876MOL0     H18252   9.476   8.782   0.862  0.0005 -0.4177  1.1507
  876MOL0     H18253   9.540   8.940   0.833  2.4193  0.0926  0.2648
  876MOL0     H18254   9.352   8.862   1.062 -2.3196  0.9318  0.3640
  876MOL0     H18255   9.393   9.029   1.027 -0.2990  0.7410 -0.4408
  876MOL0     H18256   9.102   8.994   0.747 -1.8241 -1.3658  0.5872
  876MOL0     H18257   9.893   8.983   1.020 -1.3255  0.9648 -0.6285
  876MOL0     H18258  10.217   9.178   1.001  1.6529 -0.0039  0.6918
  876MOL0     H18259  10.068   9.150   1.088 -0.2288 -1.8843  0.2304
  876MOL0     H18260  10.209   9.034   1.107 -0.9430  1.0207  1.3966
  877MOL0     O18261   3.771  10.503   4.194  0.3561  0.4017 -0.0864
  877MOL0     C18262   3.818  10.571   4.100  0.2750  0.5991 -0.0507
  877MOL0     O18263   3.949  10.563   4.059  0.2552  0.4795 -0.2295
  877MOL0     C18264   4.036  10.519   4.151 -1.0916  0.2265  0.0752
  877MOL0     C18265   4.096  10.392   4.157  0.1102 -0.0455 -0.4011
  877MOL0     C18266   4.172  10.347   4.266 -0.1115  0.7078 -0.5991
  877MOL0     C18267   4.212  10.441   4.359  0.2434  0.1930 -0.0983
  877MOL0     O18268   4.292  10.388   4.458  0.2773 -0.5919  0.0535
  877MOL0     C18269   4.349  10.484   4.556  0.4387  0.0173  0.1054
  877MOL0     C18270   4.444  10.418   4.657  0.4005  0.1436  0.5454
  877MOL0     C18271   4.370  10.313   4.732 -0.0789 -0.7003  0.5345
  877MOL0     C18272   4.459  10.221   4.816 -0.3066 -0.2679 -0.1796
  877MOL0     C18273   4.575  10.295   4.898  0.3888 -0.0932  0.5734
  877MOL0     C18274   4.669  10.198   4.973  0.0781 -0.2311 -0.0246
  877MOL0     C18275   4.635  10.211   5.122  0.3891  0.1388  0.7121
  877MOL0     C18276   4.505  10.154   5.149 -0.1801  0.4404  0.6712
  877MOL0     N18277   4.486  10.129   5.293  0.5399 -0.2165  0.4008
  877MOL0     C18278   4.441  10.221   5.394  0.2435 -0.5816  0.1624
  877MOL0     C18279   4.420  10.130   5.494  0.1874 -0.2357 -1.0663
  877MOL0     C18280   4.381  10.156   5.643  0.6839 -0.0034  0.0313
  877MOL0     C18281   4.233  10.218   5.660  0.0171 -0.4392  0.3749
  877MOL0     C18282   4.196  10.280   5.790 -0.0331  0.2539 -0.0742
  877MOL0     C18283   4.210  10.434   5.800  0.3352  0.0064  0.7017
  877MOL0     O18284   4.329  10.493   5.742  0.6750 -0.7206 -0.0691
  877MOL0     C18285   4.448  10.458   5.799 -1.2379 -0.0232  0.6839
  877MOL0     C18286   4.482  10.420   5.928 -0.1008 -0.2483  0.1090
  877MOL0     C18287   4.614  10.385   5.963 -0.9885  0.0237  0.4939
  877MOL0     C18288   4.720  10.387   5.864 -0.0903  0.6869 -0.9214
  877MOL0     C18289   4.855  10.331   5.902 -0.3679  0.2199  0.3558
  877MOL0     O18290   4.881  10.300   6.038  0.9079 -0.0147  0.0765
  877MOL0     C18291   5.012  10.270   6.076 -0.6105 -0.7298 -0.9313
  877MOL0     C18292   5.025  10.172   6.172 -0.3714  0.4333  0.1096
  877MOL0     C18293   5.158  10.155   6.226  0.8832  0.0577 -0.9588
  877MOL0     C18294   5.268  10.223   6.192 -0.4633 -0.1127 -0.5187
  877MOL0     O18295   5.392  10.215   6.251  0.8534 -0.0486 -0.6141
  877MOL0     C18296   5.415  10.336   6.323 -0.7400  1.2992 -0.3939
  877MOL0     C18297   5.516  10.307   6.431  0.1223 -0.0309  0.3640
  877MOL0     C18298   5.446  10.233   6.555 -0.0880  0.4537  0.1865
  877MOL0     C18299   5.423  10.322   6.673 -0.3931 -0.1335  0.8804
  877MOL0     C18300   5.280  10.335   6.729  0.4312 -0.6727  0.9543
  877MOL0     C18301   5.236  10.230   6.827  0.0473 -0.2863  0.4384
  877MOL0     C18302   5.084  10.257   6.834 -0.4196  0.2716 -0.0618
  877MOL0     C18303   5.025  10.224   6.963  0.7040  0.2559 -0.6982
  877MOL0    Cl18304   4.845  10.197   6.935  0.1322  0.2214  0.4314
  877MOL0     C18305   5.262  10.315   6.085  0.3688  0.0167 -0.2287
  877MOL0     C18306   5.128  10.343   6.035  0.5837  0.5075  0.6578
  877MOL0     O18307   4.932  10.306   5.802  0.8675  0.2246  0.0238
  877MOL0     C18308   4.686  10.442   5.735 -0.4674  0.3088 -0.3085
  877MOL0     C18309   4.557  10.476   5.702 -0.4637  0.2473 -0.6700
  877MOL0     N18310   4.452  10.011   5.454 -1.0887  0.3130 -0.8468
  877MOL0     N18311   4.497  10.004   5.341 -0.4253  0.2165 -0.1154
  877MOL0     C18312   4.168  10.572   4.350 -0.1373 -0.8215 -0.3107
  877MOL0     C18313   4.079  10.617   4.243 -0.4694 -0.3315  0.2889
  877MOL0     C18314   3.725  10.647   4.013 -0.0066  0.1262 -0.5854
  877MOL0     C18315   3.779  10.714   3.900  0.6292  0.0342 -0.5481
  877MOL0     C18316   3.703  10.787   3.812  0.4886  0.2119 -0.1508
  877MOL0     C18317   3.570  10.802   3.840 -0.5889  0.3835 -0.2233
  877MOL0     O18318   3.498  10.880   3.754 -0.3999 -0.6949 -0.1123
  877MOL0     C18319   3.354  10.909   3.764  1.2061  0.1056  0.2089
  877MOL0     C18320   3.327  11.021   3.854 -1.1781  0.0309 -0.8996
  877MOL0     C18321   3.199  11.009   3.938  0.0450 -0.3854  0.1901
  877MOL0     C18322   3.075  11.041   3.856 -1.1836 -0.1450  0.0184
  877MOL0     C18323   3.017  10.918   3.791 -0.8072  0.1875 -0.6489
  877MOL0     C18324   2.968  10.819   3.736  0.7144 -0.3506  0.1684
  877MOL0     C18325   3.510  10.735   3.946 -0.7979  0.7405 -0.2356
  877MOL0     C18326   3.585  10.660   4.030  0.4691  0.3951 -0.5056
  877MOL0     C18327   3.504  10.592   4.138  0.5593 -1.4862 -0.6133
  877MOL0     H18328   4.073  10.330   4.071 -0.0560 -1.0034  0.3109
  877MOL0     H18329   4.202  10.243   4.259 -0.7647  0.3441  1.2999
  877MOL0     H18330   4.404  10.564   4.506 -1.4029  0.9809 -0.4632
  877MOL0     H18331   4.270  10.526   4.618 -0.0416 -1.1540  0.3125
  877MOL0     H18332   4.480  10.495   4.727 -2.2626  1.5998  0.4740
  877MOL0     H18333   4.526  10.371   4.602  0.7093  0.2691  0.8962
  877MOL0     H18334   4.312  10.253   4.662  0.8808  0.2229 -1.1232
  877MOL0     H18335   4.302  10.367   4.798  1.6952 -0.1310  1.9792
  877MOL0     H18336   4.393  10.181   4.893  0.0629  0.2734  0.4279
  877MOL0     H18337   4.505  10.150   4.747  0.3755  1.5466 -1.6697
  877MOL0     H18338   4.642  10.346   4.827 -0.8679  0.9635  0.1070
  877MOL0     H18339   4.533  10.372   4.964 -2.1953 -1.3733  0.5412
  877MOL0     H18340   4.651  10.099   4.930 -2.0683  0.4676 -0.8264
  877MOL0     H18341   4.776  10.220   4.962  0.8017 -2.2237  2.0437
  877MOL0     H18342   4.642  10.318   5.141 -0.8466  0.2691  0.5150
  877MOL0     H18343   4.699  10.148   5.185 -1.6365 -0.7366  2.0009
  877MOL0     H18344   4.419  10.216   5.122 -0.8187 -0.6500  0.1212
  877MOL0     H18345   4.487  10.065   5.088  2.2180  1.4246 -1.6480
  877MOL0     H18346   4.411  10.325   5.389 -1.3167 -1.0378 -0.8439
  877MOL0     H18347   4.372  10.058   5.691 -1.8169  0.6262  0.9890
  877MOL0     H18348   4.454  10.210   5.704  2.0645 -2.1771  0.4086
  877MOL0     H18349   4.218  10.298   5.588 -2.6097  1.0166  2.3665
  877MOL0     H18350   4.160  10.140   5.635  0.3295 -0.3662 -0.8432
  877MOL0     H18351   4.254  10.235   5.871  0.5029  0.5036 -0.3126
  877MOL0     H18352   4.091  10.255   5.803 -0.0641  0.2861 -0.2541
  877MOL0     H18353   4.194  10.469   5.903  3.4141  1.0310  0.9341
  877MOL0     H18354   4.127  10.483   5.747 -1.4838  0.5644  3.7876
  877MOL0     H18355   4.393  10.405   5.988 -0.6936 -1.4706 -1.0140
  877MOL0     H18356   4.634  10.348   6.063 -2.9157  2.6800  1.9671
  877MOL0     H18357   4.935  10.131   6.215 -2.2066  1.0065 -2.9075
  877MOL0     H18358   5.172  10.083   6.306  2.6963 -1.1968 -2.3236
  877MOL0     H18359   5.469  10.397   6.250 -1.4734 -1.0484 -3.0969
  877MOL0     H18360   5.327  10.382   6.369 -0.4970  3.8105 -2.2337
  877MOL0     H18361   5.606  10.251   6.403  0.9609  0.9969  0.9276
  877MOL0     H18362   5.570  10.398   6.458 -0.0788  0.6408 -1.3361
  877MOL0     H18363   5.354  10.185   6.522  0.5013 -0.3295 -0.3410
  877MOL0     H18364   5.507  10.149   6.589 -0.2341 -0.5851 -1.9493
  877MOL0     H18365   5.447  10.425   6.647  0.7185 -0.7831 -0.8055
  877MOL0     H18366   5.495  10.292   6.749  0.2675 -1.2267 -0.1559
  877MOL0     H18367   5.210  10.331   6.645  0.3650  0.1677  0.9683
  877MOL0     H18368   5.281  10.436   6.769  2.1180  0.5128 -1.7466
  877MOL0     H18369   5.260  10.133   6.784  2.5558  0.6066 -0.3472
  877MOL0     H18370   5.278  10.252   6.926 -2.6929  0.0267  1.6184
  877MOL0     H18371   5.032  10.205   6.753  1.6065 -1.3131 -0.4021
  877MOL0     H18372   5.055  10.362   6.819 -3.4755 -0.5600 -0.7998
  877MOL0     H18373   5.071  10.130   6.997  0.6325  0.0077 -1.2862
  877MOL0     H18374   5.021  10.305   7.036 -3.3141 -0.0926 -0.2881
  877MOL0     H18375   5.346  10.363   6.038  0.1958 -0.7852 -1.3982
  877MOL0     H18376   5.121  10.414   5.953 -1.2187  0.1996  0.5041
  877MOL0     H18377   4.773  10.450   5.670  0.8523  0.0926  1.3604
  877MOL0     H18378   4.539  10.521   5.605  2.7504  0.5350 -1.2315
  877MOL0     H18379   4.196  10.642   4.428 -1.0788 -0.9929  0.1985
  877MOL0     H18380   4.041  10.718   4.232  0.1947 -0.0895  0.1324
  877MOL0     H18381   3.886  10.711   3.879  1.4071  1.0779  2.6897
  877MOL0     H18382   3.745  10.843   3.729  0.9103 -2.5789 -1.9286
  877MOL0     H18383   3.296  10.821   3.791  3.4282 -0.9872  1.6525
  877MOL0     H18384   3.301  10.939   3.673  0.0915  0.6642  1.0191
  877MOL0     H18385   3.334  11.118   3.804  2.8430 -0.4483 -1.5922
  877MOL0     H18386   3.403  11.008   3.931 -1.3821  0.4490 -0.6258
  877MOL0     H18387   3.214  11.080   4.020 -1.8190  0.2022  0.0699
  877MOL0     H18388   3.193  10.913   3.990 -0.4368  0.0663  0.9824
  877MOL0     H18389   3.003  11.074   3.930 -1.3025  0.1131 -0.2101
  877MOL0     H18390   3.094  11.133   3.800 -0.6043  3.3104  5.2019
  877MOL0     H18391   2.922  10.734   3.690  0.9229 -1.6186  2.1723
  877MOL0     H18392   3.403  10.752   3.951 -0.6934  2.1926 -1.7639
  877MOL0     H18393   3.515  10.484   4.125  1.4025 -1.2400 -2.1574
  877MOL0     H18394   3.536  10.632   4.234  0.8620 -0.3524 -1.1639
  877MOL0     H18395   3.397  10.618   4.139  0.6299 -0.6111 -3.5676
  878MOL0     O18396   3.054   1.773   5.463  0.1825  0.4148  0.2218
  878MOL0     C18397   3.043   1.692   5.555 -0.3786  1.0261 -0.3116
  878MOL0     O18398   3.115   1.682   5.668 -0.1674  0.0553 -0.2943
  878MOL0     C18399   3.230   1.749   5.690  0.6616  0.6341  0.5815
  878MOL0     C18400   3.232   1.884   5.731  0.0557 -0.9526  0.6814
  878MOL0     C18401   3.348   1.942   5.760 -0.8404 -0.8376  0.3335
  878MOL0     C18402   3.478   1.887   5.744  0.5853  0.4966 -0.1409
  878MOL0     O18403   3.589   1.948   5.793 -0.2446 -0.3206  0.4031
  878MOL0     C18404   3.660   1.863   5.882  0.6447 -0.5741  0.2559
  878MOL0     C18405   3.791   1.916   5.933 -0.0850 -0.1295  1.0164
  878MOL0     C18406   3.859   1.830   6.032 -0.0428  1.0022  0.4989
  878MOL0     C18407   3.993   1.875   6.064 -0.4970 -0.5353  0.3740
  878MOL0     C18408   4.088   1.768   6.120  0.3960 -0.7218 -0.5332
  878MOL0     C18409   4.207   1.838   6.183  0.5701 -0.2512 -0.0185
  878MOL0     C18410   4.300   1.727   6.237  0.4411 -0.0895  0.4205
  878MOL0     C18411   4.413   1.784   6.322  0.7217 -0.1406 -0.1263
  878MOL0     N18412   4.495   1.881   6.258 -0.4612 -0.4591  0.2180
  878MOL0     C18413   4.572   1.882   6.143 -0.2892 -0.0290  0.4682
  878MOL0     C18414   4.634   2.004   6.134 -0.5633 -0.0735 -0.6109
  878MOL0     C18415   4.747   2.056   6.052 -1.0813 -0.4173  0.1123
  878MOL0     C18416   4.853   1.945   6.024  0.0695  0.6622  0.9021
  878MOL0     C18417   4.940   1.976   5.905  0.2872 -0.3854  0.2313
  878MOL0     C18418   5.050   1.875   5.897 -0.8282 -1.2482 -0.4517
  878MOL0     O18419   5.140   1.913   5.792  0.4163 -0.2226 -0.3121
  878MOL0     C18420   5.262   1.850   5.794 -0.1170  0.5083  0.3560
  878MOL0     C18421   5.301   1.748   5.872  0.1890 -0.2163 -0.4057
  878MOL0     C18422   5.426   1.695   5.852  0.3887  0.0164  0.3293
  878MOL0     C18423   5.514   1.738   5.756 -0.2485 -0.2948  0.2250
  878MOL0     C18424   5.650   1.680   5.737 -0.8094 -0.3293  0.8912
  878MOL0     O18425   5.736   1.753   5.666 -0.5648 -0.0782 -0.3893
  878MOL0     C18426   5.865   1.719   5.634 -0.1870 -0.1812  0.1386
  878MOL0     C18427   5.962   1.821   5.625  0.7327 -0.1175 -0.1009
  878MOL0     C18428   6.098   1.790   5.609  0.1652  0.3998  0.3242
  878MOL0     C18429   6.134   1.659   5.588 -0.3553 -0.1593 -0.3109
  878MOL0     O18430   6.266   1.638   5.585 -0.2030  0.9816  0.0253
  878MOL0     C18431   6.316   1.505   5.615 -0.6158 -0.4212  0.0963
  878MOL0     C18432   6.465   1.530   5.654  0.3303 -0.3276  0.0317
  878MOL0     C18433   6.493   1.632   5.763 -0.0242 -0.4686  0.1331
  878MOL0     C18434   6.639   1.637   5.798 -0.8046  0.5037 -0.3791
  878MOL0     C18435   6.656   1.687   5.937 -0.1920 -0.3106 -0.7965
  878MOL0     C18436   6.807   1.709   5.971  0.5862  0.3870 -0.2666
  878MOL0     C18437   6.841   1.772   6.105  0.4318 -0.6694  0.0121
  878MOL0     C18438   6.761   1.711   6.219 -0.4425 -0.0043 -0.4252
  878MOL0    Cl18439   6.823   1.784   6.377 -0.0745  0.0639  0.4345
  878MOL0     C18440   6.034   1.560   5.573 -0.1355 -0.2978  0.1070
  878MOL0     C18441   5.902   1.590   5.599 -0.6667  0.2503  0.3180
  878MOL0     O18442   5.664   1.563   5.772  0.3475 -0.3513 -0.4650
  878MOL0     C18443   5.484   1.859   5.691 -0.6451  0.3189 -0.0629
  878MOL0     C18444   5.352   1.910   5.706  0.0038  0.3033 -0.6369
  878MOL0     N18445   4.586   2.082   6.239  0.1459  0.0504  0.0937
  878MOL0     N18446   4.513   2.007   6.317 -0.5169  0.1572  0.8871
  878MOL0     C18447   3.475   1.753   5.677 -0.1725 -1.4142  0.3450
  878MOL0     C18448   3.352   1.684   5.656  0.3550 -0.2357 -0.3066
  878MOL0     C18449   2.941   1.574   5.551  0.7855 -0.7838  0.6009
  878MOL0     C18450   2.981   1.450   5.587  0.7037  0.0793  0.0088
  878MOL0     C18451   2.893   1.337   5.601 -0.5394 -1.0070  0.2649
  878MOL0     C18452   2.758   1.360   5.564  1.1746  0.1909  1.0794
  878MOL0     O18453   2.660   1.263   5.579 -0.9578 -0.2905  0.1201
  878MOL0     C18454   2.698   1.130   5.615 -0.0228 -0.2220 -0.2086
  878MOL0     C18455   2.712   1.029   5.497 -0.4165  0.0958 -0.4286
  878MOL0     C18456   2.579   0.988   5.431 -0.6943 -0.1187 -0.2077
  878MOL0     C18457   2.472   0.904   5.515 -0.2824 -0.3946  0.2994
  878MOL0     C18458   2.373   0.852   5.421  0.5085  0.1061 -0.4166
  878MOL0     C18459   2.287   0.818   5.342 -0.2459 -0.2635 -0.5600
  878MOL0     C18460   2.718   1.478   5.508  0.5230 -0.6099  0.1620
  878MOL0     C18461   2.810   1.589   5.509  0.6533  0.1380  0.0364
  878MOL0     C18462   2.765   1.722   5.462  0.0688 -0.1470  0.3586
  878MOL0     H18463   3.141   1.940   5.747  0.3037 -1.2302  3.5169
  878MOL0     H18464   3.342   2.043   5.798 -0.8873  0.0439 -1.8398
  878MOL0     H18465   3.588   1.842   5.961 -0.0111 -0.8281 -0.3955
  878MOL0     H18466   3.693   1.765   5.846  0.2264 -0.0828 -1.5829
  878MOL0     H18467   3.768   2.013   5.977 -1.3536  1.3917 -2.6536
  878MOL0     H18468   3.852   1.927   5.843  0.1567 -1.5367  0.9729
  878MOL0     H18469   3.878   1.729   5.993 -0.3141  1.4406 -0.8163
  878MOL0     H18470   3.797   1.821   6.121 -1.4164 -2.0691 -0.6334
  878MOL0     H18471   4.038   1.924   5.976 -0.6557  1.0912  1.1506
  878MOL0     H18472   3.983   1.945   6.147  0.7451  0.4306 -0.2552
  878MOL0     H18473   4.036   1.731   6.209  3.4158  0.5951  1.9779
  878MOL0     H18474   4.106   1.685   6.051  1.6823 -0.4343 -0.5609
  878MOL0     H18475   4.262   1.900   6.111 -1.3812  1.6012  0.0006
  878MOL0     H18476   4.175   1.914   6.254  0.7234  1.4452 -1.6651
  878MOL0     H18477   4.340   1.669   6.154 -0.9497 -0.8463  0.2351
  878MOL0     H18478   4.231   1.657   6.285 -2.8424  0.5602 -2.8938
  878MOL0     H18479   4.369   1.830   6.411 -1.0449 -2.3624  0.2422
  878MOL0     H18480   4.472   1.697   6.352 -0.5429 -0.2561  2.2907
  878MOL0     H18481   4.608   1.810   6.070  1.1946  0.6516  0.4785
  878MOL0     H18482   4.700   2.093   5.960  1.0173  0.2279 -0.7454
  878MOL0     H18483   4.804   2.135   6.101 -1.4827 -0.6094  0.9129
  878MOL0     H18484   4.910   1.938   6.118  1.5630  2.3997  0.1816
  878MOL0     H18485   4.804   1.848   6.011  0.0834  0.7036  0.5577
  878MOL0     H18486   4.995   2.067   5.933  0.8963 -0.6445 -0.1032
  878MOL0     H18487   4.886   1.990   5.812  0.4846  1.4793  0.3482
  878MOL0     H18488   5.015   1.772   5.889  1.1060 -1.9594 -0.3158
  878MOL0     H18489   5.107   1.881   5.991  0.3931  1.5950 -1.2591
  878MOL0     H18490   5.232   1.699   5.940  1.3539 -0.9726  0.2602
  878MOL0     H18491   5.472   1.614   5.909  1.7810 -0.2860 -1.1412
  878MOL0     H18492   5.944   1.928   5.635  2.4169  0.1546  0.3116
  878MOL0     H18493   6.171   1.870   5.608  2.4644 -1.5649  1.9388
  878MOL0     H18494   6.257   1.452   5.690 -1.3353 -2.0154 -1.5012
  878MOL0     H18495   6.319   1.442   5.525  1.7778 -0.9310  0.4552
  878MOL0     H18496   6.511   1.435   5.681  0.3055 -0.1785  0.6167
  878MOL0     H18497   6.517   1.559   5.563 -0.8444  1.0211 -0.2480
  878MOL0     H18498   6.465   1.735   5.739  0.0559 -0.1329  1.3658
  878MOL0     H18499   6.427   1.612   5.848 -1.1331  0.1934 -0.5503
  878MOL0     H18500   6.686   1.702   5.724 -1.3119  3.2379  1.5125
  878MOL0     H18501   6.680   1.536   5.796 -1.2635  0.2171  1.6716
  878MOL0     H18502   6.622   1.615   6.013  2.6009  0.7092  1.6150
  878MOL0     H18503   6.602   1.781   5.949 -1.8163 -1.3847  1.0979
  878MOL0     H18504   6.864   1.616   5.967  1.4126  0.8691 -0.0562
  878MOL0     H18505   6.863   1.771   5.900 -0.6842  0.1757 -1.4849
  878MOL0     H18506   6.824   1.879   6.091  2.6598 -0.3098 -0.2300
  878MOL0     H18507   6.943   1.757   6.140  0.1533  1.8476  2.2530
  878MOL0     H18508   6.653   1.729   6.228 -0.7092 -0.4626 -2.3525
  878MOL0     H18509   6.777   1.605   6.240  0.7538 -0.2670 -2.3964
  878MOL0     H18510   6.063   1.457   5.556  1.1175  0.0104  0.3095
  878MOL0     H18511   5.831   1.507   5.601  1.0950 -1.3188  0.6605
  878MOL0     H18512   5.550   1.892   5.612 -0.4242 -1.0854 -0.5024
  878MOL0     H18513   5.315   1.988   5.640  0.7798  0.1485 -1.2685
  878MOL0     H18514   3.561   1.691   5.654  0.0763 -1.1307  0.4997
  878MOL0     H18515   3.328   1.591   5.606 -0.9715 -0.3251  0.4535
  878MOL0     H18516   3.084   1.433   5.616  0.1649  0.3199  2.1780
  878MOL0     H18517   2.941   1.259   5.659  1.7423  1.7295  2.2996
  878MOL0     H18518   2.626   1.088   5.686  0.7333  2.9818  2.7610
  878MOL0     H18519   2.794   1.131   5.669  1.3098  1.1416 -2.4446
  878MOL0     H18520   2.748   0.936   5.542 -0.4751  0.8753  1.3015
  878MOL0     H18521   2.776   1.058   5.413  1.6733  1.2590  1.4635
  878MOL0     H18522   2.611   0.925   5.347 -1.9726 -0.5241 -0.4197
  878MOL0     H18523   2.524   1.069   5.382 -1.9748 -1.6133 -1.3755
  878MOL0     H18524   2.506   0.824   5.581  0.4599 -1.1145 -0.9194
  878MOL0     H18525   2.415   0.971   5.580 -3.0272 -1.5355 -0.7636
  878MOL0     H18526   2.204   0.803   5.276 -1.9506  2.8054  0.6955
  878MOL0     H18527   2.616   1.487   5.473  0.1064 -0.1789  1.4365
  878MOL0     H18528   2.778   1.805   5.532 -0.3504  2.2641 -2.2334
  878MOL0     H18529   2.824   1.747   5.373 -0.7801  4.0484  0.7470
  878MOL0     H18530   2.666   1.737   5.419  0.6407  1.7866 -0.4059
  879MOL0     O18531  10.215   1.172   0.916  0.1973 -0.4767  0.7614
  879MOL0     C18532  10.137   1.215   0.833  0.5383  0.2958 -0.1805
  879MOL0     O18533  10.169   1.283   0.716  0.0017 -0.1104 -0.3071
  879MOL0     C18534  10.303   1.310   0.682 -0.2331  0.1299  0.5410
  879MOL0     C18535  10.325   1.431   0.612  0.2917 -0.5911  0.0065
  879MOL0     C18536  10.454   1.464   0.567 -0.1850  0.6170  1.3326
  879MOL0     C18537  10.559   1.384   0.594 -0.7165  0.4874 -0.3464
  879MOL0     O18538  10.694   1.418   0.561 -0.4535 -0.6425  0.0955
  879MOL0     C18539  10.798   1.390   0.648 -0.2937 -0.5767  0.6172
  879MOL0     C18540  10.917   1.485   0.616  1.1860  0.8067  1.3382
  879MOL0     C18541  11.011   1.516   0.734  1.1099 -0.0262  0.3875
  879MOL0     C18542  11.132   1.592   0.683 -0.4263  0.3714 -0.6027
  879MOL0     C18543  11.236   1.617   0.789  0.6411 -0.0968  0.5840
  879MOL0     C18544  11.347   1.686   0.717 -0.2113 -0.6492 -0.0050
  879MOL0     C18545  11.441   1.740   0.823 -0.1421 -0.9833 -0.5537
  879MOL0     C18546  11.564   1.813   0.762  0.9173 -0.2518  0.0309
  879MOL0     N18547  11.631   1.886   0.870 -0.0301  0.6715 -0.3290
  879MOL0     C18548  11.749   1.951   0.852  0.0730  0.1968 -0.6208
  879MOL0     C18549  11.779   2.000   0.973 -0.4871 -0.5553  0.3090
  879MOL0     C18550  11.905   2.063   1.008 -0.6587  0.8824  0.5353
  879MOL0     C18551  11.967   2.166   0.909 -0.1944 -0.3070  0.4472
  879MOL0     C18552  12.100   2.224   0.960  0.0829  0.2846 -0.1500
  879MOL0     C18553  12.185   2.139   1.045 -0.4069  0.1182 -0.1324
  879MOL0     O18554  12.318   2.198   1.055  0.3452  0.3597  0.4579
  879MOL0     C18555  12.413   2.139   1.127  0.6740  0.2144  0.7435
  879MOL0     C18556  12.534   2.187   1.101 -0.0359  0.1291 -0.5814
  879MOL0     C18557  12.651   2.153   1.172  0.2873 -0.4959 -0.2888
  879MOL0     C18558  12.636   2.058   1.280  0.9463 -0.1075 -0.0139
  879MOL0     C18559  12.752   2.024   1.366 -0.3094  0.6137 -0.9987
  879MOL0     O18560  12.735   1.922   1.450 -1.0715  0.0950  0.4693
  879MOL0     C18561  12.835   1.865   1.531  0.2440  0.2576 -0.1300
  879MOL0     C18562  12.962   1.910   1.560  0.1184 -0.7107 -0.6811
  879MOL0     C18563  13.053   1.844   1.648  1.0306 -0.2347  0.4315
  879MOL0     C18564  13.021   1.721   1.708 -0.4883 -0.4148  0.4842
  879MOL0     O18565  13.101   1.655   1.786  0.3044  0.2934 -0.0543
  879MOL0     C18566  13.037   1.602   1.907  0.0315  0.8854  0.2506
  879MOL0     C18567  13.140   1.534   2.008  0.6932 -0.4948  0.6196
  879MOL0     C18568  13.258   1.636   2.035 -0.0039  0.9200 -0.1576
  879MOL0     C18569  13.393   1.593   1.986 -0.3664  0.5678  0.2143
  879MOL0     C18570  13.413   1.559   1.838  0.7797 -0.1274  0.0064
  879MOL0     C18571  13.561   1.525   1.814  0.0029 -0.0613 -0.5122
  879MOL0     C18572  13.592   1.374   1.845  0.3800 -0.0771  0.3779
  879MOL0     C18573  13.739   1.340   1.873 -1.3897  0.0612  1.0866
  879MOL0    Cl18574  13.842   1.398   1.740  0.4943 -0.2805 -0.5402
  879MOL0     C18575  12.895   1.670   1.676  1.2864  0.9148 -0.6602
  879MOL0     C18576  12.799   1.750   1.596 -0.6981 -0.1313 -0.8115
  879MOL0     O18577  12.854   2.089   1.351 -0.1477 -0.1659  0.0624
  879MOL0     C18578  12.506   2.014   1.313  0.0577  0.4631  0.0108
  879MOL0     C18579  12.401   2.054   1.232  0.5175  0.7481  0.0395
  879MOL0     N18580  11.680   1.964   1.061  0.0301  0.7786 -0.3560
  879MOL0     N18581  11.597   1.886   1.002 -0.5026  0.1183 -0.2519
  879MOL0     C18582  10.540   1.265   0.658 -0.6482 -0.3749  0.5446
  879MOL0     C18583  10.414   1.223   0.699  0.0783  0.2184 -1.0226
  879MOL0     C18584   9.999   1.201   0.859  0.7230  0.4600 -1.2408
  879MOL0     C18585   9.950   1.194   0.993 -0.4194  0.4152 -0.9135
  879MOL0     C18586   9.817   1.173   1.013 -0.2688 -0.5767  0.2153
  879MOL0     C18587   9.722   1.149   0.914 -0.7636 -0.1186  0.3303
  879MOL0     O18588   9.597   1.108   0.953 -0.3042 -0.2927  0.6683
  879MOL0     C18589   9.492   1.107   0.857  0.2278  0.2454  0.2061
  879MOL0     C18590   9.356   1.124   0.929 -0.2413 -0.1811 -1.0668
  879MOL0     C18591   9.321   1.001   1.019 -0.6209 -1.1010 -0.0478
  879MOL0     C18592   9.274   0.872   0.959  0.6340 -0.4068  0.2713
  879MOL0     C18593   9.187   0.805   1.054  1.0969 -1.1601 -0.1695
  879MOL0     C18594   9.108   0.746   1.111  0.0834 -0.0408 -0.5033
  879MOL0     C18595   9.769   1.157   0.786  0.2225  0.0506  0.2192
  879MOL0     C18596   9.904   1.179   0.753 -0.0711  0.8235 -0.3427
  879MOL0     C18597   9.943   1.152   0.603 -0.3434  0.4163 -0.7825
  879MOL0     H18598  10.246   1.501   0.587  1.2298  0.8901  1.0492
  879MOL0     H18599  10.478   1.562   0.529  0.1386 -1.3832 -4.6420
  879MOL0     H18600  10.759   1.406   0.749 -3.3751 -0.9487 -0.3914
  879MOL0     H18601  10.834   1.287   0.640  1.2086  0.0510 -2.0048
  879MOL0     H18602  10.865   1.577   0.589 -2.6968 -1.3714  0.6760
  879MOL0     H18603  10.968   1.458   0.524 -0.1250  0.9524  0.5410
  879MOL0     H18604  11.044   1.417   0.768  0.9482 -0.9487 -1.9976
  879MOL0     H18605  10.959   1.577   0.809 -0.0546  0.3651 -0.7079
  879MOL0     H18606  11.185   1.532   0.609  0.6199 -0.2044  0.5625
  879MOL0     H18607  11.096   1.686   0.642 -0.3740  0.0355 -1.4254
  879MOL0     H18608  11.193   1.684   0.865  0.6718  1.1602 -0.4687
  879MOL0     H18609  11.261   1.524   0.841 -0.5018 -1.0470 -0.5283
  879MOL0     H18610  11.404   1.612   0.659  0.1524 -0.3072 -0.0915
  879MOL0     H18611  11.298   1.768   0.663 -0.9201 -0.0828  1.4673
  879MOL0     H18612  11.473   1.667   0.898 -1.1478  0.4679  1.4048
  879MOL0     H18613  11.383   1.816   0.878 -0.4970 -2.1845  0.7947
  879MOL0     H18614  11.626   1.741   0.708 -0.7912 -0.6753 -1.4503
  879MOL0     H18615  11.538   1.884   0.683  2.4253 -0.6740 -0.8861
  879MOL0     H18616  11.794   1.955   0.753  0.8666  2.6032 -0.2375
  879MOL0     H18617  11.897   2.115   1.104  0.6187  3.7469 -0.7805
  879MOL0     H18618  11.977   1.981   1.020 -1.3307 -0.0727 -1.4726
  879MOL0     H18619  11.978   2.127   0.807  0.1030 -1.2754  0.8384
  879MOL0     H18620  11.897   2.249   0.900  0.8378  0.4590 -0.8452
  879MOL0     H18621  12.084   2.317   1.015  2.8426 -0.2184  1.7179
  879MOL0     H18622  12.158   2.235   0.867  0.7536 -0.1815  0.2083
  879MOL0     H18623  12.199   2.037   1.009 -1.8873  0.2856 -1.2581
  879MOL0     H18624  12.140   2.119   1.143 -0.6563 -0.7089 -0.4101
  879MOL0     H18625  12.553   2.253   1.017  2.0497 -2.0118 -1.9326
  879MOL0     H18626  12.746   2.196   1.144  0.5324 -0.5510  0.4252
  879MOL0     H18627  12.995   1.996   1.502 -0.2525  1.5348  2.2206
  879MOL0     H18628  13.146   1.890   1.679 -0.4245  3.0975  0.3997
  879MOL0     H18629  12.985   1.683   1.960  2.8695  3.6552 -0.8661
  879MOL0     H18630  12.960   1.526   1.892  0.7435  0.6015 -2.5774
  879MOL0     H18631  13.086   1.509   2.100  0.6508 -0.6101  0.5637
  879MOL0     H18632  13.188   1.446   1.964  1.0005 -0.7740  1.4922
  879MOL0     H18633  13.237   1.734   1.992 -1.3535  0.7592  0.0839
  879MOL0     H18634  13.259   1.658   2.142 -2.4332 -1.9368  0.5900
  879MOL0     H18635  13.424   1.504   2.042 -2.8549  0.8373  2.2083
  879MOL0     H18636  13.457   1.679   2.003  0.8039  0.0933 -1.4909
  879MOL0     H18637  13.394   1.653   1.784 -2.6705 -1.9677 -2.4079
  879MOL0     H18638  13.350   1.481   1.793 -0.3357  0.2300  0.8923
  879MOL0     H18639  13.591   1.547   1.711  1.9318 -0.7321 -0.1249
  879MOL0     H18640  13.616   1.586   1.886  0.7528  0.3608 -1.4096
  879MOL0     H18641  13.567   1.319   1.754  0.6533  0.3892  0.0180
  879MOL0     H18642  13.538   1.352   1.938 -2.3695  1.1333 -0.7953
  879MOL0     H18643  13.764   1.389   1.968  1.5716 -0.3272  0.6017
  879MOL0     H18644  13.755   1.235   1.901 -0.2991  0.2290  1.1176
  879MOL0     H18645  12.855   1.581   1.723  2.0458  0.7887 -0.2458
  879MOL0     H18646  12.702   1.702   1.585 -1.1831  0.6992 -0.2912
  879MOL0     H18647  12.491   1.939   1.390  1.4706  1.6824  1.5357
  879MOL0     H18648  12.303   2.015   1.259  0.0372  1.2177 -0.9705
  879MOL0     H18649  10.637   1.217   0.657  0.5388  1.8950  1.1681
  879MOL0     H18650  10.402   1.127   0.748  1.9491 -0.2193 -1.3512
  879MOL0     H18651  10.016   1.205   1.078 -2.8111 -0.1624  1.1225
  879MOL0     H18652   9.791   1.166   1.118  1.2024  2.5899  0.8892
  879MOL0     H18653   9.489   1.014   0.800 -1.1581  0.0430  0.5691
  879MOL0     H18654   9.495   1.197   0.795 -0.7212  0.0612 -0.1244
  879MOL0     H18655   9.275   1.135   0.857  0.2392  0.2297 -1.5540
  879MOL0     H18656   9.372   1.208   0.998  1.3671 -2.0970  1.0660
  879MOL0     H18657   9.247   1.038   1.091  0.7411 -0.1929  0.9337
  879MOL0     H18658   9.407   0.975   1.082  0.8188  1.5963 -0.7366
  879MOL0     H18659   9.221   0.897   0.867  1.7897  1.8564  0.1601
  879MOL0     H18660   9.361   0.811   0.932 -0.2856 -1.0812 -1.3088
  879MOL0     H18661   9.032   0.688   1.159 -2.1455  3.2095  0.2391
  879MOL0     H18662   9.702   1.118   0.710 -0.0026 -1.4788  1.1592
  879MOL0     H18663   9.949   1.247   0.549 -1.2582  1.0355  0.1665
  879MOL0     H18664  10.042   1.107   0.598 -1.0041 -1.0647 -0.9819
  879MOL0     H18665   9.872   1.090   0.546 -1.4116 -1.1410  2.0580
  880MOL0     O18666   9.189   9.356   8.899  0.5814 -0.0986 -0.0615
  880MOL0     C18667   9.227   9.263   8.826 -0.7374  0.4028 -0.1647
  880MOL0     O18668   9.356   9.221   8.794 -0.9002  0.3647  0.7322
  880MOL0     C18669   9.467   9.297   8.809 -0.6408 -0.4250 -0.1505
  880MOL0     C18670   9.473   9.433   8.834 -0.1560 -0.2118  0.2579
  880MOL0     C18671   9.595   9.501   8.854  0.3625 -0.0831  0.4238
  880MOL0     C18672   9.715   9.437   8.823 -0.1128  0.0395  0.0612
  880MOL0     O18673   9.830   9.513   8.845 -0.0968  0.4213 -0.5951
  880MOL0     C18674   9.952   9.444   8.812 -0.0383 -0.5336  0.1261
  880MOL0     C18675  10.059   9.547   8.848 -0.1126  0.1085  0.3244
  880MOL0     C18676  10.102   9.516   8.997 -0.8838 -0.1070 -0.7087
  880MOL0     C18677  10.238   9.576   9.030 -0.5800  0.2713  0.2166
  880MOL0     C18678  10.358   9.521   8.958  0.0508  0.6019  0.1972
  880MOL0     C18679  10.479   9.577   9.039 -0.1700 -0.0092  0.0199
  880MOL0     C18680  10.615   9.515   8.976  0.5817 -0.3175 -0.1004
  880MOL0     C18681  10.739   9.592   9.014 -0.5879 -0.8294 -0.4591
  880MOL0     N18682  10.748   9.718   8.930 -0.6781  0.1036  0.5779
  880MOL0     C18683  10.817   9.717   8.812 -0.9237 -0.6101  0.0205
  880MOL0     C18684  10.818   9.847   8.776 -0.6608  0.1652  0.6899
  880MOL0     C18685  10.872   9.910   8.649  0.5883 -0.8830  0.1975
  880MOL0     C18686  11.021   9.878   8.629 -0.5428 -0.1520 -0.1040
  880MOL0     C18687  11.111   9.937   8.737  0.7205  0.4341  0.6842
  880MOL0     C18688  11.251   9.894   8.712  0.1392  1.4406 -0.2643
  880MOL0     O18689  11.258   9.747   8.710  0.1682 -0.4812  1.1351
  880MOL0     C18690  11.382   9.704   8.669 -0.6131  0.7104  0.6050
  880MOL0     C18691  11.381   9.568   8.643 -0.3729  0.4152 -0.3404
  880MOL0     C18692  11.498   9.508   8.578 -0.6675  0.1588 -0.7164
  880MOL0     C18693  11.619   9.586   8.561 -0.2234  0.3181 -0.4129
  880MOL0     C18694  11.742   9.529   8.516 -1.5031 -0.1781 -0.5101
  880MOL0     O18695  11.747   9.384   8.507  0.3237  0.0324 -0.6791
  880MOL0     C18696  11.851   9.340   8.428 -1.0859  0.4880  0.2614
  880MOL0     C18697  11.837   9.329   8.288 -0.1506 -0.6214  0.7967
  880MOL0     C18698  11.939   9.282   8.206  1.0467  0.4300 -0.1455
  880MOL0     C18699  12.050   9.232   8.267 -0.2794  0.3303  0.1265
  880MOL0     O18700  12.134   9.169   8.180  0.2597 -0.2085 -0.6370
  880MOL0     C18701  12.266   9.130   8.225 -0.1972  0.9375  0.1606
  880MOL0     C18702  12.374   9.240   8.257 -0.4509 -0.0409  0.1207
  880MOL0     C18703  12.368   9.369   8.167  0.1639 -0.4371  1.7589
  880MOL0     C18704  12.378   9.321   8.022  0.1848  0.5796  0.5745
  880MOL0     C18705  12.458   9.416   7.931 -0.5419 -0.1370  0.6264
  880MOL0     C18706  12.477   9.365   7.793  0.2938  0.0323  0.2339
  880MOL0     C18707  12.503   9.483   7.699 -1.0670  0.3561 -1.5923
  880MOL0     C18708  12.543   9.436   7.560  0.9945  0.0379  0.4140
  880MOL0    Cl18709  12.719   9.409   7.563  0.2615 -0.2479 -0.1953
  880MOL0     C18710  12.071   9.241   8.402  0.3282  0.0120  0.6926
  880MOL0     C18711  11.962   9.284   8.488 -0.3137 -0.9202 -0.2631
  880MOL0     O18712  11.839   9.605   8.511 -0.0878  0.3168  0.0646
  880MOL0     C18713  11.613   9.722   8.590  0.6440 -0.0039 -0.5354
  880MOL0     C18714  11.503   9.787   8.649  0.3875  0.1714  0.5383
  880MOL0     N18715  10.768   9.932   8.876  0.6183  0.2792  0.0157
  880MOL0     N18716  10.719   9.850   8.966  0.1622  0.5145 -0.5576
  880MOL0     C18717   9.708   9.296   8.799 -0.6296  0.0508  0.0930
  880MOL0     C18718   9.588   9.227   8.794 -0.5274 -1.0854  1.5658
  880MOL0     C18719   9.115   9.166   8.790 -1.7978 -0.1977  0.2987
  880MOL0     C18720   9.145   9.085   8.677  0.5488  0.2690 -0.3772
  880MOL0     C18721   9.056   8.981   8.646 -0.7235  0.2491  0.3238
  880MOL0     C18722   8.937   8.961   8.705  0.2844 -0.0626 -0.2836
  880MOL0     O18723   8.857   8.866   8.654  0.1362 -0.0431  0.4643
  880MOL0     C18724   8.740   8.823   8.727 -0.2088  0.3825 -0.0154
  880MOL0     C18725   8.673   8.716   8.655  0.0033  0.1222  0.4651
  880MOL0     C18726   8.588   8.633   8.748  0.3119  0.5314 -0.7173
  880MOL0     C18727   8.468   8.697   8.808 -0.1392 -0.6790  0.5181
  880MOL0     C18728   8.364   8.734   8.711 -0.0334 -0.4536 -0.0893
  880MOL0     C18729   8.264   8.766   8.657 -0.4012  0.7028 -0.3936
  880MOL0     C18730   8.898   9.049   8.806 -0.4039 -0.0810  0.3013
  880MOL0     C18731   8.988   9.149   8.853  0.5552 -0.5515  0.1845
  880MOL0     C18732   8.937   9.235   8.970  0.5147  0.0980  0.3508
  880MOL0     H18733   9.386   9.495   8.853  0.9324  2.1897 -1.9035
  880MOL0     H18734   9.606   9.603   8.890  4.5504 -0.3216  0.3231
  880MOL0     H18735   9.969   9.346   8.858  1.3442 -0.5676 -0.4188
  880MOL0     H18736   9.954   9.416   8.706 -0.4978 -0.8529  0.1985
  880MOL0     H18737  10.017   9.648   8.839 -3.4558 -1.1640 -0.0413
  880MOL0     H18738  10.138   9.530   8.776 -1.2664 -1.7224 -0.5823
  880MOL0     H18739  10.114   9.409   9.018 -0.8861 -0.2583 -1.4440
  880MOL0     H18740  10.023   9.543   9.068 -2.2701  0.5172 -2.4148
  880MOL0     H18741  10.249   9.682   9.006  1.8259 -0.0137 -0.1803
  880MOL0     H18742  10.250   9.553   9.137 -0.5415 -2.7088 -0.3467
  880MOL0     H18743  10.357   9.412   8.952  0.0754  0.6146 -0.0380
  880MOL0     H18744  10.351   9.551   8.853 -2.2057  0.8106  0.3655
  880MOL0     H18745  10.468   9.681   9.006 -0.1645 -0.0735 -0.1884
  880MOL0     H18746  10.467   9.566   9.147 -0.4941  1.9342  0.2222
  880MOL0     H18747  10.596   9.514   8.869 -1.3174  1.0639  0.1743
  880MOL0     H18748  10.621   9.416   9.022  2.3435 -0.1985 -0.0018
  880MOL0     H18749  10.719   9.629   9.115 -0.4780  3.6488 -1.8666
  880MOL0     H18750  10.828   9.529   9.009 -0.6630 -0.8847 -1.2751
  880MOL0     H18751  10.858   9.635   8.753  0.1048 -0.8448  1.0430
  880MOL0     H18752  10.815   9.867   8.566 -0.2747 -3.0919  1.8355
  880MOL0     H18753  10.848  10.017   8.652  0.1189 -0.9694 -0.2543
  880MOL0     H18754  11.037   9.771   8.613 -0.5234  0.0150 -1.2870
  880MOL0     H18755  11.047   9.917   8.530  0.6287 -1.0846 -0.1799
  880MOL0     H18756  11.083   9.910   8.839 -2.7047 -1.0203 -0.4680
  880MOL0     H18757  11.105  10.046   8.741 -1.0679  0.3885  0.2314
  880MOL0     H18758  11.307   9.943   8.792  0.4617  2.4835 -1.1116
  880MOL0     H18759  11.291   9.939   8.621 -0.9659  1.5935 -0.6778
  880MOL0     H18760  11.289   9.520   8.674  1.0610 -1.6157  1.0391
  880MOL0     H18761  11.490   9.403   8.552 -1.0677 -0.1181  0.4685
  880MOL0     H18762  11.741   9.362   8.249  0.4819 -1.0812 -1.2227
  880MOL0     H18763  11.916   9.253   8.104 -1.4189 -0.9783  0.7432
  880MOL0     H18764  12.263   9.062   8.310 -1.6708 -0.4124 -0.9244
  880MOL0     H18765  12.312   9.073   8.144  1.3468  0.8096  1.0726
  880MOL0     H18766  12.361   9.261   8.363 -0.1023  1.6114 -0.1383
  880MOL0     H18767  12.475   9.200   8.243  0.0187  1.1607 -0.0470
  880MOL0     H18768  12.282   9.434   8.183  1.3026  0.7957  3.2242
  880MOL0     H18769  12.450   9.434   8.199 -0.1599  0.7188  0.3556
  880MOL0     H18770  12.283   9.316   7.970  1.7409  1.3692 -2.5912
  880MOL0     H18771  12.436   9.229   8.015 -1.2141 -0.5287  2.5538
  880MOL0     H18772  12.552   9.429   7.984 -1.0658  2.6117  1.0201
  880MOL0     H18773  12.413   9.516   7.934 -0.3758 -0.0169 -0.5223
  880MOL0     H18774  12.568   9.303   7.796 -0.2491 -0.7754  0.3422
  880MOL0     H18775  12.392   9.300   7.770 -0.3588  1.1991 -0.7987
  880MOL0     H18776  12.569   9.557   7.745 -0.1474 -2.5666  2.4014
  880MOL0     H18777  12.400   9.521   7.700 -0.9472  0.6824 -0.5324
  880MOL0     H18778  12.502   9.340   7.526  0.4300  0.0508  1.0338
  880MOL0     H18779  12.506   9.510   7.489 -1.3680 -3.4609 -2.3595
  880MOL0     H18780  12.159   9.204   8.456  0.4582  2.0773  2.0252
  880MOL0     H18781  11.969   9.287   8.596 -0.8805 -0.8927 -0.2264
  880MOL0     H18782  11.702   9.782   8.573 -0.3904  1.8025  0.1229
  880MOL0     H18783  11.489   9.894   8.657 -1.9464  0.0190 -0.6691
  880MOL0     H18784   9.796   9.237   8.776  0.6167  1.4270  1.1354
  880MOL0     H18785   9.583   9.120   8.776 -0.8644 -1.0902  1.6731
  880MOL0     H18786   9.223   9.114   8.607 -1.7664 -0.2629 -3.3684
  880MOL0     H18787   9.071   8.920   8.557  0.8751  2.3426 -0.9277
  880MOL0     H18788   8.669   8.905   8.738 -0.7390  0.0324 -0.7417
  880MOL0     H18789   8.769   8.790   8.827  1.0913 -0.3004 -0.5901
  880MOL0     H18790   8.746   8.656   8.599 -1.6660  0.6726 -2.5193
  880MOL0     H18791   8.606   8.757   8.579 -2.1111 -2.1143  0.9736
  880MOL0     H18792   8.657   8.616   8.831 -2.3990  0.2203  1.6200
  880MOL0     H18793   8.555   8.538   8.707 -1.5612  0.5596  0.5850
  880MOL0     H18794   8.428   8.636   8.889 -2.2856  0.0774  0.0959
  880MOL0     H18795   8.505   8.785   8.861  0.0443  0.5604 -1.5309
  880MOL0     H18796   8.165   8.781   8.621 -0.7259  0.6501  0.4657
  880MOL0     H18797   8.801   9.039   8.853 -1.7026 -1.5215 -2.4350
  880MOL0     H18798   8.884   9.169   9.040  0.6648  0.0442  0.4165
  880MOL0     H18799   9.021   9.283   9.022  1.9366 -0.5228 -1.2757
  880MOL0     H18800   8.867   9.315   8.948  1.4444  1.7285  2.8689
  881MOL0     O18801   9.321   7.682   7.246 -1.3142  0.1699  0.0027
  881MOL0     C18802   9.362   7.662   7.361 -0.1846  0.3500 -0.6311
  881MOL0     O18803   9.494   7.687   7.411  0.3473  0.0256  0.2473
  881MOL0     C18804   9.587   7.734   7.315  0.4370 -0.3939  0.7912
  881MOL0     C18805   9.661   7.644   7.241 -0.9510 -0.1688 -0.0788
  881MOL0     C18806   9.741   7.694   7.136  0.8787 -0.2523  0.1043
  881MOL0     C18807   9.751   7.839   7.121  0.3843  0.5115 -0.2962
  881MOL0     O18808   9.825   7.891   7.022  0.0445 -0.3855 -0.6727
  881MOL0     C18809   9.938   7.822   6.958  0.0316  0.5561 -1.0882
  881MOL0     C18810  10.017   7.917   6.879 -0.0169  0.4572 -0.4064
  881MOL0     C18811  10.145   7.860   6.813  0.8636 -0.4861 -0.4569
  881MOL0     C18812  10.216   7.969   6.735 -0.3436  0.3366  0.5065
  881MOL0     C18813  10.340   7.907   6.668  0.1011  0.2083  0.4407
  881MOL0     C18814  10.425   8.008   6.589 -0.0750 -0.3102  0.2357
  881MOL0     C18815  10.532   7.946   6.505  0.9472 -0.7174 -0.0711
  881MOL0     C18816  10.623   8.055   6.438  0.1667  0.1938 -0.3282
  881MOL0     N18817  10.726   7.983   6.352  0.1562  0.5076  0.0404
  881MOL0     C18818  10.719   7.925   6.227  0.5827  0.0286  0.3513
  881MOL0     C18819  10.838   7.867   6.204  0.0026  0.5010 -0.3141
  881MOL0     C18820  10.885   7.791   6.080  0.7823  0.6427 -0.8490
  881MOL0     C18821  11.035   7.764   6.079 -0.1037 -1.1425  0.2489
  881MOL0     C18822  11.114   7.891   6.029  1.1347  0.3183  0.0412
  881MOL0     C18823  11.263   7.851   6.042 -0.7930  0.3193 -0.1464
  881MOL0     O18824  11.345   7.940   5.959  0.4586  0.5948  0.7341
  881MOL0     C18825  11.485   7.932   5.972 -0.6791 -0.3422  0.0181
  881MOL0     C18826  11.555   8.036   5.927 -1.3972 -0.7306  0.2044
  881MOL0     C18827  11.695   8.041   5.930 -0.8744 -0.2963 -0.1814
  881MOL0     C18828  11.768   7.942   5.990  0.0132  0.6275  0.1558
  881MOL0     C18829  11.918   7.951   5.990 -0.0849  0.6158 -0.3114
  881MOL0     O18830  11.983   8.070   5.982  0.5556  0.0620 -0.4605
  881MOL0     C18831  12.119   8.087   6.001  0.3013  0.6067 -0.7755
  881MOL0     C18832  12.202   8.008   6.085  0.0058  0.2415  0.2592
  881MOL0     C18833  12.337   8.040   6.095  0.7063  0.5322 -0.2320
  881MOL0     C18834  12.392   8.151   6.020  0.0811  0.3671  0.6031
  881MOL0     O18835  12.527   8.175   6.019 -0.5286 -0.3622  0.2016
  881MOL0     C18836  12.564   8.308   6.063 -0.0110  0.3630 -0.1150
  881MOL0     C18837  12.666   8.287   6.172  0.5395 -0.7720 -0.4638
  881MOL0     C18838  12.791   8.205   6.122 -0.5785  0.0391 -0.2414
  881MOL0     C18839  12.880   8.272   6.024 -0.1874 -0.3704 -0.1246
  881MOL0     C18840  13.003   8.177   6.004  0.4028  0.5243  0.6319
  881MOL0     C18841  13.090   8.159   6.127 -0.2903  0.8820  0.0711
  881MOL0     C18842  13.231   8.120   6.091  0.6523 -0.2252  0.2980
  881MOL0     C18843  13.319   8.103   6.216 -0.3614  0.1476 -0.2748
  881MOL0    Cl18844  13.424   8.247   6.235  0.1204 -0.3188  0.5278
  881MOL0     C18845  12.305   8.240   5.956  0.0634 -0.4163  0.1137
  881MOL0     C18846  12.169   8.206   5.947  0.1976  0.1174  0.4159
  881MOL0     O18847  11.980   7.842   5.990  0.0729 -0.3231  0.0532
  881MOL0     C18848  11.696   7.828   6.039 -0.7999 -0.6616  0.6014
  881MOL0     C18849  11.551   7.820   6.024  0.4282  0.3706 -0.1312
  881MOL0     N18850  10.923   7.891   6.316  0.1946 -0.3638  0.6947
  881MOL0     N18851  10.858   7.967   6.397  0.3784  0.3739 -0.4818
  881MOL0     C18852   9.668   7.920   7.191  0.5113  0.5543  0.0770
  881MOL0     C18853   9.583   7.871   7.293 -0.1694  0.4066 -0.2147
  881MOL0     C18854   9.247   7.629   7.447  0.0148  1.2794 -0.6238
  881MOL0     C18855   9.137   7.558   7.384 -0.5957 -0.4586  0.6517
  881MOL0     C18856   9.017   7.521   7.456  0.3164  0.1028  0.7321
  881MOL0     C18857   9.003   7.552   7.589 -0.1983 -0.0059  0.2417
  881MOL0     O18858   8.893   7.508   7.658 -0.6133 -0.4027 -0.6650
  881MOL0     C18859   8.870   7.550   7.798 -0.5138  0.1490  0.2847
  881MOL0     C18860   8.726   7.509   7.842  1.2710  0.6624 -0.4605
  881MOL0     C18861   8.716   7.355   7.852  0.3699  0.2640  0.2230
  881MOL0     C18862   8.571   7.292   7.841 -0.0615  0.3472 -0.0381
  881MOL0     C18863   8.565   7.151   7.872 -0.5944 -0.0923  0.6630
  881MOL0     C18864   8.560   7.034   7.900 -0.6612  0.1412  0.1586
  881MOL0     C18865   9.107   7.612   7.653 -0.1506  0.4234 -0.3384
  881MOL0     C18866   9.231   7.646   7.588  0.2989  0.3254  0.0545
  881MOL0     C18867   9.349   7.707   7.659  0.3925  0.2136  0.3378
  881MOL0     H18868   9.653   7.538   7.262  0.2657 -0.5267 -1.2775
  881MOL0     H18869   9.788   7.617   7.076  0.9698 -1.4645  1.6587
  881MOL0     H18870  10.009   7.795   7.037 -3.3114 -1.4220  1.5123
  881MOL0     H18871   9.900   7.743   6.893 -2.9888  1.1772 -0.2186
  881MOL0     H18872  10.042   8.001   6.944  3.2014  0.4266 -1.4259
  881MOL0     H18873   9.949   7.959   6.804 -1.2507 -0.3093  0.2437
  881MOL0     H18874  10.127   7.770   6.754 -0.2297 -2.0737  2.1139
  881MOL0     H18875  10.202   7.833   6.902  0.5660 -2.4854 -0.8309
  881MOL0     H18876  10.146   8.015   6.665  1.3532  0.3941 -1.2723
  881MOL0     H18877  10.247   8.046   6.807 -1.0410 -0.7354  1.9938
  881MOL0     H18878  10.402   7.856   6.742  1.1867 -1.6625 -1.6479
  881MOL0     H18879  10.313   7.830   6.596 -0.5639  1.5038 -0.7479
  881MOL0     H18880  10.368   8.061   6.512  2.1855 -0.7505 -1.8634
  881MOL0     H18881  10.470   8.086   6.652  1.2179 -1.7400  1.1423
  881MOL0     H18882  10.484   7.876   6.436 -0.6084  0.1440  0.1081
  881MOL0     H18883  10.595   7.881   6.567 -1.7132 -1.0629  2.4754
  881MOL0     H18884  10.558   8.134   6.400  0.0328  1.3086  2.0666
  881MOL0     H18885  10.680   8.105   6.517 -0.1984  1.3945 -0.8125
  881MOL0     H18886  10.635   7.910   6.160  0.9536  1.0750 -0.3761
  881MOL0     H18887  10.839   7.692   6.071  2.2325 -0.2430  0.9030
  881MOL0     H18888  10.850   7.850   5.995  1.6179 -0.6582 -2.1402
  881MOL0     H18889  11.080   7.736   6.175  1.9369  1.0269  0.0113
  881MOL0     H18890  11.058   7.685   6.006 -0.5720 -0.6305 -0.4679
  881MOL0     H18891  11.091   7.984   6.082  2.5795  0.7922 -0.1050
  881MOL0     H18892  11.091   7.901   5.923  1.1642 -2.2844 -0.2766
  881MOL0     H18893  11.284   7.754   5.998 -1.2292  1.7552 -3.8210
  881MOL0     H18894  11.292   7.877   6.145 -2.3873 -1.0762  0.7159
  881MOL0     H18895  11.503   8.127   5.898 -0.4630 -0.3984 -0.4900
  881MOL0     H18896  11.754   8.122   5.888  1.0188 -1.9477 -0.8650
  881MOL0     H18897  12.181   7.919   6.143  2.4091 -0.2429  0.5171
  881MOL0     H18898  12.404   7.972   6.147  1.1534  0.9486 -0.2496
  881MOL0     H18899  12.601   8.369   5.980 -0.9835  1.9126  0.5500
  881MOL0     H18900  12.474   8.361   6.095  0.5211  2.3665 -1.6794
  881MOL0     H18901  12.703   8.381   6.214  0.5446 -0.9575 -0.0540
  881MOL0     H18902  12.614   8.233   6.251  1.0266  1.2302  1.3362
  881MOL0     H18903  12.842   8.175   6.214 -0.9337 -1.5102 -0.5172
  881MOL0     H18904  12.769   8.106   6.081  0.3602 -1.0035  1.6193
  881MOL0     H18905  12.899   8.369   6.069 -2.1656  0.1140 -0.2464
  881MOL0     H18906  12.824   8.282   5.930  0.9348  0.8178 -0.6895
  881MOL0     H18907  13.066   8.211   5.922 -1.2511  2.2582  0.0260
  881MOL0     H18908  12.967   8.077   5.976  0.1052  1.1900 -1.5313
  881MOL0     H18909  13.095   8.248   6.190  1.1065  0.5817  0.4106
  881MOL0     H18910  13.048   8.079   6.188  3.0867 -1.1677 -0.0396
  881MOL0     H18911  13.283   8.189   6.024 -0.2868 -2.2903 -2.7697
  881MOL0     H18912  13.230   8.026   6.037  0.1050  0.4467 -0.8911
  881MOL0     H18913  13.258   8.079   6.304 -1.4428 -1.4951 -1.3989
  881MOL0     H18914  13.387   8.020   6.194  2.5194  2.7207 -1.7906
  881MOL0     H18915  12.335   8.340   5.926 -1.0716 -0.1281 -0.1262
  881MOL0     H18916  12.091   8.266   5.902 -0.7945 -2.6659 -1.8636
  881MOL0     H18917  11.760   7.749   6.078 -0.2002 -0.6685 -0.3577
  881MOL0     H18918  11.502   7.732   6.064 -0.4220  1.0920  0.4277
  881MOL0     H18919   9.688   8.026   7.179  0.3314  0.6062  0.2304
  881MOL0     H18920   9.518   7.930   7.357 -1.5997 -0.8075 -0.4789
  881MOL0     H18921   9.137   7.553   7.276 -3.2200  3.1239  0.2910
  881MOL0     H18922   8.944   7.465   7.397 -0.3027  2.1032 -0.4940
  881MOL0     H18923   8.866   7.659   7.808 -3.0203  0.1881 -0.4781
  881MOL0     H18924   8.938   7.502   7.869 -1.7025  0.8894  1.9999
  881MOL0     H18925   8.659   7.543   7.762 -2.0297 -2.7078  0.6096
  881MOL0     H18926   8.697   7.552   7.938 -1.9465  0.8719 -1.4030
  881MOL0     H18927   8.758   7.330   7.950 -2.1250  1.5274  1.7238
  881MOL0     H18928   8.777   7.311   7.773 -2.7647 -1.4756 -1.4439
  881MOL0     H18929   8.502   7.341   7.911  1.6125 -1.3811  3.0149
  881MOL0     H18930   8.528   7.301   7.741 -0.3889  0.3882  0.1047
  881MOL0     H18931   8.542   6.933   7.931 -0.0232 -0.5570 -1.6170
  881MOL0     H18932   9.107   7.629   7.761 -0.8294  2.5086 -0.6190
  881MOL0     H18933   9.362   7.805   7.613 -0.7501  0.5403  0.6910
  881MOL0     H18934   9.318   7.729   7.762  4.2900  4.1782  0.9853
  881MOL0     H18935   9.433   7.636   7.663 -0.8976 -1.4113 -0.2475
  882MOL0     O18936  10.755   4.757   4.169 -0.1810 -0.1310  0.0002
  882MOL0     C18937  10.657   4.711   4.109 -0.0925  0.9084  0.0953
  882MOL0     O18938  10.651   4.693   3.972 -0.1272  0.6023  0.0945
  882MOL0     C18939  10.761   4.710   3.894  0.3477 -0.4626  0.2014
  882MOL0     C18940  10.891   4.664   3.933  0.8970  0.4762  0.5237
  882MOL0     C18941  10.996   4.660   3.834  1.1957 -0.0136 -0.9725
  882MOL0     C18942  10.976   4.715   3.708  0.1199 -0.3368 -0.0130
  882MOL0     O18943  11.085   4.696   3.625  0.3825  0.0877  0.1038
  882MOL0     C18944  11.075   4.758   3.498  0.2115  0.3240 -0.4634
  882MOL0     C18945  11.211   4.757   3.434  0.5910 -0.1735 -0.5529
  882MOL0     C18946  11.272   4.615   3.415  0.0321 -0.5341  0.0489
  882MOL0     C18947  11.425   4.638   3.395  0.5835  0.6948  0.8762
  882MOL0     C18948  11.487   4.501   3.347 -0.4768  0.1146 -1.0605
  882MOL0     C18949  11.629   4.509   3.271  0.6663 -1.0866 -0.4405
  882MOL0     C18950  11.733   4.583   3.360  0.4471 -0.4097 -0.7440
  882MOL0     C18951  11.743   4.730   3.314  0.7999 -0.2541  0.1682
  882MOL0     N18952  11.858   4.738   3.220  0.9725  0.4143 -0.0747
  882MOL0     C18953  11.879   4.676   3.099  0.0620  0.3461  0.1825
  882MOL0     C18954  12.008   4.700   3.068 -0.5216  0.9274 -1.3795
  882MOL0     C18955  12.089   4.626   2.970 -0.0047  0.0920  0.2658
  882MOL0     C18956  12.215   4.565   3.033 -0.0370 -0.8979  0.2437
  882MOL0     C18957  12.310   4.522   2.924  0.1827 -0.8529  0.6063
  882MOL0     C18958  12.446   4.506   2.983 -0.3866  0.5962  0.0901
  882MOL0     O18959  12.536   4.459   2.877  0.1448  0.4648 -0.1855
  882MOL0     C18960  12.673   4.469   2.893 -0.1546 -0.3502 -0.1044
  882MOL0     C18961  12.755   4.433   2.795 -0.3109 -0.5478 -0.4888
  882MOL0     C18962  12.891   4.458   2.791  0.4100 -0.7136  0.4971
  882MOL0     C18963  12.952   4.515   2.907  0.4408 -0.2435  0.2582
  882MOL0     C18964  13.097   4.569   2.901 -0.4466 -0.0218  0.6227
  882MOL0     O18965  13.153   4.641   3.010  0.0296  0.1232  0.4740
  882MOL0     C18966  13.277   4.690   3.003 -0.4682 -0.0890  0.0781
  882MOL0     C18967  13.390   4.618   2.956  0.3371 -1.0494 -0.6204
  882MOL0     C18968  13.514   4.670   2.949  0.4330 -0.9545  0.2019
  882MOL0     C18969  13.540   4.805   2.997  0.0326  0.0868 -0.4540
  882MOL0     O18970  13.663   4.849   2.985 -0.5542 -0.3576  0.0862
  882MOL0     C18971  13.724   4.918   3.098 -0.4645 -0.4024 -0.7590
  882MOL0     C18972  13.858   4.970   3.049 -0.2921  0.6508  0.5028
  882MOL0     C18973  13.958   4.860   3.008  0.2169  0.4350  0.4114
  882MOL0     C18974  14.082   4.939   2.960  0.0556 -0.0593  0.3476
  882MOL0     C18975  14.186   4.836   2.911  0.0019  0.4744  0.0078
  882MOL0     C18976  14.325   4.894   2.908 -0.9424  0.3475 -1.2576
  882MOL0     C18977  14.423   4.812   2.835 -0.0131 -0.0302  1.1603
  882MOL0     C18978  14.563   4.855   2.874 -1.4214  1.0102  0.0735
  882MOL0    Cl18979  14.616   5.010   2.797 -0.1335  0.2163  0.0509
  882MOL0     C18980  13.429   4.873   3.047 -0.2397 -0.5549 -0.0447
  882MOL0     C18981  13.305   4.818   3.061  0.3250  0.5339  0.6426
  882MOL0     O18982  13.158   4.531   2.797  0.0162 -0.0404  0.0653
  882MOL0     C18983  12.875   4.546   3.013 -0.1932  0.2487 -0.5520
  882MOL0     C18984  12.730   4.531   3.007 -0.6285  0.5413 -0.0595
  882MOL0     N18985  12.065   4.779   3.167  0.2794 -0.2607 -0.4224
  882MOL0     N18986  11.972   4.796   3.261  0.7352 -0.2903  0.5101
  882MOL0     C18987  10.850   4.771   3.675  0.0546  0.1001 -0.0304
  882MOL0     C18988  10.748   4.763   3.763 -0.0961 -0.7772  0.6597
  882MOL0     C18989  10.534   4.662   4.177  0.0492  0.3858 -0.9454
  882MOL0     C18990  10.416   4.649   4.103 -0.1908  0.9340 -0.4979
  882MOL0     C18991  10.299   4.614   4.163 -0.0806  0.6083  0.3226
  882MOL0     C18992  10.298   4.588   4.298 -0.0467  0.5364 -0.0628
  882MOL0     O18993  10.181   4.534   4.342 -0.5922 -0.5348 -0.1004
  882MOL0     C18994  10.150   4.543   4.484  0.4535 -0.2430 -0.2039
  882MOL0     C18995   9.999   4.527   4.511 -0.1752 -0.6807  0.0486
  882MOL0     C18996   9.952   4.382   4.476  0.8060  0.0599  0.6561
  882MOL0     C18997   9.804   4.372   4.530  0.7709  0.2949  1.0346
  882MOL0     C18998   9.739   4.241   4.510 -0.3752 -0.0549  1.1008
  882MOL0     C18999   9.682   4.136   4.486  0.3435 -0.4663  0.5277
  882MOL0     C19000  10.414   4.599   4.377  0.7824  0.0816 -0.2189
  882MOL0     C19001  10.532   4.630   4.317 -0.0680 -1.1520  0.7817
  882MOL0     C19002  10.656   4.653   4.407  0.3452 -0.3342  0.4106
  882MOL0     H19003  10.914   4.633   4.035 -0.3270 -0.8773  0.4172
  882MOL0     H19004  11.092   4.614   3.854  0.1958 -1.4788  0.8152
  882MOL0     H19005  11.005   4.696   3.442  0.0568 -2.6580  2.6649
  882MOL0     H19006  11.039   4.861   3.500  1.9205  0.9664 -0.6003
  882MOL0     H19007  11.269   4.819   3.503 -1.0402 -3.1432  3.8965
  882MOL0     H19008  11.196   4.796   3.332 -1.3982 -1.5467 -0.8466
  882MOL0     H19009  11.219   4.553   3.342 -2.3712  0.2059  1.0467
  882MOL0     H19010  11.267   4.555   3.506 -1.1501  0.0689  0.4049
  882MOL0     H19011  11.437   4.704   3.308 -3.4046 -2.4608 -2.4935
  882MOL0     H19012  11.483   4.676   3.479  1.8853  0.1101  0.2752
  882MOL0     H19013  11.480   4.434   3.433 -1.6517  2.1033  0.4793
  882MOL0     H19014  11.426   4.449   3.273 -0.6936  3.1578 -3.1819
  882MOL0     H19015  11.651   4.402   3.268 -0.6958 -1.4161  0.5015
  882MOL0     H19016  11.617   4.542   3.167 -1.5563 -0.1502  0.0650
  882MOL0     H19017  11.834   4.541   3.353  0.3269 -0.9791  0.7466
  882MOL0     H19018  11.701   4.587   3.464 -3.8556  2.5578 -1.9088
  882MOL0     H19019  11.657   4.772   3.261  0.8491 -0.5586 -0.1579
  882MOL0     H19020  11.775   4.783   3.405  2.2776 -2.0060  0.7370
  882MOL0     H19021  11.806   4.604   3.062 -1.0729  0.6394  1.7616
  882MOL0     H19022  12.033   4.535   2.948 -3.0190  0.7127  4.2354
  882MOL0     H19023  12.107   4.678   2.876  0.2066 -2.4534 -1.1995
  882MOL0     H19024  12.258   4.643   3.097 -1.8699  0.5213 -0.1665
  882MOL0     H19025  12.196   4.482   3.102  1.5095  0.7979  2.8994
  882MOL0     H19026  12.323   4.593   2.842  1.9197  0.2784  1.7991
  882MOL0     H19027  12.291   4.426   2.875 -1.0723 -0.0557 -0.5463
  882MOL0     H19028  12.431   4.431   3.061  1.8853 -1.1063 -1.0178
  882MOL0     H19029  12.474   4.601   3.031  0.3600 -0.6771  2.3292
  882MOL0     H19030  12.703   4.385   2.712  1.3950 -2.0149 -0.7624
  882MOL0     H19031  12.955   4.430   2.707 -0.0364  0.9900 -0.4683
  882MOL0     H19032  13.365   4.522   2.914 -1.0658  0.4218 -3.4482
  882MOL0     H19033  13.589   4.609   2.901  0.7283  1.0103 -2.0810
  882MOL0     H19034  13.660   4.998   3.137  3.3530  2.6049  0.0024
  882MOL0     H19035  13.733   4.854   3.186 -1.6669 -0.7053 -0.8418
  882MOL0     H19036  13.840   5.037   2.964 -0.8641 -0.7151 -0.4730
  882MOL0     H19037  13.911   5.027   3.127  2.0505 -2.2060  1.1443
  882MOL0     H19038  14.000   4.793   3.084 -2.3461 -2.6332 -0.6755
  882MOL0     H19039  13.909   4.809   2.925 -1.5477  1.6473  0.6595
  882MOL0     H19040  14.134   4.996   3.037  0.4012  1.9250 -1.2753
  882MOL0     H19041  14.052   5.009   2.882  0.5331  2.1726  2.0675
  882MOL0     H19042  14.175   4.818   2.803  1.9532 -2.1307  0.1196
  882MOL0     H19043  14.171   4.736   2.955 -1.6381 -0.3196 -2.1484
  882MOL0     H19044  14.316   4.992   2.861  0.0219  2.0297  1.8228
  882MOL0     H19045  14.358   4.906   3.012 -2.5213  0.3684 -0.7284
  882MOL0     H19046  14.418   4.829   2.727  2.8772  2.4293  1.2636
  882MOL0     H19047  14.394   4.709   2.858 -1.7445 -0.0175 -0.6909
  882MOL0     H19048  14.579   4.873   2.981  1.2080 -0.3909  0.0010
  882MOL0     H19049  14.624   4.769   2.845 -1.2639  1.3577 -0.6496
  882MOL0     H19050  13.440   4.979   3.070  1.6118 -0.4255 -1.3381
  882MOL0     H19051  13.224   4.881   3.098 -1.0359 -1.0585  0.4617
  882MOL0     H19052  12.926   4.568   3.107  1.7302 -1.9275 -1.0092
  882MOL0     H19053  12.672   4.566   3.092 -1.0801  5.1001 -1.9795
  882MOL0     H19054  10.837   4.818   3.578  1.3624 -0.8887 -0.7089
  882MOL0     H19055  10.653   4.805   3.733  0.3316  0.6888  1.2665
  882MOL0     H19056  10.410   4.682   3.999  2.1633  1.7386 -0.4359
  882MOL0     H19057  10.219   4.599   4.091  2.5371 -1.8012 -2.4070
  882MOL0     H19058  10.196   4.638   4.512  2.2421 -0.7813 -1.1761
  882MOL0     H19059  10.203   4.470   4.546  0.3758  0.7202  1.0482
  882MOL0     H19060   9.939   4.596   4.451 -3.1719 -2.0394  1.2814
  882MOL0     H19061   9.973   4.547   4.615 -3.6029  0.1331 -0.8410
  882MOL0     H19062  10.017   4.312   4.529  0.8599 -1.2058 -1.0091
  882MOL0     H19063   9.957   4.367   4.368  3.6374 -1.1687  0.8696
  882MOL0     H19064   9.799   4.386   4.638 -4.5753 -0.2671  1.1133
  882MOL0     H19065   9.744   4.439   4.468  1.2649 -1.5863 -1.6383
  882MOL0     H19066   9.633   4.041   4.474  0.6902 -0.3033 -4.0787
  882MOL0     H19067  10.397   4.577   4.482  0.8188 -1.5911 -0.5399
  882MOL0     H19068  10.661   4.761   4.422  1.2848 -0.3054 -0.0543
  882MOL0     H19069  10.637   4.606   4.504 -2.3756  0.4837  0.3394
  882MOL0     H19070  10.747   4.608   4.366 -0.8911 -2.7013  0.0849
  883MOL0     O19071   9.346   0.096   7.452  0.5379  0.4243  0.0464
  883MOL0     C19072   9.311   0.004   7.521  0.2260  0.3952 -1.0339
  883MOL0     O19073   9.373  -0.048   7.633  0.5082  0.2136  0.4297
  883MOL0     C19074   9.492   0.013   7.666 -0.0799 -0.0936  0.2927
  883MOL0     C19075   9.607  -0.001   7.592  0.0538  0.0609 -0.3314
  883MOL0     C19076   9.726   0.048   7.634 -0.5650 -0.3866 -0.2298
  883MOL0     C19077   9.741   0.105   7.760  0.7352 -0.0049  0.1795
  883MOL0     O19078   9.873   0.140   7.795  0.9501 -0.2614 -0.2667
  883MOL0     C19079   9.896   0.216   7.906  0.0355 -0.5414  0.8576
  883MOL0     C19080  10.048   0.224   7.914  0.1694  0.1515 -0.1642
  883MOL0     C19081  10.112   0.312   7.810 -0.1680 -0.5131 -0.4450
  883MOL0     C19082  10.177   0.238   7.700 -0.5830 -0.7066  0.3839
  883MOL0     C19083  10.245   0.324   7.594 -0.3163  0.5225 -0.2615
  883MOL0     C19084  10.307   0.245   7.472 -0.6026  0.0009  0.6922
  883MOL0     C19085  10.436   0.314   7.407  0.5072 -0.1064  0.2187
  883MOL0     C19086  10.567   0.278   7.473 -0.3566 -0.7570 -0.0879
  883MOL0     N19087  10.688   0.308   7.401 -0.9005  0.3006  0.2336
  883MOL0     C19088  10.778   0.402   7.437  0.6437 -0.3943 -0.6613
  883MOL0     C19089  10.870   0.410   7.339  0.2395  1.5364 -1.0087
  883MOL0     C19090  10.993   0.498   7.339 -0.0727 -0.3816 -0.7912
  883MOL0     C19091  10.953   0.635   7.280 -0.5849  0.4944  0.1554
  883MOL0     C19092  11.083   0.721   7.267  0.2709  0.0645 -0.6815
  883MOL0     C19093  11.169   0.689   7.148 -0.2123  0.9897 -0.2994
  883MOL0     O19094  11.266   0.790   7.141 -0.4101 -0.1783 -0.1956
  883MOL0     C19095  11.364   0.791   7.044  0.2810  0.0002  0.6015
  883MOL0     C19096  11.386   0.678   6.957 -0.3558  0.4138 -0.4285
  883MOL0     C19097  11.483   0.685   6.868  0.0278  0.6156 -0.4082
  883MOL0     C19098  11.562   0.799   6.849 -0.4695  1.0331  0.7420
  883MOL0     C19099  11.672   0.798   6.746 -0.9523 -0.4808  0.2019
  883MOL0     O19100  11.713   0.922   6.707  1.0029 -0.0289  0.2012
  883MOL0     C19101  11.820   0.930   6.630  0.2717  0.8924  1.2125
  883MOL0     C19102  11.942   0.883   6.673 -0.1471 -0.2974 -0.1157
  883MOL0     C19103  12.054   0.903   6.600 -0.9700 -0.0129  0.2964
  883MOL0     C19104  12.050   0.983   6.490 -0.4089  0.4546 -0.3040
  883MOL0     O19105  12.165   0.996   6.420  0.0745  0.6990 -0.4589
  883MOL0     C19106  12.178   1.089   6.305  1.1212 -0.4390 -0.0360
  883MOL0     C19107  12.305   1.053   6.233 -0.1282  0.7931 -0.2153
  883MOL0     C19108  12.314   1.116   6.084  0.0331 -0.1479 -0.0003
  883MOL0     C19109  12.323   1.021   5.965  0.6289  0.6999 -0.1257
  883MOL0     C19110  12.325   1.087   5.824 -0.7715  0.2313  0.4995
  883MOL0     C19111  12.401   0.996   5.716  0.0309 -0.0520  0.4328
  883MOL0     C19112  12.350   0.861   5.701 -0.3142 -0.4810 -0.2005
  883MOL0     C19113  12.202   0.868   5.655  0.0407  0.3802 -0.5437
  883MOL0    Cl19114  12.192   0.933   5.489 -0.3488 -0.0594  0.5090
  883MOL0     C19115  11.927   1.042   6.450 -0.0822  0.3425  1.0832
  883MOL0     C19116  11.815   1.015   6.525 -0.2334  0.6470  0.3932
  883MOL0     O19117  11.738   0.696   6.725 -0.1602  0.2152 -0.5299
  883MOL0     C19118  11.540   0.913   6.926  0.4824 -0.0084  0.6947
  883MOL0     C19119  11.441   0.908   7.020  0.5561  0.2738 -0.2532
  883MOL0     N19120  10.829   0.330   7.235 -0.1431  0.5891 -0.5899
  883MOL0     N19121  10.720   0.265   7.275  0.0083 -0.4315  0.3418
  883MOL0     C19122   9.629   0.123   7.841  0.0237 -0.2805 -0.1845
  883MOL0     C19123   9.505   0.075   7.790 -0.3290  0.4571 -1.1780
  883MOL0     C19124   9.167  -0.038   7.498 -0.4124 -0.2496  0.1203
  883MOL0     C19125   9.109  -0.126   7.593 -0.9027 -0.6300 -0.4698
  883MOL0     C19126   8.974  -0.158   7.582 -0.1392  0.1158 -0.3488
  883MOL0     C19127   8.889  -0.114   7.479 -0.6654  0.4952 -0.6284
  883MOL0     O19128   8.766  -0.167   7.466  0.3666 -0.0264 -0.1167
  883MOL0     C19129   8.687  -0.219   7.576  0.0088  0.0221 -0.6162
  883MOL0     C19130   8.545  -0.222   7.519 -0.6360  0.0425 -0.2268
  883MOL0     C19131   8.476  -0.081   7.525  0.4954  0.3935  0.4606
  883MOL0     C19132   8.451  -0.020   7.657  0.2378  0.2574 -0.2128
  883MOL0     C19133   8.349   0.094   7.655 -0.3638 -0.7771 -0.0035
  883MOL0     C19134   8.281   0.197   7.643  0.4271 -0.7952 -0.3563
  883MOL0     C19135   8.945  -0.035   7.384 -0.2676 -0.4739 -0.1467
  883MOL0     C19136   9.086   0.001   7.385 -0.3251 -0.3408 -0.8811
  883MOL0     C19137   9.141   0.079   7.271 -0.1995 -0.1463  0.3003
  883MOL0     H19138   9.595  -0.054   7.499 -3.0713  0.5251 -0.3068
  883MOL0     H19139   9.807   0.036   7.563 -0.7250  1.4835 -0.7954
  883MOL0     H19140   9.849   0.314   7.899 -2.1021 -1.6331 -0.9752
  883MOL0     H19141   9.870   0.173   8.004  1.4271  1.7090  2.3217
  883MOL0     H19142  10.094   0.125   7.914 -1.3089 -0.5977  1.9812
  883MOL0     H19143  10.066   0.270   8.011 -2.6486  1.5714 -0.2007
  883MOL0     H19144  10.196   0.358   7.863  3.4319 -0.6138 -5.3948
  883MOL0     H19145  10.057   0.401   7.779  3.6576  2.2909  0.0785
  883MOL0     H19146  10.261   0.184   7.745  0.8540  1.6806  0.7541
  883MOL0     H19147  10.102   0.169   7.662 -0.9515  0.4287 -1.0069
  883MOL0     H19148  10.175   0.402   7.561  2.3068  3.5001  0.7528
  883MOL0     H19149  10.332   0.373   7.639 -0.2710  1.2631 -1.1200
  883MOL0     H19150  10.336   0.140   7.483  1.6268  0.0259 -3.1651
  883MOL0     H19151  10.226   0.239   7.399 -0.7056 -1.2361  0.8935
  883MOL0     H19152  10.427   0.423   7.407  2.5236  0.1586  2.6202
  883MOL0     H19153  10.449   0.283   7.303  1.9901  0.7029  0.1328
  883MOL0     H19154  10.577   0.342   7.561  0.4785  3.7803 -3.1321
  883MOL0     H19155  10.568   0.170   7.491  1.6642 -1.2375 -2.4146
  883MOL0     H19156  10.772   0.438   7.540 -0.5684 -2.2110 -0.0479
  883MOL0     H19157  11.026   0.510   7.443 -0.1292 -2.9901 -0.4096
  883MOL0     H19158  11.070   0.442   7.285  1.4833  0.4872  0.4074
  883MOL0     H19159  10.904   0.623   7.183  0.5691 -0.4853 -0.3262
  883MOL0     H19160  10.890   0.692   7.349  0.4379 -0.2665  1.7660
  883MOL0     H19161  11.143   0.713   7.358  0.4210 -3.6005 -0.9413
  883MOL0     H19162  11.058   0.827   7.269 -2.2166 -0.4634 -0.4323
  883MOL0     H19163  11.111   0.691   7.056 -0.3924 -0.7268 -0.2651
  883MOL0     H19164  11.211   0.588   7.155 -0.4326  0.5197 -3.9044
  883MOL0     H19165  11.329   0.587   6.964  3.2919 -1.9525  2.7616
  883MOL0     H19166  11.496   0.592   6.814 -0.4437  0.7222 -0.7153
  883MOL0     H19167  11.945   0.825   6.765  1.6977  1.4104  0.9674
  883MOL0     H19168  12.148   0.854   6.620 -0.8167  0.1358 -0.0527
  883MOL0     H19169  12.088   1.071   6.246  0.4792  0.9999  0.4663
  883MOL0     H19170  12.176   1.193   6.338 -1.7961  0.0069 -1.3220
  883MOL0     H19171  12.384   1.098   6.293 -1.5676  1.7444  1.0622
  883MOL0     H19172  12.330   0.947   6.226 -1.5162  0.3968  0.5304
  883MOL0     H19173  12.234   1.187   6.065  0.8487  0.4572 -1.2597
  883MOL0     H19174  12.404   1.177   6.095 -0.0402 -0.1682  0.7541
  883MOL0     H19175  12.243   0.946   5.965  0.9670  0.2390  2.8152
  883MOL0     H19176  12.422   0.977   5.976  0.5877  1.0167  1.9455
  883MOL0     H19177  12.381   1.180   5.816 -1.9337  0.8283 -1.5790
  883MOL0     H19178  12.222   1.104   5.789 -1.4260 -1.1014  1.6587
  883MOL0     H19179  12.396   1.049   5.621  1.4403  0.2746  0.5199
  883MOL0     H19180  12.506   0.987   5.745 -0.2441 -0.5005  1.3349
  883MOL0     H19181  12.353   0.807   5.796  1.6302  2.2593  1.4556
  883MOL0     H19182  12.405   0.814   5.619 -0.8905 -1.2786 -0.1357
  883MOL0     H19183  12.156   0.770   5.640  1.9096 -0.3778 -1.7132
  883MOL0     H19184  12.133   0.916   5.724 -0.0682  1.6951 -1.5397
  883MOL0     H19185  11.902   1.104   6.366 -3.2305 -1.9490  0.1226
  883MOL0     H19186  11.713   1.050   6.513 -1.6352 -3.4978 -1.9796
  883MOL0     H19187  11.607   0.998   6.939  0.0531  0.2237  1.4562
  883MOL0     H19188  11.425   0.990   7.089  2.0785  0.8518 -0.5654
  883MOL0     H19189   9.630   0.168   7.940 -0.4974 -4.6335  2.0676
  883MOL0     H19190   9.422   0.086   7.859 -0.5691  1.1412 -1.5664
  883MOL0     H19191   9.171  -0.184   7.661 -0.6093 -1.7122 -1.6181
  883MOL0     H19192   8.941  -0.231   7.655  0.4139  0.3609  0.1488
  883MOL0     H19193   8.681  -0.151   7.661  2.1012  0.3652 -0.7072
  883MOL0     H19194   8.726  -0.317   7.605  1.3206 -0.3065 -3.1884
  883MOL0     H19195   8.488  -0.290   7.583 -2.0251  0.7578 -0.6671
  883MOL0     H19196   8.544  -0.248   7.413  1.0867 -0.3076 -0.1790
  883MOL0     H19197   8.378  -0.101   7.479  1.4118 -2.6670 -0.4041
  883MOL0     H19198   8.523  -0.014   7.453  2.6652 -1.4927  0.0087
  883MOL0     H19199   8.428  -0.094   7.734  0.6410 -0.0471 -0.3816
  883MOL0     H19200   8.547   0.021   7.690  1.7228 -1.1507 -2.4521
  883MOL0     H19201   8.220   0.284   7.633  2.7180  0.8888 -0.4004
  883MOL0     H19202   8.879  -0.013   7.300  1.0553 -2.0801 -1.6748
  883MOL0     H19203   9.242   0.054   7.238 -0.9270 -0.5507 -1.7873
  883MOL0     H19204   9.070   0.076   7.187  1.3757 -0.8866 -1.0682
  883MOL0     H19205   9.144   0.182   7.307 -1.2655 -0.2075  0.5819
  884MOL0     O19206   5.021   5.912   9.532 -0.3131 -0.0655  0.4790
  884MOL0     C19207   5.088   5.928   9.633  0.6132 -0.4943 -0.6911
  884MOL0     O19208   5.029   5.936   9.761 -0.0647 -0.3277 -0.0650
  884MOL0     C19209   4.895   5.935   9.770  0.3028 -0.1396 -0.1829
  884MOL0     C19210   4.840   5.834   9.847 -0.5300  0.4965 -0.0750
  884MOL0     C19211   4.703   5.816   9.876 -0.8412 -0.2128 -1.0418
  884MOL0     C19212   4.613   5.911   9.840  0.2129 -0.1683 -1.0241
  884MOL0     O19213   4.478   5.886   9.868 -0.0719  0.8612 -0.6209
  884MOL0     C19214   4.377   5.986   9.831  0.0018 -0.0269  0.3559
  884MOL0     C19215   4.244   5.978   9.903 -0.1300 -0.0345  0.0531
  884MOL0     C19216   4.137   6.079   9.847 -0.8828  0.6714 -1.3945
  884MOL0     C19217   4.191   6.223   9.817  0.6354 -0.4191  0.1983
  884MOL0     C19218   4.104   6.287   9.702 -0.1171 -0.6472  0.1048
  884MOL0     C19219   4.145   6.419   9.659  0.3683 -0.4467 -0.3117
  884MOL0     C19220   4.051   6.474   9.552 -0.0825  0.1887 -0.9270
  884MOL0     C19221   4.103   6.612   9.503  0.4254  0.1957  0.5764
  884MOL0     N19222   4.232   6.621   9.435 -0.9635 -0.0798 -0.4378
  884MOL0     C19223   4.344   6.700   9.479 -0.3801  0.2774 -0.0575
  884MOL0     C19224   4.430   6.709   9.377 -0.3188  0.4512 -0.0477
  884MOL0     C19225   4.563   6.785   9.383 -0.7049 -0.1848 -0.1633
  884MOL0     C19226   4.653   6.730   9.488  0.4768  0.0853 -0.4166
  884MOL0     C19227   4.783   6.818   9.493 -0.1208  1.0928  0.5995
  884MOL0     C19228   4.776   6.959   9.546 -0.2359  0.1776  0.0985
  884MOL0     O19229   4.908   7.009   9.565  0.3469 -0.4308  0.3677
  884MOL0     C19230   4.926   7.145   9.591  0.0541 -0.1336 -0.4863
  884MOL0     C19231   5.047   7.201   9.562 -0.5740  0.5015  0.0584
  884MOL0     C19232   5.090   7.322   9.614  0.4876  0.3327  0.4948
  884MOL0     C19233   5.003   7.394   9.699  0.2070 -0.1106 -0.2442
  884MOL0     C19234   5.045   7.519   9.763 -0.2822 -0.5284 -0.4107
  884MOL0     O19235   5.166   7.580   9.709 -0.1741  0.3314 -1.4319
  884MOL0     C19236   5.217   7.688   9.769 -0.1055  0.4544 -0.1183
  884MOL0     C19237   5.157   7.814   9.740  0.2076 -0.0989  0.5131
  884MOL0     C19238   5.201   7.929   9.788  0.0637  0.3744 -0.8363
  884MOL0     C19239   5.314   7.929   9.868 -0.8401 -0.5379 -0.4696
  884MOL0     O19240   5.376   8.047   9.910 -0.8627 -0.1670  0.3062
  884MOL0     C19241   5.310   8.127  10.012 -0.0822 -0.2888  0.1649
  884MOL0     C19242   5.381   8.259  10.022 -0.1371 -0.5918  0.1396
  884MOL0     C19243   5.348   8.359  10.125 -0.0194 -0.3084 -0.3970
  884MOL0     C19244   5.203   8.413  10.111  1.0564  1.2341  0.1956
  884MOL0     C19245   5.178   8.509  10.225  0.1478  0.1643 -0.9841
  884MOL0     C19246   5.039   8.555  10.228  0.6126  0.1035  0.3916
  884MOL0     C19247   5.020   8.658  10.347 -0.1406  0.3481  0.2616
  884MOL0     C19248   4.887   8.732  10.354  0.2510 -0.3826 -0.3545
  884MOL0    Cl19249   4.871   8.841  10.204  0.0779 -0.0057  0.0081
  884MOL0     C19250   5.380   7.808   9.894 -0.3595 -1.5699  0.5597
  884MOL0     C19251   5.330   7.685   9.847 -0.2320  0.4925  0.4572
  884MOL0     O19252   4.986   7.557   9.868 -0.0678  0.8538 -0.0341
  884MOL0     C19253   4.874   7.341   9.720 -0.3247  0.2878 -0.2122
  884MOL0     C19254   4.834   7.221   9.677  0.0214  0.5482 -0.4940
  884MOL0     N19255   4.390   6.622   9.280  0.1022 -0.5979 -0.1430
  884MOL0     N19256   4.269   6.579   9.312 -0.5620 -0.0739 -0.9690
  884MOL0     C19257   4.665   6.012   9.755  0.4324  0.5365  0.2538
  884MOL0     C19258   4.802   6.021   9.713  0.4196  0.1288  0.8008
  884MOL0     C19259   5.235   5.926   9.622  0.1860 -0.4332 -0.3703
  884MOL0     C19260   5.289   5.922   9.488 -0.8549 -0.3451  0.0783
  884MOL0     C19261   5.426   5.910   9.458 -0.0220  0.1178 -0.1822
  884MOL0     C19262   5.512   5.910   9.567  0.2846  0.5419 -0.4324
  884MOL0     O19263   5.653   5.910   9.570 -0.3832  0.0613  0.3796
  884MOL0     C19264   5.728   5.917   9.448  0.5430  0.5759  0.3421
  884MOL0     C19265   5.870   5.936   9.470 -0.4292  0.6922  0.1949
  884MOL0     C19266   5.933   5.816   9.547  1.0634  0.1279  0.4326
  884MOL0     C19267   6.078   5.853   9.586  0.4132  0.3439 -0.4429
  884MOL0     C19268   6.157   5.747   9.642  0.1986  0.2440 -0.1033
  884MOL0     C19269   6.228   5.665   9.694  0.4235  0.0816 -0.2574
  884MOL0     C19270   5.462   5.917   9.695  0.8126  0.3220 -0.3345
  884MOL0     C19271   5.326   5.919   9.729 -0.4623  0.1532  0.2282
  884MOL0     C19272   5.303   5.919   9.876 -0.1776 -0.3448 -0.5291
  884MOL0     H19273   4.909   5.758   9.882 -1.9299 -1.0966 -0.5940
  884MOL0     H19274   4.663   5.725   9.919  3.0513 -1.6468  0.0196
  884MOL0     H19275   4.422   6.082   9.857  0.1701 -0.7342  2.8583
  884MOL0     H19276   4.356   5.984   9.723  4.3572  1.1576 -0.7168
  884MOL0     H19277   4.261   5.998  10.009 -0.5127 -3.1265  0.7934
  884MOL0     H19278   4.201   5.877   9.899 -1.6331  0.5225  1.2310
  884MOL0     H19279   4.051   6.080   9.915 -0.4971  1.4423 -0.9035
  884MOL0     H19280   4.090   6.038   9.757 -1.7950 -1.3389 -0.0748
  884MOL0     H19281   4.188   6.294   9.900 -0.7984  1.6194 -1.5002
  884MOL0     H19282   4.296   6.225   9.788  1.0459  2.0715  1.6509
  884MOL0     H19283   4.103   6.214   9.620  1.9279 -1.0183  0.3614
  884MOL0     H19284   4.007   6.296   9.753  0.3844 -2.5420  1.5094
  884MOL0     H19285   4.121   6.486   9.742 -3.4458 -0.4789 -1.2152
  884MOL0     H19286   4.248   6.430   9.623 -0.1460 -0.2762 -1.8270
  884MOL0     H19287   3.945   6.481   9.577  0.2718  0.6967  0.5552
  884MOL0     H19288   4.066   6.411   9.464 -1.2403  1.0667 -1.7690
  884MOL0     H19289   4.033   6.641   9.424 -0.1111  2.4955  1.8109
  884MOL0     H19290   4.117   6.683   9.585  2.9246 -1.0102  1.2850
  884MOL0     H19291   4.361   6.742   9.578  3.2040 -0.4394 -0.2411
  884MOL0     H19292   4.601   6.769   9.282 -0.4053  2.1015 -0.4623
  884MOL0     H19293   4.541   6.891   9.401 -2.8985 -0.2901 -1.7651
  884MOL0     H19294   4.601   6.745   9.583 -2.2192 -3.3402 -1.1273
  884MOL0     H19295   4.675   6.623   9.486  1.5957  0.1996  1.8637
  884MOL0     H19296   4.828   6.824   9.393 -2.0316  1.2190 -0.2988
  884MOL0     H19297   4.854   6.759   9.552  1.6921 -0.4812 -2.8689
  884MOL0     H19298   4.721   6.977   9.639 -1.3700  0.8779 -0.6790
  884MOL0     H19299   4.721   7.018   9.472 -0.8015 -0.9111 -0.3711
  884MOL0     H19300   5.110   7.132   9.508 -2.0984 -0.4439 -0.5984
  884MOL0     H19301   5.190   7.352   9.587 -0.0555  1.1129 -0.7122
  884MOL0     H19302   5.067   7.816   9.680 -0.3520 -0.4518  1.3134
  884MOL0     H19303   5.156   8.027   9.773 -3.8195 -1.3284 -1.3385
  884MOL0     H19304   5.205   8.149   9.989 -0.4289 -0.5874  1.3966
  884MOL0     H19305   5.315   8.071  10.106  2.4598  0.8455  0.7945
  884MOL0     H19306   5.485   8.231  10.044 -0.4484 -0.4228  1.9951
  884MOL0     H19307   5.387   8.303   9.923 -3.2015 -2.9749 -1.2740
  884MOL0     H19308   5.343   8.315  10.225 -2.2180 -1.5316 -0.9633
  884MOL0     H19309   5.432   8.428  10.121  0.8906 -1.2042  1.6606
  884MOL0     H19310   5.136   8.329  10.131  0.2802  1.8389  0.1906
  884MOL0     H19311   5.182   8.457  10.013  1.0418 -1.7514 -1.2359
  884MOL0     H19312   5.246   8.595  10.220  0.6978 -0.3166 -2.3244
  884MOL0     H19313   5.208   8.452  10.314 -1.1541  1.4444  0.3090
  884MOL0     H19314   5.006   8.607  10.137  0.1529 -1.6188 -0.4618
  884MOL0     H19315   4.963   8.478  10.243 -1.3462  1.9566  0.5126
  884MOL0     H19316   5.094   8.733  10.316 -0.7196  0.1085 -1.8432
  884MOL0     H19317   5.052   8.614  10.442  0.8016  1.4114  0.4540
  884MOL0     H19318   4.805   8.659  10.356 -0.4411  0.1273 -3.9987
  884MOL0     H19319   4.894   8.788  10.447 -1.5007 -2.8442  1.4065
  884MOL0     H19320   5.474   7.820   9.947 -1.0121 -2.0988  1.8736
  884MOL0     H19321   5.393   7.600   9.872  1.2994  0.9140 -1.6568
  884MOL0     H19322   4.817   7.402   9.790 -0.8492  0.2081 -0.5565
  884MOL0     H19323   4.729   7.195   9.689 -0.0915  0.1515 -2.1257
  884MOL0     H19324   4.597   6.089   9.718  0.8327  0.5507 -0.4788
  884MOL0     H19325   4.850   6.093   9.649 -2.9999  1.9667  0.0695
  884MOL0     H19326   5.222   5.930   9.403 -2.9373 -1.4955  1.5363
  884MOL0     H19327   5.451   5.893   9.354 -2.3647 -2.3377 -0.4697
  884MOL0     H19328   5.691   5.997   9.382  1.8797  0.3247 -0.7547
  884MOL0     H19329   5.711   5.823   9.395  1.5424  0.9507 -0.7070
  884MOL0     H19330   5.895   6.026   9.526  0.3392 -0.5757  1.9676
  884MOL0     H19331   5.911   5.932   9.368 -0.8767 -0.9245  0.0492
  884MOL0     H19332   5.938   5.724   9.488  0.5583  0.7330 -0.5799
  884MOL0     H19333   5.884   5.773   9.635 -0.0851  0.7177  0.0988
  884MOL0     H19334   6.129   5.889   9.496  0.9707  1.1014  0.1595
  884MOL0     H19335   6.067   5.933   9.659 -2.2646  1.3060 -1.7504
  884MOL0     H19336   6.304   5.604   9.737  0.8236 -0.8057 -2.1274
  884MOL0     H19337   5.528   5.898   9.779  1.0260 -0.4556 -0.6643
  884MOL0     H19338   5.387   5.874   9.930  0.2895  1.0093 -0.0900
  884MOL0     H19339   5.294   6.023   9.907  0.2822  0.1183 -1.8741
  884MOL0     H19340   5.208   5.873   9.903 -0.8768  1.7400  0.7666
  885MOL0     O19341   9.725  10.263   7.058 -0.0767 -0.5491  0.0459
  885MOL0     C19342   9.666  10.358   7.010 -0.2634 -0.6740  0.3631
  885MOL0     O19343   9.727  10.468   6.951  0.1318 -0.4007  0.3248
  885MOL0     C19344   9.861  10.473   6.917  0.5550  0.5188  1.0640
  885MOL0     C19345   9.931  10.586   6.957 -0.9147 -0.0525  0.1251
  885MOL0     C19346  10.066  10.607   6.898  0.9318 -0.2645 -0.4761
  885MOL0     C19347  10.132  10.508   6.831 -0.2375  1.2648 -0.0637
  885MOL0     O19348  10.259  10.513   6.783 -0.0664 -0.0982  0.8242
  885MOL0     C19349  10.352  10.602   6.845  0.2117  0.1490  0.5912
  885MOL0     C19350  10.487  10.605   6.763  0.4077  0.4972 -0.3971
  885MOL0     C19351  10.602  10.610   6.865 -0.0837 -0.1564 -0.0842
  885MOL0     C19352  10.745  10.603   6.816 -0.7022 -0.1987 -0.2219
  885MOL0     C19353  10.856  10.642   6.913 -0.2786 -0.0326 -0.2190
  885MOL0     C19354  10.991  10.677   6.843 -0.0951  0.0072  0.7944
  885MOL0     C19355  10.994  10.813   6.789  0.3396 -0.0594  0.0178
  885MOL0     C19356  11.140  10.847   6.750  0.3503 -0.5458  0.2329
  885MOL0     N19357  11.233  10.864   6.858 -0.1663  0.3412  0.3317
  885MOL0     C19358  11.222  10.957   6.955  0.0497 -0.3667  0.5952
  885MOL0     C19359  11.335  10.955   7.020  0.3145  0.9410  0.0565
  885MOL0     C19360  11.376  11.045   7.135  0.5964 -0.4091  0.6715
  885MOL0     C19361  11.524  11.056   7.166  0.0936 -0.2515 -0.4644
  885MOL0     C19362  11.611  11.113   7.060  0.3806 -0.4822 -0.0777
  885MOL0     C19363  11.752  11.131   7.114  0.6452  0.8073  0.6275
  885MOL0     O19364  11.841  11.181   7.008 -0.9761 -0.0509  0.3334
  885MOL0     C19365  11.981  11.153   7.019 -0.9967 -1.1157  0.7654
  885MOL0     C19366  12.060  11.173   6.907 -0.5980  0.0508 -0.5541
  885MOL0     C19367  12.194  11.141   6.900  0.0620  0.4103 -0.4710
  885MOL0     C19368  12.258  11.100   7.014 -0.0151  0.3321  0.0384
  885MOL0     C19369  12.406  11.062   7.014 -0.2745 -0.2406  0.0936
  885MOL0     O19370  12.472  11.051   6.891  0.5075 -0.4673 -0.4655
  885MOL0     C19371  12.598  11.003   6.886  0.2532 -0.2729 -1.1289
  885MOL0     C19372  12.677  11.068   6.796  0.5652 -0.2510  1.0689
  885MOL0     C19373  12.812  11.021   6.774 -0.2683  0.2985  1.0092
  885MOL0     C19374  12.880  10.933   6.844 -0.5108  0.5588  0.0143
  885MOL0     O19375  13.011  10.904   6.819 -0.5490  0.6232 -0.1161
  885MOL0     C19376  13.111  10.920   6.924 -0.0549 -0.7373  0.6471
  885MOL0     C19377  13.221  10.820   6.932 -0.3214  0.2961 -0.1483
  885MOL0     C19378  13.303  10.827   6.802 -0.4194 -0.7875  0.1114
  885MOL0     C19379  13.420  10.928   6.809 -0.5119 -0.6696 -0.0339
  885MOL0     C19380  13.550  10.888   6.730  0.3221 -0.3354  0.2208
  885MOL0     C19381  13.639  11.013   6.699  0.5221 -1.1691  0.2656
  885MOL0     C19382  13.777  10.975   6.665 -0.3900  0.0760  0.8795
  885MOL0     C19383  13.843  11.089   6.592 -0.3152  0.0073 -0.1779
  885MOL0    Cl19384  13.920  11.205   6.697  0.2307 -0.4513  0.1327
  885MOL0     C19385  12.795  10.866   6.943  0.3745 -0.9690 -0.0762
  885MOL0     C19386  12.658  10.904   6.963 -0.1074  0.2573  0.0779
  885MOL0     O19387  12.460  11.043   7.121  0.0745 -0.2460  0.6309
  885MOL0     C19388  12.187  11.090   7.136 -0.2273 -0.0670 -0.6150
  885MOL0     C19389  12.047  11.115   7.140 -0.3228  0.3676  0.3697
  885MOL0     N19390  11.417  10.853   6.962  0.0827  0.1562 -0.3151
  885MOL0     N19391  11.341  10.787   6.878 -0.1379  0.6382  0.0348
  885MOL0     C19392  10.050  10.398   6.793 -0.3597  0.4647 -0.5088
  885MOL0     C19393   9.921  10.380   6.839 -0.4432  0.1871  0.0344
  885MOL0     C19394   9.524  10.369   7.053  1.1361 -0.6299  0.5778
  885MOL0     C19395   9.475  10.501   7.071  0.2438  0.4632  0.2600
  885MOL0     C19396   9.350  10.519   7.115  0.3217  0.4069 -0.4798
  885MOL0     C19397   9.258  10.416   7.108  0.1050 -0.2945 -0.1618
  885MOL0     O19398   9.126  10.446   7.136 -0.0801 -0.5506  0.2807
  885MOL0     C19399   9.028  10.348   7.179 -0.7577 -0.0772 -0.5626
  885MOL0     C19400   8.896  10.414   7.215 -0.1013  1.1489  0.8054
  885MOL0     C19401   8.776  10.323   7.189  0.7215 -1.3077 -0.1657
  885MOL0     C19402   8.649  10.376   7.258  0.6046 -0.2168  0.2068
  885MOL0     C19403   8.531  10.303   7.199  0.2137 -1.1181 -0.3199
  885MOL0     C19404   8.434  10.259   7.137 -0.8955  0.2357 -0.3428
  885MOL0     C19405   9.306  10.284   7.100 -1.1166  0.9401  0.6133
  885MOL0     C19406   9.443  10.251   7.075  0.1635 -0.1175  0.2662
  885MOL0     C19407   9.480  10.108   7.058 -0.1951 -0.3528  0.0180
  885MOL0     H19408   9.874  10.650   7.023  1.6952  0.4179  2.0815
  885MOL0     H19409  10.116  10.699   6.929  1.6877 -1.2645  1.4786
  885MOL0     H19410  10.312  10.704   6.837  0.5680  0.2352 -0.1629
  885MOL0     H19411  10.363  10.567   6.948 -0.1042 -1.0511  0.2291
  885MOL0     H19412  10.489  10.681   6.685  1.7248 -0.8614 -1.7359
  885MOL0     H19413  10.485  10.513   6.705 -0.1408  0.9369 -1.0906
  885MOL0     H19414  10.583  10.527   6.934  0.1034  0.1178  0.3009
  885MOL0     H19415  10.581  10.698   6.927  0.5216 -1.3032  1.8426
  885MOL0     H19416  10.762  10.499   6.789 -2.1508 -0.5729  0.2391
  885MOL0     H19417  10.750  10.668   6.729  0.4328 -0.2256 -0.1839
  885MOL0     H19418  10.821  10.716   6.985 -1.1909 -0.8044  0.1444
  885MOL0     H19419  10.873  10.555   6.975  1.6384  0.3989 -0.0626
  885MOL0     H19420  11.072  10.649   6.912 -0.9926  0.4538  2.0588
  885MOL0     H19421  11.005  10.608   6.759  0.3165  0.6310  0.3443
  885MOL0     H19422  10.949  10.882   6.860 -0.1985 -0.4815  0.0960
  885MOL0     H19423  10.923  10.811   6.706  0.9546 -2.0861 -0.5144
  885MOL0     H19424  11.176  10.764   6.688 -0.9670  0.3037 -1.7799
  885MOL0     H19425  11.138  10.941   6.694 -0.7500 -1.0384 -0.6083
  885MOL0     H19426  11.138  11.023   6.971  0.4072  0.5280 -1.0091
  885MOL0     H19427  11.336  11.144   7.114  2.0490  0.2590  0.9711
  885MOL0     H19428  11.317  11.018   7.224 -0.0085 -2.2046 -0.2125
  885MOL0     H19429  11.534  11.106   7.263  0.1481 -0.5581 -0.3091
  885MOL0     H19430  11.565  10.957   7.191  1.5374  0.9571  2.3160
  885MOL0     H19431  11.582  11.208   7.014  3.9434  0.8180  0.0272
  885MOL0     H19432  11.618  11.045   6.975 -3.9434 -0.7523 -0.4749
  885MOL0     H19433  11.784  11.030   7.140  0.6004  0.9788  1.3762
  885MOL0     H19434  11.749  11.199   7.200 -2.6667  1.9587 -0.2305
  885MOL0     H19435  12.021  11.211   6.813 -1.4158 -0.2590 -0.3446
  885MOL0     H19436  12.248  11.158   6.807  0.0363  2.1940 -0.2089
  885MOL0     H19437  12.647  11.153   6.736  3.4978  2.2288  2.8058
  885MOL0     H19438  12.870  11.083   6.707 -2.4195  0.2494 -1.0535
  885MOL0     H19439  13.148  11.023   6.918 -0.9889 -0.4812 -2.8622
  885MOL0     H19440  13.052  10.917   7.016 -3.4194  2.1559 -1.1733
  885MOL0     H19441  13.287  10.849   7.014  0.2434  0.9367 -0.8103
  885MOL0     H19442  13.181  10.720   6.947  1.8003 -0.3211  1.9492
  885MOL0     H19443  13.350  10.728   6.799  2.4432  0.4623 -1.6790
  885MOL0     H19444  13.245  10.836   6.710 -0.4590  0.3296  0.2345
  885MOL0     H19445  13.447  10.952   6.912  0.8186  2.3735 -0.9869
  885MOL0     H19446  13.387  11.023   6.765  3.1258  0.7368 -0.0922
  885MOL0     H19447  13.524  10.841   6.635  0.1597  0.7645 -0.2794
  885MOL0     H19448  13.608  10.817   6.791  1.8987  1.0662  0.4157
  885MOL0     H19449  13.584  11.059   6.616  1.4741 -0.4237  0.0359
  885MOL0     H19450  13.637  11.081   6.785 -1.1346 -1.4858  0.5211
  885MOL0     H19451  13.773  10.885   6.602 -0.0202  2.0770 -2.1883
  885MOL0     H19452  13.842  10.948   6.748  1.3821  3.1251  0.6220
  885MOL0     H19453  13.928  11.046   6.539  0.8772  0.3096  1.3909
  885MOL0     H19454  13.769  11.129   6.522 -0.2576 -1.1497 -0.9068
  885MOL0     H19455  12.849  10.797   7.008  1.5330  1.2476  1.4751
  885MOL0     H19456  12.609  10.855   7.047  0.6078  0.4528  0.6225
  885MOL0     H19457  12.235  11.066   7.231 -1.0523  4.1891  1.0722
  885MOL0     H19458  11.998  11.108   7.237 -1.8459 -1.5949 -0.4699
  885MOL0     H19459  10.098  10.328   6.725 -1.0270 -0.9092  0.3901
  885MOL0     H19460   9.863  10.298   6.798 -1.0395  0.3415  0.5499
  885MOL0     H19461   9.546  10.582   7.066 -0.6446  1.3821  1.7306
  885MOL0     H19462   9.321  10.621   7.140  1.3476  0.5179  0.3046
  885MOL0     H19463   9.054  10.277   7.259  2.3367  2.6076  1.0470
  885MOL0     H19464   9.000  10.286   7.093  0.4592 -3.5857  1.3603
  885MOL0     H19465   8.887  10.508   7.161 -0.2907  0.8868  0.3767
  885MOL0     H19466   8.886  10.448   7.318 -0.9335 -0.9699  1.4830
  885MOL0     H19467   8.786  10.224   7.233 -1.4112 -2.5049 -2.1561
  885MOL0     H19468   8.757  10.321   7.081 -2.5000 -1.0738  0.2826
  885MOL0     H19469   8.663  10.361   7.366  0.3601 -0.1882  0.2435
  885MOL0     H19470   8.636  10.481   7.229  0.0214 -0.9391 -2.4040
  885MOL0     H19471   8.349  10.219   7.086 -0.2602  1.4082 -2.4364
  885MOL0     H19472   9.235  10.202   7.091  0.5052 -0.4562 -0.2126
  885MOL0     H19473   9.529  10.106   6.960 -2.3724  0.0290 -1.1389
  885MOL0     H19474   9.556  10.080   7.132  0.9873  1.4329 -0.4404
  885MOL0     H19475   9.392  10.044   7.051 -0.7900  0.4507  0.0030
  886MOL0     O19476   5.336   8.382   2.054 -0.1744  0.6988 -0.4847
  886MOL0     C19477   5.275   8.345   2.147 -0.7302  0.8526  0.1439
  886MOL0     O19478   5.325   8.341   2.273  0.4069  0.0467 -0.3863
  886MOL0     C19479   5.458   8.324   2.314  0.6090  0.2672  0.1633
  886MOL0     C19480   5.554   8.249   2.247  0.1049 -0.2577  0.4089
  886MOL0     C19481   5.682   8.237   2.302 -0.2099  0.2042 -0.2635
  886MOL0     C19482   5.709   8.272   2.436  0.3558  0.3759 -0.5226
  886MOL0     O19483   5.811   8.226   2.517 -0.2727 -0.5723  0.7633
  886MOL0     C19484   5.937   8.228   2.444  0.8566  0.5258  0.0237
  886MOL0     C19485   6.031   8.188   2.561 -1.4799 -0.8568  0.0143
  886MOL0     C19486   6.175   8.176   2.499  0.5701  0.2988 -0.4380
  886MOL0     C19487   6.264   8.122   2.613 -0.3633  0.3357  0.9282
  886MOL0     C19488   6.402   8.100   2.567 -0.8854 -0.7456  0.0531
  886MOL0     C19489   6.487   8.069   2.694  0.4298  0.1807  0.4944
  886MOL0     C19490   6.638   8.067   2.669 -0.1538  0.7176 -0.6420
  886MOL0     C19491   6.688   8.010   2.536  0.4076  0.0579 -0.3875
  886MOL0     N19492   6.837   7.999   2.530  0.1878  0.5116  0.5601
  886MOL0     C19493   6.932   8.096   2.556 -0.3852 -0.6440  0.5686
  886MOL0     C19494   7.046   8.047   2.509 -0.4274 -0.0201 -1.3654
  886MOL0     C19495   7.185   8.115   2.517 -1.0939 -0.4065  0.4903
  886MOL0     C19496   7.201   8.205   2.632  0.3834 -0.1087 -0.0284
  886MOL0     C19497   7.210   8.135   2.758  0.7975  0.6233  0.8112
  886MOL0     C19498   7.215   8.214   2.891  0.3846  0.3202  0.4084
  886MOL0     O19499   7.121   8.325   2.909 -0.0862  0.1421  1.0210
  886MOL0     C19500   6.993   8.310   2.932 -0.4855 -0.6243 -0.0377
  886MOL0     C19501   6.901   8.414   2.911 -0.6647  0.0197  0.3904
  886MOL0     C19502   6.769   8.409   2.954 -0.3647  0.3130 -0.4559
  886MOL0     C19503   6.715   8.296   3.015 -0.1689  0.1877 -0.1914
  886MOL0     C19504   6.577   8.297   3.056  0.9771  0.1015  0.9247
  886MOL0     O19505   6.507   8.406   3.043 -0.1627 -0.1031 -0.1793
  886MOL0     C19506   6.372   8.400   3.057  1.4926 -0.0034 -0.2192
  886MOL0     C19507   6.279   8.346   2.963  0.0026 -0.0093 -0.0684
  886MOL0     C19508   6.138   8.363   2.982  0.1046 -0.1854  0.2450
  886MOL0     C19509   6.090   8.414   3.102  0.1035 -0.1898  0.2023
  886MOL0     O19510   5.954   8.452   3.122 -0.1171  0.3356 -0.6923
  886MOL0     C19511   5.908   8.396   3.243 -0.4851  0.6306  0.3436
  886MOL0     C19512   5.823   8.273   3.202  0.4134  0.4246  0.0118
  886MOL0     C19513   5.704   8.302   3.109  0.1700 -0.1837  0.3401
  886MOL0     C19514   5.586   8.366   3.183 -0.6486 -0.3103  0.0384
  886MOL0     C19515   5.475   8.262   3.192  0.8653  0.6146 -0.3364
  886MOL0     C19516   5.342   8.312   3.258 -0.2942 -0.0662 -0.3669
  886MOL0     C19517   5.269   8.398   3.159 -0.5295 -0.1037  0.4508
  886MOL0     C19518   5.147   8.457   3.226 -0.5572  0.0414 -0.3613
  886MOL0    Cl19519   5.089   8.584   3.114 -0.1806 -0.1450  0.3077
  886MOL0     C19520   6.187   8.461   3.193 -0.5637 -0.2586 -0.1385
  886MOL0     C19521   6.324   8.451   3.171 -0.6227  0.0880 -0.2752
  886MOL0     O19522   6.528   8.188   3.091  0.0679 -1.1597 -0.0442
  886MOL0     C19523   6.800   8.187   3.029 -0.2337  0.8853 -0.5911
  886MOL0     C19524   6.938   8.194   2.988  0.0206  0.4379  0.0134
  886MOL0     N19525   7.020   7.926   2.445 -0.7952 -0.1249 -0.2633
  886MOL0     N19526   6.890   7.898   2.455  0.2167 -0.2501  0.1607
  886MOL0     C19527   5.609   8.337   2.508  0.5934 -0.2306  0.0343
  886MOL0     C19528   5.485   8.368   2.446 -0.5777 -0.1139  0.0583
  886MOL0     C19529   5.126   8.321   2.131  0.0739 -0.2345  0.3931
  886MOL0     C19530   5.046   8.262   2.238 -0.6527  0.2301 -0.0451
  886MOL0     C19531   4.914   8.230   2.220 -0.5651 -0.0113  0.1237
  886MOL0     C19532   4.853   8.231   2.097 -0.4038  0.7738 -0.2191
  886MOL0     O19533   4.744   8.163   2.051 -0.3308  0.1961 -0.0711
  886MOL0     C19534   4.638   8.112   2.143  0.0166 -0.1496  0.2931
  886MOL0     C19535   4.508   8.075   2.071  0.0009  0.6438  0.0215
  886MOL0     C19536   4.393   8.051   2.164 -0.5422  0.3289 -0.4865
  886MOL0     C19537   4.265   8.011   2.084 -0.0903  0.2820 -0.0403
  886MOL0     C19538   4.147   8.005   2.173 -0.2217  0.1049  0.3807
  886MOL0     C19539   4.045   7.993   2.247 -0.0406  0.2524  0.1564
  886MOL0     C19540   4.926   8.292   1.993  0.5833 -0.4996 -0.0059
  886MOL0     C19541   5.056   8.341   2.008 -0.2925  0.7903 -0.5468
  886MOL0     C19542   5.106   8.413   1.890 -0.5705 -0.3017 -0.3548
  886MOL0     H19543   5.526   8.198   2.156 -1.1791  0.6956  0.2386
  886MOL0     H19544   5.751   8.172   2.248 -0.9829 -0.6372 -0.2560
  886MOL0     H19545   5.950   8.156   2.362 -1.2083 -0.4631  0.4875
  886MOL0     H19546   5.960   8.331   2.417  0.6834  0.4653 -0.3667
  886MOL0     H19547   6.014   8.092   2.612  2.3118 -1.8823 -0.3793
  886MOL0     H19548   6.039   8.266   2.638  0.2186  0.2561 -1.2426
  886MOL0     H19549   6.208   8.270   2.453 -0.3480  0.5219 -0.6520
  886MOL0     H19550   6.190   8.098   2.423 -0.1041 -1.8020  1.4752
  886MOL0     H19551   6.265   8.190   2.699 -1.2768  0.5455  0.7777
  886MOL0     H19552   6.227   8.027   2.652  0.1499 -0.6570 -0.9182
  886MOL0     H19553   6.406   8.012   2.502  1.0598  0.6563 -1.8357
  886MOL0     H19554   6.442   8.188   2.516 -1.4812 -1.3683 -1.5693
  886MOL0     H19555   6.465   8.132   2.780 -0.8156 -1.6590  1.5867
  886MOL0     H19556   6.461   7.966   2.717 -2.7141  1.0751  1.3365
  886MOL0     H19557   6.671   7.993   2.743  0.7362  2.0292  0.3164
  886MOL0     H19558   6.682   8.162   2.699 -0.2900  1.3046 -2.2029
  886MOL0     H19559   6.642   7.912   2.519 -1.9560  0.8497  0.9506
  886MOL0     H19560   6.662   8.078   2.455 -1.7412 -1.2767 -0.9084
  886MOL0     H19561   6.918   8.195   2.598 -0.5446 -0.5301  0.2586
  886MOL0     H19562   7.258   8.034   2.524  1.4289  1.8799  4.9200
  886MOL0     H19563   7.211   8.158   2.420  0.3722 -2.4234 -0.0657
  886MOL0     H19564   7.283   8.277   2.625 -0.5246  1.1608  1.7162
  886MOL0     H19565   7.114   8.271   2.640  0.7005  0.3559 -0.3007
  886MOL0     H19566   7.295   8.068   2.740 -0.3265 -0.2817 -1.7130
  886MOL0     H19567   7.119   8.075   2.766  2.1316 -1.6232  0.2067
  886MOL0     H19568   7.298   8.285   2.885  0.1867  0.4149 -1.7980
  886MOL0     H19569   7.233   8.156   2.982 -2.6817  1.1319  1.6664
  886MOL0     H19570   6.946   8.497   2.859 -0.5344 -0.7175 -0.7016
  886MOL0     H19571   6.712   8.497   2.927 -1.0883 -0.4461 -1.4586
  886MOL0     H19572   6.331   8.316   2.872 -2.5634  1.5050 -2.1951
  886MOL0     H19573   6.072   8.334   2.901  1.1381  0.6209 -0.9464
  886MOL0     H19574   5.976   8.369   3.325 -0.6708  1.4828  0.7863
  886MOL0     H19575   5.837   8.470   3.281 -1.7233  0.8851 -2.2836
  886MOL0     H19576   5.885   8.196   3.156 -0.8857 -0.8211  0.2539
  886MOL0     H19577   5.782   8.228   3.294  1.8559  0.0492  0.4988
  886MOL0     H19578   5.734   8.376   3.033 -1.7868  0.2519 -0.0687
  886MOL0     H19579   5.674   8.214   3.050 -0.1642 -1.5555  2.4649
  886MOL0     H19580   5.549   8.452   3.127  0.6348  0.9593  1.0507
  886MOL0     H19581   5.614   8.402   3.282 -0.5508 -3.4861  1.2825
  886MOL0     H19582   5.500   8.183   3.263 -0.7339 -0.8092 -1.2672
  886MOL0     H19583   5.444   8.213   3.099 -3.0108 -1.5597  1.8151
  886MOL0     H19584   5.283   8.224   3.282 -0.0729 -0.3721 -0.9240
  886MOL0     H19585   5.368   8.373   3.345  0.4096  2.6995 -2.3747
  886MOL0     H19586   5.242   8.337   3.073 -2.5025 -0.4610  1.2792
  886MOL0     H19587   5.340   8.473   3.124 -1.3300  0.0929 -0.8084
  886MOL0     H19588   5.072   8.381   3.251 -0.3605 -0.7795 -2.1107
  886MOL0     H19589   5.163   8.501   3.325 -3.8583  1.4174 -0.3218
  886MOL0     H19590   6.171   8.504   3.291  3.6909  1.6110 -0.0294
  886MOL0     H19591   6.398   8.465   3.248  0.3774 -3.3213 -0.4490
  886MOL0     H19592   6.760   8.099   3.079  0.7527 -0.4574 -2.0649
  886MOL0     H19593   6.984   8.098   3.011  1.7869  1.0876 -0.5921
  886MOL0     H19594   5.627   8.361   2.613 -0.7517  1.3458 -0.0534
  886MOL0     H19595   5.403   8.405   2.507  0.6845  4.4640 -0.6063
  886MOL0     H19596   5.087   8.242   2.336 -1.3282  1.6115  0.5494
  886MOL0     H19597   4.848   8.190   2.296  0.3195 -0.2160  0.8002
  886MOL0     H19598   4.610   8.193   2.211 -1.4295  0.3710 -0.8727
  886MOL0     H19599   4.667   8.023   2.200 -0.3427 -1.0060 -0.8245
  886MOL0     H19600   4.526   7.996   1.998 -1.7370  0.8721 -0.7143
  886MOL0     H19601   4.480   8.166   2.018 -1.2613  0.5512  0.4960
  886MOL0     H19602   4.376   8.147   2.213  0.9069  0.5694 -0.4160
  886MOL0     H19603   4.412   7.989   2.252 -1.4595  1.6938  0.7290
  886MOL0     H19604   4.253   8.075   1.997  1.6047  0.0010 -0.5211
  886MOL0     H19605   4.281   7.908   2.051 -0.2225  1.1195 -2.9166
  886MOL0     H19606   3.957   7.990   2.307 -0.9979  0.9325 -1.1695
  886MOL0     H19607   4.877   8.297   1.897  1.3872  1.6442 -0.3543
  886MOL0     H19608   5.036   8.421   1.806  1.2623  0.0337 -1.9210
  886MOL0     H19609   5.141   8.514   1.916  0.9130 -0.9750  0.3996
  886MOL0     H19610   5.189   8.355   1.849  0.3970 -1.0665  2.4576
  887MOL0     O19611  10.250   8.860   0.388 -0.3696 -0.2809  0.2602
  887MOL0     C19612  10.169   8.883   0.303  1.1819 -0.0255  0.8552
  887MOL0     O19613  10.181   8.939   0.184 -0.0267 -0.2339 -0.4303
  887MOL0     C19614  10.306   8.988   0.153 -0.0763 -0.3072 -0.3769
  887MOL0     C19615  10.358   9.108   0.212 -0.1041 -0.8296 -1.0080
  887MOL0     C19616  10.478   9.164   0.172  0.8254  0.0653 -0.5188
  887MOL0     C19617  10.561   9.094   0.080  0.0190 -0.2312  0.3269
  887MOL0     O19618  10.686   9.140   0.038  0.1874 -0.4873 -0.5484
  887MOL0     C19619  10.792   9.056   0.077  0.5731  0.7733  0.3687
  887MOL0     C19620  10.925   9.097   0.003  0.6279  0.2088  0.0615
  887MOL0     C19621  11.041   9.017   0.054  1.2479  0.3267  0.7603
  887MOL0     C19622  11.174   9.101   0.025  0.2226  0.4727  0.3183
  887MOL0     C19623  11.303   9.056   0.087 -0.2574  0.2838  0.6216
  887MOL0     C19624  11.429   9.111   0.014 -0.0370 -0.1145 -0.4052
  887MOL0     C19625  11.559   9.035   0.067 -0.0851 -0.9871 -0.1995
  887MOL0     C19626  11.609   9.076   0.204 -0.6640  0.3840  0.6078
  887MOL0     N19627  11.653   9.215   0.205  0.0139  0.1569 -0.0450
  887MOL0     C19628  11.770   9.267   0.160 -0.6316 -0.0303  0.9796
  887MOL0     C19629  11.755   9.393   0.184 -0.9012 -0.4938  0.2037
  887MOL0     C19630  11.863   9.496   0.158 -0.4155  0.1570  1.4429
  887MOL0     C19631  11.911   9.556   0.291  0.2317 -0.3394 -1.1393
  887MOL0     C19632  11.916   9.715   0.292 -0.7113 -0.4803 -0.2972
  887MOL0     C19633  12.025   9.782   0.368  0.6166 -0.1897 -0.2568
  887MOL0     O19634  12.158   9.763   0.320  0.5038  0.0102 -0.9754
  887MOL0     C19635  12.269   9.834   0.379 -0.9712  0.2089  0.6901
  887MOL0     C19636  12.388   9.790   0.318 -0.0285 -0.5150  0.5545
  887MOL0     C19637  12.507   9.861   0.355  0.1148 -0.3863 -0.2900
  887MOL0     C19638  12.504   9.945   0.461 -0.0805  0.2904 -0.5593
  887MOL0     C19639  12.630   9.984   0.516  0.2993  0.5193 -0.1951
  887MOL0     O19640  12.746   9.916   0.483 -0.4793  0.2070  0.0397
  887MOL0     C19641  12.869   9.966   0.519 -0.6844 -0.2321  0.0667
  887MOL0     C19642  12.907  10.037   0.634 -0.0850 -0.0134 -1.0560
  887MOL0     C19643  13.042  10.101   0.651 -0.1942  0.6339 -0.0411
  887MOL0     C19644  13.142  10.073   0.558 -1.5555 -0.0112 -0.1923
  887MOL0     O19645  13.264  10.126   0.591  0.3547  0.5009 -0.5849
  887MOL0     C19646  13.377  10.070   0.523 -0.8185 -0.4270 -0.2046
  887MOL0     C19647  13.493  10.078   0.620  0.0044 -0.0790 -0.0652
  887MOL0     C19648  13.459  10.016   0.755  0.1552 -0.1522  0.5984
  887MOL0     C19649  13.583   9.962   0.825 -0.1674 -0.4118  0.0444
  887MOL0     C19650  13.542   9.857   0.925 -0.1834  0.0018  0.2463
  887MOL0     C19651  13.669   9.804   1.001  0.8492 -0.1290  0.2040
  887MOL0     C19652  13.627   9.693   1.102 -0.3061 -0.0778 -0.0564
  887MOL0     C19653  13.755   9.671   1.195 -0.3130  0.3106 -0.1728
  887MOL0    Cl19654  13.881   9.591   1.095  0.6257  0.0357 -0.1910
  887MOL0     C19655  13.104   9.994   0.451  0.0782 -0.1807  0.4730
  887MOL0     C19656  12.977   9.940   0.435  0.2400  0.7324  0.8587
  887MOL0     O19657  12.631  10.092   0.580  0.5311  0.2655  0.5384
  887MOL0     C19658  12.393   9.976   0.533  0.4541 -0.1256  0.2261
  887MOL0     C19659  12.269   9.925   0.489  1.0752 -0.4997  0.2993
  887MOL0     N19660  11.647   9.415   0.265  0.5123 -0.6311  0.2981
  887MOL0     N19661  11.583   9.304   0.287 -0.3100 -0.4313 -0.0532
  887MOL0     C19662  10.505   8.972   0.023 -0.5398 -0.4409  0.0674
  887MOL0     C19663  10.378   8.919   0.056 -0.1159  0.1292  0.2812
  887MOL0     C19664  10.036   8.839   0.333 -0.8721  0.1854 -0.7233
  887MOL0     C19665   9.943   8.942   0.328  0.3977 -0.3257  0.4514
  887MOL0     C19666   9.813   8.913   0.359  0.4627  0.1611  0.0867
  887MOL0     C19667   9.768   8.773   0.378 -0.2766  0.3779  0.0309
  887MOL0     O19668   9.638   8.747   0.402 -0.5606 -0.0206  0.1281
  887MOL0     C19669   9.611   8.743   0.539  0.5227 -0.2006 -0.3710
  887MOL0     C19670   9.461   8.722   0.559 -0.0069  0.6818 -0.4461
  887MOL0     C19671   9.389   8.853   0.513 -0.8058  0.4911 -0.3685
  887MOL0     C19672   9.245   8.831   0.472 -0.1324 -0.6386  0.2815
  887MOL0     C19673   9.179   8.960   0.472  0.2510 -0.0174 -0.2053
  887MOL0     C19674   9.116   9.068   0.471  0.6957 -0.1342  0.0707
  887MOL0     C19675   9.859   8.668   0.363 -0.6193 -0.1099  0.2672
  887MOL0     C19676   9.996   8.703   0.355  0.5933 -0.7593  0.5376
  887MOL0     C19677  10.089   8.593   0.329  0.0974  0.5626  0.1492
  887MOL0     H19678  10.300   9.160   0.287  0.0374 -2.8997  0.6230
  887MOL0     H19679  10.501   9.264   0.207  2.2135 -0.0572 -1.0161
  887MOL0     H19680  10.790   9.055   0.187 -2.3227 -0.5815  0.3812
  887MOL0     H19681  10.767   8.952   0.054  2.8369 -0.1506  1.7217
  887MOL0     H19682  10.948   9.202   0.024 -0.4882  0.3097  0.8967
  887MOL0     H19683  10.907   9.078  -0.103 -0.5287  1.5533 -0.0208
  887MOL0     H19684  11.040   8.920   0.003  0.4377  0.1859  1.0341
  887MOL0     H19685  11.032   9.002   0.162  0.0278  0.2604  0.6643
  887MOL0     H19686  11.185   9.093  -0.084  1.0016 -1.5304  0.4917
  887MOL0     H19687  11.152   9.202   0.057  0.4710  1.1904 -1.6053
  887MOL0     H19688  11.297   9.089   0.191 -0.9069 -1.5107  1.1821
  887MOL0     H19689  11.309   8.947   0.085  0.6061  0.2765  2.2415
  887MOL0     H19690  11.425   9.079  -0.090 -0.7418  1.5409 -0.9183
  887MOL0     H19691  11.436   9.220   0.021 -1.3902 -0.0010 -0.5883
  887MOL0     H19692  11.646   9.040   0.001  0.4054 -0.8103  0.4528
  887MOL0     H19693  11.533   8.929   0.063  3.1775 -1.8714 -1.0375
  887MOL0     H19694  11.521   9.059   0.267  0.3909 -0.8272  1.8211
  887MOL0     H19695  11.687   9.011   0.244 -2.0076 -1.7302 -0.0154
  887MOL0     H19696  11.855   9.224   0.108  1.2041  3.7693  0.5430
  887MOL0     H19697  11.943   9.450   0.099 -1.6112  0.1104 -0.2259
  887MOL0     H19698  11.822   9.573   0.092 -0.8666  0.2143  1.7897
  887MOL0     H19699  11.849   9.528   0.377  3.0284 -1.9067  0.5280
  887MOL0     H19700  12.012   9.522   0.315  0.6257  1.7003  0.4701
  887MOL0     H19701  11.823   9.749   0.337 -0.4212  0.9962 -0.7760
  887MOL0     H19702  11.913   9.749   0.188 -0.7884 -1.7651 -0.7354
  887MOL0     H19703  12.030   9.747   0.471  1.1414  4.3405  1.4558
  887MOL0     H19704  11.995   9.887   0.368 -1.6725 -0.7392 -2.4066
  887MOL0     H19705  12.411   9.741   0.224 -2.6384  0.0974 -0.4655
  887MOL0     H19706  12.598   9.820   0.314 -0.1435  1.9829 -3.6559
  887MOL0     H19707  12.837  10.062   0.714  1.0434 -0.8547  0.2466
  887MOL0     H19708  13.055  10.163   0.739 -1.2103  1.2555 -0.3090
  887MOL0     H19709  13.367   9.965   0.494  3.0639 -0.7199 -1.0123
  887MOL0     H19710  13.398  10.126   0.432 -1.1665 -0.9635 -0.6249
  887MOL0     H19711  13.577  10.023   0.576 -1.6955 -0.6199 -2.8264
  887MOL0     H19712  13.522  10.182   0.638 -0.9383  0.3229 -0.8091
  887MOL0     H19713  13.411  10.092   0.817  1.5644  0.3456  1.1341
  887MOL0     H19714  13.388   9.935   0.736  0.5308 -0.9648  2.4347
  887MOL0     H19715  13.626  10.046   0.880 -3.6241  1.0884  0.7516
  887MOL0     H19716  13.662   9.939   0.754  2.1322  4.6397  0.5696
  887MOL0     H19717  13.493   9.768   0.885 -0.1687 -0.5196  1.3359
  887MOL0     H19718  13.471   9.895   0.999 -0.9321 -0.7825 -0.0537
  887MOL0     H19719  13.747   9.763   0.937  0.8001 -1.3457  0.8902
  887MOL0     H19720  13.730   9.885   1.042  2.3871 -0.4468 -1.3351
  887MOL0     H19721  13.602   9.605   1.042 -0.1496 -2.1330  2.7035
  887MOL0     H19722  13.544   9.728   1.165  1.2710  0.6514  1.7016
  887MOL0     H19723  13.802   9.761   1.234  2.9049 -0.6615 -1.4662
  887MOL0     H19724  13.716   9.610   1.277  1.7268 -0.7224  0.0990
  887MOL0     H19725  13.187   9.975   0.383  1.1868 -0.3548  1.8379
  887MOL0     H19726  12.960   9.870   0.354  1.1121  3.6634 -2.0730
  887MOL0     H19727  12.392  10.049   0.613 -1.4039  1.9173 -1.5051
  887MOL0     H19728  12.176   9.936   0.544  0.7325  0.5350 -0.4557
  887MOL0     H19729  10.564   8.932  -0.058  1.7558  2.9570 -0.1335
  887MOL0     H19730  10.349   8.827   0.006  0.6599 -0.0999  0.2291
  887MOL0     H19731   9.960   9.043   0.293  2.3689 -0.0484  2.0400
  887MOL0     H19732   9.738   8.986   0.329  0.4527 -1.2746 -4.0837
  887MOL0     H19733   9.647   8.838   0.578 -0.1709 -0.3757  0.7628
  887MOL0     H19734   9.666   8.656   0.576 -1.4933 -0.5664  2.0872
  887MOL0     H19735   9.425   8.696   0.659  0.2664  3.6241  0.5104
  887MOL0     H19736   9.438   8.634   0.499  2.0076  0.6247 -1.2297
  887MOL0     H19737   9.448   8.890   0.429  0.7627  3.7259  1.9078
  887MOL0     H19738   9.408   8.924   0.595  2.7518 -0.0351 -0.5931
  887MOL0     H19739   9.248   8.780   0.375 -0.4357 -0.3884  0.1387
  887MOL0     H19740   9.187   8.757   0.528 -0.7347 -1.1918 -1.0339
  887MOL0     H19741   9.053   9.154   0.469  0.2589 -0.4519 -0.1341
  887MOL0     H19742   9.821   8.567   0.360 -1.5729  0.2488 -2.6780
  887MOL0     H19743  10.116   8.584   0.224 -0.2385  1.4314 -0.0175
  887MOL0     H19744  10.183   8.612   0.382 -0.0283  1.6891 -0.0012
  887MOL0     H19745  10.039   8.501   0.360 -3.5527  1.9987 -0.9433
  888MOL0     O19746   5.733   7.865   6.577 -0.2580  0.5476 -0.1311
  888MOL0     C19747   5.707   7.961   6.641  0.3837  0.0119  0.0088
  888MOL0     O19748   5.794   8.030   6.719  0.2275  0.0210  0.0584
  888MOL0     C19749   5.908   7.966   6.768 -0.3955 -0.4071 -0.3509
  888MOL0     C19750   5.926   7.941   6.904  0.2581  0.1132  0.3914
  888MOL0     C19751   6.050   7.906   6.959 -0.2375  0.1329 -0.4144
  888MOL0     C19752   6.160   7.891   6.880 -0.0004  0.1509  0.6016
  888MOL0     O19753   6.279   7.834   6.934  0.7345  0.0656  0.2084
  888MOL0     C19754   6.263   7.712   7.001 -0.6053  0.3746  0.3232
  888MOL0     C19755   6.400   7.654   7.051 -0.7034 -0.5478 -0.2066
  888MOL0     C19756   6.476   7.754   7.141 -0.1473 -0.1343 -0.5220
  888MOL0     C19757   6.590   7.678   7.210 -0.4752 -0.3023 -0.5803
  888MOL0     C19758   6.700   7.777   7.231  0.3537 -0.1234  0.6814
  888MOL0     C19759   6.791   7.733   7.343  0.0841  0.1081 -0.5141
  888MOL0     C19760   6.900   7.834   7.362 -0.2624 -0.8249 -0.4277
  888MOL0     C19761   6.983   7.796   7.492  0.7320 -0.2553 -0.3992
  888MOL0     N19762   6.921   7.859   7.614 -0.2292 -0.3204 -0.1746
  888MOL0     C19763   6.841   7.794   7.704 -0.2261 -0.6157  0.5871
  888MOL0     C19764   6.788   7.894   7.776  0.2124  0.1581 -0.6894
  888MOL0     C19765   6.677   7.888   7.882 -0.6087  0.2632 -0.2001
  888MOL0     C19766   6.538   7.889   7.825 -0.2734 -0.8050  0.5222
  888MOL0     C19767   6.454   7.793   7.911  0.0412 -0.0109  0.1595
  888MOL0     C19768   6.308   7.773   7.864 -0.2518  0.2765  0.7239
  888MOL0     O19769   6.225   7.757   7.979 -0.5342 -0.3208 -0.4498
  888MOL0     C19770   6.101   7.716   7.969  0.4794 -1.4053  0.3972
  888MOL0     C19771   6.028   7.713   7.852  0.2018  0.1611  0.0090
  888MOL0     C19772   5.898   7.653   7.849 -0.0595  0.2552 -0.1701
  888MOL0     C19773   5.849   7.591   7.966  0.0583 -0.1679  0.0055
  888MOL0     C19774   5.722   7.505   7.952 -0.4132  0.7338  1.0579
  888MOL0     O19775   5.650   7.530   7.842  0.1339 -0.1605 -0.0775
  888MOL0     C19776   5.528   7.472   7.824  0.7300 -0.5869 -0.3275
  888MOL0     C19777   5.498   7.332   7.850  0.2435 -0.1631 -0.1310
  888MOL0     C19778   5.373   7.278   7.827 -0.1255 -0.7343 -0.0285
  888MOL0     C19779   5.279   7.350   7.755 -0.4709 -0.0136  0.0575
  888MOL0     O19780   5.150   7.312   7.725  0.1523 -0.0030  0.5283
  888MOL0     C19781   5.090   7.190   7.773  0.0393 -0.9982 -0.0451
  888MOL0     C19782   4.957   7.161   7.695  0.1334 -0.4835 -0.8678
  888MOL0     C19783   4.920   7.015   7.717  0.2823  0.4123 -0.2814
  888MOL0     C19784   4.768   6.997   7.689  0.0042 -0.1386  0.2394
  888MOL0     C19785   4.727   6.854   7.651  0.2319 -0.5237  0.2277
  888MOL0     C19786   4.569   6.857   7.608 -0.8410 -0.5069 -0.0354
  888MOL0     C19787   4.532   6.706   7.587  0.5481 -0.0400 -0.6385
  888MOL0     C19788   4.392   6.670   7.535 -0.1065 -1.2802 -0.7730
  888MOL0    Cl19789   4.373   6.690   7.357  0.3745 -0.0590  0.1109
  888MOL0     C19790   5.312   7.477   7.712 -0.2738 -0.7665 -0.3234
  888MOL0     C19791   5.434   7.541   7.749 -0.8750 -0.5699 -0.0868
  888MOL0     O19792   5.686   7.435   8.048  0.5176 -0.0699 -0.0216
  888MOL0     C19793   5.921   7.597   8.079 -0.4642 -0.7420 -0.8774
  888MOL0     C19794   6.041   7.671   8.084  0.6177 -0.1146  0.2818
  888MOL0     N19795   6.831   8.016   7.731 -0.8895  0.7933  0.1224
  888MOL0     N19796   6.923   7.992   7.636  0.0476 -0.3087  0.4791
  888MOL0     C19797   6.141   7.920   6.741  0.7787  0.1980 -0.1062
  888MOL0     C19798   6.019   7.964   6.688  0.1807 -0.2187  0.1793
  888MOL0     C19799   5.560   7.985   6.674 -1.3073 -0.0166 -0.0186
  888MOL0     C19800   5.522   8.003   6.808 -0.1170  0.0240  0.1096
  888MOL0     C19801   5.391   8.036   6.837  0.2946  0.0302 -0.6142
  888MOL0     C19802   5.297   8.082   6.748 -0.0692 -1.4999  0.0805
  888MOL0     O19803   5.173   8.123   6.789  0.9689 -0.1972 -0.6683
  888MOL0     C19804   5.078   8.193   6.702 -0.6040  0.4626 -0.7358
  888MOL0     C19805   4.949   8.203   6.781 -0.8977  0.4726  0.0110
  888MOL0     C19806   4.850   8.282   6.706  0.3525 -0.0045 -0.7013
  888MOL0     C19807   4.734   8.340   6.786  0.5236 -0.1316 -0.0984
  888MOL0     C19808   4.621   8.367   6.694 -1.2494  0.6912 -1.2832
  888MOL0     C19809   4.538   8.388   6.609  0.0849  0.1545  0.3043
  888MOL0     C19810   5.339   8.074   6.612 -0.0631 -0.6061  0.5015
  888MOL0     C19811   5.468   8.026   6.575  0.9040  0.9390 -0.1845
  888MOL0     C19812   5.489   8.010   6.430 -0.6313  1.1747  0.0820
  888MOL0     H19813   5.840   7.949   6.969  1.9062  2.0038  2.5221
  888MOL0     H19814   6.063   7.887   7.065 -1.9440  0.3377 -0.1438
  888MOL0     H19815   6.182   7.724   7.074 -0.5507  1.5297  0.2188
  888MOL0     H19816   6.227   7.633   6.934  1.6999  1.1155 -1.9806
  888MOL0     H19817   6.470   7.637   6.969 -0.2131 -3.7098  0.7139
  888MOL0     H19818   6.380   7.563   7.109 -1.6330 -0.2853 -0.0959
  888MOL0     H19819   6.410   7.795   7.218  1.8577  1.7963  0.2985
  888MOL0     H19820   6.516   7.836   7.079  1.6581 -0.2636  0.3985
  888MOL0     H19821   6.549   7.632   7.300 -2.0115 -0.5507 -1.3631
  888MOL0     H19822   6.633   7.600   7.147  0.7309 -1.7577  1.9236
  888MOL0     H19823   6.754   7.795   7.138 -1.0484  0.0636 -0.1258
  888MOL0     H19824   6.656   7.875   7.254 -0.3772  0.1816 -1.7257
  888MOL0     H19825   6.736   7.727   7.437  1.6577  0.4891  0.4734
  888MOL0     H19826   6.842   7.640   7.317  0.3336 -0.1490  0.8204
  888MOL0     H19827   6.860   7.935   7.363  1.4697 -0.0950 -0.3315
  888MOL0     H19828   6.975   7.843   7.282 -0.8550  1.4651 -0.7703
  888MOL0     H19829   7.019   7.694   7.509 -0.6065 -0.5010  1.2824
  888MOL0     H19830   7.073   7.857   7.476 -1.4778  3.9025  1.3860
  888MOL0     H19831   6.823   7.687   7.709  0.0063 -0.6357  1.0501
  888MOL0     H19832   6.692   7.791   7.931  1.3038  0.0149 -1.1974
  888MOL0     H19833   6.688   7.955   7.967 -1.5992  0.0306  0.1363
  888MOL0     H19834   6.502   7.992   7.835  1.6489 -0.2039  1.7361
  888MOL0     H19835   6.525   7.854   7.722 -2.4153 -1.8832  1.0949
  888MOL0     H19836   6.450   7.852   8.004 -0.9663  0.0314  0.1077
  888MOL0     H19837   6.496   7.693   7.922 -3.7948 -1.6828  1.7306
  888MOL0     H19838   6.301   7.677   7.813  1.5645  0.0732  0.8079
  888MOL0     H19839   6.274   7.851   7.795 -0.7822  0.4322  1.1492
  888MOL0     H19840   6.069   7.742   7.756  1.1240 -0.5838  0.1666
  888MOL0     H19841   5.849   7.637   7.753  0.8555 -1.3411 -0.4033
  888MOL0     H19842   5.573   7.262   7.886  1.5649  1.0882 -0.3539
  888MOL0     H19843   5.333   7.179   7.847 -0.9153 -0.7884 -1.6881
  888MOL0     H19844   5.162   7.108   7.762  1.4305  0.3384 -1.3020
  888MOL0     H19845   5.062   7.200   7.878  2.3582 -1.2086  0.6567
  888MOL0     H19846   4.882   7.234   7.726 -1.0520 -0.6343 -3.2010
  888MOL0     H19847   4.963   7.172   7.587 -0.1651 -0.3020 -0.8655
  888MOL0     H19848   4.981   6.957   7.647 -0.8968 -2.2150  0.7218
  888MOL0     H19849   4.949   6.981   7.817  2.5336  1.0507 -0.6528
  888MOL0     H19850   4.739   7.071   7.613 -0.6619 -1.3554 -0.7408
  888MOL0     H19851   4.710   7.037   7.772 -2.2700  0.6952 -1.6464
  888MOL0     H19852   4.763   6.784   7.727  3.4563 -0.1861 -0.8219
  888MOL0     H19853   4.789   6.835   7.563  1.1629 -1.8924  1.1298
  888MOL0     H19854   4.509   6.897   7.690  0.3921 -1.0485  1.1934
  888MOL0     H19855   4.554   6.924   7.524 -3.3345  1.7719  2.0525
  888MOL0     H19856   4.554   6.638   7.670  0.2305  0.4380 -0.1556
  888MOL0     H19857   4.597   6.669   7.508 -1.0148 -1.0529 -1.5089
  888MOL0     H19858   4.379   6.562   7.547  1.9554 -1.5253 -0.3675
  888MOL0     H19859   4.324   6.731   7.595  1.7488 -0.2040  0.2963
  888MOL0     H19860   5.235   7.525   7.653  0.2367  1.1498  0.4815
  888MOL0     H19861   5.467   7.641   7.723 -0.2686  0.6357  4.3886
  888MOL0     H19862   5.887   7.539   8.164  0.4859  2.0609  1.6263
  888MOL0     H19863   6.096   7.676   8.177  2.2037 -1.0510 -0.5653
  888MOL0     H19864   6.222   7.907   6.670 -1.6940  0.5551 -3.2124
  888MOL0     H19865   6.012   7.991   6.583 -0.7557 -3.7065 -0.7818
  888MOL0     H19866   5.583   7.963   6.888 -1.5549 -1.6638  0.4433
  888MOL0     H19867   5.370   8.044   6.944  0.9671 -2.4205 -0.2212
  888MOL0     H19868   5.051   8.133   6.614 -1.6714 -2.1416  1.2350
  888MOL0     H19869   5.117   8.291   6.673  3.5716 -0.5775  0.7148
  888MOL0     H19870   4.972   8.250   6.877 -2.3615  0.0548  0.5988
  888MOL0     H19871   4.911   8.102   6.796 -0.8509  0.1935 -1.5366
  888MOL0     H19872   4.812   8.230   6.617  2.1740  1.0802 -2.1999
  888MOL0     H19873   4.895   8.370   6.658 -1.8998  2.4638  1.4551
  888MOL0     H19874   4.701   8.270   6.863  0.2659 -0.3750 -0.4263
  888MOL0     H19875   4.760   8.434   6.836 -1.8868  1.1411 -1.0604
  888MOL0     H19876   4.457   8.405   6.541  0.7812 -0.5785 -0.7457
  888MOL0     H19877   5.264   8.115   6.545  0.4497 -0.8540 -0.2512
  888MOL0     H19878   5.415   8.074   6.380  0.9360  3.0134  0.0180
  888MOL0     H19879   5.593   8.023   6.398 -0.9039  0.5378 -1.1516
  888MOL0     H19880   5.463   7.906   6.409 -0.8002  1.3400 -0.5626
  889MOL0     O19881   5.480   2.056   7.425  0.7404  1.0307  0.1764
  889MOL0     C19882   5.489   2.082   7.309  0.6171 -0.3582  0.5117
  889MOL0     O19883   5.400   2.143   7.233 -0.8027 -0.3559  0.3883
  889MOL0     C19884   5.289   2.201   7.278 -0.7754 -0.0746 -0.7020
  889MOL0     C19885   5.297   2.336   7.311 -0.3651  0.3876 -0.1770
  889MOL0     C19886   5.193   2.402   7.371  0.1276  1.4943  0.5283
  889MOL0     C19887   5.067   2.340   7.377 -1.3562  0.6289  0.5980
  889MOL0     O19888   4.969   2.418   7.425 -0.3501 -0.3293  1.0444
  889MOL0     C19889   4.865   2.365   7.499 -0.1219  0.2607 -0.0978
  889MOL0     C19890   4.894   2.341   7.643 -0.4242  0.0308  0.0378
  889MOL0     C19891   4.966   2.463   7.712 -0.4021 -0.2943  0.6641
  889MOL0     C19892   4.991   2.458   7.869  0.5765 -0.3801  0.9216
  889MOL0     C19893   5.029   2.598   7.915 -0.2125  0.2856  0.1640
  889MOL0     C19894   5.056   2.593   8.067  0.2130 -0.2701  1.1123
  889MOL0     C19895   5.068   2.727   8.120  0.0876 -0.6044 -0.3407
  889MOL0     C19896   5.117   2.745   8.267  0.3639 -0.1815 -0.2473
  889MOL0     N19897   5.136   2.891   8.290 -0.2074  0.0769  0.0163
  889MOL0     C19898   5.256   2.948   8.266  0.4600  0.3435  0.6083
  889MOL0     C19899   5.237   3.084   8.302 -0.2688  0.7044  0.4908
  889MOL0     C19900   5.333   3.194   8.283 -1.0243 -0.1649 -0.3164
  889MOL0     C19901   5.423   3.234   8.395 -0.1310 -0.3905 -0.0879
  889MOL0     C19902   5.355   3.250   8.532 -0.0110  0.1951  0.0994
  889MOL0     C19903   5.459   3.267   8.636 -0.4451 -0.4461 -0.0614
  889MOL0     O19904   5.554   3.370   8.591 -0.0881 -0.0802  0.1579
  889MOL0     C19905   5.682   3.355   8.640 -0.0181 -0.6813 -0.0524
  889MOL0     C19906   5.712   3.308   8.770 -0.6407 -0.4324  0.4007
  889MOL0     C19907   5.836   3.285   8.823 -0.2657 -0.1288 -0.9232
  889MOL0     C19908   5.948   3.323   8.740  0.1711 -0.0816 -0.7209
  889MOL0     C19909   6.087   3.312   8.790  0.5265 -0.2701 -0.0597
  889MOL0     O19910   6.101   3.254   8.916  0.6223 -0.1543  0.3994
  889MOL0     C19911   6.222   3.270   8.974  0.4209  0.0835 -0.6454
  889MOL0     C19912   6.294   3.391   8.984 -0.5514 -0.0777  0.3385
  889MOL0     C19913   6.425   3.385   9.039 -0.1158  0.5558 -0.4431
  889MOL0     C19914   6.481   3.269   9.091  0.3888 -0.5777  1.2410
  889MOL0     O19915   6.616   3.250   9.121  0.2539  0.6224 -0.1579
  889MOL0     C19916   6.705   3.358   9.132  0.1532 -0.4317 -0.3679
  889MOL0     C19917   6.839   3.303   9.171 -0.8350  0.3320  0.2362
  889MOL0     C19918   6.895   3.232   9.050 -0.3594  0.7659  0.2238
  889MOL0     C19919   7.041   3.175   9.066 -0.0112  0.0216 -0.1576
  889MOL0     C19920   7.074   3.087   8.941 -1.0176  0.1025  0.0206
  889MOL0     C19921   7.190   2.994   8.978  0.3824  0.2516  0.3667
  889MOL0     C19922   7.253   2.926   8.859  0.0327 -0.9173  0.0520
  889MOL0     C19923   7.362   2.998   8.787  0.5360  0.5125 -0.5015
  889MOL0    Cl19924   7.487   3.039   8.904  0.5910  0.2156 -0.3411
  889MOL0     C19925   6.407   3.142   9.078 -0.4227 -1.1334 -1.1076
  889MOL0     C19926   6.276   3.154   9.029 -0.2780  0.0464 -0.1478
  889MOL0     O19927   6.186   3.338   8.716  0.4243  1.5383 -0.6509
  889MOL0     C19928   5.922   3.373   8.614  0.2865  0.6972  0.4026
  889MOL0     C19929   5.793   3.394   8.560  0.2278 -0.0884  0.2768
  889MOL0     N19930   5.106   3.087   8.350 -0.1388  0.2047  0.1115
  889MOL0     N19931   5.050   2.974   8.348  0.0403 -0.1190  0.0819
  889MOL0     C19932   5.062   2.211   7.338  0.1103 -0.5856 -0.4782
  889MOL0     C19933   5.169   2.136   7.298 -0.8401  1.1825  0.2811
  889MOL0     C19934   5.624   2.057   7.261  0.6953  0.4959  0.4423
  889MOL0     C19935   5.668   1.921   7.230 -0.0305  0.2357 -0.5073
  889MOL0     C19936   5.799   1.898   7.194 -0.0752 -0.3610 -0.6114
  889MOL0     C19937   5.883   2.006   7.187  0.0639 -0.3487 -0.1825
  889MOL0     O19938   6.020   2.015   7.158 -0.8956  0.4739 -0.1829
  889MOL0     C19939   6.092   1.890   7.154 -0.0096  0.3035  0.2137
  889MOL0     C19940   6.242   1.900   7.108  0.6489 -0.3391  0.8606
  889MOL0     C19941   6.325   2.005   7.177  0.6941  0.3346  0.2816
  889MOL0     C19942   6.356   1.959   7.324  0.2486 -0.3415  0.1251
  889MOL0     C19943   6.430   1.835   7.329  0.0109 -0.3526  0.2636
  889MOL0     C19944   6.465   1.722   7.350  0.8267  0.1520 -0.2205
  889MOL0     C19945   5.839   2.131   7.219 -0.6173 -0.5046  0.5872
  889MOL0     C19946   5.717   2.158   7.266  0.6315 -0.6570  0.4475
  889MOL0     C19947   5.673   2.289   7.330 -0.5383 -0.1199  0.6357
  889MOL0     H19948   5.394   2.385   7.312  1.9788 -3.7310 -1.0466
  889MOL0     H19949   5.212   2.504   7.402  0.5859  2.7735 -3.5225
  889MOL0     H19950   4.784   2.439   7.495  0.6073  1.1381  0.6876
  889MOL0     H19951   4.822   2.275   7.454 -1.3620  0.1030  1.3111
  889MOL0     H19952   4.963   2.256   7.641 -2.4607 -1.7169 -2.0218
  889MOL0     H19953   4.807   2.318   7.704 -0.1430  0.5900  0.6603
  889MOL0     H19954   4.903   2.546   7.679  1.1649  0.2446 -1.2254
  889MOL0     H19955   5.061   2.494   7.666 -0.9192  0.9957  0.4311
  889MOL0     H19956   4.900   2.415   7.911 -1.3990  1.4955 -1.1217
  889MOL0     H19957   5.078   2.393   7.884  1.6187  0.6236 -0.4577
  889MOL0     H19958   5.117   2.636   7.863  0.1307  0.5076  0.8844
  889MOL0     H19959   4.950   2.670   7.894 -0.0677  0.8237  1.3675
  889MOL0     H19960   4.971   2.543   8.114 -2.0477  1.7059 -0.6023
  889MOL0     H19961   5.151   2.544   8.089  1.7317  2.5278  1.2582
  889MOL0     H19962   4.975   2.781   8.100  0.0688 -1.1714 -1.9331
  889MOL0     H19963   5.145   2.777   8.061  1.2647 -0.0434  1.5928
  889MOL0     H19964   5.039   2.706   8.333  1.7164 -0.0076  1.5199
  889MOL0     H19965   5.202   2.681   8.290 -0.3028 -0.1083  2.9460
  889MOL0     H19966   5.341   2.895   8.225  1.0429  2.8858 -1.7628
  889MOL0     H19967   5.395   3.166   8.198 -0.5762 -3.9075  1.0710
  889MOL0     H19968   5.273   3.280   8.251 -1.0789 -0.4819 -1.0728
  889MOL0     H19969   5.500   3.158   8.408 -1.7137 -2.2085 -0.7853
  889MOL0     H19970   5.477   3.321   8.358 -1.8192 -0.1738 -2.2048
  889MOL0     H19971   5.296   3.159   8.547 -0.0391 -0.0790 -1.4576
  889MOL0     H19972   5.274   3.324   8.533 -2.1266 -2.0102  0.9271
  889MOL0     H19973   5.509   3.170   8.644 -2.3690 -1.4970 -0.2297
  889MOL0     H19974   5.413   3.287   8.733  0.7371 -1.2817  0.6970
  889MOL0     H19975   5.625   3.287   8.831 -0.5759  0.6161  0.8739
  889MOL0     H19976   5.853   3.249   8.924  1.0388  1.7217 -0.4218
  889MOL0     H19977   6.249   3.485   8.952 -1.6865 -1.2005 -1.5707
  889MOL0     H19978   6.489   3.473   9.037 -1.3343  1.6527 -5.4997
  889MOL0     H19979   6.712   3.410   9.036  0.7397  0.5255  0.1831
  889MOL0     H19980   6.669   3.416   9.217  1.5259 -1.2845  0.8480
  889MOL0     H19981   6.907   3.383   9.204 -1.1544  1.4051 -1.5752
  889MOL0     H19982   6.823   3.234   9.255 -0.3658 -0.7118 -0.5175
  889MOL0     H19983   6.826   3.150   9.028  2.6382 -1.2911 -2.6806
  889MOL0     H19984   6.892   3.288   8.956  1.9510  0.7019  0.0373
  889MOL0     H19985   7.048   3.114   9.156 -0.8886 -0.2584 -0.2707
  889MOL0     H19986   7.105   3.264   9.071 -0.2996  0.1844  1.9906
  889MOL0     H19987   7.110   3.140   8.852  1.1523 -1.0052  0.1599
  889MOL0     H19988   6.983   3.030   8.920  0.3054 -1.2718 -2.5322
  889MOL0     H19989   7.266   3.049   9.033 -1.0872 -0.3632  3.1917
  889MOL0     H19990   7.140   2.922   9.044 -1.5657  1.2765  0.0957
  889MOL0     H19991   7.172   2.895   8.792 -0.0451 -0.6909  0.0384
  889MOL0     H19992   7.308   2.839   8.896  0.0912 -1.6570 -1.6866
  889MOL0     H19993   7.409   2.931   8.715 -0.5546 -1.6252  0.6541
  889MOL0     H19994   7.324   3.082   8.729 -2.4041 -1.3321 -1.4898
  889MOL0     H19995   6.458   3.051   9.106 -0.5591 -1.4191 -1.7689
  889MOL0     H19996   6.230   3.055   9.028  1.3811 -0.7455 -0.4713
  889MOL0     H19997   6.008   3.403   8.554  1.2980 -1.2357  0.8142
  889MOL0     H19998   5.782   3.443   8.464  1.4733  1.6408  0.9672
  889MOL0     H19999   4.963   2.168   7.336 -0.5722  0.9191 -2.1064
  889MOL0     H20000   5.162   2.031   7.271 -2.2485  1.9429 -2.7730
  889MOL0     H20001   5.592   1.844   7.225  0.1384  0.0824 -0.7417
  889MOL0     H20002   5.839   1.799   7.180  0.4325 -0.3181  0.4501
  889MOL0     H20003   6.036   1.830   7.082 -0.8079  1.5493 -0.2370
  889MOL0     H20004   6.091   1.832   7.246 -0.9662 -1.3059 -0.7738
  889MOL0     H20005   6.236   1.946   7.009 -1.8542  0.0136  1.1015
  889MOL0     H20006   6.299   1.807   7.104  2.1000  0.5680 -1.0548
  889MOL0     H20007   6.272   2.100   7.187  0.3813  0.1684  0.2174
  889MOL0     H20008   6.420   2.022   7.124 -0.0680 -2.1785 -2.1210
  889MOL0     H20009   6.417   2.037   7.369 -2.2452  3.2716 -2.2146
  889MOL0     H20010   6.259   1.952   7.375 -0.5485  0.3596 -1.2329
  889MOL0     H20011   6.479   1.617   7.369 -1.5484 -0.1447  0.3304
  889MOL0     H20012   5.913   2.208   7.199 -1.4084  0.1758  0.2144
  889MOL0     H20013   5.587   2.314   7.266 -0.0584  1.5255  0.5999
  889MOL0     H20014   5.640   2.284   7.434 -0.1959  2.3363  0.9073
  889MOL0     H20015   5.752   2.362   7.314  0.6467 -2.0053 -3.6820
  890MOL0     O20016   7.159   8.123   4.360 -0.3099  0.3193 -0.3370
  890MOL0     C20017   7.239   8.208   4.391 -0.3410 -0.3584  0.2298
  890MOL0     O20018   7.365   8.202   4.353 -0.3569  0.3927 -0.0693
  890MOL0     C20019   7.453   8.269   4.435 -0.6967 -0.2529 -0.2936
  890MOL0     C20020   7.530   8.361   4.366  0.2711  0.2160 -0.0838
  890MOL0     C20021   7.626   8.438   4.434 -1.0804 -0.2955 -0.1693
  890MOL0     C20022   7.659   8.413   4.567  0.5894 -0.1882  0.0490
  890MOL0     O20023   7.773   8.458   4.624  0.0967 -0.0433  0.0330
  890MOL0     C20024   7.893   8.442   4.541 -0.1101  0.3001  0.2457
  890MOL0     C20025   8.020   8.458   4.626 -0.6108 -0.4341 -0.6467
  890MOL0     C20026   8.101   8.587   4.589 -0.3407  0.0141  0.6002
  890MOL0     C20027   8.181   8.559   4.465  0.5514  0.0040  1.3240
  890MOL0     C20028   8.255   8.683   4.426 -0.2207  0.4298  0.9387
  890MOL0     C20029   8.329   8.662   4.296 -0.3827  0.7035 -0.0796
  890MOL0     C20030   8.243   8.675   4.164  0.8813 -0.6071 -0.3996
  890MOL0     C20031   8.321   8.646   4.044 -1.0814  0.2818 -0.0719
  890MOL0     N20032   8.443   8.725   4.024 -0.0032  0.1197 -0.5694
  890MOL0     C20033   8.482   8.839   4.083  0.1990 -0.5860  0.2607
  890MOL0     C20034   8.607   8.848   4.042  0.4779  0.3163  0.0905
  890MOL0     C20035   8.699   8.965   4.058 -0.6213  0.1009  0.4799
  890MOL0     C20036   8.839   8.951   4.003 -0.8893  0.4915  0.0324
  890MOL0     C20037   8.905   9.088   3.998  0.7223  0.8887 -0.1641
  890MOL0     C20038   9.039   9.093   3.930 -0.2539 -0.4515  0.2314
  890MOL0     O20039   9.097   9.233   3.934  0.4223  0.3854 -0.9128
  890MOL0     C20040   9.225   9.248   3.893  0.2863 -0.4849  1.1524
  890MOL0     C20041   9.323   9.148   3.906 -0.1295 -0.1104  1.1914
  890MOL0     C20042   9.457   9.172   3.884  0.3347 -1.2736 -0.0698
  890MOL0     C20043   9.497   9.294   3.835 -0.6240  0.7877 -0.1705
  890MOL0     C20044   9.644   9.317   3.797 -0.3563 -0.4296  0.2453
  890MOL0     O20045   9.746   9.224   3.841  0.4257  0.2299  0.1961
  890MOL0     C20046   9.876   9.238   3.789  0.8104  0.4377 -0.6817
  890MOL0     C20047   9.905   9.295   3.660 -0.1379  0.4079  0.1995
  890MOL0     C20048  10.035   9.323   3.621  0.1016 -0.1225  0.4844
  890MOL0     C20049  10.141   9.281   3.692 -1.2081  0.7186 -0.2154
  890MOL0     O20050  10.274   9.281   3.650 -0.4383 -0.5157 -0.7360
  890MOL0     C20051  10.297   9.360   3.536 -0.0268 -0.1577  0.0382
  890MOL0     C20052  10.441   9.412   3.538 -0.4683 -0.4874  0.0491
  890MOL0     C20053  10.545   9.309   3.512  0.1402 -0.0201  0.4213
  890MOL0     C20054  10.671   9.335   3.584 -0.3161  0.0874 -0.8238
  890MOL0     C20055  10.775   9.231   3.607  0.7229  0.8157 -0.0778
  890MOL0     C20056  10.924   9.268   3.616 -0.1233 -0.7760 -1.3356
  890MOL0     C20057  11.016   9.153   3.620 -0.1760 -0.2721 -0.2069
  890MOL0     C20058  11.157   9.185   3.625  0.1445  0.7224  0.2111
  890MOL0    Cl20059  11.227   9.282   3.491  0.7848 -0.3451  0.5077
  890MOL0     C20060  10.117   9.224   3.821 -0.8948  0.8266  0.4226
  890MOL0     C20061   9.989   9.201   3.867 -0.6553  0.2766  0.4749
  890MOL0     O20062   9.668   9.419   3.729  1.0929  0.0265  0.1335
  890MOL0     C20063   9.396   9.395   3.814 -1.2977  0.3360  0.0064
  890MOL0     C20064   9.264   9.372   3.847  0.7024  0.1353 -0.2845
  890MOL0     N20065   8.629   8.747   3.953 -1.0695  0.7910 -0.1224
  890MOL0     N20066   8.530   8.669   3.948 -0.8643 -0.3200 -1.0541
  890MOL0     C20067   7.584   8.319   4.638 -0.7957 -0.1572  0.4619
  890MOL0     C20068   7.480   8.247   4.568 -0.2445 -0.5732 -0.7490
  890MOL0     C20069   7.188   8.331   4.460  0.0869 -0.0335 -0.7747
  890MOL0     C20070   7.214   8.457   4.410 -0.8910  0.5688  0.4040
  890MOL0     C20071   7.184   8.577   4.479 -0.0356 -0.0969 -0.3722
  890MOL0     C20072   7.096   8.576   4.591 -0.7562 -0.1358 -1.0308
  890MOL0     O20073   7.055   8.679   4.664 -0.6235 -0.0692 -0.7040
  890MOL0     C20074   7.072   8.822   4.618  0.8804 -0.1255  0.0863
  890MOL0     C20075   6.987   8.857   4.495  0.3115  0.5538  0.2777
  890MOL0     C20076   6.843   8.822   4.526 -0.1661 -0.2875 -0.1991
  890MOL0     C20077   6.759   8.940   4.458 -0.6924  0.1322 -0.3815
  890MOL0     C20078   6.617   8.903   4.446  0.5202  0.3223 -0.2513
  890MOL0     C20079   6.510   8.856   4.434 -0.2586 -0.4734  0.4714
  890MOL0     C20080   7.052   8.444   4.637  0.1613  0.0926 -0.6442
  890MOL0     C20081   7.102   8.327   4.578  0.0089  0.1101  0.3054
  890MOL0     C20082   7.068   8.196   4.638 -0.1764 -0.2690 -0.1143
  890MOL0     H20083   7.513   8.384   4.261  0.6488  3.1545  0.4259
  890MOL0     H20084   7.681   8.502   4.366  0.0533 -0.2630  0.7331
  890MOL0     H20085   7.889   8.338   4.509 -1.8598  1.1435 -2.6685
  890MOL0     H20086   7.894   8.512   4.457 -2.6427 -1.6658 -1.5935
  890MOL0     H20087   8.084   8.370   4.616 -1.8334 -1.2132 -1.8487
  890MOL0     H20088   7.995   8.449   4.733  1.4008 -0.7685 -0.1683
  890MOL0     H20089   8.176   8.604   4.667  0.6471 -0.9299 -0.1215
  890MOL0     H20090   8.040   8.678   4.579 -0.6496 -0.1271  1.1746
  890MOL0     H20091   8.263   8.487   4.475  0.3700 -0.7111 -1.5312
  890MOL0     H20092   8.116   8.529   4.383  0.4033  1.1916  0.9911
  890MOL0     H20093   8.192   8.773   4.420 -2.1297 -0.9147 -3.3705
  890MOL0     H20094   8.321   8.707   4.510 -0.6834  0.5537  1.2695
  890MOL0     H20095   8.410   8.735   4.303  1.6220 -1.5380  2.7490
  890MOL0     H20096   8.383   8.566   4.290 -0.5982  0.6244 -1.0329
  890MOL0     H20097   8.200   8.775   4.153  2.2339 -0.1376 -1.8868
  890MOL0     H20098   8.159   8.606   4.175 -1.1651  1.9701  1.1711
  890MOL0     H20099   8.349   8.541   4.059 -3.7673 -0.6954 -1.3427
  890MOL0     H20100   8.257   8.656   3.956 -1.9220  0.8093  0.5920
  890MOL0     H20101   8.437   8.911   4.150 -1.1814 -1.3352  0.1599
  890MOL0     H20102   8.651   9.051   4.011 -1.4394 -0.3202  0.5210
  890MOL0     H20103   8.706   8.990   4.164 -0.1495  0.1056  0.4514
  890MOL0     H20104   8.906   8.897   4.069 -1.2786 -0.5140 -0.3806
  890MOL0     H20105   8.835   8.904   3.904 -2.1139 -2.3988  1.3557
  890MOL0     H20106   8.918   9.120   4.102 -0.4484 -0.2628  0.3610
  890MOL0     H20107   8.835   9.154   3.946  1.7537  1.1223 -1.3087
  890MOL0     H20108   9.012   9.060   3.830 -0.2353 -1.0850  0.4273
  890MOL0     H20109   9.100   9.015   3.977  0.7190  1.2178  1.9181
  890MOL0     H20110   9.285   9.051   3.938 -2.1941 -0.5279 -2.0369
  890MOL0     H20111   9.530   9.093   3.900  0.3794 -1.2767 -0.2871
  890MOL0     H20112   9.834   9.343   3.593 -1.1521  0.7325  1.4572
  890MOL0     H20113  10.040   9.369   3.523  0.1148 -0.2316  0.4337
  890MOL0     H20114  10.267   9.309   3.444  0.8626 -2.0813  0.7582
  890MOL0     H20115  10.236   9.451   3.542 -0.8167 -0.6648 -0.2008
  890MOL0     H20116  10.453   9.491   3.462  3.4199 -0.4412  0.5266
  890MOL0     H20117  10.465   9.457   3.635 -0.0841  0.9404 -0.6789
  890MOL0     H20118  10.507   9.214   3.550  1.2265  0.4935  3.0172
  890MOL0     H20119  10.562   9.292   3.406  0.8959 -0.9438  0.6805
  890MOL0     H20120  10.645   9.374   3.684 -1.5295  0.5270 -1.2890
  890MOL0     H20121  10.716   9.423   3.538 -0.4941  1.0111  0.6721
  890MOL0     H20122  10.761   9.161   3.524 -0.4677  0.6753  0.2217
  890MOL0     H20123  10.751   9.173   3.697 -0.0450 -0.5405 -1.1165
  890MOL0     H20124  10.941   9.343   3.539  3.5781 -0.1109 -0.0721
  890MOL0     H20125  10.937   9.321   3.711  0.6157 -1.1134 -1.2407
  890MOL0     H20126  10.993   9.100   3.527  0.0956 -0.7784  0.0062
  890MOL0     H20127  10.991   9.091   3.707 -2.8815 -0.5901 -1.1257
  890MOL0     H20128  11.164   9.241   3.719 -0.4042  2.6981 -0.8784
  890MOL0     H20129  11.214   9.092   3.632 -3.8196 -1.9640 -0.1294
  890MOL0     H20130  10.203   9.188   3.876 -1.3869  1.4784  1.6408
  890MOL0     H20131   9.976   9.158   3.966 -2.7722  0.8788  0.5245
  890MOL0     H20132   9.430   9.486   3.766 -0.4890 -0.5111 -1.0738
  890MOL0     H20133   9.192   9.452   3.831  0.7150  0.0323 -0.9049
  890MOL0     H20134   7.598   8.293   4.743 -0.9747 -2.3043  0.0030
  890MOL0     H20135   7.417   8.179   4.624 -2.0475  0.4970 -1.3632
  890MOL0     H20136   7.278   8.462   4.322 -1.4298  2.2989  0.0617
  890MOL0     H20137   7.242   8.661   4.441  0.1067 -0.7975 -1.7664
  890MOL0     H20138   7.180   8.825   4.600  0.6973 -0.9413 -1.2471
  890MOL0     H20139   7.055   8.905   4.688  0.1948  0.8488 -1.2016
  890MOL0     H20140   7.021   8.814   4.401  1.0659 -2.0758  1.6510
  890MOL0     H20141   7.001   8.965   4.483 -1.9483  0.7383 -1.2842
  890MOL0     H20142   6.827   8.821   4.634 -0.2953  0.0649 -0.2144
  890MOL0     H20143   6.815   8.720   4.497  0.8168 -0.1618 -1.7032
  890MOL0     H20144   6.763   9.034   4.513 -0.6605 -0.2542  0.2825
  890MOL0     H20145   6.793   8.955   4.355  1.1425  0.2132  0.2128
  890MOL0     H20146   6.414   8.809   4.424  0.5488 -2.3806  1.0851
  890MOL0     H20147   6.978   8.424   4.714  1.3663 -1.8637  0.0876
  890MOL0     H20148   6.987   8.214   4.710 -0.4281  1.4946 -0.7946
  890MOL0     H20149   7.032   8.136   4.554  1.2590 -2.1290  0.5305
  890MOL0     H20150   7.153   8.144   4.684 -0.8852 -1.1070  0.2833
  891MOL0     O20151   9.227   0.604   0.029 -0.0008 -0.2869 -0.6114
  891MOL0     C20152   9.191   0.634  -0.082  1.3945  1.0965  0.0431
  891MOL0     O20153   9.234   0.742  -0.152 -0.3217 -0.2301  0.0812
  891MOL0     C20154   9.328   0.830  -0.098 -0.3873  0.2256  0.3932
  891MOL0     C20155   9.308   0.902   0.023 -0.7554  0.0511 -0.2924
  891MOL0     C20156   9.411   0.980   0.077  0.5811  0.4282  0.4352
  891MOL0     C20157   9.533   0.999   0.014  0.8257  0.6726 -0.1170
  891MOL0     O20158   9.630   1.073   0.084 -0.2838 -0.1928  0.1364
  891MOL0     C20159   9.758   1.086   0.012  0.4050  0.3938 -0.4218
  891MOL0     C20160   9.849   1.173   0.113 -0.2177 -0.1530  0.4229
  891MOL0     C20161   9.993   1.173   0.064  0.4655  0.8176  0.3780
  891MOL0     C20162  10.072   1.295   0.120  0.2343  0.7905 -0.8408
  891MOL0     C20163  10.213   1.308   0.069 -0.3681  0.0869 -0.6117
  891MOL0     C20164  10.277   1.450   0.077  1.5989  0.0280  0.1143
  891MOL0     C20165  10.423   1.445   0.020 -1.1422 -0.0379  0.5002
  891MOL0     C20166  10.513   1.352   0.102 -0.0623  0.7173  0.0494
  891MOL0     N20167  10.651   1.410   0.113  0.5674  0.5045 -0.3373
  891MOL0     C20168  10.692   1.513   0.189  0.3302  0.4794  0.0435
  891MOL0     C20169  10.828   1.513   0.189 -0.0473 -0.1438 -0.0146
  891MOL0     C20170  10.921   1.588   0.277 -0.0039  1.0201 -0.1071
  891MOL0     C20171  10.999   1.681   0.181 -0.0486  0.0263  0.2975
  891MOL0     C20172  11.073   1.785   0.262 -0.0711  0.6631  0.5861
  891MOL0     C20173  11.199   1.754   0.344 -0.3270 -0.4652 -0.8076
  891MOL0     O20174  11.307   1.721   0.260 -0.3451  0.3338  0.7681
  891MOL0     C20175  11.412   1.661   0.322 -0.0750  0.5090  0.4399
  891MOL0     C20176  11.419   1.525   0.355 -0.9411 -0.2285 -0.5071
  891MOL0     C20177  11.534   1.472   0.423  0.3726 -0.9065 -0.5691
  891MOL0     C20178  11.630   1.560   0.472 -0.7586 -0.3470 -0.7629
  891MOL0     C20179  11.752   1.510   0.540  0.2274  0.2609  0.3025
  891MOL0     O20180  11.854   1.598   0.539 -0.5152 -0.5297 -0.5287
  891MOL0     C20181  11.981   1.574   0.571 -1.1081 -0.0279  1.1396
  891MOL0     C20182  12.023   1.643   0.676  0.4274 -0.4172  1.0820
  891MOL0     C20183  12.160   1.643   0.709  0.2438 -0.3278  0.1383
  891MOL0     C20184  12.253   1.572   0.633  1.0726 -0.1921  0.1712
  891MOL0     O20185  12.381   1.567   0.679  0.2594  0.2639 -0.3704
  891MOL0     C20186  12.484   1.528   0.588 -0.8913 -1.0486  0.2587
  891MOL0     C20187  12.628   1.539   0.643 -0.0327 -0.0207 -0.1687
  891MOL0     C20188  12.735   1.460   0.561 -0.6842  0.7205 -1.2099
  891MOL0     C20189  12.879   1.485   0.606 -0.1395 -0.4971  0.0041
  891MOL0     C20190  12.924   1.461   0.752 -0.0567 -0.1153  0.6126
  891MOL0     C20191  13.065   1.517   0.783 -0.4183  0.7271 -0.5734
  891MOL0     C20192  13.164   1.395   0.750  0.5405 -0.6425 -0.3609
  891MOL0     C20193  13.296   1.441   0.821  0.9931 -0.1198  0.3365
  891MOL0    Cl20194  13.400   1.296   0.813 -0.2564  0.0812  0.3326
  891MOL0     C20195  12.205   1.501   0.521  0.4255  0.2298  0.3356
  891MOL0     C20196  12.068   1.495   0.484  0.4527 -0.2163 -0.9406
  891MOL0     O20197  11.764   1.389   0.557 -0.4956 -0.3202  0.6988
  891MOL0     C20198  11.621   1.700   0.439  0.6378  0.0433 -0.2444
  891MOL0     C20199  11.512   1.742   0.368 -0.1037 -0.1658 -0.0600
  891MOL0     N20200  10.863   1.421   0.091  0.3015 -0.0041 -0.1461
  891MOL0     N20201  10.756   1.365   0.036  0.2289 -0.0006  0.1369
  891MOL0     C20202   9.552   0.934  -0.105  0.2711 -0.6823  0.2215
  891MOL0     C20203   9.451   0.849  -0.160 -0.2964 -0.2984  0.2481
  891MOL0     C20204   9.098   0.546  -0.163 -0.1649 -0.0338 -0.6006
  891MOL0     C20205   9.086   0.568  -0.304  0.3490  0.3759  0.0818
  891MOL0     C20206   8.990   0.496  -0.371 -0.0430  0.3923 -0.1183
  891MOL0     C20207   8.911   0.399  -0.308 -0.7115 -0.4234 -0.2076
  891MOL0     O20208   8.809   0.358  -0.384 -0.1012  0.2750 -0.3341
  891MOL0     C20209   8.703   0.281  -0.329  0.0144  0.2438  0.3268
  891MOL0     C20210   8.599   0.244  -0.443  0.8323 -0.8699  0.0087
  891MOL0     C20211   8.552   0.368  -0.520  0.4306 -0.4584  0.2738
  891MOL0     C20212   8.400   0.374  -0.558 -0.3192  0.0667  0.5528
  891MOL0     C20213   8.373   0.257  -0.643  1.0762 -0.1361 -0.0547
  891MOL0     C20214   8.347   0.154  -0.704  0.1697 -0.5891  0.9166
  891MOL0     C20215   8.919   0.375  -0.166 -0.9507 -0.2977  0.6523
  891MOL0     C20216   9.008   0.457  -0.097 -0.1172 -0.4366 -0.4025
  891MOL0     C20217   9.015   0.433   0.058 -0.3737  0.1459  0.2056
  891MOL0     H20218   9.212   0.886   0.070 -0.1870  1.5671  1.4700
  891MOL0     H20219   9.401   1.034   0.171 -1.6114 -2.4398  2.0176
  891MOL0     H20220   9.788   0.981   0.005  0.7011  0.3079  1.6009
  891MOL0     H20221   9.750   1.130  -0.088  0.1160  1.2857 -0.0126
  891MOL0     H20222   9.851   1.151   0.220  3.3114  0.9084  0.6822
  891MOL0     H20223   9.807   1.274   0.117 -1.3835 -0.5994  0.0426
  891MOL0     H20224  10.003   1.178  -0.045 -0.8968 -0.9316  0.1175
  891MOL0     H20225  10.047   1.084   0.095 -0.6948  0.3937  1.2691
  891MOL0     H20226  10.017   1.388   0.103 -0.3557  0.3120 -1.6198
  891MOL0     H20227  10.074   1.295   0.230  3.3468  0.3680 -0.8033
  891MOL0     H20228  10.279   1.231   0.111 -0.8798  0.1086  0.2636
  891MOL0     H20229  10.217   1.290  -0.039 -1.5858 -2.7284 -0.2614
  891MOL0     H20230  10.208   1.511   0.018  1.6117 -0.5512 -0.5104
  891MOL0     H20231  10.260   1.486   0.178 -0.1637 -0.8340  0.1489
  891MOL0     H20232  10.450   1.551   0.023  1.4138 -0.5941 -0.3035
  891MOL0     H20233  10.428   1.413  -0.084  1.4293  1.2225  0.1478
  891MOL0     H20234  10.481   1.359   0.206 -0.2429  2.1394 -0.0815
  891MOL0     H20235  10.517   1.252   0.059  3.3498  0.9963 -0.5392
  891MOL0     H20236  10.634   1.582   0.250  2.6106  0.1935  2.7606
  891MOL0     H20237  10.868   1.644   0.355  2.6822  2.3896  0.8612
  891MOL0     H20238  10.985   1.515   0.327  0.3243  1.0987 -0.4088
  891MOL0     H20239  11.077   1.619   0.134 -0.0099 -0.7528  1.3536
  891MOL0     H20240  10.937   1.729   0.105  0.1581 -1.1224 -0.6404
  891MOL0     H20241  10.991   1.826   0.321 -1.1612 -0.6411  0.0363
  891MOL0     H20242  11.098   1.866   0.192 -1.7143 -0.3179 -1.2443
  891MOL0     H20243  11.179   1.671   0.412  2.7512 -1.4685 -0.9612
  891MOL0     H20244  11.227   1.844   0.400 -0.6636 -0.8779  0.0497
  891MOL0     H20245  11.347   1.448   0.329 -0.0068 -1.0086 -0.8546
  891MOL0     H20246  11.532   1.365   0.441 -2.6829 -1.0721 -1.2767
  891MOL0     H20247  11.942   1.686   0.735 -1.3331 -0.8115 -0.9383
  891MOL0     H20248  12.191   1.692   0.800  0.3171  0.8626 -0.5012
  891MOL0     H20249  12.476   1.426   0.549  2.0762 -0.3938 -2.5245
  891MOL0     H20250  12.486   1.607   0.512 -0.9139 -0.3735  0.9466
  891MOL0     H20251  12.657   1.644   0.653  2.2344 -0.6841  0.7832
  891MOL0     H20252  12.629   1.498   0.745 -1.0074  1.5722  0.5261
  891MOL0     H20253  12.709   1.354   0.563 -0.9081  0.7796  0.4383
  891MOL0     H20254  12.733   1.489   0.456 -0.5324 -2.0686 -2.0635
  891MOL0     H20255  12.905   1.589   0.585  0.4937 -0.6667 -0.0570
  891MOL0     H20256  12.945   1.428   0.540  0.6438  0.4505 -0.0498
  891MOL0     H20257  12.911   1.356   0.781 -0.6135 -1.1768 -2.9613
  891MOL0     H20258  12.856   1.517   0.817 -0.6369 -0.2504  0.1427
  891MOL0     H20259  13.090   1.597   0.713  1.0301 -0.7841 -1.8680
  891MOL0     H20260  13.070   1.551   0.887  1.0321 -0.8090 -0.0937
  891MOL0     H20261  13.196   1.374   0.647  5.0109 -0.2882  0.7521
  891MOL0     H20262  13.123   1.297   0.776 -1.9785 -0.1445 -2.0308
  891MOL0     H20263  13.331   1.538   0.784 -1.2657  0.8341  0.4789
  891MOL0     H20264  13.278   1.445   0.929  0.5878 -0.9354  0.3066
  891MOL0     H20265  12.278   1.445   0.463  0.5063  0.8769 -0.1998
  891MOL0     H20266  12.026   1.445   0.397  1.5760 -0.3140 -1.4530
  891MOL0     H20267  11.703   1.766   0.466  1.0512  0.2970 -1.9832
  891MOL0     H20268  11.499   1.847   0.344  1.1232 -0.1416 -0.6590
  891MOL0     H20269   9.643   0.946  -0.162 -0.9675  6.0534 -1.1987
  891MOL0     H20270   9.469   0.801  -0.256 -0.2319 -4.1465  1.9828
  891MOL0     H20271   9.143   0.638  -0.364 -0.7982  1.8050  0.5772
  891MOL0     H20272   8.958   0.519  -0.472  1.1089  1.7272 -0.2148
  891MOL0     H20273   8.645   0.324  -0.246 -1.8017 -3.4751  1.2081
  891MOL0     H20274   8.745   0.189  -0.288 -0.7248  0.4771  1.6607
  891MOL0     H20275   8.522   0.186  -0.391 -1.6526 -0.6623 -3.1264
  891MOL0     H20276   8.640   0.170  -0.513 -0.2560 -0.8196 -0.7112
  891MOL0     H20277   8.619   0.386  -0.605  0.4372 -0.5123  0.2675
  891MOL0     H20278   8.568   0.459  -0.461  0.6650 -0.7796  0.7039
  891MOL0     H20279   8.341   0.383  -0.467  0.5365 -3.5560  1.6287
  891MOL0     H20280   8.380   0.461  -0.620 -0.1751 -1.7869 -2.3088
  891MOL0     H20281   8.337   0.061  -0.755  0.8530  0.2856 -0.8908
  891MOL0     H20282   8.849   0.310  -0.115 -2.9498  1.2691  0.0328
  891MOL0     H20283   8.977   0.518   0.116  1.1584  0.8330  0.2643
  891MOL0     H20284   8.958   0.342   0.081  1.2164 -1.0577 -0.4247
  891MOL0     H20285   9.115   0.401   0.088 -0.2163  1.0353  0.6633
  892MOL0     O20286  11.175   0.585   8.637  0.3142 -0.9534  0.0899
  892MOL0     C20287  11.173   0.560   8.756 -0.0466  0.5777 -0.0080
  892MOL0     O20288  11.285   0.523   8.824 -0.1479 -0.6863  0.5063
  892MOL0     C20289  11.413   0.551   8.776 -0.1860 -0.3237 -0.4686
  892MOL0     C20290  11.510   0.446   8.777 -0.1410 -0.3834 -0.1558
  892MOL0     C20291  11.640   0.463   8.735 -0.4627  0.4809  0.1273
  892MOL0     C20292  11.682   0.592   8.693  0.0712  0.8672  1.2097
  892MOL0     O20293  11.810   0.633   8.662  0.2000  0.6105 -0.2949
  892MOL0     C20294  11.920   0.552   8.712  0.8183 -0.1150 -0.7923
  892MOL0     C20295  12.041   0.646   8.727 -0.3269  0.1681 -1.0362
  892MOL0     C20296  12.154   0.563   8.793  0.2346 -0.0920 -0.5152
  892MOL0     C20297  12.276   0.656   8.801 -0.6471  0.6726  0.1555
  892MOL0     C20298  12.378   0.579   8.886  0.3230 -1.3018  0.5159
  892MOL0     C20299  12.507   0.653   8.897  1.4333 -0.0902 -0.0180
  892MOL0     C20300  12.597   0.580   8.999  0.4981 -0.3544 -0.7121
  892MOL0     C20301  12.739   0.657   8.987  0.0544 -0.3573 -0.2199
  892MOL0     N20302  12.828   0.627   9.100  0.3160 -0.4558 -0.2175
  892MOL0     C20303  12.931   0.535   9.090 -0.1208 -0.8383 -0.4733
  892MOL0     C20304  12.960   0.521   9.223 -0.1963 -0.0414  0.5963
  892MOL0     C20305  13.071   0.422   9.264  0.7128 -0.5071  0.3967
  892MOL0     C20306  13.195   0.485   9.293 -0.4352 -0.8039 -0.5083
  892MOL0     C20307  13.193   0.598   9.390  0.1489 -0.0183  0.3772
  892MOL0     C20308  13.321   0.625   9.481 -0.4432 -0.2957 -0.0611
  892MOL0     O20309  13.452   0.594   9.409 -0.2521 -0.3113  0.1554
  892MOL0     C20310  13.541   0.534   9.488  0.3213 -0.1894 -0.0682
  892MOL0     C20311  13.609   0.420   9.442 -0.3685 -0.1606  0.3014
  892MOL0     C20312  13.705   0.357   9.521  0.2783  0.0809 -0.9358
  892MOL0     C20313  13.748   0.417   9.639 -0.8925  0.4220 -0.2062
  892MOL0     C20314  13.879   0.378   9.713 -0.4673  0.1651  0.2509
  892MOL0     O20315  13.956   0.480   9.764 -0.3018  0.1480 -0.2548
  892MOL0     C20316  14.082   0.467   9.828  0.3024  0.3378 -0.4874
  892MOL0     C20317  14.106   0.373   9.926 -0.4250  0.6873  0.0886
  892MOL0     C20318  14.230   0.363   9.990 -0.1352 -0.9645  0.2170
  892MOL0     C20319  14.335   0.450   9.953 -0.8405 -0.5451 -0.2067
  892MOL0     O20320  14.452   0.430  10.022  0.1167 -0.0309  0.3833
  892MOL0     C20321  14.554   0.533  10.002 -0.3121  0.6239 -0.0161
  892MOL0     C20322  14.631   0.529  10.133 -0.0524 -0.4351 -0.0426
  892MOL0     C20323  14.560   0.606  10.244 -0.5266  0.6474  0.5319
  892MOL0     C20324  14.639   0.729  10.290  0.7022 -0.3626  0.1210
  892MOL0     C20325  14.563   0.796  10.397  0.6867 -0.5985 -1.0207
  892MOL0     C20326  14.657   0.899  10.464  1.1288  0.2522  0.1474
  892MOL0     C20327  14.693   1.020  10.379  0.0310  0.2999  0.1988
  892MOL0     C20328  14.788   1.111  10.459 -0.7650 -0.0879 -1.5116
  892MOL0    Cl20329  14.885   1.229  10.370  0.5448  0.5277  0.3023
  892MOL0     C20330  14.316   0.546   9.849 -0.4027  0.0775  0.4172
  892MOL0     C20331  14.186   0.551   9.791 -0.0030  0.6298 -0.1369
  892MOL0     O20332  13.922   0.262   9.684 -0.7561  0.0244  0.4204
  892MOL0     C20333  13.696   0.539   9.677  0.2793  0.8029  0.8312
  892MOL0     C20334  13.588   0.596   9.604 -0.1186  0.6555  0.0561
  892MOL0     N20335  12.885   0.602   9.303  0.2067 -0.2242  0.0199
  892MOL0     N20336  12.805   0.668   9.228  0.2749 -0.2987  0.3813
  892MOL0     C20337  11.584   0.698   8.682 -0.4281  0.1717 -0.0395
  892MOL0     C20338  11.457   0.677   8.728 -0.2969  0.0661  0.0106
  892MOL0     C20339  11.041   0.550   8.823 -0.0046  0.0925 -0.2939
  892MOL0     C20340  11.042   0.491   8.955  1.4298 -0.7702  0.2748
  892MOL0     C20341  10.925   0.465   9.018  0.3327 -0.9786  0.7197
  892MOL0     C20342  10.805   0.502   8.963 -0.1637 -0.6578  0.4833
  892MOL0     O20343  10.685   0.470   9.023  0.3733 -0.0898  0.2173
  892MOL0     C20344  10.560   0.533   8.984  0.2239  0.0358 -0.3696
  892MOL0     C20345  10.460   0.483   9.089 -0.0701  0.1972 -0.9912
  892MOL0     C20346  10.318   0.546   9.091  0.3132 -0.3789  1.1075
  892MOL0     C20347  10.289   0.648   9.209  1.0687  0.4240  0.3722
  892MOL0     C20348  10.371   0.767   9.182  0.3008  1.3607 -0.0237
  892MOL0     C20349  10.440   0.864   9.154 -0.3812 -0.0676 -0.4480
  892MOL0     C20350  10.806   0.585   8.847  0.4444  1.5420 -1.3155
  892MOL0     C20351  10.920   0.602   8.769  0.2988 -0.1639  0.0647
  892MOL0     C20352  10.917   0.683   8.642  0.3538  0.4287  0.2645
  892MOL0     H20353  11.483   0.355   8.830 -0.0409 -0.3714 -0.0843
  892MOL0     H20354  11.704   0.376   8.723 -0.9952  0.1737 -0.5230
  892MOL0     H20355  11.901   0.526   8.816  1.8980 -0.4475 -0.6679
  892MOL0     H20356  11.954   0.466   8.654  1.1326  0.2563 -1.1746
  892MOL0     H20357  12.023   0.724   8.802  2.4962 -1.1051  1.1644
  892MOL0     H20358  12.075   0.697   8.637  0.6074  2.0545  0.3006
  892MOL0     H20359  12.181   0.471   8.740 -3.6459 -1.3859 -0.5722
  892MOL0     H20360  12.124   0.535   8.895  1.6284  3.1797  0.9443
  892MOL0     H20361  12.320   0.678   8.704  0.8192  1.7988  1.0365
  892MOL0     H20362  12.254   0.749   8.853 -1.1083  0.4214  0.4223
  892MOL0     H20363  12.345   0.544   8.984  0.3398  0.2786  1.1161
  892MOL0     H20364  12.399   0.486   8.833  0.7973  0.1533 -1.9777
  892MOL0     H20365  12.551   0.652   8.797  3.0906  0.4747  0.6687
  892MOL0     H20366  12.485   0.754   8.932 -0.5001 -0.9894  1.5260
  892MOL0     H20367  12.610   0.474   8.977  1.1277 -0.5772  0.6658
  892MOL0     H20368  12.548   0.585   9.097 -1.1923 -1.3968 -1.4559
  892MOL0     H20369  12.792   0.661   8.891  1.9721  0.6529  0.8030
  892MOL0     H20370  12.729   0.766   8.990  2.6208 -0.0615 -0.0276
  892MOL0     H20371  12.974   0.478   9.008 -0.5895 -0.8972 -0.6795
  892MOL0     H20372  13.020   0.377   9.349 -0.8629 -1.2152 -0.8705
  892MOL0     H20373  13.078   0.351   9.181 -0.0765 -1.8032  1.3953
  892MOL0     H20374  13.273   0.416   9.327  0.6109  1.0328  1.0510
  892MOL0     H20375  13.230   0.525   9.197  1.4633 -1.3522 -0.0912
  892MOL0     H20376  13.104   0.585   9.453 -0.5958 -0.3959 -0.7143
  892MOL0     H20377  13.183   0.691   9.332  1.3607 -1.5032 -2.3878
  892MOL0     H20378  13.325   0.557   9.566  1.0176 -0.0441  0.0984
  892MOL0     H20379  13.317   0.725   9.526 -1.1574  0.2403 -1.2601
  892MOL0     H20380  13.576   0.383   9.346 -1.7664  0.5161  0.4962
  892MOL0     H20381  13.750   0.268   9.480  1.7007 -0.0838  0.8778
  892MOL0     H20382  14.025   0.305   9.949  0.6825 -1.2466 -1.4103
  892MOL0     H20383  14.247   0.302  10.078 -1.1195  1.9630  2.6038
  892MOL0     H20384  14.627   0.491   9.932  0.1705  0.0976  0.7925
  892MOL0     H20385  14.525   0.633   9.966 -0.9783  0.9948  1.4697
  892MOL0     H20386  14.621   0.427  10.171 -1.0040  0.0880  1.2158
  892MOL0     H20387  14.737   0.552  10.121 -0.2423 -0.1774 -1.2833
  892MOL0     H20388  14.457   0.605  10.208  0.1976  1.0886 -1.7097
  892MOL0     H20389  14.561   0.533  10.325  1.5788 -3.1772 -2.5819
  892MOL0     H20390  14.653   0.791  10.201 -1.0023 -1.2114 -0.7845
  892MOL0     H20391  14.742   0.708  10.320  1.6125  1.2590 -1.6424
  892MOL0     H20392  14.526   0.717  10.464  4.1433  0.1671  2.1513
  892MOL0     H20393  14.479   0.847  10.349  1.6705  0.8077 -1.2984
  892MOL0     H20394  14.602   0.937  10.550 -1.0112  0.5802 -1.2942
  892MOL0     H20395  14.753   0.850  10.482  0.2978 -1.7933 -0.6555
  892MOL0     H20396  14.602   1.071  10.345 -1.0073 -2.2135 -1.0179
  892MOL0     H20397  14.746   0.989  10.289 -0.4946 -0.6651  0.2098
  892MOL0     H20398  14.733   1.159  10.541  1.7162  2.3387 -1.1191
  892MOL0     H20399  14.868   1.050  10.503  0.1088 -0.3002 -3.2967
  892MOL0     H20400  14.399   0.604   9.810 -0.7602  0.1232 -0.2936
  892MOL0     H20401  14.149   0.614   9.711 -2.9008  0.9617  1.3646
  892MOL0     H20402  13.732   0.588   9.767  1.0444 -2.3333  2.3716
  892MOL0     H20403  13.552   0.694   9.634 -0.6616  0.3586  0.3990
  892MOL0     H20404  11.632   0.789   8.648 -0.1459 -0.0191 -0.1487
  892MOL0     H20405  11.404   0.772   8.729  0.1784  0.3517 -0.7962
  892MOL0     H20406  11.134   0.459   9.001  2.0570 -1.2290 -1.2538
  892MOL0     H20407  10.938   0.396   9.100 -1.7792 -0.5186  1.5056
  892MOL0     H20408  10.523   0.499   8.887  0.5711 -1.7654  0.1071
  892MOL0     H20409  10.578   0.641   8.991  2.1439 -0.3200  1.6149
  892MOL0     H20410  10.500   0.489   9.191  1.3567  0.8874 -1.5783
  892MOL0     H20411  10.445   0.378   9.062 -0.8474  0.0213  0.0292
  892MOL0     H20412  10.252   0.459   9.100  1.1545 -1.0612  0.8100
  892MOL0     H20413  10.297   0.600   8.998 -1.6439  0.5271  2.0159
  892MOL0     H20414  10.188   0.690   9.204  0.1846 -1.6632 -0.2017
  892MOL0     H20415  10.312   0.590   9.299 -0.2841 -0.7943 -0.0307
  892MOL0     H20416  10.495   0.951   9.125  0.1220 -0.3867 -0.4811
  892MOL0     H20417  10.712   0.629   8.816 -2.3054 -3.3202 -0.8461
  892MOL0     H20418  10.993   0.761   8.635  1.2141 -0.2767  1.3594
  892MOL0     H20419  10.938   0.619   8.556 -1.5477  1.1457 -0.8024
  892MOL0     H20420  10.822   0.737   8.635 -0.7126 -1.1329  1.6328
  893MOL0     O20421   4.180   4.555   2.686  0.2459  0.5303  0.2171
  893MOL0     C20422   4.106   4.519   2.595  0.6623  0.5081 -0.1568
  893MOL0     O20423   4.146   4.518   2.461 -0.0978 -0.2279  0.2098
  893MOL0     C20424   4.276   4.538   2.433  0.2646  0.7565 -0.6587
  893MOL0     C20425   4.362   4.427   2.430  0.7337 -0.2716  0.3376
  893MOL0     C20426   4.503   4.443   2.424  0.0757  0.7046 -0.1995
  893MOL0     C20427   4.551   4.578   2.398 -0.0466  0.7989 -0.7058
  893MOL0     O20428   4.684   4.607   2.369  0.6259  0.1965 -0.3107
  893MOL0     C20429   4.768   4.498   2.338  0.5914 -0.5525 -0.5040
  893MOL0     C20430   4.918   4.544   2.352  0.5708  0.4304 -0.1831
  893MOL0     C20431   4.960   4.657   2.248  0.7994  0.4605 -0.5587
  893MOL0     C20432   5.093   4.721   2.298 -0.1702 -0.4853 -0.8778
  893MOL0     C20433   5.140   4.833   2.199  0.0306 -0.9623  0.5181
  893MOL0     C20434   5.283   4.828   2.179  0.1982 -0.1040 -0.4574
  893MOL0     C20435   5.363   4.877   2.304  0.3806  1.0878  0.2114
  893MOL0     C20436   5.515   4.889   2.272 -1.1652 -0.2769 -0.1906
  893MOL0     N20437   5.612   4.874   2.383 -0.8684 -0.5546 -0.9968
  893MOL0     C20438   5.730   4.797   2.388  0.2060 -0.1783 -0.5225
  893MOL0     C20439   5.769   4.801   2.517 -0.0412 -0.5542  0.0959
  893MOL0     C20440   5.897   4.740   2.568 -0.0443  0.1136  0.9035
  893MOL0     C20441   6.017   4.795   2.502  0.1296 -0.3869 -0.2414
  893MOL0     C20442   6.144   4.730   2.566 -0.1305 -0.3598 -0.3065
  893MOL0     C20443   6.276   4.768   2.484  0.3051 -0.1470 -0.3823
  893MOL0     O20444   6.250   4.709   2.355  0.5481  0.2587 -0.9561
  893MOL0     C20445   6.354   4.686   2.274  0.4023 -0.4121  0.5494
  893MOL0     C20446   6.354   4.564   2.206  0.3859 -0.0532  0.1078
  893MOL0     C20447   6.461   4.522   2.132 -0.3390  0.1587 -0.0865
  893MOL0     C20448   6.581   4.604   2.113  0.3452  0.5187 -0.6273
  893MOL0     C20449   6.707   4.542   2.060 -0.2548  0.1065 -0.0079
  893MOL0     O20450   6.809   4.628   2.063 -0.3771  0.0779 -0.4377
  893MOL0     C20451   6.931   4.607   1.999  0.3333  0.5015 -0.1529
  893MOL0     C20452   7.011   4.715   1.984 -0.7737 -0.4971  1.1231
  893MOL0     C20453   7.140   4.704   1.925 -0.4149  0.5206 -0.3605
  893MOL0     C20454   7.181   4.588   1.868  0.3429  0.5808  0.8126
  893MOL0     O20455   7.300   4.598   1.800  0.5138 -0.2962  0.1867
  893MOL0     C20456   7.423   4.559   1.873  0.2623  0.5028 -0.2243
  893MOL0     C20457   7.524   4.502   1.766 -0.1846  0.0213 -0.2543
  893MOL0     C20458   7.619   4.395   1.832 -0.0973  0.0856  0.0570
  893MOL0     C20459   7.733   4.376   1.734 -0.0409  0.3380 -0.7362
  893MOL0     C20460   7.841   4.283   1.789  0.3432  0.2259 -0.3638
  893MOL0     C20461   7.979   4.270   1.708  0.9040 -0.1993 -0.0610
  893MOL0     C20462   8.095   4.222   1.795 -0.4347 -0.0174  0.4897
  893MOL0     C20463   8.234   4.245   1.733  0.0044 -0.2341  0.0410
  893MOL0    Cl20464   8.342   4.142   1.829  0.0687 -0.6184  0.0550
  893MOL0     C20465   7.106   4.467   1.889  0.4973 -1.0875  0.5641
  893MOL0     C20466   6.985   4.476   1.955  0.1412 -0.4349  1.0284
  893MOL0     O20467   6.710   4.433   2.019 -0.2120 -0.3224  0.5887
  893MOL0     C20468   6.574   4.731   2.189 -0.3541  0.8103  0.0721
  893MOL0     C20469   6.464   4.771   2.263 -0.1095  0.6033 -0.8414
  893MOL0     N20470   5.675   4.876   2.590 -0.4328 -0.4839  1.0855
  893MOL0     N20471   5.587   4.924   2.512 -0.6009 -0.0640  0.5702
  893MOL0     C20472   4.466   4.686   2.402 -0.0512 -0.1682  0.5737
  893MOL0     C20473   4.332   4.660   2.409 -0.2506 -0.0395 -1.0448
  893MOL0     C20474   3.967   4.472   2.623  0.1406 -0.0699 -0.3990
  893MOL0     C20475   3.866   4.537   2.543 -0.9233 -0.0432  0.5798
  893MOL0     C20476   3.736   4.503   2.567 -0.1038  0.2873  0.2120
  893MOL0     C20477   3.705   4.401   2.657 -0.3062  0.0643  0.4919
  893MOL0     O20478   3.578   4.365   2.688 -0.1808  0.1181 -0.1021
  893MOL0     C20479   3.545   4.226   2.723  0.5931 -0.0201  0.5318
  893MOL0     C20480   3.397   4.205   2.698  0.3680  0.2163  0.5035
  893MOL0     C20481   3.299   4.226   2.817 -0.5027  0.4072 -0.2829
  893MOL0     C20482   3.154   4.172   2.769 -0.2333 -1.0908 -0.5270
  893MOL0     C20483   3.076   4.152   2.895 -0.3014  0.1115 -0.1773
  893MOL0     C20484   3.022   4.122   2.998  0.9725 -0.3990  0.1756
  893MOL0     C20485   3.807   4.334   2.730  0.7397 -0.2028  0.1363
  893MOL0     C20486   3.941   4.365   2.703  0.2043 -0.3420  0.0266
  893MOL0     C20487   4.037   4.287   2.781  0.4524 -0.0152 -0.2917
  893MOL0     H20488   4.327   4.328   2.457 -1.6098  0.6241  0.8339
  893MOL0     H20489   4.565   4.358   2.451 -0.6301  0.8628  2.1574
  893MOL0     H20490   4.747   4.421   2.412  2.1626  0.7469  1.3737
  893MOL0     H20491   4.727   4.468   2.241  1.0958  0.0313 -0.9083
  893MOL0     H20492   4.976   4.453   2.334  1.2653  0.8202  0.0693
  893MOL0     H20493   4.934   4.573   2.456  1.8248 -0.6627 -0.0411
  893MOL0     H20494   4.881   4.732   2.236  1.9324  1.6317 -0.8172
  893MOL0     H20495   4.989   4.616   2.151  0.0185  0.6353 -0.8802
  893MOL0     H20496   5.077   4.758   2.400 -0.3358 -0.7450 -0.8090
  893MOL0     H20497   5.180   4.657   2.314  0.2274 -0.2371 -1.9324
  893MOL0     H20498   5.097   4.809   2.101  2.0526 -1.0486 -0.3996
  893MOL0     H20499   5.105   4.931   2.231 -3.0089 -2.2864  1.6663
  893MOL0     H20500   5.311   4.725   2.157  0.5964  0.0350 -0.5926
  893MOL0     H20501   5.313   4.886   2.091  2.1244 -1.6517 -0.8812
  893MOL0     H20502   5.349   4.802   2.382  0.6513  0.8042 -0.0092
  893MOL0     H20503   5.314   4.968   2.341 -2.5139  0.8404 -2.6227
  893MOL0     H20504   5.534   4.808   2.201  2.2034  0.0405  0.1667
  893MOL0     H20505   5.535   4.987   2.228  1.2227  0.4819  2.2719
  893MOL0     H20506   5.781   4.745   2.307  1.1447  0.0934 -0.1230
  893MOL0     H20507   5.901   4.756   2.676  2.1208  1.3101  0.7056
  893MOL0     H20508   5.885   4.632   2.554 -1.5295  0.4163 -0.3236
  893MOL0     H20509   6.018   4.781   2.393 -0.5460  1.3816 -0.4954
  893MOL0     H20510   6.018   4.901   2.530  0.2899 -0.1057 -1.2808
  893MOL0     H20511   6.136   4.621   2.565 -2.1205 -0.2947  1.6382
  893MOL0     H20512   6.167   4.762   2.668  1.2226  0.8752 -0.9574
  893MOL0     H20513   6.362   4.725   2.535  0.5607 -1.8197 -2.0733
  893MOL0     H20514   6.298   4.874   2.474 -1.1655 -0.0025 -3.0951
  893MOL0     H20515   6.266   4.501   2.218  0.5982 -0.2773  0.5065
  893MOL0     H20516   6.452   4.425   2.085 -1.2520  0.0906  0.2122
  893MOL0     H20517   6.977   4.809   2.025 -1.1853 -0.1258 -0.0297
  893MOL0     H20518   7.203   4.793   1.916  0.9262 -0.3941 -0.2918
  893MOL0     H20519   7.451   4.650   1.926 -4.4366  0.6771  2.5228
  893MOL0     H20520   7.395   4.475   1.937 -1.7588  0.8796 -0.5448
  893MOL0     H20521   7.472   4.439   1.692  1.6181 -0.7918 -0.8747
  893MOL0     H20522   7.578   4.583   1.715 -5.0892  3.2794 -1.0484
  893MOL0     H20523   7.660   4.438   1.925  2.2038  2.7512 -1.9992
  893MOL0     H20524   7.568   4.299   1.843  2.8395 -1.6309 -0.3021
  893MOL0     H20525   7.778   4.474   1.717 -0.3402  0.3839 -1.3041
  893MOL0     H20526   7.694   4.346   1.636  0.2105  1.8357 -1.3241
  893MOL0     H20527   7.792   4.191   1.823 -0.6032  1.3580  1.4826
  893MOL0     H20528   7.866   4.320   1.889 -1.8367 -0.4312  0.4819
  893MOL0     H20529   7.979   4.193   1.630  2.6296 -0.7560  0.4379
  893MOL0     H20530   8.006   4.371   1.676 -0.3004  0.4899  0.9972
  893MOL0     H20531   8.071   4.120   1.825 -1.0270  0.3528  1.3385
  893MOL0     H20532   8.099   4.287   1.883  1.0305  0.9504 -0.2496
  893MOL0     H20533   8.238   4.222   1.626 -1.5945  3.2054 -0.8896
  893MOL0     H20534   8.271   4.348   1.737 -1.1124  0.3312 -2.2945
  893MOL0     H20535   7.141   4.379   1.837  0.2557  0.6029 -2.6986
  893MOL0     H20536   6.929   4.385   1.973  0.1310 -0.2830  1.8254
  893MOL0     H20537   6.662   4.794   2.190 -0.8792  1.7346 -2.6852
  893MOL0     H20538   6.462   4.866   2.314 -2.4570  1.7273 -2.8382
  893MOL0     H20539   4.503   4.784   2.375  0.9872 -0.7955 -0.3841
  893MOL0     H20540   4.272   4.750   2.409 -2.2510 -1.2867 -0.2159
  893MOL0     H20541   3.906   4.614   2.478  0.7247  0.6578  2.3276
  893MOL0     H20542   3.649   4.554   2.527 -2.0441 -1.1409  2.3227
  893MOL0     H20543   3.571   4.212   2.829 -0.5539 -1.7859  0.6361
  893MOL0     H20544   3.604   4.152   2.668  1.9980  0.9298  0.7285
  893MOL0     H20545   3.391   4.103   2.658 -0.9918  0.6023 -0.3325
  893MOL0     H20546   3.372   4.271   2.614  2.1186  0.2327 -0.0445
  893MOL0     H20547   3.290   4.331   2.845 -1.1191 -0.7394  4.8471
  893MOL0     H20548   3.339   4.164   2.898  0.9322  0.4075 -0.9633
  893MOL0     H20549   3.105   4.245   2.704 -2.5533 -2.7034 -0.7302
  893MOL0     H20550   3.152   4.073   2.722 -1.7087 -2.8367  2.8134
  893MOL0     H20551   2.972   4.095   3.089  0.3868  0.3805  0.0978
  893MOL0     H20552   3.767   4.252   2.788 -1.8368 -2.0230 -3.7632
  893MOL0     H20553   4.138   4.272   2.744  0.3794  1.7937 -1.3480
  893MOL0     H20554   4.051   4.345   2.873  0.0032  0.0437 -0.2549
  893MOL0     H20555   3.995   4.190   2.810  0.1862 -0.2156 -1.3030
  894MOL0     O20556   1.538   8.661   3.086 -0.2321 -0.6934 -0.0253
  894MOL0     C20557   1.440   8.592   3.069 -0.5210  0.1777  0.5954
  894MOL0     O20558   1.439   8.464   3.021 -0.1741  0.0255 -0.4767
  894MOL0     C20559   1.564   8.414   2.987 -0.2444 -0.0047 -0.4776
  894MOL0     C20560   1.666   8.401   3.084  0.1255 -0.4817  0.5373
  894MOL0     C20561   1.787   8.342   3.053 -0.6692 -0.3513  0.5414
  894MOL0     C20562   1.812   8.285   2.931  0.4376  0.0824 -0.4787
  894MOL0     O20563   1.921   8.222   2.884  0.5761  0.0794 -0.2156
  894MOL0     C20564   2.042   8.248   2.950 -0.8451  0.4873  0.7151
  894MOL0     C20565   2.145   8.171   2.868 -0.5354 -0.1895 -0.2204
  894MOL0     C20566   2.287   8.200   2.903 -0.3750  0.5843  0.1747
  894MOL0     C20567   2.380   8.125   2.806 -0.1518 -0.4949 -0.3074
  894MOL0     C20568   2.521   8.173   2.824  0.3129 -0.5954  0.3167
  894MOL0     C20569   2.613   8.094   2.734  0.1577  1.0962 -0.6572
  894MOL0     C20570   2.758   8.150   2.724 -0.7842 -0.3712  0.8453
  894MOL0     C20571   2.853   8.061   2.647 -0.0484  0.0622  0.0970
  894MOL0     N20572   2.992   8.099   2.653  0.3267 -0.3620 -0.0221
  894MOL0     C20573   3.077   8.168   2.571  0.7026 -0.4895  0.5078
  894MOL0     C20574   3.197   8.177   2.622 -0.7632  0.3860  0.1872
  894MOL0     C20575   3.317   8.221   2.544 -0.3402  0.1518  0.3195
  894MOL0     C20576   3.354   8.369   2.568  0.0657  0.0543 -0.2689
  894MOL0     C20577   3.473   8.421   2.484  0.2196  0.0914 -0.3523
  894MOL0     C20578   3.607   8.418   2.560 -0.0269  0.6774  1.1839
  894MOL0     O20579   3.700   8.476   2.460 -0.0124  0.0752  0.0814
  894MOL0     C20580   3.828   8.424   2.473  0.4069 -0.6014 -0.1712
  894MOL0     C20581   3.927   8.514   2.497 -1.1970 -0.6114 -0.0398
  894MOL0     C20582   4.060   8.473   2.496 -0.9307  0.2684  0.1254
  894MOL0     C20583   4.091   8.333   2.513 -0.4630 -1.1308 -0.8254
  894MOL0     C20584   4.227   8.278   2.540  0.7007 -0.0179 -0.4445
  894MOL0     O20585   4.239   8.143   2.559 -0.2849 -0.3308  0.0775
  894MOL0     C20586   4.369   8.093   2.567  0.5387  0.5592  0.6502
  894MOL0     C20587   4.389   7.960   2.524 -0.4762  0.2710  0.4651
  894MOL0     C20588   4.517   7.908   2.519 -0.4693 -0.0554 -0.6718
  894MOL0     C20589   4.630   7.976   2.571 -0.3586  0.3247 -0.0020
  894MOL0     O20590   4.754   7.918   2.595  0.0315 -0.0414 -0.2725
  894MOL0     C20591   4.796   7.844   2.479 -0.1893 -0.4144  0.3662
  894MOL0     C20592   4.939   7.807   2.488 -0.3267 -0.3000 -0.4877
  894MOL0     C20593   5.032   7.919   2.520  0.0985  0.1788  0.4161
  894MOL0     C20594   5.171   7.885   2.474  0.1835 -0.7981 -0.9971
  894MOL0     C20595   5.231   7.966   2.364 -0.1325 -0.3901  0.5317
  894MOL0     C20596   5.372   7.928   2.335 -0.2657  0.0652 -0.8832
  894MOL0     C20597   5.476   7.942   2.447 -0.7756  0.0721  0.3365
  894MOL0     C20598   5.609   7.872   2.418 -0.1843 -0.0437  0.2993
  894MOL0    Cl20599   5.607   7.693   2.405  0.0474  0.1965  0.0405
  894MOL0     C20600   4.607   8.102   2.623  0.2849 -0.6192 -0.3748
  894MOL0     C20601   4.480   8.161   2.625 -0.6915 -0.0420 -0.2108
  894MOL0     O20602   4.317   8.362   2.542 -0.4242 -0.1109 -0.9157
  894MOL0     C20603   3.988   8.237   2.499  0.1810 -0.3846 -0.1633
  894MOL0     C20604   3.861   8.291   2.474 -0.0280 -0.1321 -0.9014
  894MOL0     N20605   3.194   8.120   2.745  0.5587 -0.0585 -0.0047
  894MOL0     N20606   3.070   8.069   2.756  0.4273 -0.5492 -0.0387
  894MOL0     C20607   1.702   8.282   2.844 -0.2728  0.6884 -0.3432
  894MOL0     C20608   1.581   8.341   2.878 -0.2417 -0.1371  0.1252
  894MOL0     C20609   1.307   8.648   3.093  0.1288 -0.0706 -0.2739
  894MOL0     C20610   1.205   8.629   2.997  0.5390 -0.3533  0.1867
  894MOL0     C20611   1.072   8.668   3.012 -0.5027 -0.1013 -1.0810
  894MOL0     C20612   1.039   8.730   3.132 -0.4840 -0.2517 -0.9597
  894MOL0     O20613   0.913   8.775   3.165  0.8078  0.0920  0.6984
  894MOL0     C20614   0.805   8.682   3.147  0.1689 -0.8247  0.7554
  894MOL0     C20615   0.671   8.764   3.146  0.0042  0.0938 -0.6804
  894MOL0     C20616   0.558   8.673   3.105 -0.1908  0.2255  0.2729
  894MOL0     C20617   0.425   8.715   3.164 -0.1110  0.4136 -0.9906
  894MOL0     C20618   0.312   8.634   3.117  0.1008  1.0028  0.9097
  894MOL0     C20619   0.213   8.575   3.071  0.0618 -0.2882  0.3234
  894MOL0     C20620   1.139   8.763   3.224  0.2339  0.0971  0.1449
  894MOL0     C20621   1.277   8.721   3.206  0.3403  0.0541 -0.3706
  894MOL0     C20622   1.375   8.744   3.320 -0.3960 -0.2356  1.0407
  894MOL0     H20623   1.653   8.449   3.181  0.8370 -0.2670  0.5344
  894MOL0     H20624   1.867   8.336   3.126 -0.1036 -3.0871 -0.2094
  894MOL0     H20625   2.055   8.356   2.948 -0.4495  0.4801  1.9139
  894MOL0     H20626   2.044   8.201   3.049  3.9422 -1.5103 -0.0578
  894MOL0     H20627   2.133   8.192   2.761 -1.1578 -0.6224 -0.2354
  894MOL0     H20628   2.116   8.067   2.881 -2.1915  0.1611 -0.9276
  894MOL0     H20629   2.310   8.177   3.007  1.4912  1.2682 -0.0514
  894MOL0     H20630   2.302   8.308   2.893 -0.4682  0.8090  2.1541
  894MOL0     H20631   2.385   8.017   2.817  2.3636 -0.2427  2.5840
  894MOL0     H20632   2.342   8.141   2.705  2.4485 -0.9229 -1.4399
  894MOL0     H20633   2.527   8.281   2.806 -0.9567 -0.0127  2.8315
  894MOL0     H20634   2.559   8.170   2.927  0.9732  1.7080  0.1874
  894MOL0     H20635   2.635   7.999   2.784  1.7369  1.2160 -1.0793
  894MOL0     H20636   2.569   8.078   2.635  0.0448 -2.0867 -0.2049
  894MOL0     H20637   2.800   8.162   2.824  1.2672  0.8519 -0.1052
  894MOL0     H20638   2.772   8.247   2.676  2.6837 -1.2955 -0.2998
  894MOL0     H20639   2.852   7.964   2.696 -1.9925 -0.5618 -1.0720
  894MOL0     H20640   2.825   8.046   2.542  0.5021  0.5115 -0.1221
  894MOL0     H20641   3.046   8.215   2.478 -1.2658 -1.6112  0.5411
  894MOL0     H20642   3.402   8.163   2.582 -1.0736 -2.4426 -1.6716
  894MOL0     H20643   3.308   8.212   2.435  0.9877  1.4733  0.0708
  894MOL0     H20644   3.269   8.428   2.534 -0.0588 -0.6997 -1.2875
  894MOL0     H20645   3.377   8.390   2.674 -0.7552 -1.6439  0.2769
  894MOL0     H20646   3.451   8.527   2.472 -1.1165 -0.0773  0.3399
  894MOL0     H20647   3.480   8.380   2.383  0.7648  0.5881 -0.5213
  894MOL0     H20648   3.630   8.322   2.607 -0.1904 -0.7478 -1.4841
  894MOL0     H20649   3.605   8.495   2.638 -0.8591  2.4573 -0.5175
  894MOL0     H20650   3.899   8.619   2.508  0.2288 -0.3586  1.5633
  894MOL0     H20651   4.137   8.549   2.500 -0.1673 -0.5113  0.8526
  894MOL0     H20652   4.306   7.908   2.477  0.7984 -1.4017 -0.0429
  894MOL0     H20653   4.520   7.807   2.478 -0.2044 -0.7503  0.9679
  894MOL0     H20654   4.723   7.766   2.453  2.0359 -2.2008 -0.9277
  894MOL0     H20655   4.791   7.905   2.389 -2.6298  1.0624  1.3877
  894MOL0     H20656   4.955   7.728   2.562  0.0632 -2.3907 -2.6908
  894MOL0     H20657   4.971   7.770   2.391  0.4087  0.3342 -0.4961
  894MOL0     H20658   5.010   8.016   2.474  2.1262  0.1672 -0.7108
  894MOL0     H20659   5.020   7.953   2.623  0.9544 -0.7275  0.8333
  894MOL0     H20660   5.180   7.777   2.457  3.1385 -1.0817  1.4737
  894MOL0     H20661   5.225   7.911   2.565  0.3757 -0.6795 -1.1444
  894MOL0     H20662   5.220   8.071   2.392 -0.2155  0.6268 -2.8973
  894MOL0     H20663   5.179   7.961   2.268  3.0687 -3.4286 -1.2737
  894MOL0     H20664   5.373   7.823   2.305 -0.1700  0.2818 -1.6638
  894MOL0     H20665   5.410   7.994   2.256  0.4284 -0.6798 -1.1888
  894MOL0     H20666   5.452   7.879   2.533 -0.0231 -2.6328 -1.3128
  894MOL0     H20667   5.479   8.050   2.468 -1.5233  0.5871 -1.9582
  894MOL0     H20668   5.655   7.919   2.331 -2.1077 -1.9020 -1.8824
  894MOL0     H20669   5.670   7.893   2.506  2.3697 -0.2075 -1.3197
  894MOL0     H20670   4.689   8.151   2.674 -0.6132 -0.4705  0.9961
  894MOL0     H20671   4.471   8.260   2.669 -1.1039  0.6084 -1.7008
  894MOL0     H20672   4.006   8.132   2.518 -1.5129 -0.7424 -0.3181
  894MOL0     H20673   3.773   8.228   2.466  0.3204 -0.6439 -0.7072
  894MOL0     H20674   1.703   8.233   2.747  0.6952 -0.2644  0.1273
  894MOL0     H20675   1.504   8.334   2.801 -2.7398 -1.3523  2.5504
  894MOL0     H20676   1.233   8.566   2.913 -1.4836 -3.6675  1.7738
  894MOL0     H20677   0.999   8.649   2.935 -0.3214 -1.8227 -0.8725
  894MOL0     H20678   0.815   8.603   3.222 -2.1673  0.2794  2.3634
  894MOL0     H20679   0.816   8.632   3.050 -1.8659 -3.3378  1.7300
  894MOL0     H20680   0.683   8.846   3.075 -1.7261 -0.1324 -1.2873
  894MOL0     H20681   0.651   8.791   3.250 -0.1212 -1.1342 -0.3609
  894MOL0     H20682   0.583   8.571   3.136 -0.9054 -0.0747 -0.1162
  894MOL0     H20683   0.549   8.667   2.996 -0.5119 -0.5599  0.3307
  894MOL0     H20684   0.431   8.704   3.272  2.5327 -2.3139 -1.2914
  894MOL0     H20685   0.411   8.820   3.136 -0.8788  0.3428 -0.9025
  894MOL0     H20686   0.130   8.525   3.026 -0.5569  1.7796 -0.9505
  894MOL0     H20687   1.111   8.817   3.314  0.0707  1.9110 -0.9484
  894MOL0     H20688   1.449   8.664   3.332 -2.6489 -2.7253 -0.4238
  894MOL0     H20689   1.435   8.832   3.295 -0.0348 -0.5378  0.8204
  894MOL0     H20690   1.331   8.752   3.420 -2.4496  1.5021  0.0751
  895MOL0     O20691  10.230   0.016   2.261 -0.0127  0.1009  0.0203
  895MOL0     C20692  10.269  -0.039   2.361 -0.1340 -0.2638 -0.3067
  895MOL0     O20693  10.196  -0.092   2.466  0.4505 -0.8254  0.5192
  895MOL0     C20694  10.065  -0.050   2.482  0.2506  0.4117  0.1663
  895MOL0     C20695  10.014   0.079   2.452  0.0991 -0.7999  0.2563
  895MOL0     C20696   9.882   0.114   2.464 -1.0861 -0.3013  0.7960
  895MOL0     C20697   9.792   0.018   2.521 -0.1369 -0.8589 -0.6366
  895MOL0     O20698   9.659   0.050   2.527 -0.8112  0.3182 -0.1479
  895MOL0     C20699   9.577  -0.050   2.578  0.5716 -0.8383  0.1301
  895MOL0     C20700   9.439   0.020   2.584 -0.5234  0.3171 -0.6970
  895MOL0     C20701   9.316  -0.064   2.625  0.4642  0.9126  0.3815
  895MOL0     C20702   9.188   0.007   2.581 -0.7234  0.4487 -0.1135
  895MOL0     C20703   9.071  -0.071   2.620  0.7026  0.3875  0.5721
  895MOL0     C20704   8.943   0.014   2.620 -0.1233 -0.0331  0.7413
  895MOL0     C20705   8.887   0.017   2.475 -0.0455 -0.6750 -0.7003
  895MOL0     C20706   8.847  -0.119   2.410  0.2532  0.3106 -0.6262
  895MOL0     N20707   8.947  -0.186   2.321 -0.1557 -0.0296 -0.4105
  895MOL0     C20708   9.014  -0.119   2.225  0.7199 -0.4834 -0.4574
  895MOL0     C20709   9.095  -0.216   2.177 -0.0642  0.2358  0.5933
  895MOL0     C20710   9.209  -0.185   2.083  0.3094  0.2022 -0.2117
  895MOL0     C20711   9.324  -0.095   2.133  0.0984 -0.3862  0.0029
  895MOL0     C20712   9.419  -0.158   2.232 -0.4219 -0.1472  0.2257
  895MOL0     C20713   9.493  -0.276   2.171 -0.4955  0.5799 -0.0297
  895MOL0     O20714   9.598  -0.326   2.260 -0.3816 -0.3871 -0.2604
  895MOL0     C20715   9.715  -0.355   2.201 -0.3831 -0.2077 -0.0012
  895MOL0     C20716   9.724  -0.470   2.127 -0.5052 -0.0912  0.2988
  895MOL0     C20717   9.849  -0.511   2.086  0.1665 -0.8416 -0.3588
  895MOL0     C20718   9.966  -0.441   2.120  0.1333  0.1244 -0.1736
  895MOL0     C20719  10.095  -0.481   2.076 -0.2094  0.3429  0.3323
  895MOL0     O20720  10.207  -0.403   2.121 -0.2143  0.0727 -0.4698
  895MOL0     C20721  10.337  -0.430   2.084 -0.0177 -0.1600 -0.0110
  895MOL0     C20722  10.435  -0.336   2.123  0.0184 -0.9424  0.2052
  895MOL0     C20723  10.572  -0.341   2.080  0.6581 -0.2828 -0.4527
  895MOL0     C20724  10.607  -0.456   2.003  0.1366  0.2503 -0.2533
  895MOL0     O20725  10.741  -0.479   1.961  0.1186 -0.0775  0.4050
  895MOL0     C20726  10.841  -0.388   2.013  0.4776  0.5621  0.7302
  895MOL0     C20727  10.982  -0.419   1.969  0.5772 -0.5888  0.5063
  895MOL0     C20728  11.092  -0.315   2.011 -0.0073 -0.1324 -0.0700
  895MOL0     C20729  11.102  -0.295   2.162  0.1703  0.3958  0.4886
  895MOL0     C20730  11.226  -0.206   2.180 -0.7906 -0.3975  0.8360
  895MOL0     C20731  11.184  -0.060   2.182  0.5816 -0.3408 -0.2801
  895MOL0     C20732  11.300   0.029   2.228 -0.4262 -0.0393 -0.6664
  895MOL0     C20733  11.260   0.174   2.224  0.2282  0.5863 -0.2701
  895MOL0    Cl20734  11.222   0.239   2.061 -0.2858  0.2071 -0.0503
  895MOL0     C20735  10.510  -0.560   1.981  0.0255 -0.4665 -0.1970
  895MOL0     C20736  10.381  -0.546   2.016 -0.3075  0.2597  0.6488
  895MOL0     O20737  10.097  -0.585   2.017  0.1314 -0.2950 -0.1695
  895MOL0     C20738   9.956  -0.314   2.186  0.6995  0.3428  0.0566
  895MOL0     C20739   9.833  -0.272   2.231  0.2110  0.0087 -0.2033
  895MOL0     N20740   9.076  -0.337   2.242 -0.5699 -0.2736  0.2362
  895MOL0     N20741   8.979  -0.318   2.328  0.3778 -0.2235  0.4409
  895MOL0     C20742   9.848  -0.095   2.582  0.3344  0.3329  0.9398
  895MOL0     C20743   9.978  -0.145   2.535 -0.0561 -0.1714 -0.5708
  895MOL0     C20744  10.419  -0.051   2.386  0.8332 -0.5162 -0.7734
  895MOL0     C20745  10.467  -0.160   2.455 -0.8546 -0.0198  0.0039
  895MOL0     C20746  10.600  -0.169   2.492 -0.1957  0.0750 -0.7230
  895MOL0     C20747  10.688  -0.070   2.448  0.6116 -0.3805 -0.8288
  895MOL0     O20748  10.829  -0.083   2.448  0.2197 -0.1471  0.5077
  895MOL0     C20749  10.899  -0.202   2.487  0.4021 -0.8756 -0.6708
  895MOL0     C20750  10.898  -0.202   2.647  0.3922  0.5247  1.0186
  895MOL0     C20751  10.952  -0.077   2.714  0.0532 -0.0846 -0.0239
  895MOL0     C20752  10.947  -0.079   2.867  0.0578 -0.5129  0.4450
  895MOL0     C20753  10.808  -0.077   2.905  0.3825  0.5007 -0.4054
  895MOL0     C20754  10.689  -0.084   2.926 -0.4009 -0.1239 -0.5464
  895MOL0     C20755  10.638   0.040   2.374 -0.1308  0.1623 -0.0360
  895MOL0     C20756  10.502   0.059   2.344  0.5288  0.2371 -0.5221
  895MOL0     C20757  10.459   0.183   2.275 -0.1356 -0.0340  0.0860
  895MOL0     H20758  10.080   0.153   2.407  0.3008 -0.6234  0.8387
  895MOL0     H20759   9.842   0.214   2.456  0.3909  0.4017  1.7850
  895MOL0     H20760   9.572  -0.137   2.511 -1.7485  0.1114 -1.0308
  895MOL0     H20761   9.601  -0.086   2.679  1.4491  1.5615  0.8262
  895MOL0     H20762   9.417   0.076   2.492 -2.2668  0.7716 -0.0355
  895MOL0     H20763   9.462   0.088   2.666  2.3563 -1.3033 -0.0368
  895MOL0     H20764   9.311  -0.084   2.732  0.3766  0.7322  0.3450
  895MOL0     H20765   9.325  -0.160   2.572 -0.1539  0.3351  1.3104
  895MOL0     H20766   9.176   0.094   2.646 -3.4977  0.2106 -0.1857
  895MOL0     H20767   9.189   0.036   2.475  1.2190  4.6022  0.8342
  895MOL0     H20768   9.064  -0.166   2.567 -0.2578  0.4793  0.5171
  895MOL0     H20769   9.089  -0.084   2.728 -1.2520  2.4615  1.2280
  895MOL0     H20770   8.872  -0.039   2.685  1.1804 -0.1159  2.1725
  895MOL0     H20771   8.961   0.119   2.644  1.1578  0.8237 -3.3420
  895MOL0     H20772   8.949   0.085   2.416 -3.6617  1.7786 -1.9781
  895MOL0     H20773   8.794   0.073   2.493  0.0242 -0.4959 -0.8916
  895MOL0     H20774   8.812  -0.187   2.488 -0.2376  3.2665  1.8856
  895MOL0     H20775   8.768  -0.084   2.343  1.3680  1.3279 -1.4583
  895MOL0     H20776   9.010  -0.013   2.201  3.6401  0.5021  2.6010
  895MOL0     H20777   9.253  -0.281   2.054 -1.9814 -1.7592  2.2896
  895MOL0     H20778   9.165  -0.136   1.996  1.6848  2.6396  0.3872
  895MOL0     H20779   9.375  -0.056   2.044 -0.8228  0.2891 -0.2360
  895MOL0     H20780   9.282  -0.003   2.174  2.4444  0.7197  0.1032
  895MOL0     H20781   9.361  -0.191   2.319 -1.2176 -1.9475 -0.9117
  895MOL0     H20782   9.488  -0.081   2.266  2.0686 -2.1948  0.0796
  895MOL0     H20783   9.531  -0.246   2.073 -1.3876  1.4161 -0.1391
  895MOL0     H20784   9.418  -0.356   2.173  1.6931 -1.8025  4.6524
  895MOL0     H20785   9.631  -0.523   2.109  0.5573 -1.4694 -1.4648
  895MOL0     H20786   9.861  -0.599   2.023  0.9558  0.4449 -2.1111
  895MOL0     H20787  10.392  -0.250   2.172  2.0753  0.6599 -0.6433
  895MOL0     H20788  10.638  -0.263   2.116  1.3755 -1.2886  0.4746
  895MOL0     H20789  10.828  -0.288   1.970 -1.2978  0.0469  0.0073
  895MOL0     H20790  10.840  -0.382   2.122  1.0718  0.3211  0.7540
  895MOL0     H20791  11.003  -0.518   2.012 -1.2385 -0.4139  1.9189
  895MOL0     H20792  10.988  -0.427   1.860  0.6973  0.0427  0.4671
  895MOL0     H20793  11.191  -0.342   1.974  0.4926  0.0779  1.0686
  895MOL0     H20794  11.072  -0.216   1.968  3.0876  0.0076 -1.4744
  895MOL0     H20795  11.127  -0.387   2.215  1.2837  1.3105  1.6133
  895MOL0     H20796  11.015  -0.255   2.215 -0.3977 -1.7125  1.2352
  895MOL0     H20797  11.313  -0.220   2.116  1.4820 -0.8280  3.8326
  895MOL0     H20798  11.248  -0.220   2.286 -0.5640  2.2214  1.2094
  895MOL0     H20799  11.153  -0.027   2.083 -1.7517  2.7804  1.3021
  895MOL0     H20800  11.101  -0.044   2.253 -1.1764  0.4317 -2.4024
  895MOL0     H20801  11.390   0.017   2.166  2.1454 -1.3304  2.9655
  895MOL0     H20802  11.331  -0.001   2.329  1.6962  0.8118 -1.0207
  895MOL0     H20803  11.176   0.197   2.291  1.0151  0.5082  0.7682
  895MOL0     H20804  11.341   0.239   2.259  1.7812 -1.4095 -0.0052
  895MOL0     H20805  10.542  -0.646   1.923 -0.5616  1.0610 -2.9831
  895MOL0     H20806  10.323  -0.634   1.992 -0.0780  0.0985  0.6826
  895MOL0     H20807  10.039  -0.243   2.183  0.3426  0.7408 -2.6612
  895MOL0     H20808   9.813  -0.192   2.301  1.0386 -1.1439  1.4059
  895MOL0     H20809   9.794  -0.169   2.640 -0.4456 -1.0449 -1.3869
  895MOL0     H20810  10.011  -0.244   2.561  0.3138  0.2094  0.4559
  895MOL0     H20811  10.400  -0.237   2.492  0.6859 -0.8119  1.2987
  895MOL0     H20812  10.638  -0.257   2.543 -1.9123  0.0443  0.6165
  895MOL0     H20813  11.002  -0.182   2.457 -0.0599 -0.6525 -2.2014
  895MOL0     H20814  10.870  -0.300   2.448 -1.7101 -0.3313 -0.5932
  895MOL0     H20815  10.966  -0.278   2.687  1.2471  2.0688  2.6392
  895MOL0     H20816  10.796  -0.206   2.688 -0.7972  0.3485 -1.7403
  895MOL0     H20817  10.891   0.009   2.683 -0.2616 -0.4344 -0.3790
  895MOL0     H20818  11.053  -0.058   2.674  0.3523  1.7149  1.4094
  895MOL0     H20819  10.990  -0.169   2.913  1.4506 -2.1447 -3.5606
  895MOL0     H20820  10.989   0.014   2.906  0.1758 -0.0130 -0.8212
  895MOL0     H20821  10.583  -0.086   2.935 -0.8348  3.8537 -2.6436
  895MOL0     H20822  10.715   0.105   2.334  1.5641 -0.5576  1.8994
  895MOL0     H20823  10.433   0.167   2.170 -0.2373  2.2833 -0.3090
  895MOL0     H20824  10.380   0.242   2.323 -1.1846  0.7787 -2.4430
  895MOL0     H20825  10.533   0.263   2.282 -1.3851  1.2189 -0.3617
  896MOL0     O20826  10.749   6.476  10.453 -0.7935  0.4542  0.1871
  896MOL0     C20827  10.704   6.418  10.352  0.4073 -0.0171 -0.9302
  896MOL0     O20828  10.769   6.414  10.241 -0.2126  0.6609 -0.5473
  896MOL0     C20829  10.904   6.424  10.231 -0.0813  1.4547  0.4885
  896MOL0     C20830  10.987   6.337  10.308 -0.0234 -0.0494 -0.1596
  896MOL0     C20831  11.124   6.356  10.297  0.0925  0.1374  0.1827
  896MOL0     C20832  11.180   6.456  10.219  0.2523  0.0107 -0.9677
  896MOL0     O20833  11.318   6.478  10.231  0.0523 -0.9927  0.1119
  896MOL0     C20834  11.395   6.490  10.110 -0.1871 -0.7379  0.7465
  896MOL0     C20835  11.542   6.430  10.123  0.5390 -0.4479 -0.5069
  896MOL0     C20836  11.544   6.286  10.062 -0.5193  0.8887 -0.5636
  896MOL0     C20837  11.680   6.237  10.033 -0.5158  0.1183  0.6133
  896MOL0     C20838  11.752   6.307   9.919  0.1469  0.3406 -0.3324
  896MOL0     C20839  11.903   6.259   9.906  0.1958  0.4937 -0.4257
  896MOL0     C20840  11.967   6.361   9.807 -0.7236 -0.3852 -0.0196
  896MOL0     C20841  12.102   6.315   9.751 -0.4223  0.4062  0.2776
  896MOL0     N20842  12.178   6.418   9.675 -0.0307 -1.5435 -0.3624
  896MOL0     C20843  12.131   6.525   9.604  0.7754 -0.2717 -0.6305
  896MOL0     C20844  12.245   6.583   9.551  0.3500  0.6036  0.2608
  896MOL0     C20845  12.260   6.676   9.430 -0.1925 -0.3548 -0.8571
  896MOL0     C20846  12.330   6.813   9.460  0.3081  0.7930  1.2804
  896MOL0     C20847  12.255   6.890   9.565 -0.1226  0.1345 -0.0233
  896MOL0     C20848  12.313   7.028   9.581 -0.5499 -0.0769  0.2224
  896MOL0     O20849  12.451   7.024   9.628 -0.7791  0.4240  0.5111
  896MOL0     C20850  12.473   7.012   9.763 -0.4788  0.5755  0.3890
  896MOL0     C20851  12.372   6.985   9.858 -0.2986  0.4017 -0.4260
  896MOL0     C20852  12.413   6.967   9.998  0.9867 -0.2140  0.4067
  896MOL0     C20853  12.545   6.985  10.038 -0.1691 -0.4856 -0.3464
  896MOL0     C20854  12.577   6.988  10.180 -0.1462  0.3606 -0.5216
  896MOL0     O20855  12.697   7.042  10.207 -0.1407 -0.3048 -0.3187
  896MOL0     C20856  12.726   7.054  10.338  0.5675  0.3378  0.1760
  896MOL0     C20857  12.851   7.015  10.377 -0.1622 -1.3342 -0.1538
  896MOL0     C20858  12.899   7.040  10.501 -0.1326 -0.2434 -0.2201
  896MOL0     C20859  12.815   7.106  10.595  0.3724 -0.1470  0.3126
  896MOL0     O20860  12.855   7.149  10.718  1.1437 -0.3399 -0.4834
  896MOL0     C20861  12.978   7.222  10.724 -0.7110 -0.8213  0.7428
  896MOL0     C20862  13.036   7.192  10.864 -0.1283 -0.2574 -0.0852
  896MOL0     C20863  13.085   7.052  10.874  0.2230  0.6317 -0.4670
  896MOL0     C20864  13.182   7.038  11.000  0.0519 -0.7188 -0.0523
  896MOL0     C20865  13.261   6.906  10.983  0.5434 -0.5457  1.0089
  896MOL0     C20866  13.362   6.887  11.099 -1.1054 -0.6180  0.2661
  896MOL0     C20867  13.513   6.930  11.079  0.4720 -0.2614  0.3851
  896MOL0     C20868  13.616   6.912  11.196 -0.7913 -0.0682 -0.2786
  896MOL0    Cl20869  13.599   6.769  11.290  0.3068 -0.2224 -0.1916
  896MOL0     C20870  12.698   7.161  10.553 -0.3864  0.1125 -0.2028
  896MOL0     C20871  12.648   7.128  10.426  0.0430  0.4775 -0.0735
  896MOL0     O20872  12.501   6.951  10.267  0.7145  0.5905 -0.5601
  896MOL0     C20873  12.638   7.030   9.936 -0.1350  0.4447 -0.2776
  896MOL0     C20874  12.603   7.030   9.804 -0.9275 -0.2345  0.2904
  896MOL0     N20875  12.356   6.521   9.605  0.0887  0.7861 -0.3768
  896MOL0     N20876  12.312   6.422   9.681 -0.2860  0.5636  0.3248
  896MOL0     C20877  11.095   6.535  10.149  0.1767 -0.2591 -0.4739
  896MOL0     C20878  10.961   6.517  10.147  0.3902 -0.2650  0.4386
  896MOL0     C20879  10.569   6.361  10.354  0.1764 -1.2307  0.0277
  896MOL0     C20880  10.475   6.421  10.441  0.9524 -0.0111 -0.1540
  896MOL0     C20881  10.337   6.379  10.435 -0.2385  0.6225  0.6113
  896MOL0     C20882  10.290   6.283  10.341 -1.0454 -0.0381 -0.9219
  896MOL0     O20883  10.153   6.256  10.344 -0.4094 -0.8774  0.0440
  896MOL0     C20884  10.102   6.181  10.236  0.9079 -0.6304  0.2556
  896MOL0     C20885   9.949   6.204  10.241 -0.0073  0.0273 -0.8208
  896MOL0     C20886   9.893   6.150  10.364 -0.0784  0.3962  0.3778
  896MOL0     C20887   9.743   6.138  10.362 -0.1591  0.0372 -0.3458
  896MOL0     C20888   9.691   6.003  10.338  0.2265  0.3492  0.2960
  896MOL0     C20889   9.651   5.896  10.331 -0.1671  0.0941 -0.1139
  896MOL0     C20890  10.388   6.230  10.250 -0.2376 -0.3052  0.0297
  896MOL0     C20891  10.522   6.270  10.258 -0.0622  0.3588  0.8219
  896MOL0     C20892  10.621   6.191  10.165  0.2486 -0.2881  0.0789
  896MOL0     H20893  10.948   6.268  10.382  2.5669 -1.1506  0.2995
  896MOL0     H20894  11.196   6.299  10.355  1.8707  1.0660 -1.0296
  896MOL0     H20895  11.338   6.446  10.028 -1.5611  1.4870  0.4138
  896MOL0     H20896  11.399   6.598  10.092 -2.3291 -1.0412 -2.3170
  896MOL0     H20897  11.564   6.425  10.230  0.0007  1.6012 -0.2751
  896MOL0     H20898  11.610   6.488  10.061 -1.2039 -1.1775 -3.2524
  896MOL0     H20899  11.491   6.285   9.966  0.9896 -0.7475 -1.4220
  896MOL0     H20900  11.487   6.230  10.137  1.1398  1.2308  1.0160
  896MOL0     H20901  11.731   6.254  10.129  2.5181  0.3023 -0.9057
  896MOL0     H20902  11.684   6.128  10.021 -0.7442  0.1169  0.5494
  896MOL0     H20903  11.703   6.292   9.823 -0.7263 -0.7696  0.2589
  896MOL0     H20904  11.752   6.416   9.930  1.0716  0.9232 -4.4752
  896MOL0     H20905  11.948   6.278  10.005 -1.4352 -0.6128  0.5778
  896MOL0     H20906  11.911   6.159   9.864 -3.1259  0.0331 -0.2226
  896MOL0     H20907  11.970   6.456   9.862 -0.5006 -0.0419 -0.6136
  896MOL0     H20908  11.896   6.369   9.724 -1.1627  0.6777  0.4404
  896MOL0     H20909  12.165   6.293   9.838 -2.8997 -1.3737  1.7415
  896MOL0     H20910  12.072   6.227   9.695 -1.6073 -0.5917  2.3773
  896MOL0     H20911  12.026   6.531   9.580  0.7310 -2.0163 -0.9679
  896MOL0     H20912  12.326   6.621   9.361  2.2277  1.2979 -0.0056
  896MOL0     H20913  12.165   6.690   9.378 -0.9787 -2.0547  0.0133
  896MOL0     H20914  12.426   6.802   9.512 -0.5778  0.9826  3.0163
  896MOL0     H20915  12.340   6.878   9.372  1.8354  0.4298  1.1533
  896MOL0     H20916  12.256   6.844   9.665  2.8156 -1.3228 -0.6207
  896MOL0     H20917  12.151   6.899   9.531  0.4265  0.8571 -1.5714
  896MOL0     H20918  12.246   7.084   9.647 -0.6850  1.3233 -1.0530
  896MOL0     H20919  12.303   7.076   9.483 -0.0766 -0.7690 -0.1674
  896MOL0     H20920  12.266   6.972   9.838 -0.5775 -1.0400  1.6474
  896MOL0     H20921  12.339   6.939  10.072  0.4268  1.4688  0.5354
  896MOL0     H20922  12.913   6.964  10.304 -0.8888 -1.9398 -0.3553
  896MOL0     H20923  12.998   6.999  10.518 -0.1323  0.0458  0.5012
  896MOL0     H20924  13.044   7.198  10.641 -1.1207  0.2702  0.0878
  896MOL0     H20925  12.952   7.328  10.723 -1.7897 -0.9965  3.0079
  896MOL0     H20926  13.117   7.264  10.873  0.6131 -1.1560  0.6907
  896MOL0     H20927  12.962   7.228  10.937  1.0377  0.9448  0.5535
  896MOL0     H20928  13.015   6.969  10.887  0.2114  0.9642  2.4032
  896MOL0     H20929  13.143   7.029  10.784 -1.4316 -1.9080 -0.9681
  896MOL0     H20930  13.124   7.047  11.093 -0.4777 -0.9528 -0.3581
  896MOL0     H20931  13.240   7.131  11.006  0.8762 -1.3021  1.8203
  896MOL0     H20932  13.316   6.908  10.889  0.4549 -1.2443  0.9345
  896MOL0     H20933  13.182   6.829  10.988 -0.4233  0.1941 -1.4400
  896MOL0     H20934  13.315   6.946  11.178 -0.1736  0.4777  0.0340
  896MOL0     H20935  13.357   6.779  11.114  0.2160 -1.0575 -1.9212
  896MOL0     H20936  13.514   7.034  11.044  1.0256 -1.1917 -2.7128
  896MOL0     H20937  13.546   6.873  10.992  0.4676  1.0872 -0.5429
  896MOL0     H20938  13.716   6.926  11.154  0.2991 -0.5316  1.9664
  896MOL0     H20939  13.612   7.003  11.256  0.0743 -0.2651  0.0911
  896MOL0     H20940  12.648   7.222  10.628  1.7100  0.7971  0.7446
  896MOL0     H20941  12.561   7.186  10.397 -0.6894 -1.2905 -1.6042
  896MOL0     H20942  12.738   7.049   9.976  0.2155 -1.4025 -0.2203
  896MOL0     H20943  12.682   7.061   9.737 -0.7445  0.0201  0.6203
  896MOL0     H20944  11.136   6.614  10.087 -2.4239  1.3751 -0.2688
  896MOL0     H20945  10.894   6.583  10.094  1.1524 -0.1657 -0.4290
  896MOL0     H20946  10.507   6.498  10.511  1.4886  0.1229 -0.5397
  896MOL0     H20947  10.251   6.422  10.486 -2.1580 -0.9631 -1.1101
  896MOL0     H20948  10.111   6.072  10.243  0.8664 -0.7084 -0.7611
  896MOL0     H20949  10.131   6.227  10.141  0.7303  0.3218  0.6462
  896MOL0     H20950   9.902   6.165  10.150 -0.8043 -1.4102  0.1781
  896MOL0     H20951   9.932   6.312  10.238  0.6924  0.1567 -0.3843
  896MOL0     H20952   9.918   6.204  10.455 -1.8049  1.2223  0.4145
  896MOL0     H20953   9.938   6.051  10.377  1.3688  0.5819 -2.4681
  896MOL0     H20954   9.701   6.175  10.456 -3.0389 -4.7074  0.5828
  896MOL0     H20955   9.711   6.207  10.282  2.8298  1.9957  0.0226
  896MOL0     H20956   9.617   5.798  10.354 -1.0343  0.0512 -1.4958
  896MOL0     H20957  10.362   6.151  10.180 -2.0723  0.2029  0.0998
  896MOL0     H20958  10.578   6.098  10.129  0.3918 -0.7022  0.9489
  896MOL0     H20959  10.650   6.259  10.085  0.3695 -2.2157 -1.5717
  896MOL0     H20960  10.703   6.154  10.228  0.2933 -1.2021 -0.5044
  897MOL0     O20961   8.350  10.465   4.374 -0.4136 -0.2954 -0.6687
  897MOL0     C20962   8.441  10.380   4.402 -0.5116 -0.0432 -0.0963
  897MOL0     O20963   8.572  10.387   4.365 -0.7985  0.3691 -0.5148
  897MOL0     C20964   8.620  10.507   4.308  0.1172 -0.2767  1.0502
  897MOL0     C20965   8.623  10.626   4.382 -0.0878  1.1289 -0.9380
  897MOL0     C20966   8.662  10.745   4.313 -1.1517 -0.7201  0.3024
  897MOL0     C20967   8.693  10.743   4.174 -0.2588  0.2435  0.2262
  897MOL0     O20968   8.722  10.865   4.126 -0.4037 -0.6452 -0.3196
  897MOL0     C20969   8.738  10.877   3.982  0.7522 -0.4265 -0.5489
  897MOL0     C20970   8.698  11.027   3.953 -0.0135 -0.6091 -0.6383
  897MOL0     C20971   8.764  11.146   4.034 -0.3522  0.2692  0.2789
  897MOL0     C20972   8.912  11.124   4.054 -0.1895 -0.5038  0.0090
  897MOL0     C20973   8.983  11.256   4.098 -0.0238  0.6890 -0.0786
  897MOL0     C20974   9.132  11.245   4.126  0.3523 -0.4133 -0.7743
  897MOL0     C20975   9.224  11.200   4.007  0.1174 -0.8740  0.0954
  897MOL0     C20976   9.223  11.281   3.877  0.3768  0.2255  0.2901
  897MOL0     N20977   9.334  11.376   3.871 -0.3423 -0.1650  1.6316
  897MOL0     C20978   9.375  11.466   3.963  0.9727  0.3543 -0.3124
  897MOL0     C20979   9.494  11.515   3.925 -0.1037 -0.0107  0.3875
  897MOL0     C20980   9.584  11.610   3.996 -0.2888  0.0536 -0.3295
  897MOL0     C20981   9.579  11.748   3.941  0.1128 -0.2678 -0.0410
  897MOL0     C20982   9.636  11.760   3.797 -0.2419 -0.4831 -0.3753
  897MOL0     C20983   9.647  11.907   3.758  0.3330 -1.1018  0.0773
  897MOL0     O20984   9.661  11.915   3.615  0.1026 -0.3921  0.3802
  897MOL0     C20985   9.783  11.920   3.554 -0.5830  0.2306  0.2095
  897MOL0     C20986   9.903  11.866   3.608 -0.7132  0.4206  0.1879
  897MOL0     C20987  10.017  11.864   3.525 -1.2466  0.8679 -0.0759
  897MOL0     C20988  10.027  11.922   3.399  1.2944  0.2895  0.7150
  897MOL0     C20989  10.161  11.935   3.333  0.4628 -0.1531 -0.3850
  897MOL0     O20990  10.266  11.914   3.419 -0.2737  0.3793 -0.4612
  897MOL0     C20991  10.397  11.904   3.371 -0.1312 -0.1166  0.5068
  897MOL0     C20992  10.501  11.975   3.439  0.5631 -0.3447 -0.0485
  897MOL0     C20993  10.632  11.970   3.397 -0.3234  0.8836  0.3490
  897MOL0     C20994  10.664  11.901   3.274  0.5201  0.2155 -0.3769
  897MOL0     O20995  10.791  11.901   3.222 -0.4997  0.1621 -0.1438
  897MOL0     C20996  10.899  11.952   3.298 -0.2602 -1.1275 -0.4433
  897MOL0     C20997  11.040  11.917   3.254 -0.2630 -0.1584  0.2341
  897MOL0     C20998  11.085  11.774   3.265  0.3526  0.0272  0.4864
  897MOL0     C20999  11.000  11.670   3.179 -0.1067  0.4377 -0.7436
  897MOL0     C21000  11.043  11.523   3.204  0.6386 -0.6095  0.0352
  897MOL0     C21001  11.189  11.511   3.171  0.5740 -0.2234 -0.1961
  897MOL0     C21002  11.248  11.366   3.195  0.1234 -0.1286 -0.1830
  897MOL0     C21003  11.392  11.366   3.175  0.3280 -0.3877  0.7353
  897MOL0    Cl21004  11.494  11.410   3.327  0.1680 -0.1012  0.0765
  897MOL0     C21005  10.557  11.823   3.215 -0.9545 -0.7381 -0.1455
  897MOL0     C21006  10.423  11.829   3.260 -0.3756 -0.1482  0.0690
  897MOL0     O21007  10.170  11.968   3.213  0.6558 -0.1541  0.2150
  897MOL0     C21008   9.908  11.972   3.348 -0.3415 -0.4013  0.5426
  897MOL0     C21009   9.791  11.965   3.428  1.1519 -0.5317 -0.4094
  897MOL0     N21010   9.538  11.446   3.816 -0.1239  0.2122  0.1580
  897MOL0     N21011   9.435  11.373   3.770 -0.0882 -1.0087 -0.0529
  897MOL0     C21012   8.709  10.619   4.107 -0.2396 -0.4238  0.1948
  897MOL0     C21013   8.676  10.505   4.179 -0.2601  0.2092 -0.7604
  897MOL0     C21014   8.395  10.258   4.464 -0.2654  0.3919 -0.3352
  897MOL0     C21015   8.293  10.191   4.394  0.0817  0.3298  0.2659
  897MOL0     C21016   8.247  10.065   4.429  0.0384 -0.1165  0.3310
  897MOL0     C21017   8.287  10.005   4.545  0.1506  0.5727 -0.3064
  897MOL0     O21018   8.237   9.881   4.579 -0.2051  0.1207  0.2007
  897MOL0     C21019   8.210   9.864   4.722  0.6986 -0.0568 -0.0713
  897MOL0     C21020   8.100   9.748   4.731  0.0305 -1.0739  0.8595
  897MOL0     C21021   8.022   9.747   4.866 -0.1770 -0.1402  0.2981
  897MOL0     C21022   7.935   9.616   4.894 -0.4571 -0.2022 -0.3288
  897MOL0     C21023   8.007   9.492   4.867  0.1908  0.7012  0.0632
  897MOL0     C21024   8.058   9.389   4.835  0.3179 -0.2638  0.0073
  897MOL0     C21025   8.384  10.072   4.628  0.2042 -1.2447 -0.1598
  897MOL0     C21026   8.446  10.189   4.584 -0.5000  1.3579 -0.2753
  897MOL0     C21027   8.556  10.256   4.658 -0.6169  0.0460 -0.9879
  897MOL0     H21028   8.600  10.621   4.488 -2.3042  1.6401 -1.3429
  897MOL0     H21029   8.661  10.845   4.354 -0.2881 -0.2265 -0.8160
  897MOL0     H21030   8.845  10.859   3.972  1.5164  1.4865  2.7534
  897MOL0     H21031   8.670  10.810   3.928 -4.1537  2.3836  1.4417
  897MOL0     H21032   8.590  11.031   3.967  0.2154  0.0342  1.3078
  897MOL0     H21033   8.724  11.033   3.847  1.4831 -1.5748 -0.3589
  897MOL0     H21034   8.727  11.150   4.137  2.7107 -2.2982  1.6493
  897MOL0     H21035   8.740  11.242   3.987  3.8811  0.7491 -1.3361
  897MOL0     H21036   8.933  11.047   4.128  0.0002 -1.1623 -0.7152
  897MOL0     H21037   8.959  11.089   3.961 -0.8331  0.9987 -0.9322
  897MOL0     H21038   8.962  11.329   4.019 -1.4191 -1.6009 -1.9543
  897MOL0     H21039   8.934  11.299   4.186 -2.2698  1.2237 -1.5049
  897MOL0     H21040   9.185  11.326   4.178  1.3098 -3.2639  3.1355
  897MOL0     H21041   9.128  11.155   4.189 -1.3633  0.2609  0.1572
  897MOL0     H21042   9.200  11.097   3.977  0.0313 -0.6651 -0.5525
  897MOL0     H21043   9.324  11.189   4.049  0.2989 -3.3379 -0.8130
  897MOL0     H21044   9.234  11.216   3.789 -0.3002 -0.8944  1.0119
  897MOL0     H21045   9.131  11.338   3.859  0.0258 -0.6382 -0.7857
  897MOL0     H21046   9.336  11.494   4.061  0.2430 -1.3607 -0.0837
  897MOL0     H21047   9.555  11.603   4.101  1.0841 -1.4167 -0.0131
  897MOL0     H21048   9.686  11.570   3.992 -0.5974 -0.6495 -1.7097
  897MOL0     H21049   9.479  11.790   3.945  0.1628 -0.1496  3.3839
  897MOL0     H21050   9.639  11.814   4.005  0.6209 -1.0940  0.3647
  897MOL0     H21051   9.570  11.697   3.736 -1.7128 -0.3726  1.0293
  897MOL0     H21052   9.731  11.707   3.790 -1.0818 -1.8712 -2.3513
  897MOL0     H21053   9.731  11.959   3.804 -1.4799  3.1459 -0.8713
  897MOL0     H21054   9.561  11.967   3.789  0.0015 -0.9794 -1.0200
  897MOL0     H21055   9.899  11.816   3.704 -0.2996  0.4165  0.2054
  897MOL0     H21056  10.108  11.816   3.561 -1.2504  0.0892 -1.0561
  897MOL0     H21057  10.474  12.043   3.519  1.0956  2.5595 -2.1755
  897MOL0     H21058  10.713  12.026   3.443 -1.2151  1.9370  0.6918
  897MOL0     H21059  10.886  12.060   3.298  2.3739 -0.6604  2.9837
  897MOL0     H21060  10.884  11.919   3.401 -1.4536  0.1105 -0.1934
  897MOL0     H21061  11.053  11.944   3.149  3.0400 -3.5143 -0.4675
  897MOL0     H21062  11.115  11.979   3.305 -2.4144  0.8852  2.2907
  897MOL0     H21063  11.179  11.770   3.208 -0.3186 -1.9956 -0.5767
  897MOL0     H21064  11.101  11.744   3.369  4.2183 -0.1177  0.0293
  897MOL0     H21065  11.002  11.694   3.072 -3.0742 -0.3502 -1.0578
  897MOL0     H21066  10.899  11.673   3.221  0.3468  0.0235  0.4041
  897MOL0     H21067  10.975  11.466   3.140  0.8297 -0.2860 -0.4649
  897MOL0     H21068  11.026  11.493   3.308 -0.0413 -0.3747  0.0023
  897MOL0     H21069  11.205  11.544   3.068 -0.9898 -0.0073 -0.3846
  897MOL0     H21070  11.244  11.573   3.243  0.9342 -2.1250  1.2688
  897MOL0     H21071  11.198  11.303   3.120  2.0135 -2.0842  0.1050
  897MOL0     H21072  11.225  11.339   3.299  1.4828 -2.7344 -0.4584
  897MOL0     H21073  11.430  11.272   3.133  1.6993  1.6799 -3.1949
  897MOL0     H21074  11.411  11.442   3.099  3.0475 -0.1894  1.5007
  897MOL0     H21075  10.579  11.763   3.127 -2.2036  0.7327 -1.5124
  897MOL0     H21076  10.346  11.763   3.220 -1.7958 -0.7183  3.4449
  897MOL0     H21077   9.903  12.020   3.251  1.0996  2.5774  1.8021
  897MOL0     H21078   9.707  12.011   3.378  1.3097  0.1593 -0.0622
  897MOL0     H21079   8.724  10.608   4.000  1.0338 -1.1898  0.4255
  897MOL0     H21080   8.697  10.410   4.131 -0.2358 -1.5052  2.3496
  897MOL0     H21081   8.251  10.232   4.303  0.0575  0.4733  0.3423
  897MOL0     H21082   8.167  10.017   4.373 -0.6606  0.1405  1.0888
  897MOL0     H21083   8.185   9.955   4.776  1.6251  0.6419 -0.7724
  897MOL0     H21084   8.303   9.829   4.769  0.6069  2.1731  1.9506
  897MOL0     H21085   8.154   9.656   4.706  0.8564 -0.7701  1.5183
  897MOL0     H21086   8.030   9.767   4.648  1.0255 -0.0825  0.2266
  897MOL0     H21087   7.958   9.835   4.870  0.5013  0.4029 -0.4375
  897MOL0     H21088   8.096   9.752   4.947 -0.7871 -0.4523  0.8832
  897MOL0     H21089   7.895   9.613   4.995 -3.2520  1.9296 -1.2568
  897MOL0     H21090   7.849   9.620   4.827  0.1140  2.0265 -1.0186
  897MOL0     H21091   8.107   9.298   4.807 -1.1854 -0.6552 -1.5256
  897MOL0     H21092   8.423  10.021   4.716 -3.6456 -3.0021  0.7195
  897MOL0     H21093   8.599  10.183   4.727  1.2821 -0.5590 -2.7373
  897MOL0     H21094   8.642  10.275   4.595  0.9523 -1.4458  0.5852
  897MOL0     H21095   8.523  10.341   4.720 -2.5497 -0.5528 -1.1266
  898MOL0     O21096   4.452   2.452   1.238 -0.1672 -0.0061 -0.2300
  898MOL0     C21097   4.492   2.565   1.270 -1.0372 -0.3247 -0.6439
  898MOL0     O21098   4.414   2.681   1.268 -0.1327 -0.0824 -0.1084
  898MOL0     C21099   4.304   2.692   1.190 -0.2011 -0.0465  0.3647
  898MOL0     C21100   4.251   2.607   1.098  0.8949  0.4215  0.3939
  898MOL0     C21101   4.136   2.643   1.020 -0.4068  0.5960 -0.4172
  898MOL0     C21102   4.077   2.774   1.041 -0.3822 -0.0000  0.2507
  898MOL0     O21103   3.965   2.827   0.985  0.1570 -0.7876  0.5443
  898MOL0     C21104   3.848   2.760   1.033  0.5263  0.7739  0.5688
  898MOL0     C21105   3.716   2.828   0.997  0.0336  0.2365  0.2245
  898MOL0     C21106   3.691   2.946   1.080 -0.3645  0.1837  0.8787
  898MOL0     C21107   3.767   3.071   1.025 -0.3042 -0.2350 -0.5556
  898MOL0     C21108   3.743   3.200   1.116  0.3694  1.3495  0.0689
  898MOL0     C21109   3.818   3.320   1.068  0.7418 -0.3233  0.7135
  898MOL0     C21110   3.820   3.432   1.176  0.2094  1.1632  0.2565
  898MOL0     C21111   3.802   3.580   1.127  0.6468  0.3441 -0.0230
  898MOL0     N21112   3.874   3.604   1.002 -0.9767 -0.8519  0.2407
  898MOL0     C21113   4.009   3.635   0.997 -0.4772  0.4742  1.0630
  898MOL0     C21114   4.041   3.638   0.861  1.1319 -0.1108 -1.1506
  898MOL0     C21115   4.175   3.675   0.792 -0.3807  0.1305 -0.2147
  898MOL0     C21116   4.132   3.744   0.656 -0.3037 -0.1333  1.1797
  898MOL0     C21117   4.243   3.824   0.577 -0.9833  0.5965  0.4649
  898MOL0     C21118   4.362   3.733   0.539 -0.2827 -0.2543  0.1282
  898MOL0     O21119   4.451   3.707   0.656  0.4927 -0.4442 -0.2720
  898MOL0     C21120   4.557   3.788   0.670 -0.3667  0.3803 -0.9901
  898MOL0     C21121   4.675   3.761   0.604  0.1906 -0.1764  0.9280
  898MOL0     C21122   4.793   3.824   0.636  0.3991 -0.0848  0.0951
  898MOL0     C21123   4.788   3.918   0.741  0.3518  0.8048 -0.0159
  898MOL0     C21124   4.911   3.989   0.782  0.5031  0.7668 -0.1327
  898MOL0     O21125   5.032   3.928   0.762  0.2441  0.2820 -0.7268
  898MOL0     C21126   5.146   3.995   0.797  0.6370  0.4996 -0.5162
  898MOL0     C21127   5.185   3.990   0.924  0.0736  0.9774 -0.0542
  898MOL0     C21128   5.308   4.037   0.972 -0.3872 -0.0782  0.1215
  898MOL0     C21129   5.404   4.081   0.873  0.3063  0.5344 -0.7920
  898MOL0     O21130   5.536   4.124   0.896  0.0871  0.1610 -0.0118
  898MOL0     C21131   5.596   4.093   1.014 -0.1996 -0.7126 -0.2988
  898MOL0     C21132   5.718   4.169   1.044 -0.4330  0.4719 -0.4714
  898MOL0     C21133   5.763   4.156   1.194  0.2507 -0.9312  0.8238
  898MOL0     C21134   5.901   4.188   1.217 -0.8862 -0.2808  1.2069
  898MOL0     C21135   5.926   4.211   1.359  0.1566  0.4256 -0.6661
  898MOL0     C21136   6.068   4.254   1.394 -0.8409 -0.0556 -0.0225
  898MOL0     C21137   6.095   4.399   1.347 -0.3953 -0.5845  0.9440
  898MOL0     C21138   6.243   4.436   1.363 -0.0008 -0.5862  0.0789
  898MOL0    Cl21139   6.253   4.603   1.300 -0.5887  0.3379  0.3803
  898MOL0     C21140   5.363   4.087   0.736 -0.6506  0.3295  0.7636
  898MOL0     C21141   5.237   4.045   0.698  0.6271 -0.6465 -0.7308
  898MOL0     O21142   4.895   4.096   0.840  0.2706 -0.8012  0.1700
  898MOL0     C21143   4.674   3.947   0.809 -0.5775 -0.4939 -0.3585
  898MOL0     C21144   4.556   3.882   0.767 -0.2029  0.6519 -1.4316
  898MOL0     N21145   3.935   3.595   0.796  0.2460  0.3481  0.0435
  898MOL0     N21146   3.835   3.575   0.874  0.1252  0.3320  0.7970
  898MOL0     C21147   4.135   2.857   1.136 -0.1927 -0.6036 -0.4650
  898MOL0     C21148   4.249   2.826   1.205  0.3497  0.6355 -0.4204
  898MOL0     C21149   4.623   2.565   1.333 -0.1924 -0.8048 -0.3430
  898MOL0     C21150   4.628   2.652   1.443  0.3323 -0.9372  0.2896
  898MOL0     C21151   4.748   2.661   1.511  0.1236  0.0283  0.3912
  898MOL0     C21152   4.856   2.585   1.480 -0.1825 -0.5729  0.0192
  898MOL0     O21153   4.961   2.610   1.555  0.0614 -0.1903 -0.0880
  898MOL0     C21154   5.052   2.500   1.578 -0.6241  1.1833 -0.2666
  898MOL0     C21155   5.156   2.533   1.682 -0.2932  0.0083 -0.5095
  898MOL0     C21156   5.235   2.657   1.647 -0.3876 -0.1854 -0.5094
  898MOL0     C21157   5.339   2.682   1.764  0.0339 -0.2284 -0.1281
  898MOL0     C21158   5.469   2.610   1.763 -0.1779 -0.2922  0.6008
  898MOL0     C21159   5.576   2.559   1.754 -0.5035 -0.3558  0.6254
  898MOL0     C21160   4.853   2.500   1.366  0.3065  1.1002 -0.7367
  898MOL0     C21161   4.733   2.488   1.296 -0.5138 -0.0799 -0.0283
  898MOL0     C21162   4.733   2.388   1.190 -1.1681  0.2374  0.5283
  898MOL0     H21163   4.289   2.507   1.083 -0.2438 -0.2508  1.8295
  898MOL0     H21164   4.103   2.571   0.946  1.5149 -0.1206 -0.6418
  898MOL0     H21165   3.870   2.668   0.978  3.8826  0.1321  2.6935
  898MOL0     H21166   3.848   2.743   1.141  2.7541  1.8435  0.7793
  898MOL0     H21167   3.637   2.757   1.024  0.2759  1.7713  6.6007
  898MOL0     H21168   3.728   2.857   0.892  0.3443  0.4665  0.3234
  898MOL0     H21169   3.720   2.908   1.179  2.1768 -0.8189 -0.1661
  898MOL0     H21170   3.585   2.972   1.072 -0.5137 -0.6238  0.1410
  898MOL0     H21171   3.875   3.057   1.032 -0.5691 -1.7167  1.2536
  898MOL0     H21172   3.718   3.095   0.930 -2.6051 -0.8620  0.3999
  898MOL0     H21173   3.635   3.217   1.108 -0.7133 -4.3767 -3.3786
  898MOL0     H21174   3.778   3.165   1.213 -0.2386  0.1752 -0.1207
  898MOL0     H21175   3.919   3.299   1.030  0.0257 -1.0244 -0.9000
  898MOL0     H21176   3.753   3.347   0.984  0.1735 -0.3516  1.1406
  898MOL0     H21177   3.909   3.410   1.235  0.7798 -1.7684 -1.5093
  898MOL0     H21178   3.730   3.408   1.235  0.2016  1.8996  0.5549
  898MOL0     H21179   3.695   3.598   1.122  0.1395 -0.3509  4.0998
  898MOL0     H21180   3.840   3.648   1.205  2.0930  0.3287 -0.6767
  898MOL0     H21181   4.080   3.671   1.070  1.0444  0.1304 -0.1908
  898MOL0     H21182   4.226   3.754   0.847 -2.1328  0.9908  0.2423
  898MOL0     H21183   4.239   3.591   0.762 -0.4696  1.1653 -3.7917
  898MOL0     H21184   4.083   3.684   0.579  0.8593  0.1992  0.1534
  898MOL0     H21185   4.059   3.818   0.689 -1.5697 -0.2969 -1.0771
  898MOL0     H21186   4.278   3.915   0.626 -1.3463  3.3895 -3.9558
  898MOL0     H21187   4.197   3.851   0.482 -0.6378 -0.1677  0.0694
  898MOL0     H21188   4.426   3.770   0.459  1.0795 -1.6428  0.5323
  898MOL0     H21189   4.335   3.634   0.501  4.1857 -1.1614 -1.2459
  898MOL0     H21190   4.675   3.675   0.538 -3.8637 -0.6846  1.3396
  898MOL0     H21191   4.885   3.806   0.582  1.8310  0.4912  2.2513
  898MOL0     H21192   5.122   3.930   0.989  1.3255 -0.9955 -0.5515
  898MOL0     H21193   5.329   4.023   1.077 -1.1990 -2.3646  0.0264
  898MOL0     H21194   5.524   4.110   1.095 -0.7916  1.7545 -1.2720
  898MOL0     H21195   5.625   3.987   1.023  2.5038  0.0720  1.4442
  898MOL0     H21196   5.794   4.131   0.976 -0.8597 -1.2028 -0.0527
  898MOL0     H21197   5.709   4.273   1.010 -1.7923  0.2082 -1.0142
  898MOL0     H21198   5.699   4.223   1.252  1.4345 -0.1093  1.2088
  898MOL0     H21199   5.738   4.054   1.226  2.1352 -1.3168  1.1584
  898MOL0     H21200   5.927   4.276   1.156 -3.4077 -0.9581 -1.0451
  898MOL0     H21201   5.965   4.104   1.188  2.3137  3.0667 -2.7942
  898MOL0     H21202   5.915   4.111   1.404 -0.8164  1.2228  0.9639
  898MOL0     H21203   5.851   4.270   1.412  0.5898 -0.3319  0.8533
  898MOL0     H21204   6.085   4.250   1.502 -3.4935 -1.5569  0.4201
  898MOL0     H21205   6.136   4.187   1.341 -1.8302 -0.9496 -0.1943
  898MOL0     H21206   6.038   4.471   1.406 -0.9159 -1.0648  1.0304
  898MOL0     H21207   6.073   4.412   1.241  0.0339  1.5981  1.0810
  898MOL0     H21208   6.280   4.425   1.465  2.0137  2.7445 -0.1725
  898MOL0     H21209   6.300   4.354   1.317  0.5404 -0.2329  0.1166
  898MOL0     H21210   5.446   4.120   0.674  2.9628 -2.4268  3.6556
  898MOL0     H21211   5.205   4.038   0.595 -3.2836 -0.7764  0.3668
  898MOL0     H21212   4.676   4.019   0.890  1.3874  0.1441 -0.9259
  898MOL0     H21213   4.465   3.904   0.822  0.4927  2.5106 -0.9642
  898MOL0     H21214   4.087   2.947   1.174  0.7905 -0.2589 -0.0038
  898MOL0     H21215   4.292   2.901   1.270  1.9293  1.2902 -2.0985
  898MOL0     H21216   4.547   2.722   1.460 -0.0982 -1.4046  0.1720
  898MOL0     H21217   4.764   2.724   1.597 -0.2026  1.7458 -0.7487
  898MOL0     H21218   5.112   2.471   1.491 -0.3571  2.3406 -0.4833
  898MOL0     H21219   5.005   2.408   1.614  0.2826  0.8691  0.1548
  898MOL0     H21220   5.226   2.449   1.681  0.9450  1.0140 -1.3506
  898MOL0     H21221   5.115   2.549   1.782  2.9193  0.8215  0.7967
  898MOL0     H21222   5.164   2.738   1.624 -0.6050 -0.5438 -1.1211
  898MOL0     H21223   5.289   2.641   1.553 -0.2781  1.3271 -0.7292
  898MOL0     H21224   5.368   2.787   1.761 -0.3155 -0.1091  0.5107
  898MOL0     H21225   5.292   2.665   1.861  1.5626 -2.4311  0.3092
  898MOL0     H21226   5.672   2.513   1.749  0.4576  1.5421  0.7770
  898MOL0     H21227   4.935   2.433   1.342 -0.4346 -0.1786  0.1524
  898MOL0     H21228   4.830   2.356   1.151 -1.5994 -2.1260  1.2652
  898MOL0     H21229   4.685   2.292   1.213 -0.4817 -0.3753 -0.5216
  898MOL0     H21230   4.670   2.429   1.110 -0.4380 -1.8486 -1.2312
  899MOL0     O21231   1.690   0.792   5.588 -0.2537  0.4200 -0.0854
  899MOL0     C21232   1.700   0.668   5.577 -0.0480 -1.1822 -0.1344
  899MOL0     O21233   1.773   0.594   5.656  0.2133 -0.1196 -0.0898
  899MOL0     C21234   1.882   0.656   5.724  0.6233 -0.3584  0.5485
  899MOL0     C21235   1.867   0.697   5.855 -0.3787  0.5068  0.3755
  899MOL0     C21236   1.970   0.773   5.907  0.1256  0.0412 -0.6985
  899MOL0     C21237   2.086   0.801   5.832 -0.0546 -0.6340  0.5402
  899MOL0     O21238   2.177   0.886   5.892  0.2775 -0.4664 -0.3829
  899MOL0     C21239   2.226   0.844   6.025 -0.1819 -0.4204 -0.0133
  899MOL0     C21240   2.345   0.929   6.070  1.1746 -0.5551  0.0613
  899MOL0     C21241   2.473   0.905   5.986  0.1653 -0.2480  0.5141
  899MOL0     C21242   2.565   1.033   5.972  1.1688  0.5193 -0.2927
  899MOL0     C21243   2.603   1.113   6.090 -0.0086  0.4172 -0.3530
  899MOL0     C21244   2.681   1.016   6.180  0.4051 -0.5207 -0.2720
  899MOL0     C21245   2.783   1.102   6.251  0.7082 -0.5557 -0.3789
  899MOL0     C21246   2.873   1.024   6.349 -0.7743  0.9398  0.3752
  899MOL0     N21247   2.966   0.928   6.283  0.5772 -0.0052  0.1980
  899MOL0     C21248   3.044   0.952   6.176  0.0729  0.6541  0.3081
  899MOL0     C21249   3.119   0.838   6.172 -0.1669  0.2116  0.1391
  899MOL0     C21250   3.232   0.807   6.076  0.2330 -0.7136 -0.1887
  899MOL0     C21251   3.369   0.812   6.150  0.6910  0.3163  0.6611
  899MOL0     C21252   3.481   0.789   6.046 -0.4512 -0.1434 -0.5746
  899MOL0     C21253   3.619   0.773   6.113  0.7452 -0.8758  0.5358
  899MOL0     O21254   3.648   0.891   6.189  1.5844 -0.2328 -0.0944
  899MOL0     C21255   3.764   0.918   6.254 -0.7756  0.8540 -0.1830
  899MOL0     C21256   3.868   0.824   6.256  0.1324  0.4724 -0.3105
  899MOL0     C21257   3.980   0.848   6.330  0.3112  0.0326 -0.5031
  899MOL0     C21258   3.985   0.957   6.409  0.1885 -0.6010  0.1209
  899MOL0     C21259   4.105   0.979   6.499 -0.0633 -0.4042  0.5617
  899MOL0     O21260   4.203   0.894   6.487  0.2047  0.3764 -0.0718
  899MOL0     C21261   4.309   0.915   6.577 -0.0408  0.1019  0.0573
  899MOL0     C21262   4.357   1.044   6.616  0.0992  0.0390  0.3399
  899MOL0     C21263   4.475   1.055   6.691  0.8472 -0.0383 -0.3863
  899MOL0     C21264   4.549   0.943   6.718  0.8058  0.5258 -0.4073
  899MOL0     O21265   4.671   0.939   6.784  0.8392 -1.1245  0.3752
  899MOL0     C21266   4.671   0.926   6.926 -0.5333  0.2736  0.5143
  899MOL0     C21267   4.816   0.937   6.967 -0.9527 -0.2621 -0.6322
  899MOL0     C21268   4.841   0.924   7.119  0.2456  0.5958  0.3792
  899MOL0     C21269   4.969   0.976   7.169  0.3017 -0.3040 -0.0467
  899MOL0     C21270   4.984   0.929   7.324 -0.0276  0.1335 -0.3651
  899MOL0     C21271   5.124   0.973   7.373  0.9632  0.6242 -0.6770
  899MOL0     C21272   5.152   0.910   7.516 -0.1362 -0.6459 -0.4914
  899MOL0     C21273   5.298   0.909   7.545 -0.2027 -0.5882  0.1322
  899MOL0    Cl21274   5.323   0.807   7.687  0.2188 -0.0844 -0.0859
  899MOL0     C21275   4.492   0.817   6.685  0.3636 -0.0653  0.3040
  899MOL0     C21276   4.367   0.802   6.629 -1.1186 -0.0241 -0.3414
  899MOL0     O21277   4.086   1.071   6.580 -0.3708  0.2829 -0.2642
  899MOL0     C21278   3.891   1.061   6.390 -0.5482 -0.1798 -0.7327
  899MOL0     C21279   3.778   1.038   6.311  0.1468 -0.3605  0.0249
  899MOL0     N21280   3.081   0.747   6.266 -0.4676 -0.5692  0.1906
  899MOL0     N21281   2.983   0.803   6.331  0.5094  0.8151 -0.9233
  899MOL0     C21282   2.098   0.756   5.705  0.6272  0.2116 -0.0609
  899MOL0     C21283   2.000   0.683   5.648  0.5374 -0.2896  0.0098
  899MOL0     C21284   1.607   0.598   5.474 -0.4858 -0.3019  0.6695
  899MOL0     C21285   1.555   0.471   5.496 -0.5592  0.8071 -0.0534
  899MOL0     C21286   1.471   0.405   5.400  0.1946  0.3297 -0.6648
  899MOL0     C21287   1.423   0.478   5.294  0.0164  0.2348  0.8525
  899MOL0     O21288   1.335   0.427   5.196 -0.3685  0.3582 -0.4297
  899MOL0     C21289   1.228   0.343   5.241  0.0516 -0.8986 -0.0636
  899MOL0     C21290   1.102   0.418   5.253  0.1222 -0.0945  0.0746
  899MOL0     C21291   1.120   0.555   5.323  0.0567 -0.3226  0.5595
  899MOL0     C21292   0.993   0.633   5.327  0.5422  0.0211  0.3408
  899MOL0     C21293   0.889   0.568   5.410  0.1346  0.3729  0.3544
  899MOL0     C21294   0.799   0.515   5.470  0.1947  0.4570 -0.2121
  899MOL0     C21295   1.488   0.600   5.274 -0.6088  0.9293 -0.5254
  899MOL0     C21296   1.581   0.656   5.351 -1.0689  0.2996 -0.1002
  899MOL0     C21297   1.654   0.773   5.294 -0.5569  0.1615  0.3996
  899MOL0     H21298   1.780   0.658   5.906  0.0856 -0.2839  0.5737
  899MOL0     H21299   1.953   0.804   6.009 -1.0245 -2.3473 -0.0984
  899MOL0     H21300   2.147   0.853   6.101  1.1135 -0.2660  1.3492
  899MOL0     H21301   2.249   0.737   6.019  0.9660 -0.2191  0.7073
  899MOL0     H21302   2.372   0.904   6.173  4.1414  2.7864  0.2941
  899MOL0     H21303   2.317   1.035   6.077  0.2609 -0.8957  1.8984
  899MOL0     H21304   2.437   0.873   5.888 -4.5070 -0.0883  1.9544
  899MOL0     H21305   2.534   0.821   6.022  2.4703  0.9678 -0.3788
  899MOL0     H21306   2.654   1.002   5.916  0.6397 -0.4458 -0.6181
  899MOL0     H21307   2.502   1.097   5.910 -0.8908  0.9920  2.0971
  899MOL0     H21308   2.674   1.184   6.047  3.0683 -2.3007 -0.0845
  899MOL0     H21309   2.522   1.165   6.142 -1.1761 -3.0127  1.6006
  899MOL0     H21310   2.608   0.972   6.250 -2.0285 -1.3551 -3.0953
  899MOL0     H21311   2.723   0.936   6.119  0.2458  0.4668 -1.7078
  899MOL0     H21312   2.727   1.173   6.313  1.4234  0.4447 -0.8452
  899MOL0     H21313   2.840   1.155   6.174 -1.3404  3.3539  0.5426
  899MOL0     H21314   2.932   1.103   6.396  1.0957  1.0852 -2.0692
  899MOL0     H21315   2.812   0.975   6.426  1.1817 -1.8143  0.3184
  899MOL0     H21316   3.045   1.036   6.107  0.8414  0.2746 -0.1648
  899MOL0     H21317   3.221   0.707   6.033 -2.1470 -0.1365 -1.0396
  899MOL0     H21318   3.224   0.886   6.001 -2.0397 -1.7773 -1.1680
  899MOL0     H21319   3.380   0.908   6.201  0.4237  1.3951 -1.2454
  899MOL0     H21320   3.357   0.728   6.220 -0.5503 -1.1069 -1.1717
  899MOL0     H21321   3.495   0.878   5.983 -1.5009 -0.2471 -0.9790
  899MOL0     H21322   3.457   0.699   5.988  0.4696 -1.6884  1.3563
  899MOL0     H21323   3.682   0.761   6.025 -2.2522 -0.2585 -1.8571
  899MOL0     H21324   3.632   0.680   6.170  4.7004 -0.8947 -0.1247
  899MOL0     H21325   3.861   0.728   6.207 -0.8355  1.0113 -1.2643
  899MOL0     H21326   4.057   0.772   6.327 -1.3467 -1.7305 -0.3086
  899MOL0     H21327   4.322   1.142   6.585  2.1418  0.7383  0.1239
  899MOL0     H21328   4.524   1.150   6.713  4.0247 -1.4062 -1.0459
  899MOL0     H21329   4.610   0.998   6.980  1.3261  1.7857  0.6977
  899MOL0     H21330   4.633   0.826   6.950  1.4278 -0.6494 -0.0028
  899MOL0     H21331   4.875   0.857   6.924  0.3607  0.3674 -0.0520
  899MOL0     H21332   4.852   1.035   6.935  0.7359 -0.8937 -0.7564
  899MOL0     H21333   4.758   0.973   7.170  2.1877  1.5581  2.9009
  899MOL0     H21334   4.844   0.817   7.141 -1.6058  0.6152  0.9038
  899MOL0     H21335   4.966   1.085   7.169 -0.8706 -0.2774  1.8234
  899MOL0     H21336   5.049   0.941   7.104 -1.0156 -5.7151  0.7494
  899MOL0     H21337   4.971   0.821   7.336  1.3735 -0.0257 -0.1137
  899MOL0     H21338   4.904   0.978   7.381 -0.6387 -1.8876  0.5932
  899MOL0     H21339   5.200   0.935   7.305 -0.4463 -1.2597 -1.2778
  899MOL0     H21340   5.125   1.082   7.387 -0.9546  0.2740  4.3478
  899MOL0     H21341   5.113   0.808   7.520 -0.6172 -0.4383  3.1789
  899MOL0     H21342   5.100   0.968   7.593 -0.0237  0.0890 -0.9579
  899MOL0     H21343   5.359   0.865   7.466 -0.3962 -0.3923 -0.1300
  899MOL0     H21344   5.332   1.012   7.559  1.9691 -0.8790 -2.2495
  899MOL0     H21345   4.548   0.730   6.719 -1.7122 -1.7778 -0.4198
  899MOL0     H21346   4.337   0.703   6.597  2.6351 -2.0227  1.5342
  899MOL0     H21347   3.915   1.159   6.428 -2.6026  0.4968 -1.0510
  899MOL0     H21348   3.709   1.114   6.276  2.6638  1.4499 -1.3810
  899MOL0     H21349   2.191   0.784   5.656  0.7274 -1.6899 -1.0176
  899MOL0     H21350   2.003   0.630   5.553  1.1390  1.2378 -0.8548
  899MOL0     H21351   1.594   0.414   5.580  0.2463  0.9540 -0.3237
  899MOL0     H21352   1.447   0.301   5.419 -0.6006  0.9887  2.3965
  899MOL0     H21353   1.252   0.299   5.338 -0.0687  1.4822  1.1280
  899MOL0     H21354   1.217   0.261   5.170 -0.5984 -1.8897  1.1441
  899MOL0     H21355   1.026   0.368   5.314  0.0627 -1.2920 -0.9334
  899MOL0     H21356   1.070   0.432   5.149 -1.3420  1.3005  0.6714
  899MOL0     H21357   1.201   0.613   5.279  0.1229  0.1732  1.3199
  899MOL0     H21358   1.153   0.538   5.426  0.7040  2.2542  0.8409
  899MOL0     H21359   1.017   0.736   5.355  0.1324  0.2779 -0.2289
  899MOL0     H21360   0.959   0.641   5.224  2.1633  0.2284 -0.2101
  899MOL0     H21361   0.724   0.479   5.537  0.1774 -0.7030 -0.8442
  899MOL0     H21362   1.457   0.656   5.187 -1.9651 -1.8880 -1.9960
  899MOL0     H21363   1.648   0.860   5.360  0.4457 -0.3597  1.2300
  899MOL0     H21364   1.758   0.737   5.286 -0.1158  1.6192 -0.6574
  899MOL0     H21365   1.620   0.797   5.193 -4.3924 -1.6323  1.0748
  900MOL0     O21366   2.403  10.209   1.654  1.2153  0.9378  0.0307
  900MOL0     C21367   2.285  10.234   1.624 -0.3679 -0.3467  0.9823
  900MOL0     O21368   2.234  10.356   1.624 -0.9916  0.0708  0.2171
  900MOL0     C21369   2.311  10.468   1.643 -0.6662  0.4048 -0.0341
  900MOL0     C21370   2.408  10.483   1.736  0.8001 -0.6380 -0.8047
  900MOL0     C21371   2.498  10.593   1.739 -0.0890  0.7049 -0.4916
  900MOL0     C21372   2.494  10.692   1.642 -0.8304 -0.2034 -1.4124
  900MOL0     O21373   2.579  10.796   1.618 -0.2248  0.2077 -1.7141
  900MOL0     C21374   2.704  10.806   1.690 -0.1669  0.8456 -0.6356
  900MOL0     C21375   2.783  10.920   1.624  0.5836 -0.2520 -0.0478
  900MOL0     C21376   2.930  10.920   1.678 -0.0508  0.9569 -0.4065
  900MOL0     C21377   3.008  11.024   1.592 -0.1242 -0.5689 -0.6260
  900MOL0     C21378   3.150  10.983   1.558 -1.2859  0.3863 -0.0552
  900MOL0     C21379   3.166  10.874   1.459 -0.4123 -0.1946 -0.2316
  900MOL0     C21380   3.311  10.833   1.425  0.2732  0.0341  0.2239
  900MOL0     C21381   3.405  10.950   1.369 -0.5816  0.3446  0.4709
  900MOL0     N21382   3.534  10.897   1.331  0.7536 -0.0967  0.7207
  900MOL0     C21383   3.641  10.970   1.278 -0.2110 -0.1650 -0.0839
  900MOL0     C21384   3.754  10.890   1.293 -0.0302  0.3258 -0.4382
  900MOL0     C21385   3.897  10.930   1.272  0.0899  0.8590  0.5723
  900MOL0     C21386   3.996  10.871   1.370  0.0537  0.4858  0.0600
  900MOL0     C21387   3.990  10.933   1.512 -0.1590  0.7269 -0.0434
  900MOL0     C21388   4.102  10.891   1.603  0.2322 -0.1041 -0.1548
  900MOL0     O21389   4.083  10.955   1.724  0.0857 -0.5674  0.5552
  900MOL0     C21390   4.179  10.972   1.821 -0.5024 -0.0035 -0.1905
  900MOL0     C21391   4.175  11.087   1.896  0.5331  0.2034 -0.0341
  900MOL0     C21392   4.267  11.112   1.999 -0.7108 -0.5665 -0.2830
  900MOL0     C21393   4.374  11.019   2.028  0.5297  0.4872  0.6883
  900MOL0     C21394   4.471  11.035   2.130  0.4599 -1.0595  0.0462
  900MOL0     O21395   4.537  10.929   2.162  0.3177  0.1128  0.5666
  900MOL0     C21396   4.650  10.932   2.238 -0.7327 -0.1584  0.8160
  900MOL0     C21397   4.647  10.992   2.364 -0.5054 -0.8427  0.0981
  900MOL0     C21398   4.768  11.007   2.439  1.1229  0.2281 -0.0394
  900MOL0     C21399   4.883  10.950   2.398  0.1003  0.1995  0.1844
  900MOL0     O21400   4.987  10.955   2.482  0.8228 -0.0873 -0.3488
  900MOL0     C21401   5.106  10.880   2.451  0.6126  0.6303 -1.2299
  900MOL0     C21402   5.215  10.917   2.547 -0.1092  0.6350 -1.1090
  900MOL0     C21403   5.336  10.819   2.547 -0.0690  0.1402 -0.2662
  900MOL0     C21404   5.451  10.881   2.630  0.7715  0.3298  0.4772
  900MOL0     C21405   5.573  10.780   2.641  0.3686 -0.2052  0.0449
  900MOL0     C21406   5.706  10.862   2.649  0.0116 -0.4741  1.0991
  900MOL0     C21407   5.820  10.775   2.706  0.4709  0.3579 -0.9350
  900MOL0     C21408   5.961  10.833   2.702 -0.5751  0.4012  0.4467
  900MOL0    Cl21409   6.025  10.848   2.539  0.0914 -0.1082 -0.1354
  900MOL0     C21410   4.876  10.872   2.284  0.3092 -1.3160 -0.1690
  900MOL0     C21411   4.759  10.864   2.203 -0.3031 -0.2923 -0.7550
  900MOL0     O21412   4.481  11.141   2.188  0.0146 -0.5383  0.0187
  900MOL0     C21413   4.384  10.904   1.941  0.4140  0.9766 -0.6061
  900MOL0     C21414   4.289  10.878   1.837  0.7004 -0.2870 -0.2865
  900MOL0     N21415   3.709  10.769   1.347  0.1481  0.6726 -0.2384
  900MOL0     N21416   3.582  10.781   1.376 -0.2352 -0.8951 -0.4766
  900MOL0     C21417   2.376  10.681   1.556 -0.1128  0.0508 -0.6210
  900MOL0     C21418   2.290  10.570   1.553 -1.2561 -0.3700  0.4643
  900MOL0     C21419   2.186  10.124   1.601  0.2365 -0.9845  0.1469
  900MOL0     C21420   2.048  10.158   1.627  0.0610 -0.0644  0.0215
  900MOL0     C21421   1.952  10.059   1.596 -0.0727  0.7496 -0.3206
  900MOL0     C21422   1.983   9.944   1.522 -1.2701  0.0071 -0.7927
  900MOL0     O21423   1.876   9.855   1.488 -0.0883 -0.2403 -0.1102
  900MOL0     C21424   1.917   9.726   1.432 -0.1365 -0.8760 -0.1241
  900MOL0     C21425   1.788   9.651   1.413  0.1432  0.8426 -0.5727
  900MOL0     C21426   1.811   9.506   1.367 -1.0549 -0.3655  0.2920
  900MOL0     C21427   1.676   9.437   1.362 -0.0867  0.9595  0.0750
  900MOL0     C21428   1.679   9.325   1.258 -0.0052  0.3347  0.2204
  900MOL0     C21429   1.679   9.239   1.170 -0.4625  0.5307 -0.4130
  900MOL0     C21430   2.119   9.936   1.479  0.4225  1.2817 -0.2289
  900MOL0     C21431   2.225  10.011   1.530  0.3689 -0.9266 -0.0786
  900MOL0     C21432   2.359   9.981   1.483 -0.3634 -0.9096 -0.7090
  900MOL0     H21433   2.414  10.408   1.814 -0.7033  2.6770  2.8983
  900MOL0     H21434   2.583  10.606   1.806 -0.1211 -0.2440 -0.2527
  900MOL0     H21435   2.693  10.818   1.798 -1.9593 -0.7818 -0.5862
  900MOL0     H21436   2.762  10.714   1.675 -1.3361 -0.6204  2.8625
  900MOL0     H21437   2.738  11.018   1.645  1.2155 -0.2176  1.2242
  900MOL0     H21438   2.778  10.926   1.515  1.3485  0.0567 -0.0778
  900MOL0     H21439   2.972  10.819   1.676 -1.7991  0.0322  2.7073
  900MOL0     H21440   2.938  10.949   1.783 -1.6932  1.1936 -0.3119
  900MOL0     H21441   2.962  11.054   1.497 -0.9282 -0.2929 -0.1650
  900MOL0     H21442   3.019  11.120   1.642  0.9777 -1.5154  1.0104
  900MOL0     H21443   3.200  11.075   1.525 -2.4231  1.5163  1.2285
  900MOL0     H21444   3.199  10.947   1.649 -1.2301  0.4657 -0.0528
  900MOL0     H21445   3.104  10.786   1.479 -0.3818 -0.6069 -1.8077
  900MOL0     H21446   3.131  10.907   1.361  1.4793  0.3017 -0.7928
  900MOL0     H21447   3.306  10.756   1.348  0.5101  0.2710 -0.0315
  900MOL0     H21448   3.354  10.787   1.515  2.2218 -2.3864 -1.7850
  900MOL0     H21449   3.362  10.982   1.274  0.6362  1.1544  0.1701
  900MOL0     H21450   3.401  11.035   1.438 -0.2630 -0.0657  1.0087
  900MOL0     H21451   3.656  11.074   1.250 -0.7013 -0.1444 -0.2762
  900MOL0     H21452   3.922  10.897   1.171  2.7941  2.1528  0.7404
  900MOL0     H21453   3.904  11.038   1.288  1.3053  0.5848  2.1232
  900MOL0     H21454   3.969  10.766   1.386  0.1261  0.4421 -0.1065
  900MOL0     H21455   4.094  10.889   1.325  0.2210  0.0199  0.2318
  900MOL0     H21456   3.905  10.900   1.572  2.5621 -0.3512  3.5827
  900MOL0     H21457   4.001  11.042   1.503  3.3620  0.5450  0.5488
  900MOL0     H21458   4.207  10.893   1.573  1.0292 -0.3006  2.3715
  900MOL0     H21459   4.079  10.787   1.626  1.8939  0.2248  3.8561
  900MOL0     H21460   4.092  11.153   1.872  2.0189  1.7760 -1.0301
  900MOL0     H21461   4.271  11.204   2.057  2.2812 -0.4714 -0.5216
  900MOL0     H21462   4.557  11.039   2.404  0.8664  0.7606  1.4680
  900MOL0     H21463   4.762  11.055   2.536  3.0126  0.7453 -0.1381
  900MOL0     H21464   5.070  10.777   2.456 -3.3038  1.5289 -4.6289
  900MOL0     H21465   5.147  10.893   2.351  6.0699  0.1669  0.6309
  900MOL0     H21466   5.248  11.016   2.515  0.8247 -0.0974 -2.5224
  900MOL0     H21467   5.187  10.925   2.653  2.5147  0.8262 -0.3595
  900MOL0     H21468   5.320  10.720   2.591 -0.2862  1.0412  1.7602
  900MOL0     H21469   5.379  10.792   2.450  1.7273 -0.3942  0.6229
  900MOL0     H21470   5.409  10.901   2.729  0.1709 -1.6883  0.6897
  900MOL0     H21471   5.482  10.973   2.579 -1.8973  0.4622 -1.1199
  900MOL0     H21472   5.563  10.709   2.557 -0.7728 -2.9649  2.3428
  900MOL0     H21473   5.562  10.727   2.736  0.3504  1.1900  0.8451
  900MOL0     H21474   5.730  10.883   2.544  3.3189 -0.8687  1.6650
  900MOL0     H21475   5.690  10.955   2.703 -3.2726  0.5216 -1.2361
  900MOL0     H21476   5.826  10.683   2.646 -1.5058 -0.7640  0.4741
  900MOL0     H21477   5.791  10.751   2.808  1.6809  0.3953 -0.5678
  900MOL0     H21478   5.964  10.938   2.733  1.9890  0.1354  1.3588
  900MOL0     H21479   6.027  10.770   2.762  1.0905  0.3131 -1.3625
  900MOL0     H21480   4.964  10.820   2.246  1.0523 -0.6897  0.6580
  900MOL0     H21481   4.767  10.808   2.110 -1.2783  1.7135 -2.1075
  900MOL0     H21482   4.468  10.837   1.958 -0.2290  0.4415  0.5487
  900MOL0     H21483   4.288  10.777   1.800 -0.3475 -0.4087  0.0561
  900MOL0     H21484   2.357  10.766   1.490 -2.1561  0.4849  0.4559
  900MOL0     H21485   2.202  10.575   1.490  0.6375  1.9805 -2.2185
  900MOL0     H21486   2.018  10.246   1.683 -0.0520 -1.0580  1.5822
  900MOL0     H21487   1.848  10.063   1.624  0.1378  0.6094  0.5190
  900MOL0     H21488   1.994   9.667   1.484  0.6801 -0.7274 -1.1310
  900MOL0     H21489   1.962   9.753   1.336  2.2789 -0.5728  1.0010
  900MOL0     H21490   1.732   9.697   1.332  0.3410 -0.0498 -1.2327
  900MOL0     H21491   1.733   9.644   1.508  0.7238 -1.8086 -0.3591
  900MOL0     H21492   1.877   9.453   1.436  0.4104 -0.0117 -0.8109
  900MOL0     H21493   1.853   9.509   1.266  0.9374 -4.6682  0.7850
  900MOL0     H21494   1.640   9.392   1.455  0.5103  0.2659 -0.0215
  900MOL0     H21495   1.605   9.510   1.322  0.4451  1.3952 -0.0738
  900MOL0     H21496   1.683   9.175   1.084  3.0137  0.9094 -0.6571
  900MOL0     H21497   2.156   9.864   1.408  2.3797  3.3550 -1.4470
  900MOL0     H21498   2.357   9.902   1.407 -0.4175 -1.0155 -0.5980
  900MOL0     H21499   2.403  10.066   1.430  0.8783 -0.7210  0.5673
  900MOL0     H21500   2.423   9.951   1.566  0.2806 -0.2408 -0.9542
  901MOL0     O21501   7.534   8.131   9.945 -0.3130  0.1813 -0.6145
  901MOL0     C21502   7.454   8.086  10.022 -0.0118  0.0101 -0.1750
  901MOL0     O21503   7.457   8.092  10.161 -0.0215  0.7973 -0.0254
  901MOL0     C21504   7.570   8.149  10.220  0.6700 -0.4003 -0.3438
  901MOL0     C21505   7.700   8.097  10.185 -0.1018 -0.3081  0.7831
  901MOL0     C21506   7.812   8.161  10.223 -0.4677  0.4421  1.1999
  901MOL0     C21507   7.803   8.282  10.299 -0.2276  0.5560  0.1072
  901MOL0     O21508   7.925   8.337  10.333 -0.8183 -0.1428 -0.0790
  901MOL0     C21509   8.003   8.393  10.224 -0.7776 -0.6567  0.5442
  901MOL0     C21510   8.028   8.546  10.247  0.0401 -0.6765  0.0296
  901MOL0     C21511   8.111   8.580  10.377 -0.8087 -0.6303 -0.2950
  901MOL0     C21512   8.126   8.737  10.381 -0.0731  0.1031  0.2189
  901MOL0     C21513   8.251   8.785  10.471 -0.0981  0.5330  0.5402
  901MOL0     C21514   8.218   8.761  10.623 -0.9113  0.2320  0.1323
  901MOL0     C21515   8.339   8.784  10.717 -0.7936  1.2402 -0.8417
  901MOL0     C21516   8.318   8.736  10.859  1.2014  0.4542  0.2959
  901MOL0     N21517   8.440   8.692  10.925 -0.4732 -0.3531  0.5678
  901MOL0     C21518   8.536   8.775  10.980  0.2864 -0.4488  1.2691
  901MOL0     C21519   8.622   8.692  11.041 -0.4746 -1.1857  0.3323
  901MOL0     C21520   8.754   8.748  11.097  0.4546  0.2962  0.0578
  901MOL0     C21521   8.727   8.788  11.238 -0.3945 -0.3443 -0.9658
  901MOL0     C21522   8.852   8.795  11.334 -0.1191 -0.8065  0.4215
  901MOL0     C21523   8.884   8.656  11.397  0.4444 -0.3107  0.0470
  901MOL0     O21524   8.987   8.686  11.496 -0.5206 -0.0699  0.3007
  901MOL0     C21525   9.116   8.636  11.459  0.9150  0.8993 -0.6518
  901MOL0     C21526   9.215   8.735  11.449 -0.0334  0.9365 -0.3055
  901MOL0     C21527   9.351   8.700  11.410 -1.3416  0.3868 -0.2006
  901MOL0     C21528   9.378   8.564  11.392  0.0269  0.0210  0.0282
  901MOL0     C21529   9.516   8.533  11.355 -0.2218 -0.5475  0.3427
  901MOL0     O21530   9.608   8.630  11.355  0.1340 -0.0923 -0.2460
  901MOL0     C21531   9.735   8.629  11.318 -0.0222 -0.2728  0.6624
  901MOL0     C21532   9.810   8.745  11.344  0.6970  0.3527  0.3822
  901MOL0     C21533   9.949   8.740  11.308 -0.1651 -0.1042  0.4226
  901MOL0     C21534  10.014   8.634  11.239  0.4387  0.6754 -0.1153
  901MOL0     O21535  10.149   8.643  11.219 -0.6463 -0.0038  0.3038
  901MOL0     C21536  10.202   8.591  11.101 -0.4943 -0.8366 -0.0692
  901MOL0     C21537  10.159   8.664  10.983  0.1361  0.3510  0.8296
  901MOL0     C21538  10.159   8.815  10.989 -0.3967  0.4172  0.0464
  901MOL0     C21539  10.303   8.872  10.989 -0.3179  0.3608 -0.4109
  901MOL0     C21540  10.291   9.030  11.009 -0.3329  1.1699 -0.3923
  901MOL0     C21541  10.211   9.106  10.898 -0.0320  0.0674 -0.5885
  901MOL0     C21542  10.268   9.247  10.879  0.4450  0.1938  0.1289
  901MOL0     C21543  10.169   9.326  10.797 -0.9544 -0.9223 -0.3715
  901MOL0    Cl21544  10.040   9.363  10.904  0.1607  0.0473  0.3129
  901MOL0     C21545   9.934   8.526  11.209 -0.2500  0.1319  0.3113
  901MOL0     C21546   9.797   8.519  11.251 -0.2849 -0.2781 -0.2327
  901MOL0     O21547   9.541   8.411  11.343  0.2943  0.5973 -0.0772
  901MOL0     C21548   9.280   8.467  11.421 -0.3721 -0.8344 -0.1338
  901MOL0     C21549   9.156   8.505  11.458  0.0088 -0.8538  0.3520
  901MOL0     N21550   8.590   8.562  11.012 -0.5311  0.2690  0.9719
  901MOL0     N21551   8.487   8.569  10.939  0.4420 -0.0753  0.5282
  901MOL0     C21552   7.679   8.331  10.332  0.2621 -0.4002 -0.4542
  901MOL0     C21553   7.565   8.265  10.299 -0.0830  0.2390  0.2351
  901MOL0     C21554   7.315   8.050   9.965  0.9558  1.1332  0.3521
  901MOL0     C21555   7.211   8.032  10.061  0.0151  0.9570  0.9177
  901MOL0     C21556   7.086   7.996  10.028 -0.2242  0.8211 -0.4697
  901MOL0     C21557   7.059   7.954   9.894 -0.1807 -0.2921  0.0115
  901MOL0     O21558   6.931   7.904   9.858  0.5587 -0.0628 -0.9050
  901MOL0     C21559   6.899   7.772   9.889 -0.3467  0.1991 -0.1433
  901MOL0     C21560   6.832   7.777  10.030 -0.5931  0.1477  0.5973
  901MOL0     C21561   6.756   7.644  10.053  0.5472 -0.4920 -0.2961
  901MOL0     C21562   6.690   7.653  10.194  0.0355  0.1122  0.3845
  901MOL0     C21563   6.612   7.535  10.227  0.1676 -0.1377 -0.2005
  901MOL0     C21564   6.543   7.437  10.251  0.1072 -0.5378  0.2767
  901MOL0     C21565   7.159   7.965   9.796  0.1692 -0.4991 -0.3835
  901MOL0     C21566   7.280   8.016   9.827 -0.1805  0.8538  0.0505
  901MOL0     C21567   7.379   8.027   9.716  0.7166  0.1436  0.5184
  901MOL0     H21568   7.718   8.003  10.134  2.4430  0.5245  0.0120
  901MOL0     H21569   7.910   8.127  10.190 -0.1293 -0.8583  3.2897
  901MOL0     H21570   8.094   8.334  10.209  1.1854  1.9164  1.5681
  901MOL0     H21571   7.956   8.381  10.125 -0.8122 -2.0224  0.7052
  901MOL0     H21572   7.937   8.607  10.252 -0.1573 -0.8113 -1.3745
  901MOL0     H21573   8.088   8.590  10.167 -1.1513  0.8185 -0.0828
  901MOL0     H21574   8.208   8.532  10.358 -1.1930 -1.4080 -0.3534
  901MOL0     H21575   8.068   8.540  10.469 -1.6442 -1.2102 -0.9187
  901MOL0     H21576   8.148   8.769  10.279 -1.4130  2.0879  0.4847
  901MOL0     H21577   8.030   8.777  10.414 -0.2669  1.0097 -1.3599
  901MOL0     H21578   8.337   8.728  10.435 -0.4403 -0.9929  1.9798
  901MOL0     H21579   8.273   8.890  10.451  0.5014 -0.1606 -3.3331
  901MOL0     H21580   8.133   8.826  10.645 -1.4799 -0.0677 -1.0898
  901MOL0     H21581   8.188   8.656  10.632 -0.1931  0.0890  1.0663
  901MOL0     H21582   8.366   8.890  10.715  1.4859  0.6944 -1.2923
  901MOL0     H21583   8.420   8.720  10.683 -2.0720 -1.2840  0.5369
  901MOL0     H21584   8.261   8.810  10.916  1.4556  0.7516  0.1698
  901MOL0     H21585   8.258   8.645  10.853  0.6197  0.7614  1.1908
  901MOL0     H21586   8.538   8.883  10.972  0.0763 -0.5699 -1.3986
  901MOL0     H21587   8.825   8.665  11.108 -1.2653 -1.1758  0.7360
  901MOL0     H21588   8.803   8.833  11.049  0.9933  1.3640  2.3712
  901MOL0     H21589   8.677   8.885  11.241  2.7214  1.5037 -2.6241
  901MOL0     H21590   8.667   8.711  11.287  1.8625 -1.4004  0.2887
  901MOL0     H21591   8.844   8.863  11.419 -0.3114 -0.6122  0.2462
  901MOL0     H21592   8.937   8.834  11.276 -0.5419  3.0569  2.1069
  901MOL0     H21593   8.927   8.584  11.327  0.7996 -0.9364  0.8878
  901MOL0     H21594   8.795   8.607  11.436  1.3377 -2.3013 -0.3171
  901MOL0     H21595   9.173   8.834  11.462 -0.5133  0.6308  0.5693
  901MOL0     H21596   9.427   8.777  11.406  0.0644 -0.8492  1.1498
  901MOL0     H21597   9.766   8.834  11.387  1.2293  2.0946 -2.3909
  901MOL0     H21598  10.007   8.830  11.328 -0.0722 -0.1434  0.3332
  901MOL0     H21599  10.311   8.604  11.097 -0.6131  0.3308  0.1484
  901MOL0     H21600  10.191   8.482  11.099 -0.5868 -0.8292  0.1021
  901MOL0     H21601  10.218   8.631  10.898 -1.6189 -1.2749  0.1734
  901MOL0     H21602  10.058   8.630  10.958  0.6717 -0.4761 -0.3320
  901MOL0     H21603  10.115   8.840  10.892  0.7867  1.9816 -0.1272
  901MOL0     H21604  10.098   8.860  11.068 -1.4698  1.8379 -1.5257
  901MOL0     H21605  10.351   8.842  10.896 -0.6806 -0.0489 -0.4684
  901MOL0     H21606  10.359   8.829  11.072 -1.8609  1.1249  1.0893
  901MOL0     H21607  10.391   9.073  11.016 -0.0075  0.2143  1.6860
  901MOL0     H21608  10.249   9.043  11.109  2.7440 -2.4341  1.6398
  901MOL0     H21609  10.228   9.049  10.806 -3.1480 -1.7575 -0.1694
  901MOL0     H21610  10.104   9.098  10.918 -0.2267  1.5228 -0.9071
  901MOL0     H21611  10.355   9.250  10.813 -0.8841  2.6881 -1.6605
  901MOL0     H21612  10.300   9.296  10.971  3.2949 -0.3257 -0.4620
  901MOL0     H21613  10.203   9.422  10.758 -0.5127 -1.0428 -0.2883
  901MOL0     H21614  10.136   9.272  10.708 -3.5601  1.0840 -0.7739
  901MOL0     H21615   9.968   8.446  11.144  0.6767  0.7245  0.0424
  901MOL0     H21616   9.741   8.427  11.233  0.8855 -1.4301  1.6659
  901MOL0     H21617   9.303   8.362  11.405  3.1130 -0.5416  1.7997
  901MOL0     H21618   9.084   8.424  11.458  0.9661 -1.7257  0.6887
  901MOL0     H21619   7.678   8.430  10.376 -0.2480  0.2414 -1.8571
  901MOL0     H21620   7.465   8.295  10.328 -0.8720  0.1599 -2.1639
  901MOL0     H21621   7.231   8.054  10.166  0.1814  1.9944  0.6769
  901MOL0     H21622   7.010   8.000  10.106 -1.8703 -1.7782 -1.7710
  901MOL0     H21623   6.987   7.707   9.898 -0.2550  0.0550 -1.8076
  901MOL0     H21624   6.838   7.730   9.809 -0.7695  0.3862  0.0765
  901MOL0     H21625   6.777   7.871  10.041  0.7953  1.1903 -0.9355
  901MOL0     H21626   6.908   7.770  10.108 -0.9089 -2.1312  0.7466
  901MOL0     H21627   6.812   7.551  10.041  1.1752 -0.5878  2.5498
  901MOL0     H21628   6.675   7.641   9.980 -1.8706  1.1379  2.1254
  901MOL0     H21629   6.768   7.678  10.266  2.0889  1.6410 -2.1912
  901MOL0     H21630   6.621   7.737  10.202 -0.4390 -0.3660  1.5812
  901MOL0     H21631   6.497   7.340  10.258 -0.3883 -0.5211 -2.0323
  901MOL0     H21632   7.141   7.929   9.695 -0.1414  1.2810 -0.9933
  901MOL0     H21633   7.336   8.010   9.616  0.7961  0.2916  0.4579
  901MOL0     H21634   7.409   8.132   9.720 -4.3846  1.8464  3.9222
  901MOL0     H21635   7.472   7.971   9.724  1.6113  1.0454 -2.1868
  902MOL0     O21636   0.066   6.581   9.394  0.4687  0.1209 -0.1476
  902MOL0     C21637  -0.053   6.563   9.433 -0.6581  0.0323  0.1019
  902MOL0     O21638  -0.096   6.560   9.566  0.5316 -0.9853  0.6604
  902MOL0     C21639  -0.022   6.599   9.675 -0.1729  0.4753 -1.1704
  902MOL0     C21640   0.113   6.560   9.688 -0.8901 -0.1382  0.5321
  902MOL0     C21641   0.195   6.615   9.782 -0.5299 -0.0266  0.9307
  902MOL0     C21642   0.141   6.713   9.873 -0.4488 -0.2308 -0.1140
  902MOL0     O21643   0.220   6.756   9.975 -0.1962  0.4206  1.0601
  902MOL0     C21644   0.194   6.883  10.033  0.1621 -0.7629  0.7949
  902MOL0     C21645   0.305   6.902  10.138  0.4476  0.1199  0.2396
  902MOL0     C21646   0.344   6.780  10.223 -1.6208  0.2994 -0.6992
  902MOL0     C21647   0.444   6.810  10.343  0.3050 -0.1182 -0.1316
  902MOL0     C21648   0.562   6.899  10.303 -0.6650  0.2443 -0.1633
  902MOL0     C21649   0.662   6.903  10.422  0.4674  0.0712  0.6184
  902MOL0     C21650   0.773   6.802  10.417  0.1340  0.1573  0.9861
  902MOL0     C21651   0.858   6.813  10.546 -0.6840  0.9476  1.0255
  902MOL0     N21652   0.953   6.704  10.555 -0.4305 -0.5494  0.5917
  902MOL0     C21653   1.074   6.704  10.492 -0.2444 -0.2407  0.2195
  902MOL0     C21654   1.116   6.581  10.531  0.2763  0.6564 -0.0557
  902MOL0     C21655   1.247   6.508  10.500 -0.1976 -0.8083 -0.0719
  902MOL0     C21656   1.356   6.533  10.605  0.1556 -0.5170  0.1991
  902MOL0     C21657   1.412   6.668  10.601 -0.3383 -0.1858  0.1478
  902MOL0     C21658   1.556   6.667  10.636  0.2777 -0.5134  0.2999
  902MOL0     O21659   1.581   6.620  10.768  0.4741 -0.2631 -0.6965
  902MOL0     C21660   1.711   6.602  10.811  0.4216 -0.5823  0.5174
  902MOL0     C21661   1.827   6.616  10.730 -1.0924 -0.2332 -0.6025
  902MOL0     C21662   1.957   6.591  10.784 -0.1919 -0.0187  0.5244
  902MOL0     C21663   1.977   6.564  10.921 -0.1729 -0.7090  0.1709
  902MOL0     C21664   2.109   6.527  10.965 -0.5609  0.3147 -0.9468
  902MOL0     O21665   2.211   6.533  10.875  0.5929  0.0388  0.2972
  902MOL0     C21666   2.346   6.503  10.915 -0.0051  0.0715  1.1540
  902MOL0     C21667   2.411   6.407  10.837 -0.3592 -0.3983  0.0150
  902MOL0     C21668   2.534   6.357  10.870  0.2052  0.3586  0.0910
  902MOL0     C21669   2.599   6.408  10.986 -0.0756  0.4021 -0.2399
  902MOL0     O21670   2.728   6.391  11.022  0.5801  0.5998  0.0917
  902MOL0     C21671   2.802   6.301  10.936  1.0724 -0.0093 -1.2630
  902MOL0     C21672   2.941   6.316  10.986 -0.2359 -0.3612  0.4498
  902MOL0     C21673   3.018   6.200  10.921  0.1101 -0.3828 -0.0058
  902MOL0     C21674   3.157   6.207  10.991 -0.5348 -0.1779  0.1940
  902MOL0     C21675   3.276   6.149  10.918 -0.0334  0.7478  0.2865
  902MOL0     C21676   3.262   5.997  10.910  0.2849 -0.1679  0.8627
  902MOL0     C21677   3.377   5.931  10.839  0.4525 -0.5967  1.2311
  902MOL0     C21678   3.484   5.879  10.937  0.4545 -0.7231  0.1579
  902MOL0    Cl21679   3.604   5.998  11.009  0.3286 -0.9171 -0.3332
  902MOL0     C21680   2.535   6.513  11.058  0.5411  0.4146  0.1912
  902MOL0     C21681   2.408   6.564  11.029  0.6633 -0.1750  0.5554
  902MOL0     O21682   2.118   6.501  11.084 -0.1143 -0.9313 -0.9835
  902MOL0     C21683   1.857   6.545  10.996 -0.1598  0.0933  0.0386
  902MOL0     C21684   1.729   6.567  10.940 -0.0261  0.8572 -0.7531
  902MOL0     N21685   1.023   6.513  10.608 -0.6144 -0.7008 -0.2749
  902MOL0     N21686   0.919   6.589  10.608  0.8255  0.1323  0.1613
  902MOL0     C21687   0.007   6.753   9.855  0.4161 -0.7146  0.1101
  902MOL0     C21688  -0.073   6.700   9.753 -0.2322  0.8156 -0.6013
  902MOL0     C21689  -0.154   6.531   9.323  0.8560  0.3641  0.5082
  902MOL0     C21690  -0.286   6.582   9.317 -0.0456  0.1018 -0.6911
  902MOL0     C21691  -0.376   6.559   9.219  0.3815  0.2532 -0.2699
  902MOL0     C21692  -0.348   6.457   9.131  0.1018 -0.2344 -0.2764
  902MOL0     O21693  -0.430   6.418   9.023  0.0168 -0.0876 -0.6977
  902MOL0     C21694  -0.556   6.481   9.004  0.0648 -0.5180 -0.5615
  902MOL0     C21695  -0.595   6.443   8.863  0.2449 -0.3938 -0.0670
  902MOL0     C21696  -0.507   6.509   8.757  0.3212  0.2607 -0.6832
  902MOL0     C21697  -0.558   6.492   8.610 -0.0100  0.1228 -0.4079
  902MOL0     C21698  -0.460   6.522   8.505  0.0398  0.0304 -1.1723
  902MOL0     C21699  -0.381   6.568   8.422  0.3862  0.0937 -0.2654
  902MOL0     C21700  -0.221   6.395   9.141  0.5469  0.4924  0.2547
  902MOL0     C21701  -0.120   6.430   9.229  0.1034 -0.4295  0.9435
  902MOL0     C21702   0.012   6.367   9.207 -0.0221  0.5354  0.1592
  902MOL0     H21703   0.149   6.483   9.621 -5.6723 -0.9099 -1.6070
  902MOL0     H21704   0.298   6.581   9.784 -0.3905  0.2989 -0.0207
  902MOL0     H21705   0.204   6.951   9.948  0.4805  1.2385  2.3638
  902MOL0     H21706   0.102   6.905  10.087  0.2216  1.9255 -0.0663
  902MOL0     H21707   0.273   6.977  10.211  2.6562  0.5263  0.8608
  902MOL0     H21708   0.396   6.928  10.082 -1.6600  1.3084 -2.8878
  902MOL0     H21709   0.392   6.707  10.157 -2.1647  0.5211 -1.3547
  902MOL0     H21710   0.247   6.746  10.261 -2.1463  0.5250 -1.7992
  902MOL0     H21711   0.380   6.847  10.424 -1.4607  0.2586 -1.6375
  902MOL0     H21712   0.473   6.713  10.386 -0.4218 -0.2159  0.1598
  902MOL0     H21713   0.612   6.856  10.216  2.0453 -1.4349  2.0297
  902MOL0     H21714   0.532   6.999  10.272 -0.2320 -0.5315 -3.3769
  902MOL0     H21715   0.712   6.997  10.401  0.3239 -0.1719 -0.9210
  902MOL0     H21716   0.619   6.898  10.523  0.8326  1.0708  0.8263
  902MOL0     H21717   0.835   6.825  10.329  1.3209  0.1584  1.7950
  902MOL0     H21718   0.729   6.702  10.415 -0.8980  0.5449  2.4514
  902MOL0     H21719   0.909   6.910  10.554 -0.9072  1.0414  1.3546
  902MOL0     H21720   0.795   6.806  10.635 -0.4101 -3.6601  1.0717
  902MOL0     H21721   1.124   6.766  10.418  3.6122 -1.8560  1.1895
  902MOL0     H21722   1.239   6.399  10.496  0.5967 -0.8494 -1.0661
  902MOL0     H21723   1.284   6.525  10.398  1.0971  1.9399  0.7604
  902MOL0     H21724   1.329   6.500  10.705  2.9169 -0.5751  1.0222
  902MOL0     H21725   1.438   6.465  10.578 -0.6480 -1.7857  0.8743
  902MOL0     H21726   1.350   6.733  10.663 -0.6718 -0.8984  0.5812
  902MOL0     H21727   1.407   6.693  10.494 -0.6530  0.3892  0.2969
  902MOL0     H21728   1.603   6.763  10.616 -1.2334  0.1209 -0.4126
  902MOL0     H21729   1.604   6.606  10.559  0.6119  0.8099 -0.5666
  902MOL0     H21730   1.825   6.642  10.625 -2.2627 -0.7391 -0.7159
  902MOL0     H21731   2.043   6.589  10.717 -0.8189 -0.1081 -0.2945
  902MOL0     H21732   2.358   6.373  10.748  2.3852  0.8559 -2.2693
  902MOL0     H21733   2.578   6.274  10.816 -1.4373 -0.7983  0.4506
  902MOL0     H21734   2.769   6.199  10.956 -1.1436  0.9508  0.3237
  902MOL0     H21735   2.789   6.324  10.830 -1.4953 -0.3740 -1.0765
  902MOL0     H21736   2.978   6.417  10.965  1.0926 -0.2780  2.8261
  902MOL0     H21737   2.958   6.295  11.092  2.9195 -0.2315  0.0653
  902MOL0     H21738   2.965   6.105  10.934 -3.5367  1.3329 -1.0640
  902MOL0     H21739   3.025   6.209  10.813 -2.6104  1.1512 -0.1311
  902MOL0     H21740   3.153   6.153  11.085 -0.0344  3.4067  2.4724
  902MOL0     H21741   3.175   6.311  11.020 -1.0177  0.2368 -0.9360
  902MOL0     H21742   3.371   6.164  10.971 -0.3534 -0.2357  1.1628
  902MOL0     H21743   3.285   6.195  10.819  3.3035 -1.7023 -0.7537
  902MOL0     H21744   3.232   5.965  11.010 -1.8563  0.2007  0.3951
  902MOL0     H21745   3.177   5.964  10.849  1.2293  0.1912 -0.6843
  902MOL0     H21746   3.418   5.989  10.756  2.1556 -0.1904  2.3080
  902MOL0     H21747   3.334   5.838  10.799 -2.4957  0.5948  1.3535
  902MOL0     H21748   3.428   5.840  11.023  0.1850 -1.2946 -0.2747
  902MOL0     H21749   3.547   5.802  10.893 -0.8170 -0.8438 -1.5756
  902MOL0     H21750   2.594   6.546  11.143 -0.1127  0.4975  0.6197
  902MOL0     H21751   2.357   6.639  11.088  2.0916 -0.3428  2.0857
  902MOL0     H21752   1.866   6.526  11.102 -0.7949  1.0065  0.2567
  902MOL0     H21753   1.641   6.559  11.003  0.4421  1.1120 -0.0520
  902MOL0     H21754  -0.028   6.838   9.914  1.7636  0.5890 -0.8763
  902MOL0     H21755  -0.178   6.725   9.745 -0.5334  0.3433  1.3357
  902MOL0     H21756  -0.316   6.642   9.402  0.3473 -0.7233  0.0462
  902MOL0     H21757  -0.475   6.602   9.216  0.9448  1.6522  0.5404
  902MOL0     H21758  -0.555   6.589   9.022 -1.8243 -0.4866 -0.4182
  902MOL0     H21759  -0.628   6.437   9.075 -1.2934  0.3016 -1.3782
  902MOL0     H21760  -0.697   6.474   8.839 -0.2885 -1.6350  0.5299
  902MOL0     H21761  -0.586   6.335   8.852  0.5208 -0.3037 -0.7135
  902MOL0     H21762  -0.406   6.467   8.766  0.2350  0.4949  1.8451
  902MOL0     H21763  -0.512   6.617   8.770  0.3735  0.0856  1.0002
  902MOL0     H21764  -0.581   6.385   8.599  0.6913 -0.3001  1.6849
  902MOL0     H21765  -0.650   6.544   8.585  1.4791  2.0718 -2.1813
  902MOL0     H21766  -0.317   6.619   8.352  0.0299 -0.6431 -1.1552
  902MOL0     H21767  -0.199   6.330   9.057  1.2466  0.9021  0.1206
  902MOL0     H21768   0.036   6.307   9.295 -0.2871  0.2137  0.0158
  902MOL0     H21769   0.010   6.296   9.123 -0.1740 -1.2283  1.6023
  902MOL0     H21770   0.091   6.442   9.205 -0.8777  1.4745  0.5229
  903MOL0     O21771   7.747  10.963   8.113  1.0369 -0.0692  0.1745
  903MOL0     C21772   7.689  10.959   8.001 -0.3549 -0.4176  0.3623
  903MOL0     O21773   7.748  11.003   7.887 -0.1850 -0.1775 -0.2853
  903MOL0     C21774   7.877  11.045   7.899 -0.6176 -0.1956 -0.6204
  903MOL0     C21775   7.915  11.175   7.937 -0.0688  0.1524 -0.1537
  903MOL0     C21776   8.050  11.212   7.954  0.5387 -0.3965  0.3011
  903MOL0     C21777   8.151  11.124   7.923  0.6974  0.1040  0.7006
  903MOL0     O21778   8.281  11.170   7.944  0.2261  0.0059 -0.2574
  903MOL0     C21779   8.386  11.074   7.971  0.2247  0.9372  0.6051
  903MOL0     C21780   8.528  11.115   7.986 -0.3079  0.8362 -0.2680
  903MOL0     C21781   8.555  11.233   8.069  0.1226  0.6092 -0.7598
  903MOL0     C21782   8.521  11.363   7.986  0.8890  0.0727  0.0323
  903MOL0     C21783   8.604  11.486   8.045  0.2746 -0.1634  0.3122
  903MOL0     C21784   8.755  11.500   7.990 -0.0413 -0.6065 -0.2617
  903MOL0     C21785   8.820  11.633   8.037 -0.5058 -0.4975 -0.2033
  903MOL0     C21786   8.957  11.663   7.967  0.5049 -0.7178  0.7377
  903MOL0     N21787   9.058  11.562   7.968 -0.3494 -0.0809 -0.0771
  903MOL0     C21788   9.152  11.546   8.066  0.1394  0.0900 -0.0495
  903MOL0     C21789   9.213  11.431   8.029  0.8150 -0.4827 -0.4816
  903MOL0     C21790   9.311  11.351   8.111  0.5074  0.0802  0.0970
  903MOL0     C21791   9.300  11.402   8.262 -0.3488  1.2048 -0.1220
  903MOL0     C21792   9.365  11.302   8.363  0.3380  0.1123  0.6374
  903MOL0     C21793   9.521  11.332   8.365 -0.4503  0.1220  0.2549
  903MOL0     O21794   9.593  11.292   8.248  0.3728  0.5554 -0.0951
  903MOL0     C21795   9.735  11.289   8.235  1.1683 -0.7294 -0.2104
  903MOL0     C21796   9.793  11.235   8.122  0.3272 -0.3169  0.5616
  903MOL0     C21797   9.933  11.246   8.100 -0.1870  0.2529 -0.2169
  903MOL0     C21798  10.016  11.314   8.198  0.7759  0.5556 -0.4051
  903MOL0     C21799  10.162  11.332   8.170 -1.4545 -0.3608 -0.2861
  903MOL0     O21800  10.218  11.451   8.185 -0.1399  0.4109  0.0420
  903MOL0     C21801  10.351  11.463   8.157  0.1061 -0.3834  0.0364
  903MOL0     C21802  10.442  11.511   8.255 -0.4822 -0.0492 -0.0912
  903MOL0     C21803  10.576  11.529   8.207  1.0937  0.6283 -0.3774
  903MOL0     C21804  10.615  11.524   8.074  0.1279  0.8604  0.0404
  903MOL0     O21805  10.736  11.534   8.015 -0.0097 -0.5095 -0.0966
  903MOL0     C21806  10.833  11.605   8.095  0.4048 -0.3301 -0.2922
  903MOL0     C21807  10.970  11.619   8.026 -0.5323  0.4301 -0.7466
  903MOL0     C21808  10.959  11.727   7.918  0.1816 -0.5247 -0.0853
  903MOL0     C21809  11.090  11.787   7.870 -0.6001 -0.1874  0.0878
  903MOL0     C21810  11.057  11.904   7.773 -0.9421 -0.6520 -0.3471
  903MOL0     C21811  11.182  11.980   7.751 -0.4236  0.4403  0.3784
  903MOL0     C21812  11.267  11.923   7.638  0.2883  0.0507  0.7426
  903MOL0     C21813  11.386  12.001   7.605 -0.3310 -1.0056 -1.3058
  903MOL0    Cl21814  11.371  12.133   7.491 -0.2423  0.1387  0.1176
  903MOL0     C21815  10.519  11.489   7.982  0.4470  0.5220  0.0736
  903MOL0     C21816  10.387  11.457   8.022 -0.5922 -0.4012 -0.3256
  903MOL0     O21817  10.219  11.229   8.135 -0.6555 -0.7520 -0.2702
  903MOL0     C21818   9.947  11.355   8.318  0.2209  0.3600 -0.0441
  903MOL0     C21819   9.813  11.348   8.332  0.4965 -0.4777  0.2527
  903MOL0     N21820   9.165  11.383   7.902  0.1100  0.1034 -0.1717
  903MOL0     N21821   9.065  11.456   7.878  0.3755 -0.0703 -0.3429
  903MOL0     C21822   8.116  10.998   7.876  0.0360 -0.3169 -0.7790
  903MOL0     C21823   7.987  10.959   7.869 -0.0310 -0.6123 -0.2113
  903MOL0     C21824   7.547  10.916   8.004  0.3103 -0.5552 -0.4629
  903MOL0     C21825   7.456  10.958   7.901  0.6914 -0.2438  0.0828
  903MOL0     C21826   7.321  10.911   7.906 -0.1582 -0.3538  0.2882
  903MOL0     C21827   7.287  10.807   7.995  0.9339  0.3080 -0.2903
  903MOL0     O21828   7.161  10.744   8.006  0.8273 -1.1193  0.6955
  903MOL0     C21829   7.055  10.784   7.905 -0.3991 -0.1990 -0.7191
  903MOL0     C21830   6.924  10.709   7.940 -0.4453  0.5055 -0.5121
  903MOL0     C21831   6.856  10.762   8.070  0.3530  0.1346  0.7388
  903MOL0     C21832   6.749  10.683   8.135 -0.7927 -0.2292 -0.0414
  903MOL0     C21833   6.650  10.630   8.034 -0.2807 -0.0665 -0.7148
  903MOL0     C21834   6.563  10.590   7.959  0.4879  0.4824  1.1839
  903MOL0     C21835   7.387  10.760   8.079  0.3068 -0.9184 -0.2363
  903MOL0     C21836   7.502  10.825   8.098  0.1098  0.7717 -0.6358
  903MOL0     C21837   7.577  10.756   8.215  0.2434 -0.2584  0.1050
  903MOL0     H21838   7.832  11.239   7.964 -0.8075 -0.9971  0.3342
  903MOL0     H21839   8.072  11.313   7.987 -0.2044 -0.5884  1.4177
  903MOL0     H21840   8.355  11.030   8.066 -0.5104  0.6008  0.2161
  903MOL0     H21841   8.390  10.992   7.899 -0.1921  0.1408  1.4694
  903MOL0     H21842   8.569  11.130   7.885  0.8272  3.4124  0.4934
  903MOL0     H21843   8.581  11.028   8.027 -2.6846 -1.2398 -1.3372
  903MOL0     H21844   8.660  11.235   8.097  0.3214 -3.0923 -0.8244
  903MOL0     H21845   8.500  11.233   8.164  2.6097 -2.1058  0.8245
  903MOL0     H21846   8.565  11.361   7.886  0.4614  2.6366 -0.2919
  903MOL0     H21847   8.413  11.378   7.981  0.6589 -1.4549  0.1350
  903MOL0     H21848   8.568  11.586   8.018  1.9470  0.7238  1.1802
  903MOL0     H21849   8.610  11.476   8.153  0.1407  0.9917  0.4406
  903MOL0     H21850   8.813  11.411   8.015 -1.5225 -1.6961 -0.5771
  903MOL0     H21851   8.750  11.504   7.880 -0.4415 -2.1729 -0.3180
  903MOL0     H21852   8.851  11.615   8.141 -0.5500 -2.3446 -0.4715
  903MOL0     H21853   8.751  11.717   8.034 -0.0262  0.0183  1.6252
  903MOL0     H21854   8.934  11.693   7.864 -1.5878  1.0515  1.6179
  903MOL0     H21855   8.997  11.751   8.018 -0.6217  0.4032 -0.2368
  903MOL0     H21856   9.172  11.607   8.154 -2.1336 -2.5884  2.5365
  903MOL0     H21857   9.292  11.243   8.111 -1.2833  0.2404  3.8996
  903MOL0     H21858   9.414  11.369   8.077  0.6046  0.1364  0.4169
  903MOL0     H21859   9.342  11.503   8.269  1.3648  0.4658  0.8105
  903MOL0     H21860   9.196  11.400   8.295 -0.0483 -0.8032  0.8215
  903MOL0     H21861   9.355  11.197   8.334 -0.1043 -0.3735  2.4161
  903MOL0     H21862   9.310  11.312   8.457 -1.7924 -2.2144 -0.2362
  903MOL0     H21863   9.565  11.282   8.452  1.2763  2.0354  0.5410
  903MOL0     H21864   9.536  11.438   8.384  2.5059 -0.6175  2.8984
  903MOL0     H21865   9.725  11.178   8.059 -0.5284 -0.4479  1.5700
  903MOL0     H21866   9.971  11.215   8.003  1.9892  2.0691 -0.0265
  903MOL0     H21867  10.424  11.513   8.362 -0.4767 -2.9654  0.0393
  903MOL0     H21868  10.649  11.551   8.283 -1.2721 -0.9648  2.5670
  903MOL0     H21869  10.790  11.700   8.127  0.2487 -0.8647  1.1455
  903MOL0     H21870  10.853  11.559   8.192  0.8397  1.0841  0.3167
  903MOL0     H21871  11.044  11.645   8.102 -2.7329 -0.0932  1.7357
  903MOL0     H21872  11.016  11.530   7.982 -1.1555  0.0721 -0.6944
  903MOL0     H21873  10.904  11.687   7.832 -1.7649 -2.4107  1.9158
  903MOL0     H21874  10.885  11.794   7.963 -2.7014 -3.4620 -0.0473
  903MOL0     H21875  11.166  11.725   7.821  1.0699  0.7751  1.3381
  903MOL0     H21876  11.145  11.823   7.957 -0.4648  1.2985 -0.5700
  903MOL0     H21877  10.983  11.963   7.827  1.4141 -0.0800  2.4637
  903MOL0     H21878  11.012  11.868   7.679 -1.7371 -1.1250  0.1993
  903MOL0     H21879  11.151  12.080   7.718 -0.3106  0.5137  0.4947
  903MOL0     H21880  11.232  11.986   7.848  0.9646  1.0916 -0.3514
  903MOL0     H21881  11.205  11.910   7.549 -2.5816  3.6387  1.9449
  903MOL0     H21882  11.297  11.822   7.668  0.0746  0.2523  1.6859
  903MOL0     H21883  11.435  12.031   7.699 -0.3351  0.2488 -1.6872
  903MOL0     H21884  11.454  11.926   7.563 -1.6498 -2.1370 -1.4950
  903MOL0     H21885  10.539  11.475   7.876  1.0721 -0.1143  0.2687
  903MOL0     H21886  10.319  11.448   7.938 -0.9563  1.7667 -0.3159
  903MOL0     H21887  10.003  11.409   8.394  2.0243  0.0080 -1.0756
  903MOL0     H21888   9.772  11.398   8.420  2.4452  0.8999  0.4536
  903MOL0     H21889   8.193  10.930   7.842  1.6800  1.4864 -0.8485
  903MOL0     H21890   7.955  10.859   7.839 -0.7857  0.4879 -3.5053
  903MOL0     H21891   7.492  11.023   7.822 -0.5141  1.3376  0.7760
  903MOL0     H21892   7.247  10.953   7.838 -0.1232 -0.4908  0.1640
  903MOL0     H21893   7.082  10.771   7.800  0.9563 -0.8117 -0.3135
  903MOL0     H21894   7.053  10.893   7.919 -0.2270 -0.3129  0.2787
  903MOL0     H21895   6.960  10.607   7.959 -0.7849 -0.0712 -2.6543
  903MOL0     H21896   6.855  10.708   7.855  1.5120  0.2920 -2.1760
  903MOL0     H21897   6.818  10.860   8.040 -1.6896 -0.0537  2.4589
  903MOL0     H21898   6.931  10.783   8.147  2.2184  0.4895 -1.0836
  903MOL0     H21899   6.797  10.610   8.200 -3.4821 -1.7035  0.4228
  903MOL0     H21900   6.701  10.745   8.211 -0.7450  0.1269 -0.3000
  903MOL0     H21901   6.482  10.562   7.895 -1.6738  3.4055  2.4237
  903MOL0     H21902   7.355  10.684   8.149 -1.2090  0.7141  0.9385
  903MOL0     H21903   7.530  10.661   8.239 -1.0318 -0.7664 -3.7758
  903MOL0     H21904   7.683  10.737   8.192 -0.2048 -0.2796 -2.1239
  903MOL0     H21905   7.571  10.815   8.307  0.2619  3.0442 -1.8474
  904MOL0     O21906   9.769   0.131   0.078  0.5481 -0.1573 -0.3619
  904MOL0     C21907   9.756   0.024   0.137  0.7509 -0.2651 -0.3163
  904MOL0     O21908   9.849  -0.064   0.166 -0.4122  0.0285 -0.0107
  904MOL0     C21909   9.972  -0.034   0.117  0.6092  0.1158  0.1481
  904MOL0     C21910  10.020  -0.096   0.001 -1.1392 -0.3041  0.9361
  904MOL0     C21911  10.144  -0.053  -0.053  0.3632  0.3559  0.8818
  904MOL0     C21912  10.220   0.055   0.004  0.6357  0.1216 -0.0552
  904MOL0     O21913  10.317   0.120  -0.063  0.2948  0.0024 -0.3314
  904MOL0     C21914  10.419   0.033  -0.116 -0.2554  0.2102  0.5588
  904MOL0     C21915  10.555   0.095  -0.138  0.6506 -1.1645 -0.6880
  904MOL0     C21916  10.583   0.194  -0.016 -0.6428 -0.6551  0.1164
  904MOL0     C21917  10.709   0.276  -0.050 -1.1164 -0.0474 -0.3254
  904MOL0     C21918  10.791   0.322   0.075  0.2601 -0.2819  0.6244
  904MOL0     C21919  10.735   0.419   0.186  0.4395 -0.6086 -0.6911
  904MOL0     C21920  10.689   0.554   0.129 -0.1994  0.5104 -0.6909
  904MOL0     C21921  10.607   0.650   0.218 -0.2725  0.4692  0.1265
  904MOL0     N21922  10.474   0.582   0.233 -0.2077  0.1553 -0.6241
  904MOL0     C21923  10.362   0.601   0.147 -0.1549  0.4784 -0.0208
  904MOL0     C21924  10.277   0.510   0.196  0.5734 -0.9937 -0.4937
  904MOL0     C21925  10.138   0.486   0.141 -1.1410  0.8650  0.3310
  904MOL0     C21926  10.025   0.509   0.243  0.2699 -0.0296  0.0834
  904MOL0     C21927   9.889   0.463   0.195  1.1083  0.9476 -0.1780
  904MOL0     C21928   9.782   0.446   0.301  0.0808  0.2474  0.6337
  904MOL0     O21929   9.658   0.436   0.229 -0.1802  0.3392 -0.6743
  904MOL0     C21930   9.538   0.397   0.293 -0.2526  0.4740  0.4901
  904MOL0     C21931   9.420   0.469   0.282 -0.5815  0.3135  1.0664
  904MOL0     C21932   9.300   0.414   0.305  0.4945  0.7624 -0.6795
  904MOL0     C21933   9.282   0.296   0.379 -0.3483 -0.2653 -0.3665
  904MOL0     C21934   9.160   0.235   0.414  1.0660 -0.4032 -0.0259
  904MOL0     O21935   9.150   0.148   0.527  0.1636 -1.0475  0.0034
  904MOL0     C21936   9.032   0.144   0.592  0.5906  0.8404 -0.3064
  904MOL0     C21937   8.920   0.077   0.533 -0.4438  0.4041 -0.0454
  904MOL0     C21938   8.806   0.041   0.601  1.1217 -0.6110  0.1087
  904MOL0     C21939   8.797   0.063   0.735 -0.3455 -0.2484 -0.7223
  904MOL0     O21940   8.671   0.048   0.790 -0.5345  1.1736 -0.8144
  904MOL0     C21941   8.663   0.080   0.925 -0.0600 -0.4480 -0.3633
  904MOL0     C21942   8.522   0.063   0.980  0.1537 -0.2819 -0.3496
  904MOL0     C21943   8.477  -0.082   0.971  0.5901  0.0894 -0.9106
  904MOL0     C21944   8.331  -0.091   1.015  0.8177 -0.3214  0.1862
  904MOL0     C21945   8.277  -0.234   1.037 -0.9423  0.1804 -0.5173
  904MOL0     C21946   8.138  -0.225   1.098  0.0599 -0.2183  0.0515
  904MOL0     C21947   8.082  -0.368   1.137 -0.2607 -0.3522 -0.4807
  904MOL0     C21948   7.934  -0.363   1.169  0.7834  0.1834 -0.0721
  904MOL0    Cl21949   7.844  -0.374   1.019  0.2456 -0.3292 -0.3701
  904MOL0     C21950   8.906   0.138   0.795 -0.5244 -0.3182 -0.3521
  904MOL0     C21951   9.022   0.175   0.727 -0.8634 -0.3671  0.3735
  904MOL0     O21952   9.062   0.258   0.343 -0.1956 -0.2453 -0.1909
  904MOL0     C21953   9.404   0.231   0.416 -0.3924  0.2051  0.1793
  904MOL0     C21954   9.530   0.283   0.369  0.0288 -0.0947 -0.1844
  904MOL0     N21955  10.319   0.449   0.308 -0.4702 -0.0316 -0.0942
  904MOL0     N21956  10.433   0.504   0.335  0.0656  0.5067 -0.0789
  904MOL0     C21957  10.173   0.105   0.122  0.3379  0.0864  0.4722
  904MOL0     C21958  10.051   0.063   0.181  0.2911  0.3271  0.4933
  904MOL0     C21959   9.605  -0.009   0.158  0.6390 -0.3895 -0.3365
  904MOL0     C21960   9.507   0.083   0.117  0.3725  0.4000 -0.6583
  904MOL0     C21961   9.370   0.057   0.113  0.4819  0.0172  0.4740
  904MOL0     C21962   9.321  -0.074   0.146 -0.2889 -0.7895  0.3801
  904MOL0     O21963   9.189  -0.117   0.149 -0.3252  0.5727  0.1067
  904MOL0     C21964   9.083  -0.023   0.114 -0.3442 -0.1499  0.0491
  904MOL0     C21965   8.945  -0.099   0.092 -0.9971  0.2561 -0.1961
  904MOL0     C21966   8.822   0.001   0.083  1.1698  0.6893  0.6859
  904MOL0     C21967   8.722  -0.018   0.200  0.3140  0.1585  0.2783
  904MOL0     C21968   8.668  -0.156   0.201 -0.1548  0.0016 -0.5231
  904MOL0     C21969   8.636  -0.273   0.195  0.3225  0.3770  0.2188
  904MOL0     C21970   9.416  -0.163   0.186 -0.9089 -0.0873  1.4189
  904MOL0     C21971   9.561  -0.137   0.197 -0.2889  0.6818 -0.1326
  904MOL0     C21972   9.646  -0.257   0.220 -0.0478 -0.0431 -0.1756
  904MOL0     H21973   9.972  -0.178  -0.051  0.9959 -0.3986 -1.0586
  904MOL0     H21974  10.182  -0.094  -0.146 -1.5304  0.4802  0.0076
  904MOL0     H21975  10.432  -0.054  -0.051 -1.5315 -0.4455 -0.0318
  904MOL0     H21976  10.382  -0.003  -0.213  1.3542 -1.3605  0.4739
  904MOL0     H21977  10.565   0.145  -0.235 -1.1726  1.6887  0.4623
  904MOL0     H21978  10.626   0.012  -0.128  2.4201  0.1070 -1.9888
  904MOL0     H21979  10.610   0.136   0.072  1.8149  2.2088  1.4731
  904MOL0     H21980  10.502   0.265   0.005 -0.1981  0.4814 -1.7752
  904MOL0     H21981  10.775   0.208  -0.105  1.2637  0.1794  2.0143
  904MOL0     H21982  10.675   0.364  -0.106  0.7646  1.4272  0.6961
  904MOL0     H21983  10.807   0.228   0.128  4.1918  1.3815  2.8226
  904MOL0     H21984  10.888   0.359   0.040 -0.1186  2.0407  1.8183
  904MOL0     H21985  10.655   0.374   0.246  0.8683  0.2810  0.6024
  904MOL0     H21986  10.817   0.434   0.257 -1.6078 -1.3944  2.0354
  904MOL0     H21987  10.621   0.540   0.045 -1.7238 -1.0663  0.7305
  904MOL0     H21988  10.768   0.621   0.095 -0.2526  1.1997  0.4931
  904MOL0     H21989  10.657   0.655   0.315  1.7874  1.8941 -0.9270
  904MOL0     H21990  10.598   0.744   0.162 -0.5803 -1.0178 -2.4976
  904MOL0     H21991  10.357   0.671   0.065  1.3405  2.4310  1.4537
  904MOL0     H21992  10.118   0.543   0.050 -0.3710  3.3228  1.6161
  904MOL0     H21993  10.136   0.382   0.106 -0.2003  0.3296  1.7721
  904MOL0     H21994  10.053   0.457   0.336  0.4651 -2.3757 -1.2053
  904MOL0     H21995  10.019   0.617   0.254  2.0975 -0.0701  2.5196
  904MOL0     H21996   9.905   0.364   0.152  1.6563  0.1812  1.7021
  904MOL0     H21997   9.847   0.530   0.119 -1.2977  0.7727  0.9089
  904MOL0     H21998   9.775   0.531   0.369  1.8615  1.5117 -0.6443
  904MOL0     H21999   9.805   0.355   0.357  2.0707 -1.5514 -2.7231
  904MOL0     H22000   9.435   0.567   0.239  1.6532  0.5314  2.1874
  904MOL0     H22001   9.210   0.467   0.275 -1.6109 -0.5464  2.6758
  904MOL0     H22002   8.945   0.040   0.434 -0.9838 -1.3696  0.4607
  904MOL0     H22003   8.727  -0.010   0.547  2.3169 -3.5026  0.9131
  904MOL0     H22004   8.720   0.016   0.993  1.9516  1.2223 -0.3719
  904MOL0     H22005   8.699   0.182   0.937  2.6475 -1.1447 -1.8902
  904MOL0     H22006   8.527   0.084   1.087  2.5032 -0.4721 -0.3699
  904MOL0     H22007   8.459   0.142   0.939  0.1510  0.5417  1.1544
  904MOL0     H22008   8.475  -0.115   0.867  0.6187 -0.4870 -0.7354
  904MOL0     H22009   8.538  -0.139   1.042 -0.0190  0.5481 -0.0022
  904MOL0     H22010   8.281  -0.046   0.928  2.0223  3.0994  1.0990
  904MOL0     H22011   8.313  -0.025   1.100  0.3513  0.8007 -0.7557
  904MOL0     H22012   8.337  -0.286   1.112  0.4214  0.3405 -1.4655
  904MOL0     H22013   8.290  -0.295   0.948  2.8838 -0.4126  0.2671
  904MOL0     H22014   8.150  -0.154   1.180 -1.8118 -0.3393  0.4929
  904MOL0     H22015   8.058  -0.179   1.039  0.0266 -1.8934 -1.2923
  904MOL0     H22016   8.141  -0.404   1.221  0.7814  1.4964 -0.3551
  904MOL0     H22017   8.093  -0.439   1.054  0.4598  0.2359 -0.9042
  904MOL0     H22018   7.915  -0.452   1.229 -1.5551  0.7700  0.1527
  904MOL0     H22019   7.909  -0.276   1.231  0.7560 -1.0392  1.7187
  904MOL0     H22020   8.901   0.174   0.897  0.0627  2.3359 -1.1736
  904MOL0     H22021   9.095   0.231   0.785 -2.8407  1.8422  0.8697
  904MOL0     H22022   9.393   0.151   0.489 -1.1603 -1.1132 -1.3146
  904MOL0     H22023   9.622   0.230   0.391  0.5713  0.7366 -0.4037
  904MOL0     H22024  10.218   0.191   0.172 -0.6908 -0.1056  1.7970
  904MOL0     H22025  10.017   0.121   0.266 -1.1817 -0.7523  0.6700
  904MOL0     H22026   9.532   0.186   0.094 -2.5204  0.9524 -1.7450
  904MOL0     H22027   9.300   0.139   0.102 -1.9419 -2.0622 -0.6016
  904MOL0     H22028   9.113   0.034   0.026 -2.6241 -0.4783 -1.0152
  904MOL0     H22029   9.085   0.042   0.202  1.8681 -1.3230  0.9667
  904MOL0     H22030   8.941  -0.164   0.180  0.7671 -1.5838 -1.3893
  904MOL0     H22031   8.960  -0.169   0.009 -0.3485  0.5495 -0.3291
  904MOL0     H22032   8.771  -0.002  -0.014  0.4134  3.5523  0.9013
  904MOL0     H22033   8.853   0.106   0.093  1.5790  0.4308  2.3823
  904MOL0     H22034   8.775   0.009   0.292 -0.2054  0.3391  0.5287
  904MOL0     H22035   8.635   0.049   0.200  1.0071  1.0963  1.3044
  904MOL0     H22036   8.612  -0.376   0.180  0.7284  0.2279  0.5462
  904MOL0     H22037   9.369  -0.260   0.202 -0.7849  0.3033  4.7658
  904MOL0     H22038   9.707  -0.231   0.307  1.4242  1.6474 -1.6129
  904MOL0     H22039   9.576  -0.341   0.227  0.6416 -0.8387 -2.0328
  904MOL0     H22040   9.719  -0.264   0.138 -0.6476 -0.1871 -0.7006
  905MOL0     O22041   7.563   9.821   6.150 -0.3751 -0.2991  0.1391
  905MOL0     C22042   7.622   9.724   6.112  0.6061  0.1526  1.0743
  905MOL0     O22043   7.741   9.672   6.153  0.2130 -0.0940 -0.6596
  905MOL0     C22044   7.818   9.767   6.211  0.2719 -0.2335 -0.4979
  905MOL0     C22045   7.856   9.726   6.336 -0.4058 -0.0849 -0.0846
  905MOL0     C22046   7.962   9.785   6.402  0.7415 -0.8064 -0.5153
  905MOL0     C22047   8.028   9.898   6.345  0.3474 -0.5646  0.1317
  905MOL0     O22048   8.116   9.964   6.428  0.1688 -0.1272 -0.5425
  905MOL0     C22049   8.134  10.100   6.411 -0.3885  0.8608 -0.7745
  905MOL0     C22050   8.183  10.126   6.556 -0.3054 -0.5002  0.9511
  905MOL0     C22051   8.205  10.273   6.578 -0.5499 -0.3304 -0.6423
  905MOL0     C22052   8.254  10.297   6.723  0.0502  0.2060  0.0901
  905MOL0     C22053   8.291  10.448   6.734  0.6344  0.0712  0.2755
  905MOL0     C22054   8.347  10.476   6.876 -1.1780 -0.1279 -0.1021
  905MOL0     C22055   8.379  10.617   6.905 -0.4551  0.8796 -0.1507
  905MOL0     C22056   8.500  10.671   6.828  1.5232 -0.5293  0.0580
  905MOL0     N22057   8.606  10.574   6.798 -0.5420 -0.7101  0.9536
  905MOL0     C22058   8.635  10.528   6.669 -0.3004 -0.2204 -0.1617
  905MOL0     C22059   8.738  10.446   6.676  0.0795 -0.3473 -0.2132
  905MOL0     C22060   8.815  10.379   6.565 -0.2727 -0.4106 -0.2336
  905MOL0     C22061   8.917  10.458   6.491 -0.0207 -0.4577  0.5854
  905MOL0     C22062   8.991  10.360   6.400 -0.9455 -0.2614  0.2729
  905MOL0     C22063   9.122  10.425   6.337  1.2644 -0.4971 -0.5484
  905MOL0     O22064   9.188  10.318   6.277  0.0788 -0.9196 -0.0063
  905MOL0     C22065   9.311  10.344   6.225  0.1425 -0.2960 -0.1576
  905MOL0     C22066   9.375  10.227   6.191 -0.1174  0.3118 -0.0803
  905MOL0     C22067   9.505  10.233   6.129  0.4217 -0.1582  0.4200
  905MOL0     C22068   9.560  10.350   6.097  0.0986  0.0423 -0.9902
  905MOL0     C22069   9.699  10.357   6.049  1.5435 -0.8277  0.3637
  905MOL0     O22070   9.741  10.485   6.018 -0.5999  0.5811  0.7737
  905MOL0     C22071   9.864  10.507   5.960  0.3558 -0.3764 -0.1921
  905MOL0     C22072   9.955  10.424   5.887 -0.2654  0.0276  0.9967
  905MOL0     C22073  10.081  10.477   5.838  0.4756 -0.6591 -0.3798
  905MOL0     C22074  10.111  10.615   5.852 -0.4648 -0.6502 -0.2600
  905MOL0     O22075  10.226  10.672   5.795  0.5017  0.5180 -0.2293
  905MOL0     C22076  10.210  10.813   5.755  0.6430  0.2603  0.3167
  905MOL0     C22077  10.348  10.860   5.719 -0.1973 -0.1432 -0.7502
  905MOL0     C22078  10.386  10.805   5.584 -0.5441 -0.3368  0.1323
  905MOL0     C22079  10.536  10.806   5.577 -0.1745 -0.2138 -1.0307
  905MOL0     C22080  10.582  10.753   5.453 -0.0052  0.0060 -0.3636
  905MOL0     C22081  10.737  10.747   5.445 -1.0375  0.0181  0.0214
  905MOL0     C22082  10.799  10.603   5.487 -0.5064 -1.3842 -0.2610
  905MOL0     C22083  10.946  10.588   5.447 -1.3988 -0.1498 -0.5336
  905MOL0    Cl22084  11.021  10.480   5.565  0.3773 -0.2598  0.2411
  905MOL0     C22085  10.028  10.702   5.933 -0.1152  0.3096 -0.5928
  905MOL0     C22086   9.910  10.640   5.991  0.6225  0.3076 -0.9054
  905MOL0     O22087   9.766  10.255   6.039  0.2507 -0.1183  0.5831
  905MOL0     C22088   9.490  10.471   6.137 -0.0059  0.2527  0.3559
  905MOL0     C22089   9.363  10.470   6.204 -0.5119 -0.4781 -0.3886
  905MOL0     N22090   8.782  10.463   6.806  0.0591 -0.0585 -1.0379
  905MOL0     N22091   8.696  10.525   6.885  0.4912  0.1884  0.6299
  905MOL0     C22092   7.978   9.943   6.218 -0.1534 -0.5202  0.4450
  905MOL0     C22093   7.873   9.879   6.150  0.3567 -0.2509 -0.4218
  905MOL0     C22094   7.571   9.665   5.988 -0.1889 -0.4514  0.6233
  905MOL0     C22095   7.646   9.659   5.867  0.2651 -0.3844  0.2663
  905MOL0     C22096   7.582   9.608   5.751  0.0730 -0.1688  0.1647
  905MOL0     C22097   7.458   9.554   5.753  0.5693 -0.4619  0.5164
  905MOL0     O22098   7.408   9.509   5.629 -0.0979 -0.3157 -0.0756
  905MOL0     C22099   7.268   9.457   5.615 -0.0512 -0.6471 -0.4033
  905MOL0     C22100   7.245   9.330   5.529 -0.5923 -0.2412  0.9294
  905MOL0     C22101   7.266   9.195   5.577  0.8134 -0.4982  0.4727
  905MOL0     C22102   7.130   9.124   5.615  0.8440  0.4756 -0.4586
  905MOL0     C22103   7.169   8.983   5.663  0.6773 -0.8249  0.5726
  905MOL0     C22104   7.205   8.873   5.707 -0.2332  0.0676  0.3681
  905MOL0     C22105   7.382   9.571   5.864 -0.2792  0.1284  0.4098
  905MOL0     C22106   7.435   9.630   5.977 -0.3603  0.0437 -0.7572
  905MOL0     C22107   7.346   9.640   6.102 -0.0761 -0.1374  0.9776
  905MOL0     H22108   7.821   9.635   6.383  1.6351 -0.5714  0.5847
  905MOL0     H22109   7.999   9.744   6.496  2.6673  2.4572  0.3377
  905MOL0     H22110   8.206  10.119   6.331 -1.0462 -1.1685 -1.9367
  905MOL0     H22111   8.040  10.150   6.386 -2.0799 -1.7840 -0.1673
  905MOL0     H22112   8.273  10.068   6.576 -0.0513  0.5316  3.1225
  905MOL0     H22113   8.097  10.088   6.613 -2.0692 -1.3810 -2.0342
  905MOL0     H22114   8.115  10.335   6.572  0.9813  2.1233  0.1046
  905MOL0     H22115   8.276  10.312   6.505 -0.4070 -1.6216 -1.2181
  905MOL0     H22116   8.185  10.265   6.801  1.7139 -2.4805  0.5864
  905MOL0     H22117   8.342  10.234   6.738  0.6385  0.6499 -1.3416
  905MOL0     H22118   8.368  10.480   6.663  1.0252 -0.1315  0.6016
  905MOL0     H22119   8.196  10.501   6.727 -0.5675 -1.4110  3.2243
  905MOL0     H22120   8.269  10.455   6.950 -0.8544  0.8958  0.5533
  905MOL0     H22121   8.426  10.403   6.897 -1.5782 -1.2103 -2.0953
  905MOL0     H22122   8.388  10.638   7.012  1.0979  1.6182 -0.3961
  905MOL0     H22123   8.293  10.679   6.880 -0.2578  1.2887  0.1634
  905MOL0     H22124   8.460  10.698   6.730  2.5766 -1.8655 -0.7823
  905MOL0     H22125   8.541  10.756   6.883  1.3924 -0.9251  0.7982
  905MOL0     H22126   8.581  10.553   6.579  1.4293  2.1756 -0.6260
  905MOL0     H22127   8.858  10.286   6.603  1.7568  0.0278 -1.3105
  905MOL0     H22128   8.736  10.366   6.490 -1.4125  0.4743  0.7849
  905MOL0     H22129   8.859  10.529   6.432 -1.4838 -1.7298  0.4210
  905MOL0     H22130   8.985  10.511   6.558 -0.2935  3.0007 -1.5922
  905MOL0     H22131   8.927  10.310   6.327 -1.6698  0.8726  0.1195
  905MOL0     H22132   9.035  10.278   6.458 -0.2867 -0.9815 -1.1945
  905MOL0     H22133   9.184  10.462   6.420  2.8558 -0.6588 -1.6233
  905MOL0     H22134   9.094  10.503   6.266  1.7183 -0.3126 -0.5317
  905MOL0     H22135   9.327  10.135   6.222  1.4089 -0.3307  0.5268
  905MOL0     H22136   9.556  10.139   6.113  2.2600  0.9426 -0.3740
  905MOL0     H22137   9.932  10.320   5.866 -4.3537  0.2463  3.3187
  905MOL0     H22138  10.151  10.424   5.774  1.4524 -0.2428  0.3083
  905MOL0     H22139  10.148  10.833   5.667  0.5728  2.1064  0.7401
  905MOL0     H22140  10.177  10.877   5.838 -2.1907 -1.8458  0.9633
  905MOL0     H22141  10.356  10.969   5.724  1.9081 -0.2900 -0.0028
  905MOL0     H22142  10.418  10.828   5.797 -0.1788  1.0440 -0.2530
  905MOL0     H22143  10.353  10.702   5.566  2.1352 -1.2384 -0.0533
  905MOL0     H22144  10.349  10.866   5.500 -1.4124 -1.8277 -0.6043
  905MOL0     H22145  10.573  10.741   5.658  0.9249  0.9829 -0.5433
  905MOL0     H22146  10.573  10.906   5.600 -1.3543 -0.0585  0.3465
  905MOL0     H22147  10.560  10.827   5.375  2.6858 -1.3225 -2.5863
  905MOL0     H22148  10.545  10.654   5.425  2.7739 -0.9892 -0.7862
  905MOL0     H22149  10.784  10.778   5.351 -1.5480  2.7879  0.5814
  905MOL0     H22150  10.777  10.819   5.517 -2.5531  1.6880 -0.7048
  905MOL0     H22151  10.739  10.520   5.449  0.6040 -2.0359 -0.6314
  905MOL0     H22152  10.786  10.604   5.596 -2.7213 -1.5847 -0.4906
  905MOL0     H22153  10.962  10.536   5.352  3.1454 -2.1933  1.0513
  905MOL0     H22154  10.982  10.690   5.437 -2.6619  0.4407  0.5501
  905MOL0     H22155  10.047  10.801   5.973 -2.4780  0.1813  1.0484
  905MOL0     H22156   9.838  10.698   6.047 -1.5177 -1.1634 -1.9606
  905MOL0     H22157   9.527  10.566   6.102  0.0075 -0.5054 -1.7976
  905MOL0     H22158   9.315  10.567   6.218 -0.2986 -0.5461  0.8534
  905MOL0     H22159   8.027  10.027   6.168 -2.1581 -1.4937 -3.6285
  905MOL0     H22160   7.826   9.898   6.054 -3.1278 -0.6476  1.0643
  905MOL0     H22161   7.749   9.693   5.859 -0.6126  1.9823 -4.0702
  905MOL0     H22162   7.627   9.617   5.652 -2.7766 -1.2835 -1.3321
  905MOL0     H22163   7.198   9.538   5.595  1.0774  1.4308  3.1119
  905MOL0     H22164   7.219   9.432   5.710 -0.9196  2.7976  0.1641
  905MOL0     H22165   7.321   9.343   5.451  0.4239  0.0222  1.9450
  905MOL0     H22166   7.154   9.334   5.469  1.0229 -0.0988 -1.6802
  905MOL0     H22167   7.335   9.193   5.661  0.6201 -3.5685  0.6406
  905MOL0     H22168   7.304   9.126   5.501 -3.4805 -3.0356  0.2927
  905MOL0     H22169   7.087   9.189   5.692 -0.1245  0.1914 -0.7563
  905MOL0     H22170   7.052   9.106   5.541  0.9859 -0.9068 -0.2908
  905MOL0     H22171   7.254   8.779   5.726  0.2470  0.1915 -0.2199
  905MOL0     H22172   7.276   9.549   5.857 -0.1811 -0.0080 -0.7212
  905MOL0     H22173   7.242   9.615   6.079  0.5211  0.5772 -3.4571
  905MOL0     H22174   7.383   9.560   6.166 -0.0974 -1.7749 -0.9479
  905MOL0     H22175   7.353   9.735   6.156  2.0573  0.6130 -0.4694
  906MOL0     O22176   0.242   3.471  11.216 -0.4858  0.8353  0.0923
  906MOL0     C22177   0.205   3.471  11.332 -0.8725  0.6326 -0.5280
  906MOL0     O22178   0.285   3.453  11.434  0.1767 -0.4175  0.1338
  906MOL0     C22179   0.406   3.507  11.438 -0.6494 -1.6204 -0.4335
  906MOL0     C22180   0.470   3.578  11.338 -0.3799  0.9468  0.4613
  906MOL0     C22181   0.605   3.618  11.353 -0.1980 -0.0511  0.4795
  906MOL0     C22182   0.679   3.598  11.472 -0.1051 -0.9682 -0.1451
  906MOL0     O22183   0.814   3.616  11.501  0.0388 -0.2921 -0.3754
  906MOL0     C22184   0.908   3.585  11.402 -0.1251 -0.0292 -0.6099
  906MOL0     C22185   1.044   3.590  11.472 -0.1056  1.0392  0.6818
  906MOL0     C22186   1.086   3.736  11.469  0.3614  0.8950 -0.7234
  906MOL0     C22187   1.221   3.732  11.544  0.1438  0.1650  0.7027
  906MOL0     C22188   1.283   3.872  11.548 -1.1734  0.3014 -0.1350
  906MOL0     C22189   1.322   3.937  11.407  0.2488 -0.2716 -0.5326
  906MOL0     C22190   1.408   3.869  11.311 -0.4225  0.1623  0.3378
  906MOL0     C22191   1.558   3.845  11.351  0.5452  0.5652  0.2056
  906MOL0     N22192   1.653   3.950  11.312 -0.0164 -0.0747  0.2192
  906MOL0     C22193   1.681   3.986  11.182  0.4194 -0.4251  0.1117
  906MOL0     C22194   1.759   4.097  11.195 -0.0285 -0.6488 -0.1468
  906MOL0     C22195   1.801   4.185  11.084  0.1437 -0.1844  0.1822
  906MOL0     C22196   1.945   4.243  11.095 -0.7603  0.2692  0.7580
  906MOL0     C22197   2.042   4.129  11.089  0.7727  0.1717  0.2108
  906MOL0     C22198   2.187   4.178  11.107  0.6211 -1.0044  0.3822
  906MOL0     O22199   2.228   4.267  11.010  0.0860  0.4900 -0.2506
  906MOL0     C22200   2.347   4.317  11.040 -0.4425  0.7823  0.2069
  906MOL0     C22201   2.354   4.445  11.091  0.0479 -0.4756  1.0227
  906MOL0     C22202   2.477   4.509  11.127 -0.3028  0.4828 -0.5834
  906MOL0     C22203   2.598   4.433  11.126 -0.3216 -0.5490 -0.3192
  906MOL0     C22204   2.724   4.498  11.173 -0.5471 -0.0229  0.0127
  906MOL0     O22205   2.842   4.420  11.179  0.3057  0.8181 -0.3775
  906MOL0     C22206   2.955   4.480  11.237 -0.0474  0.2009 -0.8737
  906MOL0     C22207   3.003   4.448  11.360 -0.2151  1.1767 -0.5682
  906MOL0     C22208   3.118   4.503  11.419 -0.1132  0.5716 -0.7165
  906MOL0     C22209   3.190   4.598  11.341  0.6115 -0.5788 -0.9947
  906MOL0     O22210   3.307   4.645  11.394  0.9736  0.2244  0.1005
  906MOL0     C22211   3.405   4.703  11.310 -0.1330 -0.5898  0.0044
  906MOL0     C22212   3.487   4.609  11.223 -0.1894 -0.0364  0.8544
  906MOL0     C22213   3.615   4.667  11.153 -1.2493 -1.1097  0.8466
  906MOL0     C22214   3.726   4.712  11.251  1.1174 -0.0463  0.4989
  906MOL0     C22215   3.844   4.763  11.180  0.6409 -0.1712  0.7610
  906MOL0     C22216   3.973   4.777  11.262  0.4512  0.2103 -0.3618
  906MOL0     C22217   4.097   4.846  11.200  0.1885  0.1361 -0.1299
  906MOL0     C22218   4.121   4.782  11.067 -0.5990 -0.5637  0.2146
  906MOL0    Cl22219   4.287   4.836  11.007 -0.0652  0.2218 -0.0654
  906MOL0     C22220   3.129   4.654  11.226  1.2597  0.3236 -0.0995
  906MOL0     C22221   3.007   4.598  11.181  0.5221 -0.8194 -0.1991
  906MOL0     O22222   2.713   4.616  11.210  0.2117 -0.2012 -0.7244
  906MOL0     C22223   2.586   4.297  11.082 -0.0026 -0.1387  0.0221
  906MOL0     C22224   2.466   4.240  11.041  0.9149  0.7971 -0.4459
  906MOL0     N22225   1.780   4.118  11.328  0.9252 -1.0578 -1.0879
  906MOL0     N22226   1.714   4.032  11.397  0.2033 -0.6618  0.1590
  906MOL0     C22227   0.606   3.556  11.580  0.3536 -0.3650  0.2359
  906MOL0     C22228   0.474   3.502  11.557  0.3391 -0.9478 -1.7398
  906MOL0     C22229   0.063   3.487  11.350  0.1588 -0.2157  0.3902
  906MOL0     C22230  -0.016   3.538  11.243  0.0128  0.2504  0.1063
  906MOL0     C22231  -0.153   3.537  11.240  0.4477  0.1824 -0.2360
  906MOL0     C22232  -0.223   3.498  11.346  0.0043  0.4428  0.1093
  906MOL0     O22233  -0.356   3.508  11.340  0.3979  0.6130  0.7020
  906MOL0     C22234  -0.439   3.457  11.440  0.2461  0.4029 -0.0308
  906MOL0     C22235  -0.595   3.479  11.416  0.1183 -0.0318 -0.6175
  906MOL0     C22236  -0.673   3.490  11.554 -0.2872  0.0021 -0.3218
  906MOL0     C22237  -0.823   3.498  11.536 -0.4977  0.8639  0.3885
  906MOL0     C22238  -0.886   3.475  11.671 -1.1154 -0.0189  1.0589
  906MOL0     C22239  -0.950   3.449  11.772 -0.1300  0.3309 -0.2530
  906MOL0     C22240  -0.152   3.447  11.464  0.0118 -0.7853  0.2955
  906MOL0     C22241  -0.011   3.438  11.457 -0.4691  0.2912 -0.4942
  906MOL0     C22242   0.054   3.371  11.575 -0.4841  0.1754 -0.8208
  906MOL0     H22243   0.428   3.611  11.244  0.2315  2.8768  0.8143
  906MOL0     H22244   0.656   3.664  11.269  1.0887  2.5757  2.5573
  906MOL0     H22245   0.896   3.485  11.360  0.6783 -0.8950  1.1429
  906MOL0     H22246   0.907   3.652  11.315 -0.0580  2.3056  1.1042
  906MOL0     H22247   1.115   3.530  11.413  0.3953  2.4080 -0.1491
  906MOL0     H22248   1.032   3.550  11.573 -1.5721 -2.4305 -0.7016
  906MOL0     H22249   1.015   3.803  11.520  1.4070  1.7137 -0.3134
  906MOL0     H22250   1.097   3.779  11.370 -1.6069 -0.3663 -1.5621
  906MOL0     H22251   1.212   3.703  11.649  2.6704  0.5431  1.0877
  906MOL0     H22252   1.293   3.667  11.495  1.3673  1.8345  0.1987
  906MOL0     H22253   1.217   3.940  11.603  1.6819  2.5028  0.8045
  906MOL0     H22254   1.376   3.863  11.603 -0.5161  4.9115 -0.0855
  906MOL0     H22255   1.226   3.947  11.355  0.7851  0.5784 -1.3816
  906MOL0     H22256   1.355   4.040  11.424 -0.9402  0.0975 -0.3272
  906MOL0     H22257   1.415   3.935  11.224  2.0373  1.9068  1.7317
  906MOL0     H22258   1.359   3.781  11.268  0.9199  0.3928 -1.8499
  906MOL0     H22259   1.570   3.831  11.458  0.7419 -3.4838 -0.1873
  906MOL0     H22260   1.586   3.750  11.304  1.2983  0.2007  1.3689
  906MOL0     H22261   1.633   3.945  11.094  0.8712 -0.0942 -0.2927
  906MOL0     H22262   1.798   4.128  10.990  2.3786 -1.1249  0.6047
  906MOL0     H22263   1.721   4.259  11.079  1.0498  0.7832 -0.4350
  906MOL0     H22264   1.963   4.292  10.999 -3.4633 -1.7974 -0.9926
  906MOL0     H22265   1.959   4.299  11.188  2.0315 -0.3734  0.7915
  906MOL0     H22266   2.026   4.088  10.989 -1.0119  0.0620  0.5221
  906MOL0     H22267   2.022   4.060  11.171 -3.1305  1.5241  0.6031
  906MOL0     H22268   2.244   4.085  11.108 -2.5633 -3.0849  1.6488
  906MOL0     H22269   2.198   4.214  11.209  0.8506 -0.7275  0.2630
  906MOL0     H22270   2.260   4.498  11.108  0.7164  0.6826  1.2390
  906MOL0     H22271   2.486   4.610  11.166  0.7638 -0.6316  2.2510
  906MOL0     H22272   2.972   4.355  11.407  2.5031 -0.5481 -1.8863
  906MOL0     H22273   3.158   4.471  11.515 -0.7392  1.6298 -0.0840
  906MOL0     H22274   3.356   4.781  11.252  1.0772 -1.4796 -2.3768
  906MOL0     H22275   3.478   4.754  11.373 -1.0836  0.9996 -0.1410
  906MOL0     H22276   3.508   4.519  11.282 -2.3412  0.1137  1.9744
  906MOL0     H22277   3.414   4.578  11.147 -0.0600  2.3005 -0.3053
  906MOL0     H22278   3.669   4.591  11.095 -0.7654 -0.8940  1.0119
  906MOL0     H22279   3.583   4.742  11.079 -1.5808 -1.3537  0.7374
  906MOL0     H22280   3.753   4.626  11.313  0.2922  0.6790  1.8993
  906MOL0     H22281   3.690   4.790  11.319  0.0789 -1.7471  2.0009
  906MOL0     H22282   3.819   4.864  11.145  1.3294 -0.4301 -0.5412
  906MOL0     H22283   3.864   4.705  11.089  4.0869 -0.7001  1.6850
  906MOL0     H22284   3.950   4.841  11.347  0.3211  0.3792 -0.5262
  906MOL0     H22285   3.984   4.672  11.291 -3.6118 -0.5027 -0.8019
  906MOL0     H22286   4.185   4.841  11.265  0.6175  3.3341 -0.2818
  906MOL0     H22287   4.074   4.953  11.188  1.7864  0.2855 -2.3992
  906MOL0     H22288   4.112   4.673  11.059  5.0399 -1.2830 -0.6558
  906MOL0     H22289   4.051   4.833  11.001 -0.0157 -2.7832 -2.2869
  906MOL0     H22290   3.170   4.738  11.171  1.2524  1.2195  1.2275
  906MOL0     H22291   2.960   4.639  11.093 -0.7803 -1.6101  0.1136
  906MOL0     H22292   2.673   4.231  11.080  0.9210  1.0396 -0.0701
  906MOL0     H22293   2.456   4.134  11.017 -4.2382  0.7205  0.8083
  906MOL0     H22294   0.644   3.537  11.680 -0.3767 -0.8364  0.4387
  906MOL0     H22295   0.419   3.459  11.640  1.1872  1.7680  0.3729
  906MOL0     H22296   0.014   3.558  11.141 -2.0228 -0.4253 -0.6670
  906MOL0     H22297  -0.207   3.560  11.149 -0.5982 -1.8499 -0.1713
  906MOL0     H22298  -0.399   3.501  11.532  1.9103 -2.1625  0.5619
  906MOL0     H22299  -0.424   3.350  11.457 -2.3130 -0.4031 -2.1805
  906MOL0     H22300  -0.635   3.398  11.354 -1.3059 -0.3579  0.6829
  906MOL0     H22301  -0.607   3.570  11.356  1.4453 -1.6174 -3.5030
  906MOL0     H22302  -0.636   3.576  11.610  3.2967 -0.5051 -1.6755
  906MOL0     H22303  -0.647   3.397  11.605 -0.3561 -0.7444 -1.6109
  906MOL0     H22304  -0.869   3.587  11.491  1.9316  2.7175  1.3546
  906MOL0     H22305  -0.847   3.410  11.475 -2.1716  1.3307  0.3179
  906MOL0     H22306  -0.998   3.430  11.866  0.5690 -3.2310 -0.4883
  906MOL0     H22307  -0.203   3.416  11.555 -1.6049 -0.6042 -0.5233
  906MOL0     H22308   0.119   3.288  11.548 -1.0647 -0.6703  0.3071
  906MOL0     H22309   0.115   3.437  11.637 -0.4551 -0.6969  0.0934
  906MOL0     H22310  -0.031   3.336  11.634 -1.4188  4.8326  1.0605
  907MOL0     O22311  10.793   4.420   8.749  0.5663  0.1772  0.7367
  907MOL0     C22312  10.720   4.513   8.706 -0.3849  0.3275  0.0952
  907MOL0     O22313  10.766   4.630   8.662 -0.4925  0.0770 -0.1251
  907MOL0     C22314  10.900   4.666   8.675  0.7379 -0.5867  0.0582
  907MOL0     C22315  10.959   4.742   8.577 -0.4855  0.1223  0.5933
  907MOL0     C22316  11.094   4.790   8.587  0.5833 -0.0112 -0.3366
  907MOL0     C22317  11.163   4.757   8.702 -0.6158  0.8737 -0.7343
  907MOL0     O22318  11.289   4.790   8.737  0.0021  0.2903 -0.0117
  907MOL0     C22319  11.362   4.867   8.646 -0.5726  0.7172 -0.1141
  907MOL0     C22320  11.486   4.928   8.722  1.1913 -0.4470  0.4986
  907MOL0     C22321  11.573   5.007   8.623  0.9228  0.4556 -0.3789
  907MOL0     C22322  11.695   5.059   8.698 -0.1413 -0.2826  1.1800
  907MOL0     C22323  11.785   5.139   8.607  0.0728  0.0207  0.2007
  907MOL0     C22324  11.738   5.288   8.590 -0.0468  0.0415 -0.2302
  907MOL0     C22325  11.833   5.367   8.502  0.4080 -0.2028  0.2358
  907MOL0     C22326  11.781   5.510   8.480 -0.0861 -0.3390 -0.6289
  907MOL0     N22327  11.786   5.580   8.610  0.4078 -0.0092 -0.1403
  907MOL0     C22328  11.893   5.617   8.690  0.5203 -0.5183  0.3131
  907MOL0     C22329  11.842   5.689   8.791  0.4116 -0.4071  0.1442
  907MOL0     C22330  11.924   5.772   8.885  0.6484  0.3499  0.7854
  907MOL0     C22331  12.014   5.887   8.833  0.5789 -0.5336 -0.0548
  907MOL0     C22332  12.052   5.990   8.955  0.9281  0.1396 -0.0583
  907MOL0     C22333  12.118   6.118   8.900 -0.1012  0.0837  0.2590
  907MOL0     O22334  12.227   6.085   8.817  0.0751 -0.2357  0.7303
  907MOL0     C22335  12.347   6.062   8.872 -0.7346 -0.3726 -0.2541
  907MOL0     C22336  12.363   6.066   9.014  0.0950  0.0662 -0.5642
  907MOL0     C22337  12.500   6.049   9.061  0.1474  0.0356 -0.0230
  907MOL0     C22338  12.614   6.044   8.976  0.4269 -0.0611 -0.6450
  907MOL0     C22339  12.746   6.060   9.039  0.7626  0.0321 -0.0507
  907MOL0     O22340  12.751   6.079   9.169  0.1133  0.1880  0.0028
  907MOL0     C22341  12.882   6.103   9.209 -0.3316 -0.2041 -0.7965
  907MOL0     C22342  12.925   6.231   9.250  0.5353 -0.4205  0.7495
  907MOL0     C22343  13.051   6.239   9.305 -0.4717  0.0913  1.0840
  907MOL0     C22344  13.127   6.130   9.334 -0.5424  0.6534  0.2310
  907MOL0     O22345  13.239   6.136   9.410  0.3091 -0.5592 -0.3879
  907MOL0     C22346  13.330   6.248   9.395 -0.3690  0.1948  0.5152
  907MOL0     C22347  13.464   6.190   9.345  0.3793 -1.4486 -0.3245
  907MOL0     C22348  13.452   6.128   9.200 -0.7271 -0.7661 -0.6231
  907MOL0     C22349  13.605   6.110   9.147  0.6678  0.1073  0.9041
  907MOL0     C22350  13.617   6.013   9.038 -0.6054 -0.2446 -0.0306
  907MOL0     C22351  13.682   6.054   8.904  0.1432 -0.2995 -0.1671
  907MOL0     C22352  13.643   6.195   8.856 -1.0023  0.5057  0.3558
  907MOL0     C22353  13.702   6.223   8.716 -0.1089  0.1169  0.3746
  907MOL0    Cl22354  13.876   6.263   8.745  0.3463 -0.2998  0.1101
  907MOL0     C22355  13.082   5.999   9.291 -0.3893 -0.4459 -0.1762
  907MOL0     C22356  12.956   5.990   9.228 -0.1027 -0.0479 -0.0232
  907MOL0     O22357  12.838   6.025   8.966  0.6331  0.2666 -0.5921
  907MOL0     C22358  12.589   6.035   8.837  0.3633  0.3167  1.0247
  907MOL0     C22359  12.457   6.047   8.793  1.4552 -1.1716  0.6665
  907MOL0     N22360  11.708   5.683   8.784  0.7451  0.6814  0.5004
  907MOL0     N22361  11.678   5.631   8.670  0.3723 -0.3399  0.4312
  907MOL0     C22362  11.100   4.681   8.801  0.2331 -0.6611 -0.0581
  907MOL0     C22363  10.971   4.639   8.788 -0.2207  0.0065 -0.6347
  907MOL0     C22364  10.569   4.499   8.704 -1.2471 -0.5490 -0.2421
  907MOL0     C22365  10.497   4.599   8.632 -0.2211  0.9123 -0.6400
  907MOL0     C22366  10.360   4.593   8.626 -0.2435  0.2641 -0.2685
  907MOL0     C22367  10.286   4.489   8.693 -0.4397 -0.6164 -0.3298
  907MOL0     O22368  10.143   4.482   8.699 -0.3246 -0.4709 -1.3205
  907MOL0     C22369  10.076   4.592   8.768 -0.2559  0.8246 -0.1998
  907MOL0     C22370   9.974   4.533   8.863 -0.5908 -0.4330  0.0691
  907MOL0     C22371   9.862   4.638   8.911  0.2161 -0.9693 -0.2748
  907MOL0     C22372   9.760   4.582   9.013 -0.4598  0.0474 -0.4168
  907MOL0     C22373   9.671   4.472   8.962 -0.7167 -0.7093  0.1403
  907MOL0     C22374   9.597   4.381   8.933 -0.0553 -0.4167  0.5584
  907MOL0     C22375  10.356   4.394   8.761 -0.1968 -0.1698  0.4661
  907MOL0     C22376  10.499   4.395   8.764 -0.0611 -0.1220 -0.1861
  907MOL0     C22377  10.567   4.294   8.861 -1.0193 -0.1846  0.6826
  907MOL0     H22378  10.899   4.768   8.489  2.9435  1.0775 -1.6644
  907MOL0     H22379  11.133   4.857   8.510 -0.7154 -0.0512 -1.0631
  907MOL0     H22380  11.391   4.803   8.562 -2.0987 -0.7927  0.4628
  907MOL0     H22381  11.303   4.950   8.608  0.9487  1.2667 -1.4217
  907MOL0     H22382  11.546   4.848   8.767  1.8083 -1.2501 -1.6254
  907MOL0     H22383  11.446   4.997   8.797 -0.3193 -2.0053  1.2003
  907MOL0     H22384  11.508   5.088   8.587 -1.9199 -2.2872 -1.8457
  907MOL0     H22385  11.596   4.940   8.540 -3.9460 -3.8519  1.1913
  907MOL0     H22386  11.667   5.111   8.790 -0.1009 -1.3629  1.8231
  907MOL0     H22387  11.746   4.971   8.737  0.3005 -0.5863 -0.0243
  907MOL0     H22388  11.890   5.128   8.637 -0.7712  2.0087  4.6833
  907MOL0     H22389  11.771   5.091   8.509 -1.1868 -2.1129  1.3600
  907MOL0     H22390  11.638   5.280   8.546 -0.3875 -2.4618  0.8293
  907MOL0     H22391  11.731   5.336   8.688  2.4775  1.3405 -0.5992
  907MOL0     H22392  11.851   5.311   8.410 -1.0880 -0.1119 -0.1361
  907MOL0     H22393  11.933   5.359   8.545  0.9236  0.8329 -0.7524
  907MOL0     H22394  11.848   5.559   8.409  0.8027  0.2346  0.5707
  907MOL0     H22395  11.676   5.512   8.447 -0.9061 -0.7191  1.7539
  907MOL0     H22396  11.998   5.592   8.680  0.9038 -0.2886  2.9217
  907MOL0     H22397  11.848   5.798   8.959  1.4200 -1.9953  2.5422
  907MOL0     H22398  11.990   5.699   8.933 -0.8504 -1.9775 -0.5013
  907MOL0     H22399  12.109   5.861   8.787 -0.5096 -0.0555 -2.7649
  907MOL0     H22400  11.972   5.944   8.749  0.7298 -0.0570  0.1865
  907MOL0     H22401  12.131   5.946   9.017  1.0384  1.7212  0.9827
  907MOL0     H22402  11.966   6.015   9.017  0.2224  1.5357 -1.5320
  907MOL0     H22403  12.155   6.193   8.970  1.0342  1.9290 -2.1589
  907MOL0     H22404  12.055   6.169   8.826  1.1291  0.3548 -0.6361
  907MOL0     H22405  12.291   6.081   9.093  1.3183 -1.1315  0.8509
  907MOL0     H22406  12.513   6.050   9.168  2.0945 -1.2955 -0.1991
  907MOL0     H22407  12.853   6.312   9.244  1.4334  0.2965 -1.7768
  907MOL0     H22408  13.084   6.329   9.357  1.8108 -2.2209  4.0374
  907MOL0     H22409  13.301   6.325   9.322 -1.4605 -0.7207 -0.0322
  907MOL0     H22410  13.349   6.296   9.491 -0.3599 -1.1970  1.2311
  907MOL0     H22411  13.530   6.277   9.338  0.2745 -1.3298  0.1684
  907MOL0     H22412  13.501   6.117   9.417 -0.4793  1.9299  3.9258
  907MOL0     H22413  13.405   6.029   9.199  0.6632 -1.4700  0.3757
  907MOL0     H22414  13.390   6.198   9.143  1.5484  1.0087 -1.0289
  907MOL0     H22415  13.669   6.084   9.232  2.7493  0.9457 -0.3223
  907MOL0     H22416  13.644   6.208   9.119  2.6364 -0.8239  0.1598
  907MOL0     H22417  13.516   5.977   9.017 -1.7923  1.4422  2.2348
  907MOL0     H22418  13.681   5.927   9.058 -0.2784 -0.4232 -1.7351
  907MOL0     H22419  13.789   6.059   8.928 -0.3437  2.2207  1.8911
  907MOL0     H22420  13.658   5.978   8.829 -2.5873 -1.0905  1.3773
  907MOL0     H22421  13.678   6.274   8.923 -1.0031 -0.0842  1.0654
  907MOL0     H22422  13.535   6.207   8.841 -1.0381  1.7305  1.4080
  907MOL0     H22423  13.685   6.135   8.653 -3.5354 -0.1115  1.3872
  907MOL0     H22424  13.640   6.296   8.663 -3.5931 -3.5525 -1.1867
  907MOL0     H22425  13.147   5.913   9.305  3.2666  2.1465  0.5437
  907MOL0     H22426  12.920   5.892   9.200  2.9032 -0.5619 -2.6397
  907MOL0     H22427  12.672   6.030   8.768 -1.4378  0.9884 -1.3035
  907MOL0     H22428  12.429   6.053   8.688 -1.0435 -0.3427  1.3238
  907MOL0     H22429  11.159   4.666   8.891 -0.3099  1.9350  0.8034
  907MOL0     H22430  10.920   4.587   8.868 -0.1587 -2.9289 -2.3581
  907MOL0     H22431  10.552   4.683   8.589 -2.8578  2.9627 -0.2476
  907MOL0     H22432  10.302   4.670   8.576 -2.4642 -0.0858  1.5876
  907MOL0     H22433  10.035   4.658   8.691 -0.8723  2.8101  1.7156
  907MOL0     H22434  10.142   4.643   8.839 -0.6536 -0.8751  1.4986
  907MOL0     H22435  10.026   4.505   8.955  1.0315  2.3403  0.1275
  907MOL0     H22436   9.924   4.447   8.819 -0.4010 -0.4107 -0.1907
  907MOL0     H22437   9.795   4.666   8.829  1.9706  1.9649 -0.8356
  907MOL0     H22438   9.906   4.725   8.961  0.6503 -0.4174 -1.5933
  907MOL0     H22439   9.821   4.535   9.091 -0.3086  0.0820 -0.5130
  907MOL0     H22440   9.706   4.662   9.066 -2.2556 -2.6689  2.1748
  907MOL0     H22441   9.526   4.302   8.922  0.6116 -1.0887  0.9325
  907MOL0     H22442  10.286   4.320   8.795  1.5722 -1.8597  0.6063
  907MOL0     H22443  10.619   4.338   8.946  0.3015 -0.6520  0.1432
  907MOL0     H22444  10.492   4.223   8.899  0.9554 -2.1885  1.0674
  907MOL0     H22445  10.641   4.232   8.809 -1.3893 -0.9438  1.0360
  908MOL0     O22446  11.300   7.056   5.064  0.4076 -0.5425 -0.1540
  908MOL0     C22447  11.206   7.098   5.139 -0.2015  0.4510  0.0296
  908MOL0     O22448  11.209   7.102   5.280  0.0326  0.1896  0.8566
  908MOL0     C22449  11.328   7.073   5.344  0.4408  0.0802  0.7204
  908MOL0     C22450  11.377   6.949   5.352 -0.6941 -0.7556 -0.0838
  908MOL0     C22451  11.501   6.925   5.415 -0.5553 -0.3825 -0.6679
  908MOL0     C22452  11.563   7.031   5.487 -0.3651 -0.3657  0.6807
  908MOL0     O22453  11.675   7.024   5.559  0.6360  0.5740 -0.2885
  908MOL0     C22454  11.760   6.912   5.522 -0.4555 -0.8921 -0.1473
  908MOL0     C22455  11.896   6.922   5.580  0.1529  0.1222 -0.4212
  908MOL0     C22456  11.967   6.787   5.559  0.5144 -0.2592  0.0765
  908MOL0     C22457  12.112   6.804   5.571  0.3733 -0.2328 -0.4070
  908MOL0     C22458  12.196   6.670   5.579  0.6690  0.0946  0.0796
  908MOL0     C22459  12.332   6.695   5.655  0.9663  0.1723  0.7293
  908MOL0     C22460  12.409   6.562   5.678  0.1843  0.0572  0.3216
  908MOL0     C22461  12.539   6.577   5.756  0.6579  0.0170  0.0810
  908MOL0     N22462  12.645   6.610   5.660 -0.5551  0.1747 -0.2759
  908MOL0     C22463  12.661   6.734   5.612  0.2037 -0.4186  0.7219
  908MOL0     C22464  12.751   6.721   5.522 -0.6503 -0.5071  0.1150
  908MOL0     C22465  12.805   6.835   5.434 -0.1019 -0.7397  0.3035
  908MOL0     C22466  12.901   6.922   5.508 -0.1311 -0.1863  0.3905
  908MOL0     C22467  13.020   6.843   5.567 -0.1147  0.2394 -2.4173
  908MOL0     C22468  13.112   6.770   5.479  0.4482 -0.0919 -0.3164
  908MOL0     O22469  13.212   6.698   5.571  0.1102 -1.1636 -0.2828
  908MOL0     C22470  13.337   6.752   5.586 -0.1332 -0.2066 -0.7717
  908MOL0     C22471  13.429   6.668   5.643 -0.2308 -0.0552 -0.3883
  908MOL0     C22472  13.554   6.719   5.678  0.7192 -0.0463  0.0078
  908MOL0     C22473  13.589   6.855   5.655 -0.1056  0.1040 -0.0772
  908MOL0     C22474  13.724   6.912   5.683 -0.1407 -0.1083  0.3178
  908MOL0     O22475  13.774   7.010   5.594 -0.8461 -0.0767  0.0619
  908MOL0     C22476  13.903   7.058   5.620 -0.3453 -0.0044  0.2208
  908MOL0     C22477  13.935   7.176   5.689 -0.1065 -0.5939 -0.2998
  908MOL0     C22478  14.071   7.219   5.705  0.1106 -0.5424  0.4549
  908MOL0     C22479  14.176   7.140   5.654  0.4385  0.0984  0.1859
  908MOL0     O22480  14.299   7.198   5.693 -0.2869 -0.0543 -0.3035
  908MOL0     C22481  14.420   7.121   5.656  0.3458 -0.0579  0.2982
  908MOL0     C22482  14.542   7.168   5.735  0.6904  0.4048  0.3109
  908MOL0     C22483  14.678   7.117   5.682 -0.3619  0.6807  0.5642
  908MOL0     C22484  14.795   7.208   5.728  1.0001  0.3652  0.5633
  908MOL0     C22485  14.816   7.217   5.876  0.5546 -0.1946 -0.5649
  908MOL0     C22486  14.944   7.291   5.907  0.6505 -0.3168 -0.1975
  908MOL0     C22487  14.978   7.287   6.059  0.7766 -0.2612 -1.3886
  908MOL0     C22488  15.121   7.329   6.093  0.0018  0.1520  0.0065
  908MOL0    Cl22489  15.240   7.215   6.018 -0.6214  0.3211 -0.4085
  908MOL0     C22490  14.151   7.021   5.583 -0.6666  0.2073  0.4331
  908MOL0     C22491  14.017   6.987   5.567 -0.3172 -0.4893  0.8557
  908MOL0     O22492  13.782   6.859   5.775 -0.1720  0.6516 -0.2280
  908MOL0     C22493  13.497   6.928   5.581 -0.7163  0.3688  0.6799
  908MOL0     C22494  13.374   6.882   5.539  0.8177  0.1818  0.2947
  908MOL0     N22495  12.793   6.591   5.514 -0.8902  0.2604 -0.3609
  908MOL0     N22496  12.726   6.519   5.597 -0.4532 -0.9012  0.5970
  908MOL0     C22497  11.498   7.156   5.493  0.2534 -0.1238  0.0710
  908MOL0     C22498  11.377   7.179   5.423 -0.4105  0.0552 -0.0183
  908MOL0     C22499  11.078   7.132   5.069 -0.4871 -0.5411  0.1420
  908MOL0     C22500  11.070   7.092   4.938 -0.8517 -0.6828  0.1639
  908MOL0     C22501  10.953   7.094   4.875  0.3675  0.4843  0.3491
  908MOL0     C22502  10.845   7.148   4.931  0.8324 -0.4030  0.7505
  908MOL0     O22503  10.726   7.168   4.865 -0.5419 -0.6191 -0.3222
  908MOL0     C22504  10.711   7.164   4.720 -0.2803 -0.5695 -0.2315
  908MOL0     C22505  10.562   7.182   4.691  0.0112 -0.4146  0.0070
  908MOL0     C22506  10.531   7.339   4.701  0.9282  0.0579 -0.2658
  908MOL0     C22507  10.393   7.385   4.704  0.8184  0.3325 -0.2665
  908MOL0     C22508  10.321   7.369   4.575 -0.2073  0.1631  1.3925
  908MOL0     C22509  10.244   7.359   4.476 -0.5049  0.3417 -0.2023
  908MOL0     C22510  10.845   7.205   5.059 -0.0315  0.8434 -0.1954
  908MOL0     C22511  10.975   7.199   5.129  0.3961 -0.5047 -0.5436
  908MOL0     C22512  10.987   7.271   5.258  0.5134 -0.0265  0.8507
  908MOL0     H22513  11.326   6.869   5.298 -1.3679  0.3426 -1.1166
  908MOL0     H22514  11.544   6.826   5.407  0.4695  0.1792 -2.7837
  908MOL0     H22515  11.703   6.827   5.560 -2.2337 -0.5175 -1.8104
  908MOL0     H22516  11.762   6.913   5.413  0.5294 -0.2141 -0.1337
  908MOL0     H22517  11.887   6.940   5.687 -1.1219  1.8403 -0.7729
  908MOL0     H22518  11.957   7.003   5.539  1.6621  0.2547  1.9010
  908MOL0     H22519  11.943   6.747   5.460  2.5567 -0.0238 -0.5610
  908MOL0     H22520  11.948   6.708   5.633  0.3103  0.8133  1.2144
  908MOL0     H22521  12.161   6.859   5.491  1.2914 -1.2452 -0.5630
  908MOL0     H22522  12.140   6.855   5.663 -3.2278  0.7376  0.3040
  908MOL0     H22523  12.139   6.590   5.626 -3.1178  2.4445 -0.0738
  908MOL0     H22524  12.214   6.635   5.477  0.0066  0.2557 -0.0974
  908MOL0     H22525  12.393   6.763   5.595  0.2625 -0.2186 -0.4555
  908MOL0     H22526  12.306   6.745   5.749  0.6606 -1.0437  1.3206
  908MOL0     H22527  12.434   6.522   5.579 -1.1389  2.1547 -0.9481
  908MOL0     H22528  12.337   6.502   5.734 -0.0271  3.5269  4.2321
  908MOL0     H22529  12.527   6.664   5.822  1.8573 -0.6331  1.1926
  908MOL0     H22530  12.571   6.487   5.809  2.7738  2.2417  2.9131
  908MOL0     H22531  12.605   6.825   5.631 -1.8736 -0.9103 -2.3381
  908MOL0     H22532  12.857   6.795   5.346 -2.3256 -1.9449 -0.5390
  908MOL0     H22533  12.727   6.903   5.398  2.3599  1.3516 -1.3832
  908MOL0     H22534  12.945   6.999   5.444  0.8889  1.2050  2.6205
  908MOL0     H22535  12.845   6.976   5.584 -0.0693  1.1934 -0.5154
  908MOL0     H22536  12.980   6.775   5.643  1.2629  2.5340  0.5778
  908MOL0     H22537  13.086   6.915   5.617 -0.9834  0.0618 -0.9492
  908MOL0     H22538  13.157   6.835   5.404  0.6444 -0.2136 -0.3042
  908MOL0     H22539  13.047   6.705   5.419  2.9069 -1.0127 -2.1548
  908MOL0     H22540  13.396   6.568   5.668  0.1598  0.2544  1.4884
  908MOL0     H22541  13.632   6.658   5.723 -1.4799 -0.5838  3.3874
  908MOL0     H22542  13.849   7.236   5.717 -1.8106 -3.3457  0.7636
  908MOL0     H22543  14.108   7.311   5.749  0.4259  0.2012 -1.2831
  908MOL0     H22544  14.411   7.018   5.691  0.6994  0.2011  1.1834
  908MOL0     H22545  14.440   7.124   5.549  0.2802  2.3760  0.3024
  908MOL0     H22546  14.549   7.277   5.739  1.1690  0.4252 -0.7751
  908MOL0     H22547  14.527   7.140   5.839 -0.7046  2.1001  0.6197
  908MOL0     H22548  14.695   7.014   5.716 -1.4914  1.0616  2.4255
  908MOL0     H22549  14.681   7.113   5.573  1.1853  0.4586  0.6034
  908MOL0     H22550  14.770   7.304   5.683 -1.3504 -1.5229 -2.4743
  908MOL0     H22551  14.893   7.182   5.686  0.9394 -0.4280  0.9040
  908MOL0     H22552  14.812   7.116   5.918 -0.8367 -0.3434 -1.0120
  908MOL0     H22553  14.738   7.277   5.923  1.0067 -0.2184  0.2262
  908MOL0     H22554  15.036   7.245   5.870 -0.2378 -1.5948 -0.8966
  908MOL0     H22555  14.939   7.394   5.871  2.7590 -0.2512 -0.4083
  908MOL0     H22556  14.953   7.194   6.110  0.8872  0.3811 -0.1210
  908MOL0     H22557  14.907   7.349   6.115  1.9783  0.2568 -0.4004
  908MOL0     H22558  15.123   7.428   6.046 -2.5098  0.4546  0.3920
  908MOL0     H22559  15.132   7.342   6.201 -0.7438  1.4887 -0.0585
  908MOL0     H22560  14.234   6.964   5.542 -0.4829  0.1966  0.8145
  908MOL0     H22561  14.004   6.896   5.509  3.0410  0.1703 -1.2315
  908MOL0     H22562  13.527   7.028   5.552  0.6383  0.3068  1.7785
  908MOL0     H22563  13.308   6.951   5.487  1.0930 -0.6396 -1.2045
  908MOL0     H22564  11.548   7.239   5.541  0.7219 -0.2548 -0.1836
  908MOL0     H22565  11.320   7.271   5.428 -3.4934 -1.6855 -0.7200
  908MOL0     H22566  11.151   7.037   4.891 -2.8085 -3.2496 -0.4396
  908MOL0     H22567  10.949   7.048   4.777  1.5199  0.5871  0.2401
  908MOL0     H22568  10.751   7.071   4.679 -3.7478 -0.9147 -3.3247
  908MOL0     H22569  10.761   7.247   4.669 -0.5570 -0.8357 -0.9505
  908MOL0     H22570  10.493   7.115   4.743 -2.2057  2.2770  0.7997
  908MOL0     H22571  10.554   7.158   4.584 -0.5432 -0.1674 -0.0130
  908MOL0     H22572  10.581   7.375   4.610  1.6675 -1.5632 -0.5499
  908MOL0     H22573  10.584   7.384   4.786  0.4245  1.4907 -0.6974
  908MOL0     H22574  10.350   7.326   4.784  0.8070 -0.8392 -1.1166
  908MOL0     H22575  10.399   7.492   4.730  1.9214  0.0680  0.6523
  908MOL0     H22576  10.178   7.345   4.393 -0.0711 -2.3000 -0.1605
  908MOL0     H22577  10.767   7.263   5.107 -0.0851  1.6031 -1.1599
  908MOL0     H22578  10.933   7.366   5.254 -1.1211 -0.9556 -0.2628
  908MOL0     H22579  10.943   7.206   5.335 -0.0329 -2.5914 -1.4905
  908MOL0     H22580  11.091   7.292   5.285  1.1520  0.8714 -2.0158
  909MOL0     O22581   9.623   7.772   3.104  0.7039 -0.1187 -0.0139
  909MOL0     C22582   9.523   7.722   3.163  0.4145  0.2665 -0.1780
  909MOL0     O22583   9.487   7.739   3.297  0.5821 -0.1174 -0.7328
  909MOL0     C22584   9.584   7.770   3.379 -0.3412  0.0470 -0.5499
  909MOL0     C22585   9.640   7.901   3.380  0.4852 -0.0333  0.2496
  909MOL0     C22586   9.754   7.920   3.463 -0.3317 -0.0232  0.4705
  909MOL0     C22587   9.801   7.826   3.557  0.4438 -0.2161  0.7559
  909MOL0     O22588   9.896   7.845   3.656 -0.3592  0.4722  0.0993
  909MOL0     C22589   9.876   7.955   3.745 -0.6046  0.2335  0.5421
  909MOL0     C22590   9.963   7.921   3.868  0.4513 -0.0536 -0.6126
  909MOL0     C22591   9.946   8.026   3.981  0.6662  0.1692  0.5094
  909MOL0     C22592  10.073   8.099   4.012 -0.0417  0.5028  0.4103
  909MOL0     C22593  10.065   8.188   4.145  0.1309 -0.4942  0.0204
  909MOL0     C22594  10.201   8.250   4.178 -0.7116  0.2367 -0.3598
  909MOL0     C22595  10.180   8.361   4.274  0.0977 -0.0533 -0.0220
  909MOL0     C22596  10.161   8.324   4.429 -1.1068  0.2162  0.2344
  909MOL0     N22597  10.293   8.300   4.485  0.1389 -0.0258  0.1565
  909MOL0     C22598  10.360   8.178   4.482 -0.5172 -1.0854 -0.0270
  909MOL0     C22599  10.476   8.204   4.534  0.2079  0.2542 -0.5192
  909MOL0     C22600  10.593   8.105   4.541 -0.0687  0.1104  0.1813
  909MOL0     C22601  10.686   8.135   4.653 -0.4291  0.7300  0.8936
  909MOL0     C22602  10.803   8.221   4.608 -0.2379 -0.2507  0.5628
  909MOL0     C22603  10.897   8.227   4.727  0.4672 -0.4409 -0.3427
  909MOL0     O22604  10.981   8.113   4.722  0.5459 -0.2146 -0.4750
  909MOL0     C22605  11.118   8.135   4.686  0.0713  0.2199 -0.2320
  909MOL0     C22606  11.164   8.240   4.610 -0.4536 -1.2110 -0.1308
  909MOL0     C22607  11.307   8.261   4.602 -0.2742  0.1337 -0.1759
  909MOL0     C22608  11.402   8.185   4.680 -0.2313 -0.3874  0.0480
  909MOL0     C22609  11.549   8.224   4.680  0.0568  0.5929  0.8280
  909MOL0     O22610  11.640   8.148   4.750  0.0746  1.0484  0.1125
  909MOL0     C22611  11.763   8.201   4.773 -0.1145 -0.3254  1.4980
  909MOL0     C22612  11.876   8.170   4.697  0.1917  0.0207 -0.5516
  909MOL0     C22613  12.003   8.222   4.727 -0.1576 -0.3601  0.2321
  909MOL0     C22614  12.026   8.307   4.839  0.0326 -0.8100 -0.2963
  909MOL0     O22615  12.141   8.355   4.886  0.0263 -0.3543 -0.2799
  909MOL0     C22616  12.261   8.343   4.806 -0.4692 -0.6702  0.5754
  909MOL0     C22617  12.326   8.210   4.838  0.0327 -0.4378  0.6057
  909MOL0     C22618  12.427   8.214   4.956  0.0565  0.3478 -0.1588
  909MOL0     C22619  12.521   8.092   4.971  0.2659 -0.7312  0.3960
  909MOL0     C22620  12.654   8.104   4.898  0.4260 -0.9485 -1.0839
  909MOL0     C22621  12.725   8.228   4.946 -0.0911 -0.1167 -0.2439
  909MOL0     C22622  12.867   8.241   4.877  0.4791 -0.7463 -0.3534
  909MOL0     C22623  12.963   8.306   4.972 -0.8597 -0.0475 -0.5556
  909MOL0    Cl22624  12.997   8.217   5.121 -0.3262 -0.0141 -0.0859
  909MOL0     C22625  11.905   8.340   4.910  0.4913 -0.3557  0.4092
  909MOL0     C22626  11.785   8.279   4.881  0.0152 -0.0601 -0.5013
  909MOL0     O22627  11.578   8.312   4.596 -0.5832 -0.2711 -0.4781
  909MOL0     C22628  11.354   8.071   4.742 -0.2302  0.5453 -0.5589
  909MOL0     C22629  11.216   8.052   4.744 -0.3130  0.2019  0.2143
  909MOL0     N22630  10.474   8.330   4.582 -0.6284 -0.0406 -0.2923
  909MOL0     N22631  10.366   8.397   4.549 -0.2729  0.7707 -0.3686
  909MOL0     C22632   9.748   7.694   3.544 -0.0920  0.4515  0.3328
  909MOL0     C22633   9.629   7.679   3.470  0.7051  0.7031  0.5483
  909MOL0     C22634   9.428   7.629   3.096  0.0017  0.6201  0.4211
  909MOL0     C22635   9.333   7.562   3.175 -0.2059  0.2156 -0.1040
  909MOL0     C22636   9.237   7.480   3.106 -0.2301  1.0916  1.2029
  909MOL0     C22637   9.239   7.457   2.968 -0.4054 -0.7111 -0.2529
  909MOL0     O22638   9.127   7.392   2.923 -0.8905  0.3350  0.4511
  909MOL0     C22639   9.080   7.413   2.793  0.6253 -0.3485 -0.6960
  909MOL0     C22640   8.996   7.296   2.738 -0.1795  0.0162  0.2524
  909MOL0     C22641   8.859   7.284   2.809  0.0135 -0.1750 -0.2116
  909MOL0     C22642   8.766   7.194   2.745 -0.1895  0.2100 -1.1891
  909MOL0     C22643   8.707   7.249   2.622  0.4980 -0.2758  0.5174
  909MOL0     C22644   8.656   7.294   2.516  0.9127 -0.0571 -0.4804
  909MOL0     C22645   9.337   7.520   2.893  0.1294  0.0588  0.0547
  909MOL0     C22646   9.429   7.614   2.953  0.8370 -0.1099  0.2302
  909MOL0     C22647   9.503   7.697   2.849  0.1523  0.2660 -1.1249
  909MOL0     H22648   9.602   7.979   3.315 -2.6289 -1.3568  0.3083
  909MOL0     H22649   9.803   8.017   3.454 -0.4010 -0.0621 -0.4382
  909MOL0     H22650   9.899   8.053   3.702 -2.1606  0.4357  0.1043
  909MOL0     H22651   9.769   7.954   3.768 -0.9915 -1.5053 -1.0938
  909MOL0     H22652  10.069   7.919   3.839  0.6259  0.0077 -0.0069
  909MOL0     H22653   9.952   7.819   3.905 -1.9578  0.4206  0.1543
  909MOL0     H22654   9.911   7.976   4.071  1.7570 -0.0031  0.8562
  909MOL0     H22655   9.856   8.082   3.954  0.3649 -1.4435 -2.2985
  909MOL0     H22656  10.153   8.027   4.031 -1.7935 -1.3522  1.2495
  909MOL0     H22657  10.099   8.175   3.938 -0.1954  1.3104  1.1712
  909MOL0     H22658   9.991   8.267   4.126 -2.2891 -2.5895  0.1750
  909MOL0     H22659  10.025   8.129   4.228  1.7428 -1.5206  0.1104
  909MOL0     H22660  10.263   8.180   4.236 -1.5522 -0.6510 -0.4999
  909MOL0     H22661  10.253   8.287   4.089 -1.1636 -1.4490 -1.3929
  909MOL0     H22662  10.089   8.413   4.243  0.7207  1.0955  0.0172
  909MOL0     H22663  10.261   8.435   4.269  2.2697 -2.1961  1.3431
  909MOL0     H22664  10.122   8.410   4.485  0.2046  3.0523 -2.8854
  909MOL0     H22665  10.085   8.246   4.444 -3.0916  2.5774  3.9848
  909MOL0     H22666  10.322   8.084   4.445 -1.3292 -1.3032  1.2834
  909MOL0     H22667  10.564   8.000   4.537  3.1498 -0.8605 -0.4141
  909MOL0     H22668  10.635   8.123   4.442  0.8895  0.9918  0.7266
  909MOL0     H22669  10.639   8.184   4.739 -2.2810 -2.3786  1.7905
  909MOL0     H22670  10.713   8.035   4.686 -2.4618 -0.4265 -0.7138
  909MOL0     H22671  10.780   8.326   4.590 -0.6302 -0.7714 -2.5004
  909MOL0     H22672  10.863   8.190   4.522 -1.3804  1.4818 -0.9215
  909MOL0     H22673  10.843   8.228   4.822  2.3993  1.7494  0.8308
  909MOL0     H22674  10.957   8.318   4.724 -0.2787  0.0651 -0.2163
  909MOL0     H22675  11.103   8.301   4.545  1.8102  1.8961  0.4371
  909MOL0     H22676  11.347   8.347   4.549  2.9849 -0.6612  0.7685
  909MOL0     H22677  11.863   8.096   4.619  1.5121 -1.4862  0.5844
  909MOL0     H22678  12.092   8.204   4.667  2.1197  2.6253  2.3497
  909MOL0     H22679  12.238   8.361   4.701  1.3979  2.4865  0.5782
  909MOL0     H22680  12.336   8.418   4.835  2.0496 -2.2822 -1.2821
  909MOL0     H22681  12.249   8.133   4.841  1.1205 -1.6786 -1.1863
  909MOL0     H22682  12.377   8.184   4.745  1.3030  2.2152  0.4678
  909MOL0     H22683  12.481   8.309   4.955 -0.3605  0.6889  2.7997
  909MOL0     H22684  12.367   8.224   5.047  0.5447  1.1597  0.0846
  909MOL0     H22685  12.465   8.005   4.934  0.2175 -0.5492  0.0274
  909MOL0     H22686  12.534   8.072   5.077  0.3143 -2.2160  0.1331
  909MOL0     H22687  12.640   8.105   4.790 -0.2093 -0.1168 -0.9925
  909MOL0     H22688  12.709   8.014   4.930 -2.4407 -1.4417  3.2900
  909MOL0     H22689  12.670   8.321   4.928  2.3235  1.2507 -1.0472
  909MOL0     H22690  12.734   8.218   5.055  1.3737 -1.3773 -0.4516
  909MOL0     H22691  12.860   8.297   4.783  1.0341  0.0279  0.0462
  909MOL0     H22692  12.923   8.151   4.853  2.0090 -0.0573  0.4845
  909MOL0     H22693  13.058   8.313   4.918  0.9608  3.6683  2.6917
  909MOL0     H22694  12.921   8.401   5.005 -0.5240 -0.3175  0.7082
  909MOL0     H22695  11.896   8.414   4.989  0.9491 -0.9561  1.0387
  909MOL0     H22696  11.701   8.309   4.943  0.5843  2.1452 -0.7203
  909MOL0     H22697  11.425   8.003   4.789  1.2366  3.2602  1.4789
  909MOL0     H22698  11.187   7.959   4.792  2.2351 -0.9623 -0.3262
  909MOL0     H22699   9.801   7.616   3.596 -2.4339 -0.4125  1.5993
  909MOL0     H22700   9.573   7.586   3.472  1.1856  0.4242  2.1069
  909MOL0     H22701   9.316   7.566   3.282 -1.7744 -0.3150 -0.3151
  909MOL0     H22702   9.157   7.438   3.165  1.5243 -2.3881  1.3474
  909MOL0     H22703   9.167   7.426   2.728 -0.5556  4.3390 -1.6911
  909MOL0     H22704   9.022   7.505   2.787 -2.9156 -2.2478  1.2023
  909MOL0     H22705   9.052   7.204   2.753  3.1039  2.0579  1.6682
  909MOL0     H22706   8.978   7.308   2.631  1.0466 -0.6617 -0.0483
  909MOL0     H22707   8.818   7.386   2.812  4.1892  1.6870  0.9950
  909MOL0     H22708   8.871   7.265   2.916 -3.8936  1.2910  0.6327
  909MOL0     H22709   8.813   7.098   2.723 -2.5590 -1.0724 -1.0390
  909MOL0     H22710   8.694   7.171   2.824  1.1962  0.5141  0.2165
  909MOL0     H22711   8.606   7.340   2.434 -2.0756  0.7152  1.5731
  909MOL0     H22712   9.346   7.495   2.788  0.4309 -2.0273  0.5168
  909MOL0     H22713   9.610   7.680   2.860 -0.2822 -1.7315  0.6876
  909MOL0     H22714   9.470   7.676   2.747 -1.1556  4.5634 -1.8067
  909MOL0     H22715   9.480   7.804   2.858 -2.8228 -0.3464 -0.1739
  910MOL0     O22716   7.830   5.913   4.543 -0.0045  0.5006 -0.6368
  910MOL0     C22717   7.759   5.838   4.478  0.1986 -0.0912  0.7067
  910MOL0     O22718   7.782   5.706   4.469  0.0006 -0.0138 -0.4849
  910MOL0     C22719   7.849   5.647   4.575  1.5922  0.2537 -1.0516
  910MOL0     C22720   7.784   5.640   4.703 -0.4447  0.2397 -0.4959
  910MOL0     C22721   7.859   5.600   4.818 -0.0851 -0.0332  0.3877
  910MOL0     C22722   7.987   5.541   4.808  0.6537  0.5774  0.6960
  910MOL0     O22723   8.081   5.496   4.904  0.3281 -0.1134  0.5514
  910MOL0     C22724   8.018   5.445   5.023  0.4726 -0.8307  0.0795
  910MOL0     C22725   8.113   5.339   5.084 -0.2780  1.0132 -0.2625
  910MOL0     C22726   8.263   5.381   5.075 -0.2676  0.2432  0.5454
  910MOL0     C22727   8.359   5.286   5.158 -0.4118 -0.6606  0.2076
  910MOL0     C22728   8.501   5.330   5.166 -0.5520 -0.0480 -0.2444
  910MOL0     C22729   8.529   5.450   5.260 -0.3182  0.8611  0.0124
  910MOL0     C22730   8.681   5.493   5.267 -0.1711 -0.4867  0.9405
  910MOL0     C22731   8.697   5.586   5.387 -0.2656 -0.1634  0.2455
  910MOL0     N22732   8.815   5.674   5.372 -0.2907 -0.3723  0.4732
  910MOL0     C22733   8.844   5.765   5.265 -0.3103 -0.5145 -0.0735
  910MOL0     C22734   8.970   5.814   5.287 -0.6697  0.3750 -0.2129
  910MOL0     C22735   9.051   5.906   5.207  0.8737  0.0302 -0.4658
  910MOL0     C22736   9.188   5.857   5.181 -0.8974  0.5084 -0.3772
  910MOL0     C22737   9.270   5.961   5.112 -1.1546 -0.9789  0.2074
  910MOL0     C22738   9.414   5.921   5.069  0.3148  0.5737  0.4357
  910MOL0     O22739   9.468   6.032   4.984  0.6362  0.0176  0.2500
  910MOL0     C22740   9.594   6.029   4.951  0.4874 -0.1867  0.8506
  910MOL0     C22741   9.637   6.136   4.865  0.6510  0.4705 -0.0642
  910MOL0     C22742   9.761   6.143   4.805  0.6964  1.2289 -0.2521
  910MOL0     C22743   9.851   6.045   4.845 -0.0364 -0.0310  0.3110
  910MOL0     C22744   9.989   6.061   4.793 -0.5507  0.4889 -0.8171
  910MOL0     O22745  10.043   6.183   4.756  0.4856 -0.1690  0.3312
  910MOL0     C22746  10.167   6.205   4.713  0.2023  0.2300  0.1126
  910MOL0     C22747  10.254   6.112   4.652  0.0806  0.3539  0.2809
  910MOL0     C22748  10.388   6.142   4.628 -0.0902  0.4817 -0.2495
  910MOL0     C22749  10.440   6.268   4.668 -0.0654  1.1298 -0.2282
  910MOL0     O22750  10.578   6.275   4.685 -0.6458 -0.3029 -0.4706
  910MOL0     C22751  10.620   6.403   4.731 -0.1624 -0.5575 -0.3111
  910MOL0     C22752  10.772   6.395   4.713 -0.1646  0.6825 -0.1822
  910MOL0     C22753  10.838   6.517   4.760  0.8484  0.3296 -0.7000
  910MOL0     C22754  10.982   6.525   4.705 -0.1168  0.4529  0.1488
  910MOL0     C22755  11.066   6.635   4.778 -0.0391  0.7417  0.3690
  910MOL0     C22756  11.192   6.680   4.699 -0.1027 -0.3648  0.0277
  910MOL0     C22757  11.288   6.568   4.677  0.4557  0.3621  0.3152
  910MOL0     C22758  11.393   6.610   4.574  0.5592  0.0200  0.1766
  910MOL0    Cl22759  11.491   6.476   4.549 -0.2446  0.1355 -0.5500
  910MOL0     C22760  10.349   6.361   4.714 -0.2840  0.2254 -0.0629
  910MOL0     C22761  10.216   6.328   4.729 -0.5372 -0.2559 -0.0239
  910MOL0     O22762  10.054   5.955   4.793 -0.2264  0.2856 -0.5617
  910MOL0     C22763   9.818   5.934   4.932  0.0926 -0.6871 -0.1790
  910MOL0     C22764   9.680   5.932   4.986  0.2033 -0.1492  0.0274
  910MOL0     N22765   9.013   5.758   5.399 -0.0713  0.5690  0.3667
  910MOL0     N22766   8.925   5.677   5.451  0.4496 -0.5777  0.7034
  910MOL0     C22767   8.040   5.533   4.673 -0.8126 -0.0613 -0.2783
  910MOL0     C22768   7.975   5.589   4.563  0.6131 -0.0580  0.4040
  910MOL0     C22769   7.641   5.901   4.403  0.5507  0.1971 -0.7906
  910MOL0     C22770   7.653   6.033   4.356 -0.7598 -0.1799  0.5238
  910MOL0     C22771   7.554   6.094   4.280  0.7379 -0.4179 -0.1427
  910MOL0     C22772   7.427   6.036   4.277 -0.5309  0.2241  0.4874
  910MOL0     O22773   7.331   6.111   4.220 -0.1335 -0.1810  0.0776
  910MOL0     C22774   7.187   6.078   4.219  0.1677  0.7283  0.3568
  910MOL0     C22775   7.156   5.994   4.093 -0.3407  0.3249 -0.2568
  910MOL0     C22776   7.008   6.008   4.057 -0.0147 -0.5124 -0.6270
  910MOL0     C22777   6.981   5.999   3.908  0.0987  0.4112 -0.7355
  910MOL0     C22778   6.846   5.957   3.875 -0.1073 -0.0320 -0.2943
  910MOL0     C22779   6.737   5.924   3.841 -0.3709  0.3327  0.1036
  910MOL0     C22780   7.412   5.900   4.327 -0.2711 -0.6685 -0.2680
  910MOL0     C22781   7.516   5.838   4.390  0.4110  0.0710  0.2929
  910MOL0     C22782   7.483   5.703   4.456  0.2353  0.4497 -0.4021
  910MOL0     H22783   7.684   5.679   4.713 -0.4016  0.1673  0.2990
  910MOL0     H22784   7.819   5.588   4.918  1.8602 -1.3437  1.0693
  910MOL0     H22785   8.013   5.527   5.095 -0.0553  1.6896 -2.6487
  910MOL0     H22786   7.917   5.406   5.004  1.9780 -3.5389 -3.6392
  910MOL0     H22787   8.103   5.249   5.023  1.4308  1.3567 -1.1008
  910MOL0     H22788   8.073   5.311   5.182 -1.9847  0.9132 -0.9661
  910MOL0     H22789   8.269   5.483   5.115 -1.6915  1.1487 -1.3706
  910MOL0     H22790   8.291   5.378   4.969 -0.8314 -2.3884  0.4147
  910MOL0     H22791   8.315   5.263   5.256 -0.8503 -0.7875 -0.0158
  910MOL0     H22792   8.363   5.194   5.099 -1.8062 -0.7045  0.1671
  910MOL0     H22793   8.559   5.245   5.205 -1.9554  0.1159  2.4572
  910MOL0     H22794   8.549   5.344   5.069 -0.3270 -0.8456 -0.2574
  910MOL0     H22795   8.479   5.535   5.213 -0.4525 -0.5287 -2.5299
  910MOL0     H22796   8.494   5.424   5.360 -0.6783 -2.6424 -0.8730
  910MOL0     H22797   8.701   5.541   5.171  1.1562  1.2935  2.0360
  910MOL0     H22798   8.744   5.404   5.278 -1.8769 -1.7315  0.9099
  910MOL0     H22799   8.607   5.647   5.396  0.0288  0.4583 -0.8500
  910MOL0     H22800   8.699   5.536   5.484  0.4630  2.0260  1.4202
  910MOL0     H22801   8.778   5.782   5.181 -1.8395  1.1040  1.3679
  910MOL0     H22802   9.005   5.918   5.109 -1.4337  1.2555  0.6902
  910MOL0     H22803   9.042   6.002   5.259 -0.9037 -0.0328 -0.5959
  910MOL0     H22804   9.225   5.830   5.280  1.1016  0.9278 -0.9635
  910MOL0     H22805   9.180   5.772   5.112 -0.0639  0.8942 -0.9719
  910MOL0     H22806   9.274   6.050   5.175 -2.2801 -2.1110  1.9881
  910MOL0     H22807   9.209   5.988   5.026 -0.2070 -1.0433 -0.5018
  910MOL0     H22808   9.426   5.828   5.014  2.3855  1.5435 -0.8937
  910MOL0     H22809   9.470   5.905   5.161 -0.0997  0.0038  0.5931
  910MOL0     H22810   9.570   6.218   4.841  1.9480  0.8545 -2.6763
  910MOL0     H22811   9.788   6.215   4.728  1.7574 -1.2482 -2.3085
  910MOL0     H22812  10.207   6.015   4.636 -2.4771  1.6070 -0.2506
  910MOL0     H22813  10.450   6.061   4.591 -4.0717 -2.0929 -1.9643
  910MOL0     H22814  10.584   6.492   4.677 -1.0406 -0.1358  0.9210
  910MOL0     H22815  10.595   6.417   4.836 -0.8637 -1.3990 -0.3573
  910MOL0     H22816  10.812   6.310   4.769 -1.0031 -0.3164 -1.0658
  910MOL0     H22817  10.797   6.393   4.607 -1.0446 -2.2782 -0.4281
  910MOL0     H22818  10.786   6.602   4.716  0.3455 -0.0119 -0.7792
  910MOL0     H22819  10.835   6.513   4.869  2.1825  0.2779 -0.6479
  910MOL0     H22820  10.983   6.551   4.599  0.9955  0.0760  0.0589
  910MOL0     H22821  11.030   6.427   4.708  1.1341  0.9585 -1.7169
  910MOL0     H22822  11.107   6.604   4.875 -0.0990  2.4883  0.9904
  910MOL0     H22823  11.000   6.716   4.809 -2.2204 -2.1009  3.9541
  910MOL0     H22824  11.171   6.737   4.608  0.0243 -1.6069 -0.7954
  910MOL0     H22825  11.237   6.757   4.763 -1.3164 -0.6226  1.2315
  910MOL0     H22826  11.237   6.481   4.634  2.0466 -0.7930  0.6857
  910MOL0     H22827  11.336   6.531   4.768 -1.1349 -1.4202  0.5091
  910MOL0     H22828  11.335   6.627   4.482 -0.1873 -4.3851 -0.4068
  910MOL0     H22829  11.453   6.697   4.599  0.8697  0.3360 -1.5563
  910MOL0     H22830  10.383   6.453   4.760 -1.5458  0.4150  0.5271
  910MOL0     H22831  10.155   6.397   4.786  0.4740  0.4598  0.2153
  910MOL0     H22832   9.887   5.865   4.978 -0.3545 -0.7278  0.4456
  910MOL0     H22833   9.652   5.836   5.029  3.6522 -1.0784  0.5136
  910MOL0     H22834   8.137   5.486   4.669 -0.3631  0.8375 -0.1168
  910MOL0     H22835   8.024   5.598   4.466 -1.8736 -0.5407 -0.9696
  910MOL0     H22836   7.750   6.081   4.356 -0.9348  0.2876 -1.5042
  910MOL0     H22837   7.568   6.190   4.232  0.2948 -0.1477  0.2539
  910MOL0     H22838   7.137   6.175   4.216 -1.1333  0.0687  0.1771
  910MOL0     H22839   7.164   6.025   4.312  1.4043  0.2429  0.4043
  910MOL0     H22840   7.169   5.887   4.111 -3.9346  0.1990  2.9926
  910MOL0     H22841   7.223   6.034   4.016  0.7872  1.0340  1.0347
  910MOL0     H22842   6.964   6.108   4.064  0.7313 -0.2408  0.4321
  910MOL0     H22843   6.958   5.932   4.118  0.4141 -1.1340 -1.0290
  910MOL0     H22844   6.989   6.102   3.874 -1.0993  0.1590 -1.9115
  910MOL0     H22845   7.054   5.926   3.871  0.1506  0.1351 -0.1093
  910MOL0     H22846   6.660   5.863   3.797  0.5090  1.1420 -2.8209
  910MOL0     H22847   7.330   5.831   4.310  0.4002 -2.2930  2.5100
  910MOL0     H22848   7.526   5.704   4.557 -1.0012  1.5677  0.1419
  910MOL0     H22849   7.376   5.682   4.466  0.0033  1.1988 -1.2504
  910MOL0     H22850   7.535   5.622   4.403 -0.2302  0.8617 -1.5058
  911MOL0     O22851   3.805   4.005   2.876 -0.1052 -0.2524  0.6003
  911MOL0     C22852   3.736   3.907   2.846  0.1442  0.0955 -0.5030
  911MOL0     O22853   3.768   3.823   2.741  0.6115 -0.3594  0.2049
  911MOL0     C22854   3.858   3.871   2.647  0.4698  0.0354  0.2630
  911MOL0     C22855   3.996   3.861   2.669  0.1988 -0.9335 -0.3155
  911MOL0     C22856   4.090   3.903   2.565 -0.1423 -0.0045 -0.6357
  911MOL0     C22857   4.050   3.948   2.443  0.5161  0.2547 -0.4992
  911MOL0     O22858   4.140   3.980   2.340  0.0895 -0.9623  0.1915
  911MOL0     C22859   4.230   4.082   2.365 -0.4756 -1.0233 -0.2450
  911MOL0     C22860   4.319   4.042   2.256 -0.2370  0.0555  0.5185
  911MOL0     C22861   4.447   4.134   2.249 -0.6789  0.5749 -0.0481
  911MOL0     C22862   4.524   4.101   2.119  0.2546 -0.0875  0.1547
  911MOL0     C22863   4.634   4.205   2.099  0.5781 -0.5828  0.6510
  911MOL0     C22864   4.750   4.190   2.189 -0.1510  0.1703 -0.6017
  911MOL0     C22865   4.841   4.074   2.142 -0.9108 -0.2120 -0.8640
  911MOL0     C22866   4.913   4.020   2.265  0.7243 -1.2979 -0.3659
  911MOL0     N22867   4.987   4.122   2.345  0.0825  0.8009  0.0847
  911MOL0     C22868   4.946   4.179   2.462 -0.0583  0.2696 -0.5720
  911MOL0     C22869   5.051   4.251   2.499 -0.3777 -0.5940 -0.0014
  911MOL0     C22870   5.045   4.347   2.621  0.8880  0.4065  0.1620
  911MOL0     C22871   4.998   4.273   2.754  0.2029 -0.7489 -0.5195
  911MOL0     C22872   5.014   4.354   2.876 -0.2884 -0.7426  0.2360
  911MOL0     C22873   5.006   4.273   3.004  0.4337  1.1050 -0.2202
  911MOL0     O22874   5.079   4.148   2.994 -0.2998 -0.0884 -0.2472
  911MOL0     C22875   5.212   4.143   3.004  0.2539  0.4744 -0.4474
  911MOL0     C22876   5.273   4.020   2.983  0.2447 -0.7352  0.0007
  911MOL0     C22877   5.413   3.999   2.998 -0.1669 -1.0564  0.0708
  911MOL0     C22878   5.488   4.105   3.061 -0.3377  0.6642  0.3085
  911MOL0     C22879   5.638   4.085   3.090  0.7391 -0.6930 -0.4985
  911MOL0     O22880   5.699   3.981   3.033  0.1785  0.1218 -0.5294
  911MOL0     C22881   5.838   3.961   3.026 -0.2651  0.4587  0.2097
  911MOL0     C22882   5.942   4.061   3.035 -0.3081  0.5612 -0.4248
  911MOL0     C22883   6.076   4.018   3.023  0.0093 -0.1679 -0.6395
  911MOL0     C22884   6.110   3.888   2.981 -0.1629  0.9896 -0.0197
  911MOL0     O22885   6.242   3.860   2.967  0.5596 -0.7461 -0.1954
  911MOL0     C22886   6.276   3.728   2.934  0.2243  0.4440  0.3110
  911MOL0     C22887   6.421   3.711   2.903 -0.1129 -0.2447  0.3240
  911MOL0     C22888   6.475   3.823   2.809 -0.2452  0.3077 -0.3511
  911MOL0     C22889   6.597   3.772   2.740  0.4096 -0.7135 -0.5183
  911MOL0     C22890   6.655   3.881   2.646 -0.1204 -0.0422  0.1605
  911MOL0     C22891   6.780   3.837   2.589 -0.5872  0.1339  0.3163
  911MOL0     C22892   6.859   3.945   2.515  0.6719 -1.1979 -0.0139
  911MOL0     C22893   6.975   3.890   2.435 -0.1472  0.4029 -0.2683
  911MOL0    Cl22894   6.923   3.775   2.309  0.5306 -0.1763  0.0190
  911MOL0     C22895   6.005   3.800   2.952 -0.0582 -0.4356  0.1539
  911MOL0     C22896   5.874   3.835   2.976  0.0697  0.1620  0.0463
  911MOL0     O22897   5.695   4.174   3.156  0.0849  0.4419 -0.0660
  911MOL0     C22898   5.426   4.227   3.071 -0.3624 -0.0459 -0.7375
  911MOL0     C22899   5.292   4.248   3.049 -0.6211  0.3955 -1.0399
  911MOL0     N22900   5.152   4.251   2.403  0.3751  0.1195  0.1851
  911MOL0     N22901   5.115   4.167   2.305 -0.0834  0.2574  0.1707
  911MOL0     C22902   3.912   3.965   2.424 -0.6327  0.5228 -0.0277
  911MOL0     C22903   3.820   3.923   2.522 -0.8057  0.4741 -0.3270
  911MOL0     C22904   3.598   3.877   2.914 -0.4019  0.1042 -0.1707
  911MOL0     C22905   3.516   3.776   2.861 -0.5306  0.0523  0.8895
  911MOL0     C22906   3.399   3.745   2.917  0.5735 -0.2467 -0.0423
  911MOL0     C22907   3.341   3.814   3.025 -0.0309  0.2256 -0.1352
  911MOL0     O22908   3.217   3.783   3.077 -0.3907  0.4786 -0.4402
  911MOL0     C22909   3.198   3.751   3.210 -1.0357 -0.2288 -1.3131
  911MOL0     C22910   3.121   3.629   3.243 -0.0547 -0.5437  0.1570
  911MOL0     C22911   2.969   3.646   3.241 -0.1189 -0.1650  0.8807
  911MOL0     C22912   2.901   3.773   3.298  0.1607 -0.1655 -0.4012
  911MOL0     C22913   2.753   3.773   3.285 -0.0303  0.6867  0.3729
  911MOL0     C22914   2.633   3.781   3.273  0.0561  0.1358 -0.5308
  911MOL0     C22915   3.419   3.918   3.080  1.0223 -0.4184 -0.0014
  911MOL0     C22916   3.549   3.953   3.030 -0.0920 -0.5332  0.1329
  911MOL0     C22917   3.627   4.061   3.100  0.4967 -0.0348  0.0641
  911MOL0     H22918   4.036   3.819   2.761 -1.7998 -0.0646  1.0294
  911MOL0     H22919   4.195   3.898   2.592 -0.6899 -2.9070  1.4558
  911MOL0     H22920   4.189   4.183   2.354  0.2935 -0.3943  2.0422
  911MOL0     H22921   4.279   4.057   2.459  0.4682 -0.0102 -0.4398
  911MOL0     H22922   4.259   4.045   2.165 -1.9463 -0.3356  1.5940
  911MOL0     H22923   4.348   3.937   2.270  2.1699  0.6700  0.5228
  911MOL0     H22924   4.516   4.103   2.328 -2.3395  1.3644  1.8054
  911MOL0     H22925   4.418   4.239   2.249  0.5683  0.9613 -1.3681
  911MOL0     H22926   4.573   4.003   2.125 -0.4979 -0.4001  1.7596
  911MOL0     H22927   4.457   4.103   2.033  0.8315  0.0694 -0.2994
  911MOL0     H22928   4.667   4.199   1.995  0.1298 -1.9652  0.5708
  911MOL0     H22929   4.593   4.306   2.106  0.4237 -0.5664 -0.2807
  911MOL0     H22930   4.808   4.282   2.180 -2.1470  1.3423 -2.6509
  911MOL0     H22931   4.712   4.172   2.290 -0.4502 -1.9663 -1.0373
  911MOL0     H22932   4.914   4.126   2.080  0.8436  0.1681  1.3667
  911MOL0     H22933   4.782   3.993   2.098  0.1471 -2.5662  1.7428
  911MOL0     H22934   4.828   3.981   2.323 -0.8896 -0.2346 -1.8835
  911MOL0     H22935   4.983   3.938   2.246  0.4033 -1.8624  0.8071
  911MOL0     H22936   4.845   4.176   2.502 -0.1942 -0.0398 -0.9331
  911MOL0     H22937   5.144   4.383   2.647  0.0309  2.4943  0.7732
  911MOL0     H22938   4.985   4.438   2.605  1.4888  0.8331  0.3290
  911MOL0     H22939   4.896   4.233   2.757 -0.3069  0.4743 -0.9410
  911MOL0     H22940   5.070   4.192   2.771  1.7947  0.1002 -2.8356
  911MOL0     H22941   4.950   4.442   2.879 -1.0099 -1.0440 -2.9918
  911MOL0     H22942   5.115   4.396   2.879 -1.2127  1.6401  0.1004
  911MOL0     H22943   4.899   4.256   3.016  0.6055 -0.1103 -0.2189
  911MOL0     H22944   5.028   4.330   3.095 -2.2205  1.2227  0.4322
  911MOL0     H22945   5.214   3.938   2.943  0.8975  0.5213 -3.9910
  911MOL0     H22946   5.450   3.899   2.978  1.2038 -0.9653  1.9903
  911MOL0     H22947   5.927   4.165   3.061 -1.6603  1.0125 -2.6952
  911MOL0     H22948   6.158   4.085   3.042  2.0489 -2.6176 -0.2580
  911MOL0     H22949   6.249   3.672   3.024 -2.6099  1.4047  0.1652
  911MOL0     H22950   6.218   3.695   2.848  0.7395  0.8376 -0.1975
  911MOL0     H22951   6.481   3.695   2.993 -0.3484 -0.2962  0.4712
  911MOL0     H22952   6.419   3.614   2.852 -2.0786  0.8899 -1.9598
  911MOL0     H22953   6.402   3.872   2.744  0.1955  0.3331 -0.8296
  911MOL0     H22954   6.500   3.906   2.876 -0.5394  1.7737 -1.9826
  911MOL0     H22955   6.578   3.685   2.677  3.4115  0.3370 -3.1571
  911MOL0     H22956   6.669   3.741   2.816 -0.9033  4.4582  3.4070
  911MOL0     H22957   6.666   3.978   2.696 -1.6834 -0.9575  2.4861
  911MOL0     H22958   6.585   3.890   2.563  1.1254 -0.1137 -0.9306
  911MOL0     H22959   6.852   3.805   2.665  0.6594  1.1034 -0.4274
  911MOL0     H22960   6.752   3.762   2.514 -0.4491  2.1731 -1.8667
  911MOL0     H22961   6.908   4.016   2.583 -0.0182 -0.3818 -0.3423
  911MOL0     H22962   6.803   4.003   2.442  0.6036 -1.9191 -0.5405
  911MOL0     H22963   7.036   3.972   2.397  2.1390 -1.8362 -1.7680
  911MOL0     H22964   7.036   3.838   2.510 -1.2505  0.6776  0.8408
  911MOL0     H22965   6.002   3.700   2.910 -1.1077 -1.0398  1.5739
  911MOL0     H22966   5.793   3.766   2.951  0.2547  0.5984 -1.9066
  911MOL0     H22967   5.485   4.309   3.113 -0.1348 -0.5260 -0.1066
  911MOL0     H22968   5.254   4.347   3.075  1.8790  0.9922  0.7694
  911MOL0     H22969   3.876   4.010   2.332 -2.1454 -0.6347 -0.0302
  911MOL0     H22970   3.714   3.933   2.506 -0.2939  2.7468 -2.8746
  911MOL0     H22971   3.546   3.717   2.775 -2.0553  0.2008  0.2299
  911MOL0     H22972   3.344   3.667   2.864 -2.1954  1.3198  0.3588
  911MOL0     H22973   3.162   3.840   3.262  4.0998  1.4580  0.0124
  911MOL0     H22974   3.298   3.738   3.254 -1.4753  1.6671  0.3655
  911MOL0     H22975   3.137   3.593   3.345 -0.1582  2.5390  1.3773
  911MOL0     H22976   3.135   3.543   3.177  0.5069 -2.5659  2.7571
  911MOL0     H22977   2.921   3.562   3.293 -0.4521  0.7497  2.1013
  911MOL0     H22978   2.944   3.635   3.135  2.3227 -2.0524  0.4117
  911MOL0     H22979   2.910   3.785   3.407 -3.9490 -1.1484  0.1990
  911MOL0     H22980   2.948   3.862   3.255  1.2085 -0.0406  0.9100
  911MOL0     H22981   2.527   3.800   3.270 -0.1640 -0.2741  2.1931
  911MOL0     H22982   3.383   3.979   3.162 -2.3976 -0.5968 -1.2046
  911MOL0     H22983   3.567   4.099   3.184 -1.4993  2.9600 -2.4779
  911MOL0     H22984   3.718   4.020   3.145  1.1076  1.2135  0.0197
  911MOL0     H22985   3.646   4.152   3.043 -0.4681 -0.9943 -1.8766
  912MOL0     O22986   3.593   7.672   1.484  0.0169  0.2333 -0.3702
  912MOL0     C22987   3.552   7.787   1.459 -0.2751  0.6317  0.4835
  912MOL0     O22988   3.627   7.903   1.475  0.0444  0.0882 -0.2267
  912MOL0     C22989   3.758   7.887   1.518 -0.4604 -0.2910 -0.0347
  912MOL0     C22990   3.866   7.840   1.436  0.8292 -0.4322  0.4331
  912MOL0     C22991   3.996   7.829   1.479  0.3789  0.2487 -1.0715
  912MOL0     C22992   4.029   7.855   1.617  0.9817 -0.7282  0.7706
  912MOL0     O22993   4.145   7.861   1.675 -1.1064  0.5233 -0.0150
  912MOL0     C22994   4.270   7.849   1.602  0.6139 -0.0009 -0.0647
  912MOL0     C22995   4.366   7.817   1.709  0.0892  0.0143 -0.2817
  912MOL0     C22996   4.504   7.767   1.647 -0.0981  0.0126 -0.8248
  912MOL0     C22997   4.583   7.724   1.772 -0.2149  0.1019 -0.3634
  912MOL0     C22998   4.727   7.767   1.751 -0.4345  0.3409  0.0608
  912MOL0     C22999   4.829   7.749   1.863  0.0077 -0.2714  0.5389
  912MOL0     C23000   4.789   7.833   1.979  0.3087  0.7474 -0.8494
  912MOL0     C23001   4.888   7.833   2.101  0.3430 -0.8702 -0.2801
  912MOL0     N23002   5.023   7.858   2.067  0.1870  0.5084  0.0485
  912MOL0     C23003   5.060   7.961   1.988  0.0384 -0.6726  0.5207
  912MOL0     C23004   5.185   7.935   1.949 -0.4125  0.1927  0.5836
  912MOL0     C23005   5.267   8.022   1.857 -0.3480  0.2631 -0.7577
  912MOL0     C23006   5.399   7.965   1.815  0.0024  0.4574 -0.0584
  912MOL0     C23007   5.510   7.978   1.921 -0.3483 -0.3797  0.0797
  912MOL0     C23008   5.641   7.926   1.859  1.2596  0.7322 -0.5282
  912MOL0     O23009   5.720   7.891   1.967  0.0549 -0.5106  0.0515
  912MOL0     C23010   5.843   7.837   1.942  0.5584 -0.1371  0.2746
  912MOL0     C23011   5.907   7.766   2.054 -0.0618 -0.1543  0.7318
  912MOL0     C23012   6.024   7.699   2.042 -0.1210  0.9958  0.1911
  912MOL0     C23013   6.091   7.693   1.916 -0.1045  0.4901  0.2221
  912MOL0     C23014   6.231   7.627   1.906 -0.2917 -0.4399  1.3646
  912MOL0     O23015   6.294   7.627   2.022 -0.3079  0.0679  0.5536
  912MOL0     C23016   6.427   7.619   2.043 -0.2406 -0.0076 -0.2925
  912MOL0     C23017   6.490   7.502   2.000  0.4300  0.1062  0.4872
  912MOL0     C23018   6.624   7.492   2.038  0.0208  0.4608 -0.1048
  912MOL0     C23019   6.702   7.587   2.120 -0.2429 -0.0856 -0.5380
  912MOL0     O23020   6.835   7.551   2.159 -0.1311 -0.1587 -0.2682
  912MOL0     C23021   6.924   7.647   2.212 -0.0660 -1.2017  1.3126
  912MOL0     C23022   7.015   7.586   2.317  0.8113  0.4916 -0.6820
  912MOL0     C23023   6.932   7.494   2.399  0.1390 -0.7752  0.5282
  912MOL0     C23024   7.006   7.462   2.530  0.3756  1.1807 -0.1198
  912MOL0     C23025   7.142   7.376   2.527 -0.5165  0.1543 -1.0501
  912MOL0     C23026   7.192   7.344   2.672  0.5351 -0.1413 -0.0914
  912MOL0     C23027   7.311   7.248   2.673  0.0680  0.0422 -0.1485
  912MOL0     C23028   7.395   7.257   2.804  0.1065  0.4331  0.2574
  912MOL0    Cl23029   7.517   7.125   2.804  0.4743 -0.5542  0.2003
  912MOL0     C23030   6.624   7.700   2.159  0.6129 -0.4247 -0.0391
  912MOL0     C23031   6.492   7.718   2.115 -0.2162  0.7407 -0.1649
  912MOL0     O23032   6.272   7.609   1.796 -0.6264  0.0769 -0.3087
  912MOL0     C23033   6.024   7.752   1.806 -0.0420 -1.0042  0.1342
  912MOL0     C23034   5.906   7.830   1.820 -0.1963 -0.4544 -0.3453
  912MOL0     N23035   5.222   7.817   2.000  0.1470 -0.1368 -0.1925
  912MOL0     N23036   5.129   7.778   2.080  0.0019  0.1904 -0.1763
  912MOL0     C23037   3.931   7.908   1.693  0.5771 -0.0206 -0.0383
  912MOL0     C23038   3.795   7.922   1.650 -0.6623  0.6109 -0.3101
  912MOL0     C23039   3.403   7.794   1.454  0.0964  0.2718  0.4060
  912MOL0     C23040   3.355   7.922   1.480 -0.4968 -0.1368 -0.5831
  912MOL0     C23041   3.216   7.952   1.469 -0.0748  0.5866 -0.1293
  912MOL0     C23042   3.122   7.845   1.447  0.5637  0.1326 -0.1609
  912MOL0     O23043   2.992   7.893   1.454 -0.4022  0.1814 -0.1437
  912MOL0     C23044   2.886   7.801   1.452  0.3630 -0.0550  0.1040
  912MOL0     C23045   2.840   7.776   1.317  0.5698 -0.1438 -1.5553
  912MOL0     C23046   2.742   7.885   1.277  0.2959  0.2828 -0.3499
  912MOL0     C23047   2.658   7.848   1.154 -0.7132 -0.4621 -0.9343
  912MOL0     C23048   2.742   7.801   1.050 -0.5782  0.8218 -1.1109
  912MOL0     C23049   2.806   7.753   0.961  0.5516  0.3125  0.3495
  912MOL0     C23050   3.166   7.715   1.422  0.5028  0.0194  0.9385
  912MOL0     C23051   3.310   7.689   1.428 -0.2500 -0.1768  0.5662
  912MOL0     C23052   3.348   7.552   1.383 -0.0975 -1.0308 -0.0070
  912MOL0     H23053   3.853   7.819   1.330 -1.2448  0.0518  0.5632
  912MOL0     H23054   4.080   7.803   1.415  2.5865  2.4837  0.7225
  912MOL0     H23055   4.255   7.775   1.523 -0.0892  0.6427 -0.5459
  912MOL0     H23056   4.289   7.946   1.554 -1.5237 -0.1814 -1.3849
  912MOL0     H23057   4.327   7.736   1.772  0.3750  0.2040  0.1387
  912MOL0     H23058   4.387   7.903   1.772  0.4206  0.0549 -0.4474
  912MOL0     H23059   4.541   7.856   1.595  0.4967  3.0223  4.1338
  912MOL0     H23060   4.497   7.683   1.576  1.9187 -1.0732  0.1819
  912MOL0     H23061   4.543   7.773   1.862 -0.6337 -0.2729 -0.3407
  912MOL0     H23062   4.572   7.616   1.784 -2.6191  0.3989  0.6525
  912MOL0     H23063   4.758   7.708   1.664 -2.0858 -1.2477  0.4849
  912MOL0     H23064   4.738   7.872   1.726  2.9257  0.1802  0.3456
  912MOL0     H23065   4.835   7.646   1.899  0.3657 -0.2457  0.5642
  912MOL0     H23066   4.924   7.785   1.820  0.0328  0.4872  1.2057
  912MOL0     H23067   4.687   7.816   2.013  0.1062  2.8735 -0.2811
  912MOL0     H23068   4.784   7.937   1.945  1.6042  0.2033 -2.8982
  912MOL0     H23069   4.857   7.920   2.160  0.4604  1.5611 -3.5436
  912MOL0     H23070   4.876   7.742   2.162 -3.9435  1.2463  2.5421
  912MOL0     H23071   4.999   8.048   1.968  1.8791  0.8378  1.1605
  912MOL0     H23072   5.215   8.048   1.764 -0.3109 -0.3994 -0.9711
  912MOL0     H23073   5.283   8.114   1.913  0.7186  2.1756 -3.9449
  912MOL0     H23074   5.376   7.861   1.790  0.5221  0.8793 -2.6477
  912MOL0     H23075   5.436   8.021   1.729  0.5114  0.3564  0.0916
  912MOL0     H23076   5.489   7.911   2.005 -1.6637  0.5338  0.5067
  912MOL0     H23077   5.532   8.081   1.951  0.5393 -0.8261  1.0358
  912MOL0     H23078   5.690   8.002   1.797  1.2705  0.9751 -0.2274
  912MOL0     H23079   5.620   7.835   1.802 -0.7749 -0.8710  2.4642
  912MOL0     H23080   5.860   7.769   2.152 -2.1743  0.4297 -0.2624
  912MOL0     H23081   6.068   7.643   2.125 -0.5656 -0.8546 -0.7617
  912MOL0     H23082   6.433   7.426   1.948  0.6746  0.2820 -0.0456
  912MOL0     H23083   6.674   7.399   2.014  0.1937  0.5566 -0.1231
  912MOL0     H23084   6.979   7.697   2.132 -3.7507  0.6018 -0.3234
  912MOL0     H23085   6.863   7.720   2.266  0.4192  1.8736 -1.9700
  912MOL0     H23086   7.095   7.529   2.267  0.1852  0.7332 -2.0205
  912MOL0     H23087   7.047   7.660   2.390  2.8626 -2.5036  1.7263
  912MOL0     H23088   6.835   7.538   2.426  0.3372  1.2914 -1.8257
  912MOL0     H23089   6.917   7.406   2.337  1.9927  0.5154 -1.9263
  912MOL0     H23090   6.940   7.400   2.590  0.9605 -0.9565 -1.5773
  912MOL0     H23091   7.013   7.551   2.594  2.4705 -0.0030  1.4378
  912MOL0     H23092   7.218   7.434   2.473 -1.0905  0.8613 -1.1201
  912MOL0     H23093   7.134   7.285   2.466  1.2440 -1.1591  0.5771
  912MOL0     H23094   7.206   7.435   2.731  1.1121 -1.1461  1.3887
  912MOL0     H23095   7.112   7.288   2.723 -1.7362 -0.8945 -4.0409
  912MOL0     H23096   7.387   7.277   2.600 -0.0164 -0.2577 -0.3563
  912MOL0     H23097   7.276   7.145   2.665  1.7152 -0.4687 -1.4006
  912MOL0     H23098   7.451   7.349   2.824  0.1752  0.3021  0.6621
  912MOL0     H23099   7.341   7.225   2.894  0.9805 -0.4297  0.4881
  912MOL0     H23100   6.670   7.776   2.222 -0.9357  2.3508 -2.0613
  912MOL0     H23101   6.428   7.802   2.139 -0.2487  1.5184 -2.7170
  912MOL0     H23102   6.061   7.736   1.705 -0.3146 -1.0769  0.0437
  912MOL0     H23103   5.851   7.874   1.738 -0.1560  5.6404  2.3767
  912MOL0     H23104   3.952   7.940   1.795 -0.7964 -2.3227  1.0548
  912MOL0     H23105   3.710   7.950   1.710 -0.7367  0.0186 -0.1326
  912MOL0     H23106   3.419   8.006   1.504 -1.5142  0.5261 -0.0963
  912MOL0     H23107   3.190   8.057   1.483  1.5353  1.0337 -0.2863
  912MOL0     H23108   2.802   7.838   1.512  1.5574  0.8679  1.2731
  912MOL0     H23109   2.922   7.705   1.489 -1.4278  0.3683  3.2490
  912MOL0     H23110   2.793   7.678   1.311  1.1733 -0.4833 -0.9020
  912MOL0     H23111   2.922   7.771   1.244 -0.0364 -2.1913 -2.1514
  912MOL0     H23112   2.795   7.976   1.248  1.0020 -0.6380 -2.1092
  912MOL0     H23113   2.673   7.902   1.360 -1.2705  1.8465 -1.8731
  912MOL0     H23114   2.591   7.770   1.191  0.2128 -0.5190  0.7656
  912MOL0     H23115   2.600   7.938   1.131 -1.4209  0.6453  3.9719
  912MOL0     H23116   2.872   7.732   0.879  0.6230  0.8809  0.2548
  912MOL0     H23117   3.095   7.633   1.409 -0.1609  0.7029  0.1177
  912MOL0     H23118   3.260   7.489   1.366 -2.7158  1.5942  2.4948
  912MOL0     H23119   3.397   7.572   1.287 -0.2344 -0.3537  0.0535
  912MOL0     H23120   3.412   7.500   1.454  1.3660 -0.7649 -1.0799
  913MOL0     O23121   9.898   6.123   1.046 -0.1504 -0.0993  0.7873
  913MOL0     C23122   9.872   6.027   1.115 -0.5834  0.3290 -0.3325
  913MOL0     O23123   9.938   5.913   1.109 -0.0221  0.4620  0.1226
  913MOL0     C23124  10.044   5.894   1.026 -0.0355  0.6956 -0.6556
  913MOL0     C23125  10.165   5.916   1.085 -0.0028 -0.4155  0.9414
  913MOL0     C23126  10.270   5.855   1.018  0.0989 -0.0294  0.0512
  913MOL0     C23127  10.268   5.792   0.886  0.0734 -0.2904 -0.2124
  913MOL0     O23128  10.384   5.733   0.830 -0.1558  0.0991 -0.4813
  913MOL0     C23129  10.491   5.695   0.917  0.9504  0.0044 -0.3491
  913MOL0     C23130  10.597   5.800   0.922 -0.4088  0.0717 -0.3988
  913MOL0     C23131  10.745   5.755   0.957  0.8486 -0.3703 -0.1643
  913MOL0     C23132  10.780   5.620   0.896  0.0422 -0.1944 -0.0871
  913MOL0     C23133  10.939   5.611   0.883  0.1148  0.1879 -1.5494
  913MOL0     C23134  10.989   5.488   0.813  0.8007  0.4838  0.7255
  913MOL0     C23135  11.129   5.495   0.768  0.3440  0.9951 -1.0409
  913MOL0     C23136  11.225   5.448   0.882 -0.5946  0.6272  0.5038
  913MOL0     N23137  11.357   5.507   0.841  0.1108  0.0912 -0.3332
  913MOL0     C23138  11.415   5.522   0.711  0.4018 -0.2750 -0.0159
  913MOL0     C23139  11.540   5.554   0.750  0.1014  0.9860  0.6437
  913MOL0     C23140  11.638   5.582   0.648 -0.3982  0.6400 -0.6617
  913MOL0     C23141  11.719   5.455   0.609  0.3695 -0.1395 -0.5086
  913MOL0     C23142  11.803   5.398   0.732  0.6408 -0.5176 -0.3605
  913MOL0     C23143  11.924   5.481   0.765  0.1137  0.0759  0.2842
  913MOL0     O23144  11.991   5.439   0.887 -0.2870 -0.7353  0.4695
  913MOL0     C23145  12.111   5.495   0.921 -0.0355 -0.2849 -0.0377
  913MOL0     C23146  12.163   5.614   0.883 -0.5262  0.0417 -0.1139
  913MOL0     C23147  12.285   5.657   0.926 -0.1262 -0.6750 -0.1298
  913MOL0     C23148  12.351   5.587   1.032  0.4005 -1.0505  0.1680
  913MOL0     C23149  12.468   5.650   1.093  0.0895 -0.1441 -1.1435
  913MOL0     O23150  12.508   5.772   1.053  0.0981  0.6839  0.2194
  913MOL0     C23151  12.573   5.858   1.138  0.3790 -0.0937  0.9525
  913MOL0     C23152  12.650   5.960   1.076  0.7871  0.3640 -0.1248
  913MOL0     C23153  12.714   6.059   1.149  0.6937  0.1001 -0.0804
  913MOL0     C23154  12.691   6.075   1.288 -0.1122 -0.0953 -0.0783
  913MOL0     O23155  12.744   6.190   1.337  0.8960  0.4666  0.1005
  913MOL0     C23156  12.716   6.241   1.468  0.1949 -1.0421 -0.0302
  913MOL0     C23157  12.574   6.284   1.491  0.3235  1.2063 -0.0395
  913MOL0     C23158  12.559   6.311   1.643  0.5289  0.2928  0.2318
  913MOL0     C23159  12.413   6.370   1.672  0.0027  0.5511  0.4458
  913MOL0     C23160  12.309   6.254   1.647  0.7705  0.3161  0.9741
  913MOL0     C23161  12.168   6.308   1.666  0.8416 -0.5344  0.1690
  913MOL0     C23162  12.057   6.206   1.647 -0.0510  0.1715  0.0229
  913MOL0     C23163  12.032   6.178   1.494  0.5695  0.4373  1.6165
  913MOL0    Cl23164  11.908   6.297   1.434 -0.2440 -0.0220 -0.2968
  913MOL0     C23165  12.617   5.974   1.351 -0.6888 -0.8374  0.4894
  913MOL0     C23166  12.565   5.867   1.281 -0.7450  1.1840 -0.4940
  913MOL0     O23167  12.519   5.584   1.192 -0.0576 -0.0613 -0.1963
  913MOL0     C23168  12.302   5.467   1.076 -0.0211 -0.0687  0.3077
  913MOL0     C23169  12.183   5.418   1.019 -0.9836 -0.2574 -0.1492
  913MOL0     N23170  11.549   5.582   0.885  0.0146  0.2066 -0.1112
  913MOL0     N23171  11.446   5.542   0.938  0.2232  0.9907 -0.7470
  913MOL0     C23172  10.144   5.797   0.821  0.4958 -0.2079  0.4691
  913MOL0     C23173  10.034   5.843   0.893 -0.5013  0.5487  0.6635
  913MOL0     C23174   9.751   6.026   1.200  0.5402  0.5842  0.8428
  913MOL0     C23175   9.641   6.109   1.164 -0.2431  0.3512 -0.5449
  913MOL0     C23176   9.529   6.106   1.249 -0.4283  0.3455  0.3213
  913MOL0     C23177   9.522   6.041   1.370  0.0652 -0.5607 -0.1800
  913MOL0     O23178   9.408   6.068   1.450 -0.1962  0.3890 -0.0930
  913MOL0     C23179   9.408   6.016   1.582  0.2433  0.0155  0.6258
  913MOL0     C23180   9.273   6.028   1.647 -0.0512  0.0021 -0.1308
  913MOL0     C23181   9.218   6.171   1.655  0.4962 -0.9628  0.3799
  913MOL0     C23182   9.091   6.176   1.748  0.1553  0.6051  0.3443
  913MOL0     C23183   9.054   6.318   1.752 -0.1354  0.2551  0.0370
  913MOL0     C23184   9.032   6.438   1.749  0.9684  0.3275 -0.6077
  913MOL0     C23185   9.645   5.982   1.410  1.3405  0.3214 -0.0283
  913MOL0     C23186   9.755   5.964   1.328 -0.3328 -1.1689  0.0502
  913MOL0     C23187   9.876   5.891   1.384 -0.4981 -0.2934 -0.0326
  913MOL0     H23188  10.158   5.961   1.184 -1.2053  1.2401  0.1484
  913MOL0     H23189  10.365   5.861   1.072  0.5020  3.7942 -0.7846
  913MOL0     H23190  10.453   5.659   1.013 -1.1085 -2.6908 -2.0362
  913MOL0     H23191  10.529   5.604   0.868 -2.5071 -0.9149 -1.6205
  913MOL0     H23192  10.572   5.890   0.979  4.3209  1.4709 -0.1174
  913MOL0     H23193  10.613   5.844   0.823 -1.9955 -1.1014 -1.2260
  913MOL0     H23194  10.745   5.744   1.066  2.5610  2.4273  0.2440
  913MOL0     H23195  10.811   5.838   0.929  2.1893  0.3078  4.1962
  913MOL0     H23196  10.747   5.539   0.962 -3.1451 -0.3829 -1.7378
  913MOL0     H23197  10.738   5.621   0.795 -0.0438 -0.3334 -0.0526
  913MOL0     H23198  10.973   5.690   0.817 -0.4001  3.5603  1.8914
  913MOL0     H23199  10.994   5.626   0.976  1.2154  2.7656 -2.5451
  913MOL0     H23200  10.958   5.404   0.876 -2.7885  0.9810 -0.2028
  913MOL0     H23201  10.931   5.476   0.722  1.6862 -3.2215  0.4710
  913MOL0     H23202  11.152   5.599   0.744  2.3022  1.6953  2.9641
  913MOL0     H23203  11.153   5.430   0.683  5.5443 -0.1112  0.9009
  913MOL0     H23204  11.199   5.487   0.981  0.2161  3.7037 -0.3762
  913MOL0     H23205  11.233   5.339   0.886  0.7633  0.6947  0.1164
  913MOL0     H23206  11.371   5.508   0.613  0.3407 -1.3756  0.1523
  913MOL0     H23207  11.585   5.630   0.565 -4.6315  0.4381  1.6306
  913MOL0     H23208  11.708   5.654   0.691  0.2368  1.2582 -2.6274
  913MOL0     H23209  11.652   5.378   0.569  0.7915 -1.5944  1.4660
  913MOL0     H23210  11.783   5.484   0.525 -1.6291  1.9295 -1.4401
  913MOL0     H23211  11.840   5.298   0.705 -2.1173 -1.5960 -0.5374
  913MOL0     H23212  11.739   5.394   0.821  2.2453 -0.2953  0.8427
  913MOL0     H23213  11.894   5.586   0.772 -1.7428 -0.4343  0.5561
  913MOL0     H23214  11.996   5.462   0.686  1.6439 -5.1630  2.5566
  913MOL0     H23215  12.110   5.688   0.823 -2.1140  0.2609  1.4819
  913MOL0     H23216  12.329   5.747   0.884 -0.5931  1.7085  3.8981
  913MOL0     H23217  12.651   5.964   0.967  0.9936  3.4775 -0.0772
  913MOL0     H23218  12.763   6.129   1.082  2.0035 -2.1259 -1.5887
  913MOL0     H23219  12.741   6.166   1.544 -1.4897  1.2299  2.9836
  913MOL0     H23220  12.776   6.333   1.473 -0.0563 -0.7800 -1.5067
  913MOL0     H23221  12.549   6.367   1.424 -1.7356  0.5474 -0.1419
  913MOL0     H23222  12.506   6.202   1.468 -1.7652  1.6017  3.8622
  913MOL0     H23223  12.573   6.218   1.699 -0.6136  0.1206  0.2697
  913MOL0     H23224  12.643   6.376   1.668  0.3443  1.0425 -0.9820
  913MOL0     H23225  12.387   6.463   1.621 -1.9222  1.6112  3.1475
  913MOL0     H23226  12.408   6.404   1.776 -2.9217  2.6371 -0.2581
  913MOL0     H23227  12.324   6.170   1.715  2.8928  0.2904  0.5394
  913MOL0     H23228  12.317   6.210   1.546 -0.3044  0.5512  0.7780
  913MOL0     H23229  12.167   6.352   1.767 -3.2393  1.9369 -0.7177
  913MOL0     H23230  12.158   6.393   1.599 -0.3265 -0.7251  0.0800
  913MOL0     H23231  11.962   6.234   1.694  0.8478 -0.0158  2.0510
  913MOL0     H23232  12.097   6.117   1.696  0.4026 -0.1021 -0.8173
  913MOL0     H23233  12.130   6.191   1.448  0.2078 -2.7705 -0.3316
  913MOL0     H23234  12.005   6.076   1.464 -0.4527  0.0107  3.7425
  913MOL0     H23235  12.588   5.974   1.456  1.0863 -1.4609  1.0178
  913MOL0     H23236  12.500   5.803   1.340 -0.3040  2.5368  1.5849
  913MOL0     H23237  12.352   5.420   1.160 -0.1363  1.8259  1.5063
  913MOL0     H23238  12.148   5.321   1.054 -0.4267 -0.1032  0.8726
  913MOL0     H23239  10.125   5.753   0.724 -1.0703  4.0629 -1.4490
  913MOL0     H23240   9.934   5.835   0.850  0.2870 -2.9387 -0.8297
  913MOL0     H23241   9.623   6.164   1.072  0.5626  2.9727  0.7471
  913MOL0     H23242   9.447   6.166   1.212  0.5538  1.9240  0.5959
  913MOL0     H23243   9.485   6.076   1.631 -0.2378 -1.7482  3.7658
  913MOL0     H23244   9.425   5.909   1.572 -4.2507 -0.8391 -0.2029
  913MOL0     H23245   9.266   5.975   1.742 -1.5952  0.6970  0.1700
  913MOL0     H23246   9.206   5.974   1.580  1.0011  0.7223 -1.8271
  913MOL0     H23247   9.191   6.202   1.554 -0.3006  0.8512  1.1066
  913MOL0     H23248   9.292   6.243   1.690  1.6005 -2.3414  0.9993
  913MOL0     H23249   9.021   6.109   1.698  1.7442  0.1683 -1.4417
  913MOL0     H23250   9.119   6.148   1.850  1.5550  2.6962  0.6029
  913MOL0     H23251   9.010   6.543   1.749  1.0201  0.3697  0.8417
  913MOL0     H23252   9.666   5.960   1.514  0.6022  0.9147  0.2475
  913MOL0     H23253   9.900   5.803   1.323 -1.9687 -0.4413 -0.4381
  913MOL0     H23254   9.963   5.956   1.396 -0.0177 -0.8255 -0.5539
  913MOL0     H23255   9.857   5.853   1.484 -0.3048 -2.8235 -0.8850
  914MOL0     O23256   1.494   1.292   1.706  0.1096  0.3232 -0.2476
  914MOL0     C23257   1.471   1.238   1.600  0.1807  0.1183  0.0470
  914MOL0     O23258   1.557   1.159   1.529 -0.5672 -0.1186 -0.0499
  914MOL0     C23259   1.693   1.145   1.562  0.3587  0.2015  0.5885
  914MOL0     C23260   1.761   1.062   1.477  0.1361 -0.0595 -0.4870
  914MOL0     C23261   1.896   1.032   1.493  0.7996 -0.3079 -0.6342
  914MOL0     C23262   1.973   1.103   1.591  0.0988 -0.4894 -0.5620
  914MOL0     O23263   2.110   1.086   1.611  0.3423  0.3354  0.8021
  914MOL0     C23264   2.179   0.999   1.519  0.4818 -0.4929  0.3327
  914MOL0     C23265   2.310   0.954   1.586 -0.0828  0.2315  0.3632
  914MOL0     C23266   2.372   0.834   1.515  0.1050  0.3520  0.1388
  914MOL0     C23267   2.430   0.864   1.368 -0.2435 -0.0149 -0.5477
  914MOL0     C23268   2.561   0.943   1.371 -0.3444 -0.3071 -0.4214
  914MOL0     C23269   2.607   0.971   1.223 -0.1442 -0.0634 -0.3907
  914MOL0     C23270   2.754   1.005   1.232 -0.1084 -0.0143 -0.4666
  914MOL0     C23271   2.815   1.037   1.103  0.8970  0.6465 -0.2145
  914MOL0     N23272   2.952   1.090   1.116 -0.3196  0.6991  0.0280
  914MOL0     C23273   2.980   1.220   1.115 -0.8521 -0.8305 -0.2582
  914MOL0     C23274   3.119   1.227   1.133 -0.5119  0.5364 -0.6089
  914MOL0     C23275   3.209   1.342   1.170  0.9300 -1.1533 -0.0101
  914MOL0     C23276   3.321   1.306   1.258  0.9012  0.2856  0.4636
  914MOL0     C23277   3.437   1.270   1.164 -0.8262 -0.2848  0.4963
  914MOL0     C23278   3.573   1.278   1.240  0.1587  0.3893  0.3116
  914MOL0     O23279   3.552   1.195   1.358  0.2281 -0.0373  0.3366
  914MOL0     C23280   3.641   1.208   1.462  1.2362 -0.0618 -0.0739
  914MOL0     C23281   3.779   1.237   1.447 -0.7666 -0.5992 -0.0336
  914MOL0     C23282   3.861   1.275   1.548 -0.4657 -0.2548 -0.6565
  914MOL0     C23283   3.825   1.266   1.690  0.2798  0.6335 -0.5193
  914MOL0     C23284   3.923   1.297   1.800  0.3964 -0.3712  0.2439
  914MOL0     O23285   4.058   1.325   1.760 -0.0782 -0.6257 -0.4730
  914MOL0     C23286   4.157   1.335   1.856  0.1159 -1.0995  0.1893
  914MOL0     C23287   4.151   1.388   1.988  0.8177  0.2564  0.4878
  914MOL0     C23288   4.266   1.394   2.063 -0.2134  0.9251 -0.7333
  914MOL0     C23289   4.387   1.358   2.013 -0.6457 -0.9747 -0.4981
  914MOL0     O23290   4.499   1.372   2.097  1.0897 -0.1240 -0.6249
  914MOL0     C23291   4.633   1.373   2.042  0.3656  0.6466 -1.0491
  914MOL0     C23292   4.723   1.422   2.166  0.0362  1.2166  0.2557
  914MOL0     C23293   4.870   1.451   2.127  0.3081  0.2045  0.6744
  914MOL0     C23294   4.930   1.582   2.187  0.5720  0.1173  0.0720
  914MOL0     C23295   4.943   1.575   2.335  0.0684  0.1298  0.0038
  914MOL0     C23296   5.071   1.504   2.386 -0.1905  0.1208  0.0579
  914MOL0     C23297   5.054   1.498   2.537 -0.5846 -0.4278  0.4972
  914MOL0     C23298   5.155   1.437   2.628 -0.5242  0.0375  0.2751
  914MOL0    Cl23299   5.308   1.543   2.611  0.3495 -0.4053 -0.0274
  914MOL0     C23300   4.391   1.303   1.884  0.9134 -0.7632  0.2078
  914MOL0     C23301   4.281   1.298   1.809  0.3545  0.2406  0.4996
  914MOL0     O23302   3.882   1.306   1.915 -0.0169 -0.3273 -0.1348
  914MOL0     C23303   3.696   1.215   1.711  0.0203 -0.1161 -0.0645
  914MOL0     C23304   3.607   1.184   1.600 -0.1637 -0.1141  0.5528
  914MOL0     N23305   3.165   1.097   1.129  0.9325 -0.8199  0.0460
  914MOL0     N23306   3.066   1.019   1.116 -0.4481  0.5006 -0.3320
  914MOL0     C23307   1.905   1.186   1.677 -0.6618  0.0145  0.1982
  914MOL0     C23308   1.771   1.209   1.665  0.8648 -0.3149  0.6294
  914MOL0     C23309   1.329   1.238   1.552 -0.9429 -0.2953 -1.3333
  914MOL0     C23310   1.307   1.198   1.419  0.0999 -0.7145 -0.4482
  914MOL0     C23311   1.176   1.182   1.360  0.7481 -0.1928  0.3506
  914MOL0     C23312   1.065   1.214   1.440  0.5031 -0.0746  1.2929
  914MOL0     O23313   0.931   1.214   1.404 -0.4213  0.7022  0.3332
  914MOL0     C23314   0.902   1.184   1.268  0.9952 -0.1026  0.4669
  914MOL0     C23315   0.749   1.199   1.232  0.0134  0.5352 -0.0423
  914MOL0     C23316   0.658   1.126   1.335 -0.3210 -0.2307  0.5154
  914MOL0     C23317   0.513   1.139   1.304  0.6102  0.0065  0.0768
  914MOL0     C23318   0.437   1.039   1.384 -0.2535  0.6316 -0.4116
  914MOL0     C23319   0.365   0.963   1.445 -0.1543 -0.2643 -0.2379
  914MOL0     C23320   1.090   1.258   1.566  0.3148 -1.1696  0.0471
  914MOL0     C23321   1.216   1.266   1.631  0.3325  0.0437 -0.7361
  914MOL0     C23322   1.207   1.308   1.778  0.4128 -0.6633  0.0034
  914MOL0     H23323   1.712   1.013   1.393  2.2003 -0.5272 -1.4925
  914MOL0     H23324   1.929   0.953   1.426 -1.2632 -1.0944 -0.8012
  914MOL0     H23325   2.130   0.905   1.491 -2.4777  1.1176 -0.4100
  914MOL0     H23326   2.202   1.046   1.423  1.8768 -2.6790 -0.4731
  914MOL0     H23327   2.288   0.929   1.691 -0.2965  1.7766  0.7089
  914MOL0     H23328   2.391   1.026   1.596  3.0663 -3.1136  1.1452
  914MOL0     H23329   2.286   0.768   1.502 -0.1508  0.5081  0.9595
  914MOL0     H23330   2.445   0.790   1.584 -1.4852 -1.6658  0.6300
  914MOL0     H23331   2.455   0.765   1.328  0.0237  0.8851 -2.7348
  914MOL0     H23332   2.353   0.912   1.307  0.4252 -1.9398 -3.0329
  914MOL0     H23333   2.553   1.033   1.432  2.3517 -1.3088  1.6307
  914MOL0     H23334   2.630   0.886   1.434 -0.0251 -0.7424 -1.1538
  914MOL0     H23335   2.604   0.889   1.151 -0.1125 -0.4876  0.0802
  914MOL0     H23336   2.535   1.046   1.190 -1.3200  0.0174  2.1009
  914MOL0     H23337   2.815   0.928   1.281  2.4287  1.1860 -1.5434
  914MOL0     H23338   2.759   1.090   1.301  0.3376 -2.4335  2.7569
  914MOL0     H23339   2.813   0.957   1.029  2.0199  1.6670 -1.3840
  914MOL0     H23340   2.750   1.113   1.058  1.3601  0.9572 -0.3608
  914MOL0     H23341   2.910   1.303   1.121 -0.2634 -0.3200 -0.3920
  914MOL0     H23342   3.243   1.388   1.077  1.7822  1.5255  1.4924
  914MOL0     H23343   3.144   1.421   1.210  2.5036  0.8350 -1.1487
  914MOL0     H23344   3.346   1.397   1.313 -0.1989  1.3496 -0.7236
  914MOL0     H23345   3.307   1.215   1.318 -1.8335  0.7434  0.6614
  914MOL0     H23346   3.433   1.331   1.074 -0.7072  0.4218  0.9631
  914MOL0     H23347   3.429   1.167   1.127  2.4132 -0.5546  0.2105
  914MOL0     H23348   3.586   1.381   1.274  0.7723  0.5846 -0.4907
  914MOL0     H23349   3.652   1.245   1.171 -0.6906 -0.2085 -0.3901
  914MOL0     H23350   3.820   1.252   1.347 -0.7025  0.6150  0.1608
  914MOL0     H23351   3.965   1.299   1.533  0.1019 -0.3448  2.4115
  914MOL0     H23352   4.063   1.428   2.037  1.3596  4.5930 -1.6380
  914MOL0     H23353   4.262   1.445   2.159 -2.2045  1.0560 -0.8399
  914MOL0     H23354   4.673   1.276   2.013  2.7381  1.5329 -1.0013
  914MOL0     H23355   4.643   1.451   1.965 -1.2736  1.3174 -0.6178
  914MOL0     H23356   4.680   1.511   2.213  1.3493  0.7424  2.5417
  914MOL0     H23357   4.720   1.336   2.233 -2.7047 -0.4521 -1.8118
  914MOL0     H23358   4.934   1.371   2.166 -1.4825 -0.4155  2.5104
  914MOL0     H23359   4.865   1.455   2.018  0.2676 -0.3227  0.6532
  914MOL0     H23360   4.862   1.663   2.157  0.7073  1.1340  2.3050
  914MOL0     H23361   5.029   1.600   2.146 -0.2732  0.3321 -2.0130
  914MOL0     H23362   4.854   1.528   2.377  0.6075  0.3713  1.4550
  914MOL0     H23363   4.946   1.674   2.381  3.5127  0.7715 -1.2499
  914MOL0     H23364   5.088   1.410   2.333 -2.0812  0.1782 -0.7290
  914MOL0     H23365   5.163   1.562   2.370 -1.2467  1.8595  0.0227
  914MOL0     H23366   4.962   1.442   2.554 -1.3747  0.1975 -1.5012
  914MOL0     H23367   5.038   1.603   2.564 -0.8139  0.1311 -1.6723
  914MOL0     H23368   5.113   1.433   2.729 -0.2984 -1.4814  0.3330
  914MOL0     H23369   5.185   1.334   2.610 -0.3903  0.3849 -1.7038
  914MOL0     H23370   4.489   1.286   1.840  0.9745 -1.0086  0.4358
  914MOL0     H23371   4.296   1.249   1.712 -3.0837 -1.2240  0.5620
  914MOL0     H23372   3.657   1.201   1.812 -0.2429 -1.0333 -0.2830
  914MOL0     H23373   3.509   1.142   1.616 -0.1241 -1.2106 -1.6240
  914MOL0     H23374   1.969   1.235   1.750  1.3023 -0.5442 -1.0780
  914MOL0     H23375   1.733   1.275   1.742 -0.2691  0.4014 -0.4953
  914MOL0     H23376   1.396   1.179   1.358  0.4545 -0.6360  0.0402
  914MOL0     H23377   1.170   1.149   1.256  0.7243  0.1837  0.2308
  914MOL0     H23378   0.939   1.088   1.232 -2.4188 -2.1462  2.0041
  914MOL0     H23379   0.960   1.250   1.202  2.4195  0.1980  1.9525
  914MOL0     H23380   0.737   1.171   1.127  0.5276 -0.3653  0.1258
  914MOL0     H23381   0.722   1.305   1.232  0.3520  0.6256 -0.5592
  914MOL0     H23382   0.673   1.163   1.437 -2.1064  2.7352 -0.1436
  914MOL0     H23383   0.685   1.022   1.318 -0.8183 -0.0681 -1.5807
  914MOL0     H23384   0.486   1.244   1.321 -0.7996  0.1032 -2.3128
  914MOL0     H23385   0.498   1.128   1.197  2.4374 -1.1858 -0.0929
  914MOL0     H23386   0.310   0.886   1.495  0.4040 -1.7907 -1.8612
  914MOL0     H23387   1.001   1.294   1.617 -0.2184  1.9515 -2.7557
  914MOL0     H23388   1.290   1.265   1.833  0.9647  1.0615  0.6003
  914MOL0     H23389   1.215   1.418   1.779 -2.4749 -0.3651  1.3961
  914MOL0     H23390   1.118   1.268   1.828 -0.1575  1.9059  1.2832
  915MOL0     O23391   0.579   8.218   2.930  0.2759  0.4116  0.1269
  915MOL0     C23392   0.519   8.231   3.030 -0.3951 -0.2124 -0.2952
  915MOL0     O23393   0.577   8.264   3.150 -0.1368 -0.2753  0.7846
  915MOL0     C23394   0.722   8.264   3.166  0.1660 -0.3376 -0.0159
  915MOL0     C23395   0.785   8.203   3.272  0.2687 -0.4525 -0.4481
  915MOL0     C23396   0.920   8.198   3.293 -0.9236 -0.4444 -0.2951
  915MOL0     C23397   1.009   8.263   3.211  0.5364  0.3138 -0.4636
  915MOL0     O23398   1.142   8.251   3.250  0.4473  0.7157  0.3332
  915MOL0     C23399   1.242   8.272   3.159 -0.3686 -0.2367  0.4899
  915MOL0     C23400   1.265   8.152   3.062  0.3568 -0.0872 -0.4185
  915MOL0     C23401   1.360   8.046   3.128  0.0572 -0.0049 -0.6695
  915MOL0     C23402   1.507   8.091   3.155  0.1536  0.1692  0.3305
  915MOL0     C23403   1.602   7.985   3.211  0.3498  0.4494  0.0792
  915MOL0     C23404   1.736   8.042   3.248  0.2610 -0.2357  0.4827
  915MOL0     C23405   1.747   8.131   3.368 -0.6821  0.4550  0.5458
  915MOL0     C23406   1.879   8.115   3.452  0.1776 -0.3286  0.6948
  915MOL0     N23407   1.995   8.177   3.383  0.0471 -0.2765  0.4743
  915MOL0     C23408   2.012   8.308   3.389 -0.1929  0.1962  0.2745
  915MOL0     C23409   2.127   8.332   3.332 -0.2834 -0.4538 -0.6191
  915MOL0     C23410   2.199   8.463   3.341  0.2833  0.3842  0.2383
  915MOL0     C23411   2.294   8.480   3.224  0.9174  0.6740 -0.3259
  915MOL0     C23412   2.446   8.449   3.256 -0.7061  0.0948 -0.8360
  915MOL0     C23413   2.548   8.473   3.142  0.3474  0.0928 -0.0876
  915MOL0     O23414   2.673   8.440   3.201 -0.9815 -0.1974  0.3352
  915MOL0     C23415   2.786   8.463   3.123  0.3512 -0.0248 -1.3048
  915MOL0     C23416   2.901   8.501   3.204 -0.6065  0.7828 -0.0520
  915MOL0     C23417   3.021   8.533   3.138 -0.2875  0.4060  0.2840
  915MOL0     C23418   3.028   8.530   2.997 -0.2058  0.3237  0.3816
  915MOL0     C23419   3.156   8.548   2.930  0.0022  0.7758  1.0258
  915MOL0     O23420   3.262   8.592   3.006  0.4891  0.3838 -0.1374
  915MOL0     C23421   3.388   8.547   2.968 -0.0736  0.6848  0.5402
  915MOL0     C23422   3.486   8.641   2.969 -0.6279  0.1321 -0.1195
  915MOL0     C23423   3.622   8.607   2.943 -0.6555 -0.5574  1.1130
  915MOL0     C23424   3.654   8.473   2.925  0.6103 -0.0606 -0.4220
  915MOL0     O23425   3.785   8.427   2.913  0.4555 -0.1968  0.3573
  915MOL0     C23426   3.900   8.502   2.864  0.1609  0.9878  0.0462
  915MOL0     C23427   4.031   8.414   2.876  0.1108 -0.1995  0.4936
  915MOL0     C23428   4.083   8.420   3.026 -0.3600  0.0287 -0.4859
  915MOL0     C23429   4.188   8.532   3.058 -0.1668 -0.1231  0.1210
  915MOL0     C23430   4.228   8.538   3.205 -0.6302  0.3200  0.5538
  915MOL0     C23431   4.108   8.550   3.298 -0.4442  0.0868 -0.0441
  915MOL0     C23432   4.162   8.534   3.447  0.0165 -0.2355  0.9071
  915MOL0     C23433   4.069   8.560   3.564  0.6446 -0.2157 -0.2070
  915MOL0    Cl23434   3.964   8.703   3.540  0.3499 -0.2414 -0.2000
  915MOL0     C23435   3.553   8.374   2.912 -0.1815 -0.4473  0.7649
  915MOL0     C23436   3.416   8.417   2.926 -0.1099  0.2734 -0.8144
  915MOL0     O23437   3.160   8.522   2.801 -0.2401 -0.5221  0.7095
  915MOL0     C23438   2.911   8.503   2.925 -0.0268 -0.3517 -0.2001
  915MOL0     C23439   2.790   8.473   2.986 -0.0997 -0.5967  0.6335
  915MOL0     N23440   2.181   8.208   3.292  0.8518  0.2255  0.6389
  915MOL0     N23441   2.097   8.115   3.315 -0.4701 -0.4686 -0.6393
  915MOL0     C23442   0.949   8.326   3.094 -1.0561  0.2598 -0.4394
  915MOL0     C23443   0.810   8.325   3.072  0.9209  0.2160  0.4683
  915MOL0     C23444   0.377   8.184   3.044  0.2814  0.1446 -0.6691
  915MOL0     C23445   0.333   8.118   3.159  0.5121  0.5999 -0.3085
  915MOL0     C23446   0.205   8.066   3.170 -0.5012 -0.0795  0.5151
  915MOL0     C23447   0.117   8.080   3.066  0.4102  0.1603  0.3676
  915MOL0     O23448  -0.017   8.036   3.057 -1.0485 -0.1089  0.0342
  915MOL0     C23449  -0.069   7.945   3.158  0.4468  0.3559  0.8879
  915MOL0     C23450  -0.178   7.855   3.094  0.5569 -1.1312  0.2042
  915MOL0     C23451  -0.294   7.945   3.048  0.5619  0.0529 -0.7812
  915MOL0     C23452  -0.425   7.864   3.051  0.5534  0.0711  0.2332
  915MOL0     C23453  -0.428   7.763   2.949  0.4462  1.0184  0.4257
  915MOL0     C23454  -0.425   7.674   2.862 -0.3293 -0.3900 -0.2060
  915MOL0     C23455   0.158   8.150   2.950  0.2213  1.1281 -1.2857
  915MOL0     C23456   0.279   8.206   2.940 -0.7542 -0.0514  0.0125
  915MOL0     C23457   0.319   8.296   2.820  0.3192 -0.3911  0.1152
  915MOL0     H23458   0.720   8.149   3.341 -1.0677 -2.1095 -2.8343
  915MOL0     H23459   0.967   8.153   3.379  0.3925  0.7804 -0.3404
  915MOL0     H23460   1.207   8.357   3.099 -1.2908 -0.4089  0.7602
  915MOL0     H23461   1.339   8.287   3.207 -0.3696 -0.5505  0.5919
  915MOL0     H23462   1.315   8.190   2.973  2.0349  0.2055  0.5931
  915MOL0     H23463   1.171   8.103   3.035  1.9997 -3.4986 -0.4080
  915MOL0     H23464   1.369   7.956   3.066  2.1076 -1.5614  1.7059
  915MOL0     H23465   1.319   8.010   3.223  2.5835 -1.1644  0.0509
  915MOL0     H23466   1.543   8.110   3.054  0.2677  1.3148  0.5705
  915MOL0     H23467   1.513   8.183   3.214  2.6157  2.0576 -2.5506
  915MOL0     H23468   1.552   7.947   3.301  1.1706 -1.8255 -0.3640
  915MOL0     H23469   1.616   7.903   3.141  0.4340  0.1446  0.4475
  915MOL0     H23470   1.798   7.957   3.279  1.3229  0.5597  0.6098
  915MOL0     H23471   1.794   8.084   3.165 -0.9184 -0.0856 -0.2820
  915MOL0     H23472   1.668   8.127   3.443 -2.1149  2.4881 -0.7508
  915MOL0     H23473   1.744   8.230   3.322 -1.3526  1.1283  1.9875
  915MOL0     H23474   1.864   8.180   3.539  0.9560  0.1671  0.4669
  915MOL0     H23475   1.902   8.017   3.494  2.5848  1.4064  3.8380
  915MOL0     H23476   1.950   8.379   3.444  0.1347 -0.6370  1.7875
  915MOL0     H23477   2.123   8.540   3.328  0.8922  1.1062  0.8642
  915MOL0     H23478   2.245   8.477   3.439  0.2671 -0.6263  0.4004
  915MOL0     H23479   2.256   8.428   3.136  1.3869 -0.4758  0.1286
  915MOL0     H23480   2.285   8.585   3.196 -1.2619  0.8263  0.7141
  915MOL0     H23481   2.465   8.345   3.281  1.2290 -0.6908 -4.7741
  915MOL0     H23482   2.468   8.509   3.345 -0.3274 -1.8060  0.4025
  915MOL0     H23483   2.524   8.576   3.112 -0.7136 -0.8629 -2.8379
  915MOL0     H23484   2.533   8.406   3.057  1.7516  0.5485 -0.7331
  915MOL0     H23485   2.892   8.487   3.311 -1.4945 -2.2949 -0.4195
  915MOL0     H23486   3.115   8.551   3.190 -2.0117  0.7707  3.5838
  915MOL0     H23487   3.465   8.742   3.004  4.0547  1.9550 -1.6773
  915MOL0     H23488   3.699   8.683   2.937  3.0218 -4.0109  0.1164
  915MOL0     H23489   3.881   8.535   2.761  1.1371 -2.2365 -1.3026
  915MOL0     H23490   3.898   8.583   2.937 -1.7352  3.3691 -2.4220
  915MOL0     H23491   4.013   8.308   2.855 -0.2975 -0.0761  0.2155
  915MOL0     H23492   4.103   8.458   2.806  0.5157  0.5084  1.3321
  915MOL0     H23493   3.993   8.423   3.088 -0.9383 -1.0104 -1.2238
  915MOL0     H23494   4.126   8.323   3.053 -0.0590  0.0009 -1.0437
  915MOL0     H23495   4.148   8.633   3.041  1.6454  0.3665 -1.6074
  915MOL0     H23496   4.272   8.509   2.991  0.6201 -0.4112  1.1885
  915MOL0     H23497   4.290   8.626   3.224 -1.7738  0.6068  3.5753
  915MOL0     H23498   4.278   8.442   3.223  1.0158  1.2372  1.1227
  915MOL0     H23499   4.049   8.639   3.276 -1.3364 -0.7433 -1.1310
  915MOL0     H23500   4.038   8.466   3.288  2.1869 -2.1217 -1.0543
  915MOL0     H23501   4.245   8.606   3.452  1.0044 -1.4035  2.7733
  915MOL0     H23502   4.205   8.434   3.452  0.0535 -0.8166 -4.7437
  915MOL0     H23503   3.996   8.480   3.574 -0.2082  0.6372  0.6175
  915MOL0     H23504   4.124   8.573   3.657  2.0819 -1.7284 -0.8052
  915MOL0     H23505   3.577   8.272   2.881  0.8541 -0.3285  1.1448
  915MOL0     H23506   3.342   8.338   2.916 -0.5861  0.4942  0.7951
  915MOL0     H23507   2.908   8.502   2.817  0.8752 -0.2900 -0.2285
  915MOL0     H23508   2.705   8.453   2.922  0.2032  3.7466 -1.4925
  915MOL0     H23509   1.015   8.379   3.027 -0.7092  0.5832  0.1466
  915MOL0     H23510   0.773   8.383   2.988  0.0739 -1.4008 -0.3256
  915MOL0     H23511   0.405   8.122   3.240  0.4857  1.4202 -0.3160
  915MOL0     H23512   0.182   8.034   3.272  1.0411  3.1616  2.0287
  915MOL0     H23513  -0.107   7.992   3.249 -0.2670 -1.3155  1.5028
  915MOL0     H23514   0.007   7.871   3.186 -0.9595 -1.5658 -0.1287
  915MOL0     H23515  -0.224   7.788   3.167 -1.0809 -1.2258 -0.8695
  915MOL0     H23516  -0.130   7.799   3.013 -0.2246 -0.3241 -0.8427
  915MOL0     H23517  -0.275   7.987   2.949  0.9428 -3.2577 -2.2654
  915MOL0     H23518  -0.309   8.024   3.122 -0.0073 -1.1032  0.3801
  915MOL0     H23519  -0.450   7.818   3.148 -1.4498  0.3939 -0.0707
  915MOL0     H23520  -0.505   7.937   3.032  0.2480 -0.0287  1.0923
  915MOL0     H23521  -0.403   7.607   2.781 -0.0197 -2.4745  1.5038
  915MOL0     H23522   0.086   8.165   2.869  1.3396  2.0473 -2.1362
  915MOL0     H23523   0.393   8.375   2.833 -1.0223  0.8906  0.3585
  915MOL0     H23524   0.353   8.223   2.747 -0.5425  0.4312 -1.1528
  915MOL0     H23525   0.221   8.334   2.789  0.6418 -0.1791 -0.6676
  916MOL0     O23526   0.578   7.215   6.700 -0.3318  0.3767 -0.2417
  916MOL0     C23527   0.556   7.151   6.802 -1.0952 -0.3076 -0.5801
  916MOL0     O23528   0.653   7.121   6.897  0.5209  0.7015  0.5273
  916MOL0     C23529   0.778   7.166   6.878 -1.1908  0.0538  0.7770
  916MOL0     C23530   0.891   7.082   6.856 -0.9922 -0.6803 -0.7692
  916MOL0     C23531   1.016   7.138   6.869  0.6894 -0.0930 -0.0605
  916MOL0     C23532   1.047   7.281   6.882 -0.5454  0.0881  0.1440
  916MOL0     O23533   1.165   7.340   6.912  0.3257  1.0104 -0.3807
  916MOL0     C23534   1.284   7.269   6.945 -0.9013  0.7862  0.4202
  916MOL0     C23535   1.388   7.383   6.946  0.0271 -0.1683  0.5678
  916MOL0     C23536   1.527   7.331   6.959  0.0004 -0.2906  0.1093
  916MOL0     C23537   1.629   7.447   6.959 -0.3014 -0.0124 -0.0010
  916MOL0     C23538   1.783   7.395   6.967 -0.2489 -0.4434 -0.0118
  916MOL0     C23539   1.886   7.506   6.934  0.1097 -0.2815  0.0755
  916MOL0     C23540   2.020   7.459   6.974 -1.2437  0.1662 -0.0322
  916MOL0     C23541   2.092   7.359   6.881  0.4274 -0.3649  0.1252
  916MOL0     N23542   2.239   7.339   6.906  0.0285  0.6685 -0.4934
  916MOL0     C23543   2.346   7.381   6.824  0.3451  0.8505 -0.3313
  916MOL0     C23544   2.441   7.303   6.866 -0.4636  0.0733 -0.2883
  916MOL0     C23545   2.580   7.305   6.821 -1.0797  0.2137  0.4239
  916MOL0     C23546   2.674   7.410   6.885 -0.0530  0.4757  0.8332
  916MOL0     C23547   2.824   7.369   6.846 -0.9296  0.2299 -0.6590
  916MOL0     C23548   2.920   7.455   6.926 -0.1891  0.7977 -0.1330
  916MOL0     O23549   2.916   7.592   6.882  0.3479 -0.1325  0.6497
  916MOL0     C23550   2.987   7.691   6.949  0.1266  0.4474 -0.7696
  916MOL0     C23551   3.077   7.671   7.053  0.6659  0.3255  0.6597
  916MOL0     C23552   3.137   7.778   7.114 -1.1003 -0.2833 -0.2321
  916MOL0     C23553   3.111   7.907   7.077  0.1501 -0.0629  0.2623
  916MOL0     C23554   3.180   8.015   7.142  0.1585  0.5933  0.4279
  916MOL0     O23555   3.281   7.992   7.229  0.3313 -1.1715  0.4954
  916MOL0     C23556   3.372   8.097   7.243  0.7719  0.3910  0.0995
  916MOL0     C23557   3.412   8.174   7.130  0.1484 -0.2127  0.8627
  916MOL0     C23558   3.525   8.262   7.135  0.3655 -0.1821  0.8111
  916MOL0     C23559   3.594   8.269   7.255  0.5421 -1.0188 -0.7644
  916MOL0     O23560   3.701   8.351   7.263  0.5361  0.3808  0.0344
  916MOL0     C23561   3.682   8.449   7.366  0.5438  0.0165  0.2938
  916MOL0     C23562   3.754   8.579   7.337 -0.3336 -1.3101  0.6898
  916MOL0     C23563   3.908   8.559   7.366 -0.0343  0.2931 -0.0713
  916MOL0     C23564   4.000   8.678   7.339 -0.1662 -0.8688  0.3109
  916MOL0     C23565   4.155   8.670   7.385  0.0113  1.2141 -0.2714
  916MOL0     C23566   4.226   8.792   7.330  0.1756 -0.4192 -0.1839
  916MOL0     C23567   4.371   8.795   7.369 -0.7170  0.5207  0.7446
  916MOL0     C23568   4.446   8.905   7.313  0.2643 -0.8257 -0.6438
  916MOL0    Cl23569   4.373   9.073   7.364  0.4235  0.5604 -0.4673
  916MOL0     C23570   3.558   8.183   7.360  0.0066 -0.7740 -0.4407
  916MOL0     C23571   3.446   8.102   7.358  0.1630  0.3554  0.3267
  916MOL0     O23572   3.129   8.127   7.126 -0.1176 -0.4260  0.8576
  916MOL0     C23573   3.027   7.922   6.966 -0.1527  0.1657 -0.5306
  916MOL0     C23574   2.966   7.818   6.904  0.4772  0.4484  0.1279
  916MOL0     N23575   2.408   7.234   6.982 -0.1588 -0.1032 -0.6875
  916MOL0     N23576   2.284   7.249   7.000 -0.6695  0.2707 -0.2581
  916MOL0     C23577   0.929   7.351   6.897 -0.4694  0.4456 -0.8219
  916MOL0     C23578   0.803   7.298   6.899 -0.9382 -0.9365  0.3228
  916MOL0     C23579   0.426   7.085   6.809 -0.2780  0.1192 -0.0926
  916MOL0     C23580   0.322   7.164   6.772  0.5179  0.2903  0.2644
  916MOL0     C23581   0.193   7.126   6.775  0.0383 -0.0220 -0.3448
  916MOL0     C23582   0.159   6.996   6.819 -0.9294 -0.2511  1.0561
  916MOL0     O23583   0.030   6.950   6.825  0.2944  0.0137 -0.3645
  916MOL0     C23584  -0.086   7.035   6.829  0.2651 -1.0419 -0.4824
  916MOL0     C23585  -0.156   7.055   6.685 -0.5542 -0.3081 -0.4883
  916MOL0     C23586  -0.232   6.936   6.637 -0.3413  0.2165 -0.2172
  916MOL0     C23587  -0.377   6.930   6.682  0.2703  0.3818  0.4073
  916MOL0     C23588  -0.453   7.048   6.646  0.0783 -0.2126  0.1983
  916MOL0     C23589  -0.500   7.158   6.629 -0.1080 -0.5319 -0.3328
  916MOL0     C23590   0.267   6.916   6.866  0.0811  0.3730  0.1128
  916MOL0     C23591   0.404   6.956   6.867  0.4091  0.2987 -0.2629
  916MOL0     C23592   0.511   6.860   6.921  0.3433  0.1132  0.3771
  916MOL0     H23593   0.889   6.974   6.870  0.2228 -0.9385 -2.3262
  916MOL0     H23594   1.101   7.071   6.875  0.4393 -0.8295 -3.1623
  916MOL0     H23595   1.298   7.232   7.047 -0.6457  0.1588  0.1620
  916MOL0     H23596   1.304   7.186   6.876 -2.4439 -0.1178  0.9989
  916MOL0     H23597   1.357   7.446   7.030  0.6838  1.5317 -0.4254
  916MOL0     H23598   1.387   7.450   6.860  0.9743  0.4552  1.0222
  916MOL0     H23599   1.538   7.259   6.878  1.2249 -0.7906  0.6993
  916MOL0     H23600   1.550   7.286   7.056  1.4433  3.0231  1.4727
  916MOL0     H23601   1.620   7.500   6.864 -4.5907 -1.9080 -0.8749
  916MOL0     H23602   1.621   7.524   7.036 -0.5836 -0.0410  0.0013
  916MOL0     H23603   1.806   7.371   7.072  0.6718 -0.4261 -0.2006
  916MOL0     H23604   1.797   7.304   6.908  0.6442 -1.5294  1.7869
  916MOL0     H23605   1.878   7.542   6.831  1.8151 -0.2875 -0.0826
  916MOL0     H23606   1.864   7.592   6.999  0.0912  0.2230 -0.5862
  916MOL0     H23607   2.017   7.413   7.073 -0.2927  0.4252  0.1295
  916MOL0     H23608   2.080   7.551   6.982 -0.2721 -0.3799 -0.8175
  916MOL0     H23609   2.051   7.258   6.888  1.5664 -0.8490  0.0490
  916MOL0     H23610   2.082   7.402   6.781 -1.0542 -2.6177 -0.7679
  916MOL0     H23611   2.359   7.444   6.736 -0.5131  0.8535 -0.4567
  916MOL0     H23612   2.623   7.204   6.825 -2.1268 -0.4476 -2.5946
  916MOL0     H23613   2.578   7.337   6.716 -0.8507 -2.0108 -0.3234
  916MOL0     H23614   2.649   7.509   6.845  0.8116  1.7188  3.1960
  916MOL0     H23615   2.661   7.417   6.993  2.5550 -0.2237  1.2586
  916MOL0     H23616   2.835   7.384   6.738  1.0897 -1.9684 -0.8453
  916MOL0     H23617   2.841   7.264   6.872 -3.3545  0.3348  1.8244
  916MOL0     H23618   3.020   7.418   6.904  0.0051  1.0013  0.3912
  916MOL0     H23619   2.908   7.453   7.035  4.7501 -1.0170  0.6455
  916MOL0     H23620   3.094   7.570   7.088  3.4417 -0.5343 -2.6397
  916MOL0     H23621   3.205   7.755   7.195 -0.3412  0.7097 -0.5693
  916MOL0     H23622   3.369   8.159   7.031  1.2207  0.6591  0.2404
  916MOL0     H23623   3.554   8.309   7.042  0.0549  0.7295  1.1612
  916MOL0     H23624   3.576   8.477   7.363  0.6671  0.4883  0.2324
  916MOL0     H23625   3.703   8.416   7.468 -2.5973 -1.2390  0.6691
  916MOL0     H23626   3.736   8.608   7.233  0.8689  0.3107  0.8878
  916MOL0     H23627   3.712   8.660   7.398  0.5189  1.2987 -1.9261
  916MOL0     H23628   3.914   8.546   7.475 -2.0990 -1.8542 -0.1365
  916MOL0     H23629   3.947   8.476   7.307  2.4045  1.4670 -0.2097
  916MOL0     H23630   3.957   8.763   7.393  1.4915 -0.6958  1.4399
  916MOL0     H23631   3.991   8.707   7.234  0.0837  0.2570  0.5861
  916MOL0     H23632   4.186   8.577   7.337 -0.8062 -0.0603  1.5360
  916MOL0     H23633   4.179   8.658   7.491  3.0373 -0.9275 -1.0794
  916MOL0     H23634   4.218   8.805   7.222  1.0887  1.7482 -0.0456
  916MOL0     H23635   4.177   8.878   7.377  1.9022 -0.6485  2.2477
  916MOL0     H23636   4.420   8.712   7.318  1.4624  1.7133  0.7962
  916MOL0     H23637   4.385   8.787   7.478  0.3480  2.3200  0.7711
  916MOL0     H23638   4.546   8.904   7.357 -0.1834 -0.4852  0.4114
  916MOL0     H23639   4.458   8.896   7.205  0.0636 -1.6720 -0.6027
  916MOL0     H23640   3.623   8.189   7.447 -0.4575  2.3854 -0.2028
  916MOL0     H23641   3.433   8.028   7.436  2.2192 -2.4996 -1.8272
  916MOL0     H23642   3.008   8.025   6.939 -0.5460  1.3510  3.5681
  916MOL0     H23643   2.892   7.841   6.828  0.1736  2.5321  1.0089
  916MOL0     H23644   0.940   7.458   6.905  2.6960  0.1512 -0.0390
  916MOL0     H23645   0.713   7.359   6.891  1.3245  2.4598 -3.8948
  916MOL0     H23646   0.347   7.261   6.730 -0.4259  0.2941 -0.3073
  916MOL0     H23647   0.119   7.201   6.751 -1.7663 -1.7142 -0.3907
  916MOL0     H23648  -0.060   7.133   6.871  3.5017 -2.4060  1.0282
  916MOL0     H23649  -0.163   6.985   6.888  1.3246 -0.2150  1.7487
  916MOL0     H23650  -0.083   7.102   6.618  0.4473  0.3584  0.9968
  916MOL0     H23651  -0.215   7.145   6.701  0.5603  0.0564  2.0184
  916MOL0     H23652  -0.186   6.841   6.665 -0.0272 -0.4298 -2.7268
  916MOL0     H23653  -0.216   6.935   6.529  0.7314  1.9280 -0.1138
  916MOL0     H23654  -0.429   6.839   6.648 -2.0406  1.0092  2.0293
  916MOL0     H23655  -0.376   6.923   6.791 -0.9072 -1.5650  0.3559
  916MOL0     H23656  -0.535   7.257   6.608  0.5907 -0.1852  0.0874
  916MOL0     H23657   0.239   6.822   6.913 -1.5616  1.2085  0.8836
  916MOL0     H23658   0.535   6.879   7.026  0.3848  1.9313  0.0717
  916MOL0     H23659   0.473   6.759   6.908 -2.8592  1.4880 -2.4535
  916MOL0     H23660   0.597   6.876   6.855 -0.4811 -0.7860 -0.9613
  917MOL0     O23661   2.854   2.045   8.539 -0.3198 -0.5603  0.1214
  917MOL0     C23662   2.802   2.111   8.628  0.3220 -0.1651  0.6866
  917MOL0     O23663   2.870   2.191   8.709 -0.4485  0.1965 -0.2312
  917MOL0     C23664   3.008   2.213   8.681 -0.2981 -0.1570  0.9106
  917MOL0     C23665   3.103   2.114   8.685  0.4060 -0.4679  0.2980
  917MOL0     C23666   3.240   2.153   8.677  0.5085 -0.7415 -0.3315
  917MOL0     C23667   3.282   2.283   8.655  1.0985  0.4681 -0.2461
  917MOL0     O23668   3.401   2.339   8.645  0.4567 -0.1359 -0.1069
  917MOL0     C23669   3.511   2.251   8.656 -0.3938  0.1968 -0.4845
  917MOL0     C23670   3.636   2.335   8.637 -0.3049  0.3894  0.5733
  917MOL0     C23671   3.771   2.258   8.651 -0.3983  0.2548 -0.4404
  917MOL0     C23672   3.879   2.346   8.594 -0.0973 -0.1335 -0.8803
  917MOL0     C23673   4.026   2.293   8.612  0.4934  0.0528 -0.5405
  917MOL0     C23674   4.053   2.270   8.760 -0.3394 -0.1518  0.3988
  917MOL0     C23675   4.044   2.402   8.840  0.5610  0.9693  0.2305
  917MOL0     C23676   4.141   2.513   8.790  0.1275  0.7120 -0.2273
  917MOL0     N23677   4.283   2.479   8.789 -0.0996 -0.4437 -0.4119
  917MOL0     C23678   4.362   2.477   8.908  1.0841  0.2280 -0.8834
  917MOL0     C23679   4.477   2.417   8.880 -0.3610  0.0102 -0.0313
  917MOL0     C23680   4.600   2.401   8.968  0.8012  0.0225  0.1407
  917MOL0     C23681   4.725   2.478   8.912 -0.6589  0.6480  0.0270
  917MOL0     C23682   4.835   2.471   9.029 -0.1223  0.3090 -0.1676
  917MOL0     C23683   4.957   2.543   8.973  0.1736  0.3000  1.1091
  917MOL0     O23684   5.045   2.547   9.081 -0.4531  0.3222 -0.2353
  917MOL0     C23685   5.170   2.606   9.066 -0.1658  0.9316  0.3732
  917MOL0     C23686   5.247   2.631   8.957 -0.0482  0.6345  0.6569
  917MOL0     C23687   5.378   2.681   8.957 -0.4566  0.3393 -0.6684
  917MOL0     C23688   5.435   2.718   9.081 -0.1103  0.1967  0.2654
  917MOL0     C23689   5.574   2.775   9.085  0.1554 -0.4348  0.4825
  917MOL0     O23690   5.653   2.758   8.982 -0.6380 -0.7130  0.4373
  917MOL0     C23691   5.784   2.782   8.994 -0.0094 -0.2090 -0.2364
  917MOL0     C23692   5.836   2.906   8.944 -0.0480  0.5377 -0.7115
  917MOL0     C23693   5.970   2.918   8.934 -0.0631 -0.6147  0.8338
  917MOL0     C23694   6.056   2.812   8.967  0.7118 -0.1655  0.2957
  917MOL0     O23695   6.185   2.841   8.937  0.0322 -0.4831 -0.6752
  917MOL0     C23696   6.280   2.729   8.939 -0.3000 -0.3827  0.0767
  917MOL0     C23697   6.412   2.783   8.877 -0.0572  0.1149  0.5321
  917MOL0     C23698   6.389   2.864   8.745 -0.5906  0.8495  0.3545
  917MOL0     C23699   6.518   2.911   8.668  0.3386 -0.2104 -0.8122
  917MOL0     C23700   6.592   3.025   8.738  0.2811 -0.3595  0.1952
  917MOL0     C23701   6.545   3.149   8.672  0.5866  0.1982  0.2850
  917MOL0     C23702   6.603   3.274   8.746  0.0555  0.3792  0.4905
  917MOL0     C23703   6.594   3.407   8.668 -0.2030  0.0354 -0.1222
  917MOL0    Cl23704   6.699   3.423   8.521 -0.1186  0.1592 -0.2228
  917MOL0     C23705   6.010   2.692   9.017  0.6128  0.1036 -0.6765
  917MOL0     C23706   5.874   2.685   9.042 -0.2092  0.5081 -0.4852
  917MOL0     O23707   5.610   2.841   9.183  0.0835 -0.1753  0.1672
  917MOL0     C23708   5.354   2.707   9.195  0.4220  0.3914 -0.2198
  917MOL0     C23709   5.224   2.654   9.186  0.3008  0.7279 -0.1504
  917MOL0     N23710   4.476   2.374   8.748  0.1120 -0.0327 -1.2542
  917MOL0     N23711   4.356   2.414   8.695 -0.4411  0.2880 -0.2981
  917MOL0     C23712   3.178   2.377   8.641  0.2942  0.1162 -1.3829
  917MOL0     C23713   3.035   2.348   8.655 -0.6031 -0.2318 -0.1242
  917MOL0     C23714   2.663   2.083   8.659  1.0166 -0.0814 -0.3666
  917MOL0     C23715   2.586   2.004   8.564  0.8106 -0.1706  0.0091
  917MOL0     C23716   2.449   1.975   8.594  0.1427 -0.0711  0.7842
  917MOL0     C23717   2.395   2.024   8.713 -0.1879  0.3830  0.6950
  917MOL0     O23718   2.265   1.978   8.738  0.1635 -0.5358 -0.3922
  917MOL0     C23719   2.231   1.937   8.863  0.0504  1.3710 -1.2645
  917MOL0     C23720   2.154   1.805   8.842  0.0041  0.2858 -0.1186
  917MOL0     C23721   2.037   1.827   8.753  0.1179 -0.0195  0.1476
  917MOL0     C23722   1.954   1.696   8.743 -0.0348  0.8431 -0.7935
  917MOL0     C23723   1.838   1.699   8.649  0.4306  0.5176 -0.0356
  917MOL0     C23724   1.726   1.707   8.597  0.2214  0.2168 -0.2324
  917MOL0     C23725   2.473   2.100   8.796  0.9066 -0.3095 -0.9833
  917MOL0     C23726   2.601   2.133   8.778  0.3623  0.4558 -0.0662
  917MOL0     C23727   2.676   2.198   8.892  0.2170 -0.3970 -0.4316
  917MOL0     H23728   3.077   2.009   8.700  0.5721 -0.2506  2.4665
  917MOL0     H23729   3.312   2.073   8.681 -0.2703 -1.4124  0.7344
  917MOL0     H23730   3.509   2.211   8.758 -1.9438  1.1822 -0.0825
  917MOL0     H23731   3.498   2.167   8.588  2.0909 -1.2876  0.7326
  917MOL0     H23732   3.626   2.418   8.707  0.3438 -0.1073  1.2809
  917MOL0     H23733   3.621   2.373   8.535 -0.1423  3.4443  1.6028
  917MOL0     H23734   3.778   2.161   8.601  1.2794 -0.3715  0.9463
  917MOL0     H23735   3.785   2.223   8.753  0.5244 -0.1072 -0.6862
  917MOL0     H23736   3.866   2.349   8.485 -3.4291  0.2029 -0.5540
  917MOL0     H23737   3.866   2.445   8.638 -2.8895  0.1733 -2.2054
  917MOL0     H23738   4.041   2.195   8.565 -1.7341  0.1070 -1.4765
  917MOL0     H23739   4.093   2.364   8.562  0.1431 -0.4476 -1.7645
  917MOL0     H23740   4.002   2.185   8.806  1.4669  0.5491  4.1594
  917MOL0     H23741   4.158   2.241   8.761 -0.5799 -1.5484 -3.0385
  917MOL0     H23742   4.069   2.376   8.944 -1.1403  1.2229  0.7305
  917MOL0     H23743   3.944   2.447   8.843  1.1705  2.4707 -0.5874
  917MOL0     H23744   4.119   2.535   8.686  1.7621  1.9537 -0.3392
  917MOL0     H23745   4.133   2.602   8.854  1.5711 -1.7592  3.8146
  917MOL0     H23746   4.332   2.531   8.997 -0.2125  0.4017 -1.4130
  917MOL0     H23747   4.571   2.431   9.069 -0.9131 -1.6455  0.1946
  917MOL0     H23748   4.619   2.294   8.973 -0.4185 -0.2785 -1.0344
  917MOL0     H23749   4.752   2.423   8.821 -2.3046 -2.0186  1.0482
  917MOL0     H23750   4.707   2.583   8.890  3.6793  2.0497  2.0448
  917MOL0     H23751   4.855   2.369   9.062  0.2223  0.7497  1.0432
  917MOL0     H23752   4.797   2.529   9.113 -3.2327 -1.2491 -0.3400
  917MOL0     H23753   4.934   2.642   8.934 -0.1414 -0.4014 -0.5671
  917MOL0     H23754   5.006   2.480   8.898 -2.0997 -0.2227 -0.0564
  917MOL0     H23755   5.203   2.608   8.861  2.3918 -1.4780 -0.0914
  917MOL0     H23756   5.430   2.682   8.862  2.4049  2.3133  0.7991
  917MOL0     H23757   5.772   2.989   8.915 -0.7072 -0.3834 -1.9883
  917MOL0     H23758   6.016   3.000   8.881 -2.7495 -0.4871 -1.5643
  917MOL0     H23759   6.297   2.691   9.040  1.5663  0.3047  0.0661
  917MOL0     H23760   6.247   2.644   8.878 -0.0060 -0.5937  0.2054
  917MOL0     H23761   6.474   2.848   8.941  0.9750 -2.0461  1.8300
  917MOL0     H23762   6.482   2.700   8.864  1.8607  1.3705  2.1564
  917MOL0     H23763   6.349   2.791   8.674 -1.2590  0.1395  1.4318
  917MOL0     H23764   6.313   2.943   8.756 -1.0491  0.5077 -0.2846
  917MOL0     H23765   6.491   2.936   8.565 -2.1477 -1.5894 -0.5690
  917MOL0     H23766   6.579   2.822   8.649 -2.6925 -2.6446  0.0530
  917MOL0     H23767   6.699   3.015   8.718  0.7072 -0.7977  2.4126
  917MOL0     H23768   6.575   3.034   8.846  1.8678 -0.0132  0.4324
  917MOL0     H23769   6.584   3.156   8.569 -0.7393 -1.1450 -0.3466
  917MOL0     H23770   6.436   3.149   8.663  0.6288 -1.6346 -0.9913
  917MOL0     H23771   6.709   3.254   8.768  0.1471  1.4347  1.1142
  917MOL0     H23772   6.557   3.279   8.845 -1.8524  1.1905 -0.3943
  917MOL0     H23773   6.492   3.427   8.634 -0.3785 -1.2644 -0.4224
  917MOL0     H23774   6.625   3.486   8.737 -0.3593 -1.5543  1.8732
  917MOL0     H23775   6.077   2.615   9.053  0.3140 -0.2985 -0.9634
  917MOL0     H23776   5.840   2.587   9.074 -0.4171  1.5207  2.6944
  917MOL0     H23777   5.393   2.723   9.295  1.8931 -2.1467 -0.2867
  917MOL0     H23778   5.164   2.634   9.273 -0.0038 -1.3328 -0.7824
  917MOL0     H23779   3.204   2.481   8.624 -0.3424  1.2060  3.0874
  917MOL0     H23780   2.954   2.421   8.655 -0.9468 -0.5637 -1.9341
  917MOL0     H23781   2.626   1.967   8.471  1.6256 -2.7669  1.2853
  917MOL0     H23782   2.383   1.920   8.528 -0.5804 -0.1795  1.5877
  917MOL0     H23783   2.173   2.012   8.918 -0.0184  1.0136 -0.8374
  917MOL0     H23784   2.321   1.901   8.914 -0.7587  0.7885 -0.2177
  917MOL0     H23785   2.114   1.771   8.938 -1.6924 -0.6070 -1.0833
  917MOL0     H23786   2.214   1.720   8.806 -2.8522 -1.6082 -0.7964
  917MOL0     H23787   2.069   1.859   8.654  0.8747 -0.9721  0.0616
  917MOL0     H23788   1.966   1.901   8.790  0.4549 -0.4127  1.6799
  917MOL0     H23789   2.022   1.610   8.736  0.7333  1.4951 -1.5523
  917MOL0     H23790   1.896   1.677   8.834  0.5093 -1.7769 -0.9126
  917MOL0     H23791   1.627   1.703   8.555  0.3142  1.5820 -0.6293
  917MOL0     H23792   2.440   2.136   8.893  2.8571  0.0071 -0.4005
  917MOL0     H23793   2.620   2.226   8.981 -0.3392  0.9524 -1.1731
  917MOL0     H23794   2.775   2.159   8.918  0.3660  1.9113  3.1960
  917MOL0     H23795   2.699   2.297   8.851 -1.5540 -0.3497 -1.3871
  918MOL0     O23796   2.928   2.446   3.648  0.3292 -0.2307  0.6002
  918MOL0     C23797   2.951   2.340   3.696  0.4340  0.0443 -0.1624
  918MOL0     O23798   3.054   2.263   3.666 -1.3513 -0.0533 -0.3106
  918MOL0     C23799   3.167   2.310   3.604 -0.5633 -0.1538 -0.1740
  918MOL0     C23800   3.251   2.217   3.543 -0.3838 -0.6242  0.2182
  918MOL0     C23801   3.373   2.255   3.476 -0.7103 -0.2205  0.2531
  918MOL0     C23802   3.398   2.390   3.451  0.6043  0.5175  0.0600
  918MOL0     O23803   3.498   2.431   3.360  0.1480  0.0627 -0.5319
  918MOL0     C23804   3.564   2.338   3.275  0.0522 -0.3170 -0.8923
  918MOL0     C23805   3.626   2.409   3.152  0.4166 -0.7792 -0.4842
  918MOL0     C23806   3.770   2.439   3.167  0.1191  0.0844  0.1037
  918MOL0     C23807   3.796   2.540   3.287 -0.0651  0.6929 -0.6148
  918MOL0     C23808   3.941   2.600   3.308 -0.1166  0.1389  0.0767
  918MOL0     C23809   3.981   2.697   3.193  0.7579  0.6968  0.4620
  918MOL0     C23810   4.115   2.751   3.230 -1.0090  0.0379 -0.4853
  918MOL0     C23811   4.125   2.846   3.347 -0.7999 -0.4324 -0.7600
  918MOL0     N23812   4.268   2.899   3.347 -0.7650 -0.3606 -0.8485
  918MOL0     C23813   4.326   2.945   3.463 -0.4228 -0.3068 -0.1142
  918MOL0     C23814   4.446   2.995   3.425  0.3166 -0.1624 -0.9233
  918MOL0     C23815   4.542   3.073   3.522 -0.3800 -0.4648  0.7131
  918MOL0     C23816   4.660   2.983   3.578 -0.7248  0.9049 -0.1612
  918MOL0     C23817   4.619   2.918   3.710 -0.0798  1.2681 -0.2053
  918MOL0     C23818   4.682   2.782   3.728 -0.5843  0.1982 -0.1027
  918MOL0     O23819   4.822   2.810   3.754 -0.2607  1.0432  0.0347
  918MOL0     C23820   4.914   2.704   3.747 -0.2633  0.2731  0.4279
  918MOL0     C23821   5.047   2.734   3.750 -0.6152  0.3949 -1.3565
  918MOL0     C23822   5.147   2.638   3.720 -0.2321 -0.3479  0.9452
  918MOL0     C23823   5.109   2.501   3.713 -0.4167  1.0819 -0.2009
  918MOL0     C23824   5.218   2.398   3.691 -0.0144 -0.2535  0.1184
  918MOL0     O23825   5.206   2.266   3.738  0.0670 -0.0007 -0.6038
  918MOL0     C23826   5.301   2.184   3.684 -0.3570  0.4896 -0.5218
  918MOL0     C23827   5.430   2.184   3.738  0.1143  0.3388  0.2755
  918MOL0     C23828   5.517   2.085   3.697 -0.1330  0.3581  0.4417
  918MOL0     C23829   5.491   1.992   3.601 -0.0072 -0.2981  0.9947
  918MOL0     O23830   5.592   1.900   3.569  0.4275  0.2865 -0.1585
  918MOL0     C23831   5.559   1.755   3.569  0.1890  0.5105  0.3879
  918MOL0     C23832   5.574   1.666   3.440  0.0129 -0.1772 -0.4516
  918MOL0     C23833   5.509   1.522   3.452  0.1534 -0.2670  0.1312
  918MOL0     C23834   5.355   1.528   3.444 -0.1021  1.1987 -1.0847
  918MOL0     C23835   5.309   1.579   3.305 -0.8108 -0.0101  0.0666
  918MOL0     C23836   5.162   1.608   3.315  0.4761  0.2361 -1.2357
  918MOL0     C23837   5.106   1.691   3.209  0.3323  0.4746 -0.8402
  918MOL0     C23838   4.953   1.697   3.237  0.1970  0.1827 -0.4628
  918MOL0    Cl23839   4.924   1.786   3.386  0.1053  0.0046  0.1620
  918MOL0     C23840   5.363   1.997   3.541 -0.5000  0.9571  0.9712
  918MOL0     C23841   5.266   2.083   3.582  0.0258 -0.0179 -0.1322
  918MOL0     O23842   5.319   2.444   3.629  0.4711  0.4941 -0.1891
  918MOL0     C23843   4.970   2.470   3.733 -0.4653  0.7483 -0.1742
  918MOL0     C23844   4.870   2.569   3.740 -0.1149  0.1740 -0.2583
  918MOL0     N23845   4.473   2.969   3.294 -0.2024  0.5457 -0.3536
  918MOL0     N23846   4.364   2.909   3.251 -0.4819  0.3566  0.6264
  918MOL0     C23847   3.321   2.488   3.517 -0.4815 -0.4099 -0.0239
  918MOL0     C23848   3.206   2.444   3.588 -0.1164 -0.5255 -0.6588
  918MOL0     C23849   2.838   2.279   3.774 -0.1029 -0.4319 -0.2466
  918MOL0     C23850   2.823   2.143   3.774 -0.1191  0.4303 -1.0250
  918MOL0     C23851   2.718   2.074   3.838  0.2726  0.3631  0.0806
  918MOL0     C23852   2.618   2.147   3.908 -0.7292  0.4836 -0.4524
  918MOL0     O23853   2.519   2.090   3.975  0.6680 -0.7316 -0.2859
  918MOL0     C23854   2.538   1.976   4.052  0.1488  0.3998 -0.7849
  918MOL0     C23855   2.656   1.962   4.162 -0.2229 -0.2424  0.8833
  918MOL0     C23856   2.635   2.059   4.272 -0.4249 -0.3416  0.2721
  918MOL0     C23857   2.737   2.030   4.375 -0.4289 -0.1517  0.2007
  918MOL0     C23858   2.670   1.980   4.497  0.2054  0.1795  0.9879
  918MOL0     C23859   2.618   1.943   4.599  0.0901 -0.1521 -0.3239
  918MOL0     C23860   2.644   2.280   3.925 -0.6835  0.1388 -0.7862
  918MOL0     C23861   2.744   2.347   3.851 -0.1508  0.1335 -0.4432
  918MOL0     C23862   2.736   2.503   3.858  1.3530  0.4498 -0.6413
  918MOL0     H23863   3.222   2.114   3.558  0.8410 -0.6317  3.4158
  918MOL0     H23864   3.431   2.174   3.435  0.2897  1.4056 -1.7283
  918MOL0     H23865   3.634   2.282   3.338  2.1426  2.2760 -0.7166
  918MOL0     H23866   3.496   2.258   3.245 -0.4826 -0.9365  1.8002
  918MOL0     H23867   3.571   2.499   3.123 -0.0938 -0.5091  1.2430
  918MOL0     H23868   3.626   2.339   3.067 -0.3718  2.6421 -3.5553
  918MOL0     H23869   3.812   2.478   3.073  2.4241  2.6972  2.0446
  918MOL0     H23870   3.817   2.342   3.184  0.2038 -0.5394 -3.0943
  918MOL0     H23871   3.730   2.626   3.277  0.4749  1.0984 -0.7710
  918MOL0     H23872   3.775   2.495   3.385  0.4954  0.3950 -0.6288
  918MOL0     H23873   3.935   2.647   3.407 -0.1226 -0.1319  0.2066
  918MOL0     H23874   4.018   2.523   3.319 -2.5023 -2.6169 -1.2344
  918MOL0     H23875   3.979   2.641   3.099  0.6462  3.4187 -1.2479
  918MOL0     H23876   3.908   2.777   3.188 -1.5766 -1.3791 -1.3614
  918MOL0     H23877   4.147   2.801   3.138  1.5065 -0.9058 -0.1884
  918MOL0     H23878   4.178   2.663   3.244 -2.4089 -1.3015 -2.0764
  918MOL0     H23879   4.049   2.924   3.349 -0.1323  0.2104 -0.0935
  918MOL0     H23880   4.112   2.793   3.442  3.0122  1.9951  1.3512
  918MOL0     H23881   4.295   2.952   3.566 -0.0237 -3.7563  0.3486
  918MOL0     H23882   4.580   3.154   3.459 -0.0399 -1.9308 -1.0702
  918MOL0     H23883   4.497   3.119   3.610  0.5806  0.1008  0.9309
  918MOL0     H23884   4.686   2.905   3.506  1.8014  1.2871  0.2446
  918MOL0     H23885   4.747   3.046   3.595 -0.1094  0.1192 -0.3204
  918MOL0     H23886   4.511   2.901   3.707 -0.3604  2.7748 -3.4704
  918MOL0     H23887   4.651   2.985   3.790 -2.3584  2.0599  0.1175
  918MOL0     H23888   4.653   2.719   3.643 -1.8738  3.5751 -2.3988
  918MOL0     H23889   4.637   2.737   3.817  1.5011  0.8058  1.3340
  918MOL0     H23890   5.084   2.836   3.754 -0.7566  0.5401 -2.8929
  918MOL0     H23891   5.251   2.665   3.712 -0.1315 -0.4358  1.8752
  918MOL0     H23892   5.464   2.241   3.825 -0.3314 -2.4259  2.4039
  918MOL0     H23893   5.622   2.076   3.723  0.1994 -1.2961 -1.2228
  918MOL0     H23894   5.617   1.705   3.648  1.6052  0.2502 -0.7734
  918MOL0     H23895   5.463   1.750   3.622  1.3421  2.8507  2.9190
  918MOL0     H23896   5.537   1.717   3.350  0.1905  1.2365  0.2524
  918MOL0     H23897   5.682   1.658   3.420 -0.0006 -2.2415  0.1336
  918MOL0     H23898   5.542   1.462   3.366 -0.7280  0.7031 -0.9172
  918MOL0     H23899   5.554   1.464   3.533  1.6579  0.7973  0.0902
  918MOL0     H23900   5.312   1.584   3.528  0.1403  3.0055 -2.0942
  918MOL0     H23901   5.324   1.424   3.452  1.0924  0.9295  0.7968
  918MOL0     H23902   5.336   1.506   3.228  4.1094  0.8279  0.6817
  918MOL0     H23903   5.363   1.670   3.280  0.3271 -0.4851  0.7092
  918MOL0     H23904   5.110   1.512   3.305  0.3304  0.1008  0.4561
  918MOL0     H23905   5.136   1.649   3.413 -0.4189 -0.6924 -1.0567
  918MOL0     H23906   5.129   1.643   3.114 -0.0492 -1.5943  0.0636
  918MOL0     H23907   5.152   1.790   3.207  1.4777 -0.0467 -1.3650
  918MOL0     H23908   4.898   1.746   3.156 -1.5778 -1.4141 -0.2877
  918MOL0     H23909   4.924   1.592   3.245  0.8078  0.0147 -0.4114
  918MOL0     H23910   5.362   1.922   3.462  4.1095 -0.4820  1.9534
  918MOL0     H23911   5.178   2.076   3.519  0.5838  2.6739 -1.3459
  918MOL0     H23912   4.943   2.365   3.739  3.1350 -0.2632  0.8007
  918MOL0     H23913   4.767   2.537   3.747 -0.2796  1.1163  3.5573
  918MOL0     H23914   3.351   2.592   3.529 -0.5507 -0.5406  1.4535
  918MOL0     H23915   3.165   2.522   3.651  1.7463 -2.5104  3.3687
  918MOL0     H23916   2.894   2.086   3.715 -1.6542  0.4499 -2.9918
  918MOL0     H23917   2.717   1.966   3.842  0.4768  0.2440  6.4308
  918MOL0     H23918   2.570   1.897   3.984  1.4168 -0.5420  0.8305
  918MOL0     H23919   2.448   1.946   4.107  1.2325  0.5620  1.1723
  918MOL0     H23920   2.755   1.983   4.120  0.4942  0.4959  2.8590
  918MOL0     H23921   2.652   1.862   4.206  1.3766 -0.8329 -0.1896
  918MOL0     H23922   2.536   2.042   4.316  0.2030 -1.1617  1.4101
  918MOL0     H23923   2.633   2.163   4.237 -1.9843 -0.2977  0.3945
  918MOL0     H23924   2.815   1.962   4.340  0.1413 -0.2111  1.5257
  918MOL0     H23925   2.776   2.131   4.391 -2.0408  0.4548  0.4671
  918MOL0     H23926   2.580   1.908   4.692 -1.6359 -0.8325 -1.2389
  918MOL0     H23927   2.591   2.333   4.004 -0.5200  0.4063 -0.8527
  918MOL0     H23928   2.666   2.534   3.936  2.1331  0.7482 -0.0425
  918MOL0     H23929   2.837   2.546   3.864  2.0335 -1.1351 -0.0580
  918MOL0     H23930   2.685   2.534   3.767  0.1685  1.5265  0.3599
  919MOL0     O23931   9.848   7.340   7.399  0.0391  0.7979  0.5038
  919MOL0     C23932   9.798   7.224   7.394 -1.1312 -0.7024 -0.4981
  919MOL0     O23933   9.846   7.117   7.315 -0.2127  0.1338  0.2144
  919MOL0     C23934   9.970   7.112   7.264 -1.3685  0.2704  0.4346
  919MOL0     C23935  10.017   7.213   7.181 -0.0973  0.5443  0.0110
  919MOL0     C23936  10.154   7.216   7.139  0.6009 -0.2775  0.1621
  919MOL0     C23937  10.236   7.107   7.170 -1.1546 -0.6169  0.1366
  919MOL0     O23938  10.368   7.111   7.128 -0.4255  0.3892 -0.3547
  919MOL0     C23939  10.424   6.992   7.072 -0.0419  0.3960  0.3868
  919MOL0     C23940  10.550   7.017   6.991 -0.4413  0.1713  0.2025
  919MOL0     C23941  10.665   7.083   7.059 -0.3767 -0.4422 -0.3961
  919MOL0     C23942  10.785   7.091   6.967 -0.2628  0.5398  0.0991
  919MOL0     C23943  10.908   7.163   7.024  0.7718 -0.3781 -0.1400
  919MOL0     C23944  10.972   7.095   7.146 -0.6157  0.4814 -0.2817
  919MOL0     C23945  11.103   7.149   7.196 -0.3230  0.1356  0.9013
  919MOL0     C23946  11.148   7.078   7.318  0.4067 -0.4238 -0.4404
  919MOL0     N23947  11.264   7.144   7.389 -0.0990  0.6800  1.2765
  919MOL0     C23948  11.255   7.263   7.444  0.0631  0.6680 -0.9409
  919MOL0     C23949  11.358   7.273   7.529 -0.0816  0.4261 -0.5650
  919MOL0     C23950  11.383   7.383   7.624 -0.6054  0.1925 -0.2779
  919MOL0     C23951  11.527   7.448   7.614 -1.0649  0.4299 -0.3688
  919MOL0     C23952  11.646   7.353   7.660  0.1068 -0.5099 -0.1229
  919MOL0     C23953  11.780   7.426   7.659 -0.3612  0.1544  0.7427
  919MOL0     O23954  11.862   7.315   7.683 -0.9115 -0.6690 -0.8196
  919MOL0     C23955  12.004   7.325   7.704  0.1897 -0.6748  0.6079
  919MOL0     C23956  12.094   7.221   7.668 -0.1994 -0.6248  1.0280
  919MOL0     C23957  12.239   7.236   7.680  0.7542 -0.2394  0.0776
  919MOL0     C23958  12.287   7.362   7.710  0.4748 -0.1897 -0.7181
  919MOL0     C23959  12.433   7.373   7.729 -0.4312 -0.6137  0.0548
  919MOL0     O23960  12.508   7.264   7.731 -0.3712 -0.1926 -1.0296
  919MOL0     C23961  12.642   7.271   7.764  1.2160  0.4671  0.0966
  919MOL0     C23962  12.692   7.367   7.860  0.4086  0.1949  0.2892
  919MOL0     C23963  12.826   7.395   7.862  0.1843 -0.1639  0.4630
  919MOL0     C23964  12.919   7.335   7.775  0.4346  0.1650 -0.5863
  919MOL0     O23965  13.045   7.380   7.766 -0.2050  0.1556  0.0722
  919MOL0     C23966  13.148   7.294   7.834  0.2132  0.0080 -0.1135
  919MOL0     C23967  13.283   7.367   7.804 -0.3186 -0.5490 -0.3084
  919MOL0     C23968  13.287   7.503   7.867 -0.7342 -0.8488 -0.1899
  919MOL0     C23969  13.429   7.567   7.853  0.0294  0.1225 -0.6226
  919MOL0     C23970  13.445   7.673   7.945 -0.0256 -0.4095 -0.2646
  919MOL0     C23971  13.584   7.731   7.941  0.4401 -0.5266 -0.4620
  919MOL0     C23972  13.596   7.871   8.006  0.2105 -0.5671  0.1141
  919MOL0     C23973  13.669   7.856   8.134 -0.1120  0.2545 -0.1675
  919MOL0    Cl23974  13.638   7.993   8.249 -0.3421  0.4024  0.6466
  919MOL0     C23975  12.871   7.234   7.690  0.5712 -0.5245 -0.0880
  919MOL0     C23976  12.732   7.209   7.683  0.0854  0.7406 -1.3152
  919MOL0     O23977  12.472   7.496   7.711 -0.2593  0.2894 -0.6347
  919MOL0     C23978  12.201   7.470   7.748 -0.9215  0.8334 -0.4080
  919MOL0     C23979  12.061   7.440   7.754 -0.1255  0.0233  0.2833
  919MOL0     N23980  11.430   7.156   7.516 -1.0334 -0.6015 -0.0894
  919MOL0     N23981  11.381   7.081   7.424 -0.5777 -0.9648  0.2198
  919MOL0     C23982  10.189   7.010   7.256  0.7293  1.0584  0.1942
  919MOL0     C23983  10.059   7.012   7.298  0.2014  0.8652 -0.9832
  919MOL0     C23984   9.665   7.206   7.461  0.2349 -0.3387 -0.6312
  919MOL0     C23985   9.578   7.316   7.496 -0.7776  0.1273  0.1746
  919MOL0     C23986   9.454   7.294   7.563  0.3660  0.1253  0.4050
  919MOL0     C23987   9.403   7.166   7.585  0.4626 -0.4678 -0.0435
  919MOL0     O23988   9.273   7.158   7.637  0.1336  0.2836 -0.3561
  919MOL0     C23989   9.180   7.266   7.614 -0.2374  0.2378  0.3524
  919MOL0     C23990   9.052   7.201   7.674  0.0974  0.1183 -0.4123
  919MOL0     C23991   8.971   7.105   7.585 -0.8651  1.0241 -0.2319
  919MOL0     C23992   8.866   7.029   7.665 -0.0309  0.6338 -0.4291
  919MOL0     C23993   8.821   6.902   7.612 -0.8293  0.8623  0.3721
  919MOL0     C23994   8.794   6.790   7.571  0.4110  0.4647  0.0703
  919MOL0     C23995   9.485   7.057   7.560  0.0298  0.2228 -0.9344
  919MOL0     C23996   9.613   7.077   7.495 -0.6530 -0.4902 -0.7277
  919MOL0     C23997   9.678   6.938   7.452  0.5022  0.1105 -0.2565
  919MOL0     H23998   9.958   7.301   7.155  0.1356  0.3772 -1.1153
  919MOL0     H23999  10.181   7.295   7.069  0.7583  0.9877  1.6106
  919MOL0     H24000  10.450   6.922   7.152  0.2099 -1.8393 -1.5280
  919MOL0     H24001  10.347   6.940   7.014  0.1612 -0.0982  0.5457
  919MOL0     H24002  10.516   7.083   6.911 -0.2566  0.4682  0.3700
  919MOL0     H24003  10.580   6.925   6.941 -0.6175  0.5394 -0.5895
  919MOL0     H24004  10.687   7.034   7.154  1.8898  0.6582 -0.2893
  919MOL0     H24005  10.639   7.185   7.086  0.7677 -0.0162 -0.8300
  919MOL0     H24006  10.815   6.987   6.947  0.3983  0.9462 -1.1476
  919MOL0     H24007  10.755   7.140   6.873  0.3062  5.1323  2.0678
  919MOL0     H24008  10.985   7.179   6.948  0.7442 -0.1006 -0.1100
  919MOL0     H24009  10.878   7.264   7.054  0.6746 -1.1585  2.6784
  919MOL0     H24010  10.896   7.092   7.225 -0.1316 -1.3592  0.1618
  919MOL0     H24011  10.994   6.991   7.117  0.0897  0.1303  1.3814
  919MOL0     H24012  11.089   7.256   7.213 -0.7723  0.5983 -1.9412
  919MOL0     H24013  11.183   7.144   7.121 -2.1715  0.4551 -1.1812
  919MOL0     H24014  11.063   7.050   7.381  0.1393  1.0411 -0.1138
  919MOL0     H24015  11.198   6.985   7.287  1.3086 -1.5584  3.7324
  919MOL0     H24016  11.183   7.339   7.417  0.5971  1.3573 -0.4510
  919MOL0     H24017  11.316   7.465   7.599 -0.0164  0.4481 -1.0568
  919MOL0     H24018  11.360   7.347   7.725 -1.1258  1.2590 -0.0003
  919MOL0     H24019  11.529   7.515   7.528  0.1716  1.2259  0.2521
  919MOL0     H24020  11.533   7.530   7.686 -1.9151  3.2869 -3.3090
  919MOL0     H24021  11.645   7.267   7.592 -2.2275 -1.1262  0.6001
  919MOL0     H24022  11.627   7.313   7.760  0.9003  1.8850  1.0633
  919MOL0     H24023  11.789   7.500   7.739 -1.8229  1.6691 -0.4392
  919MOL0     H24024  11.791   7.472   7.560  4.9356  1.6443  1.6882
  919MOL0     H24025  12.067   7.122   7.634  1.1684 -0.9183  0.7592
  919MOL0     H24026  12.303   7.152   7.657 -2.0658 -3.0225  1.7267
  919MOL0     H24027  12.633   7.435   7.921  1.7869  0.4967  1.3488
  919MOL0     H24028  12.864   7.479   7.918 -3.3153  0.2754  2.4307
  919MOL0     H24029  13.127   7.286   7.941 -0.8270 -0.1176 -0.3097
  919MOL0     H24030  13.144   7.195   7.787 -0.0901  1.1982 -2.7932
  919MOL0     H24031  13.360   7.297   7.838 -2.3049 -2.1258  1.1822
  919MOL0     H24032  13.295   7.379   7.696  1.3833  1.5793  0.0540
  919MOL0     H24033  13.213   7.569   7.821  0.5756  1.4227  0.8029
  919MOL0     H24034  13.260   7.504   7.973  0.3788 -1.4659  0.1113
  919MOL0     H24035  13.441   7.604   7.751  2.4268  2.4410  0.3835
  919MOL0     H24036  13.499   7.487   7.879 -2.6852 -2.0895  0.4524
  919MOL0     H24037  13.426   7.636   8.046 -2.9893 -0.8732 -0.8820
  919MOL0     H24038  13.373   7.752   7.919 -2.3245 -2.2517  0.1826
  919MOL0     H24039  13.651   7.659   7.990  1.0168  0.1617 -0.2265
  919MOL0     H24040  13.619   7.739   7.838  2.3351 -2.2995 -0.0472
  919MOL0     H24041  13.497   7.905   8.037 -0.6091 -1.0681 -1.8379
  919MOL0     H24042  13.649   7.938   7.937 -0.8214 -1.7931 -1.9336
  919MOL0     H24043  13.651   7.760   8.184 -0.8581  0.2710 -0.4024
  919MOL0     H24044  13.775   7.864   8.109  0.1577  1.5504  1.2773
  919MOL0     H24045  12.940   7.186   7.621  0.0580  0.5625 -1.4110
  919MOL0     H24046  12.698   7.125   7.623 -1.1257 -1.4279  2.1242
  919MOL0     H24047  12.250   7.565   7.766  3.3048 -1.4092  1.3575
  919MOL0     H24048  11.990   7.516   7.783 -1.8860 -0.9036 -1.4280
  919MOL0     H24049  10.249   6.925   7.286 -1.7137  0.4487  4.1082
  919MOL0     H24050  10.029   6.931   7.363 -0.6114  0.8569 -1.3576
  919MOL0     H24051   9.597   7.420   7.472 -0.6344  0.2693  0.8898
  919MOL0     H24052   9.397   7.385   7.579  2.2442  1.2858  0.9133
  919MOL0     H24053   9.170   7.297   7.510  2.2942 -1.5536 -0.5096
  919MOL0     H24054   9.207   7.349   7.680  0.1280 -0.4666  1.1027
  919MOL0     H24055   8.984   7.287   7.679 -0.4854 -0.1348 -2.7639
  919MOL0     H24056   9.068   7.154   7.772  2.4259  2.4549  0.4185
  919MOL0     H24057   9.045   7.033   7.549 -1.6034  0.6422 -1.0304
  919MOL0     H24058   8.926   7.151   7.497 -3.0049 -4.1070 -2.2335
  919MOL0     H24059   8.889   7.009   7.770 -0.5727  0.5380 -0.3248
  919MOL0     H24060   8.776   7.091   7.671 -1.1830 -1.1057  1.4580
  919MOL0     H24061   8.778   6.684   7.559  1.6357  0.1104  1.2907
  919MOL0     H24062   9.458   6.956   7.588  2.0639  0.4776  2.5620
  919MOL0     H24063   9.778   6.934   7.496  0.5925 -0.1780 -0.4814
  919MOL0     H24064   9.629   6.851   7.496  2.8436 -1.1041  0.1234
  919MOL0     H24065   9.694   6.928   7.344  3.3349 -1.4035  0.1970
  920MOL0     O24066   9.416   9.829   1.717 -0.6139  0.7904  0.0158
  920MOL0     C24067   9.389   9.944   1.746  0.7786 -0.1610  0.6785
  920MOL0     O24068   9.479  10.052   1.741  0.3190  0.2806 -0.5586
  920MOL0     C24069   9.562  10.048   1.630  0.1721  0.1477 -0.2571
  920MOL0     C24070   9.672   9.957   1.622  0.4229  0.3393 -0.1230
  920MOL0     C24071   9.766   9.967   1.522 -0.0754 -0.5654  0.1178
  920MOL0     C24072   9.742  10.049   1.404 -0.9418  0.0728 -0.0202
  920MOL0     O24073   9.825  10.034   1.298  0.0009  0.1679  1.2850
  920MOL0     C24074   9.796  10.102   1.174  0.3858  0.3207  0.0297
  920MOL0     C24075   9.904  10.051   1.081  0.3280 -0.3093 -0.0736
  920MOL0     C24076   9.935  10.126   0.948 -0.4423  0.0994 -0.2208
  920MOL0     C24077  10.035  10.050   0.874 -0.2899 -0.2069  0.2669
  920MOL0     C24078  10.096  10.135   0.763  0.7337  0.5300 -0.1990
  920MOL0     C24079  10.215  10.056   0.714 -0.2851 -0.3525 -0.2821
  920MOL0     C24080  10.269  10.119   0.593  0.7628 -0.6469  1.3887
  920MOL0     C24081  10.389  10.045   0.531 -0.1534 -0.3090 -0.6548
  920MOL0     N24082  10.449  10.105   0.406  0.2597  1.2999  0.8893
  920MOL0     C24083  10.384  10.164   0.303 -0.3723  0.0623  0.1937
  920MOL0     C24084  10.479  10.222   0.221 -0.2875  0.8610  0.7034
  920MOL0     C24085  10.448  10.288   0.087  0.5326 -0.1347 -0.2937
  920MOL0     C24086  10.550  10.394   0.053  0.4586 -0.6039  0.5688
  920MOL0     C24087  10.545  10.522   0.145  0.6279 -0.0283  0.8032
  920MOL0     C24088  10.647  10.623   0.126  0.1736 -1.3207 -0.0497
  920MOL0     O24089  10.636  10.674  -0.003 -0.0278  0.0618 -0.9489
  920MOL0     C24090  10.736  10.742  -0.057  0.3540  0.1330 -0.2237
  920MOL0     C24091  10.746  10.748  -0.193  0.6480 -0.0783 -0.7439
  920MOL0     C24092  10.858  10.809  -0.250  1.3086  0.4633 -0.6901
  920MOL0     C24093  10.964  10.861  -0.177 -0.1950 -0.3223  0.7861
  920MOL0     C24094  11.087  10.915  -0.251  0.2159  0.4533 -0.3822
  920MOL0     O24095  11.099  10.892  -0.381 -0.2627  0.3210  0.3602
  920MOL0     C24096  11.217  10.935  -0.442 -0.4765 -0.6636  0.1638
  920MOL0     C24097  11.324  10.849  -0.461  0.1571  0.0654 -0.5031
  920MOL0     C24098  11.450  10.888  -0.508 -0.7753 -0.4993 -0.8491
  920MOL0     C24099  11.472  11.016  -0.554 -0.8238 -0.3590 -0.4567
  920MOL0     O24100  11.594  11.073  -0.597  0.6942  0.3692 -0.3223
  920MOL0     C24101  11.704  10.985  -0.630 -0.5331 -0.0217 -0.3422
  920MOL0     C24102  11.795  11.091  -0.695  0.8339  0.2174  0.1738
  920MOL0     C24103  11.924  11.025  -0.745 -0.0722  0.0972 -0.0840
  920MOL0     C24104  12.021  11.122  -0.799  0.0439  0.4829 -0.7152
  920MOL0     C24105  12.152  11.051  -0.844 -0.5704 -0.4255 -0.6911
  920MOL0     C24106  12.256  11.150  -0.904  0.6625 -0.1820  0.3824
  920MOL0     C24107  12.378  11.079  -0.956  0.0813  0.7189  0.2117
  920MOL0     C24108  12.501  11.167  -0.986 -0.6344  0.2862 -0.2575
  920MOL0    Cl24109  12.627  11.071  -1.069  0.2123  0.2396 -0.5281
  920MOL0     C24110  11.367  11.102  -0.537 -0.0807 -0.4146 -0.2639
  920MOL0     C24111  11.239  11.061  -0.482 -1.0044 -0.3396  0.2338
  920MOL0     O24112  11.169  10.974  -0.178  0.2058  0.4619 -0.1905
  920MOL0     C24113  10.951  10.858  -0.036 -0.1844  0.5240 -0.1180
  920MOL0     C24114  10.837  10.798   0.022  0.0489 -0.1142 -0.0506
  920MOL0     N24115  10.600  10.198   0.278  0.1362  1.0943  0.2898
  920MOL0     N24116  10.579  10.133   0.387  0.6182 -0.5937  0.3485
  920MOL0     C24117   9.621  10.124   1.404  0.5350 -0.0758 -0.6397
  920MOL0     C24118   9.543  10.133   1.517  0.1097  0.0090 -0.3736
  920MOL0     C24119   9.254   9.961   1.818 -0.2869 -0.1826 -0.9188
  920MOL0     C24120   9.228  10.081   1.879 -0.7791  0.2800  0.7210
  920MOL0     C24121   9.114  10.105   1.953 -0.6655 -0.1372  0.9979
  920MOL0     C24122   9.008  10.019   1.940  0.0733  0.0084  0.3739
  920MOL0     O24123   8.889  10.037   2.001 -0.2117 -0.4271  0.2461
  920MOL0     C24124   8.847  10.167   2.047  0.4209  0.3763  0.1859
  920MOL0     C24125   8.695  10.172   2.041  0.4932  0.8610  0.3110
  920MOL0     C24126   8.647  10.206   1.900 -0.7983 -0.6815  0.2175
  920MOL0     C24127   8.634  10.086   1.808  0.3982 -0.7571 -0.3619
  920MOL0     C24128   8.499  10.034   1.844 -0.7560 -0.7703  0.0425
  920MOL0     C24129   8.391   9.998   1.884 -0.3915  0.3222 -0.5389
  920MOL0     C24130   9.031   9.893   1.882  0.4238  0.1846 -0.0318
  920MOL0     C24131   9.151   9.856   1.817  0.1934  0.3593  0.3790
  920MOL0     C24132   9.168   9.717   1.758  0.1969  0.3043  0.1199
  920MOL0     H24133   9.683   9.892   1.708 -0.6567  1.4676  0.9026
  920MOL0     H24134   9.853   9.902   1.528  0.8543  0.4722 -1.4594
  920MOL0     H24135   9.696  10.082   1.134  0.3212 -1.2208  0.8990
  920MOL0     H24136   9.807  10.211   1.185  2.2521 -0.0219  2.3995
  920MOL0     H24137   9.867   9.951   1.057  1.4464 -0.2248 -2.4000
  920MOL0     H24138   9.998  10.064   1.136 -0.5835 -2.5198  2.1833
  920MOL0     H24139   9.962  10.232   0.956  0.2428  0.1143 -2.2279
  920MOL0     H24140   9.851  10.133   0.878 -0.5564  0.6583 -0.0351
  920MOL0     H24141  10.107  10.015   0.949  0.7150  0.0975 -0.5386
  920MOL0     H24142   9.988   9.968   0.818 -1.1847  1.3292 -1.3290
  920MOL0     H24143  10.012  10.153   0.696 -2.4992 -1.3138  3.0093
  920MOL0     H24144  10.146  10.226   0.799  1.3973  0.3669 -0.6779
  920MOL0     H24145  10.291  10.046   0.792 -3.0702  0.7615  2.7956
  920MOL0     H24146  10.190   9.953   0.685  0.4905 -0.5608 -0.2297
  920MOL0     H24147  10.293  10.225   0.607 -1.6954  0.1266  0.4837
  920MOL0     H24148  10.188  10.118   0.519 -0.1506 -0.4032  2.3599
  920MOL0     H24149  10.472  10.050   0.603 -1.6424  0.0292  1.0920
  920MOL0     H24150  10.359   9.940   0.524  0.4332 -0.7340  2.1196
  920MOL0     H24151  10.277  10.176   0.289 -0.1633  1.4372 -0.3185
  920MOL0     H24152  10.431  10.220   0.003  1.6812 -1.2015  0.3030
  920MOL0     H24153  10.348  10.333   0.085 -0.4019 -1.6837 -5.8331
  920MOL0     H24154  10.637  10.331   0.073  0.0425 -1.3300  0.1659
  920MOL0     H24155  10.536  10.425  -0.051 -2.4531  1.1248  1.3690
  920MOL0     H24156  10.557  10.482   0.246  1.7417 -3.3310 -0.4901
  920MOL0     H24157  10.449  10.575   0.141  1.7285  1.9620 -2.1755
  920MOL0     H24158  10.746  10.576   0.134  0.7440 -0.4762 -1.6911
  920MOL0     H24159  10.627  10.697   0.203 -2.2578 -0.5008 -1.3664
  920MOL0     H24160  10.665  10.708  -0.253 -1.9054  0.3987  2.1451
  920MOL0     H24161  10.851  10.816  -0.358 -0.2259  0.6426 -0.6007
  920MOL0     H24162  11.321  10.749  -0.418  1.0411  0.0683 -0.4161
  920MOL0     H24163  11.538  10.826  -0.519  0.0805  0.9985 -3.1249
  920MOL0     H24164  11.748  10.939  -0.541  0.3274  0.6468 -0.4057
  920MOL0     H24165  11.672  10.910  -0.704 -2.7673  0.4131  0.1038
  920MOL0     H24166  11.737  11.143  -0.772  0.4959  0.8020  0.8092
  920MOL0     H24167  11.832  11.164  -0.622  0.1686  0.0247  0.7105
  920MOL0     H24168  11.967  10.983  -0.654 -2.4242  1.6036  1.8542
  920MOL0     H24169  11.899  10.942  -0.810  0.8362  0.9754 -1.6135
  920MOL0     H24170  12.038  11.196  -0.720  0.0140 -1.7188  1.4575
  920MOL0     H24171  11.979  11.171  -0.887  0.2295 -2.2790 -2.4677
  920MOL0     H24172  12.133  10.964  -0.908  0.7480 -1.5064  0.3348
  920MOL0     H24173  12.205  10.999  -0.763 -0.5966 -3.4604 -2.4594
  920MOL0     H24174  12.210  11.199  -0.990  1.2247 -0.0580  0.1481
  920MOL0     H24175  12.284  11.224  -0.828  1.4583  0.1050 -0.1840
  920MOL0     H24176  12.354  11.035  -1.053  1.0550  1.6456 -0.4766
  920MOL0     H24177  12.400  10.995  -0.888  0.6530 -0.8291 -1.7771
  920MOL0     H24178  12.490  11.252  -1.055  0.3998  0.7476  0.1141
  920MOL0     H24179  12.538  11.200  -0.888 -0.8798 -1.9854  0.6457
  920MOL0     H24180  11.372  11.209  -0.554  1.2811 -0.6259 -1.3177
  920MOL0     H24181  11.173  11.145  -0.468 -0.0514  0.8661 -1.9612
  920MOL0     H24182  11.029  10.886   0.034  0.0670  0.9321 -0.5557
  920MOL0     H24183  10.845  10.794   0.131 -0.1752  0.9574  0.0182
  920MOL0     H24184   9.579  10.170   1.315 -2.3590 -1.7025 -0.2440
  920MOL0     H24185   9.450  10.188   1.528  0.6125  0.9869 -0.8117
  920MOL0     H24186   9.306  10.152   1.855  3.7621 -3.4548  2.9001
  920MOL0     H24187   9.105  10.203   1.999 -3.2652 -0.6580  1.7197
  920MOL0     H24188   8.884  10.249   1.984 -0.9447  1.3212  0.5726
  920MOL0     H24189   8.887  10.180   2.148  1.2655 -1.0876  0.0785
  920MOL0     H24190   8.669  10.241   2.122  0.4520 -3.2272  4.2105
  920MOL0     H24191   8.646  10.079   2.073 -1.8933  1.5048 -1.2075
  920MOL0     H24192   8.717  10.278   1.857 -0.6670 -1.1446 -0.3598
  920MOL0     H24193   8.558  10.270   1.899  0.5979  1.3686 -0.1658
  920MOL0     H24194   8.642  10.110   1.702 -0.3831 -1.3977 -0.5807
  920MOL0     H24195   8.706  10.005   1.817 -0.1803 -1.2116  0.3152
  920MOL0     H24196   8.292   9.962   1.907  0.0124  0.9009  2.6405
  920MOL0     H24197   8.948   9.823   1.885  1.4385 -1.0924 -0.3265
  920MOL0     H24198   9.253   9.669   1.807  0.7860  0.4662 -0.7331
  920MOL0     H24199   9.085   9.648   1.778 -1.6170  2.1739 -0.6747
  920MOL0     H24200   9.187   9.714   1.651  1.7096  1.9103  0.3083
  921MOL0     O24201   5.552  11.106   7.757  0.1441  0.2953  0.6016
  921MOL0     C24202   5.606  11.060   7.655 -0.3647  0.5344  0.3202
  921MOL0     O24203   5.542  10.987   7.557  0.1070  0.0163 -0.4464
  921MOL0     C24204   5.404  10.960   7.569  0.9032  0.0574  0.6393
  921MOL0     C24205   5.369  10.824   7.558 -0.5343 -0.4095 -0.2086
  921MOL0     C24206   5.237  10.785   7.558 -0.5542  0.3074  0.0850
  921MOL0     C24207   5.133  10.869   7.558  0.7765 -0.3776  0.3362
  921MOL0     O24208   4.994  10.832   7.570  0.3291  0.2707 -0.0517
  921MOL0     C24209   4.964  10.706   7.628 -0.0906 -0.3736  0.1873
  921MOL0     C24210   4.821  10.719   7.671 -0.2126  0.2603  0.2732
  921MOL0     C24211   4.714  10.673   7.570 -0.5549  0.7149  0.5717
  921MOL0     C24212   4.567  10.704   7.611  0.2222 -0.8423  0.0898
  921MOL0     C24213   4.514  10.834   7.548 -0.1256 -0.9185 -0.2520
  921MOL0     C24214   4.357  10.836   7.561  0.8207  0.7841  0.0497
  921MOL0     C24215   4.290  10.949   7.477 -0.4774  0.2908  0.0180
  921MOL0     C24216   4.139  10.944   7.501  0.2449 -0.1728 -0.0320
  921MOL0     N24217   4.089  10.824   7.433  0.5564 -0.0284  0.9960
  921MOL0     C24218   4.074  10.815   7.293 -0.0666 -0.5562  0.3198
  921MOL0     C24219   3.997  10.708   7.274 -0.7608 -0.4838  0.1537
  921MOL0     C24220   3.936  10.660   7.148  0.2122  1.0815 -0.3618
  921MOL0     C24221   3.953  10.502   7.138 -0.3211  0.4166  0.2684
  921MOL0     C24222   4.088  10.455   7.092  0.0759 -0.2339  0.3513
  921MOL0     C24223   4.185  10.424   7.211 -0.4319 -0.2745  1.0155
  921MOL0     O24224   4.304  10.372   7.145  0.2779  0.1781  1.4031
  921MOL0     C24225   4.413  10.350   7.221  1.0283  0.3518 -0.1113
  921MOL0     C24226   4.532  10.332   7.145  0.2520 -0.2247 -0.3315
  921MOL0     C24227   4.660  10.335   7.212 -0.1047  0.2936  0.1575
  921MOL0     C24228   4.663  10.348   7.352  0.1312 -1.1639  0.9651
  921MOL0     C24229   4.796  10.348   7.424 -0.2556  0.8906  0.4040
  921MOL0     O24230   4.908  10.376   7.345  0.2187  0.2951  0.5748
  921MOL0     C24231   5.033  10.390   7.395 -0.1969  0.5351 -0.4102
  921MOL0     C24232   5.128  10.415   7.297 -0.2448 -0.5943  0.3198
  921MOL0     C24233   5.271  10.423   7.326  0.3430  0.7852  0.5871
  921MOL0     C24234   5.320  10.407   7.450  0.3184 -0.4858 -0.0529
  921MOL0     O24235   5.455  10.420   7.465  0.3139 -0.4902 -0.0684
  921MOL0     C24236   5.521  10.348   7.576 -0.2699 -0.3315  1.0219
  921MOL0     C24237   5.529  10.196   7.555  0.6289 -0.2989  0.3170
  921MOL0     C24238   5.585  10.147   7.416  0.6963  0.2740 -0.1657
  921MOL0     C24239   5.739  10.148   7.431 -0.5654  0.6340  0.8226
  921MOL0     C24240   5.806  10.108   7.299  1.3983  0.7054  0.0395
  921MOL0     C24241   5.813  10.223   7.199 -0.8946  0.0705 -0.7594
  921MOL0     C24242   5.875  10.181   7.068 -0.2237 -0.7196 -0.2085
  921MOL0     C24243   5.884  10.296   6.964 -0.0223  0.2108  0.5621
  921MOL0    Cl24244   5.998  10.423   7.017  0.0337  0.0990  0.1139
  921MOL0     C24245   5.226  10.390   7.552 -0.0597  1.0152  0.2467
  921MOL0     C24246   5.083  10.379   7.526  0.6304 -0.4503  0.1148
  921MOL0     O24247   4.797  10.326   7.541  0.5073 -0.4434 -0.2410
  921MOL0     C24248   4.545  10.369   7.420  0.0845  0.8500 -0.2277
  921MOL0     C24249   4.423  10.367   7.357  0.2797  0.6432 -0.5121
  921MOL0     N24250   3.977  10.648   7.395 -1.0435 -0.8967 -0.1386
  921MOL0     N24251   4.040  10.710   7.491  0.4712 -0.1927 -0.4529
  921MOL0     C24252   5.168  11.006   7.577  0.7445  0.1748  0.1035
  921MOL0     C24253   5.304  11.058   7.573 -0.2224  1.0276 -0.3438
  921MOL0     C24254   5.755  11.065   7.651 -0.0351  0.1635 -0.0072
  921MOL0     C24255   5.824  10.947   7.594  0.1527  1.1576  0.2170
  921MOL0     C24256   5.960  10.944   7.592 -0.7176 -0.1172 -0.7001
  921MOL0     C24257   6.031  11.058   7.613 -0.0990 -1.0889 -0.3599
  921MOL0     O24258   6.165  11.052   7.578 -0.3054 -0.4279  0.1733
  921MOL0     C24259   6.258  11.103   7.672 -0.2217 -0.5716  0.8276
  921MOL0     C24260   6.397  11.047   7.648 -0.0849 -0.0433 -0.5419
  921MOL0     C24261   6.389  10.896   7.666 -0.1085  0.2489 -0.6993
  921MOL0     C24262   6.531  10.834   7.686 -0.2084 -0.3524  0.3975
  921MOL0     C24263   6.626  10.841   7.579  0.1322 -0.3191  0.4735
  921MOL0     C24264   6.707  10.812   7.491 -0.6476  0.4256  0.8656
  921MOL0     C24265   5.969  11.172   7.671  0.8267 -0.4214 -0.0685
  921MOL0     C24266   5.830  11.173   7.685  0.4464 -0.1243 -0.2199
  921MOL0     C24267   5.764  11.305   7.725  0.3520  0.0544 -0.3543
  921MOL0     H24268   5.444  10.747   7.548 -0.4239 -0.6072  1.7687
  921MOL0     H24269   5.205  10.681   7.550 -5.0661  1.5845 -1.4784
  921MOL0     H24270   4.969  10.633   7.547  0.0885 -0.0625 -0.0835
  921MOL0     H24271   5.030  10.688   7.713  1.4655  1.1279 -0.6651
  921MOL0     H24272   4.809  10.827   7.685  1.2121  0.7636 -1.9745
  921MOL0     H24273   4.809  10.671   7.769  2.9394 -1.5220 -0.0824
  921MOL0     H24274   4.724  10.566   7.551  4.4888  0.6240  2.0978
  921MOL0     H24275   4.745  10.720   7.476  2.3811 -0.3137  0.9089
  921MOL0     H24276   4.513  10.620   7.565 -0.3050  0.9075 -2.7115
  921MOL0     H24277   4.568  10.700   7.721  2.4005 -2.7988  0.0785
  921MOL0     H24278   4.559  10.915   7.605  0.6266 -1.8724  0.5470
  921MOL0     H24279   4.547  10.836   7.444  1.9702 -1.8249  0.3383
  921MOL0     H24280   4.316  10.747   7.511 -1.4913  2.4435 -1.2274
  921MOL0     H24281   4.328  10.832   7.666  0.1251  0.8104 -0.1361
  921MOL0     H24282   4.326  10.932   7.375 -0.2025 -0.5205  0.2411
  921MOL0     H24283   4.327  11.044   7.516 -2.1930 -0.4495  3.8881
  921MOL0     H24284   4.106  10.937   7.605  2.7990  1.1798  0.9468
  921MOL0     H24285   4.090  11.024   7.444  0.1014 -0.9050 -0.9530
  921MOL0     H24286   4.093  10.895   7.221 -3.3977  2.4462  2.4430
  921MOL0     H24287   3.832  10.691   7.162  0.0183  0.4732 -0.4710
  921MOL0     H24288   3.987  10.703   7.062  0.5761  0.2870 -0.5510
  921MOL0     H24289   3.934  10.447   7.231  1.5212 -0.2540  0.2905
  921MOL0     H24290   3.873  10.460   7.076  0.5621 -0.9674  0.0274
  921MOL0     H24291   4.129  10.534   7.029 -0.6742 -0.4355 -0.3991
  921MOL0     H24292   4.088  10.364   7.032  2.2974  1.4615 -2.4986
  921MOL0     H24293   4.149  10.347   7.280 -2.5116 -0.6246 -0.3925
  921MOL0     H24294   4.200  10.522   7.258 -0.0179  1.1516 -1.8736
  921MOL0     H24295   4.540  10.319   7.038 -2.2418  0.9136 -0.7109
  921MOL0     H24296   4.745  10.333   7.145 -0.4297  1.3702 -0.3019
  921MOL0     H24297   5.103  10.447   7.196 -0.1119 -0.0168  0.4653
  921MOL0     H24298   5.339  10.434   7.243 -0.1769 -1.0346 -0.1272
  921MOL0     H24299   5.623  10.389   7.580 -0.5552  0.9961 -2.2047
  921MOL0     H24300   5.473  10.366   7.672  3.2326 -1.1797  3.1405
  921MOL0     H24301   5.580  10.137   7.632 -2.8229 -2.3249  1.2716
  921MOL0     H24302   5.427  10.160   7.569 -0.2667  2.2601  0.9078
  921MOL0     H24303   5.537  10.049   7.411  0.0932  0.3834  2.1902
  921MOL0     H24304   5.544  10.206   7.333  1.3583  0.8820 -0.0753
  921MOL0     H24305   5.770  10.081   7.512 -2.5366 -2.1701 -0.5812
  921MOL0     H24306   5.780  10.245   7.461  1.6726  0.0788 -0.2756
  921MOL0     H24307   5.738  10.032   7.260  0.4062  1.8138 -0.4498
  921MOL0     H24308   5.903  10.069   7.332  1.2792  0.8545  0.5902
  921MOL0     H24309   5.717  10.271   7.177  0.0435  0.8935 -3.5800
  921MOL0     H24310   5.868  10.311   7.233 -0.3189 -1.2014  1.8123
  921MOL0     H24311   5.820  10.096   7.027 -3.0019 -1.2032  3.9380
  921MOL0     H24312   5.979  10.147   7.070 -1.0763 -3.5919  1.7033
  921MOL0     H24313   5.918  10.248   6.871 -2.2761 -1.0918  0.3008
  921MOL0     H24314   5.783  10.338   6.957 -0.7058 -1.0375  2.2700
  921MOL0     H24315   5.261  10.375   7.653 -1.8587 -0.4638  0.6903
  921MOL0     H24316   5.022  10.366   7.615  1.4757  0.8879  0.9267
  921MOL0     H24317   4.544  10.385   7.527 -0.0617 -0.7637  0.0313
  921MOL0     H24318   4.336  10.386   7.419 -0.5392 -1.7902 -0.7913
  921MOL0     H24319   5.082  11.071   7.589  1.4469  1.3480 -0.9602
  921MOL0     H24320   5.318  11.165   7.570 -2.2753  1.3439 -0.0587
  921MOL0     H24321   5.779  10.856   7.556  1.4818  0.2559  0.7083
  921MOL0     H24322   6.017  10.854   7.569 -0.5496 -0.7095  1.6987
  921MOL0     H24323   6.224  11.090   7.775 -0.3340 -2.3972  0.5824
  921MOL0     H24324   6.255  11.212   7.660  0.7495 -0.7788 -2.3027
  921MOL0     H24325   6.461  11.084   7.729 -0.8627 -0.1909  0.1493
  921MOL0     H24326   6.439  11.075   7.551  0.7751 -0.0120 -0.1755
  921MOL0     H24327   6.336  10.840   7.587  1.9991 -2.0579 -0.5998
  921MOL0     H24328   6.325  10.875   7.752 -2.0713 -0.5972 -2.2597
  921MOL0     H24329   6.576  10.875   7.777  0.6261 -0.4189  0.0210
  921MOL0     H24330   6.523  10.725   7.695  2.8494 -0.5271  2.8027
  921MOL0     H24331   6.776  10.796   7.410  1.5118  0.6936  2.5330
  921MOL0     H24332   6.031  11.257   7.694 -0.3984  0.5602 -0.2436
  921MOL0     H24333   5.671  11.319   7.670 -0.1738 -0.8082  0.2923
  921MOL0     H24334   5.733  11.305   7.830 -1.5118 -1.1732 -0.8712
  921MOL0     H24335   5.834  11.387   7.706  0.3868 -0.1673 -1.2016
  922MOL0     O24336   1.229   0.310   9.575  1.0382  0.4336  0.7736
  922MOL0     C24337   1.241   0.431   9.569 -0.1793 -0.0972  1.2437
  922MOL0     O24338   1.356   0.501   9.607 -0.2081 -0.4751 -0.0668
  922MOL0     C24339   1.447   0.443   9.692 -1.0975  0.1532 -0.7178
  922MOL0     C24340   1.424   0.349   9.798  1.0132 -0.2955 -0.1989
  922MOL0     C24341   1.529   0.293   9.875 -0.4648 -0.7986  0.1911
  922MOL0     C24342   1.666   0.334   9.849  0.4452  0.1816 -1.3413
  922MOL0     O24343   1.771   0.273   9.918  0.2292 -0.2979  0.2649
  922MOL0     C24344   1.912   0.301   9.894  0.2530  0.5419  0.8082
  922MOL0     C24345   1.984   0.168   9.921  0.2470 -0.0499  0.3124
  922MOL0     C24346   2.137   0.185   9.881  0.1139  0.1555 -0.2861
  922MOL0     C24347   2.248   0.086   9.930  1.1488  0.8528 -0.4598
  922MOL0     C24348   2.245  -0.043   9.844 -0.7804  0.7775  0.1898
  922MOL0     C24349   2.323  -0.034   9.706 -0.0512  0.2488  1.1121
  922MOL0     C24350   2.482  -0.032   9.739 -0.4380 -0.0008  0.2389
  922MOL0     C24351   2.577  -0.052   9.623 -0.5217 -0.3396 -0.0881
  922MOL0     N24352   2.714  -0.070   9.679 -0.5327 -0.1945  0.1744
  922MOL0     C24353   2.798   0.036   9.699 -0.4188 -0.0805 -0.4966
  922MOL0     C24354   2.916  -0.017   9.729 -0.8386 -0.1118  0.0689
  922MOL0     C24355   3.045   0.057   9.765 -0.0727  0.0501 -0.1504
  922MOL0     C24356   3.087   0.153   9.642 -0.1045 -0.2947 -0.3529
  922MOL0     C24357   3.187   0.271   9.680  0.6542 -0.0134  0.4611
  922MOL0     C24358   3.310   0.217   9.749 -1.0135  0.1211 -0.1411
  922MOL0     O24359   3.407   0.325   9.764  0.1775 -0.9403  0.4878
  922MOL0     C24360   3.516   0.329   9.685 -0.3977  0.3886  0.0974
  922MOL0     C24361   3.630   0.387   9.742 -0.4185 -0.1570 -0.1068
  922MOL0     C24362   3.747   0.398   9.671 -1.1096 -0.5635 -0.9185
  922MOL0     C24363   3.758   0.362   9.532  0.2739  0.2634  0.5416
  922MOL0     C24364   3.886   0.378   9.465  0.1635  0.6147  0.9390
  922MOL0     O24365   3.871   0.368   9.324  1.2367  0.3715 -0.0863
  922MOL0     C24366   3.982   0.348   9.258  0.1176  0.5802  0.0110
  922MOL0     C24367   4.054   0.226   9.270  0.0215 -0.7608  0.2170
  922MOL0     C24368   4.163   0.197   9.186 -0.3563  0.3528 -1.5755
  922MOL0     C24369   4.216   0.305   9.109  0.0861 -0.3687 -0.2193
  922MOL0     O24370   4.331   0.304   9.037  0.1839 -0.5094  0.3164
  922MOL0     C24371   4.438   0.221   9.090 -0.6199  0.3182  0.3505
  922MOL0     C24372   4.561   0.248   9.004 -0.7779 -0.2634 -0.0450
  922MOL0     C24373   4.676   0.179   9.075  0.0540 -0.0790 -0.0280
  922MOL0     C24374   4.815   0.235   9.045 -0.0890 -0.0736  0.3306
  922MOL0     C24375   4.932   0.164   9.124  0.5326 -0.3534  0.1179
  922MOL0     C24376   5.077   0.222   9.104  0.0531  0.0295  0.0417
  922MOL0     C24377   5.189   0.131   9.152 -0.7892 -0.1603  0.1241
  922MOL0     C24378   5.322   0.191   9.120 -1.3181  0.1199 -0.3558
  922MOL0    Cl24379   5.466   0.109   9.206 -0.4343  0.5960  0.1666
  922MOL0     C24380   4.148   0.430   9.107 -0.4939  0.1944 -0.2698
  922MOL0     C24381   4.032   0.450   9.178  0.3123 -0.2257  0.6896
  922MOL0     O24382   3.987   0.377   9.525 -0.2211 -0.5218 -0.5313
  922MOL0     C24383   3.652   0.290   9.481  0.2810 -0.4120 -0.4449
  922MOL0     C24384   3.529   0.282   9.555 -0.0653  0.3791  0.5108
  922MOL0     N24385   2.895  -0.148   9.746  0.5146 -0.1867  0.4002
  922MOL0     N24386   2.775  -0.185   9.710 -0.0411 -0.3550  1.2745
  922MOL0     C24387   1.685   0.428   9.748  0.6588 -0.4584  0.4093
  922MOL0     C24388   1.579   0.488   9.674 -0.4478  0.5716  0.2116
  922MOL0     C24389   1.155   0.508   9.478  0.3494 -0.5267  0.4565
  922MOL0     C24390   1.211   0.626   9.416 -0.1630  0.8361  0.6733
  922MOL0     C24391   1.148   0.701   9.317  0.5642  0.0124  0.8711
  922MOL0     C24392   1.013   0.667   9.284  0.9110  0.2334  0.0731
  922MOL0     O24393   0.937   0.742   9.196  0.1922 -0.3783 -0.5883
  922MOL0     C24394   0.912   0.878   9.236  0.1179 -0.0900  0.6210
  922MOL0     C24395   0.767   0.917   9.214  0.0212  0.5898  0.5450
  922MOL0     C24396   0.736   0.915   9.063  0.7069  0.5276 -0.0120
  922MOL0     C24397   0.596   0.964   9.036  0.0661 -0.4374 -0.0726
  922MOL0     C24398   0.540   0.970   8.904  0.3711  0.2063  0.3806
  922MOL0     C24399   0.503   0.965   8.787  0.4524 -0.8670  0.1576
  922MOL0     C24400   0.955   0.554   9.335  0.3782 -0.1468 -0.0914
  922MOL0     C24401   1.022   0.479   9.437  0.3877 -0.4216 -0.2671
  922MOL0     C24402   0.946   0.369   9.503  0.0179 -0.0549  0.5430
  922MOL0     H24403   1.324   0.311   9.811  0.4110  0.3302 -2.5959
  922MOL0     H24404   1.515   0.234   9.965  0.4674  1.1082  1.6579
  922MOL0     H24405   1.952   0.339   9.800  0.7286  3.6772  2.1427
  922MOL0     H24406   1.945   0.384   9.958  1.8576  0.9663 -0.4884
  922MOL0     H24407   1.947   0.092   9.851  1.1150 -0.4076  0.2254
  922MOL0     H24408   1.981   0.129  10.023 -1.1106 -2.2456 -0.4893
  922MOL0     H24409   2.171   0.271   9.939  2.6227 -0.1638 -1.1383
  922MOL0     H24410   2.150   0.216   9.777  0.8233  0.6324 -0.0583
  922MOL0     H24411   2.347   0.132   9.927  0.0880  3.2864 -0.8055
  922MOL0     H24412   2.211   0.045  10.024 -0.0492 -2.7823 -2.2989
  922MOL0     H24413   2.288  -0.122   9.905 -3.2818 -0.5309  0.3829
  922MOL0     H24414   2.140  -0.058   9.818 -0.3541 -0.1518 -1.0971
  922MOL0     H24415   2.308  -0.117   9.638  1.1218 -0.8609  2.1575
  922MOL0     H24416   2.284   0.047   9.643 -1.2296 -1.1753 -0.0675
  922MOL0     H24417   2.496  -0.107   9.817 -2.7252  0.5203  1.2226
  922MOL0     H24418   2.508   0.064   9.784 -0.4783  0.4988 -0.7793
  922MOL0     H24419   2.552  -0.135   9.557  2.2226 -0.9798 -0.4440
  922MOL0     H24420   2.582   0.024   9.544 -0.5187 -1.5485 -1.2829
  922MOL0     H24421   2.767   0.140   9.702 -1.2375 -0.3053  3.4374
  922MOL0     H24422   3.023   0.113   9.857 -3.7257  3.1136 -2.6109
  922MOL0     H24423   3.119  -0.023   9.771 -0.8651 -0.8962 -2.3208
  922MOL0     H24424   3.135   0.099   9.560 -0.6089  1.4993 -1.9092
  922MOL0     H24425   2.997   0.202   9.603  0.9414  2.2470  0.1908
  922MOL0     H24426   3.124   0.337   9.741  0.9449  2.5205 -1.7511
  922MOL0     H24427   3.207   0.323   9.586 -1.0825 -1.2923 -0.6766
  922MOL0     H24428   3.342   0.128   9.694 -0.7540  1.0593 -1.5817
  922MOL0     H24429   3.268   0.188   9.845 -1.3142 -0.4563 -0.4413
  922MOL0     H24430   3.634   0.409   9.848  1.5039 -1.5217  0.1513
  922MOL0     H24431   3.834   0.440   9.721 -2.6124  0.7898  0.6998
  922MOL0     H24432   4.014   0.141   9.325  0.6603 -1.6159 -0.6072
  922MOL0     H24433   4.212   0.102   9.205 -1.6297  0.1875  1.5924
  922MOL0     H24434   4.459   0.259   9.191  2.6417 -1.3750  0.4417
  922MOL0     H24435   4.412   0.115   9.097  2.3939 -0.4885  0.6702
  922MOL0     H24436   4.548   0.212   8.902  0.5748 -1.7727  0.2576
  922MOL0     H24437   4.584   0.354   8.995 -1.9981 -0.1092 -1.6757
  922MOL0     H24438   4.664   0.180   9.183 -2.0662 -0.9122 -0.2203
  922MOL0     H24439   4.680   0.076   9.037 -0.9809  0.1226 -0.7106
  922MOL0     H24440   4.829   0.342   9.058 -0.4239 -0.0109  0.1831
  922MOL0     H24441   4.837   0.220   8.939 -0.9164 -1.9407  0.3691
  922MOL0     H24442   4.924   0.058   9.095 -1.4678  0.1673 -1.4251
  922MOL0     H24443   4.915   0.170   9.232  1.1501  3.5042  0.1144
  922MOL0     H24444   5.105   0.233   8.998 -1.3365  0.3791 -0.3143
  922MOL0     H24445   5.083   0.316   9.159 -1.9596 -0.6147  1.5166
  922MOL0     H24446   5.187   0.029   9.112  0.2144 -0.9931  2.0425
  922MOL0     H24447   5.189   0.122   9.261 -1.9778 -0.0611  0.1426
  922MOL0     H24448   5.351   0.178   9.015 -0.7489  0.5579 -0.2554
  922MOL0     H24449   5.322   0.297   9.144  0.6510  0.0060  0.3605
  922MOL0     H24450   4.186   0.509   9.043  0.4110 -0.7857 -0.9795
  922MOL0     H24451   3.985   0.547   9.173 -1.1194 -0.9611 -1.1844
  922MOL0     H24452   3.644   0.256   9.379 -0.5784  1.0525 -0.8929
  922MOL0     H24453   3.451   0.229   9.501  0.1941  1.1422 -0.6470
  922MOL0     H24454   1.788   0.454   9.728  0.6107 -1.2115 -0.9138
  922MOL0     H24455   1.599   0.551   9.588  3.4887  1.6177  1.6741
  922MOL0     H24456   1.311   0.661   9.442  0.3171 -1.5241  2.3969
  922MOL0     H24457   1.214   0.783   9.288  1.4075 -0.1858  2.1315
  922MOL0     H24458   0.992   0.936   9.189  0.7894 -2.4006 -1.2731
  922MOL0     H24459   0.927   0.889   9.344 -0.0663  1.2377  0.5326
  922MOL0     H24460   0.761   1.020   9.252  0.2249  0.1228  1.9272
  922MOL0     H24461   0.693   0.851   9.261 -0.3623  0.0884 -0.7330
  922MOL0     H24462   0.743   0.813   9.024 -1.6008  0.3910 -0.2378
  922MOL0     H24463   0.804   0.975   9.002 -1.1432  0.8560 -1.8823
  922MOL0     H24464   0.534   0.898   9.098  0.6919  0.3257  1.4253
  922MOL0     H24465   0.589   1.069   9.067  3.6144 -0.6286  1.9939
  922MOL0     H24466   0.463   0.964   8.687 -1.5338 -1.9894  0.9117
  922MOL0     H24467   0.854   0.544   9.297  0.9127  1.1832 -2.0136
  922MOL0     H24468   1.004   0.277   9.513  4.9698  2.5239 -1.1975
  922MOL0     H24469   0.913   0.401   9.602  1.5506 -1.8154  1.6861
  922MOL0     H24470   0.855   0.349   9.446 -0.4327 -1.8532  1.7903
  923MOL0     O24471   5.471  10.653  10.097 -0.6052 -0.0498  0.2649
  923MOL0     C24472   5.380  10.701  10.163 -0.1107  0.3068  0.0539
  923MOL0     O24473   5.385  10.822  10.234 -0.3748 -0.7281 -0.4023
  923MOL0     C24474   5.484  10.906  10.204 -0.2600 -0.3920  0.4146
  923MOL0     C24475   5.488  10.959  10.079  0.2071 -0.4766  0.5691
  923MOL0     C24476   5.589  11.058  10.045  1.2583  0.3872  0.1684
  923MOL0     C24477   5.690  11.091  10.131  1.0431  0.5057 -0.9341
  923MOL0     O24478   5.790  11.182  10.091  0.4674  0.4179 -0.1627
  923MOL0     C24479   5.736  11.311  10.064 -0.0403 -0.1584 -0.5323
  923MOL0     C24480   5.837  11.417  10.119  1.1189  0.2481 -0.4667
  923MOL0     C24481   5.971  11.409  10.035 -0.2043  0.1539  0.1308
  923MOL0     C24482   6.043  11.547  10.053 -0.1696 -0.1111 -0.6015
  923MOL0     C24483   6.176  11.527   9.982 -0.4178 -0.6092 -1.1007
  923MOL0     C24484   6.257  11.655   9.983  0.4998 -0.1578 -1.0949
  923MOL0     C24485   6.300  11.689  10.126  0.2021 -0.8389 -0.1805
  923MOL0     C24486   6.410  11.797  10.112 -0.3739  0.2661  1.5130
  923MOL0     N24487   6.545  11.751  10.057  0.0785 -0.3397  0.0742
  923MOL0     C24488   6.619  11.805   9.958  0.7486 -0.7478  0.6959
  923MOL0     C24489   6.722  11.717   9.951 -0.3970 -0.5648 -0.3012
  923MOL0     C24490   6.823  11.719   9.835  0.8315  0.7138  0.4966
  923MOL0     C24491   6.958  11.677   9.883  0.4233  0.1571 -0.0239
  923MOL0     C24492   7.056  11.659   9.769 -0.5317 -0.6425 -0.2154
  923MOL0     C24493   7.124  11.789   9.730 -0.1211  0.8693  0.7641
  923MOL0     O24494   7.215  11.767   9.627 -0.7338  0.3097  1.0934
  923MOL0     C24495   7.330  11.841   9.626 -0.1085 -0.8894 -0.1143
  923MOL0     C24496   7.342  11.967   9.685  1.2918  0.3434  0.3294
  923MOL0     C24497   7.467  12.026   9.682 -0.0606 -0.1811 -0.0485
  923MOL0     C24498   7.583  11.961   9.630 -0.2275 -0.1161  0.3226
  923MOL0     C24499   7.720  12.018   9.650  0.5231  0.0010 -0.3823
  923MOL0     O24500   7.725  12.133   9.717  0.2761 -0.1031 -0.1847
  923MOL0     C24501   7.842  12.192   9.748 -1.3420 -0.0815 -0.5615
  923MOL0     C24502   7.864  12.234   9.880 -0.3909  0.2243 -0.1283
  923MOL0     C24503   7.970  12.315   9.915 -0.7062  0.1254 -0.5204
  923MOL0     C24504   8.047  12.376   9.810 -0.0099  0.5461  0.2743
  923MOL0     O24505   8.163  12.458   9.835  0.6727 -0.0920 -0.1394
  923MOL0     C24506   8.180  12.536   9.961  0.3435 -0.4568  0.3673
  923MOL0     C24507   8.075  12.643   9.970  1.0416 -0.5837 -0.2274
  923MOL0     C24508   8.098  12.742  10.088  0.1617  0.6368  0.6599
  923MOL0     C24509   7.992  12.849  10.097  0.7757  0.2581 -0.5137
  923MOL0     C24510   8.025  12.947  10.205  0.6977 -0.6192  0.2369
  923MOL0     C24511   8.140  13.049  10.176  0.1164  0.5708  0.4682
  923MOL0     C24512   8.134  13.134  10.301  0.6472  0.7532 -0.0015
  923MOL0     C24513   8.241  13.239  10.299 -0.2940 -1.2033 -0.0398
  923MOL0    Cl24514   8.220  13.332  10.447  0.9966  0.1500  0.2901
  923MOL0     C24515   8.030  12.324   9.681  0.8524  0.1422 -0.9417
  923MOL0     C24516   7.930  12.237   9.646 -0.1794  0.5602  0.0781
  923MOL0     O24517   7.809  11.961   9.612 -0.4389  0.3514 -0.6328
  923MOL0     C24518   7.569  11.834   9.561  0.8659  0.3349  0.0408
  923MOL0     C24519   7.440  11.784   9.560  0.5030  0.2883 -0.1362
  923MOL0     N24520   6.715  11.627  10.053 -0.4371  0.0882 -0.2071
  923MOL0     N24521   6.608  11.647  10.114  0.0791 -0.1424  0.1466
  923MOL0     C24522   5.693  11.038  10.263 -0.4462  0.1364  0.5483
  923MOL0     C24523   5.588  10.950  10.293 -0.2320 -0.4573 -0.3543
  923MOL0     C24524   5.261  10.614  10.175 -0.6578 -0.8495  1.2187
  923MOL0     C24525   5.148  10.674  10.222  0.5253 -0.6771  0.4664
  923MOL0     C24526   5.028  10.601  10.233  1.1000 -0.5861  1.2220
  923MOL0     C24527   5.016  10.465  10.206 -0.8400  0.8773 -0.0052
  923MOL0     O24528   4.898  10.395  10.215 -0.2987 -0.3212  0.6265
  923MOL0     C24529   4.790  10.449  10.285  0.0424 -0.5108 -0.5254
  923MOL0     C24530   4.673  10.354  10.304  0.0285  0.2687 -0.1052
  923MOL0     C24531   4.591  10.337  10.182 -1.0801 -0.2983  0.3088
  923MOL0     C24532   4.486  10.222  10.204 -0.2387 -0.4902  0.3761
  923MOL0     C24533   4.419  10.203  10.070 -0.3922 -0.0436 -0.4545
  923MOL0     C24534   4.353  10.190   9.969 -0.6041  0.0935  0.6964
  923MOL0     C24535   5.129  10.403  10.160 -0.7080  0.7670 -0.5045
  923MOL0     C24536   5.250  10.475  10.144 -0.1474  0.7955  0.5020
  923MOL0     C24537   5.375  10.393  10.115 -0.1556  1.0572  0.1311
  923MOL0     H24538   5.408  10.939  10.009  0.5956  2.1089 -0.7452
  923MOL0     H24539   5.591  11.103   9.946  2.5924  1.9266  0.8384
  923MOL0     H24540   5.715  11.327   9.958  0.9205  1.9855 -0.4484
  923MOL0     H24541   5.648  11.332  10.126 -0.6608 -2.1756 -0.6574
  923MOL0     H24542   5.865  11.397  10.223 -0.8068  0.7980  0.1976
  923MOL0     H24543   5.782  11.511  10.107 -0.5246 -0.1037  2.9485
  923MOL0     H24544   5.938  11.397   9.931  2.5347 -2.2640 -0.5847
  923MOL0     H24545   6.031  11.324  10.068 -0.6797  0.5033  2.0092
  923MOL0     H24546   5.988  11.637  10.027 -0.1659  0.6245  1.6708
  923MOL0     H24547   6.067  11.557  10.160  1.0602 -0.7997 -0.7894
  923MOL0     H24548   6.236  11.447  10.028  0.0313 -0.1107 -0.8124
  923MOL0     H24549   6.178  11.520   9.872 -1.7642  2.2224 -1.3864
  923MOL0     H24550   6.339  11.659   9.911  0.1614  0.9492 -1.4375
  923MOL0     H24551   6.194  11.737   9.946 -1.6096 -0.1334  2.1655
  923MOL0     H24552   6.341  11.594  10.162  0.0178 -0.8690 -0.0499
  923MOL0     H24553   6.220  11.724  10.193  0.1984 -0.0874 -0.5637
  923MOL0     H24554   6.377  11.876  10.045  1.7127  1.5436  1.9159
  923MOL0     H24555   6.432  11.847  10.207  3.1385  0.2388  0.8412
  923MOL0     H24556   6.600  11.891   9.895 -2.1642  0.5587  3.0727
  923MOL0     H24557   6.784  11.648   9.761  0.0702 -0.9450  2.4146
  923MOL0     H24558   6.827  11.818   9.790 -0.1656  0.0892 -1.0674
  923MOL0     H24559   6.988  11.737   9.969  0.0410 -2.2685  1.9234
  923MOL0     H24560   6.944  11.579   9.929  1.1741  0.4763  0.9298
  923MOL0     H24561   6.993  11.624   9.687 -1.9490 -1.6164  1.2280
  923MOL0     H24562   7.128  11.582   9.796  1.3785  0.9590 -0.4887
  923MOL0     H24563   7.177  11.812   9.822  0.9321  0.8462  0.1809
  923MOL0     H24564   7.051  11.863   9.696  1.4603  2.3074  0.3945
  923MOL0     H24565   7.260  12.015   9.738  0.9393 -1.6206  1.6897
  923MOL0     H24566   7.477  12.123   9.730  1.8076  0.0032 -0.7356
  923MOL0     H24567   7.792  12.212   9.959  0.1590  0.4888  0.4562
  923MOL0     H24568   7.986  12.339  10.020  0.6139  0.1862 -0.7223
  923MOL0     H24569   8.182  12.476  10.052  0.4508  0.0736  0.7219
  923MOL0     H24570   8.272  12.595   9.954  1.2778 -1.9583 -0.9987
  923MOL0     H24571   8.058  12.698   9.877 -0.7123 -0.5788  0.0616
  923MOL0     H24572   7.978  12.595   9.987 -0.9777  2.7818 -1.1488
  923MOL0     H24573   8.095  12.686  10.182 -2.0177  0.9806  0.8490
  923MOL0     H24574   8.195  12.790  10.073  1.2327 -2.0042 -1.4902
  923MOL0     H24575   7.900  12.793  10.117  0.0109  0.9174 -1.9645
  923MOL0     H24576   7.987  12.902  10.001  2.6122  3.6296  1.0630
  923MOL0     H24577   8.049  12.899  10.300 -0.3139 -0.4955  0.5769
  923MOL0     H24578   7.936  13.006  10.232  0.1558 -1.6653  0.8258
  923MOL0     H24579   8.235  12.994  10.169 -1.6384 -2.5490 -1.0386
  923MOL0     H24580   8.117  13.109  10.088 -2.8617  0.9181  1.3867
  923MOL0     H24581   8.159  13.080  10.393 -1.7221  1.2637  0.9873
  923MOL0     H24582   8.032  13.168  10.316  0.3564  0.0811 -0.4031
  923MOL0     H24583   8.345  13.204  10.306 -0.7252 -2.5544 -0.1920
  923MOL0     H24584   8.228  13.302  10.211 -0.0227  0.5806  1.1464
  923MOL0     H24585   8.085  12.362   9.595  0.3847 -1.9819 -2.2640
  923MOL0     H24586   7.906  12.214   9.543  0.2265 -0.3023  0.1599
  923MOL0     H24587   7.654  11.787   9.513  0.9999 -0.3076  0.8849
  923MOL0     H24588   7.431  11.688   9.511 -1.1324  0.4828 -0.2866
  923MOL0     H24589   5.763  11.064  10.341  0.4526  0.9273 -0.4834
  923MOL0     H24590   5.572  10.923  10.397 -2.1215 -0.8130 -0.6981
  923MOL0     H24591   5.150  10.780  10.244 -2.1598 -0.7232  1.1929
  923MOL0     H24592   4.947  10.654  10.283 -1.6953 -1.9780 -1.4319
  923MOL0     H24593   4.743  10.532  10.232 -1.8466 -2.4804 -2.1258
  923MOL0     H24594   4.833  10.478  10.382  1.9268 -3.2762 -0.4069
  923MOL0     H24595   4.607  10.387  10.386  1.2125  0.2437  0.8831
  923MOL0     H24596   4.718  10.255  10.318 -1.2238 -0.1042  1.6299
  923MOL0     H24597   4.664  10.311  10.105 -0.8506 -1.7363  0.9930
  923MOL0     H24598   4.536  10.428  10.156  1.1939  1.4853  1.3764
  923MOL0     H24599   4.524  10.126  10.238  0.4016 -0.4114 -0.0858
  923MOL0     H24600   4.411  10.251  10.278  0.6060  0.3706  0.9146
  923MOL0     H24601   4.298  10.168   9.880 -0.7419 -1.1647  1.0847
  923MOL0     H24602   5.125  10.297  10.135 -2.0342 -0.2306  3.2047
  923MOL0     H24603   5.437  10.406  10.204  0.1444 -3.0303  0.7031
  923MOL0     H24604   5.348  10.287  10.105 -1.9573  1.5391 -0.5762
  923MOL0     H24605   5.435  10.428  10.031  0.4504 -0.7888 -0.2609
  924MOL0     O24606   0.424   9.608  10.207 -0.3032  0.4508  0.7323
  924MOL0     C24607   0.318   9.625  10.265 -0.0369 -0.9542  0.1463
  924MOL0     O24608   0.309   9.674  10.397 -0.0834 -0.0486  0.1079
  924MOL0     C24609   0.417   9.719  10.469 -0.1747  0.3573 -0.5787
  924MOL0     C24610   0.417   9.673  10.606  0.4110  0.3342 -0.1648
  924MOL0     C24611   0.527   9.697  10.682 -0.2256 -0.0080 -0.1490
  924MOL0     C24612   0.637   9.767  10.632 -0.1307  0.8788  0.5028
  924MOL0     O24613   0.751   9.789  10.709  0.7644 -0.7335 -0.1363
  924MOL0     C24614   0.725   9.841  10.841  0.3389 -0.2042 -0.6528
  924MOL0     C24615   0.852   9.841  10.927  0.1966 -0.5048  0.6872
  924MOL0     C24616   0.957   9.945  10.878  0.1467 -0.2054  0.1157
  924MOL0     C24617   1.072   9.944  10.976  0.2653 -0.4162 -0.4353
  924MOL0     C24618   1.200   9.999  10.921  0.3865 -0.2130  0.3077
  924MOL0     C24619   1.306   9.976  11.031  0.6487 -0.2425  0.6883
  924MOL0     C24620   1.449  10.042  10.983  0.7504  0.1140  0.9136
  924MOL0     C24621   1.561   9.987  11.070  0.3947  0.0034  0.2736
  924MOL0     N24622   1.692  10.005  11.004 -0.0527 -0.1062  0.0247
  924MOL0     C24623   1.768  10.120  11.008 -0.7406 -0.5971  0.2872
  924MOL0     C24624   1.895  10.091  10.978 -1.1135  1.3717 -0.6913
  924MOL0     C24625   2.010  10.183  11.012  0.3608 -0.2701  0.3639
  924MOL0     C24626   2.144  10.138  10.963 -0.7330 -0.1052  0.3658
  924MOL0     C24627   2.254  10.238  11.012 -0.6211 -0.2885  0.0656
  924MOL0     C24628   2.393  10.190  10.984  0.0432 -0.2097 -0.2363
  924MOL0     O24629   2.478  10.305  11.008 -0.3783  0.7117  0.6793
  924MOL0     C24630   2.618  10.283  11.005  0.6649  0.2425  0.4008
  924MOL0     C24631   2.681  10.193  10.923  0.8873  0.2825  0.1436
  924MOL0     C24632   2.820  10.185  10.920  0.4095 -0.0204  0.8629
  924MOL0     C24633   2.893  10.264  11.014  0.4040  0.0890 -0.4321
  924MOL0     C24634   3.039  10.254  11.018 -0.3253  0.5381 -1.2082
  924MOL0     O24635   3.094  10.175  10.923  0.1945  1.1117  0.4982
  924MOL0     C24636   3.231  10.187  10.914 -0.4234 -0.3856  0.0489
  924MOL0     C24637   3.314  10.082  10.933  0.0614 -0.5592  0.3392
  924MOL0     C24638   3.452  10.100  10.895  0.5023  0.3709  0.0197
  924MOL0     C24639   3.500  10.218  10.836  0.3562 -0.4089 -0.5521
  924MOL0     O24640   3.632  10.227  10.796  0.1466 -0.2913 -0.3780
  924MOL0     C24641   3.677  10.340  10.730  1.1260  0.5426  0.1956
  924MOL0     C24642   3.822  10.333  10.684  0.7966 -0.3444 -0.5270
  924MOL0     C24643   3.851  10.262  10.553 -0.4837 -0.6040  0.5373
  924MOL0     C24644   4.007  10.251  10.517 -0.3434  0.3336 -0.0241
  924MOL0     C24645   4.031  10.118  10.432  0.0903  0.1126 -0.7046
  924MOL0     C24646   4.165  10.070  10.414 -1.2374  0.3445  0.0358
  924MOL0     C24647   4.150   9.933  10.343  0.5643 -0.1193  0.5177
  924MOL0     C24648   4.238   9.822  10.399  0.2683 -0.3218 -0.3136
  924MOL0    Cl24649   4.409   9.874  10.407  0.3142 -0.3385  0.4527
  924MOL0     C24650   3.414  10.323  10.823 -0.9168 -0.4766  0.2308
  924MOL0     C24651   3.276  10.306  10.849 -0.6830  0.1939  0.7071
  924MOL0     O24652   3.101  10.313  11.105 -0.7131  0.0966 -0.7037
  924MOL0     C24653   2.825  10.357  11.100 -0.8178  0.1615  0.1137
  924MOL0     C24654   2.687  10.364  11.095 -0.0634  0.2103 -0.3320
  924MOL0     N24655   1.909   9.955  10.964  0.1343  0.0463  0.8924
  924MOL0     N24656   1.790   9.913  10.991 -0.0404 -0.4499 -0.2110
  924MOL0     C24657   0.642   9.816  10.506 -0.2902  0.1876  0.4342
  924MOL0     C24658   0.533   9.788  10.418 -0.6707  0.5126 -0.3226
  924MOL0     C24659   0.199   9.594  10.186 -0.0682  0.4184  0.3468
  924MOL0     C24660   0.081   9.593  10.255  0.0040  0.6850 -0.2906
  924MOL0     C24661  -0.046   9.548  10.196 -0.4679 -0.1473  0.0119
  924MOL0     C24662  -0.045   9.497  10.070  0.8488  0.0508 -0.2027
  924MOL0     O24663  -0.175   9.463  10.025 -0.3875 -0.6335  0.2589
  924MOL0     C24664  -0.195   9.438   9.880 -0.6036 -0.0414  0.0327
  924MOL0     C24665  -0.347   9.439   9.851 -0.2585  0.2794 -0.1890
  924MOL0     C24666  -0.417   9.323   9.933 -0.0175 -0.1723  0.3230
  924MOL0     C24667  -0.576   9.324   9.931  0.3357 -0.5286  0.2282
  924MOL0     C24668  -0.633   9.282   9.802 -0.0032  0.3955  0.5332
  924MOL0     C24669  -0.684   9.254   9.696 -1.1898  0.5457  0.4162
  924MOL0     C24670   0.071   9.499   9.989  0.1242 -0.2377 -1.3177
  924MOL0     C24671   0.193   9.550  10.045  0.1042  0.4749  0.2793
  924MOL0     C24672   0.316   9.556   9.953 -1.2541  0.2270 -0.3397
  924MOL0     H24673   0.338   9.611  10.647  3.3199 -3.9826 -0.3653
  924MOL0     H24674   0.523   9.661  10.784  1.4069  1.7387  0.5879
  924MOL0     H24675   0.685   9.943  10.842 -3.4778 -1.5515 -1.8564
  924MOL0     H24676   0.655   9.780  10.898  0.2277  0.4425 -0.0809
  924MOL0     H24677   0.889   9.738  10.925  0.0852 -0.5252 -0.7118
  924MOL0     H24678   0.832   9.858  11.034 -0.2400 -0.5971  0.6229
  924MOL0     H24679   0.916  10.044  10.857  0.6459 -0.3019 -1.3888
  924MOL0     H24680   0.987   9.917  10.777 -0.3671  0.6922 -0.3046
  924MOL0     H24681   1.043   9.998  11.067  0.0264 -0.6395 -0.3774
  924MOL0     H24682   1.090   9.841  11.008 -1.0171 -0.1094  1.4399
  924MOL0     H24683   1.224   9.936  10.835 -1.4506 -3.2357  1.8240
  924MOL0     H24684   1.194  10.104  10.889 -1.4291 -0.5702 -0.6457
  924MOL0     H24685   1.273  10.025  11.123 -2.9733 -1.2775  0.0807
  924MOL0     H24686   1.319   9.868  11.044 -1.5549 -0.4399  1.7177
  924MOL0     H24687   1.449  10.151  10.995 -4.9650  1.0357 -3.1779
  924MOL0     H24688   1.462  10.021  10.876 -0.2404 -1.8390  1.1355
  924MOL0     H24689   1.563  10.050  11.160  0.3843  1.6376 -0.8307
  924MOL0     H24690   1.533   9.883  11.089  0.8739 -0.0505  0.6873
  924MOL0     H24691   1.734  10.214  11.049  1.3787  0.8466 -1.0474
  924MOL0     H24692   1.991  10.280  10.965 -0.7075 -0.6681 -0.0547
  924MOL0     H24693   2.026  10.203  11.119  2.8283 -1.6264  0.3190
  924MOL0     H24694   2.157  10.036  11.001 -2.2816 -1.5853 -2.7199
  924MOL0     H24695   2.138  10.119  10.855 -2.4164 -3.3873  0.9060
  924MOL0     H24696   2.255  10.251  11.120 -0.8280 -1.5732  0.2424
  924MOL0     H24697   2.241  10.329  10.952 -0.1710  0.9693  1.8015
  924MOL0     H24698   2.403  10.156  10.880 -0.0220 -2.7196  0.5096
  924MOL0     H24699   2.420  10.098  11.036  0.8173  1.4742  2.5307
  924MOL0     H24700   2.619  10.149  10.846  1.7347  1.4290 -1.2373
  924MOL0     H24701   2.874  10.121  10.851 -0.4222 -0.8485  0.9640
  924MOL0     H24702   3.271   9.993  10.979 -2.8300 -0.4966 -1.9373
  924MOL0     H24703   3.511  10.010  10.909 -3.5553 -2.6803 -0.7499
  924MOL0     H24704   3.603  10.362  10.652  0.0877  1.1653  1.3346
  924MOL0     H24705   3.662  10.433  10.784 -0.2613  0.9992 -0.9309
  924MOL0     H24706   3.854  10.436  10.668 -0.1128 -0.0929 -0.8070
  924MOL0     H24707   3.890  10.297  10.762  1.7037  0.4172 -0.9439
  924MOL0     H24708   3.802  10.165  10.561 -2.7169  0.1180 -2.3272
  924MOL0     H24709   3.800  10.300  10.463  1.2409 -1.2667 -0.7814
  924MOL0     H24710   4.060  10.236  10.611 -0.7483  0.4074  0.2187
  924MOL0     H24711   4.055  10.326  10.453 -0.5920 -1.2934 -2.2406
  924MOL0     H24712   3.980  10.139  10.338  0.5373 -0.0403 -0.9838
  924MOL0     H24713   3.966  10.046  10.482 -1.3210  0.3665 -2.0868
  924MOL0     H24714   4.225  10.144  10.360  0.4191 -1.5844 -0.9049
  924MOL0     H24715   4.214  10.051  10.510  0.9964  0.8518 -0.9397
  924MOL0     H24716   4.178   9.955  10.240 -0.1116  1.1109  0.5781
  924MOL0     H24717   4.045   9.901  10.342 -0.5042  3.0006 -1.2097
  924MOL0     H24718   4.192   9.794  10.494 -3.8868  2.1908 -1.3245
  924MOL0     H24719   4.235   9.733  10.336 -2.0035 -0.5298  0.0153
  924MOL0     H24720   3.442  10.421  10.786 -0.0424 -0.0398  1.9432
  924MOL0     H24721   3.202  10.384  10.836  0.1850  1.1732  1.4220
  924MOL0     H24722   2.874  10.415  11.178  0.2393  0.7427 -0.9508
  924MOL0     H24723   2.634  10.423  11.168 -2.0882 -1.1450 -0.6201
  924MOL0     H24724   0.740   9.859  10.486 -0.2550 -0.3896 -0.6680
  924MOL0     H24725   0.545   9.817  10.315  1.5009  3.7661  0.7157
  924MOL0     H24726   0.081   9.623  10.359  0.6625 -2.1917  0.6308
  924MOL0     H24727  -0.134   9.538  10.259  0.4821 -1.5362  1.1949
  924MOL0     H24728  -0.139   9.346   9.860 -0.2271 -0.1019  1.2892
  924MOL0     H24729  -0.155   9.519   9.818  0.8207  0.5518  1.6411
  924MOL0     H24730  -0.358   9.421   9.744 -0.1394  2.1088 -0.5320
  924MOL0     H24731  -0.388   9.536   9.878  0.1255  0.6341 -0.8748
  924MOL0     H24732  -0.362   9.320  10.028 -0.8673 -2.2738  0.8091
  924MOL0     H24733  -0.375   9.226   9.907  1.5447  0.3539  0.8097
  924MOL0     H24734  -0.610   9.256  10.010 -1.4853  0.4502  0.3302
  924MOL0     H24735  -0.615   9.421   9.963 -0.2282 -1.7891  3.8266
  924MOL0     H24736  -0.720   9.216   9.602  1.3361 -1.2834  0.0782
  924MOL0     H24737   0.061   9.464   9.887  1.0079 -3.5007 -0.4071
  924MOL0     H24738   0.407   9.606   9.988 -0.2906 -0.4438 -1.8129
  924MOL0     H24739   0.329   9.449   9.935 -1.4804  0.2365 -0.5660
  924MOL0     H24740   0.283   9.606   9.861 -2.2124  0.8318  0.3136
  925MOL0     O24741   0.661   9.808   5.808 -0.6088  0.2281  1.2786
  925MOL0     C24742   0.657   9.800   5.925 -0.1027 -0.3268 -0.6774
  925MOL0     O24743   0.770   9.819   6.003  0.4796  0.2316  0.4726
  925MOL0     C24744   0.882   9.886   5.948  0.5328  0.0032  0.1422
  925MOL0     C24745   0.871  10.013   5.891 -0.7784 -0.4335  0.5439
  925MOL0     C24746   0.983  10.073   5.828  0.4529 -0.7950  0.5782
  925MOL0     C24747   1.102  10.004   5.812 -0.8948  0.0495  0.5060
  925MOL0     O24748   1.204  10.064   5.741  0.5620  0.5291 -0.0800
  925MOL0     C24749   1.327   9.989   5.709  0.2667 -0.9323 -0.0791
  925MOL0     C24750   1.425  10.050   5.599  0.5301  0.4887 -0.3621
  925MOL0     C24751   1.468  10.200   5.620 -0.3250 -0.0681  0.7749
  925MOL0     C24752   1.538  10.253   5.496  0.2396 -0.0861  0.5545
  925MOL0     C24753   1.568  10.403   5.520  0.1316  0.5786 -0.0964
  925MOL0     C24754   1.655  10.478   5.415  1.0950 -1.1826  0.6210
  925MOL0     C24755   1.603  10.442   5.275  0.6139 -0.3037  0.1705
  925MOL0     C24756   1.665  10.525   5.163  0.1955  0.9212  0.1359
  925MOL0     N24757   1.637  10.479   5.037  0.2992  1.3839  0.1479
  925MOL0     C24758   1.721  10.386   4.980 -1.2519  0.2026  0.4874
  925MOL0     C24759   1.667  10.360   4.859 -0.1280  0.1232  0.4144
  925MOL0     C24760   1.698  10.266   4.750 -0.5555  0.0945  0.5155
  925MOL0     C24761   1.841  10.288   4.695 -0.1908  1.0917 -0.4646
  925MOL0     C24762   1.885  10.178   4.592  1.1681 -0.2198  0.4422
  925MOL0     C24763   2.037  10.172   4.576 -0.1811  0.4462  0.1523
  925MOL0     O24764   2.085  10.093   4.466 -0.1280  0.3682  0.5198
  925MOL0     C24765   2.224  10.075   4.438 -0.9215  0.2021  0.2719
  925MOL0     C24766   2.331  10.144   4.504 -0.4828 -0.6970  0.5961
  925MOL0     C24767   2.465  10.141   4.469  0.2762  0.7852  0.0978
  925MOL0     C24768   2.501  10.052   4.369 -0.5669  0.7129  0.1590
  925MOL0     C24769   2.651  10.034   4.345 -0.0799  0.0164 -0.4278
  925MOL0     O24770   2.750  10.084   4.421  0.2641 -0.4700 -0.7378
  925MOL0     C24771   2.874  10.084   4.357  0.0205 -0.2228  0.2354
  925MOL0     C24772   2.962   9.987   4.383 -0.5334 -0.6856 -0.3534
  925MOL0     C24773   3.097   9.993   4.337 -0.4490 -1.2715  0.1799
  925MOL0     C24774   3.137  10.092   4.247 -0.2807  0.6506 -1.0976
  925MOL0     O24775   3.264  10.104   4.196  0.3002  0.0170  1.0195
  925MOL0     C24776   3.373  10.020   4.249  0.4440 -0.8104  0.6154
  925MOL0     C24777   3.498  10.040   4.163 -1.1990  0.3201 -0.0031
  925MOL0     C24778   3.626   9.987   4.221 -0.4505  0.9076 -0.1303
  925MOL0     C24779   3.720   9.968   4.097 -0.0381 -0.6290  0.2894
  925MOL0     C24780   3.862   9.930   4.138 -0.3510  0.6273 -0.0738
  925MOL0     C24781   3.954   9.935   4.016 -0.1213  0.0252 -0.5787
  925MOL0     C24782   4.089   9.858   4.050  1.4944 -0.2222 -0.9542
  925MOL0     C24783   4.185   9.945   4.125 -0.4849  0.0573  0.6431
  925MOL0    Cl24784   4.138   9.970   4.295  0.5590  0.1855 -0.2074
  925MOL0     C24785   3.044  10.194   4.217  0.1265 -0.9502 -0.2766
  925MOL0     C24786   2.914  10.189   4.274  0.5637 -0.2218 -0.6483
  925MOL0     O24787   2.666   9.981   4.235  0.4372 -0.2710  0.0317
  925MOL0     C24788   2.406   9.962   4.319  0.5132 -0.0982  0.4089
  925MOL0     C24789   2.267   9.979   4.348 -0.2450 -0.0932 -0.0230
  925MOL0     N24790   1.547  10.431   4.859  0.4901  0.7552  0.6402
  925MOL0     N24791   1.521  10.497   4.966 -0.4072  0.6002 -0.1774
  925MOL0     C24792   1.108   9.882   5.889  0.7972 -0.6738  0.0643
  925MOL0     C24793   1.000   9.824   5.949  0.2271 -0.6520 -0.1715
  925MOL0     C24794   0.529   9.784   6.005  0.7370 -0.1459  0.6452
  925MOL0     C24795   0.522   9.843   6.133  0.2931  0.1464  0.1211
  925MOL0     C24796   0.413   9.814   6.218 -0.4288 -0.5305  0.0933
  925MOL0     C24797   0.307   9.732   6.187 -0.1361  0.8980 -0.5980
  925MOL0     O24798   0.222   9.699   6.289  0.4680 -0.3345  0.5429
  925MOL0     C24799   0.097   9.619   6.251  0.2464 -0.5169  0.3400
  925MOL0     C24800  -0.002   9.591   6.366  0.6583  0.3928 -0.1966
  925MOL0     C24801  -0.128   9.508   6.313  0.2851  0.4181  0.5528
  925MOL0     C24802  -0.224   9.474   6.418  0.1140 -0.3908  0.3506
  925MOL0     C24803  -0.362   9.462   6.370 -0.1140  0.1183 -0.2496
  925MOL0     C24804  -0.472   9.444   6.321 -0.2506  0.0980  1.0357
  925MOL0     C24805   0.306   9.690   6.051  1.0706 -0.3966 -0.2604
  925MOL0     C24806   0.416   9.703   5.960 -0.7612  0.0568 -0.9724
  925MOL0     C24807   0.421   9.615   5.834  0.3785 -0.3004 -0.3623
  925MOL0     H24808   0.773  10.058   5.906 -1.0058 -0.5885 -0.4109
  925MOL0     H24809   0.973  10.177   5.799 -1.5555 -1.2655 -0.6199
  925MOL0     H24810   1.382   9.956   5.799 -1.0209 -4.2666 -0.3601
  925MOL0     H24811   1.288   9.894   5.672  3.1103 -1.4297 -2.1558
  925MOL0     H24812   1.372  10.025   5.507  2.0229  1.6887 -1.5990
  925MOL0     H24813   1.517   9.992   5.598 -0.3276 -1.1242  2.1713
  925MOL0     H24814   1.525  10.219   5.711  3.0065 -4.0688 -0.1814
  925MOL0     H24815   1.377  10.254   5.650 -1.1278 -0.5690 -0.6664
  925MOL0     H24816   1.633  10.202   5.480  1.6534  2.3265  0.6761
  925MOL0     H24817   1.470  10.239   5.411  0.3743 -0.3751  0.4941
  925MOL0     H24818   1.475  10.460   5.529 -0.8199 -0.7061 -1.4042
  925MOL0     H24819   1.616  10.410   5.618 -0.7789  0.2862  0.3765
  925MOL0     H24820   1.649  10.584   5.442  1.9781 -0.8265 -0.5060
  925MOL0     H24821   1.760  10.447   5.415  0.5003 -3.4069  2.1763
  925MOL0     H24822   1.497  10.465   5.265  0.2990 -0.8301  1.8742
  925MOL0     H24823   1.613  10.335   5.255  1.6347 -0.1295 -0.3204
  925MOL0     H24824   1.630  10.628   5.175  0.8181  0.8684  3.0722
  925MOL0     H24825   1.773  10.528   5.180  0.2043 -0.9348  0.6036
  925MOL0     H24826   1.814  10.344   5.017  0.1765  2.4796 -0.3550
  925MOL0     H24827   1.668  10.166   4.785 -2.0806  0.6641  0.8848
  925MOL0     H24828   1.627  10.280   4.669 -0.3493 -0.3801  0.2491
  925MOL0     H24829   1.855  10.386   4.647 -1.0536  0.9603 -1.0071
  925MOL0     H24830   1.919  10.284   4.772 -0.0164  3.8208 -0.3999
  925MOL0     H24831   1.839  10.203   4.496  2.3519 -0.6090 -0.2567
  925MOL0     H24832   1.849  10.088   4.645  2.1142  0.3897  2.2030
  925MOL0     H24833   2.088  10.137   4.666  0.3852 -1.9898 -1.0196
  925MOL0     H24834   2.058  10.277   4.556  1.6231  0.1508  0.3558
  925MOL0     H24835   2.295  10.214   4.578 -4.4536  1.1124 -2.6191
  925MOL0     H24836   2.532  10.200   4.530  0.6289 -1.1931  1.7584
  925MOL0     H24837   2.937   9.905   4.449 -3.8584  1.2514  1.0205
  925MOL0     H24838   3.158   9.914   4.379 -0.9256 -1.4410  0.5602
  925MOL0     H24839   3.383  10.041   4.356 -4.0072 -3.7866  1.8717
  925MOL0     H24840   3.350   9.914   4.251 -2.1106 -0.3450 -0.5251
  925MOL0     H24841   3.484   9.997   4.063  0.7871  0.5877 -0.4499
  925MOL0     H24842   3.505  10.149   4.164 -2.7788  0.4974 -1.8177
  925MOL0     H24843   3.677  10.060   4.285 -0.4476 -0.8528  1.9856
  925MOL0     H24844   3.609   9.893   4.275  0.8939  1.3680  1.1826
  925MOL0     H24845   3.728  10.069   4.055 -0.1744 -0.4047  0.7881
  925MOL0     H24846   3.677   9.892   4.032 -0.3432  0.6077 -1.0000
  925MOL0     H24847   3.853   9.823   4.158  0.8876 -0.0294 -2.6048
  925MOL0     H24848   3.887   9.991   4.226 -2.1549  2.6476 -0.8753
  925MOL0     H24849   3.911   9.881   3.932 -2.3903  0.4548  0.2295
  925MOL0     H24850   3.972  10.038   3.983  1.6924 -0.0936 -0.1039
  925MOL0     H24851   4.133   9.831   3.953  3.3769  0.0400 -0.2196
  925MOL0     H24852   4.062   9.774   4.115 -3.5971  2.8615  1.5321
  925MOL0     H24853   4.287   9.907   4.116  0.1154  1.9372 -1.6881
  925MOL0     H24854   4.193  10.043   4.077  1.0952 -0.3152  0.0781
  925MOL0     H24855   3.082  10.280   4.162  3.4003 -1.4858  0.8954
  925MOL0     H24856   2.850  10.275   4.257  0.9510  0.8296  2.5736
  925MOL0     H24857   2.435   9.879   4.255  0.9678 -0.2914  0.8633
  925MOL0     H24858   2.189   9.926   4.295 -0.7476  0.1023  0.5037
  925MOL0     H24859   1.205   9.834   5.892  1.1788  0.0408  3.4824
  925MOL0     H24860   1.010   9.727   5.997  0.7496  0.2204  1.5499
  925MOL0     H24861   0.602   9.912   6.161  2.2089 -1.6062 -0.7826
  925MOL0     H24862   0.409   9.852   6.320 -0.9721 -0.2580 -0.0272
  925MOL0     H24863   0.119   9.521   6.208  1.2049 -1.1158  2.0954
  925MOL0     H24864   0.043   9.673   6.172 -3.5086 -2.4689  1.3163
  925MOL0     H24865  -0.028   9.682   6.420 -0.0272 -0.0111  0.1799
  925MOL0     H24866   0.064   9.549   6.443 -2.4636 -2.0367  1.4186
  925MOL0     H24867  -0.108   9.409   6.272  4.2894  0.4077  2.1548
  925MOL0     H24868  -0.163   9.567   6.228  1.5241 -1.1236 -1.0989
  925MOL0     H24869  -0.194   9.378   6.463 -1.8335 -0.8186  0.7957
  925MOL0     H24870  -0.217   9.552   6.495 -0.2067  1.9495 -1.8716
  925MOL0     H24871  -0.560   9.430   6.260  0.0182 -1.2139  0.9076
  925MOL0     H24872   0.224   9.630   6.013 -1.7128  2.4082  0.8585
  925MOL0     H24873   0.373   9.521   5.860  0.3745 -0.6438 -1.5318
  925MOL0     H24874   0.376   9.668   5.749  1.6734  3.7078  1.2313
  925MOL0     H24875   0.525   9.588   5.816  0.7643 -0.4990  1.9530
  926MOL0     O24876   1.675   4.810   6.282  0.5642  0.9957  0.0215
  926MOL0     C24877   1.640   4.704   6.234 -0.8054  0.4621 -0.1162
  926MOL0     O24878   1.725   4.616   6.168  0.6743  0.3363 -0.2715
  926MOL0     C24879   1.832   4.657   6.093 -0.4408  0.3223  0.0910
  926MOL0     C24880   1.920   4.560   6.049  0.1321 -0.3575  0.0745
  926MOL0     C24881   2.028   4.590   5.971 -0.6525 -0.0161  0.0184
  926MOL0     C24882   2.043   4.719   5.919  0.1057  0.0185 -0.2906
  926MOL0     O24883   2.142   4.744   5.827  0.5292  0.7615 -0.1689
  926MOL0     C24884   2.274   4.761   5.880  0.7073 -0.4650 -0.0403
  926MOL0     C24885   2.349   4.635   5.906  0.0750  1.1010 -0.8535
  926MOL0     C24886   2.501   4.667   5.909 -0.0609 -0.3617  0.4265
  926MOL0     C24887   2.569   4.533   5.929 -0.6456  0.2276 -0.2710
  926MOL0     C24888   2.723   4.538   5.948 -0.2806 -0.4508  0.1594
  926MOL0     C24889   2.780   4.395   5.946  0.1178 -0.5442  0.8653
  926MOL0     C24890   2.934   4.402   5.937  0.2307 -0.0369 -0.5781
  926MOL0     C24891   2.999   4.279   5.869  0.5309  0.7091 -0.7394
  926MOL0     N24892   3.144   4.305   5.856 -0.2556  0.0373 -0.4378
  926MOL0     C24893   3.222   4.358   5.954 -0.6790  0.1527  0.3541
  926MOL0     C24894   3.351   4.346   5.902 -0.2082 -0.4891 -0.1276
  926MOL0     C24895   3.472   4.372   5.991  0.1355  0.7889 -0.0669
  926MOL0     C24896   3.602   4.332   5.922  0.0021  0.3757 -0.4709
  926MOL0     C24897   3.729   4.392   5.991  0.5236 -0.8294  0.0756
  926MOL0     C24898   3.845   4.397   5.894 -0.0342 -0.3343 -0.0790
  926MOL0     O24899   3.952   4.459   5.962 -0.6788 -0.4438 -0.2724
  926MOL0     C24900   4.078   4.440   5.920 -0.5306 -0.5681  0.4940
  926MOL0     C24901   4.117   4.388   5.794 -0.0103 -0.0101  0.5989
  926MOL0     C24902   4.245   4.349   5.765 -0.8668 -0.2239 -0.6634
  926MOL0     C24903   4.346   4.374   5.862 -0.8856  0.0213  0.5284
  926MOL0     C24904   4.485   4.349   5.833 -0.2796  0.4316 -0.0181
  926MOL0     O24905   4.573   4.447   5.872  0.1199  0.1110 -0.0713
  926MOL0     C24906   4.704   4.421   5.856 -0.4857 -0.3920 -1.2426
  926MOL0     C24907   4.769   4.399   5.730 -0.8264 -0.0571 -0.3416
  926MOL0     C24908   4.903   4.394   5.723 -0.8686 -0.8669 -0.1568
  926MOL0     C24909   4.994   4.414   5.826 -0.2919  0.5986  0.6409
  926MOL0     O24910   5.127   4.414   5.797 -0.9317  0.7777  0.4021
  926MOL0     C24911   5.226   4.432   5.913 -0.1239 -0.6644  0.1120
  926MOL0     C24912   5.371   4.417   5.862  0.1836 -0.9865  1.2184
  926MOL0     C24913   5.462   4.399   5.979  0.3398  0.6494  0.0285
  926MOL0     C24914   5.505   4.522   6.054 -0.1475  0.8916  0.5156
  926MOL0     C24915   5.628   4.493   6.150  0.3142 -0.0754  0.1088
  926MOL0     C24916   5.699   4.614   6.213  0.0958 -0.1092  0.3306
  926MOL0     C24917   5.738   4.722   6.116 -0.3075  0.3123 -0.2680
  926MOL0     C24918   5.883   4.782   6.133  0.3984 -0.7959 -0.1234
  926MOL0    Cl24919   5.902   4.893   6.273  0.0866  0.4799  0.6781
  926MOL0     C24920   4.934   4.441   5.950 -0.4754  0.6179 -0.6724
  926MOL0     C24921   4.789   4.442   5.968  0.7637 -0.7520  0.3156
  926MOL0     O24922   4.507   4.253   5.762 -0.0264  0.3450 -0.2778
  926MOL0     C24923   4.309   4.426   5.981  1.1862  0.1320 -0.2029
  926MOL0     C24924   4.179   4.460   6.012  0.8506 -0.4481  1.0778
  926MOL0     N24925   3.340   4.310   5.772 -0.1191 -0.0065 -0.8428
  926MOL0     N24926   3.208   4.288   5.740 -0.5291 -0.1618 -0.5359
  926MOL0     C24927   1.961   4.825   5.954  0.6563 -0.1895 -0.2654
  926MOL0     C24928   1.850   4.792   6.043 -0.7437 -0.4284  0.0218
  926MOL0     C24929   1.495   4.666   6.246  0.6425  0.5139  0.2264
  926MOL0     C24930   1.397   4.751   6.302  0.4104  0.1344 -0.0979
  926MOL0     C24931   1.261   4.719   6.315 -0.6959  0.1609 -0.6873
  926MOL0     C24932   1.217   4.592   6.270 -1.3443 -0.8661 -0.7832
  926MOL0     O24933   1.079   4.563   6.280 -0.4567  0.3690 -0.3896
  926MOL0     C24934   0.986   4.663   6.248  0.2679 -0.0545  0.9253
  926MOL0     C24935   0.895   4.687   6.365 -0.3379 -0.6655 -1.1067
  926MOL0     C24936   0.747   4.709   6.336  0.5531 -0.4462  0.6883
  926MOL0     C24937   0.657   4.755   6.449 -0.5874  0.4427 -0.8485
  926MOL0     C24938   0.721   4.835   6.559 -0.2719  0.7803  0.3906
  926MOL0     C24939   0.774   4.901   6.644  0.5270 -0.3728  0.1235
  926MOL0     C24940   1.307   4.507   6.210  0.9101 -0.1652  0.1436
  926MOL0     C24941   1.445   4.534   6.204 -0.8224 -0.0683  0.5692
  926MOL0     C24942   1.535   4.425   6.144  0.8279  0.4663 -0.3356
  926MOL0     H24943   1.901   4.462   6.093  2.4922 -0.2821  1.4252
  926MOL0     H24944   2.099   4.509   5.959 -1.5824 -1.4499  3.0323
  926MOL0     H24945   2.324   4.828   5.810 -0.2361  1.4197  0.9824
  926MOL0     H24946   2.263   4.817   5.974  0.5308  3.4691 -2.1879
  926MOL0     H24947   2.331   4.556   5.832 -0.7703  2.6739 -2.4025
  926MOL0     H24948   2.326   4.590   6.003  3.3851  1.1139  0.0420
  926MOL0     H24949   2.530   4.737   5.988 -0.5324  0.7353 -0.3444
  926MOL0     H24950   2.545   4.710   5.819 -0.0117  1.7876  1.4108
  926MOL0     H24951   2.526   4.491   6.021 -1.4804 -0.1553 -0.8199
  926MOL0     H24952   2.542   4.462   5.850  1.7495 -2.6743  1.2739
  926MOL0     H24953   2.773   4.600   5.873  0.9530  0.1920  1.4660
  926MOL0     H24954   2.749   4.591   6.040  1.7072  1.2240 -1.2939
  926MOL0     H24955   2.748   4.333   6.031 -1.1549  1.4747  1.9307
  926MOL0     H24956   2.738   4.342   5.860 -0.6556 -0.2539  1.0567
  926MOL0     H24957   2.977   4.394   6.037 -2.6277  0.9443  0.8104
  926MOL0     H24958   2.976   4.496   5.899  2.3227 -2.1668 -4.1817
  926MOL0     H24959   2.986   4.193   5.934  0.3647  0.2220 -1.4035
  926MOL0     H24960   2.945   4.259   5.776 -1.5659  0.0550  0.5495
  926MOL0     H24961   3.198   4.377   6.058  2.4547 -2.7351  1.8101
  926MOL0     H24962   3.475   4.477   6.021  0.7541  0.1624  2.2513
  926MOL0     H24963   3.464   4.305   6.076  1.1520 -0.0299 -0.5973
  926MOL0     H24964   3.602   4.223   5.912 -2.7952  0.0763  1.6630
  926MOL0     H24965   3.599   4.373   5.821 -0.2098  3.8857  0.8214
  926MOL0     H24966   3.754   4.343   6.085  1.7170  0.9488  0.7352
  926MOL0     H24967   3.707   4.494   6.022  0.4406 -0.9920  0.5580
  926MOL0     H24968   3.815   4.457   5.807 -1.6730 -0.1361  0.5865
  926MOL0     H24969   3.864   4.292   5.869  0.9232 -0.4492  1.0775
  926MOL0     H24970   4.047   4.363   5.715  0.7445  2.3811 -0.9351
  926MOL0     H24971   4.262   4.298   5.671  0.3180  1.2222 -1.2970
  926MOL0     H24972   4.709   4.390   5.641  1.0777 -4.2415 -1.4752
  926MOL0     H24973   4.946   4.365   5.627 -0.0613  1.5027 -0.5611
  926MOL0     H24974   5.233   4.534   5.953  1.2639  1.1622 -4.2001
  926MOL0     H24975   5.202   4.361   5.993 -2.2733 -0.1361 -0.0040
  926MOL0     H24976   5.373   4.330   5.794  1.1061  0.5104 -0.7858
  926MOL0     H24977   5.400   4.504   5.802 -0.3618 -1.1679  0.6750
  926MOL0     H24978   5.417   4.337   6.058  2.1935  0.3685  0.9206
  926MOL0     H24979   5.543   4.338   5.938 -3.1635 -3.5729 -1.3860
  926MOL0     H24980   5.428   4.572   6.113  0.7751 -0.0602  2.6692
  926MOL0     H24981   5.548   4.589   5.979 -1.4579 -0.1608 -1.2427
  926MOL0     H24982   5.693   4.427   6.093 -1.7335 -0.9201 -1.3436
  926MOL0     H24983   5.587   4.433   6.232  1.2867 -2.6853 -1.2375
  926MOL0     H24984   5.643   4.652   6.299  3.6484  1.5032  2.1584
  926MOL0     H24985   5.792   4.580   6.258  0.3941 -3.5276 -2.4823
  926MOL0     H24986   5.677   4.812   6.130  0.5982  1.0718 -1.0265
  926MOL0     H24987   5.715   4.691   6.013 -2.2629 -0.5411  0.3858
  926MOL0     H24988   5.954   4.699   6.134  0.0832 -1.0689 -0.2550
  926MOL0     H24989   5.892   4.845   6.043 -2.3295  1.5688  1.1017
  926MOL0     H24990   4.976   4.462   6.048 -2.3062 -4.1512  1.4324
  926MOL0     H24991   4.735   4.471   6.057  0.6918 -4.3185  1.5719
  926MOL0     H24992   4.388   4.441   6.054  0.9807  2.1973 -0.3486
  926MOL0     H24993   4.140   4.501   6.105  0.1510  0.8511  0.2534
  926MOL0     H24994   1.967   4.927   5.917 -2.3812 -0.0394 -0.5964
  926MOL0     H24995   1.788   4.876   6.072 -0.5614 -0.2749 -0.0332
  926MOL0     H24996   1.428   4.853   6.324  0.1571  0.2445 -0.2325
  926MOL0     H24997   1.189   4.779   6.369 -1.7892  1.8404 -3.7733
  926MOL0     H24998   0.914   4.620   6.177  1.0089 -0.6496  0.5105
  926MOL0     H24999   1.025   4.757   6.207  0.7429 -0.3494  0.6831
  926MOL0     H25000   0.935   4.781   6.404  3.1481 -1.8315 -1.4637
  926MOL0     H25001   0.904   4.601   6.433  0.1271  0.1181 -0.1502
  926MOL0     H25002   0.711   4.613   6.298  3.6199 -1.5246  0.2056
  926MOL0     H25003   0.739   4.791   6.264 -2.7981 -0.0252  1.3446
  926MOL0     H25004   0.580   4.815   6.400 -2.0651 -0.9915 -0.3836
  926MOL0     H25005   0.608   4.666   6.491  2.2198 -0.0731  1.6838
  926MOL0     H25006   0.815   4.957   6.726 -0.9562  2.2237 -0.8041
  926MOL0     H25007   1.284   4.417   6.154  2.6578  1.3843 -3.3645
  926MOL0     H25008   1.625   4.410   6.205  0.3426  0.0115  0.2858
  926MOL0     H25009   1.486   4.328   6.152  0.1867  0.9008  1.4579
  926MOL0     H25010   1.558   4.430   6.037  1.7081 -0.5856 -0.2162
  927MOL0     O25011   1.915   1.068   6.595  0.5276 -0.1742 -0.3372
  927MOL0     C25012   1.971   1.139   6.513  0.7543 -0.0201 -0.3726
  927MOL0     O25013   2.052   1.246   6.542  0.3433 -0.2398 -0.7299
  927MOL0     C25014   2.106   1.268   6.666  0.4694  1.1948 -0.1666
  927MOL0     C25015   2.142   1.393   6.700  0.2644  0.2978  0.8589
  927MOL0     C25016   2.187   1.420   6.828 -0.2506 -0.1312  0.0526
  927MOL0     C25017   2.225   1.319   6.918  1.0883  1.1257 -0.6745
  927MOL0     O25018   2.294   1.331   7.041  0.3165  0.0008 -0.2575
  927MOL0     C25019   2.368   1.457   7.072  1.0140 -0.5915  0.8939
  927MOL0     C25020   2.437   1.434   7.200  1.1854 -0.1090  0.4374
  927MOL0     C25021   2.526   1.308   7.223 -0.0229  0.2555  0.2137
  927MOL0     C25022   2.670   1.353   7.254 -0.5445  0.3839  1.0004
  927MOL0     C25023   2.769   1.241   7.264 -0.4757 -0.5070 -0.2043
  927MOL0     C25024   2.749   1.142   7.389 -0.7554 -0.5071  0.1843
  927MOL0     C25025   2.815   1.011   7.365 -0.5268  0.4079 -0.6870
  927MOL0     C25026   2.965   1.011   7.391  0.0037  0.7499 -0.3048
  927MOL0     N25027   3.051   1.046   7.278  0.5794 -0.3450  0.5715
  927MOL0     C25028   3.119   0.958   7.198 -0.3620 -0.2885  0.9317
  927MOL0     C25029   3.202   1.036   7.116  0.5432 -0.3903 -0.7779
  927MOL0     C25030   3.303   0.990   7.022  0.1853  0.5502 -0.0072
  927MOL0     C25031   3.412   0.935   7.103  0.6700  0.1226  0.4884
  927MOL0     C25032   3.537   0.897   7.016  0.8013 -0.0681  0.6596
  927MOL0     C25033   3.646   0.840   7.112 -0.3938 -0.0419  0.4934
  927MOL0     O25034   3.683   0.938   7.210 -0.0460  0.0226  0.1007
  927MOL0     C25035   3.807   0.914   7.265  0.3708  0.5615 -0.1236
  927MOL0     C25036   3.881   0.799   7.267 -0.7396  0.4101 -0.6299
  927MOL0     C25037   4.010   0.799   7.317 -0.5285 -0.6218  0.2920
  927MOL0     C25038   4.062   0.908   7.395  0.8840  0.3855 -0.0890
  927MOL0     C25039   4.199   0.903   7.448 -0.4819  0.3099  0.1855
  927MOL0     O25040   4.271   0.793   7.426 -0.0861  1.3372 -0.1036
  927MOL0     C25041   4.406   0.793   7.481  0.0292  0.4504  0.8842
  927MOL0     C25042   4.509   0.794   7.389  0.1965  0.5010  0.1092
  927MOL0     C25043   4.644   0.794   7.424 -0.2341  0.7452  0.2450
  927MOL0     C25044   4.678   0.758   7.557  0.2824 -0.3489 -1.0530
  927MOL0     O25045   4.809   0.752   7.598 -0.1845 -0.7619 -0.2271
  927MOL0     C25046   4.838   0.632   7.666  0.6437  0.3173  0.5037
  927MOL0     C25047   4.991   0.608   7.667 -0.0522  0.3051  0.2719
  927MOL0     C25048   5.030   0.482   7.741  0.3675 -0.1260 -0.0783
  927MOL0     C25049   5.170   0.473   7.781 -0.9933 -0.3171  0.0174
  927MOL0     C25050   5.202   0.374   7.891  0.3685 -0.0333 -0.7323
  927MOL0     C25051   5.229   0.235   7.842 -0.4357 -0.4109  0.3581
  927MOL0     C25052   5.305   0.147   7.933  0.1237  0.9378 -0.0290
  927MOL0     C25053   5.334   0.010   7.867 -0.5270  0.5122  0.2656
  927MOL0    Cl25054   5.173  -0.070   7.840 -0.0645 -0.0220  0.1431
  927MOL0     C25055   4.569   0.750   7.655 -0.2521  0.2903  0.4951
  927MOL0     C25056   4.434   0.759   7.616 -0.4675  0.0346 -0.4424
  927MOL0     O25057   4.232   0.989   7.531  0.0493 -0.0992 -0.0985
  927MOL0     C25058   3.979   1.023   7.394 -0.7234 -0.3486 -0.4556
  927MOL0     C25059   3.861   1.025   7.314 -0.0338  0.2812 -0.5004
  927MOL0     N25060   3.195   1.170   7.173  0.2229  1.3610  0.1274
  927MOL0     N25061   3.110   1.166   7.267 -0.2086  0.3911 -0.3119
  927MOL0     C25062   2.190   1.193   6.874 -0.9869 -0.1519 -1.1032
  927MOL0     C25063   2.127   1.164   6.758  0.5300  0.4202 -0.0950
  927MOL0     C25064   1.938   1.119   6.370  0.1436  0.5178  0.4623
  927MOL0     C25065   2.041   1.178   6.280 -0.0188  0.2943  0.1876
  927MOL0     C25066   2.025   1.185   6.145 -0.4843  0.1276 -0.1449
  927MOL0     C25067   1.908   1.139   6.093  0.5451 -0.0463  0.1308
  927MOL0     O25068   1.903   1.143   5.958  0.1502 -0.4035 -0.1355
  927MOL0     C25069   1.807   1.071   5.869  0.2158 -0.1573  0.6235
  927MOL0     C25070   1.683   1.150   5.835  0.6454  0.9126  0.7260
  927MOL0     C25071   1.565   1.053   5.815  0.2511  0.4366 -0.1509
  927MOL0     C25072   1.436   1.123   5.847  0.5494  0.2385 -0.4061
  927MOL0     C25073   1.396   1.101   5.988  0.5843 -0.0448 -0.0188
  927MOL0     C25074   1.371   1.065   6.104  0.1023 -0.4584  0.5692
  927MOL0     C25075   1.805   1.075   6.176 -0.3992 -0.0683  0.1689
  927MOL0     C25076   1.825   1.059   6.313 -0.0608 -0.4468  0.0954
  927MOL0     C25077   1.704   1.023   6.394 -1.0726  0.4300 -0.0998
  927MOL0     H25078   2.142   1.471   6.625 -1.8555 -0.1167  0.3645
  927MOL0     H25079   2.214   1.518   6.864 -1.5648  0.0554  0.6028
  927MOL0     H25080   2.445   1.475   6.997  1.3387  1.1198  1.5891
  927MOL0     H25081   2.298   1.541   7.075 -0.5324 -1.6954 -1.6016
  927MOL0     H25082   2.353   1.434   7.270  0.1372  0.0599 -0.7750
  927MOL0     H25083   2.488   1.526   7.230  0.2159 -0.6166  4.2219
  927MOL0     H25084   2.519   1.257   7.127 -1.9093 -0.0613  0.4791
  927MOL0     H25085   2.473   1.251   7.301 -2.3840  0.9419 -0.7942
  927MOL0     H25086   2.706   1.408   7.166  0.0305 -4.2821 -2.0490
  927MOL0     H25087   2.672   1.417   7.343 -0.0796 -1.4002  2.3185
  927MOL0     H25088   2.764   1.189   7.167  0.7675 -0.0882 -0.5176
  927MOL0     H25089   2.865   1.294   7.264 -0.8395  0.1668 -0.4731
  927MOL0     H25090   2.780   1.191   7.482  1.1031 -0.9609 -0.1522
  927MOL0     H25091   2.641   1.135   7.402 -1.5048  0.4261 -3.9720
  927MOL0     H25092   2.804   0.979   7.261  2.8197  0.9654 -1.3156
  927MOL0     H25093   2.762   0.940   7.430 -0.8498 -0.5399 -1.9533
  927MOL0     H25094   2.996   1.068   7.479  0.1772 -0.6868  0.5989
  927MOL0     H25095   2.991   0.905   7.402  0.7872  0.7387 -1.9575
  927MOL0     H25096   3.119   0.850   7.191  1.9448 -0.2519 -0.8533
  927MOL0     H25097   3.263   0.916   6.953  0.0512  1.1180 -0.5491
  927MOL0     H25098   3.350   1.073   6.967  1.6181 -0.9754 -1.1955
  927MOL0     H25099   3.440   1.017   7.169 -1.9188  0.2568  1.5209
  927MOL0     H25100   3.393   0.839   7.152  3.8251 -1.9051 -1.8217
  927MOL0     H25101   3.583   0.989   6.979 -0.1903  0.7603  1.4186
  927MOL0     H25102   3.510   0.826   6.938  0.2216  1.0622 -0.1919
  927MOL0     H25103   3.726   0.818   7.041  1.0730  0.5096  1.9289
  927MOL0     H25104   3.608   0.746   7.153 -1.5373  0.7162  1.2444
  927MOL0     H25105   3.847   0.712   7.212 -1.4118  0.7749 -0.7946
  927MOL0     H25106   4.072   0.713   7.294 -2.5966 -1.7445 -1.5217
  927MOL0     H25107   4.485   0.817   7.286 -2.1883  0.1737  0.5239
  927MOL0     H25108   4.716   0.803   7.343 -0.0398  0.6743  0.4105
  927MOL0     H25109   4.819   0.640   7.773  1.3618 -0.7841  0.7271
  927MOL0     H25110   4.784   0.547   7.624  4.2934 -1.5096 -0.9419
  927MOL0     H25111   5.016   0.614   7.561  4.1912  3.7675  1.1694
  927MOL0     H25112   5.037   0.700   7.706 -1.9116  1.1626  0.5477
  927MOL0     H25113   4.973   0.463   7.833 -0.4095  0.1000 -0.5030
  927MOL0     H25114   5.018   0.395   7.676  3.0400 -1.4601  1.0484
  927MOL0     H25115   5.193   0.571   7.824  1.0287 -0.8578  0.2638
  927MOL0     H25116   5.241   0.468   7.697  1.6091 -1.1393  2.1397
  927MOL0     H25117   5.127   0.367   7.970  0.1645 -1.3729 -1.0216
  927MOL0     H25118   5.288   0.411   7.947 -1.8557  1.7027  1.7667
  927MOL0     H25119   5.135   0.190   7.810 -0.2683 -0.5438  0.0425
  927MOL0     H25120   5.299   0.251   7.760 -1.6591  1.7984 -0.3284
  927MOL0     H25121   5.258   0.125   8.029  1.0106  0.8539  0.3933
  927MOL0     H25122   5.400   0.194   7.959 -0.1067  0.1987  2.4356
  927MOL0     H25123   5.388   0.029   7.774 -0.5874 -0.5777 -0.0089
  927MOL0     H25124   5.400  -0.064   7.915 -1.7157 -0.3487  0.6241
  927MOL0     H25125   4.587   0.741   7.762  2.1793  0.0869  0.1215
  927MOL0     H25126   4.363   0.755   7.697  0.4462 -0.9493  0.3492
  927MOL0     H25127   4.009   1.118   7.438 -1.0284 -1.3004  1.9264
  927MOL0     H25128   3.803   1.116   7.301  1.1533  0.9959 -0.9798
  927MOL0     H25129   2.213   1.102   6.929 -0.3997  0.0452 -1.0174
  927MOL0     H25130   2.108   1.061   6.730 -0.5553 -0.1940  2.5765
  927MOL0     H25131   2.123   1.232   6.326  1.5045 -0.4364 -1.5499
  927MOL0     H25132   2.105   1.226   6.084 -0.3048 -1.1276 -0.7975
  927MOL0     H25133   1.798   0.970   5.911  1.4227  0.1760  1.7607
  927MOL0     H25134   1.857   1.052   5.774  1.7632  0.6555  1.2289
  927MOL0     H25135   1.704   1.194   5.737 -0.0689 -0.8589 -0.2571
  927MOL0     H25136   1.658   1.224   5.911 -2.1115  0.5822  0.2344
  927MOL0     H25137   1.574   0.964   5.877 -2.5359  1.3566  1.7718
  927MOL0     H25138   1.564   1.029   5.708 -0.0172 -1.7521  0.3093
  927MOL0     H25139   1.441   1.231   5.832  3.0982  0.0833 -1.1317
  927MOL0     H25140   1.360   1.078   5.781  0.5788 -0.0291 -0.2585
  927MOL0     H25141   1.356   1.025   6.202  1.2916  0.7959  1.3122
  927MOL0     H25142   1.714   1.039   6.127  0.0106 -0.1079 -0.5768
  927MOL0     H25143   1.643   1.114   6.395 -1.2385  0.3296 -0.7553
  927MOL0     H25144   1.644   0.945   6.346  0.5618 -1.3713  0.6413
  927MOL0     H25145   1.719   0.986   6.496 -1.3988  0.8575  0.1054
  928MOL0     O25146   9.153   3.162   2.761 -0.9073 -0.6050  0.0907
  928MOL0     C25147   9.077   3.095   2.838  0.3137 -0.2857 -0.1142
  928MOL0     O25148   9.081   3.099   2.975  0.6023 -0.2567 -0.1408
  928MOL0     C25149   9.200   3.142   3.031 -0.4859 -0.6039 -0.4901
  928MOL0     C25150   9.217   3.276   3.064  0.0851 -0.3491  0.4783
  928MOL0     C25151   9.341   3.331   3.121  0.0460 -0.5379  0.2555
  928MOL0     C25152   9.450   3.243   3.137  0.8179 -1.0528 -0.5782
  928MOL0     O25153   9.572   3.288   3.174  0.3003 -0.6222 -0.3238
  928MOL0     C25154   9.616   3.416   3.121 -0.1455  0.3239 -0.3986
  928MOL0     C25155   9.759   3.392   3.077  0.0388  0.6863 -1.6019
  928MOL0     C25156   9.816   3.515   3.028  0.5706 -0.8101  0.4204
  928MOL0     C25157   9.966   3.496   2.994  0.4428  0.3852  0.1029
  928MOL0     C25158  10.024   3.621   2.926  0.3035  0.5008 -0.1579
  928MOL0     C25159  10.157   3.663   2.982  0.0543 -0.3205  0.6228
  928MOL0     C25160  10.274   3.566   2.966  1.4242  0.3576 -0.7931
  928MOL0     C25161  10.402   3.639   3.007  0.1473 -0.4982 -0.3809
  928MOL0     N25162  10.524   3.565   2.977 -0.5503  0.3156 -0.0108
  928MOL0     C25163  10.596   3.584   2.861  0.0172 -0.8725  0.5949
  928MOL0     C25164  10.708   3.516   2.866 -0.4816  0.2601 -0.0100
  928MOL0     C25165  10.802   3.502   2.749 -0.8229  0.2438 -0.2103
  928MOL0     C25166  10.896   3.618   2.754  0.6935  1.1138  0.1153
  928MOL0     C25167  11.002   3.594   2.639  0.6252  0.2738 -0.1532
  928MOL0     C25168  11.094   3.717   2.641 -1.0374  0.3649 -0.3017
  928MOL0     O25169  11.168   3.718   2.524  0.1740 -0.0081  0.0598
  928MOL0     C25170  11.290   3.784   2.529  0.6126 -0.6480  0.5459
  928MOL0     C25171  11.338   3.875   2.620  0.9932  0.3711 -0.0021
  928MOL0     C25172  11.461   3.931   2.611  0.3917  0.6282  0.3671
  928MOL0     C25173  11.542   3.895   2.508 -0.7949 -0.7685 -0.4974
  928MOL0     C25174  11.681   3.954   2.489 -0.5663 -0.9146 -0.6289
  928MOL0     O25175  11.771   3.873   2.427 -1.1831 -0.3875  0.3470
  928MOL0     C25176  11.907   3.917   2.414 -1.6943  0.7432 -0.0637
  928MOL0     C25177  11.939   4.045   2.357  0.0017 -0.2566 -0.0699
  928MOL0     C25178  12.070   4.072   2.301  0.7968  0.3306 -0.3527
  928MOL0     C25179  12.165   3.976   2.300  0.2336  0.1782 -0.3840
  928MOL0     O25180  12.289   3.987   2.251 -0.5389 -0.6552  0.7905
  928MOL0     C25181  12.339   4.115   2.199  0.6609 -0.1858  0.6200
  928MOL0     C25182  12.483   4.090   2.140 -0.7309 -0.1079  0.9750
  928MOL0     C25183  12.551   4.226   2.147  0.8260  0.0292 -0.1467
  928MOL0     C25184  12.682   4.234   2.065 -0.1871 -0.1035 -0.2467
  928MOL0     C25185  12.754   4.364   2.085  0.0872  0.1411 -0.4047
  928MOL0     C25186  12.890   4.366   2.019 -0.4676 -0.0974 -0.2569
  928MOL0     C25187  13.005   4.321   2.117 -0.4783  0.8111 -0.2942
  928MOL0     C25188  13.070   4.193   2.066  0.1012 -0.8993 -0.0028
  928MOL0    Cl25189  13.217   4.151   2.156  0.2229  0.1394 -0.2998
  928MOL0     C25190  12.137   3.854   2.358 -0.5149 -0.1194  0.6763
  928MOL0     C25191  12.012   3.822   2.418  0.0941  0.0111  0.8001
  928MOL0     O25192  11.699   4.069   2.534 -0.2089 -0.9274  0.1411
  928MOL0     C25193  11.500   3.811   2.408  0.3434  0.3019  0.3066
  928MOL0     C25194  11.368   3.757   2.415 -0.5938  0.3429 -0.0263
  928MOL0     N25195  10.707   3.458   2.993 -0.1619  0.1651  0.2413
  928MOL0     N25196  10.602   3.494   3.066  0.4037  1.1638  0.4603
  928MOL0     C25197   9.434   3.113   3.107  0.2379 -0.2243  0.2554
  928MOL0     C25198   9.317   3.060   3.048 -0.3084  0.9311  0.3583
  928MOL0     C25199   8.985   3.002   2.773 -0.1022  1.3069  0.3497
  928MOL0     C25200   8.886   2.929   2.850 -0.5993 -0.8026  0.2446
  928MOL0     C25201   8.802   2.833   2.797  0.8347  0.0904  0.1897
  928MOL0     C25202   8.806   2.804   2.659 -1.0750 -0.3190 -0.4389
  928MOL0     O25203   8.739   2.708   2.589 -0.3521  0.5754 -0.2964
  928MOL0     C25204   8.651   2.625   2.664  0.2622  0.1935 -0.5778
  928MOL0     C25205   8.535   2.568   2.575  0.1098  0.2442  0.5473
  928MOL0     C25206   8.453   2.673   2.502  0.5818  0.3495  0.1346
  928MOL0     C25207   8.375   2.623   2.382 -0.3804  1.4309  0.3676
  928MOL0     C25208   8.314   2.490   2.394  0.7110 -0.3865  0.2430
  928MOL0     C25209   8.270   2.379   2.414  0.0198  0.0200  0.7197
  928MOL0     C25210   8.894   2.873   2.585 -0.2756 -1.0205  0.0405
  928MOL0     C25211   8.990   2.960   2.635 -0.4952  0.0646 -0.1043
  928MOL0     C25212   9.093   3.012   2.530 -0.2973  0.3689 -0.2448
  928MOL0     H25213   9.140   3.349   3.043 -0.3043 -0.0212  2.7790
  928MOL0     H25214   9.359   3.437   3.139 -1.8265 -0.1867  0.2577
  928MOL0     H25215   9.558   3.445   3.033 -0.7338  3.6242  0.9254
  928MOL0     H25216   9.597   3.492   3.198  0.6244 -0.6128  0.7386
  928MOL0     H25217   9.770   3.320   2.995  0.1735  2.2176 -2.9927
  928MOL0     H25218   9.808   3.339   3.158 -0.8316 -1.1337 -2.1975
  928MOL0     H25219   9.796   3.597   3.098 -2.1152  3.1655 -4.2886
  928MOL0     H25220   9.758   3.556   2.944  0.8412 -0.0992  0.5688
  928MOL0     H25221  10.018   3.465   3.085  1.4293  2.0786  0.1743
  928MOL0     H25222   9.960   3.411   2.926 -2.9808  0.9820 -0.5333
  928MOL0     H25223  10.037   3.606   2.818 -0.4810  0.4429 -0.2536
  928MOL0     H25224   9.956   3.704   2.944 -0.1672 -0.0717  0.7784
  928MOL0     H25225  10.190   3.756   2.935  3.9574 -2.0131 -0.3438
  928MOL0     H25226  10.134   3.671   3.089 -4.1813 -0.1128 -0.1183
  928MOL0     H25227  10.291   3.541   2.861  2.7509  1.2066 -0.8200
  928MOL0     H25228  10.255   3.479   3.029 -3.0708  0.6161 -1.5231
  928MOL0     H25229  10.402   3.736   2.957  1.4061 -0.5754 -0.5450
  928MOL0     H25230  10.400   3.664   3.114  0.0465 -0.2705 -0.4343
  928MOL0     H25231  10.566   3.647   2.778 -1.9167 -2.5730 -0.0894
  928MOL0     H25232  10.858   3.408   2.750  2.9122  2.2904 -0.0364
  928MOL0     H25233  10.747   3.505   2.655 -0.3512  0.8862 -0.4667
  928MOL0     H25234  10.834   3.705   2.730 -0.9107 -0.3836 -1.4428
  928MOL0     H25235  10.936   3.615   2.856 -0.6782 -3.5329  0.7044
  928MOL0     H25236  10.949   3.595   2.543 -1.0136 -1.5425  0.6609
  928MOL0     H25237  11.060   3.503   2.657  1.0283  0.5192 -0.2005
  928MOL0     H25238  11.166   3.705   2.722 -1.9001 -0.3071  0.3923
  928MOL0     H25239  11.038   3.811   2.643  1.2908  1.8931 -1.8632
  928MOL0     H25240  11.278   3.908   2.704 -0.3941 -0.7346 -0.5179
  928MOL0     H25241  11.488   4.006   2.685  0.1905  2.7964 -1.6452
  928MOL0     H25242  11.869   4.128   2.352  1.6148  1.1305 -0.6504
  928MOL0     H25243  12.079   4.168   2.251 -3.8958  0.8354 -0.7412
  928MOL0     H25244  12.276   4.161   2.122  0.7477  2.8966  2.2515
  928MOL0     H25245  12.330   4.190   2.278 -2.3936  0.6619 -0.4025
  928MOL0     H25246  12.542   4.021   2.202 -0.4824 -0.9978 -0.2196
  928MOL0     H25247  12.475   4.058   2.036  1.9455  1.9348  0.0347
  928MOL0     H25248  12.488   4.308   2.111 -0.5481 -0.3388  1.3134
  928MOL0     H25249  12.571   4.249   2.252  1.2297 -1.6588  0.1647
  928MOL0     H25250  12.656   4.224   1.959 -0.8334 -2.2207  0.0553
  928MOL0     H25251  12.749   4.158   2.106 -0.9195 -0.3244  0.5795
  928MOL0     H25252  12.774   4.401   2.186  0.3768  0.1113 -0.4529
  928MOL0     H25253  12.698   4.444   2.035  1.8525  1.9950  0.4512
  928MOL0     H25254  12.884   4.313   1.924  0.2883  0.2391 -0.4893
  928MOL0     H25255  12.915   4.471   2.004 -0.3341  0.4029  2.7195
  928MOL0     H25256  12.982   4.310   2.223 -1.7989 -0.8334 -0.6973
  928MOL0     H25257  13.080   4.399   2.104 -0.6385  0.9862 -0.1658
  928MOL0     H25258  13.003   4.107   2.077  1.8624 -2.1318  1.6811
  928MOL0     H25259  13.098   4.215   1.963  1.7679  0.9130  0.7557
  928MOL0     H25260  12.213   3.777   2.350 -2.9370 -2.5085 -0.6458
  928MOL0     H25261  11.997   3.726   2.467 -0.5193  0.8735  2.3500
  928MOL0     H25262  11.552   3.783   2.316  0.6139 -0.3916  0.6609
  928MOL0     H25263  11.341   3.691   2.333  1.4077 -1.2887  0.5450
  928MOL0     H25264   9.514   3.043   3.127 -1.2196 -1.8444  0.6484
  928MOL0     H25265   9.312   2.955   3.024  0.7463  0.7069  1.0438
  928MOL0     H25266   8.881   2.965   2.952 -0.5690  1.0827 -0.3667
  928MOL0     H25267   8.735   2.794   2.873  0.3798  1.6864  0.6572
  928MOL0     H25268   8.606   2.684   2.745  2.5850 -2.3083  2.8097
  928MOL0     H25269   8.707   2.543   2.710 -1.0614 -1.0701 -1.1478
  928MOL0     H25270   8.465   2.510   2.635 -0.6258 -0.4501 -0.9195
  928MOL0     H25271   8.570   2.502   2.495  1.6663  1.4572  0.1664
  928MOL0     H25272   8.524   2.752   2.474  2.7459 -1.2015  0.9991
  928MOL0     H25273   8.375   2.717   2.566 -2.8762 -0.7390 -2.9499
  928MOL0     H25274   8.288   2.687   2.370 -3.0210 -1.5785  1.8765
  928MOL0     H25275   8.427   2.644   2.288  0.4642  1.0419  0.7322
  928MOL0     H25276   8.213   2.295   2.446 -0.7249 -0.0069 -0.6249
  928MOL0     H25277   8.900   2.849   2.479  1.0123 -1.6369  0.2302
  928MOL0     H25278   9.103   3.120   2.518 -0.2824  0.0751 -4.0114
  928MOL0     H25279   9.193   2.974   2.553  1.0168  3.9630  0.6541
  928MOL0     H25280   9.056   2.974   2.434 -2.2955 -0.4242  0.7827
  929MOL0     O25281   6.632   8.747   7.510 -0.5808  0.0850  0.0702
  929MOL0     C25282   6.580   8.678   7.424 -0.1292  0.0623  0.5995
  929MOL0     O25283   6.640   8.641   7.311 -0.5254 -0.4612  0.2272
  929MOL0     C25284   6.770   8.640   7.280 -0.5132  0.4441  0.3825
  929MOL0     C25285   6.799   8.573   7.156 -0.5953 -1.2801  1.0087
  929MOL0     C25286   6.925   8.566   7.107  0.0143 -0.8431  1.1393
  929MOL0     C25287   7.029   8.613   7.183  1.2312  0.0357 -0.1370
  929MOL0     O25288   7.154   8.599   7.128 -0.4263  1.1237 -0.0370
  929MOL0     C25289   7.276   8.646   7.195 -0.6861 -0.0788 -0.0126
  929MOL0     C25290   7.321   8.549   7.311  0.0784  0.0914  0.0276
  929MOL0     C25291   7.441   8.623   7.376  0.4581  0.3450  0.6432
  929MOL0     C25292   7.477   8.544   7.502  0.2205  1.0618  1.2099
  929MOL0     C25293   7.628   8.562   7.548  0.3764  0.7931  0.1980
  929MOL0     C25294   7.665   8.709   7.579  0.1940 -0.8841 -0.1842
  929MOL0     C25295   7.819   8.712   7.583  0.2274 -0.2866  0.2360
  929MOL0     C25296   7.890   8.707   7.455 -0.4341 -0.3150 -0.8710
  929MOL0     N25297   8.035   8.740   7.472  0.1225 -0.5625 -1.0497
  929MOL0     C25298   8.133   8.676   7.399  0.0489 -0.4792  0.5752
  929MOL0     C25299   8.253   8.718   7.452  0.4344 -1.3854 -0.2279
  929MOL0     C25300   8.382   8.672   7.400 -0.5288 -1.6063 -0.0012
  929MOL0     C25301   8.491   8.776   7.371 -0.9121 -1.3027  0.0040
  929MOL0     C25302   8.590   8.732   7.272  0.3490 -0.0983 -0.0166
  929MOL0     C25303   8.691   8.849   7.243  0.7028  0.2020  0.0557
  929MOL0     O25304   8.776   8.871   7.363 -0.9274  0.6520 -0.1181
  929MOL0     C25305   8.893   8.798   7.387 -0.3794 -0.0942 -0.3820
  929MOL0     C25306   8.950   8.693   7.318 -0.1544  0.6373  0.9005
  929MOL0     C25307   9.076   8.649   7.345 -0.4848  0.2730 -0.3297
  929MOL0     C25308   9.156   8.699   7.454  1.2110  0.2516  0.2374
  929MOL0     C25309   9.290   8.654   7.490  0.5024  0.8679  1.3893
  929MOL0     O25310   9.347   8.688   7.602 -0.0189  0.1187  0.3974
  929MOL0     C25311   9.485   8.660   7.627 -0.7002 -0.9180 -1.1215
  929MOL0     C25312   9.554   8.545   7.607  0.9246  0.2832  0.1429
  929MOL0     C25313   9.688   8.531   7.641 -0.6019 -0.3221  0.7351
  929MOL0     C25314   9.751   8.636   7.716  0.1259  0.0606  1.2231
  929MOL0     O25315   9.887   8.614   7.734 -0.2031  0.2716  0.1012
  929MOL0     C25316   9.954   8.701   7.825 -0.6344  1.2936 -0.1388
  929MOL0     C25317  10.054   8.620   7.908 -0.5585  0.2345 -0.6164
  929MOL0     C25318  10.189   8.689   7.917 -0.4853  1.2530 -0.3589
  929MOL0     C25319  10.280   8.647   7.802  0.3279 -0.6075  0.3069
  929MOL0     C25320  10.425   8.700   7.829  0.2223  0.6049 -0.3849
  929MOL0     C25321  10.506   8.670   7.706  0.9655 -0.7204  0.9883
  929MOL0     C25322  10.474   8.759   7.586 -0.0175 -0.6988  0.6510
  929MOL0     C25323  10.570   8.721   7.461 -0.1211  0.7147 -0.0982
  929MOL0    Cl25324  10.739   8.757   7.496  0.1743  0.0746 -0.7061
  929MOL0     C25325   9.680   8.757   7.737 -0.5602  0.0852 -0.0398
  929MOL0     C25326   9.546   8.767   7.693 -0.6288 -0.4222  0.1447
  929MOL0     O25327   9.335   8.575   7.408 -0.1513 -0.0507 -0.1042
  929MOL0     C25328   9.090   8.804   7.520  0.4153 -0.7062 -0.0602
  929MOL0     C25329   8.966   8.857   7.489  1.4857 -0.0553  0.3628
  929MOL0     N25330   8.222   8.803   7.563 -0.0580 -0.2601  0.1866
  929MOL0     N25331   8.094   8.820   7.569 -0.9085 -0.4812  0.0213
  929MOL0     C25332   7.006   8.670   7.308  0.4086  0.4218 -0.7099
  929MOL0     C25333   6.873   8.692   7.351 -1.2434  0.6872 -0.4734
  929MOL0     C25334   6.431   8.630   7.429 -0.5221 -0.2187 -0.3094
  929MOL0     C25335   6.373   8.529   7.347  0.4206 -0.2374 -0.7340
  929MOL0     C25336   6.239   8.491   7.359  0.6978  0.1119  0.4940
  929MOL0     C25337   6.151   8.561   7.445 -0.3938  0.9204 -1.6303
  929MOL0     O25338   6.028   8.524   7.485 -0.0050 -0.2739 -0.5038
  929MOL0     C25339   5.954   8.425   7.406  0.1674 -0.4937 -1.1515
  929MOL0     C25340   5.870   8.487   7.287 -0.1396  0.7063 -0.1522
  929MOL0     C25341   5.765   8.601   7.330 -0.3567  0.0676  0.6918
  929MOL0     C25342   5.812   8.746   7.313  0.3403 -0.3416 -0.5111
  929MOL0     C25343   5.855   8.774   7.171  0.2831 -0.2886 -0.6874
  929MOL0     C25344   5.886   8.799   7.060 -0.3893  0.3500  0.3100
  929MOL0     C25345   6.199   8.687   7.493  0.0741 -0.1445  0.4050
  929MOL0     C25346   6.335   8.716   7.499  0.8404  0.1669  0.3724
  929MOL0     C25347   6.373   8.845   7.571  0.0106 -0.7554  1.3862
  929MOL0     H25348   6.716   8.538   7.095 -1.1036 -0.6191  1.3110
  929MOL0     H25349   6.950   8.507   7.019 -0.8144 -0.3390  0.5607
  929MOL0     H25350   7.351   8.646   7.116 -1.8987 -0.5061 -1.2051
  929MOL0     H25351   7.274   8.752   7.221  1.9479  0.5593 -2.0003
  929MOL0     H25352   7.355   8.455   7.268 -0.5913  0.1661 -0.7054
  929MOL0     H25353   7.241   8.530   7.384  0.6094  2.3549  1.2961
  929MOL0     H25354   7.415   8.728   7.389  2.0034  1.1512 -2.0476
  929MOL0     H25355   7.520   8.620   7.300 -2.7595 -3.4149 -3.0838
  929MOL0     H25356   7.409   8.547   7.588 -0.2501 -5.1105  1.5035
  929MOL0     H25357   7.474   8.437   7.476  2.5484  0.6828  2.2353
  929MOL0     H25358   7.660   8.492   7.625  0.1109  2.2991  1.7273
  929MOL0     H25359   7.689   8.542   7.459 -0.6842  2.2875 -0.9261
  929MOL0     H25360   7.620   8.765   7.496 -0.1017 -0.0080  0.5583
  929MOL0     H25361   7.632   8.738   7.679  0.5921  0.8615 -0.5233
  929MOL0     H25362   7.848   8.632   7.652 -5.7818 -2.7704  0.5146
  929MOL0     H25363   7.851   8.810   7.619 -1.5013 -0.4310  2.4140
  929MOL0     H25364   7.876   8.605   7.419 -1.5463 -0.1470 -0.9357
  929MOL0     H25365   7.845   8.774   7.382  0.8152  2.0821  0.4126
  929MOL0     H25366   8.112   8.617   7.311  0.8928  0.0574 -0.0025
  929MOL0     H25367   8.428   8.609   7.477  2.4164  0.2507 -0.0506
  929MOL0     H25368   8.368   8.612   7.310  0.8051  0.2896 -1.5425
  929MOL0     H25369   8.443   8.865   7.330 -0.1008 -1.5465 -1.5486
  929MOL0     H25370   8.552   8.799   7.460 -0.2644  0.0850 -0.7722
  929MOL0     H25371   8.528   8.720   7.183  1.7249  1.5988 -1.2669
  929MOL0     H25372   8.645   8.648   7.315  0.1856  0.2671  0.9408
  929MOL0     H25373   8.635   8.936   7.208  0.1862 -1.1180 -2.7213
  929MOL0     H25374   8.760   8.813   7.165  2.4450 -3.4058  2.9528
  929MOL0     H25375   8.904   8.648   7.230  0.0544  0.3661  0.9291
  929MOL0     H25376   9.123   8.580   7.275  0.4196  0.8333 -0.2869
  929MOL0     H25377   9.512   8.465   7.546  0.3819  1.4554 -1.0757
  929MOL0     H25378   9.741   8.437   7.626 -1.9668 -0.9456 -0.4642
  929MOL0     H25379  10.004   8.782   7.771 -0.3761  0.0269 -1.8648
  929MOL0     H25380   9.880   8.751   7.888 -0.4748  3.3883 -1.4971
  929MOL0     H25381  10.000   8.619   8.003 -2.8175  1.7007 -1.7880
  929MOL0     H25382  10.075   8.518   7.875 -3.3056 -0.5071 -0.3252
  929MOL0     H25383  10.172   8.797   7.918 -0.5839  1.2458 -0.9511
  929MOL0     H25384  10.234   8.657   8.012 -0.3587  1.4782 -0.3413
  929MOL0     H25385  10.230   8.678   7.710 -0.0641 -1.0870  0.3546
  929MOL0     H25386  10.285   8.538   7.802  2.1848 -0.5756  1.6535
  929MOL0     H25387  10.464   8.639   7.912 -1.5620  0.5820  0.4843
  929MOL0     H25388  10.419   8.807   7.849  0.9725  1.1788 -2.8890
  929MOL0     H25389  10.612   8.680   7.731  0.7697  1.6983  1.1458
  929MOL0     H25390  10.481   8.568   7.675 -1.3517 -0.7755  2.6935
  929MOL0     H25391  10.479   8.866   7.608  0.0252 -0.9845  2.1009
  929MOL0     H25392  10.374   8.738   7.547 -0.2402  2.2989 -0.7527
  929MOL0     H25393  10.572   8.611   7.456  1.2524  0.4549  3.1979
  929MOL0     H25394  10.540   8.782   7.375  1.8679  2.7846  0.5679
  929MOL0     H25395   9.722   8.845   7.783 -0.9120  2.3617 -3.6288
  929MOL0     H25396   9.490   8.860   7.700 -1.3426 -0.4584 -3.3116
  929MOL0     H25397   9.143   8.850   7.603  0.3791 -2.2376  0.8669
  929MOL0     H25398   8.924   8.938   7.548  2.0470 -1.4301  2.7682
  929MOL0     H25399   7.087   8.709   7.368  0.4670  0.4396 -0.8005
  929MOL0     H25400   6.855   8.760   7.433  0.4051  2.8330 -1.7954
  929MOL0     H25401   6.441   8.470   7.286  0.4890 -0.4471 -0.4588
  929MOL0     H25402   6.220   8.400   7.303  0.6667  0.5004 -0.1394
  929MOL0     H25403   5.888   8.381   7.482  0.6705  2.0275  0.8909
  929MOL0     H25404   6.014   8.340   7.371 -2.2452 -2.9177  0.1842
  929MOL0     H25405   5.819   8.402   7.242 -2.3920  1.4311  0.8981
  929MOL0     H25406   5.951   8.519   7.220  2.4783  0.2681  2.5603
  929MOL0     H25407   5.750   8.579   7.436 -1.7961 -0.6285  0.3672
  929MOL0     H25408   5.670   8.595   7.275  0.4804  0.9450 -0.9084
  929MOL0     H25409   5.721   8.798   7.345 -0.1549 -1.2276 -0.4372
  929MOL0     H25410   5.898   8.761   7.379  0.1436 -0.5961 -0.1929
  929MOL0     H25411   5.919   8.807   6.959 -1.7710 -0.2355 -0.2077
  929MOL0     H25412   6.128   8.750   7.545 -0.1309  0.8237 -0.9766
  929MOL0     H25413   6.425   8.817   7.663 -1.4563 -0.7269  2.2567
  929MOL0     H25414   6.432   8.908   7.504 -1.2146 -0.5548  0.4571
  929MOL0     H25415   6.282   8.901   7.597  0.3898  1.6910 -1.9435
  930MOL0     O25416   8.943   6.850   9.064  0.3281 -0.0069 -0.6287
  930MOL0     C25417   8.917   6.734   9.022 -0.4220  0.2601 -0.3786
  930MOL0     O25418   8.999   6.649   8.954 -0.1101  0.5057 -0.5128
  930MOL0     C25419   9.091   6.693   8.865  0.4730 -0.5844 -0.9054
  930MOL0     C25420   9.082   6.814   8.795  0.4258  0.4664 -1.1618
  930MOL0     C25421   9.184   6.855   8.710 -0.1459  0.1539  0.0853
  930MOL0     C25422   9.296   6.774   8.680 -0.3306  0.5142 -0.5077
  930MOL0     O25423   9.403   6.814   8.595  0.3415 -0.0084  0.3552
  930MOL0     C25424   9.526   6.742   8.613  0.4030  0.1509 -0.3898
  930MOL0     C25425   9.619   6.784   8.508  0.3132 -0.2125 -0.0785
  930MOL0     C25426   9.761   6.728   8.536  0.8061 -0.1220  0.1557
  930MOL0     C25427   9.844   6.783   8.417 -0.5631 -0.2336  0.5775
  930MOL0     C25428   9.995   6.789   8.443 -0.4159  0.1721  0.4098
  930MOL0     C25429  10.058   6.656   8.471  0.5139 -0.0129 -0.2327
  930MOL0     C25430  10.135   6.669   8.608  0.3772  0.2763 -0.3327
  930MOL0     C25431  10.230   6.788   8.637 -0.5999 -0.3605 -0.6607
  930MOL0     N25432  10.324   6.763   8.742 -0.2223 -0.1292 -0.5431
  930MOL0     C25433  10.287   6.732   8.871  0.3208 -0.2751 -0.3675
  930MOL0     C25434  10.394   6.691   8.945  0.0756 -0.7703  0.3717
  930MOL0     C25435  10.388   6.666   9.092  0.7783  0.6657 -0.6318
  930MOL0     C25436  10.512   6.723   9.158  0.2980 -0.7682 -0.7893
  930MOL0     C25437  10.493   6.755   9.308 -0.0122 -0.3314  0.1502
  930MOL0     C25438  10.616   6.809   9.379 -0.6525  0.3036 -0.7899
  930MOL0     O25439  10.593   6.816   9.521  0.7630 -0.1472 -0.1762
  930MOL0     C25440  10.710   6.865   9.587  0.3645 -0.8915  0.5386
  930MOL0     C25441  10.696   6.866   9.721  0.0025  0.2603  0.1642
  930MOL0     C25442  10.813   6.889   9.802 -0.1813 -0.9446 -0.5062
  930MOL0     C25443  10.929   6.935   9.744  0.3655 -0.0167 -0.5706
  930MOL0     C25444  11.051   6.984   9.821  0.7905  1.0001 -0.3399
  930MOL0     O25445  11.129   7.085   9.771  0.4770 -0.1703  0.1845
  930MOL0     C25446  11.228   7.137   9.845 -0.6612 -0.4693  0.2925
  930MOL0     C25447  11.216   7.171   9.982  0.3042 -0.4479 -0.3908
  930MOL0     C25448  11.324   7.220  10.053  0.5219  1.1069  0.2735
  930MOL0     C25449  11.450   7.220   9.998  0.1049  0.4270  1.6008
  930MOL0     O25450  11.551   7.260  10.076 -0.8164  0.1342  0.4739
  930MOL0     C25451  11.686   7.241  10.022 -0.2533 -0.1143 -0.1964
  930MOL0     C25452  11.795   7.266  10.134 -0.5486  0.2672  0.3314
  930MOL0     C25453  11.802   7.414  10.169  1.1040  0.0082  0.2159
  930MOL0     C25454  11.870   7.428  10.306  0.8028  0.2122  0.1643
  930MOL0     C25455  11.863   7.576  10.352 -0.2308  0.1122  0.3993
  930MOL0     C25456  11.881   7.585  10.502  1.2153  0.2455  0.5460
  930MOL0     C25457  11.909   7.728  10.553  0.2878 -0.0708 -0.1294
  930MOL0     C25458  12.063   7.763  10.539 -0.8733 -0.4781  0.6141
  930MOL0    Cl25459  12.167   7.677  10.660 -0.2398 -0.0947 -0.2606
  930MOL0     C25460  11.452   7.199   9.858  1.1701  0.4957  0.5237
  930MOL0     C25461  11.340   7.159   9.777 -0.3566 -0.1641 -0.1188
  930MOL0     O25462  11.076   6.921   9.918  0.4884 -0.2075  0.3278
  930MOL0     C25463  10.936   6.951   9.605 -0.5703 -0.1343 -0.1865
  930MOL0     C25464  10.830   6.909   9.523 -0.6441  0.2062 -0.2909
  930MOL0     N25465  10.502   6.725   8.861  0.4822 -0.3166 -0.1997
  930MOL0     N25466  10.465   6.766   8.741  0.3663  0.4984  0.4808
  930MOL0     C25467   9.296   6.651   8.747 -0.4257  0.4105  0.3085
  930MOL0     C25468   9.192   6.603   8.827 -1.0232  0.1883  0.5726
  930MOL0     C25469   8.787   6.687   9.051  0.5857  0.1982  0.6784
  930MOL0     C25470   8.731   6.713   9.183 -0.2336 -0.2056 -0.5443
  930MOL0     C25471   8.599   6.701   9.205  0.5761 -0.2076 -0.2104
  930MOL0     C25472   8.520   6.644   9.111 -0.0470  0.2722  0.3166
  930MOL0     O25473   8.397   6.623   9.158  0.5539  0.1400  0.3287
  930MOL0     C25474   8.291   6.610   9.069 -0.3650 -0.9150  0.4809
  930MOL0     C25475   8.154   6.610   9.146  0.6169 -0.4472 -0.5461
  930MOL0     C25476   8.137   6.752   9.204  0.0897 -0.6232 -0.3546
  930MOL0     C25477   8.131   6.858   9.098  0.8378  0.3298 -0.2518
  930MOL0     C25478   8.089   6.981   9.166 -0.7013 -1.2788 -0.2395
  930MOL0     C25479   8.043   7.078   9.228  0.2321 -0.3588 -0.6555
  930MOL0     C25480   8.570   6.606   8.982  0.3407  0.1738  0.2751
  930MOL0     C25481   8.696   6.626   8.952 -0.2919 -0.1143  0.2508
  930MOL0     C25482   8.734   6.614   8.807 -0.8328  0.5756  0.4923
  930MOL0     H25483   8.999   6.875   8.829 -0.4212 -2.5651  2.9927
  930MOL0     H25484   9.174   6.952   8.664  0.4662  0.8338  1.3082
  930MOL0     H25485   9.561   6.767   8.714  0.5830  0.6361 -0.5717
  930MOL0     H25486   9.516   6.635   8.594 -1.4787  0.5477 -1.9931
  930MOL0     H25487   9.632   6.892   8.521  1.8517 -0.6259  2.3540
  930MOL0     H25488   9.576   6.758   8.411  1.0317 -0.5288 -0.3255
  930MOL0     H25489   9.766   6.619   8.537  1.1194 -0.1296 -0.7640
  930MOL0     H25490   9.804   6.767   8.628  0.3489 -0.6831  0.6106
  930MOL0     H25491   9.815   6.730   8.326 -1.2443  1.2865 -0.1228
  930MOL0     H25492   9.811   6.885   8.393  1.2654 -0.0929 -1.5864
  930MOL0     H25493  10.041   6.843   8.360 -1.1015 -2.0428 -1.5138
  930MOL0     H25494  10.011   6.861   8.525 -0.7236  1.8848 -0.9855
  930MOL0     H25495   9.978   6.583   8.466  0.2894  0.2894 -1.2179
  930MOL0     H25496  10.121   6.632   8.385  0.3305  1.5762 -0.8471
  930MOL0     H25497  10.186   6.572   8.613 -4.7947 -2.7904  1.6754
  930MOL0     H25498  10.067   6.664   8.693 -0.8069 -1.6271 -1.3127
  930MOL0     H25499  10.278   6.823   8.545 -0.4290  2.1372  0.3232
  930MOL0     H25500  10.171   6.876   8.664 -0.2897 -0.2843 -0.2380
  930MOL0     H25501  10.187   6.700   8.897  0.4149 -0.3945 -0.1569
  930MOL0     H25502  10.302   6.718   9.135  0.9019  0.1590  0.2685
  930MOL0     H25503  10.379   6.558   9.107  1.4411  0.6782 -0.0612
  930MOL0     H25504  10.595   6.652   9.156  1.9810  0.9377  2.0242
  930MOL0     H25505  10.545   6.814   9.107  2.2275 -1.3990 -0.7350
  930MOL0     H25506  10.451   6.664   9.352 -0.6617  1.1887  2.8626
  930MOL0     H25507  10.412   6.828   9.319  0.0966  0.0876 -1.5118
  930MOL0     H25508  10.628   6.912   9.345  0.5988  0.1732 -0.7991
  930MOL0     H25509  10.707   6.755   9.349  0.2183  0.6079  1.1563
  930MOL0     H25510  10.599   6.842   9.764  1.7263 -0.6478  4.0068
  930MOL0     H25511  10.814   6.883   9.910  2.0081  1.3019 -0.3244
  930MOL0     H25512  11.120   7.176  10.033  1.1629  0.1107  1.2375
  930MOL0     H25513  11.312   7.252  10.156  2.0956  0.7425  0.6008
  930MOL0     H25514  11.702   7.136   9.998  3.6986  0.1215  0.7199
  930MOL0     H25515  11.701   7.302   9.933  0.4271  2.4937  1.5766
  930MOL0     H25516  11.768   7.211  10.225  1.7984 -0.6386  0.5503
  930MOL0     H25517  11.890   7.224  10.100 -0.6192 -0.9169  1.5347
  930MOL0     H25518  11.863   7.475  10.102  0.4888  0.9902  0.5151
  930MOL0     H25519  11.700   7.454  10.169  1.2229  0.3457  1.5534
  930MOL0     H25520  11.977   7.410  10.296  1.0776  0.5448  2.0993
  930MOL0     H25521  11.817   7.366  10.379 -0.6455  2.3523  1.0285
  930MOL0     H25522  11.767   7.615  10.318 -0.5039  0.2368  1.3075
  930MOL0     H25523  11.945   7.626  10.299 -2.4672  2.0291 -1.4596
  930MOL0     H25524  11.789   7.556  10.552 -0.4396 -0.3297 -2.5616
  930MOL0     H25525  11.961   7.519  10.536 -0.3684 -2.2819 -0.3749
  930MOL0     H25526  11.877   7.725  10.658 -3.2431 -2.6117 -1.0663
  930MOL0     H25527  11.850   7.803  10.499  0.6881  1.9810  2.1186
  930MOL0     H25528  12.095   7.737  10.438 -0.2928 -1.1795  0.9746
  930MOL0     H25529  12.078   7.871  10.544 -0.7829 -0.5011  0.8576
  930MOL0     H25530  11.545   7.180   9.804 -0.1731 -0.9766 -1.3900
  930MOL0     H25531  11.352   7.131   9.672  0.1985  0.9723 -0.3737
  930MOL0     H25532  11.036   6.961   9.562  0.7613 -2.5398  2.0631
  930MOL0     H25533  10.842   6.928   9.417 -1.3175  3.2204  0.0864
  930MOL0     H25534   9.389   6.595   8.736  1.2980  3.0843  0.4255
  930MOL0     H25535   9.221   6.515   8.882  0.8994  0.9570  0.8694
  930MOL0     H25536   8.806   6.741   9.256 -1.0955 -0.1499  0.3380
  930MOL0     H25537   8.563   6.710   9.307 -0.0189 -3.0812 -0.1004
  930MOL0     H25538   8.298   6.512   9.020  0.3206 -1.6243  1.9273
  930MOL0     H25539   8.304   6.684   8.989 -0.3959  1.1332  2.3001
  930MOL0     H25540   8.145   6.534   9.224  0.0490 -1.1536 -1.2896
  930MOL0     H25541   8.076   6.595   9.071  2.4922 -0.1759 -2.6677
  930MOL0     H25542   8.215   6.779   9.276  0.5139  1.3373 -1.4719
  930MOL0     H25543   8.042   6.750   9.258  0.5774  1.2457  0.6787
  930MOL0     H25544   8.228   6.887   9.055  2.0388 -1.0577  1.3950
  930MOL0     H25545   8.060   6.826   9.022 -0.4465  0.1844  0.9826
  930MOL0     H25546   7.993   7.151   9.288 -3.6029 -0.6783 -3.1370
  930MOL0     H25547   8.518   6.549   8.906  3.3695 -1.1148 -0.9620
  930MOL0     H25548   8.658   6.583   8.735  0.4818 -1.6790 -0.0240
  930MOL0     H25549   8.765   6.713   8.773  0.9097 -0.0803  0.0420
  930MOL0     H25550   8.822   6.552   8.789  0.2094  2.3462 -0.8208
  931MOL0     O25551   3.270   3.287   2.541  0.5010 -0.1663 -0.1146
  931MOL0     C25552   3.241   3.176   2.495 -0.5100 -0.3329 -0.2479
  931MOL0     O25553   3.317   3.059   2.503 -0.3739 -0.2004  0.2436
  931MOL0     C25554   3.440   3.070   2.563 -0.2530  0.9005  0.0091
  931MOL0     C25555   3.458   3.014   2.686 -0.2934 -0.9340 -0.2628
  931MOL0     C25556   3.582   3.018   2.756 -0.5827 -1.0754  1.0829
  931MOL0     C25557   3.689   3.088   2.692  0.6600 -0.3947 -0.4291
  931MOL0     O25558   3.812   3.093   2.752  0.3129 -0.4307 -0.0758
  931MOL0     C25559   3.914   3.006   2.703  0.4367  0.0696  0.3474
  931MOL0     C25560   4.033   2.980   2.812  0.2752 -0.2939 -0.4531
  931MOL0     C25561   4.110   3.100   2.831 -0.6549 -0.5835  0.1318
  931MOL0     C25562   4.235   3.063   2.914 -0.2060 -0.7637 -0.0314
  931MOL0     C25563   4.313   3.172   2.970 -0.0741 -0.8862 -0.2224
  931MOL0     C25564   4.374   3.265   2.863  0.3416 -0.7242  0.0809
  931MOL0     C25565   4.490   3.356   2.914 -0.6799 -0.3789 -0.1888
  931MOL0     C25566   4.446   3.465   3.016  0.5096  0.3862  0.7072
  931MOL0     N25567   4.559   3.550   3.061 -0.5695  0.4955  0.4145
  931MOL0     C25568   4.633   3.508   3.176  0.6613  0.0244  0.3902
  931MOL0     C25569   4.717   3.613   3.201 -0.0902 -0.4572  0.1373
  931MOL0     C25570   4.828   3.626   3.302 -0.4171  0.6381  0.0843
  931MOL0     C25571   4.965   3.586   3.247 -0.6704 -1.0296 -0.1975
  931MOL0     C25572   5.014   3.652   3.115  1.1127  0.4992  0.1366
  931MOL0     C25573   5.152   3.610   3.083 -0.4282 -0.7763 -0.9565
  931MOL0     O25574   5.191   3.684   2.963 -0.3232 -0.1770 -0.2696
  931MOL0     C25575   5.315   3.670   2.903 -0.0100  0.3632 -0.9156
  931MOL0     C25576   5.332   3.702   2.770 -0.4748 -0.0364  0.5116
  931MOL0     C25577   5.456   3.695   2.710  0.9408  0.2707 -0.2682
  931MOL0     C25578   5.567   3.639   2.769  0.4483 -0.8838 -0.0155
  931MOL0     C25579   5.697   3.638   2.700 -0.4436 -0.4207  0.2507
  931MOL0     O25580   5.709   3.716   2.588 -0.2055 -0.5434  1.2463
  931MOL0     C25581   5.829   3.714   2.516 -0.6337 -1.1126 -0.9807
  931MOL0     C25582   5.942   3.775   2.580  0.0679  1.1135 -0.1454
  931MOL0     C25583   6.062   3.790   2.519  0.2975  0.8555  0.1964
  931MOL0     C25584   6.070   3.746   2.385 -0.1086 -1.3481 -0.0584
  931MOL0     O25585   6.185   3.765   2.323  0.3517 -0.9781 -0.2604
  931MOL0     C25586   6.205   3.749   2.186  0.9883 -0.2977 -0.3437
  931MOL0     C25587   6.344   3.799   2.161 -0.5989 -0.0150 -0.4451
  931MOL0     C25588   6.428   3.680   2.091 -0.4025 -0.1553  0.2268
  931MOL0     C25589   6.398   3.662   1.941 -0.0837 -0.5046  0.1204
  931MOL0     C25590   6.444   3.782   1.860  1.0577 -0.2544  0.3338
  931MOL0     C25591   6.559   3.764   1.765 -1.4159  0.1222  1.0019
  931MOL0     C25592   6.693   3.714   1.836  0.4140 -0.3306  0.0120
  931MOL0     C25593   6.796   3.811   1.905 -0.6870 -0.9385  0.1758
  931MOL0    Cl25594   6.888   3.893   1.771  0.1661  0.0525 -0.0930
  931MOL0     C25595   5.961   3.691   2.320  0.7422  0.1103 -1.2411
  931MOL0     C25596   5.836   3.677   2.386 -1.0629 -0.2423  0.3298
  931MOL0     O25597   5.786   3.586   2.763  0.4682  0.3736 -0.3334
  931MOL0     C25598   5.547   3.605   2.904 -0.1089 -0.4969  0.2128
  931MOL0     C25599   5.430   3.624   2.978 -0.0100  0.3705  0.0382
  931MOL0     N25600   4.711   3.704   3.093 -0.2251 -0.7590 -0.3326
  931MOL0     N25601   4.611   3.668   3.014  0.2365 -0.5996  0.0748
  931MOL0     C25602   3.669   3.149   2.571 -1.0480 -0.1314  0.8164
  931MOL0     C25603   3.542   3.144   2.508 -0.5415  0.2746 -0.3983
  931MOL0     C25604   3.101   3.160   2.433 -0.0660 -1.1995 -1.4779
  931MOL0     C25605   3.054   3.035   2.404  0.6954  0.3691 -0.2355
  931MOL0     C25606   2.945   3.010   2.323 -0.1656 -0.2833  0.5470
  931MOL0     C25607   2.866   3.118   2.279  1.1641  0.0741  0.4503
  931MOL0     O25608   2.759   3.086   2.202  0.7129  0.3907 -0.3071
  931MOL0     C25609   2.685   3.193   2.134  0.4635 -0.1639  0.1633
  931MOL0     C25610   2.574   3.121   2.050  0.0579  0.4973  0.7088
  931MOL0     C25611   2.458   3.067   2.140  0.0325 -0.2302 -0.3920
  931MOL0     C25612   2.387   3.174   2.230  0.1654 -0.3493 -1.2544
  931MOL0     C25613   2.276   3.099   2.283 -0.5447 -0.1765 -0.8856
  931MOL0     C25614   2.188   3.029   2.331  0.0497 -0.1065 -0.0609
  931MOL0     C25615   2.898   3.247   2.318  0.2295  0.7295  0.0321
  931MOL0     C25616   3.018   3.268   2.388 -0.9966  0.2298  0.5149
  931MOL0     C25617   3.052   3.414   2.398 -0.1930 -0.2925 -0.1132
  931MOL0     H25618   3.379   2.950   2.722 -0.3197 -0.9937 -0.4236
  931MOL0     H25619   3.604   2.958   2.843  1.8579 -3.3888 -0.9434
  931MOL0     H25620   3.883   2.902   2.689  1.9097 -0.4261  0.5971
  931MOL0     H25621   3.951   3.048   2.609 -0.5809  2.8207  1.0628
  931MOL0     H25622   4.104   2.904   2.778  1.3607  0.0854  0.8864
  931MOL0     H25623   3.982   2.941   2.900 -0.1240  0.7790 -0.1914
  931MOL0     H25624   4.052   3.173   2.888  1.0498  0.8113  0.1577
  931MOL0     H25625   4.134   3.157   2.741 -1.2262  2.0670  1.5701
  931MOL0     H25626   4.202   3.001   2.998 -3.9494  0.3939 -0.4704
  931MOL0     H25627   4.303   2.999   2.857  0.3286  0.5539 -0.9260
  931MOL0     H25628   4.255   3.236   3.037 -0.5908 -2.2242  0.6540
  931MOL0     H25629   4.400   3.133   3.024  0.1423  0.5302  0.4852
  931MOL0     H25630   4.414   3.205   2.781  2.9369  1.2854 -0.2422
  931MOL0     H25631   4.291   3.319   2.816 -0.4021 -1.7934  0.1127
  931MOL0     H25632   4.522   3.410   2.824  0.6018  1.9887  1.5449
  931MOL0     H25633   4.583   3.308   2.947 -0.1685 -0.1427 -1.2417
  931MOL0     H25634   4.377   3.531   2.961  0.5485 -1.5408 -1.8193
  931MOL0     H25635   4.393   3.405   3.090  0.7964 -2.3512 -1.1821
  931MOL0     H25636   4.601   3.425   3.238 -0.9093 -1.1998 -1.9141
  931MOL0     H25637   4.828   3.729   3.340 -0.7420 -0.0298  2.0046
  931MOL0     H25638   4.796   3.572   3.391 -1.2722  0.0236 -0.5893
  931MOL0     H25639   5.039   3.614   3.323 -0.0504  0.9995 -1.4520
  931MOL0     H25640   4.957   3.479   3.226 -0.0701 -0.8331 -1.4831
  931MOL0     H25641   5.002   3.761   3.115 -1.1030  0.3086 -1.3000
  931MOL0     H25642   4.952   3.614   3.034  2.0245  0.1903 -0.4222
  931MOL0     H25643   5.154   3.501   3.068  1.1638 -1.0738  0.9710
  931MOL0     H25644   5.217   3.644   3.164 -1.2084  1.8081 -1.3249
  931MOL0     H25645   5.241   3.727   2.717 -0.7290 -4.0656 -1.2725
  931MOL0     H25646   5.471   3.718   2.605 -0.5777  0.6531 -0.4305
  931MOL0     H25647   5.935   3.809   2.682  0.1289  2.2534 -0.5107
  931MOL0     H25648   6.142   3.820   2.587  0.0608 -0.3892  1.0563
  931MOL0     H25649   6.196   3.646   2.150  3.2911 -1.1458  1.2714
  931MOL0     H25650   6.132   3.812   2.134  1.3882 -0.0690 -0.6287
  931MOL0     H25651   6.346   3.893   2.105 -3.1135  0.9202  0.8804
  931MOL0     H25652   6.394   3.830   2.252  1.5888  0.5220 -1.7495
  931MOL0     H25653   6.533   3.696   2.118 -0.3431 -0.0467 -0.0686
  931MOL0     H25654   6.397   3.585   2.136 -0.9762  0.1174  0.4099
  931MOL0     H25655   6.294   3.635   1.923 -0.0828 -1.0617  0.8878
  931MOL0     H25656   6.456   3.574   1.912 -0.0088 -1.5829  3.1355
  931MOL0     H25657   6.469   3.870   1.921  1.1572 -2.3563  3.5815
  931MOL0     H25658   6.356   3.814   1.805  1.2259 -0.1404  0.1284
  931MOL0     H25659   6.533   3.689   1.691 -0.6989  0.3834  0.4778
  931MOL0     H25660   6.570   3.858   1.710 -1.3999  0.5898  1.7878
  931MOL0     H25661   6.747   3.649   1.767  0.6669 -0.1837  0.0728
  931MOL0     H25662   6.672   3.652   1.924  2.4492 -0.7979  0.2161
  931MOL0     H25663   6.745   3.879   1.974 -0.3788  0.4601 -0.9367
  931MOL0     H25664   6.864   3.747   1.963  2.8015  3.2375  1.2387
  931MOL0     H25665   5.971   3.668   2.215  1.8694  1.5037 -1.4625
  931MOL0     H25666   5.764   3.624   2.325 -0.5627 -0.0752 -0.4123
  931MOL0     H25667   5.634   3.575   2.961  1.0850 -0.3046 -1.4401
  931MOL0     H25668   5.430   3.608   3.085  0.4982 -2.8364 -0.3415
  931MOL0     H25669   3.741   3.208   2.515 -0.2282 -0.4074  1.5596
  931MOL0     H25670   3.521   3.184   2.409  2.5863  1.4481 -0.6763
  931MOL0     H25671   3.109   2.950   2.443 -3.5547 -2.6886 -0.2965
  931MOL0     H25672   2.927   2.904   2.304  2.0498 -0.4220 -1.2038
  931MOL0     H25673   2.756   3.244   2.069  1.3084  0.3859  1.4748
  931MOL0     H25674   2.636   3.263   2.203 -1.6548 -1.7670  0.4128
  931MOL0     H25675   2.614   3.040   1.988 -1.0391  0.3993  0.0923
  931MOL0     H25676   2.532   3.195   1.981  1.0153  1.3714  1.0476
  931MOL0     H25677   2.493   2.981   2.197 -1.3861  0.1266  1.1242
  931MOL0     H25678   2.385   3.023   2.072  1.0316 -0.5280 -1.2831
  931MOL0     H25679   2.442   3.218   2.313 -0.0918 -0.1926 -1.1667
  931MOL0     H25680   2.350   3.262   2.177  2.3143  0.4717 -1.4611
  931MOL0     H25681   2.100   2.970   2.346 -1.9627  2.2541 -1.7449
  931MOL0     H25682   2.836   3.333   2.297 -0.1711  0.7299  1.1565
  931MOL0     H25683   2.982   3.477   2.342 -0.4242  1.5198  2.0735
  931MOL0     H25684   3.049   3.465   2.494 -1.9969  1.5244 -1.0588
  931MOL0     H25685   3.152   3.427   2.357  0.9310  1.1873  2.8099
  932MOL0     O25686   6.921   0.120   8.728 -0.7609  0.4527 -0.4177
  932MOL0     C25687   6.888   0.139   8.851  0.6238  0.0433  0.7234
  932MOL0     O25688   6.959   0.210   8.935 -0.8195 -0.9481  0.1292
  932MOL0     C25689   7.078   0.278   8.898 -0.7361 -0.1753  0.4272
  932MOL0     C25690   7.192   0.273   8.986 -0.0051 -0.0582 -0.4482
  932MOL0     C25691   7.305   0.350   8.959  0.7952 -0.1486 -0.4511
  932MOL0     C25692   7.304   0.432   8.852  0.2523 -0.2779 -0.2469
  932MOL0     O25693   7.406   0.524   8.825  0.7935 -0.0386  0.1910
  932MOL0     C25694   7.472   0.531   8.694  0.5304 -0.2953  0.0619
  932MOL0     C25695   7.540   0.656   8.662  0.5267 -0.2094 -0.2707
  932MOL0     C25696   7.669   0.666   8.739 -0.3238 -0.0522  0.0272
  932MOL0     C25697   7.753   0.792   8.720  0.0334  0.0236  0.4066
  932MOL0     C25698   7.851   0.801   8.839 -0.3684 -0.3023  0.3814
  932MOL0     C25699   7.947   0.922   8.832 -0.4635 -0.1160  0.2111
  932MOL0     C25700   7.994   0.963   8.969 -0.2979 -0.8357 -0.6398
  932MOL0     C25701   8.094   0.871   9.036  0.0577  0.1090  0.4498
  932MOL0     N25702   8.221   0.864   8.956 -0.0610  0.3656  0.1300
  932MOL0     C25703   8.253   0.783   8.850 -1.0405  0.6176 -0.1233
  932MOL0     C25704   8.382   0.823   8.817 -0.6343 -0.3457  0.6692
  932MOL0     C25705   8.471   0.764   8.707 -0.3398  0.1361 -0.0109
  932MOL0     C25706   8.558   0.653   8.752  0.2304  0.2509  0.0361
  932MOL0     C25707   8.661   0.694   8.859 -0.4805 -0.0197 -0.7808
  932MOL0     C25708   8.780   0.768   8.797  0.7058  0.3812 -0.0805
  932MOL0     O25709   8.853   0.684   8.697  0.5582 -0.7352 -0.3895
  932MOL0     C25710   8.988   0.698   8.676  0.0812  0.9663 -0.0829
  932MOL0     C25711   9.053   0.591   8.612 -0.7559  0.3769  0.4266
  932MOL0     C25712   9.194   0.596   8.596  0.5501  0.0122  0.7894
  932MOL0     C25713   9.273   0.701   8.642 -0.2865 -0.8908 -0.4860
  932MOL0     C25714   9.419   0.687   8.615 -0.0365  0.4605  0.0717
  932MOL0     O25715   9.462   0.584   8.543  0.7979  0.9565 -0.0023
  932MOL0     C25716   9.590   0.550   8.507 -0.1484 -0.3790  0.5600
  932MOL0     C25717   9.715   0.615   8.542  0.3897  0.6007 -0.7923
  932MOL0     C25718   9.834   0.568   8.495 -0.6628 -0.0133  0.6291
  932MOL0     C25719   9.847   0.461   8.406  0.5582 -0.2990  0.6464
  932MOL0     O25720   9.956   0.414   8.340 -0.2083  0.6684  0.8400
  932MOL0     C25721  10.086   0.390   8.411  0.0163  0.1047 -0.2797
  932MOL0     C25722  10.180   0.494   8.361 -0.2949 -0.3017  0.6494
  932MOL0     C25723  10.229   0.472   8.211  0.1483 -0.0189  0.8482
  932MOL0     C25724  10.366   0.540   8.178 -0.2153 -0.5044 -0.3724
  932MOL0     C25725  10.403   0.534   8.029 -0.0087  0.0671 -0.4747
  932MOL0     C25726  10.545   0.594   8.002  0.8666  0.0947  0.6432
  932MOL0     C25727  10.580   0.585   7.854  0.2765 -0.2247  1.0945
  932MOL0     C25728  10.689   0.688   7.818  0.6890 -0.2868  0.7554
  932MOL0    Cl25729  10.752   0.695   7.657  0.0940 -0.2635  0.5539
  932MOL0     C25730   9.728   0.405   8.370  0.0893  0.3439  0.0883
  932MOL0     C25731   9.599   0.443   8.417 -0.6317  0.0551 -0.1233
  932MOL0     O25732   9.494   0.769   8.678 -0.0523 -0.0187  0.0094
  932MOL0     C25733   9.216   0.800   8.716 -0.3066  0.3491  0.0079
  932MOL0     C25734   9.079   0.799   8.727  0.0649 -0.3728  0.0177
  932MOL0     N25735   8.422   0.934   8.888  0.2561  0.4839 -0.5176
  932MOL0     N25736   8.321   0.959   8.965  0.3774  0.2010 -0.3096
  932MOL0     C25737   7.190   0.447   8.770 -0.1350 -0.0518 -0.3644
  932MOL0     C25738   7.080   0.365   8.789  0.7871  0.1518 -0.2512
  932MOL0     C25739   6.756   0.077   8.904 -0.5622 -0.4930 -1.0740
  932MOL0     C25740   6.707   0.124   9.030  0.8776 -0.0355 -0.0199
  932MOL0     C25741   6.584   0.083   9.080  0.4052 -0.1055  0.2320
  932MOL0     C25742   6.511  -0.017   9.007 -0.1585  0.1792  0.0155
  932MOL0     O25743   6.385  -0.059   9.051 -0.0014 -0.4429 -0.1467
  932MOL0     C25744   6.322   0.006   9.160 -0.4735  0.7830  0.0367
  932MOL0     C25745   6.184  -0.071   9.196 -0.8960  0.4680  0.2045
  932MOL0     C25746   6.085  -0.006   9.284  0.8031 -0.9338 -0.5096
  932MOL0     C25747   6.110  -0.003   9.429  0.1963  0.4621 -0.4174
  932MOL0     C25748   6.214   0.091   9.478 -0.0806 -0.0473 -0.4085
  932MOL0     C25749   6.286   0.175   9.526 -0.1887 -0.2464  0.6467
  932MOL0     C25750   6.566  -0.067   8.890 -0.2403  0.1604  0.0080
  932MOL0     C25751   6.685  -0.031   8.837  0.1912  0.8826 -0.8795
  932MOL0     C25752   6.725  -0.098   8.710  0.2679  0.1984  0.4404
  932MOL0     H25753   7.182   0.234   9.087 -2.0425  3.0011  0.7109
  932MOL0     H25754   7.387   0.350   9.030  1.5388 -0.2340 -1.3058
  932MOL0     H25755   7.545   0.450   8.699 -0.5984 -1.3401  0.0932
  932MOL0     H25756   7.398   0.519   8.613 -0.3302  1.6880  0.4893
  932MOL0     H25757   7.478   0.740   8.694 -0.3840 -0.9317 -0.1107
  932MOL0     H25758   7.573   0.676   8.559  0.5430  0.5394 -0.1281
  932MOL0     H25759   7.738   0.582   8.722 -0.1962 -0.3317  1.7188
  932MOL0     H25760   7.647   0.672   8.846 -1.5934  3.7533 -0.2968
  932MOL0     H25761   7.808   0.796   8.626 -0.0252  4.5235  0.3158
  932MOL0     H25762   7.681   0.874   8.711 -0.4816 -0.5720 -1.3462
  932MOL0     H25763   7.782   0.808   8.923 -1.9604 -1.5722 -0.7372
  932MOL0     H25764   7.898   0.703   8.850 -0.3176 -0.2366  0.7314
  932MOL0     H25765   8.034   0.915   8.765 -1.1091  2.4467 -1.0342
  932MOL0     H25766   7.888   1.007   8.796  0.2700  0.1883 -0.2933
  932MOL0     H25767   7.903   0.964   9.029 -0.3429 -1.1828 -0.7016
  932MOL0     H25768   8.036   1.064   8.965 -0.0390 -0.9177 -0.0392
  932MOL0     H25769   8.123   0.913   9.132  0.3779 -0.3004  0.5342
  932MOL0     H25770   8.055   0.769   9.041  0.1835 -0.1445 -2.0684
  932MOL0     H25771   8.195   0.703   8.806  0.2962  0.3843 -1.5384
  932MOL0     H25772   8.402   0.729   8.630  0.8563 -2.5400  0.0330
  932MOL0     H25773   8.540   0.843   8.675  2.8477 -2.5367 -0.2936
  932MOL0     H25774   8.489   0.577   8.788  1.0440 -0.5277 -0.0159
  932MOL0     H25775   8.608   0.602   8.669 -0.4325 -0.3953  0.0248
  932MOL0     H25776   8.693   0.602   8.910  0.4253  1.7911  2.2209
  932MOL0     H25777   8.611   0.748   8.941  0.2731 -0.0075 -0.3176
  932MOL0     H25778   8.846   0.785   8.883 -0.1963 -0.6036  0.8317
  932MOL0     H25779   8.738   0.861   8.757 -0.9443 -0.4173 -0.2658
  932MOL0     H25780   8.988   0.511   8.580 -1.8718  1.3841  0.1043
  932MOL0     H25781   9.252   0.510   8.563  2.1843  1.3763  0.0063
  932MOL0     H25782   9.717   0.701   8.607  2.8477 -0.2012  0.3184
  932MOL0     H25783   9.911   0.637   8.528 -0.0701 -0.2733 -0.1501
  932MOL0     H25784  10.082   0.397   8.520  0.8996 -0.8481 -0.1778
  932MOL0     H25785  10.124   0.291   8.386 -1.0412 -0.7926  1.4390
  932MOL0     H25786  10.124   0.587   8.362  1.0623  0.5898 -0.7199
  932MOL0     H25787  10.265   0.499   8.430  0.0963  1.3136  0.0925
  932MOL0     H25788  10.234   0.369   8.174  2.1297  0.4595 -0.3695
  932MOL0     H25789  10.157   0.530   8.153 -0.4874 -1.1832  0.4249
  932MOL0     H25790  10.445   0.499   8.241 -1.4513 -0.8485  1.0378
  932MOL0     H25791  10.346   0.644   8.206  0.9062 -0.7063  1.3430
  932MOL0     H25792  10.320   0.584   7.978 -0.6267  1.4365  1.7108
  932MOL0     H25793  10.407   0.427   8.005 -4.7476  0.3081 -3.6095
  932MOL0     H25794  10.558   0.698   8.035 -0.7958  0.5090  0.0884
  932MOL0     H25795  10.611   0.530   8.061  0.0753  0.5125  2.0150
  932MOL0     H25796  10.490   0.616   7.800  0.7632  1.2205  1.0552
  932MOL0     H25797  10.604   0.481   7.830 -1.5083 -0.9920  2.3889
  932MOL0     H25798  10.653   0.789   7.840  0.5480 -0.5851  1.9682
  932MOL0     H25799  10.767   0.671   7.893 -1.5046 -2.4748  2.7314
  932MOL0     H25800   9.731   0.315   8.308  1.6395 -1.9142  3.1812
  932MOL0     H25801   9.514   0.396   8.369  1.7490 -0.6093 -4.1802
  932MOL0     H25802   9.257   0.885   8.768 -4.4850  1.6276  1.6003
  932MOL0     H25803   9.031   0.879   8.783  2.8568  1.3063  0.2198
  932MOL0     H25804   7.188   0.532   8.702 -3.2085 -0.1402 -0.5596
  932MOL0     H25805   6.989   0.369   8.730  2.4011  0.1628 -2.9356
  932MOL0     H25806   6.766   0.189   9.093 -1.2766  0.2440  1.7949
  932MOL0     H25807   6.558   0.129   9.175  0.8740 -0.6656  0.6451
  932MOL0     H25808   6.306   0.109   9.126  0.2359  0.5201 -1.1554
  932MOL0     H25809   6.385   0.012   9.249 -0.9373  2.1622  0.3049
  932MOL0     H25810   6.201  -0.173   9.234 -3.4012  0.2815  0.9493
  932MOL0     H25811   6.142  -0.091   9.097  2.0457 -1.0213 -0.8722
  932MOL0     H25812   5.985  -0.049   9.272 -0.0156  0.3168  1.2768
  932MOL0     H25813   6.069   0.100   9.263  2.6523  0.4540  3.9392
  932MOL0     H25814   6.016   0.006   9.484 -0.2440  0.1558 -1.1144
  932MOL0     H25815   6.145  -0.101   9.462  0.2759 -0.5053 -3.1175
  932MOL0     H25816   6.345   0.257   9.564 -0.3845  0.4487 -0.5110
  932MOL0     H25817   6.510  -0.150   8.847  1.3240 -0.8220 -0.2310
  932MOL0     H25818   6.690  -0.201   8.724  4.0185 -1.1264  1.1715
  932MOL0     H25819   6.674  -0.054   8.624  1.1820 -3.2434 -2.1113
  932MOL0     H25820   6.834  -0.107   8.700  0.4447  0.4533  1.9658
  933MOL0     O25821  11.263  10.241  10.175  0.7725  0.7693 -0.6481
  933MOL0     C25822  11.239  10.150  10.098  0.0955 -0.1374 -0.1662
  933MOL0     O25823  11.300  10.126   9.976  0.1921 -0.2338  0.8159
  933MOL0     C25824  11.399  10.214   9.931  0.3594 -0.1706 -0.4927
  933MOL0     C25825  11.505  10.153   9.861 -0.0773  0.5571 -0.3417
  933MOL0     C25826  11.602  10.232   9.804  0.1274 -1.3955 -0.4487
  933MOL0     C25827  11.596  10.374   9.808 -0.3814  0.1026 -0.2185
  933MOL0     O25828  11.706  10.449   9.781  0.0338 -0.4504 -0.4849
  933MOL0     C25829  11.676  10.559   9.691  1.1053  0.1059  0.2598
  933MOL0     C25830  11.798  10.634   9.655 -0.3908  1.5198  0.0423
  933MOL0     C25831  11.872  10.565   9.539  0.4600 -0.2581 -0.0899
  933MOL0     C25832  11.993  10.645   9.518 -1.1086  0.2496  0.7023
  933MOL0     C25833  12.069  10.593   9.386 -1.0498  0.8943 -0.6086
  933MOL0     C25834  12.217  10.628   9.390  1.4858  0.1967 -0.4011
  933MOL0     C25835  12.286  10.573   9.275 -0.1697  0.2357 -0.5968
  933MOL0     C25836  12.436  10.590   9.285 -0.5425  0.2244 -0.5530
  933MOL0     N25837  12.518  10.540   9.172 -0.8929  0.8411 -0.1576
  933MOL0     C25838  12.515  10.404   9.137  0.0454  0.4272 -0.4841
  933MOL0     C25839  12.627  10.385   9.062  0.0993 -0.1385  0.3384
  933MOL0     C25840  12.679  10.259   9.014 -0.7225  0.2658  0.0803
  933MOL0     C25841  12.729  10.243   8.865  0.6366  0.3328  0.2156
  933MOL0     C25842  12.817  10.353   8.806 -0.5098 -0.8497  0.2527
  933MOL0     C25843  12.958  10.374   8.878 -0.2703 -0.0240 -0.4745
  933MOL0     O25844  13.059  10.284   8.829  0.3684 -0.4131 -0.0839
  933MOL0     C25845  13.193  10.309   8.846 -0.7820 -0.4888  0.5373
  933MOL0     C25846  13.285  10.231   8.783 -0.1831 -0.4777 -0.3955
  933MOL0     C25847  13.416  10.270   8.777  0.5632 -0.0987  0.1753
  933MOL0     C25848  13.466  10.389   8.840 -0.4471  0.9351 -0.6460
  933MOL0     C25849  13.612  10.409   8.853  0.1728 -1.1610 -1.2509
  933MOL0     O25850  13.694  10.350   8.774  0.0827  0.2620 -0.2711
  933MOL0     C25851  13.827  10.378   8.790  0.4765  0.0542  0.6997
  933MOL0     C25852  13.914  10.328   8.883  0.0363 -0.3426  0.1268
  933MOL0     C25853  14.048  10.353   8.883 -0.0992 -0.1781  0.1627
  933MOL0     C25854  14.108  10.416   8.780  0.2171  0.3062  0.8351
  933MOL0     O25855  14.243  10.425   8.772  0.3729  0.7140 -0.2888
  933MOL0     C25856  14.319  10.455   8.889 -0.4030  0.0870  0.6413
  933MOL0     C25857  14.469  10.477   8.846 -0.2778  0.6041  0.2776
  933MOL0     C25858  14.574  10.471   8.947 -0.5640  0.8859  0.1259
  933MOL0     C25859  14.713  10.465   8.878  0.1796  0.2545 -0.3855
  933MOL0     C25860  14.821  10.472   8.978  0.7588  0.1944 -0.1702
  933MOL0     C25861  14.833  10.348   9.066 -0.0310 -0.1117 -0.2027
  933MOL0     C25862  14.808  10.210   9.004 -0.0898 -0.2174  1.4290
  933MOL0     C25863  14.851  10.103   9.094 -0.2162 -0.5025 -0.9359
  933MOL0    Cl25864  15.030  10.102   9.111  0.2699 -0.2820  0.5783
  933MOL0     C25865  14.024  10.452   8.674  0.1414 -0.4582  0.7774
  933MOL0     C25866  13.884  10.434   8.680 -0.1856 -0.5205  0.3752
  933MOL0     O25867  13.640  10.499   8.938 -0.0716 -0.3203  0.4027
  933MOL0     C25868  13.371  10.456   8.923  1.1266 -0.4221  0.0207
  933MOL0     C25869  13.237  10.430   8.919  0.3279  0.2577  0.5920
  933MOL0     N25870  12.689  10.513   9.051 -0.0760 -0.5990 -0.1918
  933MOL0     N25871  12.624  10.599   9.122  0.1078  0.3269  0.6178
  933MOL0     C25872  11.495  10.431   9.879 -0.5922  0.8170 -0.1287
  933MOL0     C25873  11.396  10.352   9.931  0.6962  0.8222 -0.1514
  933MOL0     C25874  11.136  10.049  10.144 -0.4007  0.2375  0.5492
  933MOL0     C25875  11.154   9.922  10.104 -0.1185  0.1150 -0.4109
  933MOL0     C25876  11.067   9.823  10.139 -0.4384  0.2778  0.4959
  933MOL0     C25877  10.959   9.843  10.223  0.1529  0.0652  0.2436
  933MOL0     O25878  10.863   9.754  10.266 -0.8970  0.0184 -0.2750
  933MOL0     C25879  10.880   9.625  10.212 -0.4921 -0.5000 -0.5612
  933MOL0     C25880  10.781   9.519  10.281 -0.3111 -0.6747  0.3022
  933MOL0     C25881  10.643   9.553  10.241 -0.1513 -0.4820  0.1412
  933MOL0     C25882  10.534   9.459  10.272  0.4758  0.0161 -0.2168
  933MOL0     C25883  10.532   9.417  10.411  0.8108 -0.1964 -0.2470
  933MOL0     C25884  10.513   9.390  10.528  0.5129 -1.3763  0.2192
  933MOL0     C25885  10.932   9.972  10.257 -1.2763 -0.2686  0.0817
  933MOL0     C25886  11.012  10.076  10.216 -0.2644  0.4010  0.2928
  933MOL0     C25887  10.982  10.210  10.269 -0.1654  0.1761 -0.3813
  933MOL0     H25888  11.515  10.045   9.849 -0.2371  0.4876  0.1497
  933MOL0     H25889  11.684  10.175   9.760  0.7349  0.0704 -1.2908
  933MOL0     H25890  11.636  10.539   9.592  1.2996  2.1325 -0.2783
  933MOL0     H25891  11.608  10.625   9.747 -0.1127 -0.5120 -0.4467
  933MOL0     H25892  11.861  10.637   9.745  0.0855  0.1969 -0.2241
  933MOL0     H25893  11.774  10.731   9.611 -0.2238  2.1888  1.3792
  933MOL0     H25894  11.818  10.579   9.445  1.3848  3.0906 -0.2535
  933MOL0     H25895  11.900  10.463   9.565 -0.2418  0.1556  2.5983
  933MOL0     H25896  11.984  10.753   9.505  0.9257  0.3076 -0.9182
  933MOL0     H25897  12.052  10.634   9.609  0.6652  2.1244 -0.1348
  933MOL0     H25898  12.067  10.483   9.392  2.5492  0.6391 -1.8788
  933MOL0     H25899  12.015  10.624   9.296  1.1676  1.7321 -1.6940
  933MOL0     H25900  12.236  10.735   9.402  0.2343  0.1657  2.9710
  933MOL0     H25901  12.260  10.579   9.479  1.6701  3.4171  1.4420
  933MOL0     H25902  12.249  10.626   9.186 -1.1401 -0.5579 -0.6831
  933MOL0     H25903  12.253  10.471   9.254  0.7833  0.1318 -1.6668
  933MOL0     H25904  12.459  10.696   9.299  2.4042 -0.4045  0.2373
  933MOL0     H25905  12.469  10.532   9.372  0.8199  0.7192 -0.7077
  933MOL0     H25906  12.442  10.326   9.159 -1.0336  1.9184  1.4572
  933MOL0     H25907  12.769  10.243   9.075 -0.3517 -1.4095 -0.8462
  933MOL0     H25908  12.622  10.169   9.035 -0.4354  0.4121  1.5851
  933MOL0     H25909  12.785  10.149   8.859  1.7980  0.9406  1.1757
  933MOL0     H25910  12.649  10.221   8.794  0.4494 -1.5990  0.9797
  933MOL0     H25911  12.763  10.448   8.812 -2.1076 -1.7085  0.0856
  933MOL0     H25912  12.840  10.333   8.701 -2.8525  1.1880 -0.7502
  933MOL0     H25913  12.962  10.353   8.986 -1.3232 -2.1785 -0.8096
  933MOL0     H25914  12.981  10.480   8.863 -0.9952  0.0574 -1.0304
  933MOL0     H25915  13.245  10.145   8.731 -0.8579  1.2566 -2.9046
  933MOL0     H25916  13.475  10.196   8.723 -0.0620  0.3187 -1.1222
  933MOL0     H25917  13.874  10.271   8.966 -0.3112 -1.6280 -0.8821
  933MOL0     H25918  14.116  10.319   8.961  1.6264  0.6031 -0.9381
  933MOL0     H25919  14.272  10.549   8.922 -1.5545 -0.8134  1.6822
  933MOL0     H25920  14.315  10.370   8.958 -0.5381 -1.4108 -1.1660
  933MOL0     H25921  14.485  10.398   8.771  0.7762  1.5719 -0.5567
  933MOL0     H25922  14.478  10.579   8.807  3.2543 -0.5837 -2.6415
  933MOL0     H25923  14.555  10.565   9.000  1.7424  0.9299  0.9860
  933MOL0     H25924  14.548  10.391   9.017  0.8825  0.7285  0.5199
  933MOL0     H25925  14.722  10.531   8.791  2.8934 -3.3063 -3.1725
  933MOL0     H25926  14.719  10.371   8.822 -0.6047  1.2400 -2.2100
  933MOL0     H25927  14.825  10.560   9.043  3.1253 -1.1919  1.7327
  933MOL0     H25928  14.914  10.480   8.920  0.9612  1.2573  0.2590
  933MOL0     H25929  14.935  10.348   9.104  0.4330 -0.6477 -1.3995
  933MOL0     H25930  14.757  10.353   9.144  0.4194 -5.4936  0.9603
  933MOL0     H25931  14.856  10.196   8.907  0.0501 -1.7380  1.6942
  933MOL0     H25932  14.704  10.205   8.970  0.5233 -1.5962 -0.3997
  933MOL0     H25933  14.813  10.130   9.193 -2.0601  1.1711 -2.0521
  933MOL0     H25934  14.819  10.002   9.065 -3.1692 -0.4473  1.5505
  933MOL0     H25935  14.069  10.498   8.587  2.7292 -0.6644  1.9160
  933MOL0     H25936  13.818  10.454   8.597  1.8252 -0.8608 -1.3845
  933MOL0     H25937  13.394  10.542   8.984  0.5808 -0.4909  0.3315
  933MOL0     H25938  13.166  10.491   8.974  0.4445 -0.2637  1.3327
  933MOL0     H25939  11.502  10.535   9.911 -1.4141  0.8254  0.0222
  933MOL0     H25940  11.311  10.395   9.983  0.2290 -1.3372  0.9989
  933MOL0     H25941  11.230   9.889  10.034 -0.0343  0.4891 -0.4985
  933MOL0     H25942  11.085   9.728  10.091  1.1671  0.2078  1.1736
  933MOL0     H25943  10.978   9.580  10.233 -2.1765 -4.8831 -0.9940
  933MOL0     H25944  10.870   9.631  10.103 -1.3846  2.3807 -0.4094
  933MOL0     H25945  10.789   9.523  10.390  1.0978 -3.0851  0.3549
  933MOL0     H25946  10.796   9.419  10.241 -3.1940 -1.1185  0.0884
  933MOL0     H25947  10.649   9.571  10.134  0.6773 -2.3304 -0.1550
  933MOL0     H25948  10.627   9.653  10.284  0.0284 -0.8955  1.1939
  933MOL0     H25949  10.438   9.495  10.232  0.1369  0.1616  0.7116
  933MOL0     H25950  10.556   9.362  10.226  0.6808 -0.5112  0.9686
  933MOL0     H25951  10.498   9.370  10.633  2.0507 -2.3856  0.2692
  933MOL0     H25952  10.849   9.997  10.323 -0.8731 -1.2332  0.9793
  933MOL0     H25953  10.975  10.286  10.191 -1.0643  2.1212  1.4828
  933MOL0     H25954  10.897  10.204  10.337  1.7694 -2.8320  2.0961
  933MOL0     H25955  11.063  10.243  10.335  0.6877  0.5572 -1.5886
  934MOL0     O25956   7.438   4.594   8.990  0.5020 -0.0093  0.0063
  934MOL0     C25957   7.393   4.707   8.982  0.2266  0.1924  0.0519
  934MOL0     O25958   7.464   4.825   8.965 -0.8099 -0.5635 -0.4190
  934MOL0     C25959   7.605   4.830   8.965  0.0944 -0.6081 -0.4913
  934MOL0     C25960   7.684   4.760   9.060 -0.7323  0.7582  0.0123
  934MOL0     C25961   7.823   4.771   9.046  0.7114  0.2430  0.0549
  934MOL0     C25962   7.886   4.870   8.965 -0.0700 -0.6016 -0.0776
  934MOL0     O25963   8.022   4.876   8.973 -0.1234 -0.1150  0.2736
  934MOL0     C25964   8.103   4.929   8.862 -0.1335  0.3155  1.0700
  934MOL0     C25965   8.109   4.828   8.737 -0.4821 -1.1255 -0.2815
  934MOL0     C25966   8.218   4.856   8.627  0.1265 -0.6614  0.0670
  934MOL0     C25967   8.172   4.967   8.527 -0.6085 -0.3436 -0.0340
  934MOL0     C25968   8.282   4.984   8.425 -0.7503 -0.0938 -0.0751
  934MOL0     C25969   8.234   5.069   8.315  0.9815  0.4804  0.1057
  934MOL0     C25970   8.338   5.095   8.208  0.1713  0.3965 -0.3432
  934MOL0     C25971   8.470   5.154   8.249 -0.5561 -0.2298 -0.3868
  934MOL0     N25972   8.569   5.165   8.140  0.5952 -0.0444 -0.3299
  934MOL0     C25973   8.613   5.282   8.083 -1.1101  0.3497  0.3134
  934MOL0     C25974   8.718   5.241   8.010 -0.0909  0.0628  0.2558
  934MOL0     C25975   8.799   5.336   7.936 -0.6219 -0.6959 -0.5822
  934MOL0     C25976   8.946   5.320   7.944 -0.5394 -0.2099 -0.6073
  934MOL0     C25977   9.008   5.248   7.823  0.7362  0.3350  0.7404
  934MOL0     C25978   8.979   5.310   7.680 -0.2834  0.2951  0.1307
  934MOL0     O25979   9.044   5.438   7.656 -0.3766 -0.4020 -0.2648
  934MOL0     C25980   9.181   5.453   7.637 -0.0048  0.7233  0.5345
  934MOL0     C25981   9.237   5.579   7.641  0.3423 -0.2597  0.0114
  934MOL0     C25982   9.371   5.600   7.627 -0.3283  0.5590  0.4113
  934MOL0     C25983   9.462   5.497   7.606  0.7376 -0.0574  0.0028
  934MOL0     C25984   9.609   5.522   7.586 -0.2584  0.0155 -0.0920
  934MOL0     O25985   9.678   5.414   7.538  0.3952  1.1027 -0.2040
  934MOL0     C25986   9.796   5.425   7.467 -0.5139 -0.5088  0.3026
  934MOL0     C25987   9.821   5.331   7.370 -0.6105 -0.5188  0.2668
  934MOL0     C25988   9.938   5.339   7.287 -0.7290 -0.5470  0.6188
  934MOL0     C25989  10.034   5.441   7.305  0.6454  0.2537 -0.8414
  934MOL0     O25990  10.145   5.449   7.232 -0.3792  0.3716  0.1934
  934MOL0     C25991  10.195   5.351   7.138  0.1622  0.7600 -0.5674
  934MOL0     C25992  10.347   5.375   7.153  0.5034  0.5310  0.3347
  934MOL0     C25993  10.422   5.265   7.108 -0.4883  0.4841  0.1743
  934MOL0     C25994  10.563   5.284   7.156 -0.5447 -1.6002  0.2984
  934MOL0     C25995  10.663   5.192   7.098 -0.1247  0.1187  0.5932
  934MOL0     C25996  10.666   5.185   6.943  0.6116 -0.2176 -0.2130
  934MOL0     C25997  10.794   5.133   6.895 -0.3696 -0.4094 -0.2577
  934MOL0     C25998  10.791   5.064   6.756 -0.1220 -0.1081 -0.0057
  934MOL0    Cl25999  10.689   5.126   6.626 -0.2448 -0.3176 -0.2088
  934MOL0     C26000  10.007   5.530   7.407  0.1817  0.5188 -0.0544
  934MOL0     C26001   9.890   5.530   7.479  0.0458 -0.1730 -0.4707
  934MOL0     O26002   9.654   5.636   7.589  0.3529  0.1241 -0.1983
  934MOL0     C26003   9.404   5.369   7.595 -0.5333  0.7756 -0.7153
  934MOL0     C26004   9.267   5.347   7.615 -0.6357 -0.4035  0.6626
  934MOL0     N26005   8.721   5.106   8.003 -0.6225  0.1531  0.2139
  934MOL0     N26006   8.622   5.060   8.075  0.6575 -0.4286 -0.0777
  934MOL0     C26007   7.806   4.954   8.898 -0.0039 -0.2780  0.5244
  934MOL0     C26008   7.665   4.937   8.895 -0.1061  0.0088  0.5941
  934MOL0     C26009   7.247   4.711   8.994  0.2297 -0.2850  0.2384
  934MOL0     C26010   7.177   4.814   8.926  0.0143 -1.0051 -0.3040
  934MOL0     C26011   7.040   4.845   8.959  0.0545  0.5090 -0.0780
  934MOL0     C26012   6.966   4.759   9.040 -0.0169  0.5340  0.2872
  934MOL0     O26013   6.831   4.759   9.056  0.1484  0.1687 -0.3218
  934MOL0     C26014   6.753   4.852   8.978  0.2583  0.4222  0.5589
  934MOL0     C26015   6.644   4.778   8.912  0.7964 -0.0746 -0.6555
  934MOL0     C26016   6.531   4.757   9.012  0.0682 -0.0291 -0.6048
  934MOL0     C26017   6.407   4.674   8.948 -0.0659  0.3360 -0.5769
  934MOL0     C26018   6.424   4.530   8.947  1.1429  1.0357  0.5173
  934MOL0     C26019   6.432   4.407   8.942 -0.4451 -0.4249 -0.2822
  934MOL0     C26020   7.038   4.647   9.091  0.1232 -0.8902 -0.2864
  934MOL0     C26021   7.169   4.615   9.073 -0.1347 -0.5295  0.9915
  934MOL0     C26022   7.224   4.494   9.146  0.5919 -0.1108  0.4379
  934MOL0     H26023   7.653   4.684   9.131 -0.6938 -2.3606 -3.0454
  934MOL0     H26024   7.878   4.720   9.125 -1.1085 -3.0175 -0.6091
  934MOL0     H26025   8.067   5.027   8.828 -0.0629  0.3382  1.0606
  934MOL0     H26026   8.204   4.949   8.902  0.6410  0.2518 -0.7775
  934MOL0     H26027   8.012   4.824   8.686 -0.8907 -1.0179  0.4773
  934MOL0     H26028   8.132   4.727   8.771 -0.0619 -0.3912  1.7835
  934MOL0     H26029   8.244   4.768   8.567  0.8296  2.1765 -4.1679
  934MOL0     H26030   8.313   4.892   8.667  0.9614  0.3255 -2.6268
  934MOL0     H26031   8.076   4.942   8.480 -0.6323  1.4266 -0.9958
  934MOL0     H26032   8.160   5.062   8.580  0.3568 -0.0520 -0.3169
  934MOL0     H26033   8.370   5.032   8.469 -1.7823  3.6504 -1.7420
  934MOL0     H26034   8.327   4.898   8.374  1.4177  0.2532  1.1405
  934MOL0     H26035   8.142   5.024   8.278  0.1882  1.0527  1.3063
  934MOL0     H26036   8.208   5.161   8.369  0.1225 -0.6792  1.7558
  934MOL0     H26037   8.299   5.143   8.117  2.6128 -0.7072 -2.0887
  934MOL0     H26038   8.361   4.995   8.171  2.3516  0.3063  1.1067
  934MOL0     H26039   8.439   5.242   8.305  0.1056  0.2644 -0.7777
  934MOL0     H26040   8.507   5.090   8.330 -0.6907  0.7496  0.4590
  934MOL0     H26041   8.581   5.382   8.107  2.2822  1.9869 -1.3016
  934MOL0     H26042   8.758   5.339   7.835 -2.6888 -1.5553  0.1795
  934MOL0     H26043   8.783   5.432   7.985  1.5391  0.9063 -2.7924
  934MOL0     H26044   9.000   5.413   7.962 -0.7754  0.6147 -3.6883
  934MOL0     H26045   8.984   5.264   8.031  0.5931  0.6171 -0.5450
  934MOL0     H26046   8.972   5.147   7.804  1.2874 -0.1232  2.0658
  934MOL0     H26047   9.116   5.245   7.840  0.6129 -0.0895  1.4736
  934MOL0     H26048   8.870   5.311   7.674 -0.5895 -0.2041  3.4557
  934MOL0     H26049   9.006   5.246   7.596  1.2357  1.6981 -0.5047
  934MOL0     H26050   9.163   5.657   7.653  0.7290  0.2269 -0.7160
  934MOL0     H26051   9.401   5.704   7.635 -1.9273  1.0184  0.7483
  934MOL0     H26052   9.745   5.257   7.351 -1.0507 -0.5732  2.0507
  934MOL0     H26053   9.958   5.271   7.205  5.0242 -0.8973  1.9163
  934MOL0     H26054  10.163   5.248   7.156  0.0919  0.3716 -2.6633
  934MOL0     H26055  10.168   5.376   7.035  2.3860  4.0048 -0.5317
  934MOL0     H26056  10.379   5.458   7.089  1.4434 -0.9642 -1.1928
  934MOL0     H26057  10.366   5.404   7.257  0.5999 -2.6801  1.3114
  934MOL0     H26058  10.395   5.167   7.148 -1.0508  0.5150 -0.1304
  934MOL0     H26059  10.408   5.257   7.000 -2.7311 -1.2268  0.5251
  934MOL0     H26060  10.567   5.277   7.265 -0.7399  4.4137  1.0086
  934MOL0     H26061  10.590   5.388   7.137 -3.9353 -0.6489  0.0567
  934MOL0     H26062  10.659   5.089   7.136  0.7534 -0.3821 -0.5977
  934MOL0     H26063  10.759   5.234   7.130  0.0918  1.1115 -1.2476
  934MOL0     H26064  10.581   5.126   6.906 -0.0327 -1.1628  2.5309
  934MOL0     H26065  10.649   5.290   6.916 -2.2920 -0.8532 -1.1932
  934MOL0     H26066  10.830   5.053   6.961 -1.1667  0.3275  1.1142
  934MOL0     H26067  10.873   5.208   6.905 -1.9251  0.9525  2.9264
  934MOL0     H26068  10.889   5.081   6.710 -0.2446  0.8073  0.0550
  934MOL0     H26069  10.772   4.958   6.772 -1.3049  0.2616  1.3083
  934MOL0     H26070  10.084   5.606   7.418  0.8449 -0.4695  3.5501
  934MOL0     H26071   9.893   5.598   7.564  1.5252  0.7836 -1.2379
  934MOL0     H26072   9.463   5.279   7.577  0.6318  1.3065  0.3099
  934MOL0     H26073   9.239   5.243   7.604 -0.8058 -0.4281  1.3229
  934MOL0     H26074   7.851   5.032   8.837 -2.1807  0.0895 -0.7069
  934MOL0     H26075   7.606   5.006   8.836 -3.2540 -1.6287  1.6371
  934MOL0     H26076   7.240   4.892   8.887  0.9414 -2.4368 -1.7771
  934MOL0     H26077   7.000   4.938   8.920  0.6404  0.1017 -1.7673
  934MOL0     H26078   6.798   4.918   8.904 -0.4492  0.4581  0.1586
  934MOL0     H26079   6.713   4.923   9.051 -1.2051 -2.4338  2.7498
  934MOL0     H26080   6.685   4.682   8.880  1.4932  1.0586 -3.5170
  934MOL0     H26081   6.601   4.834   8.829 -0.3711  0.3358  0.2044
  934MOL0     H26082   6.495   4.855   9.043  0.6170  0.3068 -1.0161
  934MOL0     H26083   6.566   4.700   9.099 -2.5171 -2.5812 -1.0675
  934MOL0     H26084   6.323   4.694   9.015  0.2306  2.1569 -0.6999
  934MOL0     H26085   6.389   4.716   8.849  0.4258  0.4085 -0.6351
  934MOL0     H26086   6.458   4.303   8.932 -0.3293 -0.4375  0.1232
  934MOL0     H26087   6.977   4.582   9.153  2.1651 -1.3883  1.3529
  934MOL0     H26088   7.162   4.480   9.234  0.0834  0.0959  0.1150
  934MOL0     H26089   7.216   4.411   9.074 -2.8034  0.4509  0.0012
  934MOL0     H26090   7.325   4.505   9.186  0.3671 -0.3946  1.0847
  935MOL0     O26091   1.987   0.984   7.635  1.0110  0.5802  1.2072
  935MOL0     C26092   1.968   0.922   7.530  1.1831 -0.0359  1.3001
  935MOL0     O26093   2.069   0.870   7.461  0.1284  0.5779  0.6469
  935MOL0     C26094   2.193   0.864   7.514 -0.5103  0.4885  0.3399
  935MOL0     C26095   2.298   0.908   7.439 -0.3324 -0.5647  0.2201
  935MOL0     C26096   2.430   0.891   7.470 -1.3940 -0.0130  0.5340
  935MOL0     C26097   2.467   0.830   7.593 -0.8222  0.8650  0.2706
  935MOL0     O26098   2.605   0.834   7.603 -0.5543  0.1905 -0.0056
  935MOL0     C26099   2.647   0.844   7.731  0.5171 -0.7736 -0.8936
  935MOL0     C26100   2.791   0.875   7.727 -0.5743 -0.4299 -0.0540
  935MOL0     C26101   2.872   0.746   7.683 -0.4868 -0.1153  0.4589
  935MOL0     C26102   3.023   0.736   7.690 -0.5136 -0.1507  0.2220
  935MOL0     C26103   3.074   0.775   7.833  1.3772  0.2288  0.3874
  935MOL0     C26104   3.221   0.772   7.851 -0.0664  1.0513 -0.3617
  935MOL0     C26105   3.268   0.819   7.988 -0.7834 -0.9354  0.7937
  935MOL0     C26106   3.425   0.833   7.976 -0.5532  0.8354 -0.9465
  935MOL0     N26107   3.487   0.922   8.075 -0.3158 -0.6205  0.1229
  935MOL0     C26108   3.537   1.049   8.050  0.8025 -0.5424 -0.5207
  935MOL0     C26109   3.613   1.082   8.157  0.4871 -0.1175  0.4165
  935MOL0     C26110   3.699   1.207   8.163 -0.3037  0.2842 -0.4518
  935MOL0     C26111   3.845   1.185   8.164  0.5835 -0.4702 -0.2065
  935MOL0     C26112   3.907   1.109   8.286 -0.0740  0.3047  0.5166
  935MOL0     C26113   4.050   1.154   8.316  0.1581  0.3992 -0.5883
  935MOL0     O26114   4.098   1.081   8.428  0.3208  0.5866 -0.2730
  935MOL0     C26115   4.231   1.048   8.440  0.4018  0.7251  0.2323
  935MOL0     C26116   4.339   1.121   8.378  0.7527 -0.3201  0.1743
  935MOL0     C26117   4.470   1.084   8.399 -0.9425 -0.2559 -0.1179
  935MOL0     C26118   4.502   0.967   8.473 -0.0586  0.1983  0.4511
  935MOL0     C26119   4.647   0.934   8.489  0.9754  0.1671  0.1395
  935MOL0     O26120   4.738   1.038   8.464 -0.4934  0.1378  0.1060
  935MOL0     C26121   4.866   0.996   8.492 -0.3703 -0.5805 -0.5624
  935MOL0     C26122   4.950   0.955   8.390 -0.3796 -0.1844 -0.7323
  935MOL0     C26123   5.083   0.915   8.420 -0.8091  0.2273 -0.4505
  935MOL0     C26124   5.126   0.902   8.551 -0.5007  0.4061 -0.2852
  935MOL0     O26125   5.255   0.877   8.599 -0.2668 -0.9273 -1.0606
  935MOL0     C26126   5.382   0.915   8.523  0.9468 -0.3941 -0.5187
  935MOL0     C26127   5.499   0.848   8.595  0.0490  0.8107 -0.2647
  935MOL0     C26128   5.627   0.841   8.515  0.2419  0.1073 -0.4856
  935MOL0     C26129   5.747   0.798   8.588  0.3245  0.1870 -0.0886
  935MOL0     C26130   5.878   0.765   8.499  1.0051  0.1780  0.5387
  935MOL0     C26131   5.973   0.878   8.464 -0.1444 -0.6814  0.6690
  935MOL0     C26132   6.068   0.842   8.352 -0.2554  0.1038 -0.3033
  935MOL0     C26133   6.001   0.850   8.216 -0.3098 -0.8654  0.0606
  935MOL0    Cl26134   5.949   1.016   8.181  0.2978 -0.0196 -0.2820
  935MOL0     C26135   5.039   0.932   8.650  0.4232 -0.7492 -0.4432
  935MOL0     C26136   4.906   0.978   8.627 -0.4609 -1.2101 -0.2167
  935MOL0     O26137   4.672   0.824   8.534 -0.2093  0.2445  0.2795
  935MOL0     C26138   4.401   0.894   8.531 -0.3602 -1.1190  0.8235
  935MOL0     C26139   4.261   0.936   8.514 -1.0129 -0.0042 -0.6632
  935MOL0     N26140   3.600   0.984   8.249  0.2312 -0.7156  0.2801
  935MOL0     N26141   3.509   0.896   8.205  0.0512 -0.2228  0.5899
  935MOL0     C26142   2.362   0.787   7.675  0.0030  0.1315  0.0977
  935MOL0     C26143   2.227   0.800   7.635 -0.4877 -0.0594  1.0621
  935MOL0     C26144   1.835   0.913   7.473 -0.2027 -0.3937 -0.8394
  935MOL0     C26145   1.756   1.024   7.484  0.4472  0.2369  0.1607
  935MOL0     C26146   1.623   1.013   7.426 -0.3138 -0.2827 -0.3976
  935MOL0     C26147   1.591   0.901   7.346  0.2094  1.6671  0.0543
  935MOL0     O26148   1.474   0.894   7.275  0.0797 -0.7641 -0.0318
  935MOL0     C26149   1.371   0.996   7.284  0.2831 -0.1465 -0.1106
  935MOL0     C26150   1.405   1.114   7.186 -0.1273  0.2747 -0.1593
  935MOL0     C26151   1.397   1.076   7.041  0.5093 -0.2389  0.1459
  935MOL0     C26152   1.447   1.187   6.951  0.3336 -0.9286  0.2830
  935MOL0     C26153   1.356   1.304   6.947 -0.3262  0.2162 -0.1961
  935MOL0     C26154   1.290   1.405   6.951  0.1861 -1.3587  1.1870
  935MOL0     C26155   1.676   0.796   7.344  0.5351 -0.1507  0.4620
  935MOL0     C26156   1.798   0.798   7.403  0.2591 -0.5471  0.3636
  935MOL0     C26157   1.877   0.670   7.402 -0.4555 -1.1926 -0.1686
  935MOL0     H26158   2.261   0.965   7.354 -2.3771  0.2814  1.5849
  935MOL0     H26159   2.498   0.920   7.390 -1.1610 -0.2823  0.6326
  935MOL0     H26160   2.601   0.925   7.788  2.0974 -0.7956  0.4951
  935MOL0     H26161   2.636   0.751   7.787 -0.2675  1.1418  2.4083
  935MOL0     H26162   2.822   0.915   7.824 -0.3753 -2.6175  0.8345
  935MOL0     H26163   2.812   0.956   7.657  0.5119 -1.5904 -1.1338
  935MOL0     H26164   2.849   0.725   7.578 -1.5159  0.2383  0.5998
  935MOL0     H26165   2.841   0.661   7.744 -1.1924 -0.4871 -0.4017
  935MOL0     H26166   3.054   0.639   7.649 -0.0664  0.4632 -0.9360
  935MOL0     H26167   3.062   0.815   7.625 -4.1690  0.5097 -1.3729
  935MOL0     H26168   3.028   0.873   7.852  2.8671  0.8741  0.8053
  935MOL0     H26169   3.025   0.716   7.911  0.8562  0.2905  0.1088
  935MOL0     H26170   3.262   0.670   7.843  0.9770  1.2059  2.2127
  935MOL0     H26171   3.264   0.839   7.775 -1.9382  2.6029 -0.1238
  935MOL0     H26172   3.243   0.754   8.072  0.4685 -3.2579 -0.5201
  935MOL0     H26173   3.233   0.920   8.012  0.5367 -0.7266  1.9591
  935MOL0     H26174   3.471   0.735   7.994 -2.5284  0.3658  2.3205
  935MOL0     H26175   3.457   0.868   7.877  1.2800  3.4460  0.4535
  935MOL0     H26176   3.525   1.090   7.951 -0.9145 -2.2925 -1.1035
  935MOL0     H26177   3.666   1.273   8.083 -0.2175  0.6744 -0.1666
  935MOL0     H26178   3.688   1.258   8.259  0.5599  2.3861 -1.4192
  935MOL0     H26179   3.875   1.144   8.067  0.4484  1.0371 -0.9155
  935MOL0     H26180   3.882   1.288   8.164 -1.0979  0.1547 -0.2340
  935MOL0     H26181   3.908   1.004   8.256  0.7757 -0.8264  4.0584
  935MOL0     H26182   3.857   1.126   8.382 -0.8124  2.2464 -0.1702
  935MOL0     H26183   4.044   1.259   8.347  1.4395  0.0792  0.8358
  935MOL0     H26184   4.119   1.138   8.233  0.9105  2.3800 -0.4103
  935MOL0     H26185   4.322   1.213   8.323 -1.2840 -0.3622  0.6621
  935MOL0     H26186   4.544   1.156   8.367  1.0079 -0.3116  3.6788
  935MOL0     H26187   4.920   0.971   8.287  1.4429  3.9358 -0.8356
  935MOL0     H26188   5.157   0.886   8.347 -1.7883 -0.2906 -1.2605
  935MOL0     H26189   5.374   0.878   8.420  2.2637 -0.0396 -0.7682
  935MOL0     H26190   5.390   1.024   8.521  1.5976 -0.3913  0.9621
  935MOL0     H26191   5.515   0.919   8.677  0.5712 -1.6413  1.8575
  935MOL0     H26192   5.468   0.748   8.625  0.3430  0.7953 -0.0060
  935MOL0     H26193   5.612   0.767   8.436  1.1770 -0.8535  0.2179
  935MOL0     H26194   5.652   0.938   8.472  0.1922  1.1098  1.6039
  935MOL0     H26195   5.719   0.711   8.648 -1.3558  1.4177  1.0047
  935MOL0     H26196   5.777   0.880   8.654 -1.8418 -0.8401  2.3304
  935MOL0     H26197   5.837   0.725   8.405 -0.0543 -0.5471  1.2889
  935MOL0     H26198   5.934   0.683   8.546 -0.5237 -0.7658  0.7833
  935MOL0     H26199   5.919   0.964   8.424 -0.5571 -0.0103  2.6065
  935MOL0     H26200   6.027   0.896   8.556  1.0938 -1.8916  0.2085
  935MOL0     H26201   6.101   0.739   8.370  1.9194  0.9555  0.9545
  935MOL0     H26202   6.160   0.899   8.366 -0.7961  0.6502  1.2676
  935MOL0     H26203   6.068   0.817   8.136  0.7190  1.0430  0.0815
  935MOL0     H26204   5.915   0.783   8.208 -2.1881  0.8223  3.6669
  935MOL0     H26205   5.070   0.916   8.752  0.4454 -0.0633 -0.3419
  935MOL0     H26206   4.840   0.993   8.712 -0.3193 -0.4248 -0.2377
  935MOL0     H26207   4.428   0.805   8.587 -0.3811 -3.1496 -2.1300
  935MOL0     H26208   4.186   0.876   8.564  1.5118  0.1689  3.7915
  935MOL0     H26209   2.389   0.746   7.771  0.2950 -0.2855 -0.1592
  935MOL0     H26210   2.157   0.763   7.709 -0.0285 -0.4546  1.3036
  935MOL0     H26211   1.779   1.111   7.544 -1.0746  0.4708  0.4591
  935MOL0     H26212   1.557   1.098   7.437 -1.7321 -1.1961 -1.5659
  935MOL0     H26213   1.353   1.029   7.387 -0.4315 -0.7984 -0.0151
  935MOL0     H26214   1.275   0.952   7.254 -0.3909  0.8459  0.5124
  935MOL0     H26215   1.508   1.150   7.198  1.3228 -1.8991 -4.1898
  935MOL0     H26216   1.335   1.196   7.201 -2.6919 -1.7548 -0.4473
  935MOL0     H26217   1.291   1.052   7.027  0.1942 -0.6880  2.8597
  935MOL0     H26218   1.452   0.984   7.019  0.8660  0.4065 -1.9131
  935MOL0     H26219   1.548   1.217   6.980 -0.7951  2.4907  1.0911
  935MOL0     H26220   1.451   1.151   6.848 -3.0357 -1.0945  0.1018
  935MOL0     H26221   1.222   1.487   6.958  0.3865 -1.0808  0.0522
  935MOL0     H26222   1.659   0.707   7.284 -0.5299  0.4394 -0.1334
  935MOL0     H26223   1.951   0.666   7.321  0.7623  2.9971  0.4833
  935MOL0     H26224   1.918   0.652   7.502 -0.5929 -1.1059 -0.0958
  935MOL0     H26225   1.811   0.584   7.389 -0.7215 -0.7486 -2.0710
  936MOL0     O26226   7.068   1.444   7.174 -0.3311  0.1733  0.7491
  936MOL0     C26227   7.002   1.387   7.091 -0.1167 -0.0893  0.6793
  936MOL0     O26228   7.027   1.267   7.044 -0.0113 -0.3014  0.1731
  936MOL0     C26229   7.130   1.194   7.100 -0.7144  0.6671  1.4136
  936MOL0     C26230   7.265   1.243   7.117  0.3750 -0.0406  0.1835
  936MOL0     C26231   7.352   1.167   7.201  0.3229 -0.8804 -0.9086
  936MOL0     C26232   7.317   1.037   7.245 -0.1391 -0.9804 -0.4756
  936MOL0     O26233   7.406   0.971   7.328  0.5130 -0.5631 -0.4754
  936MOL0     C26234   7.377   0.833   7.350 -0.3233  0.1655 -0.6888
  936MOL0     C26235   7.500   0.774   7.425 -0.1278 -0.0376 -0.2059
  936MOL0     C26236   7.525   0.626   7.370 -0.0584 -0.5939 -0.0594
  936MOL0     C26237   7.662   0.575   7.419 -0.0123 -1.2921  0.2194
  936MOL0     C26238   7.701   0.429   7.382  0.1239  0.2599 -0.3102
  936MOL0     C26239   7.856   0.410   7.423 -0.7297 -0.3874 -0.7703
  936MOL0     C26240   7.869   0.358   7.568  0.1531  0.2535  0.1292
  936MOL0     C26241   7.817   0.211   7.583  0.5590  0.3290 -1.2304
  936MOL0     N26242   7.813   0.167   7.729 -0.3231 -0.9601 -0.0531
  936MOL0     C26243   7.697   0.163   7.805 -0.1232 -0.2738  0.1256
  936MOL0     C26244   7.748   0.149   7.933 -0.0866 -0.3405 -0.0464
  936MOL0     C26245   7.677   0.167   8.060 -0.6389  0.2826  0.3748
  936MOL0     C26246   7.530   0.106   8.053 -0.2870  0.0942  0.2302
  936MOL0     C26247   7.529  -0.041   8.048  0.5683  0.0099  0.6708
  936MOL0     C26248   7.396  -0.110   8.067 -0.0513  0.7359  0.1245
  936MOL0     O26249   7.325  -0.103   7.942  0.6453 -0.3171  0.2768
  936MOL0     C26250   7.192  -0.114   7.938  0.1166 -0.4065 -0.6008
  936MOL0     C26251   7.115  -0.195   8.026  0.7764  0.0152 -0.1928
  936MOL0     C26252   6.978  -0.209   8.011  0.1483 -0.7219 -0.0956
  936MOL0     C26253   6.917  -0.139   7.906  0.5927 -0.0347 -0.5905
  936MOL0     C26254   6.761  -0.133   7.907  0.0145 -0.2629  0.1863
  936MOL0     O26255   6.712  -0.015   7.853  0.1362  0.4974 -0.3354
  936MOL0     C26256   6.580   0.015   7.842  0.2577  0.4261  0.5281
  936MOL0     C26257   6.486   0.004   7.945 -0.5695 -0.2789  0.5200
  936MOL0     C26258   6.359   0.058   7.928 -1.1621 -0.1909  0.0362
  936MOL0     C26259   6.317   0.116   7.809 -0.9121 -0.2926  0.4444
  936MOL0     O26260   6.191   0.160   7.805  0.7063  0.0663 -0.1208
  936MOL0     C26261   6.158   0.244   7.689 -0.1396  0.1712  0.0876
  936MOL0     C26262   6.027   0.327   7.722 -0.6809  0.6773  0.2196
  936MOL0     C26263   6.043   0.436   7.820  0.1207 -0.3011  0.1292
  936MOL0     C26264   5.920   0.542   7.814 -0.0612  0.8864 -0.0762
  936MOL0     C26265   5.913   0.651   7.919  0.7257  0.4213  0.4565
  936MOL0     C26266   5.819   0.766   7.860  0.7484  0.1200 -0.6483
  936MOL0     C26267   5.669   0.726   7.854 -0.0695  0.4668  0.7021
  936MOL0     C26268   5.577   0.833   7.897  0.5513 -0.6881 -0.3042
  936MOL0    Cl26269   5.630   0.928   8.047  0.1311 -0.4754  0.2389
  936MOL0     C26270   6.410   0.121   7.701  0.4774  0.6528 -0.2861
  936MOL0     C26271   6.539   0.062   7.718  1.4679 -0.4277 -0.9341
  936MOL0     O26272   6.700  -0.227   7.958 -0.2708  0.4794  0.2894
  936MOL0     C26273   6.989  -0.064   7.813  0.1182 -0.4363  0.0836
  936MOL0     C26274   7.131  -0.057   7.825 -0.3755  0.4322 -0.4768
  936MOL0     N26275   7.884   0.152   7.924  0.0825 -0.8215  0.7860
  936MOL0     N26276   7.924   0.171   7.801 -0.5158  0.3230 -0.1054
  936MOL0     C26277   7.192   0.989   7.199  0.2474  0.0294  1.2279
  936MOL0     C26278   7.103   1.060   7.126  0.4089  0.0059  0.3522
  936MOL0     C26279   6.882   1.459   7.023 -0.3191  0.7446  0.4071
  936MOL0     C26280   6.823   1.388   6.917  0.6106 -0.9219  0.2053
  936MOL0     C26281   6.707   1.439   6.850  0.8481 -0.2334 -0.3725
  936MOL0     C26282   6.660   1.572   6.884  0.7254 -0.6782  0.2837
  936MOL0     O26283   6.549   1.627   6.836  1.0818  0.5798  0.3393
  936MOL0     C26284   6.435   1.544   6.828 -0.2734 -0.6940 -0.6514
  936MOL0     C26285   6.305   1.631   6.799  0.2912  0.7680  0.5468
  936MOL0     C26286   6.183   1.539   6.807  0.4736 -0.0804 -0.3010
  936MOL0     C26287   6.081   1.578   6.915  0.0120  0.4245  0.6147
  936MOL0     C26288   6.143   1.544   7.043  0.7548 -0.6688  0.1405
  936MOL0     C26289   6.198   1.527   7.150  0.3844 -0.0085  0.4821
  936MOL0     C26290   6.720   1.638   6.989  0.9291 -0.3057  0.5109
  936MOL0     C26291   6.835   1.586   7.053 -0.2924 -0.4900 -1.3116
  936MOL0     C26292   6.872   1.679   7.166 -0.0873  0.4834 -0.1769
  936MOL0     H26293   7.287   1.344   7.087 -2.9266  1.2990  1.7677
  936MOL0     H26294   7.452   1.199   7.228 -1.3117  2.3361  2.0834
  936MOL0     H26295   7.294   0.817   7.420 -0.2076 -0.5796 -0.7156
  936MOL0     H26296   7.360   0.779   7.256 -3.6324  0.2342 -0.2591
  936MOL0     H26297   7.479   0.760   7.532 -0.1812 -0.5522 -0.2824
  936MOL0     H26298   7.591   0.833   7.409 -0.5165  0.0779 -2.1916
  936MOL0     H26299   7.522   0.641   7.262 -0.8103  0.5397  0.1067
  936MOL0     H26300   7.449   0.556   7.403 -1.2939 -0.7273 -2.9052
  936MOL0     H26301   7.742   0.643   7.389  0.7002 -1.3804  1.8523
  936MOL0     H26302   7.649   0.573   7.527 -1.0485 -0.5808  0.1220
  936MOL0     H26303   7.633   0.364   7.439 -0.8500  1.3155 -0.2353
  936MOL0     H26304   7.690   0.412   7.275  2.0621  0.9746 -0.6591
  936MOL0     H26305   7.902   0.343   7.350 -0.9978 -1.3570 -0.0692
  936MOL0     H26306   7.907   0.507   7.412 -1.4382  0.2772  1.3044
  936MOL0     H26307   7.823   0.418   7.647 -3.5696 -0.0564 -1.5705
  936MOL0     H26308   7.975   0.350   7.594 -0.2437 -0.2715  1.6386
  936MOL0     H26309   7.721   0.194   7.534  0.2255  2.9952 -1.6788
  936MOL0     H26310   7.889   0.143   7.536 -0.3272 -0.4048 -1.5556
  936MOL0     H26311   7.593   0.175   7.776  0.0736 -0.1710 -0.5570
  936MOL0     H26312   7.738   0.131   8.143 -0.5896 -3.8775 -1.2396
  936MOL0     H26313   7.674   0.276   8.064  2.1177  0.4204  0.6205
  936MOL0     H26314   7.476   0.136   8.143 -0.9808  2.3547 -0.8731
  936MOL0     H26315   7.482   0.144   7.963  0.0279 -0.0447  0.0034
  936MOL0     H26316   7.589  -0.067   8.136 -1.0343  1.1677  2.1548
  936MOL0     H26317   7.587  -0.085   7.966 -0.5860 -0.7064  0.2231
  936MOL0     H26318   7.335  -0.060   8.143 -2.6128  1.0155 -1.9775
  936MOL0     H26319   7.419  -0.214   8.093  2.0324  1.0857 -0.1540
  936MOL0     H26320   7.162  -0.236   8.115  0.4940  0.9529  0.4022
  936MOL0     H26321   6.922  -0.269   8.082 -2.2434  0.9497 -0.4683
  936MOL0     H26322   6.525  -0.030   8.041 -2.3498  1.5398  1.9881
  936MOL0     H26323   6.287   0.053   8.009 -1.6320 -0.7401 -0.4067
  936MOL0     H26324   6.237   0.318   7.673  2.5098 -2.5768 -0.6527
  936MOL0     H26325   6.161   0.179   7.601  2.0852  1.2168 -0.6750
  936MOL0     H26326   5.978   0.366   7.632 -1.5991 -3.4560 -1.2849
  936MOL0     H26327   5.951   0.262   7.768 -0.5058 -1.0315 -1.7696
  936MOL0     H26328   6.038   0.395   7.921 -2.0238  1.1988  0.6937
  936MOL0     H26329   6.136   0.492   7.803 -0.5242  0.9849  0.7311
  936MOL0     H26330   5.828   0.484   7.818  1.6745 -2.0328  1.2655
  936MOL0     H26331   5.929   0.595   7.719 -0.6151 -0.5384 -0.9639
  936MOL0     H26332   6.012   0.682   7.951  0.5783  0.4835  0.8563
  936MOL0     H26333   5.858   0.627   8.010 -2.8590  1.4383 -1.2455
  936MOL0     H26334   5.830   0.846   7.934 -4.9081 -1.8099  2.9747
  936MOL0     H26335   5.853   0.793   7.760  1.0602 -2.0450 -1.1875
  936MOL0     H26336   5.659   0.631   7.908  1.2005 -0.4233 -0.5500
  936MOL0     H26337   5.632   0.700   7.754  1.3433  2.0318 -0.2696
  936MOL0     H26338   5.551   0.911   7.824  0.0997 -1.0188 -0.5054
  936MOL0     H26339   5.478   0.791   7.916  0.2761 -0.5129 -1.2805
  936MOL0     H26340   6.382   0.152   7.601 -0.2812  0.2880 -0.1941
  936MOL0     H26341   6.601   0.077   7.630  0.2175  1.4599 -1.5589
  936MOL0     H26342   6.946  -0.014   7.727 -0.8096 -0.9311  0.2471
  936MOL0     H26343   7.185   0.008   7.756  1.0895  0.9878  1.1314
  936MOL0     H26344   7.166   0.889   7.233  0.1389 -0.2319  0.4049
  936MOL0     H26345   7.005   1.027   7.096  0.6518  1.6167 -2.6769
  936MOL0     H26346   6.856   1.289   6.888 -0.5482 -1.8437  1.8785
  936MOL0     H26347   6.667   1.379   6.768  0.4408  0.7551 -0.9222
  936MOL0     H26348   6.423   1.501   6.928  0.0023  0.1548 -0.2452
  936MOL0     H26349   6.443   1.467   6.750  1.1819 -0.6419 -0.5822
  936MOL0     H26350   6.319   1.680   6.703  0.0852  2.9547  1.5688
  936MOL0     H26351   6.298   1.702   6.882  0.1702 -1.2336  2.3641
  936MOL0     H26352   6.219   1.436   6.813  1.5315 -0.0649 -3.9082
  936MOL0     H26353   6.121   1.543   6.716 -2.9417 -4.9639  1.3613
  936MOL0     H26354   6.045   1.681   6.912 -0.3797  0.3284  1.5683
  936MOL0     H26355   5.994   1.512   6.909  0.5789 -0.2979  0.2443
  936MOL0     H26356   6.238   1.530   7.250  2.8170  1.9120 -0.4526
  936MOL0     H26357   6.666   1.726   7.025  0.0213 -1.0185  0.9463
  936MOL0     H26358   6.875   1.786   7.142 -1.4654  0.6980  0.4963
  936MOL0     H26359   6.811   1.664   7.255  2.6119 -1.8974  1.4739
  936MOL0     H26360   6.976   1.660   7.196  0.3415  3.0950  0.1946
  937MOL0     O26361   7.166   6.139   5.449 -0.1395  0.1717 -0.2269
  937MOL0     C26362   7.155   6.083   5.340 -0.3155 -0.2035 -0.0177
  937MOL0     O26363   7.244   6.106   5.237  0.2772  0.3138  1.1001
  937MOL0     C26364   7.343   6.198   5.249 -0.0921  0.5040  0.2174
  937MOL0     C26365   7.315   6.335   5.254  0.6573  0.2047 -0.1508
  937MOL0     C26366   7.423   6.433   5.272  0.1948  0.5033  0.0223
  937MOL0     C26367   7.551   6.391   5.302 -0.0447  1.4245  0.0859
  937MOL0     O26368   7.656   6.472   5.321 -0.2295  0.0004  0.1845
  937MOL0     C26369   7.655   6.615   5.294  0.7294 -0.4995  0.2557
  937MOL0     C26370   7.798   6.656   5.255  0.2582  0.0780 -0.2424
  937MOL0     C26371   7.886   6.652   5.381 -0.3647  0.5213 -0.4581
  937MOL0     C26372   8.000   6.752   5.366 -0.5500 -0.4427 -0.1044
  937MOL0     C26373   8.102   6.748   5.482  0.2984  0.0410 -1.0525
  937MOL0     C26374   8.226   6.834   5.462 -0.6565  0.0290 -0.0182
  937MOL0     C26375   8.305   6.854   5.586  0.1392  0.9764 -0.5329
  937MOL0     C26376   8.451   6.851   5.556 -0.0556 -0.0393 -0.0229
  937MOL0     N26377   8.548   6.871   5.663  0.3896 -0.2504 -0.1773
  937MOL0     C26378   8.620   6.977   5.698 -0.3932 -0.9316  0.3933
  937MOL0     C26379   8.703   6.936   5.796 -0.1918  0.5363  0.1924
  937MOL0     C26380   8.803   7.024   5.860 -0.3060  0.1619  0.8571
  937MOL0     C26381   8.853   6.993   5.994  0.2978 -0.8353 -0.3561
  937MOL0     C26382   8.966   7.089   6.055 -0.6577 -0.3913  0.1787
  937MOL0     C26383   8.937   7.237   6.030 -0.6333  0.3317  0.1907
  937MOL0     O26384   8.944   7.284   5.897  0.3078  0.1682 -0.4688
  937MOL0     C26385   9.071   7.329   5.860 -0.4197 -0.2958 -0.3033
  937MOL0     C26386   9.189   7.320   5.939  0.4239 -0.1995  0.4769
  937MOL0     C26387   9.312   7.361   5.907  0.0769 -1.4651  0.1696
  937MOL0     C26388   9.331   7.431   5.789  1.0464  0.2234 -0.5368
  937MOL0     C26389   9.465   7.492   5.757  0.4336  0.3995 -0.2116
  937MOL0     O26390   9.568   7.451   5.832 -0.3800  0.1732 -0.0244
  937MOL0     C26391   9.692   7.509   5.805  0.4749 -0.5616  0.2054
  937MOL0     C26392   9.809   7.435   5.803  0.3150  0.3335 -0.5213
  937MOL0     C26393   9.936   7.491   5.778  0.8991 -0.6196 -0.0298
  937MOL0     C26394   9.941   7.627   5.751  0.8065 -0.1031  0.0924
  937MOL0     O26395  10.051   7.689   5.703 -0.0309  0.5193 -0.1750
  937MOL0     C26396  10.162   7.686   5.791 -0.8124 -0.7777  0.6229
  937MOL0     C26397  10.269   7.763   5.717  0.3071  0.3756 -0.3663
  937MOL0     C26398  10.376   7.817   5.804  0.2729  0.4629 -0.4999
  937MOL0     C26399  10.469   7.913   5.718 -0.1908  0.4745 -0.0844
  937MOL0     C26400  10.560   7.999   5.805  0.1718  0.4572 -0.4988
  937MOL0     C26401  10.642   8.110   5.733  0.1660 -0.8325  0.6624
  937MOL0     C26402  10.686   8.227   5.825 -0.4027  0.8890  0.0500
  937MOL0     C26403  10.798   8.189   5.915 -0.4065  0.0697  0.4298
  937MOL0    Cl26404  10.938   8.138   5.820  0.0987 -0.1471  0.0477
  937MOL0     C26405   9.827   7.703   5.761 -0.4246  0.2734  1.1052
  937MOL0     C26406   9.710   7.650   5.783  0.7883  1.1752  0.4783
  937MOL0     O26407   9.460   7.573   5.661 -0.9952 -0.1062 -0.1998
  937MOL0     C26408   9.211   7.448   5.712 -0.2805  0.3210  0.1736
  937MOL0     C26409   9.085   7.398   5.746  0.0770 -0.4807  0.5527
  937MOL0     N26410   8.673   6.796   5.813 -0.0236 -0.3951 -0.0095
  937MOL0     N26411   8.593   6.758   5.721 -0.8191 -0.0034  0.6324
  937MOL0     C26412   7.582   6.257   5.295 -0.2368  0.3206 -0.6493
  937MOL0     C26413   7.472   6.162   5.280  0.1013  0.3554 -0.0823
  937MOL0     C26414   7.036   5.989   5.303  0.2984 -0.0299  0.3150
  937MOL0     C26415   7.037   5.936   5.176 -0.3350  0.7569  0.3906
  937MOL0     C26416   6.938   5.849   5.129 -0.2691 -0.2653 -0.1047
  937MOL0     C26417   6.824   5.815   5.210  0.8970  0.4731  0.2495
  937MOL0     O26418   6.731   5.725   5.159 -0.1968  0.4490 -0.1271
  937MOL0     C26419   6.605   5.714   5.233 -0.2944 -0.0517  0.2450
  937MOL0     C26420   6.513   5.619   5.160 -0.5131 -0.2396 -0.3905
  937MOL0     C26421   6.384   5.587   5.232 -0.4714  0.6574 -0.4217
  937MOL0     C26422   6.284   5.501   5.154 -0.1298  0.0553 -0.0034
  937MOL0     C26423   6.163   5.470   5.246  0.1785 -0.2252 -0.0908
  937MOL0     C26424   6.060   5.460   5.310  0.5035  0.7616  0.0710
  937MOL0     C26425   6.824   5.863   5.338  0.0060 -0.0833  0.3918
  937MOL0     C26426   6.932   5.944   5.383  0.0808 -1.3974 -0.6329
  937MOL0     C26427   6.933   5.985   5.529 -0.1419 -0.4309  0.0434
  937MOL0     H26428   7.211   6.365   5.247  0.5040 -0.2213  0.2378
  937MOL0     H26429   7.389   6.536   5.277 -4.6789 -0.8852  1.5475
  937MOL0     H26430   7.595   6.650   5.210 -0.1988  0.8773  1.4527
  937MOL0     H26431   7.613   6.668   5.379 -0.1582 -1.1118  0.2127
  937MOL0     H26432   7.797   6.759   5.217  2.1661  0.5832  0.9328
  937MOL0     H26433   7.835   6.590   5.176  0.6318  0.3047 -0.2593
  937MOL0     H26434   7.915   6.546   5.390 -1.7302 -0.0639 -2.2735
  937MOL0     H26435   7.823   6.675   5.467 -1.6373 -1.5966 -0.7595
  937MOL0     H26436   8.056   6.731   5.274  0.9337 -0.2185  0.7178
  937MOL0     H26437   7.957   6.852   5.377 -0.2320 -0.2852 -0.2937
  937MOL0     H26438   8.043   6.780   5.568  1.7213 -0.0039 -0.0306
  937MOL0     H26439   8.129   6.646   5.512 -1.9529 -0.9754 -2.2242
  937MOL0     H26440   8.283   6.785   5.382  0.3959 -1.3346  1.4891
  937MOL0     H26441   8.202   6.937   5.435  3.3828  1.1895  0.0592
  937MOL0     H26442   8.287   6.766   5.649 -1.9199  0.9650 -1.0590
  937MOL0     H26443   8.287   6.945   5.644 -0.7556  0.8828 -0.6519
  937MOL0     H26444   8.484   6.767   5.494 -0.2998  1.0343 -1.6704
  937MOL0     H26445   8.464   6.938   5.491 -1.3266 -0.3899 -0.7806
  937MOL0     H26446   8.611   7.074   5.650  0.9946 -1.9182 -2.0250
  937MOL0     H26447   8.886   7.034   5.790  0.5375 -0.9124  1.6714
  937MOL0     H26448   8.760   7.125   5.865 -0.4082  0.0996  1.3510
  937MOL0     H26449   8.774   6.989   6.069 -0.5659  0.4336 -1.1360
  937MOL0     H26450   8.890   6.892   5.975  2.0241  0.1543 -2.9702
  937MOL0     H26451   9.067   7.062   6.022 -0.3466 -0.5905  1.2396
  937MOL0     H26452   8.972   7.097   6.164 -2.7977  1.8829  0.2343
  937MOL0     H26453   8.990   7.297   6.105  1.6122 -0.2238 -0.8724
  937MOL0     H26454   8.832   7.261   6.050 -1.4776 -1.5863 -1.5771
  937MOL0     H26455   9.169   7.274   6.036 -3.3699 -0.0529 -0.0825
  937MOL0     H26456   9.392   7.351   5.981 -2.9942 -2.3379  3.6953
  937MOL0     H26457   9.799   7.329   5.823 -2.1892  0.7488  0.7125
  937MOL0     H26458  10.024   7.426   5.779  2.9013  1.9062 -0.2473
  937MOL0     H26459  10.143   7.742   5.883 -1.9981  0.5503 -0.3924
  937MOL0     H26460  10.186   7.584   5.821 -0.5913 -0.8028  0.3677
  937MOL0     H26461  10.301   7.696   5.636  0.2561 -1.3974  1.0170
  937MOL0     H26462  10.220   7.851   5.673 -0.3349  0.6141  0.7906
  937MOL0     H26463  10.337   7.865   5.894  1.7079 -0.1818  0.5108
  937MOL0     H26464  10.439   7.736   5.844  0.3520 -0.2292 -1.9608
  937MOL0     H26465  10.406   7.984   5.664 -0.9911  0.4204  0.7672
  937MOL0     H26466  10.528   7.854   5.647 -0.3191 -2.6089  2.1423
  937MOL0     H26467  10.632   7.937   5.859 -1.1453  0.1353  0.9600
  937MOL0     H26468  10.495   8.047   5.879  1.5519  1.9616 -0.2001
  937MOL0     H26469  10.734   8.073   5.687  0.3754 -2.2043  2.1060
  937MOL0     H26470  10.595   8.151   5.643  0.6791 -0.4685  0.5549
  937MOL0     H26471  10.604   8.277   5.877 -2.8141 -1.5692 -1.1664
  937MOL0     H26472  10.728   8.303   5.758  0.2043  1.3988  0.9757
  937MOL0     H26473  10.811   8.264   5.993 -2.0193 -1.9770  2.8409
  937MOL0     H26474  10.761   8.107   5.977 -3.8770  2.7080  2.2221
  937MOL0     H26475   9.835   7.810   5.744 -0.2993  0.3207  1.4425
  937MOL0     H26476   9.622   7.713   5.786 -0.1218 -0.0797  0.7976
  937MOL0     H26477   9.218   7.519   5.631 -0.1719  1.3453  1.0550
  937MOL0     H26478   9.003   7.422   5.679  2.7146  4.3889 -1.4657
  937MOL0     H26479   7.685   6.226   5.314 -1.1018 -3.9906 -1.8772
  937MOL0     H26480   7.493   6.056   5.290  0.1034  0.3581 -0.0576
  937MOL0     H26481   7.121   5.961   5.112  0.6458  0.4019  1.5176
  937MOL0     H26482   6.953   5.816   5.026  1.2623 -1.3363  0.4148
  937MOL0     H26483   6.566   5.816   5.244 -0.3740 -0.1451  0.8621
  937MOL0     H26484   6.623   5.679   5.335 -0.2587  1.9923  0.9995
  937MOL0     H26485   6.565   5.528   5.130 -0.3454  0.5721 -2.7695
  937MOL0     H26486   6.487   5.669   5.066 -1.9788 -1.3183 -0.5991
  937MOL0     H26487   6.326   5.677   5.252 -2.8463 -0.8844 -0.0620
  937MOL0     H26488   6.406   5.545   5.330  2.0473  0.6629 -0.8970
  937MOL0     H26489   6.239   5.560   5.073 -2.4900 -1.9290 -0.2398
  937MOL0     H26490   6.326   5.412   5.106 -0.9669  0.7358 -2.1191
  937MOL0     H26491   5.982   5.440   5.381  2.3865 -1.1861  1.7690
  937MOL0     H26492   6.748   5.825   5.405  0.7800 -1.1066  0.7202
  937MOL0     H26493   6.869   5.913   5.581 -1.4179 -0.4635 -1.5158
  937MOL0     H26494   7.037   5.987   5.563  0.2725 -0.7284 -1.1394
  937MOL0     H26495   6.903   6.090   5.534  0.8788 -0.1312  0.2644
  938MOL0     O26496   1.744   6.977   4.873  0.2136  0.5030  0.3816
  938MOL0     C26497   1.752   7.080   4.935 -0.9044  0.0662 -0.2417
  938MOL0     O26498   1.850   7.169   4.918  0.1957 -0.2696  0.7192
  938MOL0     C26499   1.969   7.132   4.846 -0.7319  0.2455 -0.1193
  938MOL0     C26500   2.094   7.149   4.920 -0.0897  0.0557 -0.6058
  938MOL0     C26501   2.215   7.119   4.845  1.0709  0.0036 -0.2464
  938MOL0     C26502   2.197   7.070   4.711 -0.0050  0.1137 -0.9238
  938MOL0     O26503   2.302   7.046   4.629  0.4033  0.1006  0.5548
  938MOL0     C26504   2.437   7.041   4.683  0.2167 -1.3219 -0.0354
  938MOL0     C26505   2.532   6.974   4.584 -0.4428  0.4209  0.4630
  938MOL0     C26506   2.678   7.001   4.629  0.1104  0.1184  0.4256
  938MOL0     C26507   2.769   6.997   4.512 -0.0200  0.2645 -0.6664
  938MOL0     C26508   2.903   7.024   4.558  0.0036  1.3274 -0.4130
  938MOL0     C26509   2.934   7.164   4.597  0.2256  0.3941  0.6802
  938MOL0     C26510   3.082   7.183   4.630 -0.0763 -0.3146 -0.2031
  938MOL0     C26511   3.133   7.127   4.760 -0.8603  0.1995  0.0457
  938MOL0     N26512   3.278   7.149   4.781 -0.4172 -0.3395 -0.0573
  938MOL0     C26513   3.381   7.115   4.690 -0.2434  0.2071  0.1002
  938MOL0     C26514   3.493   7.171   4.745 -0.1907  0.3484  0.5259
  938MOL0     C26515   3.631   7.152   4.690 -0.0270 -0.3802  0.3679
  938MOL0     C26516   3.680   7.002   4.702  0.9719 -1.5268  0.4203
  938MOL0     C26517   3.685   6.954   4.848  0.3568 -0.2432  0.2942
  938MOL0     C26518   3.748   7.051   4.955 -0.2250  0.0903 -0.3161
  938MOL0     O26519   3.885   7.074   4.943 -0.0618 -0.4482 -0.0886
  938MOL0     C26520   3.982   6.978   4.964  0.5307 -0.8774 -0.5559
  938MOL0     C26521   3.961   6.862   5.044 -0.2178 -0.0522  0.6824
  938MOL0     C26522   4.061   6.788   5.084 -0.3530 -0.1179 -0.6640
  938MOL0     C26523   4.187   6.812   5.029  0.1785  0.2068  0.1248
  938MOL0     C26524   4.296   6.715   5.047  0.6335 -0.3850  0.0889
  938MOL0     O26525   4.410   6.729   4.974 -0.7830 -0.2630 -0.7661
  938MOL0     C26526   4.512   6.653   5.005  0.4563 -0.6524 -0.5453
  938MOL0     C26527   4.635   6.717   5.025 -0.1685  0.6196 -1.0925
  938MOL0     C26528   4.747   6.645   5.054 -0.0224  0.1148  0.3324
  938MOL0     C26529   4.745   6.507   5.037 -0.8737 -0.1860 -0.4320
  938MOL0     O26530   4.855   6.424   5.037  0.6378 -0.4257 -0.3998
  938MOL0     C26531   4.988   6.475   5.006 -0.0836 -1.0558 -0.2152
  938MOL0     C26532   5.098   6.360   5.008 -0.0182 -0.0906  0.2339
  938MOL0     C26533   5.108   6.301   5.148 -0.1383  0.7667 -0.2794
  938MOL0     C26534   5.200   6.190   5.169  0.0962 -0.0446 -0.4448
  938MOL0     C26535   5.146   6.049   5.162 -0.6687 -0.8526  0.7015
  938MOL0     C26536   5.269   5.965   5.192 -0.6025  1.1440 -0.1581
  938MOL0     C26537   5.251   5.819   5.218  0.1384  1.3304  0.3871
  938MOL0     C26538   5.167   5.739   5.120  0.1519 -0.6059 -0.3658
  938MOL0    Cl26539   5.188   5.569   5.158 -0.4194 -0.0699  0.1959
  938MOL0     C26540   4.618   6.446   5.011  0.0316  0.8868  0.7330
  938MOL0     C26541   4.503   6.517   5.002  0.8766  0.3110  0.1662
  938MOL0     O26542   4.286   6.635   5.137  0.3498 -0.1881 -0.5419
  938MOL0     C26543   4.210   6.923   4.949 -0.0025  0.0929 -0.0148
  938MOL0     C26544   4.112   7.011   4.920  0.5496  0.3185  0.4442
  938MOL0     N26545   3.454   7.227   4.865 -0.2564 -0.3265 -0.4847
  938MOL0     N26546   3.329   7.219   4.886  0.0997 -1.2200  0.2209
  938MOL0     C26547   2.078   7.054   4.651 -1.1703  0.8329 -0.3841
  938MOL0     C26548   1.965   7.080   4.721 -0.4876 -0.6461  0.2845
  938MOL0     C26549   1.629   7.108   5.016 -0.2269  1.3422 -0.1999
  938MOL0     C26550   1.561   6.995   5.068  1.3072  0.4949 -0.5718
  938MOL0     C26551   1.441   7.005   5.135  0.6477  0.2805 -0.3345
  938MOL0     C26552   1.379   7.124   5.157 -1.2174 -1.1213 -0.2150
  938MOL0     O26553   1.265   7.150   5.233  0.6787 -0.2004  0.3706
  938MOL0     C26554   1.153   7.061   5.239 -0.3376 -0.2299  0.3416
  938MOL0     C26555   1.032   7.133   5.176  0.9132  0.8304 -0.1260
  938MOL0     C26556   1.049   7.153   5.026  0.1026  0.6235 -0.6747
  938MOL0     C26557   0.921   7.205   4.960  0.0617 -0.2315 -0.2940
  938MOL0     C26558   0.946   7.288   4.844 -0.4147 -0.0706  0.7859
  938MOL0     C26559   0.944   7.353   4.742 -0.1507 -0.1449  0.3090
  938MOL0     C26560   1.445   7.240   5.110  0.4208  0.1382  0.7651
  938MOL0     C26561   1.573   7.229   5.045 -0.1465 -0.3241  0.4953
  938MOL0     C26562   1.633   7.364   5.007  0.2571 -0.1375  0.3467
  938MOL0     H26563   2.098   7.198   5.017 -0.4672 -0.3676 -0.3749
  938MOL0     H26564   2.304   7.142   4.902  0.5747  1.4678 -0.0098
  938MOL0     H26565   2.466   7.146   4.682  2.8587 -1.9780  0.3635
  938MOL0     H26566   2.445   6.998   4.783 -0.0586 -0.7447  0.2393
  938MOL0     H26567   2.524   7.017   4.484 -0.3638 -0.1890  0.1886
  938MOL0     H26568   2.519   6.865   4.579  2.8895 -0.0033 -2.6044
  938MOL0     H26569   2.705   6.924   4.702 -0.6147 -0.8476 -0.2837
  938MOL0     H26570   2.695   7.095   4.682  5.6146 -0.3599  0.1458
  938MOL0     H26571   2.755   6.896   4.472 -3.5268 -0.0377  0.9431
  938MOL0     H26572   2.734   7.069   4.437 -1.5541 -1.1937 -1.4392
  938MOL0     H26573   2.920   6.955   4.641 -0.4340  0.4654 -1.0136
  938MOL0     H26574   2.969   6.984   4.480  2.1453  1.0557  1.4713
  938MOL0     H26575   2.905   7.231   4.516 -0.1890  1.9082  2.0262
  938MOL0     H26576   2.872   7.195   4.681 -1.4587  1.2428 -0.8041
  938MOL0     H26577   3.104   7.290   4.634  0.1569 -0.3940  2.1314
  938MOL0     H26578   3.143   7.135   4.553 -0.0806 -0.0230 -0.3869
  938MOL0     H26579   3.079   7.167   4.846 -0.4814  0.8679 -0.0175
  938MOL0     H26580   3.116   7.019   4.755  0.2367 -0.1938  3.0346
  938MOL0     H26581   3.370   7.062   4.596 -0.8741 -1.4553  1.0668
  938MOL0     H26582   3.615   7.176   4.584 -0.6153 -1.4786  0.1913
  938MOL0     H26583   3.708   7.218   4.730  3.0925 -2.5702 -1.5299
  938MOL0     H26584   3.610   6.939   4.648 -0.5743  1.1466 -0.8973
  938MOL0     H26585   3.782   6.995   4.663  0.4733 -0.3469 -1.1837
  938MOL0     H26586   3.735   6.858   4.863 -3.2899 -2.3819 -0.0192
  938MOL0     H26587   3.579   6.951   4.874 -0.5649  0.6559 -2.8649
  938MOL0     H26588   3.725   7.012   5.054 -0.5503  1.8243  0.3295
  938MOL0     H26589   3.687   7.142   4.952 -1.0052 -0.4676 -2.3668
  938MOL0     H26590   3.857   6.835   5.063 -0.6683  1.5871  0.7097
  938MOL0     H26591   4.046   6.706   5.153  1.9387  0.9261  1.2340
  938MOL0     H26592   4.640   6.826   5.018  2.0808  0.5745 -0.8578
  938MOL0     H26593   4.834   6.705   5.077  1.7283 -2.1135 -0.1446
  938MOL0     H26594   4.989   6.513   4.903 -3.5863  1.8634  0.6559
  938MOL0     H26595   5.028   6.549   5.075 -1.4459 -0.1824 -0.3327
  938MOL0     H26596   5.059   6.274   4.953  1.7374 -1.5651  1.1736
  938MOL0     H26597   5.189   6.408   4.970 -0.7477  0.9198 -0.2665
  938MOL0     H26598   5.142   6.378   5.218 -0.9295 -0.4230  1.5111
  938MOL0     H26599   5.007   6.271   5.178  0.0355 -0.0030 -0.4288
  938MOL0     H26600   5.241   6.208   5.268  0.4724  1.8575 -0.8924
  938MOL0     H26601   5.280   6.204   5.095  0.6050  1.3450  0.3366
  938MOL0     H26602   5.107   6.035   5.061  2.5949  0.0141 -0.8419
  938MOL0     H26603   5.065   6.029   5.232 -2.8105  3.5564 -0.1515
  938MOL0     H26604   5.334   5.969   5.104 -0.2634  0.2612  0.0410
  938MOL0     H26605   5.323   5.998   5.282 -0.0189  1.9691 -0.7909
  938MOL0     H26606   5.206   5.801   5.316  0.6385  0.4701  0.4728
  938MOL0     H26607   5.341   5.759   5.236 -1.4679 -0.8073  1.7744
  938MOL0     H26608   5.062   5.771   5.125  0.5326  0.5556  1.2030
  938MOL0     H26609   5.191   5.753   5.014 -1.3499  2.7684 -0.4020
  938MOL0     H26610   4.629   6.339   5.001  1.7379  1.1333 -0.3331
  938MOL0     H26611   4.406   6.469   4.996  0.6991  0.2479  2.5395
  938MOL0     H26612   4.310   6.941   4.910 -0.6417 -0.7089 -2.2193
  938MOL0     H26613   4.131   7.101   4.863  4.4845 -2.5994 -3.5279
  938MOL0     H26614   2.077   7.004   4.554 -1.7651 -2.8826  1.3822
  938MOL0     H26615   1.862   7.080   4.687 -0.6282  0.9661  0.6084
  938MOL0     H26616   1.594   6.894   5.047 -0.7670 -0.3201 -0.1246
  938MOL0     H26617   1.389   6.914   5.161 -2.1956  0.7553 -3.6973
  938MOL0     H26618   1.137   7.037   5.345  0.1090  1.6224  0.8676
  938MOL0     H26619   1.167   6.970   5.180 -1.0204  0.1113 -0.3577
  938MOL0     H26620   1.015   7.230   5.223  1.3545  1.1982 -0.7072
  938MOL0     H26621   0.950   7.066   5.205  1.5704  0.0472 -0.0236
  938MOL0     H26622   1.090   7.063   4.977 -0.0015  1.6951 -2.8378
  938MOL0     H26623   1.125   7.230   5.011  1.9978 -0.9608  0.2350
  938MOL0     H26624   0.854   7.120   4.940  1.0147 -0.5479 -2.3815
  938MOL0     H26625   0.873   7.276   5.028 -0.4791  0.9799 -1.8911
  938MOL0     H26626   0.945   7.416   4.655  1.7716 -0.6342 -0.0734
  938MOL0     H26627   1.381   7.328   5.110 -3.0677 -2.0970  3.0555
  938MOL0     H26628   1.648   7.368   4.899 -0.8212  2.1637  0.2095
  938MOL0     H26629   1.560   7.440   5.035 -2.3838 -2.0408 -0.9215
  938MOL0     H26630   1.724   7.390   5.063 -1.3139  1.2634  2.4140
  939MOL0     O26631   1.492   5.953   7.510 -0.4065  1.2158  0.6253
  939MOL0     C26632   1.484   5.884   7.603 -0.2552 -0.0594 -0.3284
  939MOL0     O26633   1.588   5.829   7.667  0.7020  0.2294 -0.2576
  939MOL0     C26634   1.713   5.806   7.615  0.1253  0.5752  0.0097
  939MOL0     C26635   1.750   5.822   7.483  0.8609  0.2492 -0.5536
  939MOL0     C26636   1.889   5.798   7.458  0.5530  0.2331  0.7747
  939MOL0     C26637   1.981   5.755   7.549 -0.6525  0.2725  0.0976
  939MOL0     O26638   2.109   5.714   7.524  0.0064  0.1420  0.6037
  939MOL0     C26639   2.135   5.659   7.394 -0.3679  1.1093  0.3923
  939MOL0     C26640   2.259   5.571   7.417  0.2083  0.3432 -0.3510
  939MOL0     C26641   2.374   5.654   7.473 -0.2042 -0.5019  0.1416
  939MOL0     C26642   2.508   5.576   7.439  0.1370  0.0112  0.2364
  939MOL0     C26643   2.621   5.670   7.491  0.5918 -0.0173  0.0515
  939MOL0     C26644   2.754   5.591   7.484  0.1769  0.8071 -0.2713
  939MOL0     C26645   2.873   5.689   7.527  0.7145  0.4802 -0.2830
  939MOL0     C26646   2.997   5.607   7.583 -0.4000 -0.2183 -0.4743
  939MOL0     N26647   3.113   5.687   7.611 -0.0911  0.1784 -0.1762
  939MOL0     C26648   3.169   5.726   7.722  0.3632 -0.0718  0.4356
  939MOL0     C26649   3.274   5.807   7.687  0.0960 -0.5285 -0.1675
  939MOL0     C26650   3.357   5.883   7.792 -0.4612  0.0436  0.4047
  939MOL0     C26651   3.482   5.804   7.827 -0.2304  0.7457  0.8238
  939MOL0     C26652   3.580   5.876   7.911 -0.0061 -0.3812  0.5207
  939MOL0     C26653   3.715   5.799   7.913 -0.0701 -1.2375 -0.1508
  939MOL0     O26654   3.791   5.845   7.795  0.4598  0.2410  0.0805
  939MOL0     C26655   3.908   5.770   7.769  0.5691  0.1575 -0.3697
  939MOL0     C26656   3.970   5.670   7.847  0.4784 -0.2696  0.9403
  939MOL0     C26657   4.096   5.629   7.821  0.3170 -0.2970 -0.0992
  939MOL0     C26658   4.161   5.662   7.700 -0.7454 -0.0233 -0.6380
  939MOL0     C26659   4.289   5.601   7.663 -0.6078 -0.0826 -0.3028
  939MOL0     O26660   4.328   5.605   7.534 -0.6929 -0.2704  0.1914
  939MOL0     C26661   4.447   5.547   7.489  0.5994  0.5397  0.5101
  939MOL0     C26662   4.492   5.429   7.545  0.6003 -0.2096  0.4344
  939MOL0     C26663   4.621   5.397   7.538 -1.2477  0.8907  0.6172
  939MOL0     C26664   4.711   5.460   7.445 -0.6343 -0.2516 -0.1108
  939MOL0     O26665   4.847   5.426   7.449  0.2628 -0.7055 -0.2331
  939MOL0     C26666   4.926   5.459   7.331  0.8193  0.1959  0.8914
  939MOL0     C26667   5.002   5.328   7.302 -0.2498  0.2427  0.0972
  939MOL0     C26668   5.118   5.350   7.206  0.2776  0.8997 -0.0837
  939MOL0     C26669   5.227   5.434   7.265 -0.0241  0.5893 -0.0295
  939MOL0     C26670   5.351   5.430   7.179 -0.0207  0.1932 -0.5609
  939MOL0     C26671   5.425   5.556   7.220 -0.2898  0.0514 -0.8679
  939MOL0     C26672   5.545   5.578   7.123  0.2542  0.0004 -0.1177
  939MOL0     C26673   5.630   5.699   7.153 -1.2182  0.7639 -0.7109
  939MOL0    Cl26674   5.796   5.690   7.095 -0.5394  0.1784  0.0460
  939MOL0     C26675   4.655   5.568   7.373  0.6542  0.2972 -0.0235
  939MOL0     C26676   4.534   5.612   7.398 -0.0102 -0.2568  0.1506
  939MOL0     O26677   4.345   5.545   7.754  0.6491 -0.3980 -0.1737
  939MOL0     C26678   4.093   5.749   7.612  0.2617  0.5292  0.5080
  939MOL0     C26679   3.973   5.803   7.649  0.2219 -0.4149 -0.8496
  939MOL0     N26680   3.278   5.821   7.555 -0.9891  0.1412 -0.3212
  939MOL0     N26681   3.187   5.743   7.510  0.5521 -0.0760  0.4549
  939MOL0     C26682   1.941   5.752   7.681 -0.3135 -0.3863  0.0179
  939MOL0     C26683   1.807   5.779   7.713 -0.3797  0.3290  0.2084
  939MOL0     C26684   1.354   5.873   7.668 -0.5592  0.0994  0.5052
  939MOL0     C26685   1.265   5.980   7.638 -0.1082 -0.1658  0.4763
  939MOL0     C26686   1.131   5.981   7.686 -0.2002  0.1648  0.6459
  939MOL0     C26687   1.083   5.857   7.748  0.0592 -0.0835 -0.0294
  939MOL0     O26688   0.947   5.839   7.788  0.6441  0.4475 -0.6263
  939MOL0     C26689   0.878   5.960   7.803 -0.0648  0.8774  0.0772
  939MOL0     C26690   0.733   5.935   7.851  0.5828  1.0632 -0.3622
  939MOL0     C26691   0.732   5.864   7.990  0.8605 -0.3207 -0.2775
  939MOL0     C26692   0.588   5.849   8.052  0.2125 -0.7242 -0.2831
  939MOL0     C26693   0.505   5.972   8.053  0.2754  0.2563 -0.0752
  939MOL0     C26694   0.420   6.059   8.065  0.4887  0.8019  0.0026
  939MOL0     C26695   1.171   5.757   7.784 -0.2039 -0.9780 -0.2150
  939MOL0     C26696   1.311   5.765   7.742 -0.1730  0.1966 -0.6654
  939MOL0     C26697   1.385   5.649   7.799 -0.8439 -0.1126  0.3216
  939MOL0     H26698   1.682   5.859   7.407 -2.9191 -0.0007  2.4374
  939MOL0     H26699   1.906   5.801   7.352 -2.4242  0.1698  0.1916
  939MOL0     H26700   2.053   5.592   7.365 -2.9407  3.2606  2.2554
  939MOL0     H26701   2.157   5.733   7.317 -2.7383 -0.2352 -1.6969
  939MOL0     H26702   2.289   5.536   7.318 -1.1335 -0.8152 -0.3842
  939MOL0     H26703   2.248   5.486   7.486  0.1896  0.4355 -0.2395
  939MOL0     H26704   2.352   5.667   7.579  0.0129  1.3137 -0.0066
  939MOL0     H26705   2.369   5.749   7.419 -2.7496 -1.6014 -1.7490
  939MOL0     H26706   2.499   5.481   7.492 -0.4308 -0.0805 -0.0200
  939MOL0     H26707   2.518   5.561   7.331  1.3481  2.5385 -0.0616
  939MOL0     H26708   2.628   5.759   7.429 -1.4338 -0.1512 -0.4325
  939MOL0     H26709   2.608   5.698   7.596  1.0781  0.3766  0.0079
  939MOL0     H26710   2.753   5.509   7.556  3.1862  0.8925  0.0082
  939MOL0     H26711   2.760   5.548   7.384 -1.7742 -0.1042 -0.0414
  939MOL0     H26712   2.843   5.757   7.608  3.0766  0.0765  1.0147
  939MOL0     H26713   2.895   5.755   7.443 -0.7592  1.8622  0.3684
  939MOL0     H26714   2.971   5.551   7.674  1.7711 -1.0183 -0.3016
  939MOL0     H26715   3.026   5.532   7.509 -2.2774 -0.3715 -1.1121
  939MOL0     H26716   3.117   5.705   7.815 -5.6021  0.8567 -2.2302
  939MOL0     H26717   3.376   5.985   7.759  4.3717 -0.5395  0.6826
  939MOL0     H26718   3.305   5.890   7.888  1.3467 -0.7391  1.4827
  939MOL0     H26719   3.456   5.710   7.877  1.0453  0.2043  0.5155
  939MOL0     H26720   3.529   5.785   7.730 -2.1389  1.8010 -0.3813
  939MOL0     H26721   3.543   5.881   8.014  0.1335  0.1010  0.5495
  939MOL0     H26722   3.591   5.974   7.865  0.2370 -0.5319  0.2543
  939MOL0     H26723   3.703   5.690   7.918  0.4763 -1.2566  1.3882
  939MOL0     H26724   3.766   5.826   8.006  0.7394 -1.5602 -0.4911
  939MOL0     H26725   3.927   5.644   7.942 -1.6101  3.9140  1.3785
  939MOL0     H26726   4.138   5.589   7.913  0.9380  1.1068  0.2472
  939MOL0     H26727   4.430   5.368   7.611  0.9435 -0.8612  0.1657
  939MOL0     H26728   4.674   5.325   7.600  1.8372  0.5450 -2.1972
  939MOL0     H26729   4.874   5.491   7.240  1.0327  2.3402  1.4855
  939MOL0     H26730   4.991   5.540   7.364  0.1472  1.1049  0.0472
  939MOL0     H26731   5.036   5.276   7.392 -2.3183  0.9389  1.3453
  939MOL0     H26732   4.935   5.256   7.255  1.0381 -0.4727 -0.7231
  939MOL0     H26733   5.166   5.255   7.178 -0.7477  0.2643  0.2565
  939MOL0     H26734   5.093   5.399   7.112  0.1951  1.1566  0.0715
  939MOL0     H26735   5.244   5.395   7.366 -0.1777  2.7766  0.8884
  939MOL0     H26736   5.185   5.534   7.278 -3.0390 -0.4779 -0.8842
  939MOL0     H26737   5.336   5.428   7.071  3.0853 -1.8620 -1.0903
  939MOL0     H26738   5.414   5.349   7.216 -2.0609 -2.1594 -1.9357
  939MOL0     H26739   5.368   5.649   7.214  0.0787  0.4071  0.6488
  939MOL0     H26740   5.448   5.556   7.327  1.4740 -1.3322 -1.2008
  939MOL0     H26741   5.512   5.572   7.019  2.2410  2.7636 -1.0193
  939MOL0     H26742   5.605   5.488   7.142  0.1285 -0.3250 -1.1940
  939MOL0     H26743   5.586   5.790   7.112 -2.8717  1.0049  1.4173
  939MOL0     H26744   5.641   5.716   7.260  2.9009 -0.9677 -0.6704
  939MOL0     H26745   4.705   5.616   7.290 -0.7538 -0.9593 -1.6543
  939MOL0     H26746   4.494   5.701   7.350 -0.4967 -0.4496  0.1941
  939MOL0     H26747   4.131   5.784   7.517  1.8987  1.0538  1.3037
  939MOL0     H26748   3.927   5.884   7.593 -2.4790  0.0568  1.8117
  939MOL0     H26749   2.013   5.719   7.756  0.7783 -1.9655 -1.6536
  939MOL0     H26750   1.775   5.776   7.816 -2.8216  1.1036 -0.4665
  939MOL0     H26751   1.300   6.065   7.580  1.6033 -1.8434 -1.0651
  939MOL0     H26752   1.061   6.062   7.670  1.3438  1.2509 -0.8803
  939MOL0     H26753   0.863   6.009   7.706 -1.3502  2.4662  1.0337
  939MOL0     H26754   0.938   6.022   7.869 -1.3607  1.8072  0.4351
  939MOL0     H26755   0.687   5.861   7.785 -0.4863  1.2990  0.1086
  939MOL0     H26756   0.666   6.021   7.855 -1.7942 -0.7458  0.2624
  939MOL0     H26757   0.793   5.929   8.053 -1.2396  2.6400 -1.0490
  939MOL0     H26758   0.786   5.769   7.994  1.2061 -0.0888  1.6862
  939MOL0     H26759   0.545   5.759   8.007  0.7556 -0.4758 -1.3516
  939MOL0     H26760   0.593   5.814   8.155  0.9763 -0.7291 -0.3091
  939MOL0     H26761   0.338   6.124   8.089 -0.8181 -1.3916  2.0115
  939MOL0     H26762   1.132   5.669   7.834 -2.4130  1.0134  1.8047
  939MOL0     H26763   1.378   5.574   7.721  3.0518 -1.9320  1.4736
  939MOL0     H26764   1.491   5.676   7.803 -0.7764 -0.2734 -0.3049
  939MOL0     H26765   1.345   5.617   7.896 -0.7057 -2.3819 -0.3193
  940MOL0     O26766   5.201   5.800   1.173 -0.4626  0.5102 -0.5973
  940MOL0     C26767   5.268   5.698   1.141  0.5917 -0.7947 -0.4730
  940MOL0     O26768   5.387   5.655   1.193  0.3054  0.2464  0.0462
  940MOL0     C26769   5.453   5.729   1.284 -0.1556 -0.5737 -0.4421
  940MOL0     C26770   5.389   5.781   1.401 -0.3761  1.1815  0.3542
  940MOL0     C26771   5.459   5.878   1.476 -0.7281  1.0923  0.1089
  940MOL0     C26772   5.591   5.910   1.451 -0.8531  0.2805  0.0543
  940MOL0     O26773   5.662   5.991   1.533 -0.0824  0.4543  0.3391
  940MOL0     C26774   5.609   6.056   1.649  1.0881  0.3243  0.1039
  940MOL0     C26775   5.725   6.125   1.732  0.4889 -0.1394 -0.2829
  940MOL0     C26776   5.814   6.025   1.807 -0.0006  0.8732 -0.0868
  940MOL0     C26777   5.892   6.088   1.922  0.9388  0.1785  0.8386
  940MOL0     C26778   6.003   6.003   1.982  0.1055  0.1451 -0.5029
  940MOL0     C26779   6.117   6.074   2.066  0.2518  0.3126 -0.5226
  940MOL0     C26780   6.209   6.165   1.974  0.3779  0.2142 -0.2375
  940MOL0     C26781   6.301   6.074   1.894  0.3563 -0.1235  0.5312
  940MOL0     N26782   6.409   6.133   1.812  0.1267  0.2929 -0.1632
  940MOL0     C26783   6.535   6.143   1.851 -0.5229 -0.5616 -0.0668
  940MOL0     C26784   6.590   6.207   1.747 -0.3279  0.5916  0.4452
  940MOL0     C26785   6.734   6.275   1.747 -0.0970 -0.3207 -0.5318
  940MOL0     C26786   6.843   6.169   1.719 -0.0343  0.3219 -0.2582
  940MOL0     C26787   6.981   6.253   1.701  0.1353  0.1018 -0.5020
  940MOL0     C26788   7.095   6.159   1.731  0.3167 -0.6994  1.1066
  940MOL0     O26789   7.215   6.247   1.727  0.3440  0.2272  0.4026
  940MOL0     C26790   7.326   6.202   1.785 -0.4734 -0.0825 -0.4548
  940MOL0     C26791   7.396   6.094   1.728  0.2472  0.4234 -0.0619
  940MOL0     C26792   7.514   6.050   1.787  0.4063 -0.4224 -0.2564
  940MOL0     C26793   7.555   6.108   1.913  0.2778 -0.1900  0.1012
  940MOL0     C26794   7.667   6.045   1.990 -0.1057  0.4753  0.0639
  940MOL0     O26795   7.735   5.945   1.924  0.2276  0.7878 -0.2604
  940MOL0     C26796   7.828   5.872   1.992 -0.7458 -0.6237 -0.9201
  940MOL0     C26797   7.793   5.792   2.107  0.1136  0.3269  0.0985
  940MOL0     C26798   7.885   5.704   2.169 -0.5365 -0.3175 -0.0172
  940MOL0     C26799   8.022   5.710   2.122  0.0326 -0.9041  0.8439
  940MOL0     O26800   8.118   5.635   2.178  0.0292 -0.3502 -0.1980
  940MOL0     C26801   8.241   5.600   2.121 -0.3570  0.6851  0.1724
  940MOL0     C26802   8.312   5.491   2.202  0.4180 -0.4395  0.8738
  940MOL0     C26803   8.431   5.456   2.120 -0.2530  0.6031  0.0038
  940MOL0     C26804   8.513   5.343   2.184 -0.3434  0.1957 -0.5577
  940MOL0     C26805   8.628   5.298   2.100  0.4526 -0.0510  0.3104
  940MOL0     C26806   8.738   5.402   2.086  0.6118 -0.1834 -0.5280
  940MOL0     C26807   8.876   5.359   2.024 -1.0249  0.2845 -0.5629
  940MOL0     C26808   8.875   5.256   1.906  0.7249 -0.7012  0.8176
  940MOL0    Cl26809   8.851   5.093   1.968 -0.4219  0.1294 -0.5823
  940MOL0     C26810   8.055   5.802   2.016 -0.0414  0.6830  0.0383
  940MOL0     C26811   7.959   5.872   1.949 -0.5256 -0.8184 -0.7114
  940MOL0     O26812   7.688   6.071   2.105 -0.6692  0.0584 -0.1603
  940MOL0     C26813   7.487   6.211   1.965  0.0433 -0.4855  0.3295
  940MOL0     C26814   7.375   6.259   1.903  1.0157  0.0767 -0.1710
  940MOL0     N26815   6.500   6.231   1.646  0.3235 -0.2296  1.0279
  940MOL0     N26816   6.385   6.192   1.691  0.9114  0.1467  0.3502
  940MOL0     C26817   5.652   5.841   1.345 -0.5192 -0.2306 -0.4754
  940MOL0     C26818   5.587   5.758   1.253 -1.0587 -1.2273 -0.7047
  940MOL0     C26819   5.204   5.613   1.048  0.4763  0.4242  0.2825
  940MOL0     C26820   5.081   5.561   1.072  0.5384  0.0286  0.4153
  940MOL0     C26821   5.020   5.482   0.976  0.4816 -0.1841 -0.5242
  940MOL0     C26822   5.091   5.445   0.864  0.1835  0.3630  1.2632
  940MOL0     O26823   5.038   5.368   0.759  0.5952  0.4271 -0.2018
  940MOL0     C26824   5.134   5.285   0.672  0.9774 -0.2881  0.5047
  940MOL0     C26825   5.064   5.149   0.651 -0.1734  1.2302 -0.8295
  940MOL0     C26826   4.945   5.173   0.564 -0.1532 -0.2991  0.2078
  940MOL0     C26827   4.812   5.100   0.596 -0.6594 -1.0300  0.3959
  940MOL0     C26828   4.733   5.140   0.705  0.1311 -0.5262  0.1521
  940MOL0     C26829   4.650   5.154   0.797 -0.6425 -0.0050  0.4703
  940MOL0     C26830   5.220   5.501   0.842  0.4376  1.1578  0.8921
  940MOL0     C26831   5.276   5.587   0.935 -0.6934  0.6973  1.1527
  940MOL0     C26832   5.410   5.653   0.886 -0.2089  0.1271 -0.4022
  940MOL0     H26833   5.289   5.765   1.440  0.1420  1.7958  2.0428
  940MOL0     H26834   5.408   5.908   1.567  0.7810 -1.3040  1.8753
  940MOL0     H26835   5.543   6.138   1.622 -0.0793 -0.0355  1.7142
  940MOL0     H26836   5.551   5.979   1.702  0.7736  1.0626  0.8429
  940MOL0     H26837   5.681   6.177   1.817  2.7548 -0.1186  0.9466
  940MOL0     H26838   5.786   6.197   1.676  0.1421 -0.8212 -1.6006
  940MOL0     H26839   5.888   5.993   1.733 -1.3264 -1.0092 -0.6723
  940MOL0     H26840   5.751   5.939   1.835 -0.6957  0.4721 -2.5987
  940MOL0     H26841   5.927   6.183   1.880 -1.2198  0.2736 -0.9531
  940MOL0     H26842   5.813   6.112   1.994 -2.4225 -0.7807 -2.2202
  940MOL0     H26843   5.967   5.910   2.027  0.3215 -1.0893 -2.7405
  940MOL0     H26844   6.061   5.962   1.899  1.7953  0.3569  0.5088
  940MOL0     H26845   6.068   6.132   2.145 -0.7147  1.7609 -2.1162
  940MOL0     H26846   6.174   5.997   2.119 -0.2708 -1.7105 -2.7097
  940MOL0     H26847   6.271   6.231   2.036  2.7010 -1.7041 -0.3854
  940MOL0     H26848   6.147   6.226   1.907  0.7162 -0.9190 -1.6222
  940MOL0     H26849   6.347   6.006   1.966 -0.4253 -0.2262  0.9346
  940MOL0     H26850   6.244   6.015   1.822 -0.5422  2.0109 -0.5971
  940MOL0     H26851   6.580   6.105   1.942  0.6437 -0.8558 -0.7419
  940MOL0     H26852   6.735   6.346   1.663  1.9777 -1.9141 -1.9365
  940MOL0     H26853   6.747   6.330   1.840  0.2243  0.7801 -1.2093
  940MOL0     H26854   6.838   6.105   1.808 -1.8748  2.3360  1.1802
  940MOL0     H26855   6.827   6.115   1.625  3.8801 -1.8093  0.0936
  940MOL0     H26856   6.981   6.331   1.777 -0.4351 -1.4910  1.2209
  940MOL0     H26857   6.987   6.289   1.598 -0.1360  1.8021  0.0577
  940MOL0     H26858   7.099   6.086   1.650 -0.4872 -1.3265  1.6309
  940MOL0     H26859   7.094   6.117   1.831 -2.8590 -1.2041  0.9683
  940MOL0     H26860   7.360   6.036   1.644  2.1386 -1.6435  0.4768
  940MOL0     H26861   7.573   5.971   1.742  1.9113  1.6419 -2.1150
  940MOL0     H26862   7.695   5.794   2.155 -0.5624  1.5655 -1.2653
  940MOL0     H26863   7.871   5.650   2.262  0.7270 -0.2092  0.2527
  940MOL0     H26864   8.230   5.571   2.016  1.0868  3.1829 -0.7506
  940MOL0     H26865   8.309   5.685   2.127 -0.6640  0.9163  5.8516
  940MOL0     H26866   8.342   5.537   2.297  2.6316 -0.6174  0.3052
  940MOL0     H26867   8.243   5.410   2.226  0.2502 -0.9663 -1.1946
  940MOL0     H26868   8.392   5.429   2.022 -3.2727 -5.3071  2.3620
  940MOL0     H26869   8.489   5.549   2.120 -3.5997  2.8430  0.2021
  940MOL0     H26870   8.444   5.259   2.195  0.0617 -0.2710 -1.5134
  940MOL0     H26871   8.544   5.380   2.283 -0.2483  0.4397 -0.6771
  940MOL0     H26872   8.585   5.274   2.002 -0.3819 -1.0151  0.8920
  940MOL0     H26873   8.669   5.202   2.132 -0.1913  0.1873  1.9250
  940MOL0     H26874   8.704   5.491   2.034 -1.1553 -0.6246 -0.1794
  940MOL0     H26875   8.764   5.434   2.187 -0.3602 -0.3207 -0.2303
  940MOL0     H26876   8.936   5.317   2.105  2.0702 -0.5905 -3.0897
  940MOL0     H26877   8.927   5.451   1.993  1.6302 -0.2717  1.8296
  940MOL0     H26878   8.792   5.283   1.840  1.8046 -1.2091 -0.8058
  940MOL0     H26879   8.970   5.263   1.852  0.0331 -0.8403 -0.4518
  940MOL0     H26880   8.156   5.801   1.976  0.4309 -1.4649  1.1248
  940MOL0     H26881   7.984   5.924   1.858 -2.9549 -0.0558 -1.0030
  940MOL0     H26882   7.519   6.264   2.054  0.4427  1.4702 -0.8964
  940MOL0     H26883   7.325   6.342   1.952 -0.9599 -1.0401 -0.1914
  940MOL0     H26884   5.753   5.878   1.329 -0.3228 -1.0979 -1.3472
  940MOL0     H26885   5.632   5.740   1.156 -1.8660  1.3472 -1.6372
  940MOL0     H26886   5.017   5.592   1.154 -1.0395  0.0343 -0.7917
  940MOL0     H26887   4.923   5.439   0.996  0.4579  1.2251  3.1032
  940MOL0     H26888   5.229   5.274   0.725  0.0991  3.9034  3.4953
  940MOL0     H26889   5.135   5.329   0.572 -1.4566 -2.7197 -0.7495
  940MOL0     H26890   5.042   5.108   0.750 -2.9259  1.6498 -1.1776
  940MOL0     H26891   5.141   5.087   0.606 -0.7708 -0.8150  0.8152
  940MOL0     H26892   4.980   5.132   0.468  0.5393 -3.2485  1.6118
  940MOL0     H26893   4.913   5.277   0.562 -0.3638 -0.3619  0.4104
  940MOL0     H26894   4.757   5.102   0.502  0.4024 -1.0144 -0.2388
  940MOL0     H26895   4.838   4.994   0.597 -0.6393 -1.1670 -2.8851
  940MOL0     H26896   4.596   5.174   0.887  1.5485  2.0134  1.4437
  940MOL0     H26897   5.281   5.500   0.752 -0.0047  1.6366  0.5805
  940MOL0     H26898   5.480   5.588   0.834  1.2534  1.2833  0.0508
  940MOL0     H26899   5.378   5.728   0.813  0.8033 -0.4707 -1.4821
  940MOL0     H26900   5.459   5.695   0.974  0.4716  0.6363 -1.0129
  941MOL0     O26901   6.566   8.871   1.983  0.4937  0.2587  0.2144
  941MOL0     C26902   6.528   8.791   2.071  0.3807  0.0999  0.6303
  941MOL0     O26903   6.613   8.694   2.127  0.2124 -1.1992  0.2736
  941MOL0     C26904   6.738   8.694   2.070 -0.5605  1.0856 -0.4328
  941MOL0     C26905   6.784   8.571   2.010  0.5407 -1.1412 -0.0517
  941MOL0     C26906   6.906   8.563   1.940  0.5675 -0.2723  0.0024
  941MOL0     C26907   6.991   8.677   1.939 -0.5396  0.6503  0.7292
  941MOL0     O26908   7.119   8.663   1.882 -0.1525 -0.2204 -0.6253
  941MOL0     C26909   7.197   8.782   1.882 -0.1932  0.3119  0.3837
  941MOL0     C26910   7.298   8.749   1.781 -0.2816 -0.2316 -0.9117
  941MOL0     C26911   7.401   8.860   1.773  0.2731 -0.0064  0.3633
  941MOL0     C26912   7.350   8.995   1.715 -0.8269 -0.2950  0.7444
  941MOL0     C26913   7.252   8.990   1.599  0.0202  1.2320 -0.1103
  941MOL0     C26914   7.316   8.936   1.467 -0.1378  0.9948  0.3496
  941MOL0     C26915   7.214   8.923   1.344  0.8484 -0.9384 -0.4151
  941MOL0     C26916   7.248   8.864   1.206  1.0296 -0.0006 -0.2306
  941MOL0     N26917   7.344   8.943   1.127  0.5248  0.2555 -0.0856
  941MOL0     C26918   7.320   9.067   1.076  0.0559  0.6130  0.2195
  941MOL0     C26919   7.447   9.102   1.022 -0.4890  0.4179 -1.1612
  941MOL0     C26920   7.468   9.234   0.955  0.4119  0.4122 -0.6335
  941MOL0     C26921   7.602   9.264   0.900  0.0469  0.3611 -0.5870
  941MOL0     C26922   7.610   9.181   0.781 -0.3347  0.1738 -0.1530
  941MOL0     C26923   7.763   9.123   0.776 -0.3247  0.9880  0.6274
  941MOL0     O26924   7.864   9.227   0.811 -0.7123  0.4348 -0.3564
  941MOL0     C26925   7.980   9.215   0.759 -0.6847  0.6750  0.3920
  941MOL0     C26926   8.036   9.090   0.727  0.7165 -0.1850  0.3793
  941MOL0     C26927   8.158   9.082   0.685 -0.2723 -0.6682 -0.3036
  941MOL0     C26928   8.246   9.193   0.675  0.3114  0.2862 -0.2003
  941MOL0     C26929   8.387   9.189   0.639  0.2215 -0.1516  0.6554
  941MOL0     O26930   8.462   9.306   0.628 -0.0954  0.3268 -0.2844
  941MOL0     C26931   8.596   9.327   0.636 -0.1107  0.3365  0.5317
  941MOL0     C26932   8.649   9.456   0.619 -0.1595  0.8969 -0.5524
  941MOL0     C26933   8.795   9.481   0.627 -0.0901 -0.7709 -0.4073
  941MOL0     C26934   8.884   9.377   0.640 -0.1464  0.4902 -0.7522
  941MOL0     O26935   9.021   9.399   0.632  0.5445  0.0193  0.0462
  941MOL0     C26936   9.062   9.510   0.545 -0.5040  0.3175  0.1391
  941MOL0     C26937   9.206   9.492   0.507 -0.0229  0.7229  0.1991
  941MOL0     C26938   9.292   9.489   0.641  0.6890 -0.3902  1.2342
  941MOL0     C26939   9.382   9.376   0.657 -0.5559  0.0277 -0.1651
  941MOL0     C26940   9.501   9.374   0.561 -0.0453 -0.1049 -0.6086
  941MOL0     C26941   9.561   9.238   0.513  0.1879  0.3007 -0.1312
  941MOL0     C26942   9.645   9.158   0.630  0.2684 -1.5308  1.7554
  941MOL0     C26943   9.779   9.223   0.663  0.0428 -0.4822  0.7503
  941MOL0    Cl26944   9.879   9.219   0.520  0.0767 -0.0919 -0.0909
  941MOL0     C26945   8.828   9.242   0.651 -0.1091 -0.3232  0.1258
  941MOL0     C26946   8.689   9.221   0.657  0.0919 -0.5397  0.1650
  941MOL0     O26947   8.434   9.079   0.626  0.9289 -0.3550 -0.0142
  941MOL0     C26948   8.194   9.322   0.693  0.4148 -0.7105 -1.0545
  941MOL0     C26949   8.059   9.330   0.741  0.2217 -0.1084 -0.1735
  941MOL0     N26950   7.534   9.003   1.053  0.0195 -0.4717  0.2648
  941MOL0     N26951   7.470   8.901   1.117 -0.0492 -0.7794 -0.3801
  941MOL0     C26952   6.940   8.796   2.003 -0.8349  0.9422  0.2108
  941MOL0     C26953   6.823   8.795   2.072  0.0455 -0.6638 -0.3036
  941MOL0     C26954   6.382   8.793   2.101 -0.3938  0.0978 -0.0757
  941MOL0     C26955   6.325   8.685   2.172 -1.3704 -0.0082 -0.2779
  941MOL0     C26956   6.190   8.678   2.200  0.5057 -0.1806 -0.4415
  941MOL0     C26957   6.103   8.781   2.162 -0.0401  0.3468  0.3710
  941MOL0     O26958   5.969   8.772   2.189 -0.8746 -1.1121 -0.4696
  941MOL0     C26959   5.945   8.830   2.318  0.5142  0.3833  0.5692
  941MOL0     C26960   5.794   8.841   2.326  0.4005  1.0025  0.0421
  941MOL0     C26961   5.731   8.714   2.388  0.2655 -0.3399 -0.8158
  941MOL0     C26962   5.592   8.695   2.347 -0.0457 -0.0678  0.1652
  941MOL0     C26963   5.504   8.786   2.422  0.6991  0.1540  0.2027
  941MOL0     C26964   5.446   8.864   2.487 -0.4898 -0.4835  0.4347
  941MOL0     C26965   6.151   8.890   2.082 -0.6977 -0.0178 -0.0554
  941MOL0     C26966   6.289   8.895   2.053 -0.2118 -0.1604  0.2116
  941MOL0     C26967   6.328   9.016   1.974  0.8703  0.2170 -0.0634
  941MOL0     H26968   6.729   8.478   2.021  0.2645 -0.9851 -0.1064
  941MOL0     H26969   6.949   8.473   1.897  2.5174  0.5935  0.0159
  941MOL0     H26970   7.148   8.877   1.863  0.1409  1.4556  4.4373
  941MOL0     H26971   7.237   8.803   1.981  0.3719 -0.8211  0.4097
  941MOL0     H26972   7.251   8.716   1.687  1.3523 -0.8701 -1.5325
  941MOL0     H26973   7.342   8.655   1.817 -0.5551 -0.7429 -1.8600
  941MOL0     H26974   7.482   8.813   1.715 -0.2190  0.5786 -0.8391
  941MOL0     H26975   7.448   8.874   1.870  1.3422 -2.5022  0.2843
  941MOL0     H26976   7.298   9.052   1.793  2.3084  1.1895  1.9035
  941MOL0     H26977   7.434   9.057   1.685 -0.8259 -1.0979 -1.0185
  941MOL0     H26978   7.168   8.925   1.624 -1.4164  2.9098 -0.3583
  941MOL0     H26979   7.203   9.086   1.582 -1.4834  0.1436 -2.6263
  941MOL0     H26980   7.402   9.001   1.444  0.2193  0.3388 -0.2050
  941MOL0     H26981   7.371   8.842   1.470 -0.9281  0.2609 -3.0886
  941MOL0     H26982   7.174   9.023   1.325 -0.2544 -1.8228 -3.3013
  941MOL0     H26983   7.130   8.871   1.392  0.8048 -0.3585  0.1399
  941MOL0     H26984   7.293   8.768   1.232 -0.1587  0.0227  2.1433
  941MOL0     H26985   7.159   8.840   1.147  1.4598 -1.8652 -0.1762
  941MOL0     H26986   7.229   9.126   1.065 -0.0976 -0.0484 -2.8321
  941MOL0     H26987   7.389   9.233   0.879 -0.5238 -0.7803  0.3175
  941MOL0     H26988   7.445   9.319   1.019  0.8442  1.2517 -1.5532
  941MOL0     H26989   7.619   9.372   0.886 -1.3759  0.6314 -0.3948
  941MOL0     H26990   7.669   9.235   0.981 -2.4944  0.6762  1.7527
  941MOL0     H26991   7.584   9.239   0.692 -0.0679 -1.0280 -1.0325
  941MOL0     H26992   7.538   9.099   0.789 -0.7645  0.6292  0.9205
  941MOL0     H26993   7.764   9.085   0.673 -1.1087 -1.1747  1.3453
  941MOL0     H26994   7.779   9.042   0.848 -0.3119  0.9897  0.6264
  941MOL0     H26995   7.983   8.995   0.734 -0.0543  0.3618  3.1845
  941MOL0     H26996   8.209   8.990   0.657  1.9767 -0.3141  2.2651
  941MOL0     H26997   8.575   9.535   0.627 -1.1604 -0.1805  1.6727
  941MOL0     H26998   8.826   9.581   0.598 -3.2630  0.0329 -1.4880
  941MOL0     H26999   8.997   9.499   0.457 -1.5703  0.9358  0.8166
  941MOL0     H27000   9.034   9.601   0.599 -1.9397 -0.5360  0.9106
  941MOL0     H27001   9.206   9.393   0.460 -2.3592  0.7138  0.0811
  941MOL0     H27002   9.236   9.561   0.428  1.9179 -2.4701 -2.1379
  941MOL0     H27003   9.333   9.590   0.650 -1.0532  0.4850 -0.0088
  941MOL0     H27004   9.231   9.473   0.730  1.5191 -1.6837  1.5996
  941MOL0     H27005   9.323   9.285   0.646 -0.3657 -0.1587  0.3444
  941MOL0     H27006   9.430   9.386   0.755  0.2786  0.6871 -0.6231
  941MOL0     H27007   9.589   9.412   0.614  0.3827  1.0602 -2.0859
  941MOL0     H27008   9.491   9.424   0.464  0.7063 -0.0879 -0.6849
  941MOL0     H27009   9.489   9.175   0.461 -0.3411  1.5258 -0.9379
  941MOL0     H27010   9.637   9.260   0.437  1.9245  1.6219  1.8473
  941MOL0     H27011   9.677   9.065   0.582  1.1259 -0.4600  0.1483
  941MOL0     H27012   9.576   9.149   0.714  1.0000  0.7385  2.7138
  941MOL0     H27013   9.764   9.326   0.695 -0.2260  0.0928 -1.1320
  941MOL0     H27014   9.826   9.162   0.741 -2.4717 -0.2109  2.5924
  941MOL0     H27015   8.892   9.159   0.680  1.9717  1.9565  2.6277
  941MOL0     H27016   8.656   9.120   0.678 -0.2702 -1.0282 -2.4891
  941MOL0     H27017   8.250   9.416   0.698 -1.5702  0.4510  1.0768
  941MOL0     H27018   8.023   9.431   0.758  0.9314 -0.1020  1.4918
  941MOL0     H27019   6.998   8.888   2.003 -0.5776  0.7811 -0.0480
  941MOL0     H27020   6.798   8.882   2.131  1.1262 -0.3281 -0.3346
  941MOL0     H27021   6.392   8.613   2.219 -3.0777 -0.3838  1.7341
  941MOL0     H27022   6.151   8.595   2.259 -1.3709  0.6532 -0.4235
  941MOL0     H27023   5.996   8.926   2.316 -1.1745  1.3747 -2.7674
  941MOL0     H27024   5.982   8.776   2.405 -2.2234  0.8732  2.1677
  941MOL0     H27025   5.757   8.871   2.227  3.3381  1.9562 -0.8621
  941MOL0     H27026   5.764   8.928   2.385 -3.5242  1.9087 -2.8248
  941MOL0     H27027   5.738   8.726   2.497  0.6309  0.3052 -0.9024
  941MOL0     H27028   5.800   8.633   2.363  1.6668 -0.7991  3.6480
  941MOL0     H27029   5.584   8.707   2.238  0.8461  0.3552  0.1420
  941MOL0     H27030   5.570   8.590   2.370  1.1685 -0.8350 -1.8896
  941MOL0     H27031   5.374   8.940   2.508 -3.1973 -2.4577 -1.0942
  941MOL0     H27032   6.078   8.961   2.043  0.1923  0.3877 -1.0606
  941MOL0     H27033   6.424   9.061   2.002  1.1816 -0.7165  0.4241
  941MOL0     H27034   6.328   8.979   1.872 -1.0469  1.1629 -0.4588
  941MOL0     H27035   6.258   9.100   1.968  0.7256 -0.0150 -3.3090
  942MOL0     O27036   7.218  10.112  10.176  0.8209 -0.1231  0.1390
  942MOL0     C27037   7.189  10.162  10.285 -0.5255  0.6053  0.1109
  942MOL0     O27038   7.279  10.183  10.380  1.0133 -0.8479 -0.4017
  942MOL0     C27039   7.412  10.159  10.357  0.9869  0.1531 -0.2593
  942MOL0     C27040   7.482  10.057  10.426  0.1108 -0.4838  0.3690
  942MOL0     C27041   7.615  10.029  10.400 -0.8245  0.3314 -0.4177
  942MOL0     C27042   7.689  10.103  10.309  0.2295  0.1972  0.6304
  942MOL0     O27043   7.821  10.065  10.282  0.1115  0.6828  0.1864
  942MOL0     C27044   7.926  10.128  10.360  0.6408 -0.0362  0.3001
  942MOL0     C27045   7.978  10.256  10.289  0.5346  0.8243 -0.6250
  942MOL0     C27046   8.105  10.316  10.352 -0.0069 -0.1456 -0.5888
  942MOL0     C27047   8.222  10.262  10.270  0.5930  0.3286 -0.1580
  942MOL0     C27048   8.355  10.314  10.320  0.2474  0.6100  0.7929
  942MOL0     C27049   8.475  10.269  10.232 -0.2678 -0.5894  0.3748
  942MOL0     C27050   8.612  10.333  10.283 -0.9636  0.1499  0.3427
  942MOL0     C27051   8.674  10.249  10.396  0.5593  0.1752  0.2444
  942MOL0     N27052   8.790  10.302  10.466 -0.0873 -1.1492  1.2556
  942MOL0     C27053   8.878  10.210  10.511 -0.0258 -0.7157  0.3665
  942MOL0     C27054   8.973  10.289  10.568 -0.6753  0.8738  0.7096
  942MOL0     C27055   9.105  10.238  10.634  0.4572 -0.3983  0.5601
  942MOL0     C27056   9.219  10.317  10.570 -0.8892  0.3884  0.4857
  942MOL0     C27057   9.332  10.347  10.664 -0.1176  0.0706 -0.0990
  942MOL0     C27058   9.443  10.430  10.598  0.1572  0.8433  0.4230
  942MOL0     O27059   9.535  10.456  10.699 -0.3045 -0.6219  0.6034
  942MOL0     C27060   9.647  10.528  10.665 -0.9150  0.2373  0.2957
  942MOL0     C27061   9.744  10.525  10.761  0.2628 -0.4983  0.3198
  942MOL0     C27062   9.873  10.568  10.728 -0.0542  0.2430 -0.5640
  942MOL0     C27063   9.902  10.634  10.607  0.4395 -0.1969 -0.0205
  942MOL0     C27064  10.029  10.702  10.591  0.1244  0.1989 -0.3289
  942MOL0     O27065  10.046  10.764  10.472  0.2738  0.3945  0.3125
  942MOL0     C27066  10.168  10.811  10.424 -0.1321 -0.0723  0.6285
  942MOL0     C27067  10.296  10.838  10.491  0.2582  0.4657 -0.6927
  942MOL0     C27068  10.407  10.875  10.411  0.2873 -0.1958  0.2376
  942MOL0     C27069  10.397  10.897  10.273  0.0777 -0.1601 -0.2786
  942MOL0     O27070  10.504  10.938  10.199 -0.2669  0.2432  0.3813
  942MOL0     C27071  10.622  10.968  10.267 -0.7417  0.2027 -0.1965
  942MOL0     C27072  10.713  11.043  10.169  0.4137  0.0353  0.7000
  942MOL0     C27073  10.654  11.174  10.114  0.3113  0.1583  0.1526
  942MOL0     C27074  10.755  11.262  10.055 -0.8180  0.1280  0.5910
  942MOL0     C27075  10.811  11.197   9.918 -0.9250  1.0711 -0.3645
  942MOL0     C27076  10.896  11.295   9.829  0.5544  0.3851 -0.5921
  942MOL0     C27077  10.847  11.431   9.800  0.2544  0.3429  0.2554
  942MOL0     C27078  10.930  11.494   9.691  0.0796 -0.1105  0.0390
  942MOL0    Cl27079  11.095  11.506   9.733 -0.1062 -0.0455  0.0138
  942MOL0     C27080  10.281  10.874  10.209  0.0803 -0.6553 -0.2143
  942MOL0     C27081  10.166  10.834  10.284 -0.3961 -0.1500 -0.2220
  942MOL0     O27082  10.119  10.691  10.680  0.1064  0.3142 -0.5047
  942MOL0     C27083   9.802  10.626  10.505 -0.2517 -0.1375  0.0352
  942MOL0     C27084   9.678  10.568  10.534 -0.4524 -0.5300  0.4009
  942MOL0     N27085   8.940  10.419  10.564  2.1079  0.2220 -0.0931
  942MOL0     N27086   8.827  10.425  10.505 -0.0660  0.3869  0.6683
  942MOL0     C27087   7.622  10.196  10.237  0.3910 -0.4129 -0.5874
  942MOL0     C27088   7.486  10.230  10.258 -0.2945 -0.5181  0.1135
  942MOL0     C27089   7.056  10.212  10.310 -0.0170 -0.9758 -0.6929
  942MOL0     C27090   7.033  10.333  10.385  0.4191  0.3078 -0.2349
  942MOL0     C27091   6.904  10.373  10.420 -0.0159 -0.2796 -0.2464
  942MOL0     C27092   6.803  10.290  10.386  0.6587  0.3744 -0.2680
  942MOL0     O27093   6.679  10.329  10.428  0.0932  0.2285  0.3623
  942MOL0     C27094   6.565  10.278  10.364  0.6340 -1.1400  0.7422
  942MOL0     C27095   6.435  10.365  10.392  0.2747 -0.6703  0.2853
  942MOL0     C27096   6.325  10.361  10.289  0.8315  1.4569 -0.3152
  942MOL0     C27097   6.213  10.467  10.308 -0.2201  0.0699  0.6439
  942MOL0     C27098   6.160  10.455  10.443  0.0384  0.0419 -0.3845
  942MOL0     C27099   6.109  10.440  10.547  0.2461  0.7723 -0.2376
  942MOL0     C27100   6.820  10.173  10.323  0.4558  0.3704 -0.2617
  942MOL0     C27101   6.945  10.130  10.277 -0.6180 -0.1329  0.0114
  942MOL0     C27102   6.950   9.998  10.200 -0.7787 -0.3269 -0.5291
  942MOL0     H27103   7.420   9.986  10.480  0.8747 -1.2009  0.3104
  942MOL0     H27104   7.665   9.941  10.439 -0.9194  1.0684  1.4563
  942MOL0     H27105   7.888  10.152  10.459 -0.0512  0.3242 -0.0519
  942MOL0     H27106   8.015  10.066  10.376  1.3898  0.6782 -0.9434
  942MOL0     H27107   7.900  10.332  10.287 -1.0228 -0.5716  1.9512
  942MOL0     H27108   8.004  10.220  10.189  2.4249 -1.6323  0.6259
  942MOL0     H27109   8.111  10.296  10.459 -2.5104 -1.7313 -0.6667
  942MOL0     H27110   8.092  10.423  10.335 -2.9534 -0.0718  1.4107
  942MOL0     H27111   8.241  10.155  10.278  3.0400  0.8159  1.7825
  942MOL0     H27112   8.208  10.292  10.166 -1.2992 -2.2093 -0.7371
  942MOL0     H27113   8.360  10.423  10.320 -3.1860  0.8951  0.9917
  942MOL0     H27114   8.377  10.290  10.424 -0.6689  2.1226  1.3752
  942MOL0     H27115   8.470  10.160  10.241 -0.8038 -0.6489 -0.5404
  942MOL0     H27116   8.451  10.302  10.130 -1.4557  2.5155  1.5507
  942MOL0     H27117   8.599  10.435  10.320  0.8954 -0.5535  3.2760
  942MOL0     H27118   8.682  10.340  10.199  0.1254  1.5025  1.3243
  942MOL0     H27119   8.606  10.235  10.480  0.1144  3.1226  0.4602
  942MOL0     H27120   8.690  10.148  10.355  0.5387  0.8781 -1.6064
  942MOL0     H27121   8.875  10.102  10.500 -0.4468 -0.7333  0.5979
  942MOL0     H27122   9.100  10.256  10.741  2.2462  1.1098  0.4386
  942MOL0     H27123   9.118  10.131  10.611 -1.3357 -0.2316 -1.5895
  942MOL0     H27124   9.268  10.260  10.490  2.0729 -2.6890  4.0655
  942MOL0     H27125   9.190  10.414  10.528  2.4945  1.3405  0.0621
  942MOL0     H27126   9.361  10.248  10.701 -2.7411 -2.0208 -3.0839
  942MOL0     H27127   9.286  10.404  10.746  0.0777  2.6338 -1.6667
  942MOL0     H27128   9.398  10.525  10.566 -0.5895  0.2428 -0.3507
  942MOL0     H27129   9.474  10.384  10.504 -1.5710  1.0259 -0.2720
  942MOL0     H27130   9.720  10.485  10.859  0.2954 -1.1746  0.0601
  942MOL0     H27131   9.950  10.560  10.804  0.4865 -3.0100 -1.3113
  942MOL0     H27132  10.314  10.804  10.593  0.5237 -2.9375 -1.7487
  942MOL0     H27133  10.501  10.892  10.464 -1.2050  2.4098  2.2786
  942MOL0     H27134  10.591  11.037  10.346  1.6917 -1.0192  1.9816
  942MOL0     H27135  10.664  10.871  10.295 -0.5620 -0.3408 -2.1867
  942MOL0     H27136  10.806  11.069  10.221 -0.1474 -0.6981  2.1056
  942MOL0     H27137  10.732  10.980  10.082 -1.7965  0.2138  0.0322
  942MOL0     H27138  10.569  11.166  10.044 -0.0549  0.4783  0.5573
  942MOL0     H27139  10.616  11.225  10.202 -0.3285 -1.4885  0.8861
  942MOL0     H27140  10.837  11.290  10.121 -1.6812  0.8879  1.3754
  942MOL0     H27141  10.709  11.356  10.022  1.4759  2.3250  3.1752
  942MOL0     H27142  10.734  11.140   9.865 -0.6171 -0.7266  0.9890
  942MOL0     H27143  10.880  11.120   9.954  0.8931  2.3251 -1.0854
  942MOL0     H27144  10.987  11.314   9.888 -1.7131  1.3031  2.9152
  942MOL0     H27145  10.921  11.243   9.736  3.7983  2.3050 -0.9710
  942MOL0     H27146  10.841  11.490   9.892 -0.6621 -0.4132  0.7027
  942MOL0     H27147  10.744  11.416   9.769  1.2753  0.3075 -3.5732
  942MOL0     H27148  10.938  11.426   9.605  0.9584  2.5406 -2.0920
  942MOL0     H27149  10.898  11.591   9.653  1.0259  0.5891  0.9860
  942MOL0     H27150  10.274  10.895  10.103 -2.6733 -0.4483 -0.0625
  942MOL0     H27151  10.074  10.820  10.227  1.1835 -3.5967 -2.2726
  942MOL0     H27152   9.827  10.680  10.414  1.6402  0.9496  1.1249
  942MOL0     H27153   9.614  10.554  10.447  0.1169  1.4917 -0.4030
  942MOL0     H27154   7.677  10.253  10.163  1.2761  0.5168  0.7473
  942MOL0     H27155   7.438  10.311  10.204 -0.4882  0.9863  2.4398
  942MOL0     H27156   7.115  10.393  10.422 -0.7875  1.3620  0.8521
  942MOL0     H27157   6.898  10.459  10.485  0.9952  0.0261 -0.5495
  942MOL0     H27158   6.537  10.180  10.403 -0.8498 -0.2831  1.9054
  942MOL0     H27159   6.584  10.277  10.256  1.6233 -1.2450  0.9082
  942MOL0     H27160   6.463  10.469  10.374  1.9930 -1.2611 -0.7048
  942MOL0     H27161   6.408  10.344  10.496  0.4525 -1.2553  0.2169
  942MOL0     H27162   6.289  10.258  10.284 -1.0583  2.1212 -1.5778
  942MOL0     H27163   6.368  10.369  10.188  0.1995 -3.7476 -1.2591
  942MOL0     H27164   6.251  10.569  10.302 -3.2915  1.3661  1.0708
  942MOL0     H27165   6.129  10.460  10.239  1.0873 -2.1688 -0.8481
  942MOL0     H27166   6.069  10.430  10.646 -0.8608 -1.6003 -0.8625
  942MOL0     H27167   6.730  10.114  10.306 -0.2040  1.0941  0.5857
  942MOL0     H27168   6.943  10.026  10.094 -2.6156 -0.1932 -0.4083
  942MOL0     H27169   7.046   9.951  10.221  0.2671  1.9788  0.1253
  942MOL0     H27170   6.878   9.918  10.221 -0.2904 -0.7079 -0.3007
  943MOL0     O27171   8.597   0.281   6.673 -0.1652 -0.5547 -0.0506
  943MOL0     C27172   8.495   0.233   6.718  0.7248 -0.2058  0.8207
  943MOL0     O27173   8.490   0.141   6.822  0.2403  0.1736  0.6559
  943MOL0     C27174   8.611   0.090   6.852  0.6254 -0.0314 -0.5999
  943MOL0     C27175   8.664   0.118   6.980  0.1625 -0.1082 -0.2690
  943MOL0     C27176   8.798   0.082   7.007 -0.1826  0.0542  0.7064
  943MOL0     C27177   8.879   0.006   6.921  0.4547 -0.7753 -0.0599
  943MOL0     O27178   9.005  -0.025   6.962 -0.0382 -0.3399  0.3946
  943MOL0     C27179   9.095  -0.088   6.872 -0.3605 -0.3002  0.7046
  943MOL0     C27180   9.239  -0.109   6.925 -0.1110 -0.7008 -0.1342
  943MOL0     C27181   9.334  -0.169   6.831 -0.7095 -0.6463  0.4822
  943MOL0     C27182   9.296  -0.306   6.801 -0.9539 -0.1813 -0.3270
  943MOL0     C27183   9.397  -0.385   6.710  0.2080 -0.5403 -0.0675
  943MOL0     C27184   9.521  -0.450   6.776 -0.6545  0.7882  1.5444
  943MOL0     C27185   9.606  -0.522   6.670  0.6290  0.5225  0.1896
  943MOL0     C27186   9.739  -0.578   6.729  1.1909 -0.1690 -0.0186
  943MOL0     N27187   9.830  -0.464   6.758 -0.1430  0.2487  0.4726
  943MOL0     C27188   9.947  -0.453   6.685 -0.8842  0.6922 -0.1459
  943MOL0     C27189  10.027  -0.371   6.752  0.5020 -0.5720  0.0668
  943MOL0     C27190  10.172  -0.332   6.752  0.3105 -0.3658  0.4723
  943MOL0     C27191  10.232  -0.334   6.614  0.4387  0.6563  0.4137
  943MOL0     C27192  10.377  -0.281   6.613 -0.6210 -0.1782 -0.0905
  943MOL0     C27193  10.467  -0.317   6.495  0.0770  0.5198 -0.5859
  943MOL0     O27194  10.587  -0.257   6.546 -0.5787  0.0710  0.1510
  943MOL0     C27195  10.705  -0.280   6.483 -0.1705  0.4549  0.3480
  943MOL0     C27196  10.719  -0.375   6.378 -0.0645 -0.1637  0.5305
  943MOL0     C27197  10.845  -0.394   6.314  0.7090 -0.9528 -0.6540
  943MOL0     C27198  10.959  -0.335   6.368 -0.3079 -0.5529 -0.2983
  943MOL0     C27199  11.084  -0.361   6.302 -0.1093 -0.7825  0.4004
  943MOL0     O27200  11.085  -0.401   6.174  0.1849  0.2671 -0.3056
  943MOL0     C27201  11.208  -0.424   6.114 -0.1812 -0.7697  0.1790
  943MOL0     C27202  11.219  -0.541   6.050 -0.3889 -0.4376  0.6872
  943MOL0     C27203  11.335  -0.581   5.985 -0.4507 -0.5317 -0.6324
  943MOL0     C27204  11.451  -0.487   5.984 -0.0687  0.6117 -0.5838
  943MOL0     O27205  11.557  -0.535   5.917 -0.4021  0.8991 -0.3364
  943MOL0     C27206  11.643  -0.446   5.849  1.0767 -0.6127  0.9940
  943MOL0     C27207  11.636  -0.483   5.698 -0.5798 -0.4964 -0.7105
  943MOL0     C27208  11.497  -0.487   5.650  0.2450  0.7107  0.1245
  943MOL0     C27209  11.489  -0.568   5.522  0.4378 -0.0295  0.0737
  943MOL0     C27210  11.353  -0.557   5.448  0.3611 -0.4561  0.4200
  943MOL0     C27211  11.339  -0.633   5.317  0.7345  0.4021 -1.2072
  943MOL0     C27212  11.432  -0.583   5.213  0.2269  0.2704 -0.0414
  943MOL0     C27213  11.431  -0.683   5.085  0.3183  0.0865  0.5381
  943MOL0    Cl27214  11.454  -0.855   5.132 -0.2927 -0.3885 -0.0977
  943MOL0     C27215  11.432  -0.362   6.042 -0.1137 -0.2501 -0.9698
  943MOL0     C27216  11.312  -0.332   6.106  0.8709  0.4011 -0.7017
  943MOL0     O27217  11.180  -0.346   6.369 -0.4261  0.1216 -0.7057
  943MOL0     C27218  10.944  -0.242   6.480 -0.1997  0.4728 -0.3464
  943MOL0     C27219  10.820  -0.204   6.527 -0.0360  0.5925  0.9279
  943MOL0     N27220   9.958  -0.328   6.865 -0.5605 -0.0656  0.1039
  943MOL0     N27221   9.843  -0.386   6.872 -0.6660  0.4112  0.4009
  943MOL0     C27222   8.814  -0.041   6.799  0.7238  0.0561 -0.1957
  943MOL0     C27223   8.688   0.011   6.760  0.1601 -0.6805 -0.3927
  943MOL0     C27224   8.361   0.266   6.640 -0.0534  0.5125 -0.4186
  943MOL0     C27225   8.250   0.213   6.704  0.3936 -0.0948 -1.1936
  943MOL0     C27226   8.124   0.230   6.642 -0.6901  0.5636 -0.5974
  943MOL0     C27227   8.112   0.279   6.511  0.2589 -0.6592  0.0395
  943MOL0     O27228   7.995   0.298   6.441  0.2076 -0.0263  0.5776
  943MOL0     C27229   7.871   0.271   6.506 -0.7111  0.7599 -0.2791
  943MOL0     C27230   7.750   0.317   6.420 -0.1665  0.2133 -0.6177
  943MOL0     C27231   7.765   0.263   6.272  0.3292  0.1637  0.3175
  943MOL0     C27232   7.745   0.111   6.267 -0.5616 -0.1426 -0.8392
  943MOL0     C27233   7.598   0.089   6.264  0.0677 -0.3542 -0.7805
  943MOL0     C27234   7.478   0.078   6.274 -1.4313  0.5976  0.1373
  943MOL0     C27235   8.228   0.327   6.456 -0.0450  0.0412  0.3491
  943MOL0     C27236   8.351   0.329   6.512  0.3036 -0.1366 -0.2044
  943MOL0     C27237   8.466   0.393   6.439  0.0136 -0.7174 -0.2653
  943MOL0     H27238   8.617   0.176   7.059  1.7662 -2.1471  2.3485
  943MOL0     H27239   8.841   0.115   7.101 -1.0372 -1.8485  1.8230
  943MOL0     H27240   9.058  -0.185   6.840 -0.7484 -0.0871  0.4996
  943MOL0     H27241   9.099  -0.025   6.782  0.2882 -0.3166  0.7168
  943MOL0     H27242   9.231  -0.176   7.011 -0.3967  0.4100  0.7209
  943MOL0     H27243   9.282  -0.012   6.951  0.4931 -0.9748 -0.0783
  943MOL0     H27244   9.439  -0.173   6.860 -0.5716 -1.8061 -0.1160
  943MOL0     H27245   9.332  -0.108   6.740 -0.7069  0.1686  1.0154
  943MOL0     H27246   9.284  -0.362   6.894 -1.7247 -2.8046 -1.8939
  943MOL0     H27247   9.197  -0.312   6.755 -0.9701  1.1497 -0.5034
  943MOL0     H27248   9.344  -0.461   6.650 -0.5495  0.1856 -0.3396
  943MOL0     H27249   9.423  -0.305   6.641 -3.3843  1.4634  0.6729
  943MOL0     H27250   9.590  -0.377   6.821  3.1174 -0.9158 -0.9644
  943MOL0     H27251   9.487  -0.513   6.859 -0.3909  1.0673  1.8734
  943MOL0     H27252   9.635  -0.450   6.592 -1.3927  1.0943 -0.0962
  943MOL0     H27253   9.545  -0.599   6.621 -0.9414 -0.9701  4.0756
  943MOL0     H27254   9.707  -0.628   6.820  1.2054 -2.0650 -1.0006
  943MOL0     H27255   9.784  -0.650   6.659 -1.0513  0.0462 -1.7926
  943MOL0     H27256   9.968  -0.506   6.593  1.9713  1.0876  0.1878
  943MOL0     H27257  10.203  -0.246   6.812 -2.1392  1.3533 -0.5012
  943MOL0     H27258  10.215  -0.414   6.809 -0.9791 -1.9867 -0.7714
  943MOL0     H27259  10.242  -0.434   6.571 -2.4085  0.6200 -0.3362
  943MOL0     H27260  10.167  -0.271   6.552  0.1121 -1.1082 -1.1357
  943MOL0     H27261  10.432  -0.316   6.702  3.4437 -0.1421 -2.3216
  943MOL0     H27262  10.379  -0.173   6.630  1.0537  0.0423 -1.3500
  943MOL0     H27263  10.430  -0.263   6.408  2.9233 -0.3291 -2.4500
  943MOL0     H27264  10.462  -0.424   6.476 -1.4201  0.4483  0.0291
  943MOL0     H27265  10.637  -0.429   6.333 -0.7680  1.6420 -0.4662
  943MOL0     H27266  10.851  -0.451   6.222  0.8416  0.6337 -1.6629
  943MOL0     H27267  11.142  -0.618   6.055 -0.6989 -0.1029  1.1127
  943MOL0     H27268  11.349  -0.682   5.947  1.0012  0.1153 -1.9539
  943MOL0     H27269  11.609  -0.342   5.855  0.8135 -0.6792  0.6548
  943MOL0     H27270  11.748  -0.452   5.879  1.1094  0.7563  1.2337
  943MOL0     H27271  11.683  -0.405   5.638 -0.4546 -0.3288 -0.3953
  943MOL0     H27272  11.685  -0.580   5.688  1.1038 -0.0997  2.5053
  943MOL0     H27273  11.426  -0.513   5.729 -0.0796 -1.4794 -0.8041
  943MOL0     H27274  11.472  -0.387   5.615  0.1922 -0.4252 -3.4980
  943MOL0     H27275  11.492  -0.674   5.549  1.1425 -0.4013 -1.3339
  943MOL0     H27276  11.560  -0.554   5.440 -3.5721  0.3552 -3.7369
  943MOL0     H27277  11.331  -0.450   5.434  0.4629  0.0813  3.5961
  943MOL0     H27278  11.272  -0.583   5.517  1.5899  0.1519  2.1661
  943MOL0     H27279  11.365  -0.737   5.341  2.6606  0.7231 -1.7269
  943MOL0     H27280  11.234  -0.625   5.288  0.5874 -0.0394 -0.8212
  943MOL0     H27281  11.536  -0.569   5.243  0.6850  0.0784 -1.4436
  943MOL0     H27282  11.392  -0.486   5.182 -3.6162 -2.0713 -3.4980
  943MOL0     H27283  11.332  -0.675   5.038 -0.4777  4.6695  2.3779
  943MOL0     H27284  11.513  -0.654   5.019 -0.4881  0.1919 -0.4348
  943MOL0     H27285  11.522  -0.301   6.046 -1.6165  2.0180 -0.0883
  943MOL0     H27286  11.302  -0.237   6.158  0.4216 -1.0698  2.0802
  943MOL0     H27287  11.029  -0.187   6.518 -0.9808  2.9527 -1.9345
  943MOL0     H27288  10.817  -0.124   6.600  0.3014  0.8509  0.6586
  943MOL0     H27289   8.875  -0.103   6.734 -0.6806 -3.2903  1.4339
  943MOL0     H27290   8.659   0.000   6.656  1.6633  1.4988 -1.1276
  943MOL0     H27291   8.255   0.170   6.804 -3.2036 -3.6480 -2.2587
  943MOL0     H27292   8.035   0.199   6.695  0.5977 -1.7791  0.3703
  943MOL0     H27293   7.859   0.311   6.607  2.8146  2.0919 -0.2687
  943MOL0     H27294   7.872   0.163   6.523 -1.1712  1.0547  1.9482
  943MOL0     H27295   7.746   0.426   6.415  6.1385  0.8318  0.1936
  943MOL0     H27296   7.658   0.283   6.468 -0.2694  2.0765  0.5692
  943MOL0     H27297   7.861   0.288   6.226  1.2364 -1.4816  1.2186
  943MOL0     H27298   7.693   0.326   6.219 -0.2158  0.3598  1.2748
  943MOL0     H27299   7.789   0.068   6.177  1.9121  1.8386 -0.6705
  943MOL0     H27300   7.778   0.056   6.356 -0.7586 -1.8475 -1.7715
  943MOL0     H27301   7.373   0.064   6.294 -1.1920 -1.4401  0.1744
  943MOL0     H27302   8.224   0.364   6.354 -0.5586 -4.7298 -1.6019
  943MOL0     H27303   8.431   0.469   6.368  0.1156 -0.9923 -0.6122
  943MOL0     H27304   8.540   0.441   6.505 -0.8464  1.4627 -0.7916
  943MOL0     H27305   8.511   0.316   6.376 -1.3200  0.0946 -2.3236
  944MOL0     O27306   5.131   9.270  10.185 -0.0441 -0.9869  0.2438
  944MOL0     C27307   5.161   9.197  10.280  0.6767  0.1467  0.1065
  944MOL0     O27308   5.074   9.153  10.368  0.6294  0.4266 -0.4672
  944MOL0     C27309   4.963   9.211  10.408  0.0321 -0.3036 -0.5073
  944MOL0     C27310   4.864   9.136  10.467 -0.6564 -0.9509 -0.3679
  944MOL0     C27311   4.741   9.193  10.491 -0.3246  0.2973  0.2081
  944MOL0     C27312   4.713   9.330  10.475 -0.0159  0.6323 -0.4315
  944MOL0     O27313   4.589   9.376  10.491  0.1044 -0.0040  0.0043
  944MOL0     C27314   4.584   9.496  10.570 -0.6214 -0.9073  1.1120
  944MOL0     C27315   4.447   9.520  10.631  0.1503  0.3314 -0.0439
  944MOL0     C27316   4.431   9.654  10.700  0.4647  0.6057  0.0241
  944MOL0     C27317   4.486   9.666  10.839  0.3930  0.2883 -0.2924
  944MOL0     C27318   4.434   9.803  10.899  0.3521  0.6325 -0.1669
  944MOL0     C27319   4.502   9.815  11.037 -0.2725 -0.2379 -1.1058
  944MOL0     C27320   4.659   9.801  11.031 -0.2720 -0.2622 -0.0084
  944MOL0     C27321   4.711   9.880  11.148 -1.0680  0.2115 -0.5503
  944MOL0     N27322   4.860   9.877  11.159  0.0855 -0.5268 -0.5741
  944MOL0     C27323   4.929   9.839  11.267 -0.0930 -0.0487  0.1704
  944MOL0     C27324   5.055   9.882  11.247  0.0124 -0.5212  0.1011
  944MOL0     C27325   5.176   9.848  11.331 -0.8223  0.2504  0.3065
  944MOL0     C27326   5.315   9.886  11.267  1.1725 -0.8341 -0.4131
  944MOL0     C27327   5.430   9.801  11.332 -0.5325 -0.3740 -0.0809
  944MOL0     C27328   5.447   9.845  11.482 -0.0038  0.0705 -0.0530
  944MOL0     O27329   5.565   9.798  11.536  0.1569 -0.3506 -0.8324
  944MOL0     C27330   5.680   9.866  11.515 -0.6840  0.1054 -0.5953
  944MOL0     C27331   5.791   9.811  11.566  0.2507  0.7061  0.2041
  944MOL0     C27332   5.917   9.857  11.539 -0.3387 -0.3670  0.6900
  944MOL0     C27333   5.939   9.978  11.469  0.0454  0.6814 -0.9842
  944MOL0     C27334   6.067  10.048  11.455  0.2128  0.6535 -0.7677
  944MOL0     O27335   6.063  10.170  11.386  0.0005  0.1446 -0.1319
  944MOL0     C27336   6.188  10.228  11.356 -0.0856  0.0325  0.2451
  944MOL0     C27337   6.199  10.370  11.363  0.2057  1.1708 -0.7857
  944MOL0     C27338   6.319  10.429  11.335 -0.8617 -0.1381  0.6982
  944MOL0     C27339   6.420  10.357  11.281 -0.7638  0.0897 -0.2150
  944MOL0     O27340   6.535  10.416  11.247  0.4178  0.3227  0.0568
  944MOL0     C27341   6.519  10.526  11.156  0.3904  0.1963 -0.3715
  944MOL0     C27342   6.652  10.579  11.107  0.3808 -0.1145 -0.2562
  944MOL0     C27343   6.731  10.478  11.023 -0.2285  0.0531  0.2903
  944MOL0     C27344   6.862  10.536  10.967  0.4772  0.7219 -0.4756
  944MOL0     C27345   6.924  10.427  10.883 -0.0701  1.0382  0.1564
  944MOL0     C27346   7.075  10.444  10.863  0.1193  0.0785 -0.4119
  944MOL0     C27347   7.135  10.327  10.784 -0.5349 -0.0385 -0.9835
  944MOL0     C27348   7.274  10.358  10.735 -0.1853 -0.1863  0.3574
  944MOL0    Cl27349   7.275  10.514  10.647  0.5820 -0.0501 -0.1002
  944MOL0     C27350   6.410  10.215  11.280  0.3083  1.3163  0.0997
  944MOL0     C27351   6.286  10.153  11.301 -0.0772 -0.0253 -0.3291
  944MOL0     O27352   6.165   9.997  11.513  0.4123 -0.2699  0.5354
  944MOL0     C27353   5.821  10.042  11.424 -0.9498  0.2191  0.0081
  944MOL0     C27354   5.692   9.988  11.456  0.1921 -0.2222  0.2450
  944MOL0     N27355   5.054   9.950  11.128  0.5852 -1.0690  0.1825
  944MOL0     N27356   4.935   9.953  11.072 -0.6699  1.1061  0.1637
  944MOL0     C27357   4.815   9.413  10.431 -0.4468  0.4220 -0.3112
  944MOL0     C27358   4.938   9.355  10.403  0.3425 -0.9001 -0.4437
  944MOL0     C27359   5.298   9.135  10.296 -0.2449  0.1923  0.9418
  944MOL0     C27360   5.316   9.038  10.399  0.0471 -0.1241  0.1340
  944MOL0     C27361   5.442   8.982  10.422 -0.3249  0.5086 -0.9185
  944MOL0     C27362   5.556   9.012  10.347 -0.1681 -0.6465 -0.6648
  944MOL0     O27363   5.677   8.952  10.368  0.1230 -0.0326 -0.2653
  944MOL0     C27364   5.682   8.815  10.316  0.1320  0.0452 -0.2659
  944MOL0     C27365   5.826   8.780  10.278 -0.2596  0.0745 -0.3221
  944MOL0     C27366   5.861   8.637  10.268  0.2292  0.5949 -0.0630
  944MOL0     C27367   5.768   8.566  10.164 -0.2170 -0.2273  0.5545
  944MOL0     C27368   5.776   8.413  10.180 -0.3879  0.4558  0.6234
  944MOL0     C27369   5.773   8.290  10.209  0.6550 -0.3090  0.6110
  944MOL0     C27370   5.546   9.105  10.242  0.7622  0.1143  0.1859
  944MOL0     C27371   5.419   9.167  10.221 -0.9318  0.4123  0.0407
  944MOL0     C27372   5.429   9.277  10.115 -0.3037 -0.0219  1.1873
  944MOL0     H27373   4.869   9.028  10.471 -0.2907 -0.9175  0.2219
  944MOL0     H27374   4.658   9.133  10.527 -0.2556  2.0029  3.5602
  944MOL0     H27375   4.658   9.486  10.650 -1.6222 -0.2460  2.1547
  944MOL0     H27376   4.606   9.590  10.517 -0.9850 -2.2331 -1.5393
  944MOL0     H27377   4.402   9.444  10.696  0.6908  0.8919  1.0257
  944MOL0     H27378   4.379   9.512  10.546 -0.3766 -1.0952  0.4754
  944MOL0     H27379   4.324   9.679  10.703  0.6408  1.3288  0.7670
  944MOL0     H27380   4.480   9.723  10.631 -1.1469 -0.5320 -2.3820
  944MOL0     H27381   4.448   9.591  10.909 -1.8287  1.2240 -0.4435
  944MOL0     H27382   4.596   9.661  10.838  0.4078  0.5888 -0.2854
  944MOL0     H27383   4.459   9.889  10.836  0.3590  0.1755 -0.7854
  944MOL0     H27384   4.326   9.815  10.913  0.5138  2.5953 -0.2948
  944MOL0     H27385   4.467   9.907  11.083  0.9765 -1.8022  3.5054
  944MOL0     H27386   4.465   9.735  11.101  0.3863  0.0909 -0.2998
  944MOL0     H27387   4.703   9.844  10.941 -1.1474  1.1012  0.1887
  944MOL0     H27388   4.689   9.697  11.045  0.4763  0.0464  0.7560
  944MOL0     H27389   4.683   9.983  11.126  0.0635  0.1968 -2.2001
  944MOL0     H27390   4.668   9.844  11.242 -0.6446 -0.3394 -0.5581
  944MOL0     H27391   4.884   9.788  11.352 -0.9036 -2.3065 -1.5002
  944MOL0     H27392   5.172   9.903  11.426  0.9192 -0.3393  0.7752
  944MOL0     H27393   5.184   9.742  11.355  2.8223 -0.4317 -2.9160
  944MOL0     H27394   5.310   9.878  11.158  2.2912  1.7730 -0.7211
  944MOL0     H27395   5.326   9.991  11.295 -1.4714 -0.3393 -0.8895
  944MOL0     H27396   5.521   9.843  11.289 -0.1061  0.0097  1.1632
  944MOL0     H27397   5.424   9.692  11.322 -2.2590 -0.1624 -1.9272
  944MOL0     H27398   5.358   9.811  11.536  0.3342 -0.2333  0.3174
  944MOL0     H27399   5.444   9.955  11.483 -2.1401  0.0534  1.3756
  944MOL0     H27400   5.783   9.721  11.625  3.1992  1.0990  1.3811
  944MOL0     H27401   6.002   9.798  11.570 -1.3779 -2.1717  0.2983
  944MOL0     H27402   6.114  10.421  11.407  0.7934 -0.2296  2.1855
  944MOL0     H27403   6.325  10.534  11.361  0.5333  0.2134 -0.9224
  944MOL0     H27404   6.450  10.513  11.072  0.3472  2.2497 -0.7137
  944MOL0     H27405   6.484  10.606  11.222 -0.2973  0.1222 -0.6333
  944MOL0     H27406   6.634  10.669  11.048  3.4302  3.1935  3.2764
  944MOL0     H27407   6.714  10.614  11.190 -0.7397 -2.5727  1.7284
  944MOL0     H27408   6.760  10.395  11.089  0.7029 -0.4666 -0.7543
  944MOL0     H27409   6.665  10.437  10.946 -1.6517  1.9823  0.4219
  944MOL0     H27410   6.920  10.571  11.053  0.7493 -0.5852 -0.0969
  944MOL0     H27411   6.845  10.627  10.909 -0.1203  0.8106 -0.1751
  944MOL0     H27412   6.861  10.440  10.794 -1.2107  6.1723  1.3799
  944MOL0     H27413   6.897  10.327  10.919 -1.7186  1.1350 -0.6728
  944MOL0     H27414   7.081  10.538  10.807 -0.1800  1.0972  1.2147
  944MOL0     H27415   7.124  10.471  10.957 -0.2258  1.2610 -0.5531
  944MOL0     H27416   7.071  10.293  10.703 -0.3939 -0.6651 -0.8378
  944MOL0     H27417   7.150  10.247  10.857 -1.5345  0.3557 -0.3328
  944MOL0     H27418   7.337  10.380  10.822 -2.0857  1.1380  1.4736
  944MOL0     H27419   7.321  10.274  10.683  1.1675  1.2687 -0.8507
  944MOL0     H27420   6.492  10.158  11.238  0.9354  0.4645  2.3435
  944MOL0     H27421   6.272  10.046  11.287  0.6396 -0.4217  1.6435
  944MOL0     H27422   5.832  10.140  11.378  0.3598  0.0007 -0.1846
  944MOL0     H27423   5.605  10.050  11.438 -2.3598 -3.9215 -1.3872
  944MOL0     H27424   4.791   9.518  10.422 -1.2605  0.3491  0.7499
  944MOL0     H27425   5.012   9.418  10.355 -0.2282 -2.3944 -3.5510
  944MOL0     H27426   5.228   9.003  10.453  0.7992  0.3121  1.7177
  944MOL0     H27427   5.454   8.906  10.499  1.7897  1.9520  0.3037
  944MOL0     H27428   5.615   8.802  10.230 -1.8838 -2.0542  1.4848
  944MOL0     H27429   5.649   8.749  10.396  2.4479 -1.4759 -0.4903
  944MOL0     H27430   5.888   8.816  10.361  2.8998  1.2320 -2.9419
  944MOL0     H27431   5.846   8.841  10.189 -1.3037  1.7999  0.5646
  944MOL0     H27432   5.849   8.596  10.368  3.2939  0.7920  0.4881
  944MOL0     H27433   5.965   8.621  10.237  1.4256 -2.2938  4.4973
  944MOL0     H27434   5.664   8.601  10.168  0.2272  1.9695 -2.7701
  944MOL0     H27435   5.812   8.580  10.065 -0.2020  2.1518  0.8500
  944MOL0     H27436   5.752   8.193  10.249  1.2010 -0.7345 -0.1297
  944MOL0     H27437   5.639   9.125  10.190  1.2514  2.6384  1.8804
  944MOL0     H27438   5.404   9.237  10.016 -0.5022 -1.7831  1.9025
  944MOL0     H27439   5.349   9.351  10.124 -1.2291 -0.2179 -3.0970
  944MOL0     H27440   5.521   9.336  10.114  0.2235 -0.8063  1.6636
  945MOL0     O27441   9.759   7.822   9.656 -0.1477  0.0086 -0.5238
  945MOL0     C27442   9.707   7.725   9.718  0.1186  0.6472  0.5436
  945MOL0     O27443   9.770   7.602   9.740  0.4729  0.1592 -0.9530
  945MOL0     C27444   9.898   7.578   9.691 -0.4544 -0.3903  0.2099
  945MOL0     C27445  10.003   7.668   9.683  0.3915 -0.2748  0.0197
  945MOL0     C27446  10.125   7.642   9.609  0.7354  0.7214  0.1345
  945MOL0     C27447  10.149   7.509   9.571 -0.6128 -0.2510 -1.2334
  945MOL0     O27448  10.279   7.466   9.540  0.2793 -0.1929  0.4956
  945MOL0     C27449  10.391   7.556   9.512  1.0550  0.3673  0.1297
  945MOL0     C27450  10.453   7.624   9.641  0.1905 -0.3130  0.2902
  945MOL0     C27451  10.603   7.636   9.630  0.3168  1.1707  0.1687
  945MOL0     C27452  10.647   7.762   9.550  0.2326 -0.4220  0.6059
  945MOL0     C27453  10.794   7.780   9.534 -0.5523 -1.3771  0.8324
  945MOL0     C27454  10.855   7.848   9.666 -0.2375  0.5196  0.7572
  945MOL0     C27455  10.997   7.899   9.662  0.0215 -0.3350 -0.7188
  945MOL0     C27456  11.122   7.820   9.707  0.3214  0.4148 -0.7703
  945MOL0     N27457  11.234   7.901   9.684 -0.4814 -0.0648 -0.1975
  945MOL0     C27458  11.267   8.005   9.761 -0.3011 -0.4836  0.5705
  945MOL0     C27459  11.382   8.059   9.701  1.1110  0.4128  0.4115
  945MOL0     C27460  11.450   8.188   9.747 -0.2862 -0.4636  0.1842
  945MOL0     C27461  11.539   8.172   9.872  0.5073  0.2398  0.5021
  945MOL0     C27462  11.651   8.071   9.871  0.1181  0.0692  0.1030
  945MOL0     C27463  11.738   8.072   9.744  0.9057  0.5243 -0.2319
  945MOL0     O27464  11.798   8.201   9.720  0.0767  0.0300  0.4965
  945MOL0     C27465  11.919   8.229   9.782  0.0372  0.3425  0.3690
  945MOL0     C27466  12.021   8.135   9.799  0.0251 -0.2371 -0.2806
  945MOL0     C27467  12.143   8.162   9.856  0.1307 -0.4296 -0.4334
  945MOL0     C27468  12.163   8.292   9.907 -0.4305 -0.0349 -0.2419
  945MOL0     C27469  12.296   8.326   9.966  0.3240 -0.2307  0.8866
  945MOL0     O27470  12.399   8.233   9.937 -0.3104 -0.2064  0.6228
  945MOL0     C27471  12.528   8.280   9.962 -0.3734  0.1828 -0.7313
  945MOL0     C27472  12.576   8.418   9.955 -0.3810  0.5796  0.0132
  945MOL0     C27473  12.698   8.456  10.012  0.1536  0.6534  0.7223
  945MOL0     C27474  12.791   8.355  10.066  0.0163 -0.1550 -0.2903
  945MOL0     O27475  12.905   8.414  10.117  0.3410 -0.2962 -0.1873
  945MOL0     C27476  12.987   8.341  10.214  0.8794 -0.3992  0.0881
  945MOL0     C27477  13.107   8.282  10.140 -0.4666  0.5817 -0.3615
  945MOL0     C27478  13.224   8.222  10.231  0.9167 -0.1185  0.8112
  945MOL0     C27479  13.319   8.135  10.150  0.2338  0.6881  0.6361
  945MOL0     C27480  13.421   8.062  10.235 -0.2206 -0.5191 -0.0322
  945MOL0     C27481  13.557   8.139  10.226  0.4002  0.4843 -0.2166
  945MOL0     C27482  13.649   8.112  10.342  0.4586 -0.1044  0.4685
  945MOL0     C27483  13.788   8.156  10.298  0.4260  0.9332 -0.4490
  945MOL0    Cl27484  13.878   8.026  10.220 -0.0742  0.0548  0.1515
  945MOL0     C27485  12.743   8.225  10.066 -0.1469  0.2627 -1.0397
  945MOL0     C27486  12.623   8.187  10.010 -0.8974  0.1899 -0.7560
  945MOL0     O27487  12.295   8.425  10.039  0.8799 -0.0288 -0.7833
  945MOL0     C27488  12.061   8.392   9.884 -0.7822 -0.2364 -0.7009
  945MOL0     C27489  11.942   8.353   9.837  0.5408 -0.1004 -0.9147
  945MOL0     N27490  11.411   7.984   9.587  0.5717  0.1679 -0.4607
  945MOL0     N27491  11.324   7.889   9.582 -0.5161 -0.1357  0.4792
  945MOL0     C27492  10.046   7.418   9.586  0.8343 -0.3952  0.7311
  945MOL0     C27493   9.918   7.455   9.633  0.0418 -0.3332  0.2984
  945MOL0     C27494   9.570   7.749   9.771  0.5621  0.0699 -0.1039
  945MOL0     C27495   9.474   7.787   9.674 -0.4898  0.3163 -0.1382
  945MOL0     C27496   9.347   7.819   9.722  0.2979 -0.1998  0.0402
  945MOL0     C27497   9.317   7.822   9.859 -0.0199 -1.4081 -0.5787
  945MOL0     O27498   9.198   7.877   9.913 -0.0005 -0.0164 -0.1029
  945MOL0     C27499   9.103   7.947   9.828 -0.7854 -0.8210 -0.2365
  945MOL0     C27500   8.985   8.003   9.903  0.0127  0.2104  0.4183
  945MOL0     C27501   9.027   8.110  10.011 -0.2064 -0.3286  0.3427
  945MOL0     C27502   9.102   8.060  10.141 -0.6379  0.2846 -0.8303
  945MOL0     C27503   9.015   7.984  10.230 -0.4770  0.6733  1.0026
  945MOL0     C27504   8.951   7.918  10.308  0.5048 -0.1759  0.4456
  945MOL0     C27505   9.414   7.780   9.951  0.7157  0.0482  0.3454
  945MOL0     C27506   9.536   7.742   9.904  0.1700 -0.2826 -1.3335
  945MOL0     C27507   9.643   7.705  10.004  0.0317 -0.5836 -0.1196
  945MOL0     H27508   9.985   7.763   9.732 -0.6370 -0.8380  0.7612
  945MOL0     H27509  10.194   7.723   9.587  1.7811  0.6304  2.6527
  945MOL0     H27510  10.468   7.494   9.466  0.6296 -1.5816  1.9112
  945MOL0     H27511  10.360   7.630   9.437 -0.1903 -0.1619  0.0931
  945MOL0     H27512  10.426   7.561   9.726 -0.2894 -0.2261  0.2046
  945MOL0     H27513  10.419   7.724   9.670  0.2679 -0.5139  1.1059
  945MOL0     H27514  10.639   7.546   9.580  0.1078  1.0512  0.2343
  945MOL0     H27515  10.630   7.632   9.736  0.5031 -1.3851  0.0790
  945MOL0     H27516  10.602   7.753   9.450  0.6543 -3.5137  0.5891
  945MOL0     H27517  10.595   7.849   9.590 -0.8729 -1.0248  0.5388
  945MOL0     H27518  10.841   7.684   9.512 -0.2240 -0.9621 -0.3015
  945MOL0     H27519  10.822   7.850   9.456 -0.9198 -0.1505  1.7710
  945MOL0     H27520  10.785   7.925   9.700 -1.0943 -0.4317  1.2041
  945MOL0     H27521  10.858   7.773   9.745 -0.2661 -1.8503 -1.3524
  945MOL0     H27522  10.983   7.986   9.727 -1.1809  0.3018 -1.8065
  945MOL0     H27523  11.014   7.947   9.566 -0.8614  0.5455 -0.4466
  945MOL0     H27524  11.116   7.791   9.812 -1.6099  4.0100  0.2998
  945MOL0     H27525  11.132   7.730   9.645 -0.7159 -2.7312  3.2000
  945MOL0     H27526  11.214   8.027   9.853 -0.7714 -4.0406  1.2751
  945MOL0     H27527  11.512   8.230   9.666 -0.5116 -2.4815 -1.0945
  945MOL0     H27528  11.373   8.260   9.776  1.8664  1.9731  0.2827
  945MOL0     H27529  11.574   8.272   9.900 -0.5313  1.0518 -1.0120
  945MOL0     H27530  11.462   8.142   9.944 -0.4504  0.6867 -0.3120
  945MOL0     H27531  11.605   7.972   9.880 -2.7858  0.9508 -2.7257
  945MOL0     H27532  11.722   8.089   9.952 -1.3151  1.1686  1.1659
  945MOL0     H27533  11.672   8.050   9.659 -0.4589 -0.7464  1.0959
  945MOL0     H27534  11.800   7.982   9.754  0.9674  0.3474 -1.8327
  945MOL0     H27535  12.003   8.038   9.754  0.3751 -2.7118  4.3487
  945MOL0     H27536  12.226   8.093   9.867  1.4132  1.4152  2.6376
  945MOL0     H27537  12.515   8.499   9.916 -0.2041 -0.8015 -3.5635
  945MOL0     H27538  12.737   8.557  10.001  0.2606  0.3543 -2.7290
  945MOL0     H27539  13.022   8.408  10.293 -0.0272 -1.2972  1.3021
  945MOL0     H27540  12.919   8.269  10.262  0.3624 -0.1866 -0.3225
  945MOL0     H27541  13.067   8.203  10.076 -3.7016  1.2221  0.6546
  945MOL0     H27542  13.154   8.359  10.079 -1.0618  1.3571  0.1359
  945MOL0     H27543  13.278   8.306  10.275  1.9826  0.2138 -1.0331
  945MOL0     H27544  13.184   8.151  10.304  1.5300  0.5773  1.8495
  945MOL0     H27545  13.370   8.207  10.084  1.1395  1.1886  1.8394
  945MOL0     H27546  13.263   8.068  10.084 -1.7699  1.1211  1.8224
  945MOL0     H27547  13.436   7.956  10.212 -0.3137 -0.0505 -2.4355
  945MOL0     H27548  13.380   8.077  10.336  0.4102  0.0711  0.1408
  945MOL0     H27549  13.598   8.104  10.130 -5.5372 -1.6127 -2.4593
  945MOL0     H27550  13.545   8.247  10.213  0.5664  0.3601 -1.5807
  945MOL0     H27551  13.660   8.007  10.369  3.1768  0.9669  4.3884
  945MOL0     H27552  13.617   8.156  10.437 -1.9614 -0.3946 -0.1392
  945MOL0     H27553  13.786   8.244  10.233  3.3727  0.6071 -1.1326
  945MOL0     H27554  13.846   8.182  10.386  0.8754 -2.6053  0.4596
  945MOL0     H27555  12.802   8.145  10.111  0.0287  1.1891  0.4342
  945MOL0     H27556  12.588   8.084  10.012 -0.7906  0.1546  1.3205
  945MOL0     H27557  12.081   8.496   9.908  0.4484 -0.9407  1.5986
  945MOL0     H27558  11.864   8.427   9.825  1.4809  0.9749 -0.5360
  945MOL0     H27559  10.077   7.319   9.553  1.5837 -1.2831  3.7677
  945MOL0     H27560   9.838   7.382   9.630 -0.5774  0.3768 -2.0085
  945MOL0     H27561   9.486   7.785   9.566 -0.7417 -1.7274 -0.1646
  945MOL0     H27562   9.269   7.857   9.658 -1.1140 -0.4540  1.5456
  945MOL0     H27563   9.059   7.874   9.759  0.0723 -0.3828 -1.2716
  945MOL0     H27564   9.163   8.007   9.759  2.5466  2.1026  4.6264
  945MOL0     H27565   8.932   7.916   9.943 -2.2244  1.5404  0.5146
  945MOL0     H27566   8.917   8.054   9.834 -3.0889 -0.9316  2.4153
  945MOL0     H27567   8.937   8.159  10.049 -1.1768 -2.7369  1.3691
  945MOL0     H27568   9.100   8.170   9.956 -1.4270 -0.5947 -1.6599
  945MOL0     H27569   9.185   7.994  10.113 -1.2150 -0.3630 -1.0190
  945MOL0     H27570   9.151   8.147  10.186 -1.8650  0.8896 -0.6452
  945MOL0     H27571   8.897   7.847  10.367 -0.0298 -0.9255 -0.9216
  945MOL0     H27572   9.400   7.788  10.058  1.6142 -2.1303  0.6765
  945MOL0     H27573   9.731   7.649   9.969  0.9192 -0.3116  1.5395
  945MOL0     H27574   9.683   7.801  10.038 -3.4492  1.1479 -0.4679
  945MOL0     H27575   9.609   7.643  10.088 -1.4830  2.4798  1.7121
  946MOL0     O27576   4.253  11.333   4.766 -1.0550  0.4055  0.2866
  946MOL0     C27577   4.272  11.228   4.827  0.0977  0.1041 -0.4433
  946MOL0     O27578   4.393  11.165   4.847  0.4820 -0.4733  0.1212
  946MOL0     C27579   4.496  11.208   4.774 -0.2976  1.0285 -0.7100
  946MOL0     C27580   4.578  11.325   4.807 -0.2579  0.2574 -0.5719
  946MOL0     C27581   4.692  11.345   4.732 -0.8616  0.1237 -0.3385
  946MOL0     C27582   4.725  11.262   4.620  0.2751 -0.6187 -0.0903
  946MOL0     O27583   4.849  11.286   4.562 -0.5589  0.5965 -0.2483
  946MOL0     C27584   4.887  11.188   4.463  0.2149  0.2728 -0.4148
  946MOL0     C27585   5.034  11.201   4.395  0.0976  0.6147 -0.8373
  946MOL0     C27586   5.135  11.221   4.518 -0.0219 -0.2556 -0.4996
  946MOL0     C27587   5.130  11.104   4.621  1.0316 -0.1157  0.1905
  946MOL0     C27588   5.251  11.110   4.724 -0.0425 -0.1161  0.3929
  946MOL0     C27589   5.264  11.252   4.794 -0.2989  0.7010 -0.0203
  946MOL0     C27590   5.375  11.237   4.902 -0.1420  0.3966 -0.1225
  946MOL0     C27591   5.497  11.285   4.837  0.8433 -0.0643  0.4166
  946MOL0     N27592   5.622  11.266   4.909  0.3688 -0.1569  0.5844
  946MOL0     C27593   5.637  11.249   5.039 -0.4778  0.2120  0.0140
  946MOL0     C27594   5.769  11.229   5.056 -0.9627 -0.0947  0.0085
  946MOL0     C27595   5.832  11.210   5.193  0.3715 -0.5162  0.4136
  946MOL0     C27596   5.911  11.085   5.202  0.2921  0.7318 -0.4380
  946MOL0     C27597   5.963  11.071   5.344 -0.3932 -0.0675 -0.1195
  946MOL0     C27598   6.100  11.142   5.364  0.0451 -0.5589 -0.5487
  946MOL0     O27599   6.202  11.041   5.361  0.1068  0.2998 -0.5966
  946MOL0     C27600   6.323  11.074   5.416 -0.3925  0.4380 -0.0074
  946MOL0     C27601   6.401  10.961   5.467 -0.2390 -1.1215 -0.2115
  946MOL0     C27602   6.533  10.982   5.501 -0.6769 -0.2968  0.4040
  946MOL0     C27603   6.591  11.111   5.505 -0.1869 -0.4116  0.2782
  946MOL0     C27604   6.726  11.136   5.546 -0.2581  0.4851  0.1396
  946MOL0     O27605   6.765  11.264   5.553 -0.2523 -0.2355 -0.9783
  946MOL0     C27606   6.894  11.281   5.515 -0.2775 -0.0303 -0.2555
  946MOL0     C27607   6.932  11.220   5.392 -0.2552  0.3673 -0.2215
  946MOL0     C27608   7.057  11.259   5.337 -0.2339  0.4050  0.2005
  946MOL0     C27609   7.146  11.338   5.412 -0.6549 -0.1017  0.3939
  946MOL0     O27610   7.264  11.377   5.353 -0.0229 -0.1184 -1.0721
  946MOL0     C27611   7.359  11.271   5.338 -0.2703 -0.5582 -0.3278
  946MOL0     C27612   7.477  11.348   5.269  0.1698  0.4072 -0.2991
  946MOL0     C27613   7.605  11.265   5.277  0.3171 -0.3881 -0.1596
  946MOL0     C27614   7.719  11.362   5.232 -0.3609 -0.0597 -0.4131
  946MOL0     C27615   7.866  11.328   5.267  0.4187  0.4040  0.2246
  946MOL0     C27616   7.953  11.405   5.171  0.4786  0.3495  0.2803
  946MOL0     C27617   8.102  11.381   5.201 -0.6262 -0.2940  0.4258
  946MOL0     C27618   8.176  11.507   5.167  0.2171 -0.4178 -0.1162
  946MOL0    Cl27619   8.349  11.487   5.155 -0.1837  0.3889 -0.2765
  946MOL0     C27620   7.114  11.383   5.540 -0.3752 -0.5673  0.0143
  946MOL0     C27621   6.986  11.356   5.587 -0.2555 -0.1568 -0.1423
  946MOL0     O27622   6.796  11.044   5.580  0.2254 -0.4729  0.5351
  946MOL0     C27623   6.509  11.219   5.466  0.0101  0.7211 -0.0021
  946MOL0     C27624   6.381  11.201   5.414  0.1769 -0.4533 -0.8964
  946MOL0     N27625   5.829  11.226   4.929 -0.1775 -0.3290 -0.0975
  946MOL0     N27626   5.739  11.250   4.844 -0.1083  0.2019  0.0159
  946MOL0     C27627   4.634  11.165   4.583 -0.6681 -0.2581 -0.3384
  946MOL0     C27628   4.517  11.141   4.657 -0.5193  0.2546  0.3702
  946MOL0     C27629   4.157  11.161   4.898  0.2067 -0.6030 -0.2129
  946MOL0     C27630   4.193  11.071   5.001  0.1295 -0.3393 -0.6636
  946MOL0     C27631   4.094  11.012   5.088 -0.5879 -0.2380  0.4713
  946MOL0     C27632   3.960  11.034   5.067  0.4832  0.4190  0.1372
  946MOL0     O27633   3.883  10.978   5.167 -0.0820 -0.0679  0.2261
  946MOL0     C27634   3.745  10.955   5.148 -0.3116 -0.0238  1.0099
  946MOL0     C27635   3.687  10.867   5.253  0.7548 -0.4217  0.2854
  946MOL0     C27636   3.699  10.718   5.228 -0.3114 -0.1040 -0.4926
  946MOL0     C27637   3.835  10.654   5.217 -1.0167 -0.7934 -0.8299
  946MOL0     C27638   3.843  10.534   5.139 -0.2576 -0.9503 -0.1275
  946MOL0     C27639   3.850  10.435   5.071  0.3252 -0.2982 -0.5362
  946MOL0     C27640   3.919  11.109   4.953 -0.1503  0.3343  0.4361
  946MOL0     C27641   4.015  11.185   4.882 -0.1107  0.3387  0.1154
  946MOL0     C27642   3.954  11.289   4.785 -0.1158 -0.1867 -0.3451
  946MOL0     H27643   4.556  11.382   4.897  4.0356  0.3168  0.6800
  946MOL0     H27644   4.766  11.417   4.766  1.1131 -2.0544  0.2736
  946MOL0     H27645   4.879  11.085   4.499  2.5509 -0.0375 -0.6212
  946MOL0     H27646   4.826  11.207   4.375 -0.1176  2.2616  0.1959
  946MOL0     H27647   5.046  11.290   4.333  0.0679  0.7223 -0.6895
  946MOL0     H27648   5.052  11.109   4.338  1.3077  1.2916 -1.5889
  946MOL0     H27649   5.108  11.309   4.577 -1.2707 -0.6738 -0.4215
  946MOL0     H27650   5.237  11.226   4.481 -0.3403  0.6072 -1.3007
  946MOL0     H27651   5.035  11.117   4.675  1.2875  0.8463  0.4301
  946MOL0     H27652   5.127  11.007   4.571  0.6468 -0.8295  1.5238
  946MOL0     H27653   5.240  11.033   4.801  1.5139 -1.7846 -0.9647
  946MOL0     H27654   5.338  11.082   4.665  0.0145  0.7074  0.0699
  946MOL0     H27655   5.278  11.337   4.727  2.2025  0.3933  0.0311
  946MOL0     H27656   5.174  11.285   4.845 -1.1493  0.6466 -1.4227
  946MOL0     H27657   5.386  11.133   4.935 -0.5675  0.3574 -0.0907
  946MOL0     H27658   5.361  11.307   4.985  0.5300  1.5479 -0.9488
  946MOL0     H27659   5.501  11.241   4.736  0.1635  1.9174 -0.5341
  946MOL0     H27660   5.480  11.391   4.819  2.3268  0.0675 -0.3478
  946MOL0     H27661   5.560  11.251   5.116 -0.1546  1.1225  0.3361
  946MOL0     H27662   5.900  11.293   5.212  3.0996 -2.6238  0.4969
  946MOL0     H27663   5.753  11.210   5.269  1.0593  0.9107  1.1752
  946MOL0     H27664   5.853  10.995   5.184  1.7892 -0.6171  1.1252
  946MOL0     H27665   5.982  11.091   5.119  2.2603  3.9529  1.2061
  946MOL0     H27666   5.977  10.965   5.365  3.6460  0.5779  1.2697
  946MOL0     H27667   5.886  11.106   5.414  0.1973 -0.3342  0.6856
  946MOL0     H27668   6.092  11.204   5.454 -2.4041  0.4028 -1.3280
  946MOL0     H27669   6.112  11.219   5.287 -1.9952  2.4019  1.8221
  946MOL0     H27670   6.377  10.855   5.472  3.7901 -2.1909 -0.0872
  946MOL0     H27671   6.589  10.890   5.513  0.1652  0.3204  1.3519
  946MOL0     H27672   6.865  11.159   5.333 -0.6937  1.6972 -1.1601
  946MOL0     H27673   7.073  11.229   5.233  1.2352 -0.6718  0.7005
  946MOL0     H27674   7.391  11.228   5.434  1.6598  0.6284 -0.4056
  946MOL0     H27675   7.326  11.198   5.263 -0.2431  1.0558 -1.9581
  946MOL0     H27676   7.443  11.356   5.165 -0.1795  1.0710 -0.1416
  946MOL0     H27677   7.493  11.449   5.308  3.2929  0.6700 -1.9438
  946MOL0     H27678   7.619  11.220   5.376  1.4915  0.8908  0.2887
  946MOL0     H27679   7.591  11.186   5.203 -2.2976  1.2980 -1.5987
  946MOL0     H27680   7.700  11.462   5.272 -0.1558 -0.1534 -0.0860
  946MOL0     H27681   7.710  11.371   5.123 -0.4800 -0.2590 -0.4198
  946MOL0     H27682   7.891  11.222   5.258  0.7677  0.5191 -0.2268
  946MOL0     H27683   7.893  11.354   5.369  2.7607  1.4664 -0.5813
  946MOL0     H27684   7.925  11.381   5.068  3.5738  1.8577 -1.0405
  946MOL0     H27685   7.930  11.510   5.191 -0.5957 -0.0677  1.3931
  946MOL0     H27686   8.141  11.296   5.144  1.4670 -0.7704  2.4033
  946MOL0     H27687   8.131  11.358   5.304  1.5746 -2.3039 -0.5545
  946MOL0     H27688   8.134  11.538   5.071  1.2258 -1.8368 -1.0705
  946MOL0     H27689   8.140  11.581   5.239  0.7227  2.3596 -2.5026
  946MOL0     H27690   7.187  11.444   5.594  0.7505 -1.4619 -0.4495
  946MOL0     H27691   6.944  11.387   5.682  1.0323 -1.4016  0.8879
  946MOL0     H27692   6.546  11.321   5.464  0.7531  0.5491  2.0399
  946MOL0     H27693   6.335  11.292   5.376 -1.6343 -1.5632 -1.5097
  946MOL0     H27694   4.651  11.103   4.496 -0.0630  2.8474 -2.5712
  946MOL0     H27695   4.449  11.063   4.624  1.0263 -1.2799  0.6833
  946MOL0     H27696   4.299  11.051   5.016  0.2569  1.8916  2.3418
  946MOL0     H27697   4.118  10.951   5.175 -0.9069 -0.0897  0.6634
  946MOL0     H27698   3.723  10.920   5.046 -1.4993  1.3675  0.7549
  946MOL0     H27699   3.711  11.059   5.157  1.9386  0.8987 -0.0378
  946MOL0     H27700   3.583  10.892   5.271  1.1023  1.1375  0.2043
  946MOL0     H27701   3.753  10.899   5.334 -0.7376  2.4195  0.4649
  946MOL0     H27702   3.644  10.683   5.140 -0.3904 -0.5488 -0.2689
  946MOL0     H27703   3.652  10.664   5.311  0.8854  1.1720  1.0730
  946MOL0     H27704   3.908  10.720   5.169 -1.9432 -0.7193 -2.1884
  946MOL0     H27705   3.879  10.639   5.316 -0.1972 -1.7049 -1.3106
  946MOL0     H27706   3.860  10.356   5.000 -0.5831 -0.6654 -0.2746
  946MOL0     H27707   3.812  11.115   4.935  0.0482  0.2846 -0.8847
  946MOL0     H27708   4.015  11.378   4.800  0.4730 -0.9765  2.5780
  946MOL0     H27709   3.963  11.255   4.682  1.1746  3.5935 -1.6488
  946MOL0     H27710   3.848  11.313   4.804  0.4067  3.0687 -0.9865
  947MOL0     O27711   1.613   0.669  10.876 -0.3340  0.2077  0.2691
  947MOL0     C27712   1.573   0.574  10.943  0.3687 -0.3319  1.2297
  947MOL0     O27713   1.645   0.500  11.025  0.0351  0.2561  0.0402
  947MOL0     C27714   1.781   0.514  11.039 -0.1883  0.4369 -0.0054
  947MOL0     C27715   1.845   0.485  11.159 -0.9280 -0.4532  0.6268
  947MOL0     C27716   1.984   0.467  11.176  0.4389 -0.0235  0.6814
  947MOL0     C27717   2.058   0.504  11.068 -0.0544  0.2233  0.4226
  947MOL0     O27718   2.192   0.494  11.085 -0.0252 -0.5449 -0.0120
  947MOL0     C27719   2.280   0.541  10.981 -0.0004  0.5476  0.0864
  947MOL0     C27720   2.423   0.572  11.026 -0.3735  0.3949 -0.0522
  947MOL0     C27721   2.454   0.721  11.017 -0.5438 -0.7787 -1.4580
  947MOL0     C27722   2.605   0.750  11.054 -1.4568  0.2203 -0.2259
  947MOL0     C27723   2.643   0.891  11.104  0.3682  0.9659 -0.0595
  947MOL0     C27724   2.634   1.010  11.000  0.3583  0.1039 -0.3240
  947MOL0     C27725   2.685   1.135  11.055  0.7977  0.1675  0.0092
  947MOL0     C27726   2.596   1.215  11.157  1.1521  0.6722  0.2748
  947MOL0     N27727   2.667   1.334  11.222  0.1208  0.0191  0.1879
  947MOL0     C27728   2.698   1.449  11.153 -0.5887  0.7230 -0.3097
  947MOL0     C27729   2.786   1.518  11.229  0.2679  0.0304 -0.2367
  947MOL0     C27730   2.852   1.650  11.194  0.2086  1.1283 -0.3578
  947MOL0     C27731   2.795   1.768  11.278 -0.5719 -0.8331  0.2393
  947MOL0     C27732   2.858   1.909  11.267 -0.1103  0.4683  1.0138
  947MOL0     C27733   2.994   1.940  11.339  0.1367 -0.0860 -0.2394
  947MOL0     O27734   3.093   1.895  11.247 -0.1392  0.0495 -0.8054
  947MOL0     C27735   3.225   1.874  11.288  0.0311  0.6051 -0.1397
  947MOL0     C27736   3.301   1.773  11.225  0.1385 -0.4165 -0.0330
  947MOL0     C27737   3.437   1.755  11.264  0.2378 -0.6925  0.3521
  947MOL0     C27738   3.495   1.829  11.373  0.4365  0.7184 -0.3536
  947MOL0     C27739   3.643   1.826  11.414  0.5319 -0.5769  0.1527
  947MOL0     O27740   3.686   1.922  11.500 -0.2595 -0.2663 -0.1014
  947MOL0     C27741   3.815   1.927  11.534  0.0271  0.1478  0.8607
  947MOL0     C27742   3.916   1.984  11.447  0.1341 -0.6229 -0.5913
  947MOL0     C27743   4.048   1.993  11.489 -0.0207  0.2768 -0.5396
  947MOL0     C27744   4.085   1.938  11.608 -0.1091 -0.0390 -0.9517
  947MOL0     O27745   4.220   1.937  11.636  0.5270 -0.2385 -0.3485
  947MOL0     C27746   4.250   1.934  11.777 -0.0528 -0.4579  0.2394
  947MOL0     C27747   4.367   2.025  11.811  0.1031 -0.1699 -0.7315
  947MOL0     C27748   4.513   1.976  11.787  0.1888 -0.8413 -0.4899
  947MOL0     C27749   4.606   2.077  11.846  0.4312  0.0141  0.9852
  947MOL0     C27750   4.757   2.049  11.829 -0.2793  0.4500 -0.4024
  947MOL0     C27751   4.853   2.159  11.865  0.4324 -0.3317  0.1102
  947MOL0     C27752   4.857   2.189  12.011  0.3196  0.0266 -1.5554
  947MOL0     C27753   4.992   2.139  12.075  0.0629 -0.2380 -0.6858
  947MOL0    Cl27754   5.007   1.969  12.065  0.1162  0.2534  0.1200
  947MOL0     C27755   3.994   1.871  11.686  0.2898 -0.8929  0.1273
  947MOL0     C27756   3.859   1.868  11.650  0.8734 -0.2234 -0.0165
  947MOL0     O27757   3.723   1.748  11.359 -0.1021  0.8834 -0.2276
  947MOL0     C27758   3.420   1.928  11.433  0.0391  0.7395 -0.0262
  947MOL0     C27759   3.287   1.944  11.393  0.0797 -0.7306  0.3494
  947MOL0     N27760   2.808   1.441  11.347  0.0779 -0.4947 -0.2872
  947MOL0     N27761   2.735   1.335  11.339 -0.8902 -0.0976  0.4226
  947MOL0     C27762   1.998   0.533  10.941 -0.5372  0.9113 -0.2248
  947MOL0     C27763   1.861   0.542  10.934 -0.5584  0.3049  0.2019
  947MOL0     C27764   1.426   0.541  10.954  0.3309  0.7063 -0.2748
  947MOL0     C27765   1.382   0.426  11.033 -0.3045 -0.6907  0.1852
  947MOL0     C27766   1.247   0.398  11.043 -0.2577  0.4318 -0.0423
  947MOL0     C27767   1.142   0.465  10.999 -0.4684 -0.5255  0.4294
  947MOL0     O27768   1.015   0.441  11.021  0.7776  0.2698 -0.2440
  947MOL0     C27769   0.971   0.415  11.152 -0.0607 -0.0282 -0.7918
  947MOL0     C27770   0.822   0.379  11.158  0.3109 -0.6664 -0.7491
  947MOL0     C27771   0.728   0.489  11.088 -0.8888  0.5886 -0.0871
  947MOL0     C27772   0.576   0.449  11.115 -0.0897  0.5768 -0.6020
  947MOL0     C27773   0.500   0.562  11.077  0.0357  0.7857  0.2056
  947MOL0     C27774   0.441   0.662  11.040 -0.3947  0.3666  1.0859
  947MOL0     C27775   1.183   0.574  10.919  0.0017 -0.2302  0.0817
  947MOL0     C27776   1.315   0.617  10.896 -0.3700 -0.3676 -0.1198
  947MOL0     C27777   1.336   0.748  10.810  0.4125 -0.1839 -1.0868
  947MOL0     H27778   1.786   0.443  11.240  1.6196  1.0098  3.4690
  947MOL0     H27779   2.021   0.445  11.275  1.7174 -1.3819 -0.0487
  947MOL0     H27780   2.279   0.460  10.907 -1.9698  0.4240  0.1972
  947MOL0     H27781   2.245   0.631  10.929  1.8796  0.4463 -1.4780
  947MOL0     H27782   2.492   0.522  10.959 -0.0029  3.8571 -2.5580
  947MOL0     H27783   2.436   0.555  11.133 -1.6582  3.1111  0.6574
  947MOL0     H27784   2.391   0.772  11.090  2.1314 -0.9103  1.1364
  947MOL0     H27785   2.440   0.757  10.915 -1.6970  0.3496 -0.9269
  947MOL0     H27786   2.640   0.676  11.127 -0.6049  2.1729  1.4481
  947MOL0     H27787   2.669   0.742  10.965  0.6342 -0.4280  1.2670
  947MOL0     H27788   2.579   0.915  11.190  1.1154  2.4442  0.0944
  947MOL0     H27789   2.749   0.885  11.131  0.0989 -1.0699  0.7880
  947MOL0     H27790   2.698   0.980  10.917 -1.3718 -1.6304 -1.1011
  947MOL0     H27791   2.535   1.021  10.955  0.5493 -0.4492 -0.8841
  947MOL0     H27792   2.706   1.211  10.979 -3.2828  1.9133  0.3756
  947MOL0     H27793   2.776   1.118  11.113 -0.3055 -1.3699  1.3747
  947MOL0     H27794   2.511   1.264  11.109 -0.3538  2.0838  3.9787
  947MOL0     H27795   2.553   1.138  11.220  2.5306 -0.1595  0.2513
  947MOL0     H27796   2.660   1.488  11.059 -3.9684 -1.0530  0.1687
  947MOL0     H27797   2.954   1.634  11.230 -1.2545 -2.6452  2.8223
  947MOL0     H27798   2.843   1.672  11.087  0.3534  0.7601 -0.4482
  947MOL0     H27799   2.687   1.774  11.263 -0.5782 -1.7583 -0.1204
  947MOL0     H27800   2.816   1.728  11.378  0.3779 -1.8726 -0.3594
  947MOL0     H27801   2.784   1.981  11.302 -0.6474  1.5489 -2.1064
  947MOL0     H27802   2.861   1.927  11.160  2.2606 -1.5898  0.6316
  947MOL0     H27803   3.000   1.887  11.435  1.7451  2.7881  1.3906
  947MOL0     H27804   3.005   2.046  11.364  5.4917 -0.3946 -0.1482
  947MOL0     H27805   3.260   1.717  11.142  0.7678 -0.8282 -0.0705
  947MOL0     H27806   3.499   1.686  11.208 -0.2075  0.4022 -1.6065
  947MOL0     H27807   3.886   2.022  11.350  2.4369  0.2159 -1.0396
  947MOL0     H27808   4.125   2.040  11.429 -2.3487 -0.2702 -4.3010
  947MOL0     H27809   4.167   1.976  11.834 -0.3247  0.2198 -0.6394
  947MOL0     H27810   4.274   1.830  11.802  0.0279 -1.1737 -2.4747
  947MOL0     H27811   4.365   2.122  11.760 -3.5087  0.8111  0.9269
  947MOL0     H27812   4.355   2.037  11.919  1.9924 -1.9741 -0.2590
  947MOL0     H27813   4.504   1.887  11.851  0.3126 -1.5128 -1.3868
  947MOL0     H27814   4.528   1.950  11.682  0.4396  0.4071 -0.7738
  947MOL0     H27815   4.590   2.082  11.955 -1.1307  1.0054  0.7503
  947MOL0     H27816   4.580   2.173  11.800 -3.0264 -0.5938  1.4048
  947MOL0     H27817   4.767   2.020  11.724 -3.9649 -3.7250  0.0731
  947MOL0     H27818   4.778   1.957  11.885 -0.5100  2.1395  2.6051
  947MOL0     H27819   4.948   2.127  11.822  2.3779 -0.9005  4.3814
  947MOL0     H27820   4.818   2.248  11.812 -0.4133 -0.5091  0.3548
  947MOL0     H27821   4.774   2.142  12.064  0.7336 -0.4741 -1.3458
  947MOL0     H27822   4.841   2.295  12.031  1.0165 -0.4040  1.7302
  947MOL0     H27823   5.080   2.183  12.028  0.2238  1.9286  1.3887
  947MOL0     H27824   4.985   2.168  12.181 -3.0337 -0.7260 -0.6756
  947MOL0     H27825   4.014   1.821  11.780 -0.1520 -2.2569 -0.4720
  947MOL0     H27826   3.788   1.825  11.721 -0.8294  0.9153 -0.9557
  947MOL0     H27827   3.473   1.989  11.505  1.5472  0.2615 -0.6962
  947MOL0     H27828   3.222   2.018  11.438 -0.4978 -2.3505  2.3677
  947MOL0     H27829   2.061   0.537  10.853  1.2761  0.8617  1.0179
  947MOL0     H27830   1.818   0.564  10.837  0.8795 -1.7004 -0.9762
  947MOL0     H27831   1.460   0.366  11.080  0.3384  0.5883  0.7865
  947MOL0     H27832   1.226   0.302  11.091 -1.6633  1.8613  2.4295
  947MOL0     H27833   0.983   0.504  11.215 -0.0064 -0.5222 -0.0932
  947MOL0     H27834   1.028   0.333  11.196  0.5519  1.0497  0.5171
  947MOL0     H27835   0.781   0.364  11.258 -0.9707  1.5333 -0.8595
  947MOL0     H27836   0.821   0.277  11.119 -2.1746 -1.6274  1.5434
  947MOL0     H27837   0.751   0.500  10.981 -1.6338  0.6542 -0.2428
  947MOL0     H27838   0.741   0.586  11.137  1.4437  0.7309 -0.8486
  947MOL0     H27839   0.555   0.358  11.058  1.8506 -0.5158  0.3093
  947MOL0     H27840   0.563   0.426  11.221  0.2867  0.2303 -0.6304
  947MOL0     H27841   0.387   0.754  11.025 -1.6011  0.0243  3.0153
  947MOL0     H27842   1.106   0.645  10.891  0.3638  0.3084  0.4340
  947MOL0     H27843   1.416   0.810  10.852 -0.1352 -0.7581  0.9603
  947MOL0     H27844   1.377   0.726  10.711  3.5907  0.0960  0.0518
  947MOL0     H27845   1.239   0.798  10.798 -0.4772 -2.2552 -3.3214
  948MOL0     O27846   5.541  11.105   0.820 -0.7279 -0.3928  0.0687
  948MOL0     C27847   5.495  11.146   0.712  0.6762  0.0720 -0.1594
  948MOL0     O27848   5.535  11.096   0.588 -0.2323  0.2438  0.3298
  948MOL0     C27849   5.644  11.019   0.602  0.1550  0.6141  0.7918
  948MOL0     C27850   5.629  10.885   0.608 -0.4372 -0.2775 -0.7053
  948MOL0     C27851   5.730  10.805   0.655 -0.0819 -0.2030 -0.0280
  948MOL0     C27852   5.861  10.864   0.683 -0.1430  0.4866 -0.0987
  948MOL0     O27853   5.977  10.803   0.725  0.0756  0.3829  0.2045
  948MOL0     C27854   5.958  10.704   0.828  0.0868 -0.7627  0.7192
  948MOL0     C27855   6.087  10.667   0.891  1.6138 -0.1144  0.8120
  948MOL0     C27856   6.192  10.614   0.792 -0.2990  0.1689 -1.2272
  948MOL0     C27857   6.324  10.575   0.860  0.4471  0.0661  0.3899
  948MOL0     C27858   6.424  10.512   0.767  0.4867  0.3133  0.3178
  948MOL0     C27859   6.549  10.459   0.833 -0.1285  0.1277 -0.0550
  948MOL0     C27860   6.631  10.358   0.735 -0.1778  0.4246  0.4610
  948MOL0     C27861   6.758  10.305   0.785 -0.2644  0.1534 -0.7096
  948MOL0     N27862   6.846  10.245   0.683  0.6016 -0.3781 -0.0057
  948MOL0     C27863   6.982  10.262   0.679 -0.1881  0.7295  0.4677
  948MOL0     C27864   7.020  10.201   0.558 -0.6443  0.6939  0.3211
  948MOL0     C27865   7.153  10.208   0.488 -0.5449  0.3252  0.1696
  948MOL0     C27866   7.223  10.070   0.501 -0.0453  0.0619 -0.0716
  948MOL0     C27867   7.207  10.013   0.643  0.2356  0.4330 -1.0181
  948MOL0     C27868   7.278   9.878   0.674 -0.2012 -0.6933 -0.1168
  948MOL0     O27869   7.392   9.846   0.588  0.6769  0.0374 -0.8777
  948MOL0     C27870   7.508   9.925   0.591 -1.2610 -0.2255  0.5840
  948MOL0     C27871   7.608   9.903   0.499  0.2495  0.6021 -0.0228
  948MOL0     C27872   7.726   9.979   0.492 -1.2798 -0.6737  0.1120
  948MOL0     C27873   7.757  10.077   0.584 -0.2721 -0.1978 -0.9707
  948MOL0     C27874   7.890  10.147   0.586 -0.8264 -0.6402 -0.4902
  948MOL0     O27875   7.978  10.124   0.477  0.2562  0.0091 -0.5689
  948MOL0     C27876   8.111  10.137   0.491  0.4659 -0.0627  0.4466
  948MOL0     C27877   8.180  10.197   0.601 -0.3917 -0.8803  1.0991
  948MOL0     C27878   8.323  10.214   0.593  0.9910 -0.1402  0.5941
  948MOL0     C27879   8.400  10.179   0.481 -0.1734  0.1735 -0.2285
  948MOL0     O27880   8.538  10.199   0.469  0.3944 -0.0432 -0.2139
  948MOL0     C27881   8.596  10.318   0.536 -0.5148  0.2132 -0.0153
  948MOL0     C27882   8.740  10.363   0.507  0.7529  0.4121  1.0718
  948MOL0     C27883   8.742  10.453   0.381 -1.3308 -0.2389 -0.2650
  948MOL0     C27884   8.889  10.478   0.345 -1.0352 -1.0252  0.1498
  948MOL0     C27885   8.910  10.612   0.266 -0.0232 -1.0805  0.5555
  948MOL0     C27886   9.049  10.629   0.203 -0.0042  0.2715 -0.7674
  948MOL0     C27887   9.074  10.781   0.157 -0.0856 -0.1799 -0.0440
  948MOL0     C27888   9.222  10.796   0.118  0.2903  0.3336 -0.5208
  948MOL0    Cl27889   9.320  10.794   0.274  0.3409  0.3225 -0.1162
  948MOL0     C27890   8.330  10.110   0.381  0.3011 -0.7623  0.6651
  948MOL0     C27891   8.185  10.086   0.385 -0.4984  1.0979 -0.3194
  948MOL0     O27892   7.899  10.241   0.664  0.0988  0.4946  0.1453
  948MOL0     C27893   7.657  10.101   0.681 -0.6374  0.2326 -1.3865
  948MOL0     C27894   7.543  10.031   0.687  0.8064  0.3535  0.3030
  948MOL0     N27895   6.911  10.124   0.510 -0.2258 -0.0272  0.8586
  948MOL0     N27896   6.815  10.149   0.586  0.5986  0.5888 -0.1865
  948MOL0     C27897   5.875  11.001   0.662  0.0843  0.3337  0.1928
  948MOL0     C27898   5.773  11.078   0.625  0.6149  0.6419 -0.0006
  948MOL0     C27899   5.393  11.245   0.704  0.4515 -1.5127  0.7094
  948MOL0     C27900   5.282  11.227   0.613  0.0635  0.4227  0.2996
  948MOL0     C27901   5.165  11.304   0.610 -0.4038 -0.7945  0.4250
  948MOL0     C27902   5.156  11.406   0.697 -0.3235  0.3013 -0.4960
  948MOL0     O27903   5.039  11.487   0.715  0.1035  0.5474  0.2624
  948MOL0     C27904   4.930  11.472   0.625 -0.3739 -0.3156  0.1090
  948MOL0     C27905   4.965  11.517   0.483  0.2685  0.0856 -0.7442
  948MOL0     C27906   4.853  11.537   0.382 -0.5662  0.1954 -0.3113
  948MOL0     C27907   4.760  11.408   0.365  1.1159 -0.7359 -1.3915
  948MOL0     C27908   4.620  11.442   0.409  0.1519 -0.2000 -1.1582
  948MOL0     C27909   4.511  11.493   0.447  0.5452  0.5696 -0.1771
  948MOL0     C27910   5.259  11.432   0.787  0.0885 -0.8967  0.1194
  948MOL0     C27911   5.369  11.356   0.790 -0.5857 -0.8757 -0.3792
  948MOL0     C27912   5.481  11.401   0.884  0.7075  0.5892  0.7410
  948MOL0     H27913   5.533  10.843   0.581 -0.5858 -0.1473 -0.3786
  948MOL0     H27914   5.709  10.701   0.679 -0.1843  0.5042  3.4184
  948MOL0     H27915   5.889  10.759   0.893  1.6352  0.4352  1.4002
  948MOL0     H27916   5.920  10.607   0.796  4.6198 -2.8150  0.8154
  948MOL0     H27917   6.060  10.601   0.974  2.2435 -1.2722  0.1153
  948MOL0     H27918   6.126  10.756   0.940  4.9150 -1.2463  0.4631
  948MOL0     H27919   6.210  10.687   0.713 -1.7813  1.7536 -0.1634
  948MOL0     H27920   6.151  10.522   0.749 -0.9497  0.1926 -0.6710
  948MOL0     H27921   6.379  10.660   0.900 -0.1595  1.4377 -1.5232
  948MOL0     H27922   6.293  10.520   0.949 -0.1278 -0.0846  0.1058
  948MOL0     H27923   6.361  10.429   0.734  0.1277  0.3217  0.9685
  948MOL0     H27924   6.448  10.584   0.688 -1.8014  3.7469  2.5026
  948MOL0     H27925   6.611  10.544   0.863 -1.6268  1.3104 -0.2379
  948MOL0     H27926   6.521  10.392   0.915  0.4370 -0.3216 -0.2152
  948MOL0     H27927   6.655  10.420   0.648 -2.0071  1.5727  0.7047
  948MOL0     H27928   6.570  10.278   0.692  0.9232  1.7786 -4.2460
  948MOL0     H27929   6.813  10.376   0.847 -1.9481 -0.9223  2.2207
  948MOL0     H27930   6.728  10.225   0.853  1.9723  0.8598  1.2184
  948MOL0     H27931   7.042  10.321   0.748  2.4039 -0.0361 -1.0059
  948MOL0     H27932   7.133  10.227   0.382 -0.8674  1.0732  0.3634
  948MOL0     H27933   7.216  10.286   0.530  1.1471  0.3429 -2.2144
  948MOL0     H27934   7.180   9.992   0.437  0.9410 -0.4951 -0.0707
  948MOL0     H27935   7.327  10.093   0.477 -0.0639  3.4029  2.3333
  948MOL0     H27936   7.101   9.992   0.661  0.5738  0.3289  1.1755
  948MOL0     H27937   7.230  10.090   0.717  0.1401 -1.1758  0.7575
  948MOL0     H27938   7.206   9.797   0.661 -1.6339  0.6195 -0.6634
  948MOL0     H27939   7.308   9.894   0.778 -0.9432  3.3101 -0.3534
  948MOL0     H27940   7.590   9.828   0.422  2.3360 -0.0553  0.0582
  948MOL0     H27941   7.804   9.954   0.421 -1.3108 -3.5756  0.9705
  948MOL0     H27942   8.128  10.246   0.683  0.3639  1.2853  0.3487
  948MOL0     H27943   8.376  10.252   0.680  2.2018  1.7057 -0.8764
  948MOL0     H27944   8.530  10.405   0.531 -2.6755 -1.3934 -1.9754
  948MOL0     H27945   8.605  10.286   0.640 -1.4119 -0.8340 -0.2385
  948MOL0     H27946   8.782  10.430   0.583 -0.2305  1.1640  0.9779
  948MOL0     H27947   8.806  10.276   0.499  1.2050  0.8337 -0.0172
  948MOL0     H27948   8.696  10.394   0.302 -1.6485 -0.9128  0.4031
  948MOL0     H27949   8.696  10.548   0.412 -1.0475 -0.2659  0.2558
  948MOL0     H27950   8.911  10.408   0.264 -0.1020  1.0402 -1.4872
  948MOL0     H27951   8.963  10.479   0.426 -2.7686  1.0051  1.8185
  948MOL0     H27952   8.892  10.691   0.339 -1.2608 -0.2704 -0.5879
  948MOL0     H27953   8.832  10.618   0.190 -1.5891 -1.9823  2.0158
  948MOL0     H27954   9.126  10.608   0.279 -0.5737 -1.6338 -0.6602
  948MOL0     H27955   9.067  10.553   0.127 -0.2329 -2.2442  1.5257
  948MOL0     H27956   9.045  10.848   0.238 -0.3958  0.3835 -0.6086
  948MOL0     H27957   9.011  10.809   0.072  0.9537  0.9998 -0.4492
  948MOL0     H27958   9.250  10.714   0.051 -3.7305  0.0389 -2.1407
  948MOL0     H27959   9.243  10.890   0.066 -1.2495  1.1241  0.2077
  948MOL0     H27960   8.383  10.084   0.290 -0.6002 -2.1582  0.5117
  948MOL0     H27961   8.137  10.051   0.294 -0.9896  1.8837 -0.3737
  948MOL0     H27962   7.675  10.177   0.757  3.4505  0.7905 -2.7057
  948MOL0     H27963   7.467  10.054   0.761 -1.3272  0.5875 -1.8401
  948MOL0     H27964   5.969  11.048   0.691  1.2112 -0.3186 -2.1493
  948MOL0     H27965   5.766  11.186   0.615  1.9988  0.7971  0.3938
  948MOL0     H27966   5.280  11.148   0.538 -1.6265  0.7197 -0.0172
  948MOL0     H27967   5.096  11.273   0.532  1.2020  0.2364 -1.5249
  948MOL0     H27968   4.845  11.523   0.673 -0.8170 -0.0239 -0.9572
  948MOL0     H27969   4.891  11.370   0.613 -2.8932  0.5704  0.0916
  948MOL0     H27970   5.027  11.444   0.429  2.6810  0.8314  0.8359
  948MOL0     H27971   5.019  11.612   0.482  0.1455  0.1596 -0.4060
  948MOL0     H27972   4.901  11.552   0.285 -2.3073  2.3873 -0.9438
  948MOL0     H27973   4.802  11.632   0.403 -2.0610 -0.6368 -0.0592
  948MOL0     H27974   4.772  11.362   0.267  1.7237  1.4750 -2.4236
  948MOL0     H27975   4.782  11.331   0.439  2.0265 -1.0656 -1.9894
  948MOL0     H27976   4.413  11.523   0.476  0.4632 -0.5589  0.8276
  948MOL0     H27977   5.255  11.520   0.851  0.9209 -2.2445  2.1100
  948MOL0     H27978   5.467  11.360   0.984  0.8667  1.7267  1.2422
  948MOL0     H27979   5.572  11.355   0.844  0.5232  0.8627 -0.0151
  948MOL0     H27980   5.494  11.509   0.892 -1.9183  1.0283 -0.0112
  949MOL0     O27981   7.845   5.349   0.983 -0.2872  0.3266 -0.4388
  949MOL0     C27982   7.834   5.469   0.955 -0.2580  0.1272  0.1321
  949MOL0     O27983   7.934   5.552   0.908  0.1054 -0.4882 -0.4225
  949MOL0     C27984   8.057   5.497   0.916  0.3653 -0.1277 -0.0348
  949MOL0     C27985   8.127   5.493   1.035  0.8369  0.7136  0.0658
  949MOL0     C27986   8.253   5.439   1.052  0.1506 -0.9151 -0.9094
  949MOL0     C27987   8.315   5.397   0.943 -0.0660 -0.3548 -0.6295
  949MOL0     O27988   8.437   5.339   0.962 -0.4374  0.9958 -0.7847
  949MOL0     C27989   8.546   5.361   0.879  0.5231  0.1630  0.4493
  949MOL0     C27990   8.641   5.248   0.915  0.4617 -0.3455 -0.8573
  949MOL0     C27991   8.771   5.254   0.831 -0.7781  0.2021 -0.3685
  949MOL0     C27992   8.759   5.168   0.697 -0.6653 -0.4874  0.3262
  949MOL0     C27993   8.892   5.161   0.626 -0.5437  0.2820 -0.1060
  949MOL0     C27994   8.910   5.281   0.541  0.7376 -0.0827  0.1041
  949MOL0     C27995   9.058   5.314   0.519  0.3516 -0.3084 -0.9444
  949MOL0     C27996   9.129   5.200   0.450 -0.4090  0.5291  0.9229
  949MOL0     N27997   9.264   5.234   0.394  0.1535 -0.3219  0.7412
  949MOL0     C27998   9.302   5.201   0.263  0.6189  0.4283 -0.4182
  949MOL0     C27999   9.443   5.215   0.265  0.6912  0.3987 -0.0106
  949MOL0     C28000   9.542   5.199   0.158  0.1264 -0.0362  0.5187
  949MOL0     C28001   9.521   5.081   0.066 -0.4306  0.0720  0.1282
  949MOL0     C28002   9.631   5.057  -0.044  0.3428 -0.1555  0.0364
  949MOL0     C28003   9.767   5.056   0.026  1.3005  0.1060  0.5982
  949MOL0     O28004   9.784   4.943   0.107 -0.2652  0.2073 -0.5325
  949MOL0     C28005   9.907   4.919   0.167  1.1356  1.2293 -0.3198
  949MOL0     C28006   9.913   4.799   0.233 -0.1868  0.2510  0.0454
  949MOL0     C28007  10.034   4.754   0.294 -0.0449 -0.4372  0.2772
  949MOL0     C28008  10.139   4.840   0.290 -0.4238  0.0099  0.9819
  949MOL0     C28009  10.274   4.796   0.332  1.2713  0.0936 -0.0421
  949MOL0     O28010  10.369   4.838   0.252  0.1727 -0.3558 -0.0754
  949MOL0     C28011  10.491   4.801   0.287  0.5233  0.4187  0.1852
  949MOL0     C28012  10.546   4.690   0.232 -0.7455 -0.2808  0.7169
  949MOL0     C28013  10.681   4.662   0.261  0.3914 -0.2751  0.0063
  949MOL0     C28014  10.763   4.749   0.331  1.1232  0.1263  0.1733
  949MOL0     O28015  10.890   4.727   0.355 -0.6806 -0.3762  0.2447
  949MOL0     C28016  10.932   4.679   0.490  1.4706 -0.0557  0.5618
  949MOL0     C28017  11.074   4.722   0.520  0.8358 -0.0444  0.3237
  949MOL0     C28018  11.168   4.692   0.405 -0.9356  0.0959 -0.4127
  949MOL0     C28019  11.303   4.674   0.469  1.1493 -0.2285 -0.2144
  949MOL0     C28020  11.402   4.660   0.360 -0.0820 -0.2580  0.1359
  949MOL0     C28021  11.415   4.789   0.274  0.7685 -0.5107 -0.4981
  949MOL0     C28022  11.528   4.759   0.175 -0.8039 -0.2606  0.6182
  949MOL0     C28023  11.566   4.893   0.098  0.0570  0.7310 -0.5314
  949MOL0    Cl28024  11.420   4.976   0.032  0.0081 -0.3310 -0.0708
  949MOL0     C28025  10.707   4.878   0.370 -0.5928  0.3009  0.6833
  949MOL0     C28026  10.572   4.903   0.349  0.3777 -0.4962 -0.2867
  949MOL0     O28027  10.282   4.722   0.433 -0.1883  0.2199  0.0287
  949MOL0     C28028  10.129   4.967   0.232 -0.1101  0.9011 -0.2057
  949MOL0     C28029  10.011   5.016   0.177  0.1068 -0.5879 -0.8538
  949MOL0     N28030   9.492   5.237   0.393  0.6458 -0.2741  0.1478
  949MOL0     N28031   9.381   5.244   0.464 -0.4669  0.4303 -0.4441
  949MOL0     C28032   8.249   5.401   0.816 -0.0417  0.4997 -1.4014
  949MOL0     C28033   8.123   5.456   0.802  0.3923  0.3137 -0.4689
  949MOL0     C28034   7.701   5.522   0.962 -0.0787  1.2410 -0.3555
  949MOL0     C28035   7.619   5.491   1.070  0.0530 -0.3718 -0.8736
  949MOL0     C28036   7.492   5.552   1.084  0.2813  0.2928  0.4997
  949MOL0     C28037   7.440   5.622   0.975 -0.1962  1.1536 -0.3617
  949MOL0     O28038   7.315   5.677   0.978  0.0793  0.1065  1.2228
  949MOL0     C28039   7.207   5.603   1.036  0.3645  0.2289  0.2682
  949MOL0     C28040   7.079   5.670   0.976  0.2350  0.1598  0.1186
  949MOL0     C28041   7.062   5.816   1.026  0.0056 -0.2532  0.0883
  949MOL0     C28042   6.913   5.853   1.040 -0.5831 -0.0496  0.2286
  949MOL0     C28043   6.849   5.835   0.907 -0.2418 -0.2318 -0.8614
  949MOL0     C28044   6.788   5.820   0.801  0.1637 -0.1277  1.0635
  949MOL0     C28045   7.515   5.649   0.868 -0.4481  0.4604 -0.2311
  949MOL0     C28046   7.651   5.599   0.853 -0.7310 -0.6876  0.2086
  949MOL0     C28047   7.734   5.650   0.734 -0.6474  0.2296 -0.0444
  949MOL0     H28048   8.078   5.542   1.118  0.0784 -0.3045  0.2384
  949MOL0     H28049   8.305   5.438   1.148  1.2177 -1.5568 -1.4731
  949MOL0     H28050   8.512   5.350   0.776 -1.5669  2.2132  0.8487
  949MOL0     H28051   8.575   5.466   0.896  1.5887 -0.1332  0.5574
  949MOL0     H28052   8.598   5.148   0.915 -0.2317 -0.1435 -3.5125
  949MOL0     H28053   8.661   5.259   1.022  0.0948 -0.5993 -0.7627
  949MOL0     H28054   8.856   5.207   0.880 -2.2274 -1.3482  0.7669
  949MOL0     H28055   8.810   5.356   0.825  2.5467 -0.8359  1.0941
  949MOL0     H28056   8.727   5.068   0.725 -0.5845 -0.3852  0.7934
  949MOL0     H28057   8.685   5.217   0.633  0.3546 -2.1303 -2.2492
  949MOL0     H28058   8.972   5.135   0.697 -0.3357  0.3243 -0.3253
  949MOL0     H28059   8.896   5.071   0.564 -1.1913 -1.5607  2.3448
  949MOL0     H28060   8.858   5.273   0.445  1.8022  0.0213 -0.4921
  949MOL0     H28061   8.864   5.367   0.591 -1.4942 -0.8675 -0.4577
  949MOL0     H28062   9.098   5.322   0.621 -0.2895 -0.4765 -0.6732
  949MOL0     H28063   9.064   5.413   0.474 -1.5371  0.0984 -0.4113
  949MOL0     H28064   9.137   5.116   0.518 -0.8332 -0.2417  0.0504
  949MOL0     H28065   9.072   5.166   0.362 -0.0964  1.6408  0.2599
  949MOL0     H28066   9.236   5.167   0.183  1.1366 -1.2545 -0.1592
  949MOL0     H28067   9.543   5.290   0.098 -0.5169 -1.7828 -2.3009
  949MOL0     H28068   9.636   5.204   0.215  0.5445  3.6714 -0.2092
  949MOL0     H28069   9.519   4.994   0.133 -0.2063 -0.3101 -0.3540
  949MOL0     H28070   9.425   5.081   0.013  0.4389 -0.3228 -1.4999
  949MOL0     H28071   9.615   5.135  -0.119 -0.5951  0.0630  0.4493
  949MOL0     H28072   9.618   4.964  -0.100  1.4033 -0.3974  0.1737
  949MOL0     H28073   9.795   5.153   0.069  0.4584  0.1264  1.1142
  949MOL0     H28074   9.835   5.030  -0.055 -0.9951 -2.2948 -0.7184
  949MOL0     H28075   9.830   4.730   0.222 -1.8070  2.1046 -0.0085
  949MOL0     H28076  10.048   4.654   0.334  2.2415 -0.3717 -0.2404
  949MOL0     H28077  10.492   4.629   0.161 -3.6477  1.6203  1.1233
  949MOL0     H28078  10.719   4.570   0.218 -2.8135 -0.0998 -3.8125
  949MOL0     H28079  10.854   4.713   0.560 -1.0805  1.2905 -2.6760
  949MOL0     H28080  10.922   4.571   0.486 -0.2127  0.0929 -0.4608
  949MOL0     H28081  11.068   4.831   0.521 -2.4101 -0.1168  1.2174
  949MOL0     H28082  11.113   4.682   0.615  0.4591  0.2404  0.5996
  949MOL0     H28083  11.148   4.599   0.352 -0.5862  0.8776 -1.9594
  949MOL0     H28084  11.149   4.772   0.334 -1.8658 -1.4141 -1.9496
  949MOL0     H28085  11.303   4.584   0.532 -1.4297 -0.6949 -0.7925
  949MOL0     H28086  11.325   4.754   0.540 -1.2925 -0.9276  1.4517
  949MOL0     H28087  11.364   4.583   0.293  1.4382  0.4160 -1.5613
  949MOL0     H28088  11.500   4.628   0.397 -0.1148 -1.1814 -0.5346
  949MOL0     H28089  11.323   4.820   0.224  0.4077 -1.6077 -0.5403
  949MOL0     H28090  11.456   4.865   0.340 -1.4815 -0.9854  1.5913
  949MOL0     H28091  11.482   4.687   0.107  0.3262  1.5759 -2.2927
  949MOL0     H28092  11.617   4.715   0.221 -1.3911 -4.2337 -1.6403
  949MOL0     H28093  11.622   4.954   0.170 -0.9758  1.9514 -0.7278
  949MOL0     H28094  11.616   4.865   0.005 -1.8365 -1.3799 -1.0107
  949MOL0     H28095  10.772   4.951   0.417  0.3262 -1.1650  1.7605
  949MOL0     H28096  10.525   4.999   0.366 -1.7612 -1.6978  0.9989
  949MOL0     H28097  10.214   5.034   0.238 -0.3993  1.3189 -0.6410
  949MOL0     H28098  10.001   5.118   0.142  0.2644  0.7603  2.6123
  949MOL0     H28099   8.295   5.358   0.728  1.1860 -2.0659  0.3721
  949MOL0     H28100   8.070   5.437   0.709 -1.4664 -3.7080  1.1687
  949MOL0     H28101   7.653   5.437   1.157 -2.7947  0.1397  0.6772
  949MOL0     H28102   7.429   5.546   1.172 -0.8970 -1.7308 -0.4148
  949MOL0     H28103   7.204   5.617   1.144 -1.1743  1.1554  0.1269
  949MOL0     H28104   7.202   5.496   1.012 -3.5341  0.4347 -0.3498
  949MOL0     H28105   6.992   5.613   1.010  1.1847  0.2433  2.9304
  949MOL0     H28106   7.086   5.669   0.867  0.5669  1.5749  0.1126
  949MOL0     H28107   7.111   5.889   0.960  2.2890  0.3511  2.3075
  949MOL0     H28108   7.108   5.829   1.124  0.5755 -2.0936  0.0914
  949MOL0     H28109   6.856   5.792   1.110  1.0460 -0.7985  0.9537
  949MOL0     H28110   6.897   5.958   1.062 -2.4639 -0.3517  0.4198
  949MOL0     H28111   6.739   5.801   0.707  1.2811 -2.5919  0.9043
  949MOL0     H28112   7.477   5.715   0.790 -0.2904  0.8834  0.0492
  949MOL0     H28113   7.793   5.732   0.776  0.6047 -0.8034  0.2621
  949MOL0     H28114   7.795   5.570   0.691 -2.5111 -0.9216 -0.6798
  949MOL0     H28115   7.667   5.692   0.658 -0.8093 -2.9453 -1.8340
  950MOL0     O28116   0.680   3.372   0.776  0.1702 -0.1572  0.7638
  950MOL0     C28117   0.641   3.363   0.663  0.6736  0.6878 -0.2276
  950MOL0     O28118   0.715   3.334   0.558 -0.2268 -0.8094  0.1039
  950MOL0     C28119   0.849   3.346   0.547  0.4095 -0.5741 -0.3311
  950MOL0     C28120   0.900   3.300   0.431  0.2199  0.5679  0.5486
  950MOL0     C28121   1.040   3.295   0.412 -0.0106  0.1931 -0.1075
  950MOL0     C28122   1.125   3.345   0.511 -0.8280  0.0565  0.0277
  950MOL0     O28123   1.265   3.343   0.505 -0.0907  0.3885 -0.4861
  950MOL0     C28124   1.336   3.366   0.383  0.0806  0.3447  1.0078
  950MOL0     C28125   1.447   3.469   0.405  0.2740  0.0563  0.1268
  950MOL0     C28126   1.516   3.501   0.272  0.1440 -0.0785  0.1217
  950MOL0     C28127   1.650   3.432   0.266 -0.1915  0.3770 -0.1980
  950MOL0     C28128   1.732   3.477   0.140 -0.3883  0.3393  0.0126
  950MOL0     C28129   1.869   3.401   0.130 -0.4221  0.1332 -0.3044
  950MOL0     C28130   1.942   3.460   0.010 -0.6513  0.2562  0.0723
  950MOL0     C28131   2.079   3.394  -0.003 -0.2253  0.2571  0.4486
  950MOL0     N28132   2.183   3.428   0.104  0.3333 -0.1018 -0.1548
  950MOL0     C28133   2.196   3.544   0.165 -0.0451  0.5435  0.7317
  950MOL0     C28134   2.288   3.521   0.260 -0.2123  0.5414  0.2166
  950MOL0     C28135   2.344   3.615   0.350  1.0407 -0.1684  0.2491
  950MOL0     C28136   2.494   3.603   0.369 -0.6843 -0.4554  0.6334
  950MOL0     C28137   2.544   3.708   0.467 -0.2052  0.0581  0.4329
  950MOL0     C28138   2.690   3.698   0.500  0.0647 -0.7459 -0.3038
  950MOL0     O28139   2.773   3.708   0.385 -0.3107 -0.4167 -0.4454
  950MOL0     C28140   2.879   3.796   0.385 -0.1168 -0.0021 -0.2177
  950MOL0     C28141   3.005   3.743   0.355 -0.0968  0.0077 -1.3130
  950MOL0     C28142   3.113   3.828   0.357 -0.2926 -0.1013  0.0092
  950MOL0     C28143   3.101   3.970   0.386 -0.8399 -0.3493  0.2842
  950MOL0     C28144   3.216   4.069   0.370 -0.1589  0.5037 -0.2675
  950MOL0     O28145   3.337   4.027   0.306 -0.2570  0.6325 -0.4344
  950MOL0     C28146   3.435   4.116   0.279  0.7005 -0.1805  0.1840
  950MOL0     C28147   3.572   4.086   0.275  0.3985 -1.6498  0.4720
  950MOL0     C28148   3.671   4.186   0.237  0.5862 -0.4428 -0.5066
  950MOL0     C28149   3.634   4.318   0.203 -0.3520 -0.0119  0.2312
  950MOL0     O28150   3.734   4.411   0.182 -0.4345 -0.3329 -0.2780
  950MOL0     C28151   3.738   4.508   0.287  0.8642 -0.2286  0.2862
  950MOL0     C28152   3.838   4.633   0.262  0.2045  0.4665 -0.1707
  950MOL0     C28153   3.953   4.627   0.365 -0.1446  0.1701  0.3363
  950MOL0     C28154   4.065   4.726   0.325  0.0553  0.4765 -0.7382
  950MOL0     C28155   4.180   4.711   0.428  1.3809  0.4425 -0.7360
  950MOL0     C28156   4.306   4.796   0.403  1.8221  0.2492  0.4839
  950MOL0     C28157   4.413   4.769   0.506 -0.7551  0.8567  0.3525
  950MOL0     C28158   4.512   4.881   0.539 -0.3544  0.0616  0.3673
  950MOL0    Cl28159   4.421   5.025   0.602 -0.2909 -0.0097  0.1760
  950MOL0     C28160   3.500   4.347   0.195  0.4701 -0.1497 -0.4493
  950MOL0     C28161   3.409   4.246   0.230  0.2232  0.2737 -0.2671
  950MOL0     O28162   3.208   4.180   0.422 -0.2612  0.1354 -0.1371
  950MOL0     C28163   2.974   4.014   0.427  0.1071  0.4099  0.3882
  950MOL0     C28164   2.864   3.924   0.420 -0.0529 -0.8307  0.0306
  950MOL0     N28165   2.340   3.395   0.251  0.4749  0.3997  0.0450
  950MOL0     N28166   2.269   3.333   0.162 -0.4654  0.4906  0.0740
  950MOL0     C28167   1.076   3.407   0.628  0.7411 -0.7422  0.1551
  950MOL0     C28168   0.937   3.404   0.640 -0.9032  0.0840 -0.8359
  950MOL0     C28169   0.497   3.354   0.638  0.1486  0.0321  0.1552
  950MOL0     C28170   0.441   3.290   0.521  1.2023 -0.4023 -0.3407
  950MOL0     C28171   0.305   3.308   0.496  0.9758  0.3786  0.1690
  950MOL0     C28172   0.213   3.368   0.576  0.4365  0.0730 -0.6781
  950MOL0     O28173   0.080   3.391   0.531 -0.2653  0.0573  0.2127
  950MOL0     C28174  -0.015   3.358   0.633 -0.3169  0.3194  0.1886
  950MOL0     C28175  -0.142   3.314   0.556  0.2166  0.7000 -0.3253
  950MOL0     C28176  -0.220   3.432   0.484  0.1809 -0.0260 -0.7811
  950MOL0     C28177  -0.288   3.508   0.593  0.0136  0.3993 -0.0249
  950MOL0     C28178  -0.437   3.535   0.570 -0.0683  0.3786  0.0116
  950MOL0     C28179  -0.557   3.548   0.577  0.5753  0.0387 -1.0310
  950MOL0     C28180   0.274   3.436   0.681  0.2297  0.6185 -0.8650
  950MOL0     C28181   0.409   3.428   0.720  0.2036  0.1117  0.5903
  950MOL0     C28182   0.451   3.526   0.825  0.0260  0.6624 -0.5339
  950MOL0     H28183   0.829   3.259   0.360  1.4359  0.9759 -0.9378
  950MOL0     H28184   1.076   3.268   0.313  0.4886  2.3312 -0.5632
  950MOL0     H28185   1.357   3.275   0.326 -0.0686  1.4668 -0.9362
  950MOL0     H28186   1.262   3.410   0.315 -0.5281 -2.6861 -0.4847
  950MOL0     H28187   1.523   3.425   0.471  0.1841  1.9959  1.6131
  950MOL0     H28188   1.397   3.556   0.448  0.1934 -0.1093  0.3751
  950MOL0     H28189   1.527   3.610   0.260 -1.3834  0.0910  0.0706
  950MOL0     H28190   1.456   3.472   0.185  0.8828  0.2772 -0.5251
  950MOL0     H28191   1.709   3.461   0.354 -1.1573 -0.8366  0.8880
  950MOL0     H28192   1.644   3.326   0.240  1.4718  0.1448  0.2512
  950MOL0     H28193   1.676   3.443   0.052 -1.0325 -1.1537  0.9533
  950MOL0     H28194   1.754   3.584   0.140  3.8848 -0.3550 -0.6756
  950MOL0     H28195   1.930   3.419   0.219 -1.7780  2.6392  0.2184
  950MOL0     H28196   1.850   3.295   0.111  1.0520 -0.3751  0.8848
  950MOL0     H28197   1.953   3.568   0.018 -2.2633  0.7437 -3.0889
  950MOL0     H28198   1.884   3.438  -0.079  1.1230  1.2517 -1.4051
  950MOL0     H28199   2.071   3.285  -0.016 -1.9697  0.5719 -1.8311
  950MOL0     H28200   2.110   3.423  -0.104  0.0259 -1.4446 -0.0046
  950MOL0     H28201   2.144   3.639   0.151  2.1431  2.0224  2.0050
  950MOL0     H28202   2.327   3.722   0.330  0.4429 -0.2516  0.2964
  950MOL0     H28203   2.306   3.601   0.451 -0.9499 -1.1902 -0.5723
  950MOL0     H28204   2.522   3.500   0.393  1.9997 -0.2722 -1.3607
  950MOL0     H28205   2.544   3.624   0.275  2.3129 -2.3253  1.6487
  950MOL0     H28206   2.488   3.691   0.560 -3.1725 -1.0796 -1.3898
  950MOL0     H28207   2.536   3.805   0.417  4.0912  0.1920 -0.3370
  950MOL0     H28208   2.716   3.604   0.549  1.1595 -0.4435 -0.2923
  950MOL0     H28209   2.712   3.772   0.577  1.3996 -0.0619 -1.3160
  950MOL0     H28210   3.018   3.637   0.334 -0.9341  0.1112 -2.4942
  950MOL0     H28211   3.209   3.785   0.329 -1.1264 -2.0448 -0.0454
  950MOL0     H28212   3.588   3.979   0.278  0.6778 -1.6143  0.2341
  950MOL0     H28213   3.775   4.158   0.229  2.2991  3.1783  4.2601
  950MOL0     H28214   3.642   4.560   0.283  0.6162 -0.7089 -0.2028
  950MOL0     H28215   3.767   4.463   0.382 -0.8360  4.5784  3.4078
  950MOL0     H28216   3.868   4.627   0.157 -0.3347  2.0514 -0.4264
  950MOL0     H28217   3.787   4.729   0.273 -0.3081  0.2164 -0.3367
  950MOL0     H28218   3.917   4.648   0.466 -3.0641  1.9834 -0.9390
  950MOL0     H28219   3.991   4.524   0.362  0.3600  0.3576  0.3141
  950MOL0     H28220   4.030   4.830   0.329 -3.8431 -0.6132 -1.8796
  950MOL0     H28221   4.107   4.718   0.225  1.5354  3.2021 -0.4341
  950MOL0     H28222   4.204   4.604   0.427 -0.8194 -0.1770  1.7402
  950MOL0     H28223   4.130   4.729   0.524  0.7315  2.6059 -1.4382
  950MOL0     H28224   4.347   4.768   0.305  0.0236  0.3006 -0.3351
  950MOL0     H28225   4.261   4.896   0.397  3.1606  0.8123 -0.7949
  950MOL0     H28226   4.460   4.676   0.471 -2.4689 -0.4671  1.3906
  950MOL0     H28227   4.367   4.748   0.603 -1.8854  0.1613 -0.3174
  950MOL0     H28228   4.577   4.847   0.620 -0.7601 -0.9193  0.2831
  950MOL0     H28229   4.586   4.898   0.460  2.4093 -0.0462  2.7520
  950MOL0     H28230   3.461   4.445   0.169 -1.7641 -0.7988  0.2462
  950MOL0     H28231   3.307   4.283   0.236 -0.6862 -2.2411  1.9015
  950MOL0     H28232   2.973   4.112   0.472 -0.5089  1.0147 -0.8736
  950MOL0     H28233   2.766   3.966   0.439  0.7231  3.2446 -3.4280
  950MOL0     H28234   1.145   3.453   0.698  2.0712  0.7557 -2.0184
  950MOL0     H28235   0.908   3.437   0.739  1.2175  2.1800 -0.8009
  950MOL0     H28236   0.506   3.236   0.453  1.7127  0.2373 -0.3769
  950MOL0     H28237   0.267   3.275   0.400 -0.2565 -0.7275  1.0026
  950MOL0     H28238  -0.035   3.438   0.705  2.2198  0.8066  0.4299
  950MOL0     H28239   0.026   3.277   0.695 -0.8443 -2.7785 -3.1595
  950MOL0     H28240  -0.205   3.261   0.628  1.6603  0.1478  0.5696
  950MOL0     H28241  -0.103   3.249   0.478 -0.5445  0.2949 -0.3801
  950MOL0     H28242  -0.291   3.388   0.412 -2.0456 -1.8111  2.2808
  950MOL0     H28243  -0.157   3.502   0.429 -1.1336  1.5870 -0.2988
  950MOL0     H28244  -0.273   3.468   0.694 -1.0362  0.8551  0.3231
  950MOL0     H28245  -0.252   3.612   0.596 -1.0638  0.8947 -2.2815
  950MOL0     H28246  -0.660   3.577   0.586  0.9522  0.9850  0.7244
  950MOL0     H28247   0.210   3.491   0.749 -2.7930 -1.5697 -1.7148
  950MOL0     H28248   0.461   3.476   0.922 -0.2624 -0.4900 -1.0794
  950MOL0     H28249   0.543   3.576   0.794 -0.4794  1.8774 -0.1098
  950MOL0     H28250   0.391   3.615   0.842 -0.9757 -0.3022  1.2852
  951MOL0     O28251   7.327   1.811   4.968  0.3392  0.4626  0.0606
  951MOL0     C28252   7.296   1.787   4.847 -0.9264 -0.4036 -0.2898
  951MOL0     O28253   7.387   1.794   4.740  0.5130  0.5347 -0.0022
  951MOL0     C28254   7.511   1.840   4.768  0.4318 -0.6643  0.1909
  951MOL0     C28255   7.543   1.947   4.854  0.1676  0.1579 -0.2617
  951MOL0     C28256   7.670   2.006   4.841  0.6247 -0.1290  0.6105
  951MOL0     C28257   7.765   1.956   4.752 -0.0588 -1.0099 -0.3708
  951MOL0     O28258   7.891   2.005   4.753  0.4294 -0.4840 -0.2630
  951MOL0     C28259   7.905   2.145   4.743 -0.2938  0.5674  0.1158
  951MOL0     C28260   8.055   2.178   4.737  0.0461 -0.2716 -0.3718
  951MOL0     C28261   8.123   2.145   4.880  0.0467  0.3094  0.5701
  951MOL0     C28262   8.275   2.152   4.864 -0.2147  0.0418 -0.0960
  951MOL0     C28263   8.341   2.111   4.987 -0.6347  0.0105  0.1362
  951MOL0     C28264   8.502   2.102   4.993 -0.4725 -0.0644  0.4146
  951MOL0     C28265   8.565   2.033   4.870  0.1803  0.4899  1.0444
  951MOL0     C28266   8.710   2.038   4.890 -0.6012 -0.0131  0.3410
  951MOL0     N28267   8.798   1.985   4.786 -0.2573  0.1315 -0.2559
  951MOL0     C28268   8.856   2.062   4.690  0.6861 -0.2570 -0.1198
  951MOL0     C28269   8.935   1.980   4.621 -0.2667 -0.1847 -0.4200
  951MOL0     C28270   9.004   2.008   4.496  0.1949  0.2610  0.0208
  951MOL0     C28271   9.123   1.917   4.463 -0.0592  0.2102 -0.3817
  951MOL0     C28272   9.252   1.933   4.550 -0.5808  0.7533  0.2332
  951MOL0     C28273   9.365   1.847   4.504 -1.0352  0.5158 -1.0112
  951MOL0     O28274   9.418   1.889   4.378 -0.3770  0.2649 -0.2610
  951MOL0     C28275   9.545   1.861   4.349  0.3019 -0.7449  0.1974
  951MOL0     C28276   9.629   1.775   4.428 -0.7048  1.2521 -0.0004
  951MOL0     C28277   9.759   1.737   4.386  0.2404  0.3361  0.0442
  951MOL0     C28278   9.804   1.782   4.262  0.4014  0.5726  0.1236
  951MOL0     C28279   9.934   1.734   4.211  0.4390 -0.1157  0.8694
  951MOL0     O28280  10.033   1.706   4.304  0.5774  0.7586 -0.4002
  951MOL0     C28281  10.158   1.690   4.255 -0.1395 -0.1656 -1.1156
  951MOL0     C28282  10.248   1.786   4.286 -1.0628 -0.5876 -0.1094
  951MOL0     C28283  10.387   1.775   4.255 -0.2465  0.2708 -0.6913
  951MOL0     C28284  10.423   1.652   4.193  0.2242  0.0378  0.4126
  951MOL0     O28285  10.555   1.620   4.180  0.3002  0.1808 -0.0544
  951MOL0     C28286  10.663   1.713   4.201  1.1323  0.1598 -0.6256
  951MOL0     C28287  10.790   1.658   4.138 -0.3742 -0.5442  0.4135
  951MOL0     C28288  10.905   1.748   4.156  0.0615  0.5281  0.0848
  951MOL0     C28289  11.036   1.693   4.103 -0.7448 -1.0173 -0.7479
  951MOL0     C28290  11.144   1.777   4.181 -0.5019  0.1067  0.8236
  951MOL0     C28291  11.290   1.733   4.154 -0.1198  0.4258  0.1374
  951MOL0     C28292  11.381   1.776   4.265 -0.3521 -0.1480 -1.0832
  951MOL0     C28293  11.520   1.725   4.248  0.2063  0.2729  0.6009
  951MOL0    Cl28294  11.611   1.771   4.092  0.1359 -0.2370 -0.2283
  951MOL0     C28295  10.328   1.551   4.166  0.3502 -1.6177 -0.7802
  951MOL0     C28296  10.194   1.565   4.197 -1.3936 -0.1819 -0.7027
  951MOL0     O28297   9.946   1.730   4.086 -0.3329  0.1535  0.6828
  951MOL0     C28298   9.718   1.858   4.178 -0.4713 -0.7931  0.6907
  951MOL0     C28299   9.599   1.913   4.228 -0.1762  0.2209  0.3663
  951MOL0     N28300   8.938   1.858   4.689 -0.2664  0.5470  0.2600
  951MOL0     N28301   8.866   1.870   4.794  0.0266  0.0698  0.2427
  951MOL0     C28302   7.727   1.863   4.660  0.2494  0.0435  0.1676
  951MOL0     C28303   7.602   1.804   4.667 -0.0971 -0.9405 -0.4848
  951MOL0     C28304   7.159   1.766   4.812  0.3952 -0.1325  0.6461
  951MOL0     C28305   7.128   1.805   4.676  1.0880  0.3944  0.1240
  951MOL0     C28306   6.996   1.772   4.626  0.5105 -1.1030 -0.2007
  951MOL0     C28307   6.899   1.735   4.705  0.2740 -0.7503 -0.2775
  951MOL0     O28308   6.774   1.701   4.646 -0.0357  0.2668 -0.7520
  951MOL0     C28309   6.741   1.566   4.689 -0.1363  0.1464  0.4567
  951MOL0     C28310   6.609   1.530   4.607 -0.2020 -0.5364  0.6020
  951MOL0     C28311   6.495   1.612   4.659 -0.3823  0.7245  0.1629
  951MOL0     C28312   6.384   1.648   4.558  0.6111 -1.1179  0.0822
  951MOL0     C28313   6.327   1.526   4.490 -0.3703 -0.1240 -0.1326
  951MOL0     C28314   6.279   1.435   4.429 -0.3000  0.3656 -0.0239
  951MOL0     C28315   6.925   1.716   4.842 -1.2005 -0.7533  0.4560
  951MOL0     C28316   7.052   1.726   4.894  0.0605 -0.3339 -1.2403
  951MOL0     C28317   7.070   1.682   5.040 -0.4002 -0.7169  0.1795
  951MOL0     H28318   7.468   1.982   4.923 -1.1385  0.3361 -1.7275
  951MOL0     H28319   7.703   2.092   4.899  1.5500 -0.5368  0.7009
  951MOL0     H28320   7.869   2.184   4.647 -4.0053  2.1966  1.9916
  951MOL0     H28321   7.865   2.211   4.821 -0.7176  2.3897 -1.5456
  951MOL0     H28322   8.065   2.287   4.727  2.0541 -0.5659 -2.2103
  951MOL0     H28323   8.095   2.138   4.643 -1.5473  0.8083 -1.5653
  951MOL0     H28324   8.093   2.048   4.919 -1.3942  1.4497  2.4495
  951MOL0     H28325   8.096   2.227   4.948 -0.8560  2.6768 -2.4108
  951MOL0     H28326   8.304   2.081   4.787 -1.2917  0.8378 -1.2694
  951MOL0     H28327   8.311   2.247   4.823 -0.7404  0.0632 -0.5152
  951MOL0     H28328   8.296   2.168   5.068 -0.8502  2.5703 -1.6829
  951MOL0     H28329   8.302   2.010   5.004 -2.1039  0.4639 -0.3408
  951MOL0     H28330   8.541   2.204   5.005 -3.3188  1.3695 -1.4054
  951MOL0     H28331   8.531   2.048   5.084 -0.3410  1.1222  1.1037
  951MOL0     H28332   8.539   2.083   4.776  1.7714 -0.6566 -0.0499
  951MOL0     H28333   8.533   1.929   4.864  0.9050  0.3204 -0.6385
  951MOL0     H28334   8.740   2.140   4.914 -1.4452 -0.1564  2.2249
  951MOL0     H28335   8.730   1.991   4.987  1.3590  2.8190  1.4304
  951MOL0     H28336   8.827   2.163   4.664  1.3435  1.1920  4.0329
  951MOL0     H28337   8.930   2.008   4.416  0.5125  2.2258 -0.3324
  951MOL0     H28338   9.033   2.114   4.497  1.0166  0.2176 -3.8400
  951MOL0     H28339   9.086   1.815   4.469 -0.3599  0.3529  0.3264
  951MOL0     H28340   9.146   1.936   4.358  0.5848  0.7038 -0.1655
  951MOL0     H28341   9.230   1.917   4.656 -0.6170  0.6692  0.2134
  951MOL0     H28342   9.288   2.036   4.539  0.8182  0.6695  3.0556
  951MOL0     H28343   9.337   1.741   4.495  0.9718 -0.1711  0.2515
  951MOL0     H28344   9.430   1.849   4.591 -1.8621 -1.7774 -0.2762
  951MOL0     H28345   9.590   1.724   4.515 -1.0577  0.3941 -0.6465
  951MOL0     H28346   9.827   1.673   4.441  0.8418  0.7920 -0.1569
  951MOL0     H28347  10.230   1.875   4.345  0.6590  1.3590 -2.3370
  951MOL0     H28348  10.454   1.856   4.280  0.2254 -0.6251  1.1323
  951MOL0     H28349  10.637   1.813   4.164 -2.2170  0.4985  2.1306
  951MOL0     H28350  10.692   1.713   4.307  0.3028 -0.8474 -0.3838
  951MOL0     H28351  10.810   1.559   4.180 -0.0455 -2.1486 -3.1243
  951MOL0     H28352  10.785   1.650   4.029  3.1238  1.1023 -0.0141
  951MOL0     H28353  10.883   1.836   4.096 -0.8820  0.3187  0.1152
  951MOL0     H28354  10.912   1.795   4.254 -0.7054  0.3303  0.2381
  951MOL0     H28355  11.045   1.714   3.996 -0.2000  3.5498 -0.0087
  951MOL0     H28356  11.048   1.585   4.115 -1.3409 -0.8776  1.7008
  951MOL0     H28357  11.124   1.742   4.283 -0.3337  0.3414  0.9380
  951MOL0     H28358  11.124   1.884   4.178 -0.4305  0.1399  1.3780
  951MOL0     H28359  11.298   1.624   4.157  0.0576  0.2913 -2.5490
  951MOL0     H28360  11.320   1.772   4.056  0.9397  1.5911  0.9002
  951MOL0     H28361  11.334   1.740   4.357 -0.3049 -0.3904 -1.1530
  951MOL0     H28362  11.392   1.884   4.275  0.4238 -0.2125 -1.1602
  951MOL0     H28363  11.587   1.756   4.329 -0.2951  0.7227  0.8535
  951MOL0     H28364  11.524   1.616   4.244 -0.0521  0.2784 -2.5607
  951MOL0     H28365  10.362   1.460   4.119 -1.4199 -2.2605 -0.8934
  951MOL0     H28366  10.123   1.485   4.179 -1.4580 -0.2478 -0.1697
  951MOL0     H28367   9.756   1.897   4.084 -2.9097  0.5208  0.1760
  951MOL0     H28368   9.537   1.983   4.173 -0.8580 -1.2532 -0.8195
  951MOL0     H28369   7.797   1.813   4.593  1.1571  1.6988 -0.1848
  951MOL0     H28370   7.567   1.726   4.599  0.3542 -1.1888 -0.4370
  951MOL0     H28371   7.193   1.846   4.599 -0.6496  2.6539 -0.2604
  951MOL0     H28372   6.979   1.779   4.519  1.1120 -1.6534 -0.3378
  951MOL0     H28373   6.717   1.563   4.796  0.4035 -0.6184  0.5680
  951MOL0     H28374   6.825   1.496   4.684 -0.9338 -1.3726  4.2818
  951MOL0     H28375   6.583   1.425   4.623  0.1168 -0.5005  1.3851
  951MOL0     H28376   6.630   1.552   4.502  0.6305  0.0479  0.8774
  951MOL0     H28377   6.531   1.705   4.704  0.5921  0.4186  0.0460
  951MOL0     H28378   6.454   1.559   4.745  2.2333 -0.7697  0.6068
  951MOL0     H28379   6.295   1.684   4.609 -0.2430 -4.4255  1.1678
  951MOL0     H28380   6.424   1.715   4.481 -1.4761  1.2937  0.9938
  951MOL0     H28381   6.237   1.370   4.356 -2.5222  3.9912 -2.2771
  951MOL0     H28382   6.839   1.701   4.906 -1.5087  0.9157  0.4720
  951MOL0     H28383   7.139   1.597   5.041  2.4513  1.4502  1.0568
  951MOL0     H28384   7.119   1.769   5.083 -0.4039 -0.3960 -0.4615
  951MOL0     H28385   6.971   1.667   5.085 -0.2633 -0.5451  0.5371
  952MOL0     O28386   2.887   1.488   1.361 -0.2334  0.5297 -0.9497
  952MOL0     C28387   2.809   1.489   1.456  0.1410  1.2047 -0.0465
  952MOL0     O28388   2.822   1.434   1.578 -0.7415 -0.0053 -0.1021
  952MOL0     C28389   2.940   1.365   1.607 -0.2392 -0.0365  0.3779
  952MOL0     C28390   3.006   1.275   1.520 -0.1542 -0.2182  0.8099
  952MOL0     C28391   3.123   1.208   1.560  0.1918  0.5437 -0.6910
  952MOL0     C28392   3.168   1.229   1.697  0.1699 -0.5222  0.5653
  952MOL0     O28393   3.268   1.160   1.749  0.0042  0.3806 -0.4053
  952MOL0     C28394   3.251   1.017   1.769  0.0196 -0.4172 -0.7110
  952MOL0     C28395   3.328   0.971   1.882 -0.5149  0.0464  0.2361
  952MOL0     C28396   3.265   0.999   2.012  0.7379 -0.3434 -0.4284
  952MOL0     C28397   3.348   0.955   2.131 -0.6968 -0.3419 -0.0868
  952MOL0     C28398   3.470   1.050   2.157 -0.4035  0.0880 -0.4340
  952MOL0     C28399   3.551   0.991   2.275 -0.0329  0.8211 -0.7160
  952MOL0     C28400   3.663   1.073   2.322 -0.6335 -1.3602 -0.5324
  952MOL0     C28401   3.787   1.006   2.397  0.3266  0.9869 -0.3880
  952MOL0     N28402   3.897   1.091   2.431 -0.1306 -0.2913 -0.4023
  952MOL0     C28403   4.014   1.091   2.358  0.7860 -0.6790 -1.1750
  952MOL0     C28404   4.096   1.166   2.440  0.6118  0.2917 -0.1809
  952MOL0     C28405   4.235   1.189   2.395 -0.4245 -0.2136 -0.3255
  952MOL0     C28406   4.295   1.280   2.503 -0.5905  0.0749 -0.0414
  952MOL0     C28407   4.437   1.314   2.462 -0.0249  0.2190  0.0187
  952MOL0     C28408   4.507   1.382   2.581 -0.3896 -0.1697  0.2664
  952MOL0     O28409   4.525   1.283   2.678  0.2775 -0.1918  0.0537
  952MOL0     C28410   4.594   1.320   2.792  0.1527  0.4357 -0.0513
  952MOL0     C28411   4.578   1.227   2.900  1.0639 -0.7970 -0.8164
  952MOL0     C28412   4.662   1.232   3.013  0.5496 -0.0884  0.4396
  952MOL0     C28413   4.758   1.334   3.022  0.2548 -0.7381  0.6833
  952MOL0     C28414   4.866   1.335   3.121 -0.5001  0.1834 -0.2524
  952MOL0     O28415   4.831   1.266   3.240  0.1907 -1.0171  0.7297
  952MOL0     C28416   4.913   1.235   3.340 -0.5755 -0.0519  0.2293
  952MOL0     C28417   4.866   1.216   3.469 -0.5705 -0.2564 -0.6265
  952MOL0     C28418   4.954   1.195   3.580  0.3757 -0.3276  0.3989
  952MOL0     C28419   5.088   1.173   3.553  0.4089  1.0555  0.1880
  952MOL0     O28420   5.184   1.143   3.649 -0.3174 -0.5237  0.0307
  952MOL0     C28421   5.192   1.214   3.775 -0.2488 -0.1690 -0.4533
  952MOL0     C28422   5.239   1.362   3.765 -0.9209  0.4302 -0.0129
  952MOL0     C28423   5.288   1.419   3.902  0.6686  0.4588  0.0753
  952MOL0     C28424   5.396   1.529   3.898  0.5878  1.0299 -0.1274
  952MOL0     C28425   5.468   1.528   4.032 -0.5999 -0.8194  0.5528
  952MOL0     C28426   5.588   1.430   4.042  0.0388 -0.4056 -0.7019
  952MOL0     C28427   5.687   1.467   4.154 -0.3099  0.1001  0.8469
  952MOL0     C28428   5.776   1.347   4.200 -0.0008 -0.2815  0.8981
  952MOL0    Cl28429   5.927   1.417   4.281 -0.2162 -0.0509  0.3553
  952MOL0     C28430   5.141   1.177   3.425  0.5533  0.3457 -0.7107
  952MOL0     C28431   5.053   1.211   3.319 -0.0335  0.6134  0.5512
  952MOL0     O28432   4.976   1.388   3.099  0.2674 -0.2489 -0.3929
  952MOL0     C28433   4.773   1.427   2.917  1.2534 -0.3968 -0.4975
  952MOL0     C28434   4.689   1.419   2.805 -0.6074 -0.9254  0.1324
  952MOL0     N28435   4.029   1.200   2.556 -0.5150 -0.3771  0.2874
  952MOL0     N28436   3.914   1.151   2.550  0.6085 -0.3148  0.6113
  952MOL0     C28437   3.109   1.322   1.776 -0.0033  0.0519  0.6053
  952MOL0     C28438   2.983   1.387   1.736  0.5810  0.7004  0.6482
  952MOL0     C28439   2.694   1.575   1.439 -0.0597 -0.7519 -0.5642
  952MOL0     C28440   2.631   1.638   1.552  0.3106  0.5777 -0.0816
  952MOL0     C28441   2.525   1.731   1.530  0.9231  0.1470 -0.2397
  952MOL0     C28442   2.464   1.747   1.411 -0.0518 -0.1194  0.4638
  952MOL0     O28443   2.346   1.820   1.408 -0.1283 -0.2582  0.1898
  952MOL0     C28444   2.301   1.876   1.281 -0.1526  0.3039  0.1572
  952MOL0     C28445   2.180   1.976   1.297  0.8038  0.9891 -0.4899
  952MOL0     C28446   2.197   2.115   1.363  0.2001  1.0730  0.5600
  952MOL0     C28447   2.087   2.172   1.448 -0.4270 -0.3778  0.7942
  952MOL0     C28448   1.954   2.185   1.388  0.5457 -0.4438  0.0429
  952MOL0     C28449   1.843   2.181   1.341 -1.1938  0.4120 -0.0709
  952MOL0     C28450   2.525   1.687   1.301 -0.2728  0.0045 -0.0334
  952MOL0     C28451   2.630   1.590   1.314  0.1936  0.1687  1.3415
  952MOL0     C28452   2.664   1.503   1.192 -0.3523 -0.3954 -0.4646
  952MOL0     H28453   2.960   1.260   1.423 -1.1451 -1.6847  1.4584
  952MOL0     H28454   3.165   1.141   1.486  1.3963  1.4113 -0.8318
  952MOL0     H28455   3.150   0.989   1.801  0.9173 -1.8277  1.0446
  952MOL0     H28456   3.283   0.968   1.676  4.2205 -2.5644  1.6159
  952MOL0     H28457   3.434   1.001   1.877 -0.1547 -0.8807  1.6745
  952MOL0     H28458   3.323   0.862   1.873 -0.6231  0.1393 -1.0960
  952MOL0     H28459   3.177   0.936   2.023  1.7071 -1.7221 -0.2367
  952MOL0     H28460   3.230   1.101   2.026  1.3132 -0.3529  1.3032
  952MOL0     H28461   3.290   0.971   2.223  0.7541 -1.1353  1.0212
  952MOL0     H28462   3.394   0.858   2.114  3.9978  1.4797  0.6615
  952MOL0     H28463   3.529   1.064   2.066 -1.2523  3.7174 -0.5781
  952MOL0     H28464   3.442   1.154   2.180  5.0389  2.1124 -1.4970
  952MOL0     H28465   3.488   0.971   2.362  1.1697 -0.8618 -0.2022
  952MOL0     H28466   3.588   0.895   2.239 -2.9336  0.6496 -3.6796
  952MOL0     H28467   3.629   1.164   2.374 -0.8043 -1.7869  0.1202
  952MOL0     H28468   3.709   1.120   2.235 -1.0079 -0.6231 -0.3438
  952MOL0     H28469   3.743   0.961   2.487 -0.7776 -1.5658 -2.0675
  952MOL0     H28470   3.827   0.926   2.334  1.7952  0.9556  0.5094
  952MOL0     H28471   4.042   1.047   2.263 -2.1491  1.9794 -3.4753
  952MOL0     H28472   4.290   1.095   2.395  2.9576  1.5713  0.4402
  952MOL0     H28473   4.233   1.255   2.307 -2.3104  2.9498  1.8528
  952MOL0     H28474   4.249   1.377   2.524  1.2397  1.0080 -0.1014
  952MOL0     H28475   4.297   1.217   2.592  1.2814  3.7725  2.8411
  952MOL0     H28476   4.419   1.387   2.383 -2.5551 -0.5268 -0.2002
  952MOL0     H28477   4.499   1.232   2.426 -3.0514 -2.2562  0.0093
  952MOL0     H28478   4.447   1.467   2.615  1.3178  1.0084  0.4246
  952MOL0     H28479   4.603   1.423   2.550  0.4239 -1.1721  1.3797
  952MOL0     H28480   4.517   1.139   2.885  0.2474 -0.5215  0.6592
  952MOL0     H28481   4.672   1.148   3.080  0.8406  1.0748  1.9156
  952MOL0     H28482   4.760   1.223   3.488 -0.4790  0.0657 -0.2341
  952MOL0     H28483   4.912   1.193   3.680 -0.0805 -0.0713  0.2152
  952MOL0     H28484   5.095   1.213   3.824 -0.0011  1.3302  0.1060
  952MOL0     H28485   5.268   1.158   3.831 -0.8549 -1.7877 -1.2001
  952MOL0     H28486   5.327   1.350   3.701  0.0529  0.5934  1.2396
  952MOL0     H28487   5.159   1.420   3.718 -2.0143 -2.0906 -1.4018
  952MOL0     H28488   5.197   1.454   3.952 -0.6618 -1.6604 -0.7040
  952MOL0     H28489   5.323   1.332   3.957 -1.8127 -1.7906 -1.6159
  952MOL0     H28490   5.351   1.626   3.877  1.2737  1.1451 -1.1434
  952MOL0     H28491   5.473   1.499   3.826  0.3356 -1.2693  0.4877
  952MOL0     H28492   5.394   1.515   4.112 -0.9514  0.1335  0.3871
  952MOL0     H28493   5.514   1.627   4.041 -3.1031  0.5943 -1.1248
  952MOL0     H28494   5.542   1.337   4.075  1.0844 -0.8556 -0.4606
  952MOL0     H28495   5.640   1.409   3.948 -1.6984 -0.5547 -1.6547
  952MOL0     H28496   5.628   1.495   4.241  0.5666  1.3667  1.0630
  952MOL0     H28497   5.744   1.554   4.120  0.6385 -0.8519 -0.0798
  952MOL0     H28498   5.721   1.289   4.275  1.1917 -0.6176  1.5310
  952MOL0     H28499   5.806   1.292   4.111  0.9169 -0.5012  1.3299
  952MOL0     H28500   5.246   1.155   3.407  0.5378  0.0542 -0.4551
  952MOL0     H28501   5.100   1.213   3.221  0.7024  1.7741  0.9046
  952MOL0     H28502   4.848   1.505   2.917  1.2364 -0.3801 -0.0516
  952MOL0     H28503   4.713   1.487   2.724  4.2507 -0.2231  1.8268
  952MOL0     H28504   3.141   1.334   1.878 -1.7765 -3.5220  1.7665
  952MOL0     H28505   2.930   1.450   1.807  0.9036  1.5139  0.1905
  952MOL0     H28506   2.656   1.618   1.656 -0.6111 -0.0266  0.0356
  952MOL0     H28507   2.478   1.782   1.614  1.6035 -0.5742  0.5982
  952MOL0     H28508   2.261   1.791   1.225 -2.2786  1.0042  0.5213
  952MOL0     H28509   2.386   1.922   1.231  0.3914  0.6037  1.3225
  952MOL0     H28510   2.103   1.919   1.349  2.9805 -3.8481 -1.9628
  952MOL0     H28511   2.141   1.993   1.196 -0.4089  0.0450 -0.1984
  952MOL0     H28512   2.231   2.191   1.292 -1.9255  1.0184 -0.5851
  952MOL0     H28513   2.285   2.096   1.426 -0.1053  0.2819  0.7519
  952MOL0     H28514   2.082   2.110   1.538  0.6715  1.5109  2.2292
  952MOL0     H28515   2.129   2.267   1.481 -0.7974  0.4721 -1.0611
  952MOL0     H28516   1.745   2.188   1.297 -0.6656  0.7736 -1.2504
  952MOL0     H28517   2.474   1.703   1.206 -1.6211  0.7332  0.7774
  952MOL0     H28518   2.686   1.398   1.215  0.9417 -0.1449 -0.4607
  952MOL0     H28519   2.575   1.499   1.128 -0.2881  0.8313 -0.6584
  952MOL0     H28520   2.753   1.524   1.131 -0.8722 -2.5066 -2.0979
  953MOL0     O28521   0.756   3.684   6.193  0.3213  0.0368 -0.5649
  953MOL0     C28522   0.773   3.741   6.301  0.9432  0.4956 -0.0954
  953MOL0     O28523   0.666   3.779   6.390  0.4955 -0.2156  0.2091
  953MOL0     C28524   0.543   3.767   6.327  0.1053  0.2564  0.4404
  953MOL0     C28525   0.468   3.657   6.350 -0.6907 -0.1611  0.7675
  953MOL0     C28526   0.342   3.638   6.286 -0.1549  0.2230 -0.3681
  953MOL0     C28527   0.293   3.744   6.211  0.4090 -0.2912  0.3876
  953MOL0     O28528   0.174   3.739   6.141  0.5600  0.5095  0.7028
  953MOL0     C28529   0.077   3.634   6.163  0.8933  0.2844  0.2605
  953MOL0     C28530  -0.046   3.647   6.078  0.2924  0.0856 -0.2330
  953MOL0     C28531  -0.025   3.593   5.934 -0.7556 -0.2140  0.6650
  953MOL0     C28532   0.040   3.690   5.838 -0.5952  0.2637  0.1205
  953MOL0     C28533   0.019   3.651   5.694 -0.5778  0.9857 -0.2456
  953MOL0     C28534   0.068   3.757   5.595  0.0295  0.1656  1.3432
  953MOL0     C28535   0.023   3.717   5.445  0.7136  0.0647  0.3577
  953MOL0     C28536   0.083   3.828   5.346 -0.2631  0.6000 -0.7372
  953MOL0     N28537   0.228   3.809   5.315  0.4028  0.5313 -0.4543
  953MOL0     C28538   0.296   3.691   5.319  0.8449 -1.4305 -0.1916
  953MOL0     C28539   0.422   3.727   5.307  0.4134 -0.5368 -0.6047
  953MOL0     C28540   0.540   3.632   5.305 -0.6766 -0.2301 -0.0199
  953MOL0     C28541   0.592   3.607   5.455 -1.1765  0.0764  0.0444
  953MOL0     C28542   0.684   3.490   5.473  0.2103 -0.7114  0.2551
  953MOL0     C28543   0.832   3.516   5.455  0.1335  0.1252  0.3274
  953MOL0     O28544   0.858   3.538   5.316  0.3988 -0.0727  0.5613
  953MOL0     C28545   0.978   3.582   5.276  0.1223  0.6528  0.9785
  953MOL0     C28546   0.985   3.630   5.147 -0.0284 -0.0294 -0.2724
  953MOL0     C28547   1.106   3.687   5.099  0.2294  0.3890  0.6200
  953MOL0     C28548   1.223   3.701   5.174  0.1759 -0.4631 -0.0140
  953MOL0     C28549   1.344   3.776   5.131  0.8982 -0.2561 -0.1086
  953MOL0     O28550   1.316   3.836   5.008  0.1569 -0.3942 -0.0010
  953MOL0     C28551   1.435   3.888   4.945  0.7568  0.4873 -0.1424
  953MOL0     C28552   1.550   3.811   4.931 -0.3391 -0.4568  0.3994
  953MOL0     C28553   1.670   3.866   4.892  0.0932  0.0508  0.8139
  953MOL0     C28554   1.680   3.997   4.860  0.4014  0.1931 -0.8155
  953MOL0     O28555   1.796   4.047   4.814 -0.4079 -0.2749 -0.0717
  953MOL0     C28556   1.823   4.185   4.840  0.5257 -0.4341 -0.1121
  953MOL0     C28557   1.968   4.225   4.802  0.1446  0.0640  0.5444
  953MOL0     C28558   2.077   4.163   4.889 -0.2225 -0.7351  0.5132
  953MOL0     C28559   2.131   4.020   4.837 -0.0574 -0.0539 -1.1032
  953MOL0     C28560   2.268   3.981   4.895 -0.3561 -0.7944 -0.3378
  953MOL0     C28561   2.377   4.040   4.803 -0.0213  0.1885  0.0473
  953MOL0     C28562   2.518   3.966   4.807  0.3380 -0.6463 -0.1452
  953MOL0     C28563   2.592   4.013   4.937 -0.3245  0.3399 -0.1808
  953MOL0    Cl28564   2.530   3.924   5.080 -0.4980  0.0268  0.0232
  953MOL0     C28565   1.562   4.078   4.870  0.4988 -0.2738  0.4006
  953MOL0     C28566   1.447   4.017   4.903  0.1489 -0.1568  0.0681
  953MOL0     O28567   1.446   3.773   5.197  0.5115  0.1870 -0.0072
  953MOL0     C28568   1.207   3.652   5.305 -0.0294  0.0619 -0.5270
  953MOL0     C28569   1.091   3.593   5.359  0.4445  0.7207 -0.1454
  953MOL0     N28570   0.436   3.863   5.278  0.6484  0.0137 -0.3836
  953MOL0     N28571   0.319   3.912   5.285 -0.1480  0.8850 -0.4140
  953MOL0     C28572   0.365   3.860   6.191  0.1413 -0.6282  0.3490
  953MOL0     C28573   0.496   3.863   6.244 -0.3843  0.1022 -0.0226
  953MOL0     C28574   0.899   3.820   6.313 -0.3574  0.2070 -0.4999
  953MOL0     C28575   0.889   3.947   6.353 -0.2938  0.4205 -0.3206
  953MOL0     C28576   1.008   4.031   6.358  0.2775 -0.3679 -0.2081
  953MOL0     C28577   1.137   3.985   6.337 -0.7193 -0.2716  0.0424
  953MOL0     O28578   1.252   4.051   6.373 -0.0975  0.0943  0.0294
  953MOL0     C28579   1.256   4.181   6.418  0.2512 -0.5756  0.8130
  953MOL0     C28580   1.401   4.217   6.452  0.1428 -0.3460  0.2002
  953MOL0     C28581   1.427   4.349   6.526  0.2540 -0.7450  0.6493
  953MOL0     C28582   1.381   4.332   6.673 -0.2278 -0.4281  0.0270
  953MOL0     C28583   1.488   4.268   6.753  0.1059  0.3369 -0.5358
  953MOL0     C28584   1.564   4.207   6.834  0.2494 -0.6479 -0.4307
  953MOL0     C28585   1.141   3.853   6.286 -0.0627  0.6587 -0.3057
  953MOL0     C28586   1.023   3.775   6.280  0.5306 -0.7187 -0.8267
  953MOL0     C28587   1.042   3.630   6.248  0.3195 -0.1916  1.0694
  953MOL0     H28588   0.518   3.585   6.413  0.6393 -0.5464 -0.6770
  953MOL0     H28589   0.293   3.542   6.298  2.7887 -1.9355 -3.5716
  953MOL0     H28590   0.116   3.532   6.157  1.9139  0.6442  0.5429
  953MOL0     H28591   0.046   3.649   6.267  2.8426  0.4894  0.8542
  953MOL0     H28592  -0.087   3.748   6.087 -1.1620 -0.4452 -0.6857
  953MOL0     H28593  -0.125   3.587   6.126 -0.1324  0.1315 -0.8731
  953MOL0     H28594  -0.125   3.573   5.894 -0.6938  4.2444 -2.4711
  953MOL0     H28595   0.028   3.497   5.939  0.2732  0.1280 -1.9257
  953MOL0     H28596  -0.008   3.787   5.852  0.2513  0.7119 -0.0753
  953MOL0     H28597   0.146   3.698   5.864 -0.6264 -1.3264  0.8770
  953MOL0     H28598   0.076   3.560   5.671 -0.9043  0.4051  1.1304
  953MOL0     H28599  -0.084   3.618   5.674  0.4422 -2.5844 -0.2700
  953MOL0     H28600   0.024   3.854   5.622 -1.7884 -0.6610  1.4852
  953MOL0     H28601   0.177   3.756   5.602  0.0506  0.0882  0.9920
  953MOL0     H28602  -0.087   3.718   5.446  0.6688 -1.8329  1.3969
  953MOL0     H28603   0.068   3.623   5.414  2.3849  0.6115  0.9973
  953MOL0     H28604   0.031   3.825   5.249 -0.7088 -2.0042 -0.4999
  953MOL0     H28605   0.061   3.926   5.389 -1.3705  1.3901 -2.9128
  953MOL0     H28606   0.264   3.588   5.312 -0.8881 -0.8612 -1.4459
  953MOL0     H28607   0.514   3.533   5.264 -1.0744 -1.9068  3.8078
  953MOL0     H28608   0.616   3.674   5.239  0.6944 -0.2600  1.4669
  953MOL0     H28609   0.654   3.694   5.481  0.3552 -1.0209  0.1612
  953MOL0     H28610   0.506   3.592   5.521 -0.0379 -1.3796  1.2587
  953MOL0     H28611   0.660   3.405   5.408  1.1434 -0.0722 -0.9466
  953MOL0     H28612   0.674   3.459   5.578 -0.1342 -0.9325  0.1577
  953MOL0     H28613   0.890   3.430   5.490  0.5510  0.6097  0.8439
  953MOL0     H28614   0.845   3.601   5.523 -4.7174 -0.4985  2.4835
  953MOL0     H28615   0.906   3.610   5.075  0.3679 -0.1896 -0.6708
  953MOL0     H28616   1.107   3.721   4.996  0.5619 -2.0211 -0.2485
  953MOL0     H28617   1.556   3.710   4.971  2.0641 -1.0390 -1.2156
  953MOL0     H28618   1.760   3.805   4.888  0.1099  0.1207 -1.6894
  953MOL0     H28619   1.758   4.252   4.781 -1.6145 -1.4206  0.9920
  953MOL0     H28620   1.819   4.213   4.945  3.8187  2.1024 -0.5024
  953MOL0     H28621   1.986   4.207   4.696  2.9297 -1.5332  1.1912
  953MOL0     H28622   1.962   4.333   4.819 -0.3461  0.6967 -2.9596
  953MOL0     H28623   2.157   4.238   4.884 -0.3554 -0.6626 -0.9871
  953MOL0     H28624   2.049   4.149   4.993 -1.0696 -0.2922  0.3549
  953MOL0     H28625   2.138   4.026   4.728 -1.5062  4.0777 -1.1259
  953MOL0     H28626   2.060   3.944   4.872 -0.4277  1.2652  1.3042
  953MOL0     H28627   2.269   3.872   4.905 -2.1909 -0.6189  4.5242
  953MOL0     H28628   2.284   4.025   4.994  2.1439  1.7428 -1.7037
  953MOL0     H28629   2.345   4.033   4.698  1.1329 -1.1473 -0.2361
  953MOL0     H28630   2.389   4.148   4.817 -1.7598  0.1235  2.6788
  953MOL0     H28631   2.584   4.003   4.728 -0.0858 -0.6747 -0.5226
  953MOL0     H28632   2.508   3.859   4.786  0.4236 -0.4284 -1.3860
  953MOL0     H28633   2.697   3.983   4.934 -0.0819  1.2112 -0.7342
  953MOL0     H28634   2.602   4.120   4.959  0.5182  0.3801 -0.7084
  953MOL0     H28635   1.559   4.182   4.840  1.5314 -0.8251 -1.8131
  953MOL0     H28636   1.357   4.077   4.915  0.4463  1.3902 -4.0752
  953MOL0     H28637   1.295   3.654   5.369  0.0197  1.4772 -0.6082
  953MOL0     H28638   1.073   3.546   5.455 -2.0664  0.1438 -0.8260
  953MOL0     H28639   0.332   3.944   6.132 -1.6276  0.0684  2.1921
  953MOL0     H28640   0.559   3.949   6.224  0.6026 -1.1038 -2.4125
  953MOL0     H28641   0.798   4.000   6.379  0.6375  2.4039 -0.8700
  953MOL0     H28642   0.993   4.131   6.399 -2.4297  0.1926 -2.2808
  953MOL0     H28643   1.190   4.194   6.504  0.2391  2.8407  0.4121
  953MOL0     H28644   1.217   4.254   6.346  1.4091 -0.5346  0.2133
  953MOL0     H28645   1.462   4.220   6.362  0.7952  1.3089  0.6618
  953MOL0     H28646   1.443   4.134   6.510 -1.2686 -1.0349  0.2962
  953MOL0     H28647   1.368   4.429   6.479 -0.1450 -3.2829 -3.7756
  953MOL0     H28648   1.532   4.380   6.521 -0.7730  3.1376 -0.4956
  953MOL0     H28649   1.374   4.431   6.720  1.7842 -0.4508  0.4656
  953MOL0     H28650   1.293   4.271   6.692 -0.9035  0.6837  0.5700
  953MOL0     H28651   1.635   4.171   6.905  0.6701 -0.2324 -0.6310
  953MOL0     H28652   1.238   3.806   6.290 -0.2304  0.3963  1.3423
  953MOL0     H28653   0.978   3.563   6.306  1.0740  0.3536  2.5835
  953MOL0     H28654   1.008   3.619   6.144 -1.6647 -2.0168  1.8235
  953MOL0     H28655   1.144   3.591   6.258  0.3263 -0.2669  0.7272
  954MOL0     O28656  11.124   8.775  11.097 -0.0772  0.0839 -0.2128
  954MOL0     C28657  11.187   8.690  11.159  0.1149 -0.1556  0.0262
  954MOL0     O28658  11.319   8.653  11.133 -0.0479 -0.2996  0.1866
  954MOL0     C28659  11.392   8.703  11.034 -0.0516 -0.2676  0.6165
  954MOL0     C28660  11.466   8.823  11.052 -0.0018  0.3000  0.1594
  954MOL0     C28661  11.557   8.869  10.954  0.3784  0.1644 -0.4274
  954MOL0     C28662  11.582   8.798  10.840 -0.2025  1.1001 -1.0993
  954MOL0     O28663  11.655   8.839  10.738 -0.2130 -0.3168  0.0745
  954MOL0     C28664  11.762   8.754  10.707 -0.7514 -0.6586  0.4461
  954MOL0     C28665  11.862   8.822  10.615  0.1006 -1.1090  0.4705
  954MOL0     C28666  11.946   8.928  10.687  0.0984  0.0865 -0.5340
  954MOL0     C28667  12.092   8.906  10.658  0.5325  0.0209  0.0041
  954MOL0     C28668  12.179   8.997  10.742 -0.4218 -0.6380 -0.7533
  954MOL0     C28669  12.332   8.972  10.721 -0.3714 -0.5077 -0.1212
  954MOL0     C28670  12.415   9.026  10.835 -0.1761  0.3057 -0.0855
  954MOL0     C28671  12.540   9.105  10.791  0.4789 -0.4983 -0.3812
  954MOL0     N28672  12.624   9.142  10.900 -0.0570 -1.4201  0.5577
  954MOL0     C28673  12.684   9.271  10.918 -0.0660  0.6624 -1.0977
  954MOL0     C28674  12.767   9.250  11.029  0.0846 -0.4315 -0.6782
  954MOL0     C28675  12.862   9.352  11.103  0.1724  0.1238  0.0449
  954MOL0     C28676  13.008   9.318  11.068 -0.3637 -0.4193 -0.3034
  954MOL0     C28677  13.107   9.414  11.135  0.4749 -0.5563 -0.9059
  954MOL0     C28678  13.252   9.386  11.087 -0.1282  0.6160 -0.1312
  954MOL0     O28679  13.345   9.473  11.146  0.2802  0.4691  0.0056
  954MOL0     C28680  13.478   9.450  11.125 -0.7095 -0.4527 -0.5646
  954MOL0     C28681  13.559   9.545  11.173  0.2272  0.5131  0.8789
  954MOL0     C28682  13.695   9.526  11.161  0.2680  0.1470  0.3815
  954MOL0     C28683  13.758   9.421  11.098  0.6846 -0.2602 -0.2566
  954MOL0     C28684  13.905   9.414  11.082  0.7968  0.2655 -0.5505
  954MOL0     O28685  13.960   9.336  11.001 -0.4333  0.0628  0.3286
  954MOL0     C28686  14.097   9.320  11.013  0.7861  0.2841  0.4444
  954MOL0     C28687  14.160   9.281  11.128 -0.3326 -0.3355  0.1400
  954MOL0     C28688  14.292   9.247  11.123  0.5110 -0.5865 -0.8560
  954MOL0     C28689  14.364   9.255  10.998 -0.2581  0.2260 -0.2353
  954MOL0     O28690  14.499   9.228  11.001  0.0987  0.1309  0.0211
  954MOL0     C28691  14.569   9.203  10.871 -0.5159 -0.6566  0.4996
  954MOL0     C28692  14.699   9.117  10.914 -0.3512 -0.8542 -0.3979
  954MOL0     C28693  14.675   8.980  10.964 -0.1172  0.9189 -0.4857
  954MOL0     C28694  14.798   8.899  10.994 -0.1178  0.7793  0.4772
  954MOL0     C28695  14.743   8.750  11.026 -0.8093  0.4378  0.4617
  954MOL0     C28696  14.839   8.697  11.138 -0.0193 -0.5996 -0.6275
  954MOL0     C28697  14.787   8.558  11.187 -0.2771 -0.4121 -0.2752
  954MOL0     C28698  14.908   8.460  11.204  0.0236 -0.1430  0.2470
  954MOL0    Cl28699  14.983   8.443  11.038  0.3096 -0.1887  0.3602
  954MOL0     C28700  14.299   9.304  10.882  0.6901  0.7170 -0.0837
  954MOL0     C28701  14.164   9.327  10.894  0.3345  0.1583  1.1128
  954MOL0     O28702  13.964   9.484  11.163 -0.6267  0.1388 -0.0689
  954MOL0     C28703  13.673   9.321  11.052 -0.4848  0.0458  0.0514
  954MOL0     C28704  13.536   9.343  11.058 -0.3247 -0.1299  0.8820
  954MOL0     N28705  12.750   9.115  11.069  0.5090 -0.1931  0.6136
  954MOL0     N28706  12.658   9.063  10.994 -0.5025 -0.5872 -0.0567
  954MOL0     C28707  11.507   8.678  10.823 -0.4644 -0.4255 -0.5411
  954MOL0     C28708  11.422   8.634  10.921  0.0190  0.4308 -0.1910
  954MOL0     C28709  11.123   8.613  11.269 -0.0614  0.0366  0.2079
  954MOL0     C28710  11.201   8.536  11.353 -0.1480  0.8111 -0.5374
  954MOL0     C28711  11.146   8.434  11.431  0.5127  1.1702  0.5107
  954MOL0     C28712  11.011   8.410  11.438 -0.1270 -0.3504 -0.1035
  954MOL0     O28713  10.975   8.297  11.501  0.4124 -0.6812  0.5045
  954MOL0     C28714  10.840   8.256  11.485 -0.7759  0.0411 -0.4012
  954MOL0     C28715  10.827   8.106  11.527 -0.0049 -0.8849  0.9322
  954MOL0     C28716  10.677   8.055  11.519 -0.0189  0.5614  0.3596
  954MOL0     C28717  10.628   8.063  11.377 -0.7301 -0.1386  0.5387
  954MOL0     C28718  10.696   7.966  11.290 -0.5271 -0.1530  0.6342
  954MOL0     C28719  10.762   7.891  11.229 -0.3069  0.7808 -0.2700
  954MOL0     C28720  10.926   8.497  11.365  0.2551  0.0913  0.5979
  954MOL0     C28721  10.980   8.597  11.280 -0.3971  0.6603  0.1796
  954MOL0     C28722  10.875   8.665  11.200 -0.4539 -0.0296 -0.3857
  954MOL0     H28723  11.464   8.870  11.149 -0.0242  0.5840  0.0224
  954MOL0     H28724  11.610   8.963  10.970 -0.2916  0.5976 -0.6790
  954MOL0     H28725  11.816   8.713  10.792  2.6595  1.7107 -0.3910
  954MOL0     H28726  11.706   8.673  10.659 -1.0179  0.0328 -0.4424
  954MOL0     H28727  11.795   8.865  10.540 -0.1205 -2.0920  0.0765
  954MOL0     H28728  11.921   8.747  10.561 -1.8886 -0.1077 -3.4222
  954MOL0     H28729  11.951   8.912  10.796  5.9711  2.0637 -0.1292
  954MOL0     H28730  11.915   9.031  10.667  1.7127  1.4324  2.9231
  954MOL0     H28731  12.135   8.807  10.677  1.9579  0.5177 -0.4868
  954MOL0     H28732  12.111   8.923  10.552 -0.3737  1.9286  0.1016
  954MOL0     H28733  12.151   9.102  10.729 -0.8234  0.0096  3.5898
  954MOL0     H28734  12.169   8.967  10.847  0.5933 -0.5181 -0.6175
  954MOL0     H28735  12.358   8.867  10.708  0.5972 -0.4962  1.4649
  954MOL0     H28736  12.367   9.020  10.630  2.0584  1.1666  1.5797
  954MOL0     H28737  12.434   8.947  10.908 -2.8787  0.4909  0.9124
  954MOL0     H28738  12.359   9.106  10.884  2.5445  2.4533 -0.1821
  954MOL0     H28739  12.603   9.048  10.722  2.8822  1.7703 -0.2131
  954MOL0     H28740  12.495   9.190  10.739  0.2266 -0.1787  0.3392
  954MOL0     H28741  12.678   9.365  10.865  0.7338  2.1640  1.2925
  954MOL0     H28742  12.842   9.445  11.049  0.5893 -0.3064 -0.8713
  954MOL0     H28743  12.848   9.364  11.211 -0.5545 -2.0497  0.2378
  954MOL0     H28744  13.029   9.217  11.103 -0.3320  0.2737  1.8583
  954MOL0     H28745  13.013   9.325  10.959 -1.0451 -2.2876 -0.4861
  954MOL0     H28746  13.092   9.401  11.243 -3.4605  1.1197 -1.0669
  954MOL0     H28747  13.073   9.516  11.112  2.4125  1.6463  4.4019
  954MOL0     H28748  13.247   9.389  10.978 -1.2474  1.1358 -0.0779
  954MOL0     H28749  13.280   9.284  11.114  0.9269  1.5787  2.8114
  954MOL0     H28750  13.521   9.634  11.223 -1.6567 -1.7320  3.7277
  954MOL0     H28751  13.759   9.602  11.205  1.8371 -1.5870  1.1956
  954MOL0     H28752  14.113   9.260  11.224  0.3924 -0.4856  0.4748
  954MOL0     H28753  14.351   9.225  11.211  0.6211  2.8320  0.0901
  954MOL0     H28754  14.504   9.151  10.801 -2.0719  0.3695  1.1303
  954MOL0     H28755  14.601   9.302  10.837  0.6507 -1.9488 -2.5294
  954MOL0     H28756  14.762   9.114  10.825  2.0333 -0.8048  1.1933
  954MOL0     H28757  14.750   9.177  10.990 -2.1383 -0.5860  0.6387
  954MOL0     H28758  14.616   8.990  11.055  3.3583 -0.3257  2.1304
  954MOL0     H28759  14.613   8.927  10.891  1.1129  0.6178 -1.3415
  954MOL0     H28760  14.856   8.946  11.075 -0.0478 -0.1165  0.9622
  954MOL0     H28761  14.856   8.896  10.901 -0.2714  2.1993  0.3094
  954MOL0     H28762  14.758   8.691  10.935  3.1184  0.4208  0.9473
  954MOL0     H28763  14.639   8.752  11.059 -0.8678  0.6288  0.2702
  954MOL0     H28764  14.943   8.694  11.102  0.3718  1.8151  0.1440
  954MOL0     H28765  14.833   8.765  11.223  2.5260  0.1672 -0.9720
  954MOL0     H28766  14.723   8.517  11.108  2.0583  1.1789 -3.2165
  954MOL0     H28767  14.738   8.560  11.285  2.2179 -0.3010  1.0507
  954MOL0     H28768  14.983   8.499  11.274 -0.2721  2.5695 -0.8241
  954MOL0     H28769  14.868   8.361  11.230  1.1762 -0.7752 -0.3192
  954MOL0     H28770  14.343   9.313  10.783 -0.2879  1.6894 -0.4457
  954MOL0     H28771  14.111   9.352  10.802 -0.2187  2.4057  1.9772
  954MOL0     H28772  13.714   9.234  11.002 -2.8954 -0.5289 -1.0743
  954MOL0     H28773  13.479   9.261  11.015  1.7786 -2.5058  2.3217
  954MOL0     H28774  11.512   8.620  10.731  2.4604  1.8582 -1.9739
  954MOL0     H28775  11.369   8.543  10.896  2.6567 -0.3260 -3.6489
  954MOL0     H28776  11.306   8.560  11.365 -0.2226  0.1401  2.0757
  954MOL0     H28777  11.217   8.367  11.480  2.0358  2.4568  0.1332
  954MOL0     H28778  10.806   8.260  11.382  1.3164  4.3108 -1.1610
  954MOL0     H28779  10.778   8.322  11.546  0.3702  1.0923 -0.3176
  954MOL0     H28780  10.871   8.104  11.627  2.3926  0.6000  0.0038
  954MOL0     H28781  10.896   8.043  11.471  3.3153  1.7734  1.6697
  954MOL0     H28782  10.605   8.112  11.579  0.3787 -0.6316  2.0330
  954MOL0     H28783  10.665   7.953  11.557 -2.1690  1.1841  1.5016
  954MOL0     H28784  10.524   8.033  11.388 -0.7104 -1.7754 -2.6550
  954MOL0     H28785  10.624   8.160  11.327 -0.9706  0.2089  1.2197
  954MOL0     H28786  10.805   7.802  11.189 -4.1583 -1.7451  0.6915
  954MOL0     H28787  10.820   8.479  11.353  0.2020  0.9287 -0.2866
  954MOL0     H28788  10.778   8.654  11.250  0.7533 -1.7416  1.7175
  954MOL0     H28789  10.896   8.771  11.215 -1.9008  0.0648  1.3869
  954MOL0     H28790  10.874   8.638  11.094  0.8480 -0.0585 -0.4075
  955MOL0     O28791  10.015   0.718   2.068 -1.3164 -0.3084 -0.8115
  955MOL0     C28792   9.898   0.735   2.036 -0.7296  1.2986  0.7702
  955MOL0     O28793   9.848   0.789   1.911 -0.3974  0.2023  0.9247
  955MOL0     C28794   9.948   0.847   1.832  0.7108 -0.0241 -0.5294
  955MOL0     C28795   9.933   0.981   1.786 -0.3494 -0.0859  0.0707
  955MOL0     C28796  10.030   1.039   1.702 -0.8968  0.1159  0.1149
  955MOL0     C28797  10.144   0.963   1.670  0.5084  0.0043  0.7129
  955MOL0     O28798  10.240   1.009   1.581 -0.1967 -0.1716  0.5374
  955MOL0     C28799  10.372   1.025   1.627  0.7072 -0.3539 -0.2465
  955MOL0     C28800  10.428   1.158   1.571 -0.0587 -0.0994 -0.2121
  955MOL0     C28801  10.576   1.178   1.584  0.1689 -0.2825 -0.0475
  955MOL0     C28802  10.612   1.313   1.526 -1.1200  0.5407 -0.1736
  955MOL0     C28803  10.760   1.344   1.574 -0.3513  0.1104  0.2972
  955MOL0     C28804  10.808   1.489   1.527  0.5364 -0.2127  0.1492
  955MOL0     C28805  10.957   1.505   1.549 -0.5100  0.1034 -0.3683
  955MOL0     C28806  10.986   1.551   1.694 -0.2897  0.6909 -0.4047
  955MOL0     N28807  11.125   1.590   1.703 -0.3823 -0.2555 -0.1840
  955MOL0     C28808  11.173   1.690   1.790 -0.1068  0.2005 -0.0969
  955MOL0     C28809  11.300   1.701   1.746 -0.4506 -0.3165  0.1026
  955MOL0     C28810  11.401   1.806   1.795 -0.6743 -0.1901  0.0551
  955MOL0     C28811  11.552   1.758   1.787  0.0563 -0.0853  0.0532
  955MOL0     C28812  11.637   1.813   1.897 -0.1578  0.0874  0.9213
  955MOL0     C28813  11.599   1.763   2.042  0.1278 -0.6236  0.5272
  955MOL0     O28814  11.643   1.627   2.061 -0.2671  1.1505 -0.3474
  955MOL0     C28815  11.775   1.595   2.084  0.1770  0.4294  0.8023
  955MOL0     C28816  11.876   1.688   2.107  0.0848 -0.0230  0.1885
  955MOL0     C28817  12.003   1.645   2.135  0.0576  1.0920 -0.0775
  955MOL0     C28818  12.030   1.503   2.158  0.1845 -0.0793 -0.1017
  955MOL0     C28819  12.166   1.448   2.174 -0.6300 -0.3344 -0.2553
  955MOL0     O28820  12.166   1.311   2.183 -0.1864 -0.2319 -1.0875
  955MOL0     C28821  12.290   1.266   2.219 -0.3909 -0.1052  0.1716
  955MOL0     C28822  12.340   1.275   2.350 -0.0891 -0.4977  0.6894
  955MOL0     C28823  12.466   1.221   2.381  0.4571 -0.5845 -0.1217
  955MOL0     C28824  12.548   1.164   2.284  0.4596 -0.6186 -0.0797
  955MOL0     O28825  12.670   1.106   2.300 -0.3696  0.1087 -0.1068
  955MOL0     C28826  12.724   1.099   2.437 -0.2278  0.3000  0.5035
  955MOL0     C28827  12.849   1.005   2.432  0.1915  0.5141 -1.1890
  955MOL0     C28828  12.936   1.030   2.560  0.1657 -0.3531 -0.1095
  955MOL0     C28829  12.995   0.894   2.614 -0.0193  0.4153  0.1393
  955MOL0     C28830  13.066   0.911   2.744 -0.6463  0.2171 -0.0862
  955MOL0     C28831  13.220   0.938   2.726  0.2550 -0.6360 -0.5675
  955MOL0     C28832  13.300   0.939   2.856 -1.1464  0.7461 -0.5930
  955MOL0     C28833  13.451   0.966   2.827  0.6782  0.6163  0.5556
  955MOL0    Cl28834  13.532   0.860   2.711 -0.0820  0.6654  0.0033
  955MOL0     C28835  12.513   1.180   2.155 -0.0787 -0.0585 -0.0550
  955MOL0     C28836  12.383   1.223   2.116 -0.3534 -0.5574  0.6291
  955MOL0     O28837  12.260   1.520   2.159  0.1080  0.1168  0.3332
  955MOL0     C28838  11.921   1.417   2.144  0.4007  0.3660  0.6846
  955MOL0     C28839  11.792   1.461   2.110  0.4516 -0.7272  0.1919
  955MOL0     N28840  11.328   1.609   1.650  0.3908 -0.6676  0.4728
  955MOL0     N28841  11.226   1.537   1.625 -0.1573 -0.1361  0.1619
  955MOL0     C28842  10.164   0.840   1.728 -0.3256  0.4102  0.2230
  955MOL0     C28843  10.063   0.781   1.795  0.1780  1.3484 -0.3008
  955MOL0     C28844   9.793   0.669   2.124 -0.5614  0.0099 -0.2263
  955MOL0     C28845   9.663   0.725   2.120 -0.6416 -0.2166 -0.8133
  955MOL0     C28846   9.562   0.670   2.205 -0.2416  0.0905  0.1758
  955MOL0     C28847   9.593   0.556   2.290  0.2044 -0.1091  0.1999
  955MOL0     O28848   9.492   0.511   2.370 -0.1629  0.2731  0.2029
  955MOL0     C28849   9.459   0.374   2.351  0.3513  0.0475 -0.2707
  955MOL0     C28850   9.333   0.358   2.255  0.2335  0.4319  0.4264
  955MOL0     C28851   9.206   0.340   2.338 -0.3618 -0.0225 -0.0055
  955MOL0     C28852   9.088   0.362   2.252 -0.6472  0.4096  0.5805
  955MOL0     C28853   8.954   0.346   2.311 -0.0393  1.1392 -0.0214
  955MOL0     C28854   8.840   0.330   2.337 -0.1964 -0.0527 -0.2868
  955MOL0     C28855   9.723   0.505   2.295  0.6151  0.3918  0.8740
  955MOL0     C28856   9.824   0.561   2.216 -0.1552 -0.6288  0.1558
  955MOL0     C28857   9.958   0.488   2.225  0.4593 -0.0828  0.5203
  955MOL0     H28858   9.847   1.034   1.826 -0.6284 -1.9911  2.2139
  955MOL0     H28859  10.033   1.141   1.665 -0.8012 -0.4447 -1.5164
  955MOL0     H28860  10.376   1.039   1.736 -1.5456  1.2463 -0.3033
  955MOL0     H28861  10.444   0.948   1.598  1.6864  0.6160 -0.4539
  955MOL0     H28862  10.382   1.236   1.633  0.8834 -1.8437  2.8739
  955MOL0     H28863  10.404   1.168   1.465  0.9278  0.8626 -0.3558
  955MOL0     H28864  10.630   1.101   1.528  2.2034 -0.8107  2.4389
  955MOL0     H28865  10.612   1.175   1.688 -2.5857 -0.1565  0.9821
  955MOL0     H28866  10.607   1.307   1.417  1.0123  0.8472 -0.3212
  955MOL0     H28867  10.528   1.382   1.538 -2.7404 -0.8308 -2.7661
  955MOL0     H28868  10.781   1.354   1.681 -0.2946  1.6157  0.1668
  955MOL0     H28869  10.836   1.275   1.537  1.6852  2.8015 -0.9788
  955MOL0     H28870  10.785   1.505   1.422 -1.0062  2.0621  0.7698
  955MOL0     H28871  10.749   1.562   1.583  0.0876 -1.0219  0.7609
  955MOL0     H28872  10.989   1.585   1.481  0.9269  1.0327  1.3131
  955MOL0     H28873  11.009   1.415   1.517  0.6521  0.6519 -0.0829
  955MOL0     H28874  10.923   1.640   1.707 -1.2110  0.4843 -2.8096
  955MOL0     H28875  10.949   1.473   1.761 -1.1408  1.5793  0.1949
  955MOL0     H28876  11.114   1.747   1.861 -1.3436 -1.5850  0.3737
  955MOL0     H28877  11.401   1.883   1.717 -1.3992 -0.4051 -0.1643
  955MOL0     H28878  11.371   1.850   1.890  0.5380 -0.0743  0.3907
  955MOL0     H28879  11.556   1.649   1.796  0.7483  0.0421  1.5321
  955MOL0     H28880  11.595   1.776   1.688 -1.6566 -1.0364 -0.9201
  955MOL0     H28881  11.641   1.922   1.892 -0.1905  0.0489 -1.3700
  955MOL0     H28882  11.738   1.776   1.879 -0.4210 -0.7840  1.1697
  955MOL0     H28883  11.491   1.778   2.052 -0.2088 -0.7680 -2.1228
  955MOL0     H28884  11.647   1.820   2.121 -0.4657  1.1461 -0.3397
  955MOL0     H28885  11.859   1.796   2.108  0.0277 -0.0316  0.1751
  955MOL0     H28886  12.074   1.726   2.131  0.1478  1.0777  0.9347
  955MOL0     H28887  12.270   1.309   2.425  0.0205 -2.5811  1.8160
  955MOL0     H28888  12.491   1.212   2.486 -2.6447 -1.7736  0.6362
  955MOL0     H28889  12.753   1.199   2.470 -1.5688  0.6627  0.6757
  955MOL0     H28890  12.655   1.067   2.516 -0.1445  1.6588  1.1467
  955MOL0     H28891  12.819   0.900   2.439  0.7937  0.4523  1.9400
  955MOL0     H28892  12.909   1.016   2.342  1.3302  0.9199 -0.4052
  955MOL0     H28893  13.002   1.115   2.543  0.9239 -0.9917 -0.4218
  955MOL0     H28894  12.875   1.065   2.644  0.9916  0.6974  0.0725
  955MOL0     H28895  13.060   0.846   2.539 -0.8735 -1.5712  0.6215
  955MOL0     H28896  12.920   0.821   2.644  0.3439  0.2196  0.5742
  955MOL0     H28897  13.048   0.825   2.808  0.0802 -0.0143 -0.1869
  955MOL0     H28898  13.026   0.986   2.813 -2.7638  0.7657 -1.7841
  955MOL0     H28899  13.260   0.860   2.661 -0.3418 -1.4223 -0.0135
  955MOL0     H28900  13.233   1.035   2.677 -2.2074  1.2289  2.0662
  955MOL0     H28901  13.292   0.839   2.900  2.9885  0.3791 -0.2147
  955MOL0     H28902  13.271   1.006   2.937 -0.2751 -1.6090  1.8167
  955MOL0     H28903  13.455   1.068   2.788  4.7369 -0.5043 -2.5548
  955MOL0     H28904  13.501   0.975   2.924  1.4234  1.7335  0.0813
  955MOL0     H28905  12.576   1.145   2.074 -1.1148 -2.0472 -0.0777
  955MOL0     H28906  12.352   1.223   2.012  0.2850  0.3603  0.4263
  955MOL0     H28907  11.941   1.311   2.161 -0.7804  0.1741  0.9796
  955MOL0     H28908  11.715   1.389   2.085  1.5676 -2.0391  0.3755
  955MOL0     H28909  10.250   0.776   1.711  0.0172  0.6709  0.9714
  955MOL0     H28910  10.059   0.678   1.827 -1.2795  1.6376  0.5561
  955MOL0     H28911   9.622   0.813   2.071  0.6415  0.2436 -1.0947
  955MOL0     H28912   9.464   0.716   2.204 -0.2933  0.1676 -3.3492
  955MOL0     H28913   9.448   0.321   2.446 -0.8038  1.8949  0.6753
  955MOL0     H28914   9.535   0.317   2.297  0.6543 -0.3184  0.5216
  955MOL0     H28915   9.342   0.266   2.196 -1.1108  1.2064 -1.0612
  955MOL0     H28916   9.327   0.444   2.187  2.9906 -0.0900 -0.6319
  955MOL0     H28917   9.209   0.408   2.424 -1.5496 -1.6834  1.4232
  955MOL0     H28918   9.211   0.241   2.384 -0.8607  0.6229  1.5188
  955MOL0     H28919   9.096   0.465   2.216  2.5067  0.1911  0.4298
  955MOL0     H28920   9.091   0.289   2.171  1.0543  1.5120 -0.3941
  955MOL0     H28921   8.740   0.319   2.374 -1.1140 -0.7696 -2.7718
  955MOL0     H28922   9.754   0.431   2.368  0.6342  0.0033  0.4767
  955MOL0     H28923   9.992   0.461   2.125  2.2563 -1.2455  1.3984
  955MOL0     H28924  10.035   0.536   2.286  2.6949 -2.7384 -0.0221
  955MOL0     H28925   9.946   0.389   2.270 -1.9875 -1.7345 -3.2031
  956MOL0     O28926   6.502   8.266   4.616  0.7594  0.1313 -0.0746
  956MOL0     C28927   6.400   8.317   4.651 -0.3018  0.0602 -0.0410
  956MOL0     O28928   6.392   8.429   4.725 -0.0380  0.0243 -0.0202
  956MOL0     C28929   6.506   8.491   4.764  0.1214 -1.0006 -0.1065
  956MOL0     C28930   6.511   8.630   4.737 -0.7894  0.8105 -0.2940
  956MOL0     C28931   6.617   8.715   4.784  0.2465  0.4396  0.4564
  956MOL0     C28932   6.723   8.657   4.855  0.4524  0.5124 -0.5344
  956MOL0     O28933   6.826   8.740   4.898  0.2689  0.7643 -0.0535
  956MOL0     C28934   6.925   8.695   4.986 -0.0111 -0.0897  0.3201
  956MOL0     C28935   6.876   8.679   5.132  0.1853  0.7835  0.0703
  956MOL0     C28936   6.981   8.678   5.233 -0.0078 -0.3126  0.4901
  956MOL0     C28937   6.914   8.660   5.369 -0.2145 -0.3985  0.4751
  956MOL0     C28938   6.997   8.692   5.492 -0.6396  0.2602  0.6886
  956MOL0     C28939   7.139   8.626   5.489  0.5647 -0.4491  0.9470
  956MOL0     C28940   7.124   8.472   5.498 -0.8396  0.2356  0.1177
  956MOL0     C28941   7.260   8.399   5.460  0.0010 -0.2881 -0.1519
  956MOL0     N28942   7.364   8.453   5.554  0.1844  0.2030 -0.5486
  956MOL0     C28943   7.370   8.448   5.692 -0.3051  0.4888 -0.0654
  956MOL0     C28944   7.484   8.511   5.718 -0.2241 -0.2109  0.8483
  956MOL0     C28945   7.548   8.523   5.855 -0.3196 -0.3631 -0.3601
  956MOL0     C28946   7.550   8.665   5.897 -0.0419 -0.3527 -0.3015
  956MOL0     C28947   7.622   8.685   6.028 -0.0337 -0.0280 -1.3139
  956MOL0     C28948   7.668   8.829   6.051  1.1221  0.5785 -0.0447
  956MOL0     O28949   7.753   8.867   6.165 -0.2923  0.4964  0.1431
  956MOL0     C28950   7.887   8.862   6.157 -0.3684 -0.1700 -1.0585
  956MOL0     C28951   7.949   8.935   6.263 -0.1419 -0.3279  0.0984
  956MOL0     C28952   8.084   8.954   6.268  0.2930  0.5814 -0.2078
  956MOL0     C28953   8.167   8.897   6.168  0.2443  0.0859 -0.3014
  956MOL0     C28954   8.316   8.922   6.163  0.5279 -0.2352  0.5247
  956MOL0     O28955   8.357   9.012   6.260 -0.3921 -0.0694 -0.0457
  956MOL0     C28956   8.488   9.039   6.273  0.4222  0.3114 -0.2598
  956MOL0     C28957   8.528   9.169   6.284  0.6074 -0.9981  0.0878
  956MOL0     C28958   8.663   9.210   6.304 -0.6514 -0.8268  0.0644
  956MOL0     C28959   8.759   9.112   6.323 -0.5020  0.1756  0.2902
  956MOL0     O28960   8.895   9.131   6.350  0.7776  0.2682 -0.0884
  956MOL0     C28961   8.939   9.262   6.375  0.4352 -0.2469  0.8395
  956MOL0     C28962   9.082   9.276   6.430  0.9314 -0.2787  0.1762
  956MOL0     C28963   9.129   9.429   6.426 -0.6350 -0.4090 -0.3213
  956MOL0     C28964   9.229   9.464   6.540 -0.2511 -0.0638  0.3119
  956MOL0     C28965   9.184   9.429   6.683  0.6990  0.3748 -0.0743
  956MOL0     C28966   9.040   9.469   6.717 -0.0817  0.8537  0.0163
  956MOL0     C28967   9.009   9.450   6.861 -0.6331 -0.3245 -0.3496
  956MOL0     C28968   8.880   9.511   6.909 -0.1598 -0.0019  1.1164
  956MOL0    Cl28969   8.894   9.680   6.898 -0.2688  0.2616  0.3027
  956MOL0     C28970   8.726   8.972   6.303  0.3169 -0.2322  0.0431
  956MOL0     C28971   8.589   8.942   6.292  0.6281  1.0287 -0.0221
  956MOL0     O28972   8.383   8.866   6.076 -0.1952  0.9140  0.6065
  956MOL0     C28973   8.108   8.825   6.059 -0.1309 -0.1255  0.5669
  956MOL0     C28974   7.969   8.803   6.056  0.3033  0.0829 -0.6622
  956MOL0     N28975   7.536   8.570   5.604  0.3209  0.2879 -0.3429
  956MOL0     N28976   7.450   8.541   5.508 -0.0010 -1.0589 -0.3042
  956MOL0     C28977   6.713   8.524   4.902 -0.5256  0.3906  0.3056
  956MOL0     C28978   6.610   8.442   4.847  0.3057 -0.3536  0.0232
  956MOL0     C28979   6.270   8.243   4.633 -1.1207 -0.3037 -0.5997
  956MOL0     C28980   6.160   8.282   4.715 -0.1831  0.8335 -0.2144
  956MOL0     C28981   6.044   8.209   4.704  0.1705 -0.9608 -0.0114
  956MOL0     C28982   6.034   8.107   4.613 -0.1234  0.5724 -0.5218
  956MOL0     O28983   5.910   8.035   4.613  0.6128 -0.0575 -0.1278
  956MOL0     C28984   5.833   7.999   4.731  0.8976 -1.1379  0.5601
  956MOL0     C28985   5.921   7.905   4.818  0.4425  0.0706  0.1837
  956MOL0     C28986   5.972   7.777   4.751 -0.2728  0.2194  0.3748
  956MOL0     C28987   5.996   7.680   4.867 -0.4152  1.1158  0.0868
  956MOL0     C28988   5.993   7.532   4.827 -0.4401 -0.7512 -0.4358
  956MOL0     C28989   5.974   7.413   4.799  0.1148 -0.0754  0.3681
  956MOL0     C28990   6.135   8.073   4.531 -0.4981  0.4173  0.5049
  956MOL0     C28991   6.252   8.141   4.542  0.4751  0.5981  0.7390
  956MOL0     C28992   6.360   8.098   4.444  0.3365  0.2046 -0.0150
  956MOL0     H28993   6.432   8.671   4.675 -2.3454  2.2807  2.5022
  956MOL0     H28994   6.631   8.816   4.748  0.3380  0.1621 -0.3182
  956MOL0     H28995   6.965   8.599   4.953  2.5353  0.9391  0.2282
  956MOL0     H28996   7.009   8.765   4.986  0.4708 -0.6395  1.3802
  956MOL0     H28997   6.816   8.587   5.142  1.6236 -0.0983  0.9406
  956MOL0     H28998   6.807   8.763   5.145 -0.9186 -0.0604 -0.2110
  956MOL0     H28999   7.039   8.770   5.223 -0.2037 -0.2869 -0.5914
  956MOL0     H29000   7.047   8.596   5.204 -1.5187 -2.1759  1.9863
  956MOL0     H29001   6.830   8.730   5.380 -3.6449 -4.2844  1.7773
  956MOL0     H29002   6.873   8.558   5.369 -0.6225 -0.4352 -4.0544
  956MOL0     H29003   7.015   8.800   5.495  0.3126  0.3377 -2.9691
  956MOL0     H29004   6.942   8.656   5.580 -0.6610 -4.8571 -1.1131
  956MOL0     H29005   7.191   8.641   5.394  1.0860 -1.6607  1.0235
  956MOL0     H29006   7.208   8.664   5.565 -1.6698  0.5793  2.5796
  956MOL0     H29007   7.046   8.442   5.427 -1.0892 -1.2509  0.9772
  956MOL0     H29008   7.086   8.453   5.598 -2.4907  1.7758 -0.1666
  956MOL0     H29009   7.235   8.294   5.478  1.1515 -0.2235  2.3029
  956MOL0     H29010   7.299   8.419   5.360 -1.7253 -1.7076 -1.1583
  956MOL0     H29011   7.313   8.388   5.763  0.2467 -2.0529 -1.6362
  956MOL0     H29012   7.493   8.464   5.929  1.5098 -0.8303  0.6825
  956MOL0     H29013   7.654   8.496   5.854  0.1792  1.4496 -1.7887
  956MOL0     H29014   7.592   8.729   5.819 -1.2969  0.5854 -0.2474
  956MOL0     H29015   7.449   8.704   5.911  0.4142  0.5977  0.4244
  956MOL0     H29016   7.707   8.617   6.043 -1.0535 -1.1898 -0.7046
  956MOL0     H29017   7.545   8.650   6.096  1.7747 -2.3032 -0.3051
  956MOL0     H29018   7.582   8.895   6.041  0.2197 -0.4300  0.8248
  956MOL0     H29019   7.725   8.838   5.957  1.6819 -2.2697 -0.0847
  956MOL0     H29020   7.887   8.997   6.327  0.2013  0.1610 -0.0404
  956MOL0     H29021   8.122   9.018   6.347 -1.1119  1.8685 -0.5288
  956MOL0     H29022   8.456   9.247   6.263  1.6604  0.2754  1.0339
  956MOL0     H29023   8.700   9.311   6.312  1.7761 -1.5251 -1.3285
  956MOL0     H29024   8.922   9.336   6.296 -1.7211  1.7870  3.0434
  956MOL0     H29025   8.870   9.292   6.454 -0.5994 -0.9717  0.2261
  956MOL0     H29026   9.089   9.220   6.524  1.9923 -0.7531 -0.1706
  956MOL0     H29027   9.155   9.229   6.364 -1.8870 -2.1069 -1.8441
  956MOL0     H29028   9.183   9.453   6.334  1.2596  1.5539  1.1899
  956MOL0     H29029   9.046   9.498   6.443  0.0962  0.4198 -0.0719
  956MOL0     H29030   9.240   9.573   6.547 -2.8228  0.1950  1.5100
  956MOL0     H29031   9.327   9.417   6.526  0.0799 -0.3441  3.0219
  956MOL0     H29032   9.247   9.475   6.759  2.0964  0.7292 -1.3830
  956MOL0     H29033   9.189   9.320   6.690 -1.2209  0.2153 -0.6375
  956MOL0     H29034   9.018   9.573   6.692 -1.8882  0.2367 -1.1604
  956MOL0     H29035   8.972   9.402   6.663  3.0619 -2.4762 -0.2684
  956MOL0     H29036   9.100   9.491   6.906 -0.1907 -1.2066 -0.4098
  956MOL0     H29037   9.000   9.342   6.878 -0.0746 -0.1008  1.6532
  956MOL0     H29038   8.803   9.468   6.845  0.9913  1.1043 -1.1561
  956MOL0     H29039   8.867   9.491   7.015  1.1300  0.4609  1.3875
  956MOL0     H29040   8.799   8.892   6.311  1.4849  0.8918  1.0239
  956MOL0     H29041   8.565   8.837   6.283  1.1531  0.9571 -0.6511
  956MOL0     H29042   8.165   8.785   5.976  2.5093  1.8423  1.2820
  956MOL0     H29043   7.920   8.752   5.975  2.4730 -3.2430 -0.0864
  956MOL0     H29044   6.783   8.466   4.962  0.2153  0.8377 -0.1104
  956MOL0     H29045   6.612   8.335   4.866  2.8003 -1.1328 -3.5625
  956MOL0     H29046   6.174   8.363   4.785  2.1243 -0.3647  0.8184
  956MOL0     H29047   5.960   8.241   4.764 -1.0400 -2.8209 -0.6108
  956MOL0     H29048   5.738   7.947   4.714  0.7996 -1.0171  0.7403
  956MOL0     H29049   5.808   8.086   4.791 -2.8572 -1.4973 -0.2298
  956MOL0     H29050   5.842   7.867   4.883  1.8018 -0.8376  1.3407
  956MOL0     H29051   6.001   7.960   4.868 -0.2331  1.3006 -0.0462
  956MOL0     H29052   6.066   7.790   4.697  0.1317  0.0782  1.0226
  956MOL0     H29053   5.899   7.725   4.689  0.7526 -0.1150 -0.5664
  956MOL0     H29054   6.089   7.711   4.915 -0.3900  0.6265  0.3519
  956MOL0     H29055   5.930   7.698   4.952 -0.5288  0.2784  0.1861
  956MOL0     H29056   5.937   7.313   4.795 -0.7620  0.2880 -1.1835
  956MOL0     H29057   6.121   7.991   4.461 -0.4973 -0.2283  1.2522
  956MOL0     H29058   6.324   8.022   4.373  1.5895 -0.9133  0.5114
  956MOL0     H29059   6.390   8.174   4.372 -0.0307  0.5401  0.1802
  956MOL0     H29060   6.452   8.060   4.489  0.9513  3.7831  2.0948
  957MOL0     O29061   2.447   2.449   6.703  0.6615 -0.3285  0.0096
  957MOL0     C29062   2.363   2.384   6.768 -0.8384  0.2251  0.7703
  957MOL0     O29063   2.395   2.298   6.868  0.3027  0.1015  0.1138
  957MOL0     C29064   2.522   2.264   6.895  0.5011 -1.0026 -0.1336
  957MOL0     C29065   2.643   2.351   6.882  0.1830  0.7282  0.1393
  957MOL0     C29066   2.773   2.300   6.916  0.1571  0.4002 -0.3094
  957MOL0     C29067   2.780   2.174   6.979 -0.3150 -0.2700 -0.6512
  957MOL0     O29068   2.903   2.131   7.000  0.0380  0.3377 -0.2520
  957MOL0     C29069   2.997   2.200   7.087  0.1176  0.5834  1.0334
  957MOL0     C29070   3.076   2.100   7.166 -0.1582 -0.4415 -0.3139
  957MOL0     C29071   3.202   2.163   7.225  1.1645  0.5938  0.4016
  957MOL0     C29072   3.291   2.055   7.274  0.3688 -0.0694 -0.7032
  957MOL0     C29073   3.424   2.112   7.304  0.0440  0.8594  0.0223
  957MOL0     C29074   3.535   2.011   7.308 -0.0904  0.4121  0.0289
  957MOL0     C29075   3.671   2.082   7.338 -0.1924 -0.7219  0.3069
  957MOL0     C29076   3.767   1.984   7.381  0.5191 -0.3630  0.0983
  957MOL0     N29077   3.901   2.034   7.424 -0.1092 -0.1365  0.3075
  957MOL0     C29078   3.993   1.945   7.471 -0.4552  0.0234  0.6809
  957MOL0     C29079   4.107   2.023   7.473  0.4345  0.8618 -0.0546
  957MOL0     C29080   4.240   1.978   7.496 -0.0017 -0.3159 -0.2955
  957MOL0     C29081   4.344   2.033   7.386 -0.6298  0.0362 -0.3033
  957MOL0     C29082   4.458   1.928   7.385  0.0990  0.0510  0.1403
  957MOL0     C29083   4.585   1.971   7.311  0.3389 -0.3003 -0.4713
  957MOL0     O29084   4.683   1.878   7.319 -0.2802  0.0920 -0.1742
  957MOL0     C29085   4.775   1.875   7.227 -0.1662 -0.4568  0.7650
  957MOL0     C29086   4.827   1.748   7.197  0.6508  0.3707 -0.0465
  957MOL0     C29087   4.931   1.731   7.105 -0.1336 -0.3388 -0.5230
  957MOL0     C29088   4.980   1.841   7.035 -0.3470  1.2176 -0.0349
  957MOL0     C29089   5.092   1.830   6.939  0.0267  0.4319 -0.2918
  957MOL0     O29090   5.116   1.940   6.863 -0.1688 -0.8921 -0.3985
  957MOL0     C29091   5.243   1.953   6.821  0.1001  0.7149  0.5046
  957MOL0     C29092   5.356   1.977   6.891 -0.2761 -0.4612  0.3730
  957MOL0     C29093   5.475   1.997   6.826 -0.1466 -0.9361 -0.0234
  957MOL0     C29094   5.490   1.962   6.683 -0.6198 -0.3272 -0.7402
  957MOL0     O29095   5.607   1.988   6.618  0.0088 -0.0817 -0.3579
  957MOL0     C29096   5.623   1.923   6.491 -0.3985 -0.2926  0.2985
  957MOL0     C29097   5.769   1.871   6.478 -0.1328 -0.9084 -0.0531
  957MOL0     C29098   5.838   1.981   6.388  0.4517  0.4425 -0.3234
  957MOL0     C29099   5.980   1.939   6.352 -0.0190  0.3160 -0.2773
  957MOL0     C29100   6.068   2.064   6.318 -0.5283  0.6190 -0.5887
  957MOL0     C29101   6.182   2.027   6.231 -0.5092 -0.1649  0.7951
  957MOL0     C29102   6.140   1.998   6.086  0.4955  0.7026  0.3532
  957MOL0     C29103   6.257   1.929   6.009  0.0834  0.5673  0.0317
  957MOL0    Cl29104   6.297   1.767   6.086  0.3211 -0.2828 -0.3587
  957MOL0     C29105   5.371   1.936   6.612  0.5174  0.0475 -0.7124
  957MOL0     C29106   5.254   1.938   6.682  0.8855 -0.2901  1.5406
  957MOL0     O29107   5.156   1.725   6.939 -0.1139  0.0565  0.2965
  957MOL0     C29108   4.917   1.967   7.056  0.2195 -0.2867 -0.6685
  957MOL0     C29109   4.821   1.981   7.156  0.1673  0.1375  0.1202
  957MOL0     N29110   4.073   2.156   7.435 -0.3480  0.0995  0.0740
  957MOL0     N29111   3.947   2.160   7.420  0.0878  0.4745  0.0735
  957MOL0     C29112   2.668   2.086   6.994 -0.7878 -0.1424 -0.4678
  957MOL0     C29113   2.539   2.141   6.960 -0.1998  0.6472 -0.0539
  957MOL0     C29114   2.223   2.394   6.725 -0.0173  1.0518  0.7973
  957MOL0     C29115   2.148   2.278   6.745 -0.2200  0.9224  0.3802
  957MOL0     C29116   2.010   2.273   6.719 -0.1210 -0.0772 -0.5610
  957MOL0     C29117   1.939   2.385   6.679 -0.8673  0.0715 -0.2672
  957MOL0     O29118   1.805   2.404   6.684 -0.2207  0.1413 -0.5404
  957MOL0     C29119   1.725   2.302   6.740  0.4374  0.1983  0.1296
  957MOL0     C29120   1.575   2.340   6.740 -0.2089  0.1828 -0.4086
  957MOL0     C29121   1.488   2.232   6.812  0.3187  1.1908  0.1774
  957MOL0     C29122   1.338   2.260   6.790  0.1943  0.3240 -0.2367
  957MOL0     C29123   1.254   2.193   6.894  0.6603  0.3391 -0.0375
  957MOL0     C29124   1.199   2.137   6.986  0.1821  0.4559 -0.0178
  957MOL0     C29125   2.012   2.505   6.660 -0.2685  0.9146  0.1024
  957MOL0     C29126   2.160   2.508   6.688  0.4114 -0.3527  0.0611
  957MOL0     C29127   2.215   2.649   6.711  0.5360  0.3032 -0.0567
  957MOL0     H29128   2.642   2.447   6.833  2.1392 -0.4478 -2.4663
  957MOL0     H29129   2.860   2.363   6.904  1.6600 -1.7633 -1.3186
  957MOL0     H29130   3.067   2.257   7.025 -1.2245 -0.0949 -1.1889
  957MOL0     H29131   2.940   2.266   7.153 -0.9370 -1.4833  2.2843
  957MOL0     H29132   3.102   2.010   7.108  0.7456 -0.3689 -0.0421
  957MOL0     H29133   3.010   2.063   7.245 -1.9586  2.5529 -0.2991
  957MOL0     H29134   3.179   2.235   7.304  0.4694 -0.1819  0.9241
  957MOL0     H29135   3.257   2.220   7.149  1.3578  2.5878  1.9433
  957MOL0     H29136   3.243   2.019   7.365  0.4831  1.1811 -0.1180
  957MOL0     H29137   3.304   1.981   7.195 -0.8715 -0.8063 -0.2517
  957MOL0     H29138   3.453   2.189   7.232 -1.1000 -1.0900 -2.7195
  957MOL0     H29139   3.408   2.155   7.403 -1.2551  0.5654 -0.0398
  957MOL0     H29140   3.513   1.946   7.392  1.6741  1.9165  1.7511
  957MOL0     H29141   3.547   1.945   7.221  1.0113 -2.6972  2.3559
  957MOL0     H29142   3.669   2.163   7.412  3.0629  0.0874 -0.3365
  957MOL0     H29143   3.708   2.139   7.253  0.0070  1.0239  1.5157
  957MOL0     H29144   3.721   1.927   7.462 -0.5178  1.3351  0.7475
  957MOL0     H29145   3.797   1.917   7.300 -1.8572 -1.1028 -0.2236
  957MOL0     H29146   3.976   1.838   7.475 -1.5331  0.1271 -0.4339
  957MOL0     H29147   4.267   2.016   7.595 -0.1297  1.0359 -0.7525
  957MOL0     H29148   4.241   1.870   7.507 -1.2180 -0.1991  1.4033
  957MOL0     H29149   4.295   2.032   7.288  1.8286 -0.5962 -1.6034
  957MOL0     H29150   4.382   2.131   7.416 -0.5713 -0.0304 -0.1594
  957MOL0     H29151   4.417   1.835   7.343  1.4362  0.4594 -2.2436
  957MOL0     H29152   4.486   1.906   7.489 -3.0372  0.5616  1.1974
  957MOL0     H29153   4.632   2.063   7.347  2.9217 -1.2321 -1.2830
  957MOL0     H29154   4.554   1.987   7.207  0.8539  0.1223 -0.5637
  957MOL0     H29155   4.790   1.669   7.261  0.5832  0.7536  0.3962
  957MOL0     H29156   4.973   1.631   7.095 -0.5000 -0.4976 -0.4730
  957MOL0     H29157   5.342   1.992   6.998  0.9403 -0.1310  0.4955
  957MOL0     H29158   5.552   2.031   6.895 -0.1780  1.6291 -1.1504
  957MOL0     H29159   5.576   1.825   6.480 -0.7679 -0.2065  1.0362
  957MOL0     H29160   5.594   1.989   6.409 -1.1640  0.9967  1.5518
  957MOL0     H29161   5.819   1.872   6.576 -1.8302  0.2888  0.8566
  957MOL0     H29162   5.767   1.774   6.427 -1.4302  0.0793 -2.0120
  957MOL0     H29163   5.781   1.997   6.296 -1.1836 -3.5826 -0.1947
  957MOL0     H29164   5.842   2.073   6.447 -0.8725 -0.3516  1.0728
  957MOL0     H29165   5.975   1.860   6.276 -1.6476 -0.0573  0.1587
  957MOL0     H29166   6.030   1.888   6.435 -0.4420 -0.8844 -0.7320
  957MOL0     H29167   6.100   2.109   6.413 -0.3955  0.4474 -0.5495
  957MOL0     H29168   6.003   2.144   6.282 -1.1783 -0.4244 -1.7957
  957MOL0     H29169   6.244   2.116   6.220 -0.5980 -0.0661  1.1046
  957MOL0     H29170   6.238   1.941   6.271 -0.1463 -1.1075 -1.5782
  957MOL0     H29171   6.113   2.098   6.049 -0.0639  1.7545  3.2647
  957MOL0     H29172   6.049   1.941   6.068  0.9580  0.7791 -2.7344
  957MOL0     H29173   6.225   1.918   5.905  1.1368 -1.5691 -0.1186
  957MOL0     H29174   6.348   1.990   6.010 -0.9700  2.3036  2.4475
  957MOL0     H29175   5.367   1.930   6.504  2.0156 -1.3288 -0.7180
  957MOL0     H29176   5.167   1.929   6.619  0.7319  0.4900  1.6240
  957MOL0     H29177   4.943   2.056   6.998  1.7365 -0.9881 -1.1092
  957MOL0     H29178   4.779   2.078   7.181  1.0611  0.3618  0.8136
  957MOL0     H29179   2.672   1.985   7.033 -0.4260  1.3257  3.8512
  957MOL0     H29180   2.451   2.088   6.995 -2.1300  2.0813 -2.4627
  957MOL0     H29181   2.199   2.186   6.768 -1.9697  0.0270  0.8262
  957MOL0     H29182   1.961   2.180   6.743  1.7734 -1.5453 -2.0852
  957MOL0     H29183   1.736   2.292   6.848  0.1703 -0.2515  0.1193
  957MOL0     H29184   1.738   2.208   6.685 -1.9405  0.8347 -1.7362
  957MOL0     H29185   1.531   2.358   6.641 -2.3207 -0.8891  0.2924
  957MOL0     H29186   1.573   2.435   6.795  4.7632  0.9870 -1.1639
  957MOL0     H29187   1.518   2.225   6.917  4.4134 -0.5944 -0.8878
  957MOL0     H29188   1.508   2.130   6.776  1.2739  0.0593  3.5306
  957MOL0     H29189   1.324   2.369   6.793  3.4224  0.7993  1.4335
  957MOL0     H29190   1.300   2.222   6.695 -2.3173 -1.8139  1.4723
  957MOL0     H29191   1.147   2.096   7.070 -2.9828  2.4588 -0.8278
  957MOL0     H29192   1.971   2.603   6.641  0.5493  1.5877  1.6150
  957MOL0     H29193   2.145   2.727   6.683 -1.0035 -0.7929  0.5826
  957MOL0     H29194   2.241   2.666   6.816 -1.3287  1.7717  0.2004
  957MOL0     H29195   2.297   2.662   6.639  1.5564 -1.6549  0.6438
  958MOL0     O29196   4.942   5.182  10.370  0.0351 -0.0546 -0.7754
  958MOL0     C29197   4.903   5.257  10.277 -0.6776  0.1563 -0.1540
  958MOL0     O29198   4.986   5.322  10.186  0.7399 -0.0653 -0.0084
  958MOL0     C29199   5.125   5.315  10.191  0.1516 -0.2158  0.3502
  958MOL0     C29200   5.205   5.430  10.189  0.1140  0.5289 -0.4152
  958MOL0     C29201   5.344   5.432  10.207  0.8353  0.0538  0.6124
  958MOL0     C29202   5.410   5.313  10.224  0.7890 -0.4375 -1.0334
  958MOL0     O29203   5.548   5.299  10.212  0.6710 -0.4751 -0.1046
  958MOL0     C29204   5.623   5.405  10.268  0.1309 -0.1779 -0.2471
  958MOL0     C29205   5.757   5.343  10.297  0.2707 -0.6691 -0.2316
  958MOL0     C29206   5.852   5.439  10.372 -0.2617  0.2253 -0.0136
  958MOL0     C29207   5.990   5.363  10.383  0.0996  0.2081  0.0794
  958MOL0     C29208   6.092   5.440  10.473 -0.2672  0.0850 -0.2933
  958MOL0     C29209   6.229   5.367  10.481 -0.3789 -0.1685  0.9595
  958MOL0     C29210   6.312   5.432  10.586 -0.6339 -0.3042  0.3257
  958MOL0     C29211   6.453   5.365  10.604  0.6272 -0.6592 -0.1375
  958MOL0     N29212   6.542   5.367  10.488  0.2885  0.0312  0.0787
  958MOL0     C29213   6.650   5.453  10.459  0.4420  0.0416  0.7492
  958MOL0     C29214   6.719   5.400  10.353 -0.0932 -0.8355 -0.0834
  958MOL0     C29215   6.844   5.449  10.301  0.4583 -0.2973 -0.3656
  958MOL0     C29216   6.970   5.377  10.343 -0.4766 -0.8851 -0.3413
  958MOL0     C29217   7.084   5.427  10.243 -0.6285 -0.0077 -0.0039
  958MOL0     C29218   7.224   5.377  10.290 -0.1583 -0.6525 -0.1034
  958MOL0     O29219   7.223   5.238  10.269  0.3200 -0.0307 -0.2036
  958MOL0     C29220   7.335   5.164  10.291  0.2732  0.4088  1.0921
  958MOL0     C29221   7.317   5.030  10.304 -0.2560 -0.3328  0.3896
  958MOL0     C29222   7.420   4.940  10.337 -0.6179  0.2323 -0.7200
  958MOL0     C29223   7.556   4.995  10.354  0.1191  0.2544 -0.4820
  958MOL0     C29224   7.668   4.895  10.348 -0.6107 -0.3194  0.1796
  958MOL0     O29225   7.798   4.950  10.341 -0.1058  0.1208  0.5451
  958MOL0     C29226   7.906   4.868  10.321 -0.2230  0.5928 -0.0827
  958MOL0     C29227   8.016   4.873  10.403  0.1748 -0.8527  0.1376
  958MOL0     C29228   8.140   4.815  10.365  0.4226  0.3583 -0.1336
  958MOL0     C29229   8.151   4.730  10.260  0.1755  0.7361  0.0420
  958MOL0     O29230   8.265   4.667  10.217  0.0493  0.2204 -0.0689
  958MOL0     C29231   8.390   4.726  10.268 -0.2344  0.2598 -0.4361
  958MOL0     C29232   8.513   4.670  10.197 -0.7666 -0.2194 -0.0152
  958MOL0     C29233   8.644   4.697  10.277  0.0952 -0.0498  0.2122
  958MOL0     C29234   8.768   4.719  10.184 -0.8307 -0.9721  0.3337
  958MOL0     C29235   8.898   4.701  10.280  0.1735  0.0561  0.6634
  958MOL0     C29236   9.032   4.734  10.216 -0.2586  0.0309  0.0058
  958MOL0     C29237   9.047   4.885  10.197 -0.0394 -0.4854  0.1444
  958MOL0     C29238   9.177   4.931  10.126 -0.2406 -0.4843 -0.5723
  958MOL0    Cl29239   9.162   5.104  10.112  0.2388  0.0009  0.0181
  958MOL0     C29240   8.035   4.705  10.187  0.4703 -0.0157 -0.1334
  958MOL0     C29241   7.919   4.782  10.208 -0.0479  0.6341 -0.4276
  958MOL0     O29242   7.644   4.777  10.357 -0.2701  0.2206 -0.1115
  958MOL0     C29243   7.571   5.131  10.355 -0.0959  0.1623 -0.0637
  958MOL0     C29244   7.459   5.209  10.329 -0.4182  0.3655 -0.1837
  958MOL0     N29245   6.646   5.282  10.318 -0.1697 -0.2670  0.1480
  958MOL0     N29246   6.546   5.258  10.405 -0.4962  0.8489  0.6578
  958MOL0     C29247   5.333   5.193  10.228 -0.1626  0.4696 -0.2532
  958MOL0     C29248   5.197   5.193  10.213 -0.3100  0.1307  0.6908
  958MOL0     C29249   4.757   5.256  10.234  0.2669  0.6255  0.3153
  958MOL0     C29250   4.734   5.234  10.094 -0.2284 -0.2890 -1.2493
  958MOL0     C29251   4.602   5.215  10.044 -0.9125  0.7897 -0.3010
  958MOL0     C29252   4.494   5.217  10.130 -0.4161  0.1830 -0.8438
  958MOL0     O29253   4.366   5.225  10.091 -0.3291 -0.8805 -0.1604
  958MOL0     C29254   4.309   5.099  10.066 -0.6492  0.0544  0.0345
  958MOL0     C29255   4.233   5.043  10.185 -0.0560 -0.4249  0.5993
  958MOL0     C29256   4.137   5.140  10.262  0.0329  0.5470  0.2713
  958MOL0     C29257   4.028   5.195  10.171 -0.4074  0.6199  0.1112
  958MOL0     C29258   3.911   5.222  10.243  0.8488  0.5818 -0.2858
  958MOL0     C29259   3.812   5.240  10.309  1.3252 -0.1646 -0.1398
  958MOL0     C29260   4.517   5.233  10.267  0.9485 -0.8697  0.3973
  958MOL0     C29261   4.643   5.256  10.321 -0.0957 -0.4170  0.1639
  958MOL0     C29262   4.663   5.267  10.471 -0.3265 -0.5297 -0.4466
  958MOL0     H29263   5.144   5.520  10.192 -1.1934 -0.3709  1.0210
  958MOL0     H29264   5.383   5.533  10.201 -1.4812  0.9337 -0.6561
  958MOL0     H29265   5.626   5.484  10.192  1.1614 -0.8204 -0.8978
  958MOL0     H29266   5.587   5.446  10.362 -0.2217  1.7901 -1.1780
  958MOL0     H29267   5.798   5.302  10.204 -0.5814  1.0273 -1.4223
  958MOL0     H29268   5.743   5.261  10.367  0.4700 -0.8345 -0.3827
  958MOL0     H29269   5.811   5.463  10.471 -2.0353 -2.7838  0.1265
  958MOL0     H29270   5.863   5.530  10.313 -0.2648  0.1441 -0.1393
  958MOL0     H29271   5.971   5.270  10.438 -1.3654  1.2834  1.4903
  958MOL0     H29272   6.014   5.323  10.284  0.3161 -0.1299  0.2695
  958MOL0     H29273   6.108   5.541  10.434 -2.9387  0.5724 -0.3208
  958MOL0     H29274   6.054   5.446  10.575 -2.3227  1.3471 -1.0750
  958MOL0     H29275   6.202   5.264  10.507  1.2307 -1.4307 -1.9265
  958MOL0     H29276   6.272   5.355  10.381 -2.2374 -1.7741  0.2788
  958MOL0     H29277   6.258   5.425  10.681  3.2334 -1.9348  2.6385
  958MOL0     H29278   6.321   5.538  10.561 -0.3909 -0.0201  1.5259
  958MOL0     H29279   6.507   5.425  10.678 -0.4654  0.1451  0.0223
  958MOL0     H29280   6.448   5.260  10.632  0.4371 -1.6836 -3.4979
  958MOL0     H29281   6.689   5.538  10.513  0.6508  1.3627 -1.3477
  958MOL0     H29282   6.834   5.444  10.192 -0.0015 -0.0910 -0.3304
  958MOL0     H29283   6.858   5.552  10.333 -0.0249  0.3787 -2.2202
  958MOL0     H29284   7.007   5.400  10.444  2.7893 -0.3914 -1.5112
  958MOL0     H29285   6.961   5.269  10.326  0.0686 -0.5962 -2.8161
  958MOL0     H29286   7.084   5.537  10.244  1.6137  0.0387 -0.2723
  958MOL0     H29287   7.066   5.390  10.142  1.6453 -2.8447  0.5152
  958MOL0     H29288   7.250   5.411  10.390 -1.6161 -0.0726  0.1108
  958MOL0     H29289   7.293   5.426  10.220 -0.9902  0.3685 -0.2453
  958MOL0     H29290   7.217   4.992  10.283  0.6101 -2.3869 -0.2380
  958MOL0     H29291   7.404   4.833  10.335  1.7646 -0.1906 -1.0444
  958MOL0     H29292   8.006   4.938  10.490  0.2031  1.8770 -1.7464
  958MOL0     H29293   8.222   4.834  10.434  0.4693 -3.3551  1.0659
  958MOL0     H29294   8.398   4.835  10.274  2.5813  0.0680  1.1309
  958MOL0     H29295   8.394   4.691  10.371 -2.8526  1.2869  0.0681
  958MOL0     H29296   8.509   4.562  10.185  1.1397 -0.2556 -0.6547
  958MOL0     H29297   8.528   4.709  10.096 -3.8895  0.1886 -0.4170
  958MOL0     H29298   8.634   4.791  10.334 -0.3798  0.0046  0.0432
  958MOL0     H29299   8.650   4.613  10.346 -1.1449  1.0317  1.7316
  958MOL0     H29300   8.774   4.821  10.143  0.5241 -2.0921 -2.4836
  958MOL0     H29301   8.762   4.656  10.095  1.5124 -1.3507  0.3697
  958MOL0     H29302   8.916   4.598  10.312  2.7691  0.6245  1.3022
  958MOL0     H29303   8.893   4.756  10.374  1.9437  0.0236  0.8159
  958MOL0     H29304   9.112   4.703  10.285  0.5624  0.8511 -0.5586
  958MOL0     H29305   9.045   4.681  10.121  1.9766  3.3380 -1.7632
  958MOL0     H29306   9.038   4.934  10.294  0.3288 -0.9736  0.4291
  958MOL0     H29307   8.961   4.908  10.134 -0.2032  0.3217  0.6484
  958MOL0     H29308   9.266   4.908  10.184 -0.7244  1.6455  1.1667
  958MOL0     H29309   9.175   4.890  10.025  1.2058 -1.7866 -0.1004
  958MOL0     H29310   8.045   4.632  10.108 -0.8334  0.3990 -0.7167
  958MOL0     H29311   7.832   4.780  10.143 -0.6655  1.1956  0.3734
  958MOL0     H29312   7.667   5.174  10.382 -1.0002  0.6629  2.7769
  958MOL0     H29313   7.468   5.318  10.332 -1.4538  0.5359 -1.9600
  958MOL0     H29314   5.386   5.099  10.246 -1.5803 -0.5177 -0.9952
  958MOL0     H29315   5.152   5.095  10.204 -2.6156  1.1819  0.1173
  958MOL0     H29316   4.822   5.232  10.030  1.0875 -0.3122  0.4907
  958MOL0     H29317   4.574   5.200   9.940  0.0594 -1.5186 -0.2959
  958MOL0     H29318   4.381   5.022  10.036 -0.6948 -0.5132  1.2736
  958MOL0     H29319   4.246   5.097   9.977  1.1990  0.3898 -1.3521
  958MOL0     H29320   4.309   5.006  10.255 -0.5574 -2.0812  0.3160
  958MOL0     H29321   4.177   4.967  10.129  1.9674  0.5646 -3.0897
  958MOL0     H29322   4.198   5.209  10.321  3.1870 -0.7523 -1.2516
  958MOL0     H29323   4.091   5.071  10.334 -0.1209 -0.0551 -0.3963
  958MOL0     H29324   4.066   5.287  10.125  0.1434  1.2244  1.6967
  958MOL0     H29325   3.994   5.118  10.101  1.8994 -1.3280  0.9769
  958MOL0     H29326   3.733   5.258  10.380  0.7541  1.5521 -1.1464
  958MOL0     H29327   4.429   5.237  10.331  0.9164 -1.1782  0.3774
  958MOL0     H29328   4.696   5.165  10.492 -0.9157 -0.8029 -0.7989
  958MOL0     H29329   4.735   5.342  10.506 -0.4994 -0.1669 -0.8529
  958MOL0     H29330   4.571   5.276  10.529 -0.5666 -1.6798 -0.6113
  959MOL0     O29331   5.979   9.873   4.234  0.6599 -0.0559 -0.4110
  959MOL0     C29332   5.924   9.974   4.277 -0.2687  0.2403 -0.2759
  959MOL0     O29333   5.989  10.055   4.365  1.0149 -0.5829 -0.1183
  959MOL0     C29334   6.119  10.050   4.391 -0.3205  0.9590 -0.2964
  959MOL0     C29335   6.193   9.932   4.419 -0.2800 -0.0452 -1.3990
  959MOL0     C29336   6.334   9.936   4.436 -0.5790  0.6850 -0.5732
  959MOL0     C29337   6.409  10.051   4.439 -0.0326  0.1957  0.3827
  959MOL0     O29338   6.540  10.057   4.468  0.2541  0.5977 -0.2170
  959MOL0     C29339   6.625   9.940   4.445  0.2593  0.3344 -0.4719
  959MOL0     C29340   6.763  10.010   4.456  0.2784 -0.4012  0.2873
  959MOL0     C29341   6.800  10.122   4.357  0.0377  0.0691  0.2555
  959MOL0     C29342   6.889  10.239   4.425  0.1436 -0.6355 -0.1598
  959MOL0     C29343   7.006  10.202   4.510 -1.1550 -0.7338 -0.8005
  959MOL0     C29344   7.052  10.334   4.581  0.1564 -0.0849  0.7545
  959MOL0     C29345   7.135  10.292   4.707 -0.8444 -0.4190 -0.3122
  959MOL0     C29346   7.239  10.184   4.692 -1.1003  0.6737 -0.6377
  959MOL0     N29347   7.316  10.157   4.816 -0.4756 -0.0118 -0.2649
  959MOL0     C29348   7.455  10.145   4.828  0.8103  0.2189  0.5419
  959MOL0     C29349   7.486  10.122   4.959 -0.5081 -0.0112  0.0550
  959MOL0     C29350   7.623  10.115   5.007  0.5099  0.2570 -0.4229
  959MOL0     C29351   7.659  10.005   5.106  0.1675  0.3309 -0.2616
  959MOL0     C29352   7.791  10.027   5.172  0.1761 -0.4629 -0.0926
  959MOL0     C29353   7.858   9.908   5.236  1.0880  0.0870  0.4487
  959MOL0     O29354   7.974   9.968   5.292 -0.3514  0.5421 -1.1510
  959MOL0     C29355   8.090   9.959   5.227 -0.4774  0.1938 -0.0139
  959MOL0     C29356   8.158  10.078   5.194  0.7046 -0.4985 -0.4077
  959MOL0     C29357   8.277  10.075   5.114  0.6063  0.0785  0.3189
  959MOL0     C29358   8.341   9.953   5.086  0.6150 -1.0875 -0.6490
  959MOL0     C29359   8.469   9.944   5.009  0.5663  0.4591  0.0012
  959MOL0     O29360   8.543   9.834   4.999  0.0631  0.2844  0.9449
  959MOL0     C29361   8.658   9.847   4.930 -0.1649 -0.3352  0.3135
  959MOL0     C29362   8.666   9.848   4.789  1.1594 -0.5709 -0.3136
  959MOL0     C29363   8.788   9.862   4.717  0.0964 -0.3881 -0.4312
  959MOL0     C29364   8.910   9.875   4.793  0.2175  0.0853 -0.1332
  959MOL0     O29365   9.038   9.879   4.738 -0.4130  0.5186 -0.1143
  959MOL0     C29366   9.073   9.793   4.625  0.0158 -0.3819  0.1391
  959MOL0     C29367   9.215   9.741   4.624  1.2280  0.1716 -1.0100
  959MOL0     C29368   9.245   9.643   4.508 -0.3584  0.3096  0.2593
  959MOL0     C29369   9.391   9.597   4.507 -0.2300 -0.9071  0.0248
  959MOL0     C29370   9.430   9.503   4.386 -0.2828 -0.7993 -0.3064
  959MOL0     C29371   9.578   9.466   4.392 -0.2251  0.0290  0.0170
  959MOL0     C29372   9.617   9.321   4.336 -0.3280  0.8211 -0.8319
  959MOL0     C29373   9.763   9.303   4.289 -0.2200 -0.6448 -1.0521
  959MOL0    Cl29374   9.778   9.354   4.124 -0.0360  0.3888  0.1570
  959MOL0     C29375   8.898   9.880   4.935 -0.0615 -0.4515  0.2225
  959MOL0     C29376   8.780   9.857   5.003 -0.4963 -0.0116 -0.3818
  959MOL0     O29377   8.496  10.047   4.947  0.2709 -0.0882 -0.4734
  959MOL0     C29378   8.273   9.844   5.127  0.3808  1.5857  0.7396
  959MOL0     C29379   8.150   9.834   5.192 -0.2372 -1.2501 -0.1975
  959MOL0     N29380   7.371  10.133   5.030 -0.3696  0.0913 -0.2917
  959MOL0     N29381   7.272  10.159   4.942 -0.2540  0.1631  0.1777
  959MOL0     C29382   6.344  10.169   4.414  0.2356 -1.2459  0.1329
  959MOL0     C29383   6.199  10.169   4.388 -0.8068 -0.2745 -0.4021
  959MOL0     C29384   5.792  10.002   4.218 -0.3778  0.6572  0.0245
  959MOL0     C29385   5.717   9.896   4.163  0.3646  0.5094 -0.4145
  959MOL0     C29386   5.583   9.897   4.124 -0.0516  0.2576 -0.1228
  959MOL0     C29387   5.522  10.025   4.115 -0.5661 -0.1684  0.2344
  959MOL0     O29388   5.383  10.021   4.092 -0.1969 -0.3043 -0.8369
  959MOL0     C29389   5.340   9.997   3.958  0.7589 -0.9180 -0.0225
  959MOL0     C29390   5.237   9.883   3.957 -0.7992 -0.0340  0.8488
  959MOL0     C29391   5.103   9.910   4.040  0.1044  0.5794  0.1626
  959MOL0     C29392   4.999   9.805   4.008  0.5979  1.1063 -0.1010
  959MOL0     C29393   5.029   9.670   4.052  0.7546 -1.0472 -0.8163
  959MOL0     C29394   5.062   9.563   4.092 -0.6547  0.5431  0.1339
  959MOL0     C29395   5.586  10.134   4.170  0.1405  0.0511  0.3342
  959MOL0     C29396   5.719  10.125   4.214 -0.2595  0.2680 -0.2586
  959MOL0     C29397   5.792  10.257   4.260 -0.2909 -0.5521  0.4058
  959MOL0     H29398   6.139   9.838   4.411 -3.9976  1.9321 -2.0626
  959MOL0     H29399   6.374   9.837   4.451 -1.7510  0.4407  1.1950
  959MOL0     H29400   6.615   9.856   4.514 -0.5027  0.7457 -0.0686
  959MOL0     H29401   6.608   9.891   4.348  1.5890  1.8038 -1.4922
  959MOL0     H29402   6.851   9.947   4.467 -1.0201 -2.1659  1.0964
  959MOL0     H29403   6.753  10.053   4.556  1.8066 -0.9623  0.7074
  959MOL0     H29404   6.710  10.165   4.314 -0.2142  1.8217  2.3329
  959MOL0     H29405   6.862  10.078   4.278 -0.1120  1.2590 -0.5404
  959MOL0     H29406   6.931  10.314   4.358  1.0076 -1.8262 -0.9895
  959MOL0     H29407   6.818  10.297   4.485 -0.1798 -1.8271  0.6776
  959MOL0     H29408   6.981  10.133   4.592  0.8173 -0.8179 -0.1968
  959MOL0     H29409   7.090  10.170   4.448 -0.2145 -0.8612  0.4856
  959MOL0     H29410   7.117  10.392   4.515 -0.7514 -0.1889 -0.2723
  959MOL0     H29411   6.970  10.397   4.617  0.3371  1.6568 -1.6417
  959MOL0     H29412   7.061  10.245   4.773  0.5210 -2.0005  0.1711
  959MOL0     H29413   7.176  10.382   4.753 -1.9375 -0.6556  1.2105
  959MOL0     H29414   7.190  10.088   4.674 -0.4353 -0.3447  2.2713
  959MOL0     H29415   7.309  10.206   4.611  0.8402  0.4354  0.9000
  959MOL0     H29416   7.522  10.144   4.742 -0.2373  1.3887 -0.3188
  959MOL0     H29417   7.674  10.081   4.917 -1.6095 -3.4467 -0.4302
  959MOL0     H29418   7.653  10.218   5.030  4.0549 -0.7492  0.0277
  959MOL0     H29419   7.592  10.005   5.193 -0.7313  1.9309 -0.9123
  959MOL0     H29420   7.646   9.909   5.054 -0.2287 -1.4147  2.8180
  959MOL0     H29421   7.780  10.098   5.255  1.6743 -2.0231  1.5469
  959MOL0     H29422   7.857  10.075   5.099 -3.7568  2.3797 -2.1183
  959MOL0     H29423   7.889   9.837   5.159 -2.2366  1.0752 -2.0368
  959MOL0     H29424   7.787   9.861   5.304  2.2946 -0.7162  1.2010
  959MOL0     H29425   8.118  10.176   5.220  2.4448  0.1641 -0.0763
  959MOL0     H29426   8.326  10.166   5.081 -0.4704  0.0210 -1.5298
  959MOL0     H29427   8.581   9.851   4.722  0.9258 -0.0551  0.0078
  959MOL0     H29428   8.795   9.873   4.609 -0.8670  0.0441 -0.4631
  959MOL0     H29429   9.004   9.708   4.614  0.8186 -0.9666 -0.4931
  959MOL0     H29430   9.067   9.856   4.536 -0.7481  0.3087  0.6692
  959MOL0     H29431   9.285   9.825   4.621  0.9736  0.4868  0.7127
  959MOL0     H29432   9.237   9.692   4.720  1.1380 -0.8655 -1.5078
  959MOL0     H29433   9.168   9.566   4.517 -0.4983  0.1877 -1.5832
  959MOL0     H29434   9.228   9.689   4.410  2.0580 -2.3374 -1.5658
  959MOL0     H29435   9.411   9.551   4.605 -0.3691  0.3927  0.6901
  959MOL0     H29436   9.459   9.682   4.508  2.5846 -2.9837 -1.7217
  959MOL0     H29437   9.411   9.557   4.293  2.2729  2.7955  1.0406
  959MOL0     H29438   9.373   9.410   4.390  0.6838 -1.5404 -2.1892
  959MOL0     H29439   9.634   9.544   4.339 -0.0734  1.0453  1.6113
  959MOL0     H29440   9.604   9.481   4.497  2.7788  2.0696 -0.8956
  959MOL0     H29441   9.558   9.298   4.248  0.8068 -0.3336 -1.3257
  959MOL0     H29442   9.595   9.243   4.410  0.4582 -0.4762 -1.9130
  959MOL0     H29443   9.825   9.366   4.354 -1.3600  0.6911 -1.2007
  959MOL0     H29444   9.799   9.201   4.299  0.2335 -0.3476  0.6291
  959MOL0     H29445   8.993   9.879   4.989 -0.7719 -0.2483  1.5340
  959MOL0     H29446   8.783   9.850   5.111 -0.4164  2.5625 -0.1637
  959MOL0     H29447   8.326   9.753   5.097 -1.0837  1.1144 -0.5550
  959MOL0     H29448   8.106   9.736   5.205 -0.9564 -1.4388 -3.2762
  959MOL0     H29449   6.394  10.265   4.409 -1.5529 -0.2775  0.0429
  959MOL0     H29450   6.135  10.254   4.368 -2.9960 -1.8368 -0.4491
  959MOL0     H29451   5.760   9.796   4.174 -1.4704 -0.4472 -1.5123
  959MOL0     H29452   5.518   9.811   4.112  0.5878  0.0388 -2.5777
  959MOL0     H29453   5.415   9.959   3.888  1.2356  2.7915 -1.7802
  959MOL0     H29454   5.308  10.088   3.906 -0.0113 -0.6265  0.9334
  959MOL0     H29455   5.289   9.799   4.004  2.0101  2.7316  3.1427
  959MOL0     H29456   5.201   9.862   3.856 -2.4618 -2.1021  1.7906
  959MOL0     H29457   5.061  10.002   4.000 -0.8996  1.3528  2.7590
  959MOL0     H29458   5.119   9.914   4.148  0.7963 -0.0732  0.0968
  959MOL0     H29459   4.898   9.834   4.035  0.7718 -0.4335  2.5136
  959MOL0     H29460   5.006   9.795   3.899 -0.3774  3.1735 -0.3993
  959MOL0     H29461   5.067   9.463   4.130  2.2915 -0.9992 -3.5822
  959MOL0     H29462   5.533  10.228   4.184 -0.3712 -0.5327  2.7116
  959MOL0     H29463   5.722  10.341   4.264  0.7719  0.3924 -0.2661
  959MOL0     H29464   5.832  10.248   4.361  0.6164  1.0330  0.2194
  959MOL0     H29465   5.878  10.281   4.198 -1.2208  4.2159  0.5071
  960MOL0     O29466   5.999   4.825   5.014 -0.1414  0.2662 -0.1854
  960MOL0     C29467   6.044   4.769   4.912  0.9011 -0.4410  0.7320
  960MOL0     O29468   6.172   4.748   4.874  0.1991  0.6124 -0.2168
  960MOL0     C29469   6.271   4.717   4.961 -0.1899  0.2496  0.5556
  960MOL0     C29470   6.301   4.798   5.074  0.4361  0.1432  0.3452
  960MOL0     C29471   6.418   4.783   5.151  0.1491  0.5862  0.6293
  960MOL0     C29472   6.511   4.680   5.108  0.4843  0.5828 -0.0935
  960MOL0     O29473   6.638   4.659   5.160 -0.4507  0.1652 -0.0917
  960MOL0     C29474   6.666   4.727   5.280 -0.5002 -0.9049 -0.5437
  960MOL0     C29475   6.794   4.674   5.338 -0.2349 -0.6919 -0.1878
  960MOL0     C29476   6.810   4.727   5.479 -0.4242  0.6112  0.1654
  960MOL0     C29477   6.953   4.689   5.542 -0.3368 -0.3757  0.4294
  960MOL0     C29478   7.007   4.795   5.636 -0.6922 -0.3258 -0.0370
  960MOL0     C29479   7.102   4.748   5.747  1.5216 -0.7507  0.3985
  960MOL0     C29480   7.133   4.865   5.848  0.0871 -0.0128  0.2017
  960MOL0     C29481   7.209   4.814   5.974 -0.5129 -0.1469 -0.6900
  960MOL0     N29482   7.342   4.879   5.995  0.5640  0.8480  0.5887
  960MOL0     C29483   7.362   4.979   6.083  0.6540  0.3892  0.5294
  960MOL0     C29484   7.487   5.019   6.062 -0.4503 -0.0355  0.0121
  960MOL0     C29485   7.555   5.129   6.148 -0.2046 -0.2350  0.1209
  960MOL0     C29486   7.582   5.083   6.295  1.1487 -0.0127 -0.0091
  960MOL0     C29487   7.663   5.194   6.366 -0.0541 -0.6938  0.0049
  960MOL0     C29488   7.691   5.170   6.512 -0.1867  0.3141 -0.1580
  960MOL0     O29489   7.754   5.278   6.578 -0.3444  0.2348  0.5705
  960MOL0     C29490   7.890   5.302   6.567  0.0165 -0.0331  0.2544
  960MOL0     C29491   7.938   5.425   6.621  0.5030  0.8005 -0.3934
  960MOL0     C29492   8.075   5.462   6.618 -0.3859 -0.0270 -0.0480
  960MOL0     C29493   8.173   5.383   6.551 -0.4142 -0.2963  0.6449
  960MOL0     C29494   8.319   5.412   6.559  0.0766 -0.2692 -0.3338
  960MOL0     O29495   8.411   5.308   6.554 -0.0315 -0.6528 -0.6429
  960MOL0     C29496   8.545   5.328   6.554  0.0149 -0.9586  0.4171
  960MOL0     C29497   8.638   5.237   6.620  0.2974  0.1047 -0.3158
  960MOL0     C29498   8.771   5.245   6.603 -0.8646 -0.3813  0.0961
  960MOL0     C29499   8.829   5.348   6.526  0.2435 -0.4222 -0.7155
  960MOL0     O29500   8.965   5.338   6.517 -0.2596 -0.8118 -0.0442
  960MOL0     C29501   9.034   5.398   6.401  0.5354  0.1267 -0.1285
  960MOL0     C29502   9.165   5.325   6.375 -1.1252  0.0477 -0.8344
  960MOL0     C29503   9.262   5.336   6.498 -0.2985 -0.7003  0.7681
  960MOL0     C29504   9.355   5.224   6.503  0.3965  1.0799 -0.5967
  960MOL0     C29505   9.450   5.240   6.618 -0.7145 -0.1020 -0.0017
  960MOL0     C29506   9.540   5.124   6.650  0.4446 -1.0032 -0.1870
  960MOL0     C29507   9.556   5.024   6.535 -0.2192  0.2086  0.4472
  960MOL0     C29508   9.669   4.929   6.554 -0.0380 -0.5046 -0.1922
  960MOL0    Cl29509   9.829   5.006   6.532 -0.5829  0.3502 -0.1568
  960MOL0     C29510   8.739   5.429   6.455 -0.3620  0.7375 -0.5314
  960MOL0     C29511   8.599   5.421   6.471  0.1367 -0.1402  0.6408
  960MOL0     O29512   8.355   5.531   6.572  0.7131 -0.2519 -0.2768
  960MOL0     C29513   8.132   5.254   6.514  0.1559 -0.6265  0.1461
  960MOL0     C29514   7.988   5.220   6.519 -0.2683  0.5172  1.1835
  960MOL0     N29515   7.547   4.934   5.963  1.3107  0.5850 -0.1180
  960MOL0     N29516   7.452   4.853   5.920 -0.2666 -0.2096 -0.3835
  960MOL0     C29517   6.468   4.591   5.006  0.9208  0.7249  0.0612
  960MOL0     C29518   6.358   4.612   4.929  0.2004 -0.4477 -0.0083
  960MOL0     C29519   5.932   4.728   4.814 -0.3143  0.5866 -0.2067
  960MOL0     C29520   5.969   4.732   4.680  0.4675 -0.6880  0.0936
  960MOL0     C29521   5.877   4.722   4.578 -0.2520 -0.1113  1.1160
  960MOL0     C29522   5.743   4.693   4.606  0.0026 -0.2354  0.2831
  960MOL0     O29523   5.649   4.687   4.516 -0.8291  1.1858  1.1197
  960MOL0     C29524   5.687   4.710   4.379  0.5407 -0.0006 -0.1901
  960MOL0     C29525   5.550   4.718   4.303  0.3743  0.3263 -0.4742
  960MOL0     C29526   5.441   4.619   4.350 -0.2457  0.3977  0.6881
  960MOL0     C29527   5.327   4.595   4.243  0.9028 -0.5713 -0.1155
  960MOL0     C29528   5.387   4.554   4.118  0.0807  0.3179 -0.3307
  960MOL0     C29529   5.422   4.542   4.004 -0.3987  0.1281  0.3059
  960MOL0     C29530   5.698   4.693   4.738  0.3161 -0.4877 -0.2209
  960MOL0     C29531   5.794   4.701   4.842  0.0251 -0.2201 -0.4172
  960MOL0     C29532   5.743   4.698   4.987 -0.1337  0.3471  0.0188
  960MOL0     H29533   6.235   4.882   5.090 -0.4788 -0.6394  0.8201
  960MOL0     H29534   6.441   4.856   5.228  1.0691  3.4083 -2.0877
  960MOL0     H29535   6.670   4.835   5.267  0.3033 -0.9857 -1.0103
  960MOL0     H29536   6.582   4.701   5.346 -1.1708  0.0229 -1.0028
  960MOL0     H29537   6.881   4.713   5.284 -0.2150 -1.3513 -0.6385
  960MOL0     H29538   6.785   4.565   5.331 -0.5428 -0.6420 -0.6041
  960MOL0     H29539   6.731   4.683   5.541 -1.3612  0.1310 -1.3224
  960MOL0     H29540   6.792   4.834   5.491 -0.6858  0.8693 -2.0085
  960MOL0     H29541   6.935   4.595   5.596 -2.2604 -0.2423  0.1147
  960MOL0     H29542   7.037   4.682   5.473  0.0802  2.1480  0.5831
  960MOL0     H29543   7.056   4.862   5.566  0.3891  1.7199  2.4960
  960MOL0     H29544   6.925   4.860   5.670 -0.0727  0.6420 -0.3686
  960MOL0     H29545   7.046   4.674   5.805 -1.0631 -0.8384 -1.9969
  960MOL0     H29546   7.190   4.705   5.698  1.5450  0.5340 -0.7391
  960MOL0     H29547   7.038   4.911   5.874 -1.0019 -2.8416  1.6785
  960MOL0     H29548   7.202   4.936   5.803  0.5138  0.4211  1.4971
  960MOL0     H29549   7.149   4.813   6.066 -0.6129  0.0816 -0.7518
  960MOL0     H29550   7.236   4.710   5.954 -0.0903 -0.5001  1.4606
  960MOL0     H29551   7.288   5.018   6.152  1.8390 -0.4294  2.3452
  960MOL0     H29552   7.643   5.159   6.090 -1.5168 -0.2988 -2.0044
  960MOL0     H29553   7.488   5.215   6.151  0.5140  0.5291 -2.7715
  960MOL0     H29554   7.484   5.073   6.344  0.5659 -0.6881 -1.2763
  960MOL0     H29555   7.627   4.984   6.298  1.0239 -0.0529  0.6774
  960MOL0     H29556   7.619   5.294   6.357 -0.0973 -0.7398 -0.3370
  960MOL0     H29557   7.755   5.214   6.310 -0.4466  0.6507 -0.2096
  960MOL0     H29558   7.761   5.087   6.530  0.4256  0.7403 -0.5647
  960MOL0     H29559   7.595   5.146   6.560  0.3657 -2.6018 -0.3239
  960MOL0     H29560   7.864   5.488   6.669 -0.6519 -1.3562  0.8087
  960MOL0     H29561   8.098   5.559   6.661 -2.7509  0.0819  1.1298
  960MOL0     H29562   8.585   5.154   6.666  0.3263 -0.6031 -1.5046
  960MOL0     H29563   8.837   5.164   6.634 -2.7447 -3.1637 -2.5385
  960MOL0     H29564   8.975   5.397   6.309  0.1104  0.5343  0.1363
  960MOL0     H29565   9.049   5.502   6.431 -1.2391  0.2690  0.3788
  960MOL0     H29566   9.147   5.222   6.341 -0.9523 -0.3210  0.1596
  960MOL0     H29567   9.223   5.360   6.288  0.9847 -1.2800 -0.0595
  960MOL0     H29568   9.317   5.429   6.482 -0.5091 -0.6664  0.2447
  960MOL0     H29569   9.200   5.344   6.588 -0.1289  0.1533  0.8166
  960MOL0     H29570   9.411   5.220   6.409 -2.5721  1.4906 -2.5220
  960MOL0     H29571   9.310   5.127   6.522  2.8791 -0.1559 -0.6273
  960MOL0     H29572   9.406   5.276   6.712  2.7384  3.1974  0.6229
  960MOL0     H29573   9.505   5.331   6.589 -3.0610  1.5211  0.3611
  960MOL0     H29574   9.638   5.165   6.679 -0.0618  0.6833 -0.7327
  960MOL0     H29575   9.500   5.079   6.741 -3.0801  1.7500 -0.1544
  960MOL0     H29576   9.578   5.074   6.440  0.8043 -2.4509 -0.8186
  960MOL0     H29577   9.472   4.956   6.520  1.5008 -1.7618 -0.8354
  960MOL0     H29578   9.663   4.890   6.656 -1.2276 -0.7673 -0.3572
  960MOL0     H29579   9.660   4.847   6.482 -0.3236  1.8707 -3.0300
  960MOL0     H29580   8.779   5.504   6.389 -0.6690  2.0908  0.7673
  960MOL0     H29581   8.538   5.484   6.407 -0.4178 -0.5759  0.7261
  960MOL0     H29582   8.205   5.183   6.477  0.6882 -1.0072  1.8210
  960MOL0     H29583   7.966   5.125   6.473  0.2596  0.1912  1.5865
  960MOL0     H29584   6.528   4.510   4.965 -0.6349 -1.3145  1.6035
  960MOL0     H29585   6.338   4.557   4.837  0.2614 -0.3028 -0.1081
  960MOL0     H29586   6.067   4.773   4.654 -0.6654  1.6762 -0.8408
  960MOL0     H29587   5.898   4.756   4.477 -2.9888  0.7310  0.7509
  960MOL0     H29588   5.753   4.633   4.338  1.4454 -1.0548  2.9653
  960MOL0     H29589   5.731   4.810   4.370 -0.9248  0.7628  0.8699
  960MOL0     H29590   5.579   4.698   4.200  0.3818  2.4408 -0.9268
  960MOL0     H29591   5.506   4.818   4.309 -0.0602  0.1400 -0.5482
  960MOL0     H29592   5.391   4.643   4.444 -0.8942  1.7488  0.0189
  960MOL0     H29593   5.493   4.523   4.360 -0.3318  0.4017  1.2235
  960MOL0     H29594   5.256   4.523   4.287  1.7138  0.1147  2.5014
  960MOL0     H29595   5.272   4.688   4.227 -0.4494 -1.2256  0.5453
  960MOL0     H29596   5.456   4.525   3.904 -2.5666  1.2528 -0.6950
  960MOL0     H29597   5.591   4.697   4.755  0.5730  0.5426  1.4248
  960MOL0     H29598   5.642   4.657   4.991  0.6788 -2.2523 -2.1300
  960MOL0     H29599   5.806   4.626   5.041 -1.4809 -2.3775 -1.7905
  960MOL0     H29600   5.733   4.795   5.034 -0.5045  0.7510 -0.8699
  961MOL0     O29601   2.321   7.627   5.659 -0.0361  0.2668  0.1168
  961MOL0     C29602   2.374   7.526   5.603 -0.0584 -0.7551 -0.7688
  961MOL0     O29603   2.336   7.402   5.623 -0.1647 -0.3185  0.6136
  961MOL0     C29604   2.214   7.372   5.670  0.0385  1.0050  0.5240
  961MOL0     C29605   2.201   7.255   5.744 -1.3435  0.6680 -0.5233
  961MOL0     C29606   2.079   7.192   5.772  1.2556  0.2263  0.2952
  961MOL0     C29607   1.958   7.250   5.723 -0.7353 -0.7235  0.0413
  961MOL0     O29608   1.843   7.176   5.731  0.8409 -0.0168  0.1208
  961MOL0     C29609   1.828   7.123   5.866  0.3776 -0.2228 -0.0968
  961MOL0     C29610   1.685   7.073   5.898  0.4696  0.0001  0.4991
  961MOL0     C29611   1.571   7.168   5.851  0.1308  0.3824  0.2069
  961MOL0     C29612   1.583   7.322   5.879 -0.2087  0.3867 -0.4243
  961MOL0     C29613   1.544   7.349   6.024  0.3894  0.0272 -0.3190
  961MOL0     C29614   1.397   7.337   6.059  0.1829  0.9139 -1.1687
  961MOL0     C29615   1.303   7.436   5.979 -0.0118  0.6739 -0.3781
  961MOL0     C29616   1.159   7.421   6.028  0.2083 -0.6293  0.0309
  961MOL0     N29617   1.065   7.518   5.967 -0.6428  0.2902  0.1996
  961MOL0     C29618   1.083   7.653   5.964 -0.9297 -0.9190  0.2347
  961MOL0     C29619   0.981   7.702   5.888  0.7604  0.6269 -0.6883
  961MOL0     C29620   0.970   7.836   5.819 -0.0258  0.3634  0.1966
  961MOL0     C29621   0.993   7.820   5.673  0.0856 -0.3994  0.7096
  961MOL0     C29622   1.001   7.955   5.592  0.9958  0.0185 -0.3110
  961MOL0     C29623   1.137   8.022   5.615  0.3326  0.1670 -0.1279
  961MOL0     O29624   1.240   7.957   5.540 -0.0390  0.2765  0.0515
  961MOL0     C29625   1.358   8.011   5.533 -0.6490 -0.7819 -0.4275
  961MOL0     C29626   1.449   7.964   5.455  0.1507  0.0827 -0.2862
  961MOL0     C29627   1.576   8.026   5.418 -1.1908  0.2576 -0.9131
  961MOL0     C29628   1.609   8.144   5.490 -0.6328  0.1121  0.6087
  961MOL0     C29629   1.734   8.219   5.451 -0.3769  0.3025 -0.3071
  961MOL0     O29630   1.841   8.158   5.389 -0.7349 -0.7337  0.1625
  961MOL0     C29631   1.958   8.228   5.383  0.6552  0.3430 -0.0250
  961MOL0     C29632   2.008   8.226   5.249  0.3458 -0.1352  0.2349
  961MOL0     C29633   2.132   8.286   5.226 -0.6831  0.6681 -0.5146
  961MOL0     C29634   2.201   8.352   5.325 -1.0890  0.0470  0.0776
  961MOL0     O29635   2.320   8.408   5.291  0.0934 -0.8155  0.0739
  961MOL0     C29636   2.430   8.360   5.365 -0.1864 -0.4218 -0.1726
  961MOL0     C29637   2.476   8.223   5.306  0.6088  0.3922 -0.1614
  961MOL0     C29638   2.628   8.212   5.304 -0.6669 -0.6604 -0.2838
  961MOL0     C29639   2.698   8.285   5.189 -1.2001  0.1776  0.4663
  961MOL0     C29640   2.857   8.285   5.196  0.7894  0.3086 -1.1615
  961MOL0     C29641   2.907   8.361   5.075 -0.1554 -1.4072  0.2669
  961MOL0     C29642   2.905   8.284   4.945  0.2170  0.3391  1.2449
  961MOL0     C29643   3.032   8.287   4.862  0.2359  0.0286 -0.1144
  961MOL0    Cl29644   3.065   8.460   4.809  0.2408 -0.6057  0.1551
  961MOL0     C29645   2.143   8.358   5.453 -0.0089  0.4944  0.6034
  961MOL0     C29646   2.029   8.290   5.482  1.2300 -0.4666  0.0428
  961MOL0     O29647   1.730   8.334   5.489 -0.6091 -0.2319  0.4718
  961MOL0     C29648   1.512   8.197   5.576  0.4180 -0.1946 -0.1709
  961MOL0     C29649   1.387   8.133   5.601 -0.3477 -0.0601  0.1620
  961MOL0     N29650   0.890   7.601   5.853  0.1632  0.9177  0.5003
  961MOL0     N29651   0.942   7.492   5.899  0.2106 -0.9035  0.3265
  961MOL0     C29652   1.970   7.375   5.646  0.3792  0.1845 -0.3012
  961MOL0     C29653   2.094   7.434   5.621 -0.1234  0.3898 -0.4420
  961MOL0     C29654   2.487   7.548   5.519 -1.0196 -0.6781  0.6639
  961MOL0     C29655   2.557   7.439   5.481 -0.6391  0.6346 -0.0394
  961MOL0     C29656   2.669   7.442   5.404  0.5511  0.0166  0.9138
  961MOL0     C29657   2.730   7.562   5.365  0.3811 -0.0665  0.8092
  961MOL0     O29658   2.841   7.557   5.288  0.6824  0.0003  0.1265
  961MOL0     C29659   2.922   7.673   5.275  0.1735  0.3274  0.2709
  961MOL0     C29660   2.868   7.741   5.147  0.0581 -0.5285  0.1385
  961MOL0     C29661   2.979   7.784   5.049 -0.4925 -0.1236  0.2179
  961MOL0     C29662   3.030   7.931   5.072 -0.2062  0.0280 -0.1498
  961MOL0     C29663   3.153   7.948   5.005  0.0589  0.4683 -0.4402
  961MOL0     C29664   3.261   7.951   4.948  0.1672  0.5237 -0.0779
  961MOL0     C29665   2.671   7.683   5.409  0.4928 -0.6565  0.9587
  961MOL0     C29666   2.545   7.678   5.476  0.4302  0.5095  0.0522
  961MOL0     C29667   2.480   7.805   5.493 -0.0801 -0.1231 -0.0780
  961MOL0     H29668   2.296   7.211   5.774 -1.7882  0.5544  0.7664
  961MOL0     H29669   2.070   7.096   5.820 -1.8167 -0.8397 -2.0512
  961MOL0     H29670   1.897   7.040   5.882  0.1075 -0.6712 -1.1424
  961MOL0     H29671   1.859   7.198   5.938  0.8515  1.4890 -1.9828
  961MOL0     H29672   1.681   7.046   6.003 -1.1221 -2.0654 -0.0329
  961MOL0     H29673   1.667   6.971   5.862 -1.2288  0.5007 -0.1766
  961MOL0     H29674   1.480   7.128   5.898 -0.5248  2.9575  1.3152
  961MOL0     H29675   1.564   7.159   5.742  4.8852 -0.0491 -0.2551
  961MOL0     H29676   1.689   7.342   5.862  0.7448 -1.7473  2.3540
  961MOL0     H29677   1.522   7.369   5.801  0.6655  1.9696 -0.2030
  961MOL0     H29678   1.604   7.279   6.083 -0.5044 -0.2615  0.2634
  961MOL0     H29679   1.580   7.447   6.056  2.2197 -0.7435  0.1420
  961MOL0     H29680   1.380   7.230   6.042  1.5095 -0.1385  3.0468
  961MOL0     H29681   1.386   7.347   6.167  2.7357  1.3143 -0.8814
  961MOL0     H29682   1.298   7.421   5.871  1.5239 -0.5501 -0.3136
  961MOL0     H29683   1.348   7.535   5.985 -1.5874  1.4476 -0.6357
  961MOL0     H29684   1.130   7.322   5.991  0.3886 -0.2583 -1.1249
  961MOL0     H29685   1.152   7.421   6.137  0.8954 -1.0503  0.0756
  961MOL0     H29686   1.166   7.709   6.007 -0.9740 -2.1948  2.0788
  961MOL0     H29687   0.873   7.884   5.834  0.2042  1.1894 -0.8217
  961MOL0     H29688   1.041   7.911   5.856 -1.1750  1.2622  0.6209
  961MOL0     H29689   1.077   7.756   5.643 -0.4489  0.6543 -3.7512
  961MOL0     H29690   0.904   7.769   5.636 -1.0164  0.3957  2.2058
  961MOL0     H29691   0.918   8.020   5.623 -0.8950 -1.1017 -2.6545
  961MOL0     H29692   0.988   7.938   5.484  1.3313  4.1899 -1.1690
  961MOL0     H29693   1.156   8.026   5.723 -0.7189  0.0026  0.0763
  961MOL0     H29694   1.132   8.125   5.578 -0.6778 -0.1024 -0.7894
  961MOL0     H29695   1.430   7.866   5.411 -1.2032 -0.6875  1.8453
  961MOL0     H29696   1.634   7.980   5.338  1.6646  3.0571 -0.6161
  961MOL0     H29697   1.949   8.178   5.172 -0.6434  1.9378 -0.3552
  961MOL0     H29698   2.161   8.274   5.122  0.5842 -1.1677 -0.0070
  961MOL0     H29699   2.509   8.429   5.332 -1.6482  0.3624 -2.2250
  961MOL0     H29700   2.414   8.372   5.472  1.5430  1.7181 -0.0801
  961MOL0     H29701   2.422   8.153   5.370 -1.7218  0.1820 -2.1983
  961MOL0     H29702   2.435   8.203   5.207 -1.2495 -2.1847  1.0218
  961MOL0     H29703   2.663   8.258   5.397  1.7129  1.1096 -1.9292
  961MOL0     H29704   2.659   8.108   5.320 -0.0215 -1.0281 -3.3598
  961MOL0     H29705   2.666   8.389   5.178  0.8824  0.8444  0.3664
  961MOL0     H29706   2.682   8.233   5.094  1.1484  0.3189 -0.0690
  961MOL0     H29707   2.893   8.182   5.189 -0.0868  0.0473 -2.0840
  961MOL0     H29708   2.884   8.324   5.294 -2.7364  2.4010 -0.8703
  961MOL0     H29709   2.862   8.459   5.057  2.0648 -0.2652  0.5299
  961MOL0     H29710   3.012   8.386   5.095  0.1658 -2.4491 -0.0387
  961MOL0     H29711   2.819   8.324   4.890  0.2408 -2.8336 -1.4086
  961MOL0     H29712   2.886   8.178   4.959 -1.6437  0.6131  0.9698
  961MOL0     H29713   3.117   8.242   4.913  1.0986 -0.7183 -2.1311
  961MOL0     H29714   3.006   8.235   4.770 -2.6010  2.2570 -0.7596
  961MOL0     H29715   2.196   8.404   5.535  1.8772  1.5311 -1.0812
  961MOL0     H29716   1.989   8.315   5.579  0.0443  1.4421 -0.8692
  961MOL0     H29717   1.528   8.287   5.635 -0.2612 -0.7203  0.8351
  961MOL0     H29718   1.327   8.170   5.684 -0.5624  2.1114 -0.8793
  961MOL0     H29719   1.879   7.410   5.599  0.2176  2.6523  1.5864
  961MOL0     H29720   2.099   7.525   5.563 -1.9458  0.9278  0.1710
  961MOL0     H29721   2.539   7.334   5.503 -1.7124  1.0222  1.0598
  961MOL0     H29722   2.709   7.344   5.380 -1.1415 -0.8874  1.5863
  961MOL0     H29723   3.027   7.641   5.266 -0.2469 -0.8966 -0.5262
  961MOL0     H29724   2.920   7.746   5.356  0.7582  0.0769  0.5181
  961MOL0     H29725   2.824   7.832   5.189  2.2491  0.7072 -0.1212
  961MOL0     H29726   2.812   7.668   5.087 -0.1394  1.7268 -2.6388
  961MOL0     H29727   2.951   7.769   4.945 -1.0104 -3.1130  0.6774
  961MOL0     H29728   3.062   7.712   5.055  0.7517  1.2028 -0.3629
  961MOL0     H29729   2.965   8.010   5.033 -0.2565 -0.4058 -0.9640
  961MOL0     H29730   3.039   7.948   5.179  0.3238 -2.7230  0.3039
  961MOL0     H29731   3.343   7.919   4.887 -0.9464 -5.8331  1.0365
  961MOL0     H29732   2.711   7.780   5.383 -1.2684 -0.4582 -1.2475
  961MOL0     H29733   2.374   7.797   5.469 -0.3631 -0.6447  1.2259
  961MOL0     H29734   2.473   7.834   5.598 -4.2687 -2.7348  0.5973
  961MOL0     H29735   2.510   7.881   5.421 -1.6947  1.0752  0.4609
  962MOL0     O29736   6.355  10.542   5.466  0.0746  0.3590  0.2958
  962MOL0     C29737   6.336  10.497   5.353 -0.9288  0.2421  0.1174
  962MOL0     O29738   6.433  10.432   5.280 -0.3714 -0.7460  0.4502
  962MOL0     C29739   6.551  10.409   5.342 -0.5406  0.7165  1.0463
  962MOL0     C29740   6.567  10.305   5.434 -0.0025  0.3812 -0.1991
  962MOL0     C29741   6.699  10.277   5.473  0.6565  0.9649  0.2883
  962MOL0     C29742   6.808  10.339   5.420 -0.3597 -0.8667  0.4579
  962MOL0     O29743   6.931  10.306   5.460 -0.0162  0.1272 -0.6559
  962MOL0     C29744   6.962  10.176   5.490 -0.0257  0.5690 -0.3201
  962MOL0     C29745   7.103  10.154   5.499 -0.1784 -0.3600  0.7103
  962MOL0     C29746   7.190  10.250   5.596  0.2357  0.0122  0.3031
  962MOL0     C29747   7.136  10.257   5.734 -0.3530 -0.6758  0.1772
  962MOL0     C29748   7.239  10.337   5.819  0.1462  0.0604  0.4974
  962MOL0     C29749   7.195  10.386   5.956  0.8871 -0.0413  0.4405
  962MOL0     C29750   7.290  10.488   6.022  0.3756  0.2660  0.0656
  962MOL0     C29751   7.260  10.554   6.160  0.5422  0.8524 -0.1973
  962MOL0     N29752   7.374  10.644   6.179 -0.6555 -0.8787  0.3399
  962MOL0     C29753   7.399  10.765   6.114  0.1183 -0.5468  0.0012
  962MOL0     C29754   7.531  10.787   6.135 -0.3456  0.2137 -0.5135
  962MOL0     C29755   7.605  10.921   6.105  0.3838 -0.0472 -0.1546
  962MOL0     C29756   7.702  10.901   5.987 -0.1214  0.5992 -0.1890
  962MOL0     C29757   7.830  10.815   6.029  0.3245  0.0145  0.3123
  962MOL0     C29758   7.919  10.866   6.136  0.1920  0.9875  0.2436
  962MOL0     O29759   7.898  11.009   6.138  0.2698 -0.0083 -0.7275
  962MOL0     C29760   7.984  11.091   6.071 -0.3198 -1.0474  0.0568
  962MOL0     C29761   8.039  11.067   5.942  0.5151 -0.1366  0.3197
  962MOL0     C29762   8.135  11.158   5.885 -0.1551  0.1692  0.2077
  962MOL0     C29763   8.163  11.275   5.959 -0.0894 -0.6519  0.2759
  962MOL0     C29764   8.271  11.364   5.906  0.1742  0.3829  0.1164
  962MOL0     O29765   8.307  11.457   6.005  0.1494 -0.0945  0.0268
  962MOL0     C29766   8.435  11.511   5.992  0.5191 -0.0149 -0.5092
  962MOL0     C29767   8.535  11.479   6.092 -0.5354  0.2408  0.7370
  962MOL0     C29768   8.669  11.514   6.090 -0.0287 -0.1189 -0.1058
  962MOL0     C29769   8.709  11.602   5.990  0.5071  0.4914 -0.0180
  962MOL0     O29770   8.843  11.630   6.006  0.4790 -0.3808  0.1182
  962MOL0     C29771   8.896  11.737   5.922  0.1672 -0.4168 -0.3031
  962MOL0     C29772   9.040  11.777   5.962  0.5674 -0.9984  0.1673
  962MOL0     C29773   9.046  11.855   6.099 -0.1686  0.3203  0.2415
  962MOL0     C29774   9.165  11.957   6.082  0.8364 -0.1214  0.1792
  962MOL0     C29775   9.198  12.010   6.222  0.6248 -0.3860 -0.1888
  962MOL0     C29776   9.307  12.111   6.224 -0.5486  0.1158 -0.3476
  962MOL0     C29777   9.337  12.155   6.370  0.0943 -0.2286 -0.8829
  962MOL0     C29778   9.430  12.279   6.386  0.2415 -0.1461  0.4642
  962MOL0    Cl29779   9.607  12.223   6.364 -0.1008 -0.2595 -0.5122
  962MOL0     C29780   8.615  11.645   5.889 -0.8153 -0.3316  0.1613
  962MOL0     C29781   8.479  11.594   5.892 -1.1390  0.5850  0.2956
  962MOL0     O29782   8.335  11.340   5.804 -0.3783 -0.0071 -0.4981
  962MOL0     C29783   8.086  11.310   6.069 -0.4686 -0.4730  1.2130
  962MOL0     C29784   8.005  11.215   6.131  0.0669  0.2816  0.2624
  962MOL0     N29785   7.592  10.693   6.217 -0.5769 -1.3666  0.5030
  962MOL0     N29786   7.498  10.608   6.245  0.5084 -0.3305  0.3466
  962MOL0     C29787   6.791  10.453   5.335 -0.1294  0.2798 -0.4164
  962MOL0     C29788   6.661  10.478   5.291  0.5125  0.1621  0.6677
  962MOL0     C29789   6.205  10.513   5.279 -0.5093  0.6581  0.9766
  962MOL0     C29790   6.215  10.502   5.140  0.3677 -0.2948  1.0030
  962MOL0     C29791   6.107  10.505   5.054  0.2942  0.4387 -0.4774
  962MOL0     C29792   5.983  10.550   5.102  1.3712 -0.4312  1.0578
  962MOL0     O29793   5.868  10.578   5.032  0.1139  0.5053 -0.2472
  962MOL0     C29794   5.878  10.627   4.901  0.2123 -0.5221 -0.2543
  962MOL0     C29795   5.801  10.754   4.902 -0.4855  0.1471  0.1492
  962MOL0     C29796   5.761  10.794   4.759  0.0028 -0.4683  0.0031
  962MOL0     C29797   5.641  10.895   4.768 -0.0574  0.5140  0.0035
  962MOL0     C29798   5.584  10.896   4.631  0.1261  0.4016  0.5016
  962MOL0     C29799   5.530  10.901   4.521 -0.4803  0.8893 -0.4291
  962MOL0     C29800   5.977  10.575   5.239  0.2216 -0.5336  0.1473
  962MOL0     C29801   6.080  10.551   5.329 -0.5116 -1.0229  0.1441
  962MOL0     C29802   6.057  10.577   5.475 -0.5484  0.2583  0.2145
  962MOL0     H29803   6.490  10.246   5.482  1.0438 -0.2684  0.7308
  962MOL0     H29804   6.698  10.194   5.543  0.8830  1.3202  0.7124
  962MOL0     H29805   6.923  10.151   5.589  0.1927 -0.2875 -0.4493
  962MOL0     H29806   6.927  10.104   5.417  0.4210 -1.3673  1.2951
  962MOL0     H29807   7.147  10.158   5.398  0.1667  1.2543  0.9056
  962MOL0     H29808   7.125  10.051   5.530  0.7178 -0.2120  0.6072
  962MOL0     H29809   7.194  10.351   5.554 -0.7079  0.0102  0.1879
  962MOL0     H29810   7.294  10.214   5.594  0.4913  0.6510 -2.6744
  962MOL0     H29811   7.045  10.316   5.736  1.1124  1.6910  1.8055
  962MOL0     H29812   7.128  10.155   5.773  0.6241 -0.2754  1.4929
  962MOL0     H29813   7.334  10.283   5.824  1.5021  2.2172 -0.3966
  962MOL0     H29814   7.256  10.427   5.760 -1.6053 -0.0210 -0.1977
  962MOL0     H29815   7.100  10.439   5.944  1.1436  0.3435  0.0880
  962MOL0     H29816   7.179  10.300   6.023  2.4862 -0.1678  0.6955
  962MOL0     H29817   7.299  10.569   5.949  1.2320 -0.9947 -1.2776
  962MOL0     H29818   7.393  10.451   6.019  0.3144  0.1416 -1.1376
  962MOL0     H29819   7.167  10.611   6.162 -0.9203 -1.0527 -3.6440
  962MOL0     H29820   7.269  10.480   6.240 -1.1377  1.0027  0.1740
  962MOL0     H29821   7.318  10.816   6.062  0.5866 -0.7675 -0.9571
  962MOL0     H29822   7.533  10.999   6.080 -1.7925 -0.3066  4.2973
  962MOL0     H29823   7.659  10.953   6.194 -1.3538  2.0051  0.2372
  962MOL0     H29824   7.657  10.845   5.904  0.7207 -0.9818  0.3766
  962MOL0     H29825   7.737  10.990   5.934  0.1369 -0.2909 -1.5980
  962MOL0     H29826   7.881  10.789   5.936 -3.5451 -0.1405 -1.9619
  962MOL0     H29827   7.796  10.719   6.068  0.8580  0.1240  1.0762
  962MOL0     H29828   8.026  10.841   6.134  0.3793  1.5457  1.9070
  962MOL0     H29829   7.877  10.835   6.232  3.2492  0.7954  1.6461
  962MOL0     H29830   8.027  10.969   5.898  0.8121 -0.2673  0.5283
  962MOL0     H29831   8.170  11.141   5.784  1.3794  3.0012  0.1556
  962MOL0     H29832   8.507  11.415   6.175 -0.9662 -0.2170  0.2510
  962MOL0     H29833   8.739  11.468   6.160  0.8064 -1.6039 -1.8279
  962MOL0     H29834   8.902  11.706   5.818 -1.3839 -2.7142  0.2154
  962MOL0     H29835   8.829  11.824   5.926  1.6927  0.9241 -1.9985
  962MOL0     H29836   9.103  11.690   5.981  1.0753 -0.7221 -0.2371
  962MOL0     H29837   9.084  11.840   5.884 -0.4447 -0.2494  0.1788
  962MOL0     H29838   8.953  11.907   6.124  1.2575  2.9211  0.4864
  962MOL0     H29839   9.073  11.790   6.183 -0.4421 -1.9260 -1.3170
  962MOL0     H29840   9.129  12.030   6.009 -2.4442 -1.1747  0.6063
  962MOL0     H29841   9.251  11.903   6.042  1.6027  1.7094 -0.7594
  962MOL0     H29842   9.205  11.936   6.303 -3.5230 -1.0131 -0.1566
  962MOL0     H29843   9.106  12.063   6.250  1.9287  1.0221  1.6503
  962MOL0     H29844   9.400  12.077   6.177 -1.2720 -1.5064 -0.6951
  962MOL0     H29845   9.276  12.203   6.173  1.4208  0.2535 -1.3816
  962MOL0     H29846   9.373  12.069   6.428  0.5274  0.6391  0.1874
  962MOL0     H29847   9.247  12.194   6.419  1.2935  2.6279 -0.7871
  962MOL0     H29848   9.404  12.369   6.330  0.0848 -1.7145 -2.1221
  962MOL0     H29849   9.411  12.318   6.486 -0.6142  1.3702 -0.2619
  962MOL0     H29850   8.644  11.719   5.815 -1.6622  0.4842  0.6322
  962MOL0     H29851   8.403  11.610   5.816  0.8011 -1.5989 -2.2815
  962MOL0     H29852   8.085  11.411   6.111 -0.2652  0.1208 -0.1558
  962MOL0     H29853   7.958  11.231   6.227  0.8423 -2.6269  1.2491
  962MOL0     H29854   6.879  10.509   5.306  3.3699 -4.0369  0.8321
  962MOL0     H29855   6.639  10.558   5.222 -2.2956 -0.1776  1.0716
  962MOL0     H29856   6.312  10.490   5.092  0.5401  2.8096  0.3806
  962MOL0     H29857   6.108  10.478   4.949 -0.8717 -2.6935  0.2161
  962MOL0     H29858   5.830  10.551   4.839 -0.8979 -1.6683  1.9198
  962MOL0     H29859   5.979  10.648   4.864 -0.6534  2.8194 -1.0731
  962MOL0     H29860   5.871  10.812   4.962  1.1439 -1.4389 -0.1145
  962MOL0     H29861   5.719  10.730   4.970  0.6000 -2.5749  0.6634
  962MOL0     H29862   5.735  10.708   4.698  3.0189 -0.7483 -1.0408
  962MOL0     H29863   5.845  10.843   4.709 -2.0903  1.1947 -2.1384
  962MOL0     H29864   5.562  10.865   4.838 -2.6274 -0.4533 -3.0376
  962MOL0     H29865   5.679  10.997   4.782  0.3812  0.5803 -1.5514
  962MOL0     H29866   5.488  10.924   4.426  1.0985  1.2863 -1.0550
  962MOL0     H29867   5.885  10.595   5.294  1.0458 -0.1032  1.4209
  962MOL0     H29868   6.009  10.490   5.522  2.3881 -1.9486 -0.5593
  962MOL0     H29869   6.147  10.607   5.529 -1.0867  0.1994  1.1589
  962MOL0     H29870   5.987  10.660   5.484 -2.1122 -1.2555  3.3447
  963MOL0     O29871  10.562   2.962  10.147  0.3756  0.1282  0.0716
  963MOL0     C29872  10.584   3.065  10.210  0.0582 -0.4247  0.5418
  963MOL0     O29873  10.534   3.086  10.337 -0.2523 -0.8779  0.6859
  963MOL0     C29874  10.451   2.990  10.398 -0.2981 -0.1923  0.0869
  963MOL0     C29875  10.502   2.919  10.505  0.0184 -0.8043  0.3721
  963MOL0     C29876  10.425   2.818  10.562 -0.1184  0.4269 -0.0636
  963MOL0     C29877  10.290   2.796  10.521 -1.1088 -0.6561  0.1622
  963MOL0     O29878  10.203   2.707  10.581  0.1785 -0.4663  0.3094
  963MOL0     C29879  10.240   2.656  10.704  0.7108  0.1895 -0.4277
  963MOL0     C29880  10.122   2.601  10.772  0.0040  0.1777  0.2608
  963MOL0     C29881  10.016   2.703  10.788 -1.0773  0.1794 -0.5842
  963MOL0     C29882   9.916   2.667  10.895 -0.0541 -0.1811 -0.3539
  963MOL0     C29883   9.800   2.580  10.841 -0.3205 -0.3104 -0.9258
  963MOL0     C29884   9.828   2.431  10.808  0.4130  0.4106 -0.0377
  963MOL0     C29885   9.694   2.353  10.799  0.0142  0.4174 -0.2285
  963MOL0     C29886   9.718   2.196  10.792 -0.0450 -0.4634  0.6931
  963MOL0     N29887   9.783   2.148  10.662 -0.0936 -0.7959 -0.0431
  963MOL0     C29888   9.918   2.160  10.638 -0.2011 -0.1894 -1.3231
  963MOL0     C29889   9.937   2.115  10.515  0.1250  0.2857 -0.0646
  963MOL0     C29890  10.063   2.100  10.449 -0.2200 -0.1395  0.2019
  963MOL0     C29891  10.129   2.228  10.400  0.0955 -0.2148  0.4426
  963MOL0     C29892  10.211   2.197  10.276  0.4664 -0.7606  0.7348
  963MOL0     C29893  10.267   2.322  10.210 -0.1386 -0.3837 -0.1827
  963MOL0     O29894  10.341   2.401  10.308 -0.3196 -0.4927  0.3767
  963MOL0     C29895  10.473   2.421  10.287  0.2258 -0.3037 -1.3146
  963MOL0     C29896  10.517   2.546  10.320  0.5282  0.1981  0.0258
  963MOL0     C29897  10.651   2.586  10.305  0.5351  0.1818 -0.4353
  963MOL0     C29898  10.744   2.492  10.256 -0.1431 -0.0755  0.6479
  963MOL0     C29899  10.880   2.528  10.226  0.3333 -0.5795 -0.9398
  963MOL0     O29900  10.942   2.434  10.152  0.5925 -0.2706 -0.0711
  963MOL0     C29901  11.057   2.455  10.086 -0.9728 -0.1345 -0.4955
  963MOL0     C29902  11.164   2.356  10.091  0.6689 -0.0387  0.8190
  963MOL0     C29903  11.287   2.381  10.022 -0.5771 -0.3958 -0.5621
  963MOL0     C29904  11.316   2.500   9.960  0.5291 -0.1718  0.5645
  963MOL0     O29905  11.433   2.535   9.896  0.2862  0.5775  0.2904
  963MOL0     C29906  11.530   2.435   9.879  0.2796  0.7303  0.6759
  963MOL0     C29907  11.667   2.491   9.841 -0.2685 -0.4877 -0.1845
  963MOL0     C29908  11.742   2.420   9.726  0.1939 -0.1004 -0.1322
  963MOL0     C29909  11.820   2.516   9.642  0.0751 -0.4530  0.3561
  963MOL0     C29910  11.926   2.451   9.559  0.6644 -0.6293  0.6761
  963MOL0     C29911  11.892   2.334   9.471  0.0309 -0.6129 -0.4875
  963MOL0     C29912  12.008   2.284   9.375 -0.0609 -0.8278  0.3834
  963MOL0     C29913  12.098   2.182   9.430 -0.7425  0.1575  0.0106
  963MOL0    Cl29914  12.243   2.184   9.323  0.0526 -0.0014 -0.4989
  963MOL0     C29915  11.208   2.591   9.951 -0.1368 -0.4513 -0.2767
  963MOL0     C29916  11.086   2.576  10.018  0.2658  0.2609 -1.3984
  963MOL0     O29917  10.924   2.635  10.262 -0.3904  0.1936 -0.3713
  963MOL0     C29918  10.699   2.355  10.234  0.8809  0.0567  1.2010
  963MOL0     C29919  10.565   2.324  10.242  0.3020  1.0148 -0.0124
  963MOL0     N29920   9.815   2.085  10.460 -0.4369  0.0499  1.2317
  963MOL0     N29921   9.723   2.100  10.549  0.4075 -0.2947 -0.4794
  963MOL0     C29922  10.247   2.862  10.407  0.4350 -0.0187  1.0322
  963MOL0     C29923  10.329   2.957  10.341 -0.8114 -0.1783 -0.0704
  963MOL0     C29924  10.645   3.181  10.143  0.1647  0.1793 -0.2297
  963MOL0     C29925  10.608   3.305  10.192  0.9526 -0.3016  0.6117
  963MOL0     C29926  10.638   3.416  10.117 -0.7626 -0.5314  0.5240
  963MOL0     C29927  10.735   3.412  10.013 -0.0844 -0.2426 -0.0338
  963MOL0     O29928  10.764   3.533   9.951  0.2423 -0.0169 -0.2448
  963MOL0     C29929  10.876   3.534   9.862  0.8519  0.2291  0.6031
  963MOL0     C29930  10.884   3.670   9.803 -0.0468  0.0482  0.6968
  963MOL0     C29931  11.013   3.693   9.742 -1.2291  0.2841 -0.0762
  963MOL0     C29932  11.017   3.637   9.591  0.1232 -0.0184  0.5566
  963MOL0     C29933  11.147   3.654   9.529  0.5245 -0.6128 -0.2960
  963MOL0     C29934  11.262   3.670   9.499 -0.4032 -0.4346  0.4031
  963MOL0     C29935  10.777   3.284   9.966  0.0215 -1.0022 -0.2305
  963MOL0     C29936  10.738   3.165  10.032 -0.1914 -0.9761  0.1310
  963MOL0     C29937  10.778   3.035   9.966  0.5341  0.2231  0.4554
  963MOL0     H29938  10.600   2.947  10.543  0.4295  0.2111 -1.3528
  963MOL0     H29939  10.466   2.757  10.642  0.0656  0.2295 -0.3049
  963MOL0     H29940  10.314   2.576  10.692 -1.2014 -1.7205 -0.0675
  963MOL0     H29941  10.285   2.738  10.759 -0.5644  2.2229 -2.2525
  963MOL0     H29942  10.148   2.559  10.869 -0.8128  2.2791  1.4526
  963MOL0     H29943  10.095   2.521  10.702 -0.7394  0.6800 -0.0530
  963MOL0     H29944   9.971   2.717  10.690  0.6012 -0.4978 -1.4942
  963MOL0     H29945  10.066   2.797  10.815  2.0232 -1.2162 -0.9865
  963MOL0     H29946   9.966   2.608  10.973  1.1660 -0.7013 -1.4921
  963MOL0     H29947   9.871   2.758  10.937  3.0573  1.9355 -1.2461
  963MOL0     H29948   9.726   2.597  10.920  1.0076  1.2793  0.0348
  963MOL0     H29949   9.763   2.635  10.754 -2.8657 -2.0123 -1.0200
  963MOL0     H29950   9.877   2.424  10.710 -1.8320 -2.7562 -1.0901
  963MOL0     H29951   9.889   2.385  10.886  1.9443  1.8404 -0.3308
  963MOL0     H29952   9.631   2.384  10.716 -0.0188  1.3350  0.1284
  963MOL0     H29953   9.626   2.371  10.883 -1.7158  2.0166 -1.8757
  963MOL0     H29954   9.784   2.172  10.876  0.2530  2.0246  1.2666
  963MOL0     H29955   9.620   2.151  10.810  0.1860 -1.4314 -0.3448
  963MOL0     H29956   9.998   2.207  10.695  0.7114 -1.6913 -1.2982
  963MOL0     H29957  10.143   2.055  10.508  1.4341  1.3535 -0.7773
  963MOL0     H29958  10.041   2.048  10.355  0.7870 -0.1235 -0.0550
  963MOL0     H29959  10.055   2.306  10.382  0.9716  0.8245  1.1938
  963MOL0     H29960  10.190   2.259  10.485 -0.7640 -0.8276  1.3080
  963MOL0     H29961  10.147   2.146  10.203 -1.5736  1.1336  1.1056
  963MOL0     H29962  10.299   2.137  10.300  1.1830 -0.4212 -0.8707
  963MOL0     H29963  10.178   2.369  10.168 -0.1369 -0.1322  0.0874
  963MOL0     H29964  10.326   2.292  10.123 -1.2707 -1.4512 -0.5948
  963MOL0     H29965  10.442   2.617  10.354  1.5880  0.7296  1.3696
  963MOL0     H29966  10.663   2.694  10.312  0.3392  0.1529  0.4443
  963MOL0     H29967  11.136   2.263  10.140  1.6865  0.7685  3.0190
  963MOL0     H29968  11.365   2.305  10.026  0.5999  0.7832 -0.3407
  963MOL0     H29969  11.544   2.362   9.959 -0.5724 -3.9229 -3.0082
  963MOL0     H29970  11.493   2.379   9.793 -0.2960  3.2150 -0.8130
  963MOL0     H29971  11.650   2.598   9.823 -0.8086  0.1588  3.3382
  963MOL0     H29972  11.729   2.497   9.932 -0.8949 -1.4185  0.3204
  963MOL0     H29973  11.816   2.344   9.756 -1.5854 -2.0733 -0.5194
  963MOL0     H29974  11.668   2.358   9.675  2.9079 -4.4618  0.6836
  963MOL0     H29975  11.855   2.592   9.713 -3.7172  0.7392  1.2266
  963MOL0     H29976  11.752   2.572   9.578 -0.4505 -0.8787  0.5281
  963MOL0     H29977  12.001   2.403   9.623 -0.1794 -2.7537  0.1604
  963MOL0     H29978  11.974   2.523   9.493  1.1942  1.2133  2.9293
  963MOL0     H29979  11.857   2.251   9.533  0.0622 -0.4190 -0.2096
  963MOL0     H29980  11.812   2.362   9.401 -0.0150 -2.0046 -1.0139
  963MOL0     H29981  12.064   2.378   9.366 -0.9130 -0.3355  0.1225
  963MOL0     H29982  11.980   2.253   9.274  2.1218  3.0135 -1.6422
  963MOL0     H29983  12.107   2.202   9.537 -2.6227  2.5609 -0.1769
  963MOL0     H29984  12.049   2.084   9.419  0.5995 -0.6020  0.5726
  963MOL0     H29985  11.234   2.682   9.897 -0.2162 -0.0702  0.3177
  963MOL0     H29986  11.013   2.656  10.006 -0.7164 -0.5896 -1.2108
  963MOL0     H29987  10.768   2.286  10.188  0.3973  0.1252  0.3540
  963MOL0     H29988  10.547   2.219  10.222 -0.4898  1.2530 -0.5703
  963MOL0     H29989  10.142   2.851  10.380 -0.0571  3.1145  1.2264
  963MOL0     H29990  10.292   3.008  10.253 -0.2530 -2.1358 -1.5293
  963MOL0     H29991  10.543   3.323  10.277 -2.9829 -2.8918 -1.5675
  963MOL0     H29992  10.587   3.509  10.140 -3.7755 -1.8157 -0.4564
  963MOL0     H29993  10.853   3.470   9.776  2.0594  1.2349 -0.5128
  963MOL0     H29994  10.969   3.495   9.906 -0.0951 -1.1221  1.4895
  963MOL0     H29995  10.876   3.748   9.879  3.2355  2.3464 -1.1037
  963MOL0     H29996  10.793   3.683   9.744  0.8736 -1.4368 -1.1665
  963MOL0     H29997  11.099   3.647   9.790  1.5596  0.5821 -4.2392
  963MOL0     H29998  11.036   3.800   9.742  2.8013 -0.4064  2.1812
  963MOL0     H29999  10.974   3.538   9.574 -1.1785  0.6874 -0.4474
  963MOL0     H30000  10.938   3.695   9.543  0.3571 -0.3607 -0.2552
  963MOL0     H30001  11.367   3.676   9.479 -0.2572  2.3326  1.5919
  963MOL0     H30002  10.839   3.261   9.879 -1.6206 -1.2454 -1.3902
  963MOL0     H30003  10.783   2.954  10.040 -1.4593 -2.5119 -2.1612
  963MOL0     H30004  10.700   2.996   9.900  0.0879  0.9308  0.5409
  963MOL0     H30005  10.869   3.044   9.907 -0.6920  1.0121 -1.4322
  964MOL0     O30006   8.680   3.853   8.644  0.4668 -0.2956 -0.2300
  964MOL0     C30007   8.633   3.784   8.558  1.1015  0.5861  0.3236
  964MOL0     O30008   8.693   3.735   8.452 -0.2466 -0.3344  0.2580
  964MOL0     C30009   8.825   3.769   8.432 -0.1602  0.0056  0.2608
  964MOL0     C30010   8.926   3.673   8.480  0.3115 -0.3356 -0.3168
  964MOL0     C30011   9.061   3.728   8.490  0.3997  0.2626 -0.8528
  964MOL0     C30012   9.096   3.859   8.449 -0.6809 -0.3241  0.1417
  964MOL0     O30013   9.217   3.904   8.472  0.2898 -0.8493  0.6299
  964MOL0     C30014   9.277   3.869   8.598 -1.0367  0.3830 -0.1747
  964MOL0     C30015   9.417   3.931   8.583  0.2123  0.0002  0.3905
  964MOL0     C30016   9.506   3.923   8.696 -0.1608 -0.8116 -0.2837
  964MOL0     C30017   9.607   4.042   8.695  0.4176 -0.3294  0.2655
  964MOL0     C30018   9.700   4.028   8.813 -0.1613 -0.2438  0.1480
  964MOL0     C30019   9.826   4.119   8.822  0.0003 -0.1321 -0.2004
  964MOL0     C30020   9.942   4.051   8.745 -0.5788 -0.2309  0.7525
  964MOL0     C30021  10.056   4.144   8.706  0.4906 -0.5163 -0.5802
  964MOL0     N30022  10.133   4.105   8.585 -1.5846  0.4497 -0.1524
  964MOL0     C30023  10.221   3.997   8.581 -0.1428  0.6418  1.3955
  964MOL0     C30024  10.294   4.009   8.464 -0.6931 -0.6062 -0.3114
  964MOL0     C30025  10.418   3.930   8.438 -0.1179 -0.5035 -0.4089
  964MOL0     C30026  10.549   3.984   8.506 -0.0809 -0.4008 -0.7786
  964MOL0     C30027  10.565   4.129   8.452 -1.0439  1.2188  0.0539
  964MOL0     C30028  10.702   4.194   8.494 -0.1718 -0.1428  0.1497
  964MOL0     O30029  10.812   4.134   8.414  0.7860 -0.4394 -0.0467
  964MOL0     C30030  10.932   4.194   8.430 -0.4916  0.8077  0.4909
  964MOL0     C30031  11.046   4.115   8.402  1.1700  0.5103 -0.2547
  964MOL0     C30032  11.177   4.166   8.394  0.0405 -0.7105 -0.1836
  964MOL0     C30033  11.183   4.305   8.408 -0.6687 -0.1734  0.3261
  964MOL0     C30034  11.322   4.367   8.389 -1.3724  0.4473 -0.1033
  964MOL0     O30035  11.400   4.290   8.306  0.3347 -0.5858 -0.4917
  964MOL0     C30036  11.529   4.324   8.301 -0.5240  0.1852 -0.6762
  964MOL0     C30037  11.624   4.247   8.364 -0.3046  0.7018 -0.0184
  964MOL0     C30038  11.761   4.279   8.361 -0.3000  0.5699  0.0089
  964MOL0     C30039  11.815   4.399   8.307  0.0897  0.3665 -0.2328
  964MOL0     O30040  11.952   4.418   8.314 -0.0624 -0.9662 -0.7613
  964MOL0     C30041  11.994   4.555   8.291 -0.2641 -0.9469 -0.5693
  964MOL0     C30042  12.140   4.555   8.337 -0.1666 -0.0524  1.1152
  964MOL0     C30043  12.164   4.543   8.484  0.0172  0.2222  0.2741
  964MOL0     C30044  12.305   4.496   8.511 -0.5709  0.1381  0.4026
  964MOL0     C30045  12.339   4.476   8.651  0.5837 -0.7251 -0.6898
  964MOL0     C30046  12.485   4.424   8.660 -0.7760  0.1104 -0.0140
  964MOL0     C30047  12.480   4.267   8.680 -0.1870 -0.0410 -0.0985
  964MOL0     C30048  12.605   4.221   8.754  1.0699  0.8653  0.3629
  964MOL0    Cl30049  12.747   4.247   8.653 -0.1616 -0.1095 -0.4178
  964MOL0     C30050  11.713   4.493   8.252 -0.3093  0.3027  0.3539
  964MOL0     C30051  11.577   4.447   8.244 -0.0012  0.2492 -0.7281
  964MOL0     O30052  11.361   4.477   8.448  0.7005  0.0781  0.7885
  964MOL0     C30053  11.082   4.385   8.446 -0.4608 -0.2717  0.6037
  964MOL0     C30054  10.958   4.328   8.453 -0.4052 -0.4669 -0.9910
  964MOL0     N30055  10.257   4.128   8.401  0.3659 -0.0946  0.1267
  964MOL0     N30056  10.156   4.180   8.475 -0.3737  0.3306 -0.0558
  964MOL0     C30057   8.990   3.942   8.399 -0.2813  0.3527 -0.2780
  964MOL0     C30058   8.856   3.897   8.391 -0.9375  0.3394  0.9756
  964MOL0     C30059   8.497   3.731   8.574  0.2529 -0.1236  0.5384
  964MOL0     C30060   8.443   3.639   8.487  0.1343  0.8027 -0.7040
  964MOL0     C30061   8.312   3.604   8.485 -0.3006  0.7836 -0.0807
  964MOL0     C30062   8.223   3.640   8.579  0.3856 -1.1235 -0.6045
  964MOL0     O30063   8.106   3.575   8.599  0.8272  0.0090  0.2405
  964MOL0     C30064   8.120   3.453   8.681  0.0002 -0.0942 -0.7836
  964MOL0     C30065   7.992   3.382   8.680  0.1323  0.1079 -0.5296
  964MOL0     C30066   7.961   3.335   8.539 -0.0049 -0.1281  1.0992
  964MOL0     C30067   7.813   3.333   8.504  0.1143 -0.2239 -0.1662
  964MOL0     C30068   7.752   3.462   8.468  0.9041  0.3163 -0.2589
  964MOL0     C30069   7.718   3.577   8.444  0.0502 -0.1959 -0.3270
  964MOL0     C30070   8.266   3.741   8.663  0.3650  0.0421 -0.9327
  964MOL0     C30071   8.399   3.787   8.656 -0.9363  0.1859 -0.6166
  964MOL0     C30072   8.422   3.916   8.737 -0.5745  0.0730  0.3267
  964MOL0     H30073   8.887   3.579   8.517 -0.9133  1.0470  2.2183
  964MOL0     H30074   9.138   3.663   8.531 -0.8718  1.3704  4.0185
  964MOL0     H30075   9.221   3.910   8.681 -0.6119  1.9168 -0.6195
  964MOL0     H30076   9.294   3.764   8.624 -1.0810  0.4377  0.0730
  964MOL0     H30077   9.404   4.037   8.557 -2.7481 -0.2253  0.6426
  964MOL0     H30078   9.460   3.875   8.499  0.8647  0.2173  0.5772
  964MOL0     H30079   9.561   3.829   8.683  0.0355 -0.6754 -0.4391
  964MOL0     H30080   9.451   3.910   8.790  0.8405 -2.1030  0.1586
  964MOL0     H30081   9.661   4.061   8.602  0.8206  2.9790  1.0275
  964MOL0     H30082   9.533   4.122   8.709  1.4188  0.4525  1.2174
  964MOL0     H30083   9.638   4.048   8.901  1.9590 -2.1783  2.2671
  964MOL0     H30084   9.723   3.923   8.834 -0.8165  0.0154  2.5166
  964MOL0     H30085   9.806   4.217   8.779  0.4905  0.4082  0.7503
  964MOL0     H30086   9.846   4.128   8.930  0.2124 -3.8384  0.1870
  964MOL0     H30087   9.898   4.014   8.652  0.6683 -0.1461  0.1068
  964MOL0     H30088   9.966   3.959   8.799  1.0538  0.9283  2.1220
  964MOL0     H30089  10.023   4.248   8.693 -0.4899 -0.8087 -0.5501
  964MOL0     H30090  10.124   4.148   8.791 -0.7226  2.7024  0.4019
  964MOL0     H30091  10.234   3.921   8.657 -0.2034  0.9897  1.7531
  964MOL0     H30092  10.407   3.832   8.487 -0.1816  0.2875  1.1989
  964MOL0     H30093  10.438   3.913   8.331  1.4896  1.2691 -0.4285
  964MOL0     H30094  10.526   3.984   8.613 -1.4677  2.3992 -0.9775
  964MOL0     H30095  10.625   3.910   8.479  0.9578  0.5493 -0.5508
  964MOL0     H30096  10.492   4.205   8.481 -0.9867  1.8058 -1.2399
  964MOL0     H30097  10.560   4.129   8.342  0.8700  2.5296 -0.0826
  964MOL0     H30098  10.730   4.177   8.598  1.7916  0.0306 -0.3119
  964MOL0     H30099  10.688   4.299   8.466 -2.4993  0.2530  2.4204
  964MOL0     H30100  11.021   4.010   8.391  1.1271  0.0525  3.1351
  964MOL0     H30101  11.266   4.106   8.382  2.6302  1.3468  5.3442
  964MOL0     H30102  11.601   4.155   8.416 -1.3060  2.0765  2.0950
  964MOL0     H30103  11.834   4.207   8.395 -0.6814 -0.9880 -2.2293
  964MOL0     H30104  11.984   4.584   8.186 -2.5808 -0.4199 -0.2572
  964MOL0     H30105  11.931   4.620   8.352 -0.6962 -3.2088  1.5135
  964MOL0     H30106  12.185   4.474   8.279  0.1485 -1.2870  3.0065
  964MOL0     H30107  12.183   4.653   8.311 -2.2921  1.3336  2.4713
  964MOL0     H30108  12.157   4.639   8.536 -0.4182  0.0220  0.5974
  964MOL0     H30109  12.085   4.474   8.516  0.2657  0.3707  1.2600
  964MOL0     H30110  12.383   4.565   8.476  0.3038 -2.4533 -3.2426
  964MOL0     H30111  12.321   4.406   8.452 -2.2078  1.2755 -1.9675
  964MOL0     H30112  12.272   4.404   8.701 -0.2338  0.0564 -0.6368
  964MOL0     H30113  12.346   4.570   8.706 -1.5172 -1.2370  0.5745
  964MOL0     H30114  12.537   4.452   8.568 -1.9321  2.4641 -0.0050
  964MOL0     H30115  12.533   4.480   8.742 -0.4203  0.9629 -0.7864
  964MOL0     H30116  12.474   4.227   8.579 -0.2146 -1.0591  0.2972
  964MOL0     H30117  12.397   4.247   8.748  2.7250  1.8200  4.4816
  964MOL0     H30118  12.609   4.267   8.854 -3.0569 -0.7024  1.4501
  964MOL0     H30119  12.602   4.114   8.775 -2.1744  0.0099 -3.3630
  964MOL0     H30120  11.743   4.581   8.196 -1.6460  0.3339 -0.3548
  964MOL0     H30121  11.503   4.501   8.187 -0.0244 -0.6018 -1.5256
  964MOL0     H30122  11.107   4.488   8.471  0.3010 -0.2572 -0.1765
  964MOL0     H30123  10.874   4.392   8.475 -0.6585 -1.0298 -0.2647
  964MOL0     H30124   9.013   4.046   8.376  0.3109 -0.1029 -1.8926
  964MOL0     H30125   8.786   3.963   8.341 -1.0219 -1.2913 -1.2684
  964MOL0     H30126   8.500   3.587   8.411 -1.5119 -1.5168 -0.4309
  964MOL0     H30127   8.267   3.524   8.428 -2.0139  0.7405  1.2650
  964MOL0     H30128   8.128   3.492   8.783  0.8087 -1.8055 -0.1563
  964MOL0     H30129   8.207   3.390   8.663 -0.8045 -0.9331 -1.8818
  964MOL0     H30130   7.913   3.453   8.709 -1.5804 -1.7628 -0.3661
  964MOL0     H30131   8.006   3.305   8.756  0.8874  1.6526  0.9411
  964MOL0     H30132   7.999   3.232   8.538 -0.1636 -0.2016  1.8490
  964MOL0     H30133   8.013   3.397   8.466  0.3011  0.1556  1.5564
  964MOL0     H30134   7.790   3.266   8.421 -2.3489  1.6788 -1.1475
  964MOL0     H30135   7.760   3.288   8.588 -1.0606 -0.2201 -0.8913
  964MOL0     H30136   7.687   3.677   8.424 -2.8406 -1.0167 -0.3261
  964MOL0     H30137   8.198   3.782   8.736 -0.5093 -0.9441 -1.1684
  964MOL0     H30138   8.432   4.001   8.669  1.3108 -0.3294  0.0522
  964MOL0     H30139   8.329   3.935   8.791 -2.2777  1.1905 -2.7569
  964MOL0     H30140   8.513   3.912   8.798 -1.2682 -0.9849  1.3317
  965MOL0     O30141   6.127   1.127   5.585  0.1698  0.3753 -0.1028
  965MOL0     C30142   6.062   1.021   5.573  0.5731 -0.4680 -0.0764
  965MOL0     O30143   6.109   0.889   5.589  0.4297 -0.3798  0.4611
  965MOL0     C30144   6.238   0.888   5.639  0.2432  0.6176  0.4814
  965MOL0     C30145   6.339   0.850   5.549  0.7162  0.5315  0.0936
  965MOL0     C30146   6.473   0.848   5.587 -0.4313 -0.9825 -0.4341
  965MOL0     C30147   6.503   0.880   5.715 -0.8731 -0.0161 -0.0812
  965MOL0     O30148   6.631   0.879   5.752  0.2461  0.5732  0.6496
  965MOL0     C30149   6.660   0.807   5.876  0.7507  0.4490  0.4156
  965MOL0     C30150   6.792   0.741   5.873 -0.6594  0.3227  0.5803
  965MOL0     C30151   6.913   0.834   5.865 -0.3416  0.0638  0.2546
  965MOL0     C30152   7.038   0.739   5.859 -0.4088 -0.0162 -0.6475
  965MOL0     C30153   7.177   0.816   5.887  0.4113  0.7531  0.2235
  965MOL0     C30154   7.288   0.724   5.835  0.1866  0.1650  0.0574
  965MOL0     C30155   7.419   0.794   5.828  0.5623 -0.1921 -0.3300
  965MOL0     C30156   7.506   0.803   5.960  0.1017 -0.0649  0.5307
  965MOL0     N30157   7.622   0.896   5.927  0.5462  0.7154 -1.0776
  965MOL0     C30158   7.696   0.888   5.813 -0.9470  0.0358 -0.1361
  965MOL0     C30159   7.785   0.992   5.821  0.8940  0.3958 -0.0311
  965MOL0     C30160   7.892   1.027   5.727 -0.7851 -0.5334  0.1353
  965MOL0     C30161   8.010   0.938   5.756 -0.1165 -0.0813 -0.4138
  965MOL0     C30162   8.119   0.955   5.650 -0.2778  0.0267  0.1533
  965MOL0     C30163   8.254   0.925   5.713 -0.5841 -0.2629 -0.9449
  965MOL0     O30164   8.340   0.922   5.611 -0.5507 -0.2900  0.2776
  965MOL0     C30165   8.473   0.912   5.636 -0.2869 -0.7508  0.1179
  965MOL0     C30166   8.512   0.889   5.772 -0.6089  0.2601  0.0098
  965MOL0     C30167   8.646   0.863   5.792 -0.6815  0.7619 -0.3956
  965MOL0     C30168   8.749   0.876   5.700 -0.0518 -1.0811 -0.6878
  965MOL0     C30169   8.893   0.841   5.730 -0.4404 -0.6269 -0.1659
  965MOL0     O30170   8.974   0.860   5.625 -0.7454  0.3570  0.0993
  965MOL0     C30171   9.115   0.833   5.624  0.2220  0.0981  0.2177
  965MOL0     C30172   9.194   0.861   5.734  0.1888  0.0997  0.0332
  965MOL0     C30173   9.324   0.830   5.737 -0.4354  0.0023 -0.8832
  965MOL0     C30174   9.387   0.760   5.632  0.5108 -0.1694 -0.6527
  965MOL0     O30175   9.523   0.734   5.643  0.9007 -0.2610 -0.3112
  965MOL0     C30176   9.594   0.716   5.517 -0.3783 -0.0957  0.0274
  965MOL0     C30177   9.750   0.738   5.545 -1.2418  0.6247 -0.2455
  965MOL0     C30178   9.819   0.612   5.608  0.2618  0.5978 -0.4407
  965MOL0     C30179   9.948   0.573   5.537 -0.6030 -0.2589 -0.8016
  965MOL0     C30180  10.025   0.473   5.626  0.6929  0.2559  0.3886
  965MOL0     C30181  10.148   0.426   5.555 -0.4347  0.7570  0.1352
  965MOL0     C30182  10.226   0.331   5.643  0.5240 -0.4774 -1.2470
  965MOL0     C30183  10.144   0.204   5.681 -0.2778 -1.2831  0.7478
  965MOL0    Cl30184  10.225   0.119   5.811 -0.1838  0.2385  0.2227
  965MOL0     C30185   9.305   0.733   5.519 -0.5328 -0.2618 -0.5159
  965MOL0     C30186   9.165   0.761   5.516 -0.4516  0.5866  0.0977
  965MOL0     O30187   8.929   0.814   5.846  0.3259 -0.6094  0.7161
  965MOL0     C30188   8.708   0.908   5.571  0.0849  0.3304  0.1148
  965MOL0     C30189   8.572   0.930   5.536  0.4028 -0.6431  0.4534
  965MOL0     N30190   7.754   1.057   5.938 -0.5083  0.1062 -0.0018
  965MOL0     N30191   7.661   1.004   5.997 -0.2983 -0.5931  0.5372
  965MOL0     C30192   6.402   0.912   5.812 -0.0245 -0.1799 -0.4251
  965MOL0     C30193   6.269   0.903   5.775  0.5968 -1.0734  0.5535
  965MOL0     C30194   5.923   1.029   5.535  0.7207  0.7333 -0.2275
  965MOL0     C30195   5.881   0.961   5.416  0.4354  0.8823 -0.4549
  965MOL0     C30196   5.746   0.959   5.377 -0.3216  0.0900 -0.1375
  965MOL0     C30197   5.649   1.025   5.454 -0.6883 -0.0325 -0.8235
  965MOL0     O30198   5.518   1.030   5.425  0.6539  0.1317  0.1107
  965MOL0     C30199   5.451   0.969   5.318  0.0662  0.1098 -0.7546
  965MOL0     C30200   5.418   1.086   5.219  0.3498  0.5257  0.0084
  965MOL0     C30201   5.549   1.163   5.172 -0.6918 -0.2507  1.0229
  965MOL0     C30202   5.521   1.267   5.058 -0.7910  0.5676  1.0178
  965MOL0     C30203   5.436   1.218   4.948  0.5728  0.1181  0.1824
  965MOL0     C30204   5.369   1.177   4.856  0.4585 -0.5608 -0.6768
  965MOL0     C30205   5.688   1.095   5.574 -0.5564  0.5176  0.2245
  965MOL0     C30206   5.823   1.101   5.605 -0.1366  0.6001 -0.1271
  965MOL0     C30207   5.857   1.190   5.718  0.7333  0.0030 -0.8874
  965MOL0     H30208   6.324   0.819   5.446  1.8351  0.1903  0.0151
  965MOL0     H30209   6.550   0.822   5.515  0.6204  0.6863  0.0340
  965MOL0     H30210   6.664   0.875   5.962  2.2761  0.7600  0.1190
  965MOL0     H30211   6.578   0.735   5.889 -1.8602  2.2341 -3.9053
  965MOL0     H30212   6.794   0.675   5.786 -0.4696  2.1395 -0.8638
  965MOL0     H30213   6.798   0.679   5.963  1.2291  1.3313  1.2169
  965MOL0     H30214   6.916   0.876   5.967 -2.6898 -0.4279  0.5749
  965MOL0     H30215   6.897   0.916   5.794  1.9366 -1.7113 -2.5105
  965MOL0     H30216   7.027   0.666   5.940 -3.0208  3.1868  2.1362
  965MOL0     H30217   7.047   0.691   5.761  1.6092  1.2315 -1.1305
  965MOL0     H30218   7.185   0.904   5.824  2.3457 -0.4421 -1.3330
  965MOL0     H30219   7.183   0.832   5.995 -2.0785  0.3098  0.4800
  965MOL0     H30220   7.291   0.629   5.888  1.2491 -1.0261 -2.0086
  965MOL0     H30221   7.259   0.697   5.733  0.5427 -0.2018  0.0536
  965MOL0     H30222   7.412   0.895   5.788  0.3078  0.9323  2.3255
  965MOL0     H30223   7.476   0.734   5.757  0.8926  0.4627 -0.6271
  965MOL0     H30224   7.452   0.859   6.037 -4.4289 -0.8816 -1.6914
  965MOL0     H30225   7.529   0.704   6.000  2.0593 -0.5113 -1.4423
  965MOL0     H30226   7.690   0.814   5.733 -0.6940  0.3805 -0.4750
  965MOL0     H30227   7.847   1.022   5.627  0.6602  0.4053 -0.6076
  965MOL0     H30228   7.921   1.132   5.742  0.0542 -0.4417 -1.8246
  965MOL0     H30229   8.052   0.969   5.852 -1.6847  1.1166 -0.0650
  965MOL0     H30230   7.983   0.832   5.759 -1.4523  0.2550  0.8257
  965MOL0     H30231   8.111   1.058   5.612 -1.4849 -0.4388 -0.9383
  965MOL0     H30232   8.091   0.894   5.564 -2.8642  0.6115  0.4940
  965MOL0     H30233   8.255   0.832   5.771 -0.7603  1.1199  1.3955
  965MOL0     H30234   8.272   1.008   5.782 -0.5536 -0.6953 -0.4247
  965MOL0     H30235   8.438   0.883   5.852 -1.4754  2.1324 -0.6052
  965MOL0     H30236   8.670   0.851   5.897 -0.8395 -1.4508 -0.5641
  965MOL0     H30237   9.156   0.908   5.824 -0.7360 -1.4430  0.4807
  965MOL0     H30238   9.386   0.844   5.825  4.1024  0.2039 -3.7972
  965MOL0     H30239   9.578   0.618   5.470  1.0949 -0.9801  1.2804
  965MOL0     H30240   9.565   0.798   5.451 -2.2459  1.1079  2.2285
  965MOL0     H30241   9.798   0.764   5.450 -1.2104  0.5478 -0.2503
  965MOL0     H30242   9.772   0.827   5.605 -2.8228  0.6042  0.4091
  965MOL0     H30243   9.850   0.638   5.709 -1.0481 -0.2520  0.2113
  965MOL0     H30244   9.753   0.525   5.617  0.7293 -0.0625 -2.6979
  965MOL0     H30245  10.009   0.662   5.522 -0.3354  0.0408  1.6554
  965MOL0     H30246   9.932   0.545   5.432 -1.8035  1.3935 -1.1047
  965MOL0     H30247   9.951   0.394   5.640  0.0969  0.3178 -1.8775
  965MOL0     H30248  10.048   0.518   5.722  0.0357  3.4742 -0.8334
  965MOL0     H30249  10.131   0.376   5.459 -0.7211  1.3354 -0.1204
  965MOL0     H30250  10.206   0.517   5.535  0.4625 -0.2704 -2.3609
  965MOL0     H30251  10.249   0.385   5.735 -0.3413  0.5006 -1.5899
  965MOL0     H30252  10.315   0.304   5.585  1.1788 -3.5533  0.9218
  965MOL0     H30253  10.044   0.233   5.715  0.4822  2.0540  0.4802
  965MOL0     H30254  10.143   0.137   5.594 -1.2462  1.5780 -1.6527
  965MOL0     H30255   9.357   0.697   5.431  1.1322  0.7360  0.0253
  965MOL0     H30256   9.099   0.742   5.433 -0.7178 -0.3274  0.4989
  965MOL0     H30257   8.783   0.895   5.494 -0.5641  2.4707 -0.9650
  965MOL0     H30258   8.539   0.968   5.441 -0.0498 -0.3651  0.7172
  965MOL0     H30259   6.428   0.937   5.915  1.4669  1.2691 -1.1057
  965MOL0     H30260   6.187   0.919   5.845 -1.8863 -0.9086 -2.2075
  965MOL0     H30261   5.956   0.917   5.351  1.1076  2.9845 -1.2083
  965MOL0     H30262   5.731   0.899   5.288 -0.9096 -0.9720  0.6452
  965MOL0     H30263   5.352   0.924   5.329  0.2442 -0.0569  0.3366
  965MOL0     H30264   5.508   0.889   5.269  0.3794 -0.9005  1.1484
  965MOL0     H30265   5.349   1.148   5.278  2.2407 -0.1734  3.2375
  965MOL0     H30266   5.358   1.052   5.134  1.4842  0.9300 -0.9818
  965MOL0     H30267   5.614   1.085   5.131 -1.9408 -0.6359 -0.3168
  965MOL0     H30268   5.596   1.208   5.260 -1.4007 -0.0052  1.2771
  965MOL0     H30269   5.489   1.366   5.090  0.0914  1.6039 -1.1313
  965MOL0     H30270   5.617   1.275   5.006 -0.3101 -1.8050  1.4017
  965MOL0     H30271   5.310   1.150   4.770 -0.0226  1.6674 -1.1139
  965MOL0     H30272   5.612   1.143   5.634  0.4960  3.6370 -0.7528
  965MOL0     H30273   5.781   1.266   5.739 -0.3270 -0.9370 -1.2047
  965MOL0     H30274   5.901   1.139   5.805  1.0962 -0.7355 -1.4954
  965MOL0     H30275   5.947   1.243   5.686 -0.9561  3.4153 -0.4907
  966MOL0     O30276   3.548   6.383   8.848  0.1950 -0.2825 -0.1444
  966MOL0     C30277   3.479   6.332   8.766  1.1937  0.0734  0.2422
  966MOL0     O30278   3.509   6.211   8.702  0.8565 -0.0696 -0.2373
  966MOL0     C30279   3.627   6.156   8.702  0.2228 -0.3460 -0.1693
  966MOL0     C30280   3.742   6.214   8.642 -0.3493  0.3930 -0.6832
  966MOL0     C30281   3.866   6.150   8.637 -0.8205  0.2475 -0.0766
  966MOL0     C30282   3.883   6.019   8.685 -0.3274  0.0020  0.1487
  966MOL0     O30283   4.003   5.957   8.698  0.7269  0.3212 -0.1247
  966MOL0     C30284   4.073   5.999   8.812  0.6615 -0.5943  0.0985
  966MOL0     C30285   4.222   5.981   8.782 -0.0425  0.3448  0.4357
  966MOL0     C30286   4.327   6.014   8.897  1.0286  0.0972  0.3964
  966MOL0     C30287   4.314   6.157   8.951  0.4378 -0.4989  0.3832
  966MOL0     C30288   4.442   6.203   9.025 -0.4496 -0.6344  0.3225
  966MOL0     C30289   4.571   6.234   8.938  0.0654 -0.6430  0.3367
  966MOL0     C30290   4.665   6.311   9.033 -0.0727  0.0477  0.1429
  966MOL0     C30291   4.611   6.459   9.068 -0.5924 -0.7325  0.1343
  966MOL0     N30292   4.722   6.554   9.051 -0.0514  0.0172 -1.2831
  966MOL0     C30293   4.836   6.560   9.137 -0.4713 -0.0746  0.9270
  966MOL0     C30294   4.898   6.680   9.097  0.0561  1.0488 -0.1087
  966MOL0     C30295   5.033   6.721   9.150 -0.8169  0.3206  0.2739
  966MOL0     C30296   5.146   6.684   9.039  0.4865 -0.3700 -0.3813
  966MOL0     C30297   5.181   6.534   9.017  0.5666  0.0129 -0.3451
  966MOL0     C30298   5.272   6.528   8.899 -0.1139 -0.0529  1.0661
  966MOL0     O30299   5.394   6.608   8.910  0.2037  0.1843  0.0118
  966MOL0     C30300   5.506   6.549   8.853  0.3797  0.1125 -0.2943
  966MOL0     C30301   5.632   6.555   8.918 -0.0443 -0.1325  0.2890
  966MOL0     C30302   5.757   6.506   8.870  0.7155 -0.1109 -0.2040
  966MOL0     C30303   5.750   6.443   8.748  1.0290  0.1983 -0.5564
  966MOL0     C30304   5.875   6.393   8.695 -0.0781  0.4789  0.6859
  966MOL0     O30305   5.968   6.341   8.776  0.5992  0.2419 -0.6215
  966MOL0     C30306   6.092   6.301   8.728 -0.6056  0.2554 -1.0128
  966MOL0     C30307   6.119   6.181   8.664  1.2896 -0.5458 -0.8698
  966MOL0     C30308   6.242   6.142   8.626 -0.5604  0.0339 -0.7882
  966MOL0     C30309   6.350   6.230   8.639  0.7517  0.2995  0.0576
  966MOL0     O30310   6.476   6.200   8.590 -0.5539 -0.6491 -0.3457
  966MOL0     C30311   6.527   6.080   8.658  0.0652  0.3815  0.9807
  966MOL0     C30312   6.618   6.115   8.779 -0.0252 -0.5458  1.0079
  966MOL0     C30313   6.733   6.208   8.741  0.9258 -0.6148 -0.2108
  966MOL0     C30314   6.814   6.247   8.866  0.4864  0.3449 -0.6857
  966MOL0     C30315   6.858   6.132   8.959 -0.5650 -0.6343  0.6049
  966MOL0     C30316   6.905   6.197   9.097 -0.3437  0.8059  0.3322
  966MOL0     C30317   7.026   6.280   9.081 -0.9106 -0.2907 -0.3708
  966MOL0     C30318   7.148   6.188   9.090  0.0679 -0.8432  0.7291
  966MOL0    Cl30319   7.297   6.290   9.077 -0.2482 -0.0482  0.4045
  966MOL0     C30320   6.330   6.355   8.695 -1.3066  0.4850 -1.0077
  966MOL0     C30321   6.200   6.392   8.739 -1.2966  0.7272 -0.2988
  966MOL0     O30322   5.892   6.389   8.570  0.1307 -0.0150  0.0038
  966MOL0     C30323   5.630   6.441   8.677  0.2387 -0.8126  0.1205
  966MOL0     C30324   5.505   6.496   8.728  1.1958  0.0650 -0.9272
  966MOL0     N30325   4.829   6.735   8.999 -0.0620  0.6077 -0.8825
  966MOL0     N30326   4.724   6.667   8.977  0.5346 -0.3036  0.1261
  966MOL0     C30327   3.764   5.953   8.730  0.2229 -0.1471  0.1097
  966MOL0     C30328   3.638   6.025   8.743 -0.9156 -0.5150 -0.0550
  966MOL0     C30329   3.344   6.391   8.763 -0.8074  0.2882  0.7334
  966MOL0     C30330   3.320   6.526   8.789 -0.2706  0.0982  0.6249
  966MOL0     C30331   3.196   6.585   8.777 -0.0339  0.2150 -0.3908
  966MOL0     C30332   3.092   6.512   8.741  0.0557 -0.0187 -0.4708
  966MOL0     O30333   2.969   6.575   8.724  0.9905  0.3102  0.7733
  966MOL0     C30334   2.854   6.497   8.676  0.3154  0.0490  0.1673
  966MOL0     C30335   2.719   6.566   8.669 -0.0566 -0.6845 -0.5915
  966MOL0     C30336   2.711   6.706   8.609 -0.9667  0.2182  0.8865
  966MOL0     C30337   2.570   6.767   8.628 -0.3504 -0.0002 -0.3167
  966MOL0     C30338   2.552   6.905   8.583 -1.2722  0.4923  0.0141
  966MOL0     C30339   2.544   7.026   8.565 -0.2939  0.7471 -0.1854
  966MOL0     C30340   3.108   6.374   8.722 -0.3797  0.0549  0.3942
  966MOL0     C30341   3.235   6.312   8.744  0.7239 -0.4775  0.7430
  966MOL0     C30342   3.234   6.159   8.731  0.1437 -0.5035  0.7012
  966MOL0     H30343   3.736   6.322   8.629  1.7778  0.4200 -1.8582
  966MOL0     H30344   3.955   6.205   8.607 -2.3887  2.0629 -1.6460
  966MOL0     H30345   4.054   6.105   8.834  1.6003 -0.1539 -1.1214
  966MOL0     H30346   4.041   5.933   8.893  2.6481  0.5738  1.9542
  966MOL0     H30347   4.250   6.045   8.697  0.6330  1.2497  1.3082
  966MOL0     H30348   4.241   5.876   8.759 -0.4465  0.0320  1.4920
  966MOL0     H30349   4.429   5.999   8.861  0.9750  0.8215 -0.0895
  966MOL0     H30350   4.297   5.948   8.979  2.2396  0.1246  0.8743
  966MOL0     H30351   4.296   6.226   8.868  0.2968  1.0322  1.6393
  966MOL0     H30352   4.230   6.165   9.021 -2.2215 -0.2464 -2.6248
  966MOL0     H30353   4.424   6.293   9.085  1.5897 -0.8186  1.2961
  966MOL0     H30354   4.458   6.135   9.109 -2.2228 -1.8914 -0.2994
  966MOL0     H30355   4.607   6.142   8.893 -0.0572  0.5704 -2.4160
  966MOL0     H30356   4.544   6.301   8.856 -0.1482  0.1583  1.0472
  966MOL0     H30357   4.759   6.310   8.978 -0.5824  0.3818 -0.7663
  966MOL0     H30358   4.678   6.260   9.129 -0.4920  0.1588  0.2646
  966MOL0     H30359   4.527   6.475   9.001 -0.4858 -1.7371 -0.2556
  966MOL0     H30360   4.564   6.464   9.167 -1.4145 -1.3990 -0.2129
  966MOL0     H30361   4.869   6.487   9.211  4.1808  0.9146  0.1719
  966MOL0     H30362   5.034   6.831   9.147 -1.1487  0.2998 -0.6965
  966MOL0     H30363   5.053   6.681   9.250 -1.3680 -4.2061 -1.1947
  966MOL0     H30364   5.100   6.717   8.946  0.1438 -0.1813 -0.1455
  966MOL0     H30365   5.239   6.742   9.043  0.6841 -0.6126  4.3254
  966MOL0     H30366   5.100   6.462   8.997 -0.3174  0.8540  0.1054
  966MOL0     H30367   5.234   6.510   9.109 -1.2540 -2.1619  0.2449
  966MOL0     H30368   5.223   6.560   8.807 -0.8151 -0.3068  1.3442
  966MOL0     H30369   5.313   6.426   8.898  3.5855  1.2293  2.5806
  966MOL0     H30370   5.647   6.619   9.004  3.5079 -0.4378  0.0482
  966MOL0     H30371   5.851   6.520   8.922  1.6325 -2.6756 -1.0492
  966MOL0     H30372   6.029   6.120   8.663  0.1398  0.6852  3.6670
  966MOL0     H30373   6.258   6.042   8.589 -4.4410 -0.2190 -2.3421
  966MOL0     H30374   6.451   6.006   8.684  2.4432 -2.1854  1.0714
  966MOL0     H30375   6.580   6.021   8.583 -2.5010  1.2993 -1.7549
  966MOL0     H30376   6.564   6.180   8.848  3.1507  2.5808  0.8519
  966MOL0     H30377   6.651   6.019   8.820 -0.2996 -1.0070  0.1810
  966MOL0     H30378   6.798   6.142   8.683  1.8177  0.6209 -0.6405
  966MOL0     H30379   6.700   6.300   8.693 -2.1349 -0.8289  1.2391
  966MOL0     H30380   6.749   6.308   8.930  0.0545 -0.1099 -0.6911
  966MOL0     H30381   6.891   6.317   8.833 -0.3115  0.6304 -1.9998
  966MOL0     H30382   6.929   6.061   8.916  0.7622  0.1759  1.3921
  966MOL0     H30383   6.777   6.068   8.995 -0.1802 -0.3765  1.9827
  966MOL0     H30384   6.819   6.250   9.139 -0.0900  0.7755  0.8950
  966MOL0     H30385   6.929   6.113   9.163  1.7381 -0.0600 -1.3914
  966MOL0     H30386   7.021   6.339   9.173 -3.6576 -2.5106  1.0634
  966MOL0     H30387   7.027   6.347   8.995 -0.6579  1.0498  0.6345
  966MOL0     H30388   7.143   6.151   9.193 -2.4059  3.9998  2.6890
  966MOL0     H30389   7.149   6.119   9.006  0.3080 -0.1501  0.1466
  966MOL0     H30390   6.417   6.420   8.696 -1.0437  0.1345 -1.1230
  966MOL0     H30391   6.177   6.488   8.783  0.4354  0.3774  1.4924
  966MOL0     H30392   5.624   6.404   8.575  0.2594  0.8367 -0.5112
  966MOL0     H30393   5.407   6.490   8.681 -0.5696  2.5290  2.0666
  966MOL0     H30394   3.770   5.849   8.760  1.7870 -0.2298 -0.3693
  966MOL0     H30395   3.550   5.971   8.777 -2.6552  0.7797 -2.2036
  966MOL0     H30396   3.405   6.589   8.811 -0.8975  1.8970 -1.6865
  966MOL0     H30397   3.196   6.693   8.785 -2.5271  0.6088 -3.5783
  966MOL0     H30398   2.847   6.404   8.732  4.7955 -0.6732 -0.0738
  966MOL0     H30399   2.876   6.454   8.578  2.1541 -2.9116  1.7471
  966MOL0     H30400   2.685   6.574   8.773  0.5063  1.7808 -0.5500
  966MOL0     H30401   2.654   6.505   8.606  0.6036 -2.6112  0.5012
  966MOL0     H30402   2.750   6.704   8.507  1.4128 -0.9802  1.7616
  966MOL0     H30403   2.784   6.767   8.662  0.7124 -0.6310 -0.3695
  966MOL0     H30404   2.502   6.703   8.572  1.7311 -0.6961 -2.1922
  966MOL0     H30405   2.541   6.767   8.734  0.6451 -2.6169  0.0253
  966MOL0     H30406   2.541   7.133   8.559  0.0953  0.6987 -1.6087
  966MOL0     H30407   3.028   6.309   8.689  1.8314 -1.6911 -1.9813
  966MOL0     H30408   3.263   6.139   8.628  0.9481  2.9313  0.1372
  966MOL0     H30409   3.306   6.110   8.798  0.8172 -1.0581 -0.4053
  966MOL0     H30410   3.137   6.117   8.759  0.0616  0.8400  2.6575
  967MOL0     O30411   4.169   8.147   1.541 -0.1727 -0.2933 -0.2301
  967MOL0     C30412   4.158   8.268   1.568 -0.1046 -1.4743  0.1224
  967MOL0     O30413   4.261   8.345   1.616  0.3402 -0.1095  0.0486
  967MOL0     C30414   4.386   8.283   1.616 -1.1318 -0.2515 -0.4161
  967MOL0     C30415   4.455   8.270   1.728 -1.2720  0.6896 -0.9175
  967MOL0     C30416   4.585   8.217   1.725 -0.3221 -1.3682 -0.1288
  967MOL0     C30417   4.646   8.173   1.610 -0.6324  0.1549  0.5046
  967MOL0     O30418   4.770   8.119   1.616  0.0755  0.6708 -0.0641
  967MOL0     C30419   4.837   8.061   1.499 -0.2603 -0.4124  0.1472
  967MOL0     C30420   4.977   8.015   1.554  0.0505 -0.1251  0.4478
  967MOL0     C30421   5.065   7.969   1.442 -0.2960 -0.0383  0.6836
  967MOL0     C30422   5.197   7.919   1.492 -0.7399 -0.1632 -0.3368
  967MOL0     C30423   5.292   7.889   1.373 -0.1759  0.8524  0.5716
  967MOL0     C30424   5.418   7.815   1.422  0.2673  0.3212  0.5743
  967MOL0     C30425   5.488   7.757   1.302 -0.6580 -0.0230 -0.5458
  967MOL0     C30426   5.635   7.717   1.341  0.1712 -0.4087 -0.2965
  967MOL0     N30427   5.651   7.633   1.455  0.4004 -0.1185  0.3666
  967MOL0     C30428   5.577   7.526   1.506 -0.3514  0.0806 -0.5759
  967MOL0     C30429   5.649   7.488   1.620  0.4991 -0.0015  0.4420
  967MOL0     C30430   5.603   7.384   1.720 -0.3592  0.2039 -1.1836
  967MOL0     C30431   5.592   7.440   1.858 -0.1451  0.2925  0.5882
  967MOL0     C30432   5.487   7.557   1.870  0.4878 -0.2670 -0.2230
  967MOL0     C30433   5.353   7.522   1.820  0.1202  1.0504 -0.1072
  967MOL0     O30434   5.326   7.539   1.680  0.5943  0.0400  0.0806
  967MOL0     C30435   5.190   7.535   1.641 -0.1025 -0.0684 -0.6710
  967MOL0     C30436   5.082   7.517   1.728  0.7693 -0.5728  0.2201
  967MOL0     C30437   4.954   7.472   1.687  0.7608 -0.4367  1.1169
  967MOL0     C30438   4.923   7.476   1.544 -0.5116  0.5811  0.0438
  967MOL0     C30439   4.787   7.443   1.503  0.3199 -0.8609  0.7514
  967MOL0     O30440   4.758   7.452   1.367 -0.3496 -0.0065 -0.2786
  967MOL0     C30441   4.635   7.421   1.313  0.6174  0.0670  0.0057
  967MOL0     C30442   4.507   7.443   1.377 -0.0637  0.9722  0.0885
  967MOL0     C30443   4.389   7.437   1.309  0.1168  0.8636  0.0512
  967MOL0     C30444   4.397   7.377   1.182  0.0313  0.4114  0.3857
  967MOL0     O30445   4.275   7.362   1.114  0.4699  0.1067  0.5003
  967MOL0     C30446   4.155   7.314   1.183  0.3751  0.7421 -0.1708
  967MOL0     C30447   4.104   7.182   1.120  0.0892 -0.3017 -0.2593
  967MOL0     C30448   4.192   7.066   1.134  0.8359  0.4507  0.6065
  967MOL0     C30449   4.249   7.051   1.280  0.8323  0.2259  0.1716
  967MOL0     C30450   4.323   6.922   1.310 -0.4014 -0.7258  0.2722
  967MOL0     C30451   4.455   6.899   1.230  0.7177  0.5058 -0.2515
  967MOL0     C30452   4.576   6.961   1.305 -0.5444  0.7297 -0.9626
  967MOL0     C30453   4.709   6.956   1.222  0.5864  0.0523  0.1510
  967MOL0    Cl30454   4.840   6.985   1.331 -0.2407  0.4057  0.0926
  967MOL0     C30455   4.517   7.359   1.115  0.3545  0.4479  0.0757
  967MOL0     C30456   4.634   7.380   1.177  0.0201  0.2961  0.1355
  967MOL0     O30457   4.709   7.403   1.592 -0.6650  0.3079  0.0162
  967MOL0     C30458   5.031   7.492   1.455 -0.5186 -0.0119  0.5506
  967MOL0     C30459   5.160   7.535   1.506  0.0247  0.2648  0.0237
  967MOL0     N30460   5.757   7.573   1.644  0.0574  0.2631 -0.2407
  967MOL0     N30461   5.759   7.640   1.533 -0.7729 -0.0274  0.4675
  967MOL0     C30462   4.578   8.190   1.489  0.5168  0.3512  0.8601
  967MOL0     C30463   4.452   8.247   1.494  0.7371 -0.2321  0.6386
  967MOL0     C30464   4.023   8.339   1.564 -1.1807  1.1991 -0.0587
  967MOL0     C30465   3.916   8.246   1.548  0.3430  0.1842 -0.6211
  967MOL0     C30466   3.789   8.294   1.563 -0.1221  0.6281  0.4247
  967MOL0     C30467   3.760   8.426   1.587  0.8774  0.6857 -0.4188
  967MOL0     O30468   3.633   8.477   1.619  0.0017 -0.4164  0.9926
  967MOL0     C30469   3.518   8.394   1.626 -0.1004 -0.0254 -0.3359
  967MOL0     C30470   3.504   8.330   1.764 -0.8334  0.2174  0.6275
  967MOL0     C30471   3.412   8.207   1.751  0.5129 -0.0594 -0.1269
  967MOL0     C30472   3.393   8.117   1.876  0.2188 -1.0009 -1.1438
  967MOL0     C30473   3.285   8.020   1.867 -0.1081 -0.0443 -0.6959
  967MOL0     C30474   3.197   7.939   1.850  0.2320 -0.7507 -0.0687
  967MOL0     C30475   3.865   8.519   1.597 -0.4723  0.4797 -0.0751
  967MOL0     C30476   3.999   8.475   1.575 -0.2816  0.0857  0.3636
  967MOL0     C30477   4.111   8.576   1.586 -0.2388  0.5877 -0.0504
  967MOL0     H30478   4.420   8.309   1.824  0.0743  1.1178 -0.5746
  967MOL0     H30479   4.637   8.219   1.820 -0.5370  3.2875  0.1361
  967MOL0     H30480   4.784   7.983   1.444 -1.5211  1.2500 -1.1085
  967MOL0     H30481   4.854   8.140   1.425  1.5161 -0.1395  0.7944
  967MOL0     H30482   4.958   7.927   1.616 -3.6401  0.1003 -0.0988
  967MOL0     H30483   5.025   8.097   1.608 -0.2812 -0.9294  2.0303
  967MOL0     H30484   5.090   8.051   1.374  0.7060 -0.3182  0.6984
  967MOL0     H30485   5.016   7.890   1.385 -0.0972  0.7269 -0.5796
  967MOL0     H30486   5.246   7.998   1.549  3.4318 -2.7323  0.0674
  967MOL0     H30487   5.189   7.826   1.549 -3.1025  0.1721  0.0057
  967MOL0     H30488   5.237   7.832   1.298 -1.1743 -1.6577  3.0370
  967MOL0     H30489   5.311   7.986   1.328  1.8015  0.1291 -0.2811
  967MOL0     H30490   5.481   7.884   1.480  1.7701  0.8077 -1.5121
  967MOL0     H30491   5.393   7.736   1.493 -0.0049 -0.6710 -0.6103
  967MOL0     H30492   5.485   7.827   1.218 -3.7707  1.7804  0.9197
  967MOL0     H30493   5.441   7.662   1.276  1.1359 -0.3930 -2.8288
  967MOL0     H30494   5.684   7.657   1.264  1.1540 -0.4306  0.3320
  967MOL0     H30495   5.701   7.803   1.357  2.3603 -1.9094 -0.7716
  967MOL0     H30496   5.486   7.477   1.472 -0.8337 -0.3050  1.1629
  967MOL0     H30497   5.505   7.343   1.697 -0.7894  0.3048  0.3763
  967MOL0     H30498   5.676   7.303   1.712  1.0138  0.8731  2.5813
  967MOL0     H30499   5.551   7.361   1.922 -0.1586  0.8955  1.3362
  967MOL0     H30500   5.692   7.468   1.892  0.8693 -0.7494 -1.3377
  967MOL0     H30501   5.527   7.640   1.810  0.6320 -0.4313 -0.3553
  967MOL0     H30502   5.480   7.595   1.972  1.2092  1.9567 -0.9318
  967MOL0     H30503   5.293   7.598   1.871  0.7485  1.9231 -0.6252
  967MOL0     H30504   5.326   7.420   1.848 -1.2992  0.8702 -1.9578
  967MOL0     H30505   5.107   7.532   1.832 -0.6469  0.8542  0.3934
  967MOL0     H30506   4.880   7.435   1.756 -0.7617  0.8844  0.2605
  967MOL0     H30507   4.506   7.469   1.482  1.8554 -3.4009  1.4124
  967MOL0     H30508   4.292   7.460   1.352 -0.4826  0.6807 -1.1605
  967MOL0     H30509   4.166   7.290   1.289 -1.2306  1.0548  0.0916
  967MOL0     H30510   4.083   7.396   1.178 -0.3283  0.1996  0.8088
  967MOL0     H30511   4.001   7.160   1.148  0.0769  0.1095  0.0189
  967MOL0     H30512   4.082   7.203   1.015 -2.2528  1.1281  0.4371
  967MOL0     H30513   4.136   6.980   1.096  0.9598  0.6870 -0.1359
  967MOL0     H30514   4.271   7.088   1.061  2.4388 -0.5072  1.9781
  967MOL0     H30515   4.162   7.053   1.347  0.4264  1.1038 -0.3701
  967MOL0     H30516   4.314   7.138   1.296 -1.8035  2.6463 -1.3382
  967MOL0     H30517   4.252   6.839   1.294  1.3677 -2.3960  0.7236
  967MOL0     H30518   4.342   6.907   1.416 -0.9371 -2.1201  0.1969
  967MOL0     H30519   4.462   6.791   1.218 -0.5081  0.4018 -0.1678
  967MOL0     H30520   4.446   6.937   1.127 -1.8210 -2.4570 -1.2950
  967MOL0     H30521   4.596   6.907   1.399  0.4533  1.9653 -0.4217
  967MOL0     H30522   4.549   7.065   1.325 -1.9501  0.1432  0.4057
  967MOL0     H30523   4.719   6.862   1.167 -1.8692 -0.6636  0.7775
  967MOL0     H30524   4.710   7.042   1.155 -0.4542 -0.3588 -0.4236
  967MOL0     H30525   4.510   7.328   1.011 -0.9607  0.9892 -0.0181
  967MOL0     H30526   4.732   7.376   1.130  0.0505  4.0200 -0.4008
  967MOL0     H30527   5.027   7.473   1.349  2.5954  1.0419  0.1301
  967MOL0     H30528   5.244   7.548   1.438 -2.2645  2.1692 -2.6645
  967MOL0     H30529   4.612   8.168   1.389 -1.7258  0.7822 -0.0626
  967MOL0     H30530   4.403   8.275   1.401  0.8941 -0.0421  0.6124
  967MOL0     H30531   3.938   8.147   1.510 -0.7923 -0.0983 -0.5970
  967MOL0     H30532   3.715   8.215   1.552  2.3120 -1.4722 -3.2905
  967MOL0     H30533   3.524   8.316   1.550  0.2677 -0.4335  0.1010
  967MOL0     H30534   3.427   8.454   1.623 -1.5007 -1.9828  0.2747
  967MOL0     H30535   3.451   8.404   1.826  0.1716  0.4740  1.1930
  967MOL0     H30536   3.603   8.308   1.803 -1.1719 -1.1889  0.7492
  967MOL0     H30537   3.472   8.145   1.683  0.6236  1.4679 -1.4759
  967MOL0     H30538   3.319   8.225   1.697  2.6283 -0.9463 -4.5839
  967MOL0     H30539   3.491   8.070   1.893  1.2850  1.4074 -0.1396
  967MOL0     H30540   3.380   8.188   1.958  1.0301  0.0126 -1.8590
  967MOL0     H30541   3.116   7.882   1.809  0.7422 -0.5414 -1.4293
  967MOL0     H30542   3.845   8.620   1.631  0.5917  0.0833  1.8963
  967MOL0     H30543   4.180   8.567   1.502 -2.5257  0.2524 -2.0159
  967MOL0     H30544   4.066   8.675   1.598  3.1403  2.4264 -1.3002
  967MOL0     H30545   4.171   8.558   1.675  0.1158 -1.4039 -0.6364
  968MOL0     O30546   5.411   5.773   7.641 -0.1804  0.1040 -0.0933
  968MOL0     C30547   5.362   5.881   7.670 -0.2457  0.6026  0.3850
  968MOL0     O30548   5.421   5.977   7.741  0.3874 -0.0620 -1.1544
  968MOL0     C30549   5.563   5.964   7.766  0.3825  0.1572  0.0460
  968MOL0     C30550   5.651   6.048   7.695  0.0537 -0.4544 -0.3114
  968MOL0     C30551   5.791   6.045   7.715 -0.6693 -0.0298 -0.9954
  968MOL0     C30552   5.843   5.961   7.815  0.3576 -0.7117  0.4117
  968MOL0     O30553   5.978   5.929   7.829 -0.3539 -0.2540  0.0443
  968MOL0     C30554   6.072   5.969   7.727  0.5674 -0.0026  0.4808
  968MOL0     C30555   6.218   5.953   7.787 -0.0916 -0.2661 -0.3678
  968MOL0     C30556   6.329   5.993   7.682 -0.4961  0.1337 -0.7160
  968MOL0     C30557   6.325   5.901   7.563  0.5786  0.1040  0.7859
  968MOL0     C30558   6.470   5.884   7.512 -0.6237  0.3004  0.1105
  968MOL0     C30559   6.477   5.805   7.378 -0.0617 -0.3036 -0.4749
  968MOL0     C30560   6.616   5.821   7.320 -0.4644 -0.0815  0.2603
  968MOL0     C30561   6.624   5.772   7.178 -0.1532 -0.1176  0.3246
  968MOL0     N30562   6.742   5.833   7.111  0.1728  0.0041 -0.0198
  968MOL0     C30563   6.742   5.952   7.049  0.3596  0.1667  0.0660
  968MOL0     C30564   6.865   5.975   6.991  0.2047 -0.0140  0.4611
  968MOL0     C30565   6.912   6.101   6.921  1.0760  0.0840  0.3176
  968MOL0     C30566   7.055   6.138   6.964 -0.6699 -0.9862  0.2847
  968MOL0     C30567   7.091   6.273   6.908 -0.1725 -0.6680 -0.4870
  968MOL0     C30568   7.239   6.311   6.912  0.4629 -0.4409 -0.4354
  968MOL0     O30569   7.256   6.367   7.044 -0.4078  0.3997 -0.8492
  968MOL0     C30570   7.359   6.450   7.073  0.0290 -0.5405 -0.2861
  968MOL0     C30571   7.466   6.489   6.988 -0.4507 -0.3353  0.3876
  968MOL0     C30572   7.564   6.591   7.030  0.1853  0.3495  0.5332
  968MOL0     C30573   7.552   6.644   7.151 -0.0478  0.1634 -0.5687
  968MOL0     C30574   7.649   6.738   7.206 -0.0871 -0.0875  0.2331
  968MOL0     O30575   7.770   6.748   7.141  0.0489 -0.0807  0.0262
  968MOL0     C30576   7.854   6.859   7.139  0.8641 -0.6650 -0.1930
  968MOL0     C30577   7.799   6.988   7.144 -0.2225  0.0711 -0.4116
  968MOL0     C30578   7.885   7.092   7.138  0.0326  0.3572 -0.4451
  968MOL0     C30579   8.019   7.077   7.114  0.2884  0.2977 -0.1292
  968MOL0     O30580   8.096   7.185   7.090  0.3722  0.3067  0.2924
  968MOL0     C30581   8.065   7.290   6.998 -0.2032 -0.2264  0.4429
  968MOL0     C30582   8.194   7.372   6.962  0.0385  0.3865  0.0836
  968MOL0     C30583   8.247   7.467   7.066  0.8482 -0.7326  0.1530
  968MOL0     C30584   8.384   7.517   7.030  0.5435 -0.8310  0.1894
  968MOL0     C30585   8.444   7.616   7.136  0.2214 -0.7298  0.0558
  968MOL0     C30586   8.508   7.544   7.258 -0.2638 -0.6704  0.3202
  968MOL0     C30587   8.593   7.643   7.347  0.2611  0.5189  0.0012
  968MOL0     C30588   8.613   7.579   7.486  0.9093 -0.5027  0.7864
  968MOL0    Cl30589   8.462   7.514   7.573 -0.1494 -0.2177  0.0024
  968MOL0     C30590   8.070   6.948   7.108 -0.6963 -0.0519 -0.0887
  968MOL0     C30591   7.988   6.841   7.120  0.2016 -0.2316  0.0882
  968MOL0     O30592   7.622   6.805   7.308  0.4689  0.0585  0.2184
  968MOL0     C30593   7.449   6.607   7.240 -0.3340  0.5260  0.9549
  968MOL0     C30594   7.354   6.514   7.197 -0.9904  0.1176  0.3733
  968MOL0     N30595   6.946   5.864   7.014 -0.3345  0.5007 -0.7352
  968MOL0     N30596   6.867   5.779   7.083  0.1780  0.8653 -0.1500
  968MOL0     C30597   5.753   5.881   7.887  0.0841  0.0544 -0.4955
  968MOL0     C30598   5.620   5.878   7.862  0.7976 -0.0125 -0.3004
  968MOL0     C30599   5.216   5.911   7.632  0.7484  0.7534  0.0156
  968MOL0     C30600   5.141   5.804   7.575  0.2424  0.4267  0.1781
  968MOL0     C30601   5.007   5.812   7.539 -0.7980  0.6705  0.3524
  968MOL0     C30602   4.941   5.936   7.561 -0.7583  0.5236  0.2198
  968MOL0     O30603   4.806   5.962   7.541 -0.5422 -0.3041  0.4602
  968MOL0     C30604   4.710   5.851   7.571 -0.2877  0.4763  0.2010
  968MOL0     C30605   4.701   5.814   7.722  0.8759  0.0507 -1.0067
  968MOL0     C30606   4.636   5.920   7.812 -0.2560  0.0097  0.8356
  968MOL0     C30607   4.485   5.892   7.845  0.2669  0.0350 -0.3343
  968MOL0     C30608   4.395   5.924   7.735 -0.7046  0.0882 -0.0780
  968MOL0     C30609   4.313   5.953   7.644  0.3605  0.4606 -1.1287
  968MOL0     C30610   5.005   6.039   7.629 -0.0038  0.6589  0.5297
  968MOL0     C30611   5.146   6.036   7.650  0.7347 -0.0524 -0.3234
  968MOL0     C30612   5.208   6.167   7.698  0.3260  0.6731 -0.4906
  968MOL0     H30613   5.599   6.110   7.623  0.7999 -0.3296 -0.7589
  968MOL0     H30614   5.858   6.105   7.655  2.2125 -1.3487  0.6690
  968MOL0     H30615   6.064   5.909   7.636  3.3314 -2.0395  1.4561
  968MOL0     H30616   6.065   6.077   7.709 -3.7412  0.2356  2.2602
  968MOL0     H30617   6.225   5.853   7.831  2.2727 -0.2630 -0.5662
  968MOL0     H30618   6.224   6.032   7.863 -0.5893  0.5186 -1.1250
  968MOL0     H30619   6.423   5.988   7.738  0.0545  1.6991 -1.4272
  968MOL0     H30620   6.321   6.093   7.637  4.2911 -0.5462 -3.8910
  968MOL0     H30621   6.276   5.807   7.591 -0.4490  0.4497  0.2078
  968MOL0     H30622   6.262   5.948   7.487  1.2377 -0.4584 -0.1295
  968MOL0     H30623   6.528   5.977   7.507 -0.7926  0.5664  2.1927
  968MOL0     H30624   6.525   5.833   7.592  1.5692 -1.4927 -2.3387
  968MOL0     H30625   6.451   5.699   7.385  1.8518 -0.8749 -1.4634
  968MOL0     H30626   6.395   5.849   7.321 -1.1801 -0.0302  1.2447
  968MOL0     H30627   6.692   5.781   7.389  0.3057  2.0531  0.7362
  968MOL0     H30628   6.638   5.928   7.320 -0.1392 -0.1176 -1.7830
  968MOL0     H30629   6.629   5.663   7.186  1.9654  0.0543  2.2891
  968MOL0     H30630   6.528   5.799   7.132  1.1861  1.0141 -1.9143
  968MOL0     H30631   6.657   6.019   7.035 -0.6577 -1.3530 -1.5337
  968MOL0     H30632   6.905   6.077   6.815 -0.4083 -0.9428  0.6151
  968MOL0     H30633   6.833   6.170   6.950  2.3916  1.4200  0.8971
  968MOL0     H30634   7.074   6.128   7.071  1.0653  2.1204  0.3977
  968MOL0     H30635   7.128   6.073   6.916  0.0276  1.1324 -1.7067
  968MOL0     H30636   7.027   6.351   6.950  0.8849  0.2080 -0.4591
  968MOL0     H30637   7.065   6.275   6.801 -0.7810 -1.1775 -0.3499
  968MOL0     H30638   7.258   6.383   6.832  0.9758  1.1487  1.0473
  968MOL0     H30639   7.301   6.222   6.904  1.9369  0.3062  1.5786
  968MOL0     H30640   7.477   6.432   6.896  0.0325 -2.7684  1.8416
  968MOL0     H30641   7.650   6.609   6.966  1.9266  0.0677  2.6616
  968MOL0     H30642   7.692   6.999   7.163 -0.1014  1.2532 -0.3336
  968MOL0     H30643   7.847   7.193   7.144  1.5880  0.8691  2.1916
  968MOL0     H30644   8.029   7.252   6.902 -1.0608  5.0372 -1.6307
  968MOL0     H30645   7.990   7.361   7.032  2.3621  3.5798 -1.1896
  968MOL0     H30646   8.273   7.300   6.937  0.0472 -0.1733  1.6088
  968MOL0     H30647   8.173   7.430   6.872 -2.3039  1.2943  1.1260
  968MOL0     H30648   8.178   7.551   7.070 -0.2545 -1.6604  1.5674
  968MOL0     H30649   8.238   7.420   7.164 -0.6559  1.0443  0.9203
  968MOL0     H30650   8.368   7.574   6.938 -1.3615  2.3973  2.3302
  968MOL0     H30651   8.451   7.432   7.014 -1.4466 -2.7744  1.5955
  968MOL0     H30652   8.358   7.672   7.174 -0.4159 -1.2220 -0.6385
  968MOL0     H30653   8.510   7.684   7.083 -1.5161  0.9848  0.0030
  968MOL0     H30654   8.438   7.502   7.331  1.1659  0.6093  2.5482
  968MOL0     H30655   8.576   7.467   7.221 -2.9724 -3.8089  1.3801
  968MOL0     H30656   8.539   7.738   7.343  0.1031  0.5436 -5.3376
  968MOL0     H30657   8.690   7.658   7.298 -0.7049 -0.9506 -2.5839
  968MOL0     H30658   8.695   7.507   7.473  0.9944  0.1538 -4.2867
  968MOL0     H30659   8.652   7.666   7.540 -5.0908  2.0032  1.8308
  968MOL0     H30660   8.173   6.944   7.074 -0.2577  5.0100 -0.0122
  968MOL0     H30661   8.021   6.738   7.129  1.5947  0.3422  2.1469
  968MOL0     H30662   7.438   6.636   7.344 -0.8197  0.5953  0.8851
  968MOL0     H30663   7.272   6.503   7.267  0.1376  1.9423  2.0931
  968MOL0     H30664   5.805   5.821   7.960 -1.2190 -0.2922  0.1759
  968MOL0     H30665   5.550   5.812   7.913  0.1581  1.6686  1.0585
  968MOL0     H30666   5.180   5.703   7.589 -0.0705 -0.1425 -2.6157
  968MOL0     H30667   4.956   5.722   7.506 -1.5665  0.8982  0.9024
  968MOL0     H30668   4.739   5.758   7.522 -0.7442  2.1062 -3.4792
  968MOL0     H30669   4.611   5.872   7.529 -1.3917  0.6898  2.6780
  968MOL0     H30670   4.805   5.800   7.753  1.0641  1.0893 -1.1067
  968MOL0     H30671   4.646   5.720   7.729  0.1743  0.5516  0.8409
  968MOL0     H30672   4.657   6.019   7.771  0.3230  0.1946  1.5623
  968MOL0     H30673   4.699   5.923   7.901  0.3762  0.0211  0.3957
  968MOL0     H30674   4.470   5.787   7.871  1.3372 -0.4280 -1.4530
  968MOL0     H30675   4.455   5.939   7.939 -1.1869 -1.6510  0.0778
  968MOL0     H30676   4.238   5.984   7.574  0.2544 -0.1205 -1.2773
  968MOL0     H30677   4.943   6.123   7.660 -0.7079  0.3950 -0.1459
  968MOL0     H30678   5.130   6.242   7.682  0.3937  0.6857 -0.7546
  968MOL0     H30679   5.230   6.156   7.805 -2.3458 -0.5319  0.0058
  968MOL0     H30680   5.300   6.196   7.647 -0.2026  1.6347 -0.9195
  969MOL0     O30681  10.151   5.782   6.738 -0.3956 -0.4049  0.1239
  969MOL0     C30682  10.130   5.704   6.835  0.5354  0.5230 -0.3634
  969MOL0     O30683  10.213   5.606   6.888  0.1997  0.5671  0.1163
  969MOL0     C30684  10.343   5.601   6.859  0.0997 -0.5040  0.0316
  969MOL0     C30685  10.421   5.709   6.896  0.5632 -0.3373 -0.3207
  969MOL0     C30686  10.560   5.718   6.881 -0.3315  0.3953  1.0803
  969MOL0     C30687  10.625   5.603   6.825  0.2994 -0.4426  0.1118
  969MOL0     O30688  10.764   5.603   6.799  0.1434  0.2726  0.5634
  969MOL0     C30689  10.861   5.655   6.888 -0.4766  0.2509 -0.3425
  969MOL0     C30690  11.007   5.618   6.840  0.5981 -0.6944 -0.3836
  969MOL0     C30691  11.033   5.472   6.851 -0.1985  0.7095 -1.1758
  969MOL0     C30692  11.178   5.439   6.809 -0.0361 -0.3062 -0.2412
  969MOL0     C30693  11.193   5.285   6.812  0.2893  0.0272  0.1572
  969MOL0     C30694  11.336   5.247   6.778 -0.6085 -0.3535  0.0058
  969MOL0     C30695  11.357   5.093   6.800 -0.4347 -0.9539  0.0284
  969MOL0     C30696  11.485   5.049   6.866  0.1305 -0.2607 -0.5076
  969MOL0     N30697  11.596   5.055   6.767 -0.7780 -0.3392 -0.5290
  969MOL0     C30698  11.671   5.168   6.746 -0.0642  0.0271  0.5991
  969MOL0     C30699  11.761   5.130   6.653  0.9119 -0.7051  0.5849
  969MOL0     C30700  11.869   5.218   6.604  0.5383 -0.1505  0.6667
  969MOL0     C30701  11.954   5.277   6.718 -0.6360  0.4329 -1.1252
  969MOL0     C30702  12.064   5.369   6.664 -0.4692 -0.6590 -0.4206
  969MOL0     C30703  12.175   5.292   6.585  0.8065 -0.1001  0.0646
  969MOL0     O30704  12.267   5.239   6.677  0.2593  1.1012  0.5273
  969MOL0     C30705  12.402   5.281   6.688  0.4908  1.4163 -0.8660
  969MOL0     C30706  12.471   5.326   6.581 -0.7500  0.5677  0.1266
  969MOL0     C30707  12.612   5.341   6.592 -0.6201 -0.0265 -0.0383
  969MOL0     C30708  12.678   5.330   6.710  0.2518  0.2704 -0.0286
  969MOL0     C30709  12.825   5.361   6.720  0.2995  0.6198 -0.0644
  969MOL0     O30710  12.897   5.359   6.601 -0.7185 -0.1647  0.0401
  969MOL0     C30711  13.031   5.362   6.593  0.2325 -0.7769 -0.5582
  969MOL0     C30712  13.108   5.480   6.607  0.5536  0.7380 -0.3018
  969MOL0     C30713  13.244   5.478   6.604  0.6730  0.1620 -0.7549
  969MOL0     C30714  13.312   5.355   6.605  0.4733 -0.7346  0.6171
  969MOL0     O30715  13.449   5.371   6.605  0.1286  0.7472  0.1953
  969MOL0     C30716  13.528   5.259   6.653 -0.3730  0.3690  0.1417
  969MOL0     C30717  13.587   5.174   6.541 -0.2715  0.0431 -0.6835
  969MOL0     C30718  13.693   5.065   6.580 -0.0032 -0.1199  0.2071
  969MOL0     C30719  13.823   5.111   6.645  0.2320  0.3834 -0.4171
  969MOL0     C30720  13.910   4.985   6.666  0.4646  0.3848  0.2973
  969MOL0     C30721  14.044   5.020   6.721 -0.2908 -0.2324  0.0983
  969MOL0     C30722  14.123   4.900   6.769 -0.0665 -0.0348  0.3974
  969MOL0     C30723  14.258   4.943   6.823  0.1433  0.2214 -0.0240
  969MOL0    Cl30724  14.400   4.958   6.716  0.0847 -0.4199  0.1498
  969MOL0     C30725  13.240   5.236   6.595  0.5682 -0.0514  0.1101
  969MOL0     C30726  13.102   5.243   6.594  0.1743  0.2533 -0.3156
  969MOL0     O30727  12.879   5.368   6.832  0.1336  0.3455 -0.0113
  969MOL0     C30728  12.606   5.293   6.822  0.0596 -0.6599  0.4362
  969MOL0     C30729  12.472   5.263   6.803  1.0337  0.8715 -0.3177
  969MOL0     N30730  11.737   5.005   6.616  0.4269  0.1548  0.4694
  969MOL0     N30731  11.632   4.960   6.679 -0.4111  0.7490  0.0257
  969MOL0     C30732  10.549   5.493   6.775 -0.1191 -0.1861 -1.2816
  969MOL0     C30733  10.409   5.493   6.801 -1.7761 -0.1124 -0.3044
  969MOL0     C30734   9.995   5.714   6.903  0.3107  0.1736  0.1968
  969MOL0     C30735   9.948   5.595   6.968  0.5851 -0.3459  0.1607
  969MOL0     C30736   9.825   5.597   7.046 -0.4139 -0.1807 -0.0221
  969MOL0     C30737   9.751   5.715   7.041 -0.1503  1.3835 -0.7207
  969MOL0     O30738   9.623   5.735   7.095 -0.7710 -0.1713  0.0248
  969MOL0     C30739   9.589   5.660   7.207 -0.1285 -0.1834 -0.2207
  969MOL0     C30740   9.485   5.745   7.288  0.5746 -0.5313  0.7832
  969MOL0     C30741   9.343   5.746   7.220 -0.0047  0.1865 -0.6890
  969MOL0     C30742   9.241   5.814   7.318  0.1614 -0.3971  0.2717
  969MOL0     C30743   9.107   5.789   7.272  0.5377  1.2766 -0.1370
  969MOL0     C30744   9.005   5.736   7.236 -0.2900  0.0892  0.1075
  969MOL0     C30745   9.795   5.824   6.978 -0.7036 -0.1708 -0.2279
  969MOL0     C30746   9.920   5.827   6.912 -0.4928 -0.7950 -0.0694
  969MOL0     C30747   9.966   5.962   6.851 -0.5235  0.0790 -0.2153
  969MOL0     H30748  10.380   5.803   6.931  2.2008  0.4709 -0.4951
  969MOL0     H30749  10.607   5.809   6.918 -0.9232  1.2018 -0.0861
  969MOL0     H30750  10.873   5.763   6.897  0.1315  0.1132  0.6559
  969MOL0     H30751  10.842   5.602   6.982 -1.4922 -1.6380 -1.5536
  969MOL0     H30752  11.073   5.680   6.902 -1.3369  1.4248 -0.3194
  969MOL0     H30753  11.014   5.650   6.736 -2.1997 -2.5438 -1.2414
  969MOL0     H30754  10.956   5.437   6.782 -0.2283 -0.6896 -0.4656
  969MOL0     H30755  11.015   5.425   6.948  1.5576 -0.1341 -1.2268
  969MOL0     H30756  11.185   5.466   6.703 -0.8963  0.0390 -0.2249
  969MOL0     H30757  11.253   5.484   6.874 -1.2102 -1.9790  2.4403
  969MOL0     H30758  11.160   5.245   6.908  0.6912 -0.8660 -0.0659
  969MOL0     H30759  11.129   5.236   6.738  0.0551 -0.6364  0.7834
  969MOL0     H30760  11.351   5.269   6.672 -2.4966  1.3341  0.0228
  969MOL0     H30761  11.404   5.310   6.837 -0.7538 -1.1345  1.0336
  969MOL0     H30762  11.362   5.049   6.700  2.4073  3.0800 -1.8510
  969MOL0     H30763  11.277   5.053   6.863  0.8740 -2.7880  0.6253
  969MOL0     H30764  11.503   5.105   6.959 -0.4191 -0.1805 -0.4445
  969MOL0     H30765  11.483   4.943   6.892  3.4197 -0.2350  0.3874
  969MOL0     H30766  11.669   5.257   6.809  1.6756 -1.2499  2.5854
  969MOL0     H30767  11.927   5.160   6.532  0.3626  1.2932 -0.7058
  969MOL0     H30768  11.827   5.303   6.548  4.5709  1.0867 -0.8475
  969MOL0     H30769  11.891   5.331   6.789 -1.9963  1.1775 -2.8329
  969MOL0     H30770  11.997   5.190   6.767 -1.8370 -0.3006 -1.3278
  969MOL0     H30771  12.109   5.426   6.746  0.2202 -0.5922 -0.8411
  969MOL0     H30772  12.012   5.442   6.601 -0.3270  2.5377  2.7823
  969MOL0     H30773  12.216   5.357   6.507 -2.0836 -0.0782 -1.5963
  969MOL0     H30774  12.123   5.214   6.528 -1.6329  0.6893  1.0995
  969MOL0     H30775  12.432   5.349   6.483 -0.6475 -0.4640 -0.1639
  969MOL0     H30776  12.654   5.377   6.498 -0.6043 -0.1387 -0.0743
  969MOL0     H30777  13.061   5.577   6.604  1.8014  1.3494 -0.6113
  969MOL0     H30778  13.288   5.577   6.613  0.3956  0.1918  0.5750
  969MOL0     H30779  13.615   5.294   6.709  0.7286  0.1340 -1.3897
  969MOL0     H30780  13.464   5.200   6.720 -1.6419  2.5553  0.9856
  969MOL0     H30781  13.510   5.132   6.476 -2.4055  0.8130  1.2397
  969MOL0     H30782  13.630   5.248   6.473 -2.6165  3.1093  0.9529
  969MOL0     H30783  13.639   4.985   6.632 -0.9538  0.4500  0.1188
  969MOL0     H30784  13.734   5.016   6.491 -1.2442 -2.9104  1.0435
  969MOL0     H30785  13.807   5.162   6.741 -0.5513 -2.5547  1.1120
  969MOL0     H30786  13.878   5.177   6.577  0.3564 -0.4387 -1.1245
  969MOL0     H30787  13.917   4.936   6.568  3.7924  1.5206 -0.1561
  969MOL0     H30788  13.868   4.919   6.742  0.4295 -0.6549 -0.5895
  969MOL0     H30789  14.099   5.071   6.640  1.2604 -1.4696  0.3213
  969MOL0     H30790  14.042   5.087   6.807  0.6099  1.3119 -1.0213
  969MOL0     H30791  14.139   4.835   6.683  0.9473 -0.0819  0.6090
  969MOL0     H30792  14.065   4.852   6.849 -1.0380  1.3849  0.5957
  969MOL0     H30793  14.255   5.043   6.868 -0.1925 -0.0521  0.5653
  969MOL0     H30794  14.278   4.869   6.900  0.2544  0.1796 -0.0934
  969MOL0     H30795  13.296   5.144   6.609 -1.6514 -1.7825 -1.5994
  969MOL0     H30796  13.040   5.155   6.607 -0.1751  0.6393  0.7051
  969MOL0     H30797  12.649   5.265   6.917  0.0901 -4.0790 -0.4207
  969MOL0     H30798  12.414   5.213   6.881  1.7421  0.8632  0.2145
  969MOL0     H30799  10.598   5.407   6.732  0.5685  0.3314 -1.5517
  969MOL0     H30800  10.349   5.410   6.766 -1.1008 -0.7172 -0.0705
  969MOL0     H30801  10.001   5.500   6.966 -1.0823 -1.3140 -0.1275
  969MOL0     H30802   9.788   5.503   7.084 -3.4640 -0.6696 -3.5719
  969MOL0     H30803   9.677   5.631   7.265  0.2813  1.1149 -0.1658
  969MOL0     H30804   9.548   5.565   7.172  0.6797  0.5092 -3.3144
  969MOL0     H30805   9.501   5.853   7.301 -2.1172 -0.1652  1.7450
  969MOL0     H30806   9.466   5.697   7.385 -0.0403 -0.8655  0.5054
  969MOL0     H30807   9.328   5.638   7.205  1.8415 -0.6899  2.6926
  969MOL0     H30808   9.337   5.793   7.121  1.5115 -0.7073 -1.2468
  969MOL0     H30809   9.251   5.772   7.419  1.8545 -1.3008 -0.2350
  969MOL0     H30810   9.262   5.921   7.309 -1.7621  0.2251  2.4408
  969MOL0     H30811   8.913   5.697   7.199 -0.5454 -1.0677  1.8428
  969MOL0     H30812   9.727   5.908   6.991 -1.5412 -0.7893 -0.5470
  969MOL0     H30813   9.961   5.966   6.742 -0.1698 -0.6316 -0.2591
  969MOL0     H30814   9.893   6.038   6.882 -0.4478 -0.0139  0.1928
  969MOL0     H30815  10.063   5.994   6.889 -0.3426 -2.4255  1.6811
  970MOL0     O30816   2.767   0.753   4.994  0.3557  0.4041  0.0477
  970MOL0     C30817   2.749   0.872   4.971 -0.3008  0.2918 -0.4611
  970MOL0     O30818   2.849   0.960   4.982  0.1020  0.7876 -0.0457
  970MOL0     C30819   2.982   0.931   4.970  0.2095 -0.4893  0.0772
  970MOL0     C30820   3.063   1.042   4.979 -0.6658  0.7275  1.1296
  970MOL0     C30821   3.202   1.015   4.981 -0.2838  1.2854 -0.4646
  970MOL0     C30822   3.254   0.894   4.942 -0.1049  0.3014 -0.0090
  970MOL0     O30823   3.388   0.897   4.924  0.0142  0.3800 -0.0198
  970MOL0     C30824   3.447   0.789   4.856  0.5228 -0.6810  0.1835
  970MOL0     C30825   3.598   0.800   4.829  0.6976  0.3620 -0.4478
  970MOL0     C30826   3.641   0.671   4.749 -0.1297  0.4831 -0.0083
  970MOL0     C30827   3.772   0.610   4.794 -0.3606  0.5139  0.1835
  970MOL0     C30828   3.812   0.496   4.698  0.0594  0.0955  0.0439
  970MOL0     C30829   3.965   0.451   4.716  0.3281 -0.2854 -0.1351
  970MOL0     C30830   3.995   0.315   4.651 -0.1655 -0.6491  0.2797
  970MOL0     C30831   4.037   0.323   4.506 -0.3258 -0.2908 -0.0606
  970MOL0     N30832   4.176   0.346   4.483 -0.3629  0.0615  0.2160
  970MOL0     C30833   4.278   0.248   4.472  0.3740 -0.4688 -0.5260
  970MOL0     C30834   4.387   0.316   4.440  0.0881  0.1646  0.4324
  970MOL0     C30835   4.519   0.251   4.400  0.4311 -0.4483 -1.0599
  970MOL0     C30836   4.507   0.184   4.265 -1.4478 -0.4926  1.1713
  970MOL0     C30837   4.651   0.131   4.230  0.4204 -0.6923  0.2826
  970MOL0     C30838   4.630   0.062   4.097  0.9238  0.4124  0.0466
  970MOL0     O30839   4.745  -0.020   4.070 -0.4103 -0.3078 -0.8070
  970MOL0     C30840   4.861   0.028   4.015 -0.2253  0.5989  0.0168
  970MOL0     C30841   4.949  -0.070   3.979  0.4513  0.5421  0.2600
  970MOL0     C30842   5.083  -0.027   3.943  1.3070  0.1842  0.5251
  970MOL0     C30843   5.124   0.109   3.937  0.4609  0.6815 -0.8849
  970MOL0     C30844   5.258   0.146   3.894 -0.2169 -0.6511  0.7174
  970MOL0     O30845   5.340   0.041   3.863  0.8471  0.0673 -0.4319
  970MOL0     C30846   5.471   0.057   3.849 -0.8587 -0.3219 -0.6601
  970MOL0     C30847   5.567   0.131   3.937  1.2926  0.3595  0.4639
  970MOL0     C30848   5.701   0.146   3.899  0.8153  0.2536  0.0598
  970MOL0     C30849   5.750   0.099   3.781  0.7548  0.4978 -0.0502
  970MOL0     O30850   5.887   0.099   3.761 -0.0514  0.1643  0.0004
  970MOL0     C30851   5.942   0.099   3.621  0.2928 -0.4901 -0.4786
  970MOL0     C30852   6.031   0.222   3.600 -0.6838  0.9515 -0.0033
  970MOL0     C30853   6.119   0.259   3.720  0.5465  0.0582  0.0344
  970MOL0     C30854   6.212   0.137   3.748  0.0687 -0.4089 -0.0865
  970MOL0     C30855   6.335   0.187   3.830 -0.4125 -1.0185  0.1827
  970MOL0     C30856   6.291   0.244   3.969 -0.1734 -0.6394  0.0022
  970MOL0     C30857   6.409   0.294   4.059 -1.2845  0.7075 -0.4709
  970MOL0     C30858   6.491   0.407   3.992  0.6582  0.2356  0.7608
  970MOL0    Cl30859   6.420   0.576   3.983 -0.1722 -0.1412  0.1620
  970MOL0     C30860   5.661   0.027   3.700  0.0036 -0.1542  0.1796
  970MOL0     C30861   5.524  -0.003   3.731  0.0658 -0.5537  0.3905
  970MOL0     O30862   5.295   0.261   3.903 -0.3160  0.1334 -0.3620
  970MOL0     C30863   5.021   0.203   3.963 -0.4702  0.3655 -0.7753
  970MOL0     C30864   4.893   0.163   4.008  0.9199 -0.7255  0.3002
  970MOL0     N30865   4.364   0.452   4.435 -0.5717  0.5428  0.1944
  970MOL0     N30866   4.241   0.467   4.469  0.7236  0.0145 -0.2896
  970MOL0     C30867   3.169   0.791   4.919 -0.4969 -0.0272 -0.3127
  970MOL0     C30868   3.038   0.810   4.940 -0.2280  0.0722  0.0820
  970MOL0     C30869   2.612   0.919   4.955  1.1992  0.3974 -0.7290
  970MOL0     C30870   2.596   1.046   4.908 -0.0085 -0.7168  0.4134
  970MOL0     C30871   2.473   1.098   4.861 -1.0150 -0.4162 -0.4523
  970MOL0     C30872   2.357   1.020   4.876 -0.3358  0.5059  0.5813
  970MOL0     O30873   2.236   1.063   4.837  0.2704  0.0728 -0.3215
  970MOL0     C30874   2.173   1.152   4.928 -0.4194  0.6431  0.2669
  970MOL0     C30875   2.120   1.081   5.048  0.0909 -0.3794  0.3712
  970MOL0     C30876   2.028   0.956   5.031 -0.7955 -0.3209 -0.0220
  970MOL0     C30877   1.913   0.947   5.125  0.6167 -0.4602  0.4303
  970MOL0     C30878   1.966   0.952   5.264  0.6240  0.2088  0.2014
  970MOL0     C30879   2.005   0.966   5.380 -0.3560 -0.8718  0.4726
  970MOL0     C30880   2.374   0.882   4.912  0.7403 -0.2611  1.4476
  970MOL0     C30881   2.495   0.831   4.953 -0.0181 -0.0119 -0.8616
  970MOL0     C30882   2.498   0.685   4.995  0.8351  0.0088 -0.7339
  970MOL0     H30883   3.024   1.143   4.978 -2.1163  0.1914  1.4196
  970MOL0     H30884   3.276   1.094   4.992 -0.6600  1.6621 -0.6050
  970MOL0     H30885   3.428   0.707   4.925  0.9901 -1.1967 -0.2873
  970MOL0     H30886   3.395   0.775   4.760  1.4653  1.9847 -0.8073
  970MOL0     H30887   3.660   0.818   4.917  0.6173 -0.4199 -0.2229
  970MOL0     H30888   3.624   0.889   4.771  4.7194 -0.8234 -0.8365
  970MOL0     H30889   3.646   0.692   4.642  0.3665  0.0567 -0.0723
  970MOL0     H30890   3.571   0.588   4.761  2.0534 -1.8799 -2.3496
  970MOL0     H30891   3.855   0.681   4.788  1.3971 -1.1009  2.9752
  970MOL0     H30892   3.758   0.580   4.898  0.3229  0.4973  0.2776
  970MOL0     H30893   3.753   0.404   4.700  1.3206 -0.7855 -1.2518
  970MOL0     H30894   3.797   0.532   4.596 -4.0053  0.0441  0.4801
  970MOL0     H30895   4.033   0.528   4.679  2.6298 -2.4003 -0.5691
  970MOL0     H30896   3.988   0.436   4.821  0.6337  0.0062 -0.1599
  970MOL0     H30897   3.910   0.250   4.673  0.7695 -1.1091  2.9201
  970MOL0     H30898   4.083   0.276   4.703  1.1054  1.2367 -0.3658
  970MOL0     H30899   3.999   0.234   4.454  2.0665 -0.8768 -0.9549
  970MOL0     H30900   3.985   0.397   4.445  1.0594  0.7268 -0.0426
  970MOL0     H30901   4.266   0.140   4.474 -1.3978 -0.3063  0.8934
  970MOL0     H30902   4.595   0.327   4.424  0.0480 -0.6961  1.1811
  970MOL0     H30903   4.532   0.167   4.469  1.0795 -1.1526 -2.0240
  970MOL0     H30904   4.445   0.096   4.289 -1.1588 -0.8724  0.5520
  970MOL0     H30905   4.461   0.243   4.186  2.9922 -1.0484 -2.1993
  970MOL0     H30906   4.688   0.058   4.304  0.4313 -1.6852 -0.6748
  970MOL0     H30907   4.729   0.207   4.224  1.0492 -1.3536 -0.0846
  970MOL0     H30908   4.627   0.134   4.015  0.9019  0.3281 -0.0257
  970MOL0     H30909   4.542  -0.003   4.093  2.3043 -1.4970 -1.3469
  970MOL0     H30910   4.923  -0.176   3.985 -1.9965  0.9543 -1.4306
  970MOL0     H30911   5.152  -0.108   3.922  0.6861  0.4723 -3.4080
  970MOL0     H30912   5.523   0.177   4.025 -1.1703  0.4455 -0.7353
  970MOL0     H30913   5.759   0.202   3.972  0.7889  1.3012 -0.7118
  970MOL0     H30914   5.991   0.002   3.607 -0.3056 -0.8334 -0.2160
  970MOL0     H30915   5.862   0.099   3.546 -0.4299 -1.7196  0.2567
  970MOL0     H30916   6.091   0.201   3.511 -2.6602 -1.0838 -0.9639
  970MOL0     H30917   5.966   0.309   3.585  0.1023  1.6929  0.8316
  970MOL0     H30918   6.172   0.351   3.694 -0.5187  0.7624  0.3095
  970MOL0     H30919   6.054   0.279   3.805 -0.2098  2.4661 -1.0421
  970MOL0     H30920   6.246   0.098   3.652  3.3459  2.0397 -0.1328
  970MOL0     H30921   6.154   0.063   3.803 -0.8730  0.9175  0.7734
  970MOL0     H30922   6.371   0.279   3.782 -0.2140 -0.9965  0.3676
  970MOL0     H30923   6.416   0.114   3.837 -0.6612 -1.5266 -1.7616
  970MOL0     H30924   6.231   0.333   3.952  4.6947  3.3552  1.3310
  970MOL0     H30925   6.239   0.171   4.032 -1.5694 -0.3200 -0.7504
  970MOL0     H30926   6.472   0.209   4.086 -0.4243  1.2624 -0.6962
  970MOL0     H30927   6.376   0.340   4.153 -2.0158 -1.0441  0.1673
  970MOL0     H30928   6.579   0.417   4.056  0.2198  1.1216  1.2408
  970MOL0     H30929   6.523   0.376   3.892 -2.6990 -1.2403  0.0381
  970MOL0     H30930   5.714  -0.011   3.613  1.1358  2.4558 -0.3744
  970MOL0     H30931   5.455  -0.041   3.656 -1.6058  3.7727 -0.5716
  970MOL0     H30932   5.029   0.310   3.948 -2.1136  0.8824  1.4485
  970MOL0     H30933   4.823   0.245   4.020  0.5020 -0.9088 -0.7896
  970MOL0     H30934   3.216   0.697   4.889  0.5538  0.4681 -0.2711
  970MOL0     H30935   2.982   0.718   4.926 -0.2397  0.0286  0.4075
  970MOL0     H30936   2.686   1.106   4.896 -0.6282  0.6016  1.9420
  970MOL0     H30937   2.469   1.201   4.829 -0.9114 -0.8902 -2.0572
  970MOL0     H30938   2.088   1.194   4.874 -0.4958 -0.4886 -0.5143
  970MOL0     H30939   2.237   1.237   4.954  0.9046  0.3054 -1.6563
  970MOL0     H30940   2.061   1.162   5.092  0.9475  0.8094 -0.6206
  970MOL0     H30941   2.201   1.058   5.118  0.1631 -0.5637  0.2277
  970MOL0     H30942   2.086   0.864   5.042  0.3074  0.0972 -1.8313
  970MOL0     H30943   1.991   0.959   4.928 -3.6844  1.1520  0.9617
  970MOL0     H30944   1.841   1.028   5.109 -0.0452 -0.2285  3.8202
  970MOL0     H30945   1.850   0.860   5.106 -1.4773  0.9812  0.4051
  970MOL0     H30946   2.059   0.990   5.470 -3.3916  2.1122  1.7485
  970MOL0     H30947   2.282   0.825   4.911 -0.6133  1.8191  0.8382
  970MOL0     H30948   2.402   0.635   5.009  1.3337 -1.0277 -0.8978
  970MOL0     H30949   2.547   0.621   4.920  1.5165  0.8623 -1.0448
  970MOL0     H30950   2.561   0.674   5.084 -0.5732  1.4549  0.4947
  971MOL0     O30951   5.277   2.645   2.989  0.0012  0.1556 -0.5038
  971MOL0     C30952   5.274   2.712   2.884  0.9417  0.2166  0.7463
  971MOL0     O30953   5.371   2.787   2.848  0.4643  0.3975 -0.1986
  971MOL0     C30954   5.487   2.804   2.915  0.6281 -0.5897  0.1850
  971MOL0     C30955   5.573   2.907   2.856 -0.1640 -0.1496 -0.6725
  971MOL0     C30956   5.698   2.948   2.922  0.4883  0.1807 -0.0760
  971MOL0     C30957   5.726   2.892   3.048 -0.1949  0.1815  0.7924
  971MOL0     O30958   5.834   2.946   3.120 -0.2925  0.0971 -0.2653
  971MOL0     C30959   5.927   2.848   3.180  0.8210 -0.5452  0.4500
  971MOL0     C30960   6.022   2.917   3.278 -0.1259 -0.7511 -0.2052
  971MOL0     C30961   6.138   2.823   3.309 -0.8292 -0.2664 -0.3380
  971MOL0     C30962   6.251   2.898   3.378  0.2668  0.8974  0.1686
  971MOL0     C30963   6.370   2.806   3.419 -0.2181  0.2035  0.1716
  971MOL0     C30964   6.446   2.756   3.308  0.2420  0.3624 -0.4105
  971MOL0     C30965   6.592   2.714   3.348 -1.0918  0.3705  0.4725
  971MOL0     C30966   6.695   2.721   3.234 -0.5564  0.2162  0.4323
  971MOL0     N30967   6.819   2.677   3.277 -0.6497 -0.6389  0.0661
  971MOL0     C30968   6.906   2.755   3.353  0.4044 -0.1752 -0.7084
  971MOL0     C30969   6.992   2.668   3.405  0.5653 -0.1054 -0.7373
  971MOL0     C30970   7.097   2.701   3.506  0.5980  0.6649 -0.5548
  971MOL0     C30971   7.095   2.605   3.626 -0.0342 -0.4241 -0.5455
  971MOL0     C30972   7.163   2.669   3.746 -0.5078 -0.5210  0.5715
  971MOL0     C30973   7.310   2.679   3.715 -0.4418  0.2608  0.1175
  971MOL0     O30974   7.385   2.694   3.839  0.2481  1.1178 -0.8684
  971MOL0     C30975   7.508   2.755   3.845  0.9602 -0.0994 -0.0474
  971MOL0     C30976   7.590   2.785   3.741 -0.1893  0.1230  0.4181
  971MOL0     C30977   7.717   2.851   3.770 -0.6754 -0.1469 -0.0089
  971MOL0     C30978   7.762   2.888   3.897  1.6064 -0.4346 -0.1997
  971MOL0     C30979   7.890   2.942   3.919  0.4993  0.5851  1.0981
  971MOL0     O30980   7.922   2.962   4.045  0.9054 -0.8854 -0.3057
  971MOL0     C30981   8.049   2.993   4.098  0.5252 -0.8416 -0.1560
  971MOL0     C30982   8.057   3.043   4.228  0.4709 -0.3037  0.1296
  971MOL0     C30983   8.186   3.064   4.289  0.3443  0.9605  0.3574
  971MOL0     C30984   8.301   3.040   4.214  0.6444  0.0109 -0.2695
  971MOL0     O30985   8.419   3.061   4.283  0.1360 -0.3025  0.2754
  971MOL0     C30986   8.544   3.018   4.227 -0.5253  0.5702  0.6128
  971MOL0     C30987   8.657   3.035   4.335  0.5157  0.9444  0.8918
  971MOL0     C30988   8.800   3.001   4.288  0.9317  0.6350  0.1760
  971MOL0     C30989   8.901   2.970   4.394 -0.2576  0.5391 -0.0362
  971MOL0     C30990   9.031   2.895   4.341  0.6715  0.7027  0.0784
  971MOL0     C30991   8.996   2.755   4.296 -1.1781  0.1362 -0.6171
  971MOL0     C30992   9.125   2.677   4.267  0.0582  0.9164  0.0475
  971MOL0     C30993   9.113   2.530   4.282 -0.1967  0.1345 -0.0090
  971MOL0    Cl30994   9.048   2.492   4.433 -0.1374  0.1938 -0.1173
  971MOL0     C30995   8.285   3.004   4.079 -0.8411 -0.3151  0.3142
  971MOL0     C30996   8.164   2.971   4.033 -0.1550  0.0592 -0.4697
  971MOL0     O30997   7.963   2.957   3.821 -0.1299  0.1333 -0.2251
  971MOL0     C30998   7.671   2.863   3.999  1.0790 -0.0372  0.1334
  971MOL0     C30999   7.550   2.789   3.977  0.9163 -0.5245 -0.6490
  971MOL0     N31000   6.962   2.549   3.354  0.3098  0.1147 -0.0928
  971MOL0     N31001   6.866   2.554   3.275  0.6250 -0.0461  0.0267
  971MOL0     C31002   5.643   2.792   3.103  0.1793  1.2179  0.4941
  971MOL0     C31003   5.539   2.740   3.024  0.1037  0.4291 -0.4857
  971MOL0     C31004   5.163   2.701   2.786  0.2457 -0.8183  0.1265
  971MOL0     C31005   5.164   2.777   2.670 -0.5474 -0.7381  0.9390
  971MOL0     C31006   5.072   2.756   2.569  0.5037  0.1700  0.2526
  971MOL0     C31007   4.962   2.669   2.583  0.5633  0.2459  0.1159
  971MOL0     O31008   4.849   2.666   2.503 -0.7177  0.7719 -0.3964
  971MOL0     C31009   4.850   2.749   2.387 -0.4155  0.1912  0.5564
  971MOL0     C31010   4.722   2.741   2.309  0.2298  0.7641  0.6813
  971MOL0     C31011   4.603   2.771   2.395 -0.5602  0.4056  0.1459
  971MOL0     C31012   4.470   2.759   2.316  0.6418  0.1401  0.5001
  971MOL0     C31013   4.473   2.826   2.181 -0.2392  0.2462  0.0414
  971MOL0     C31014   4.466   2.866   2.066 -0.2323  0.3503  0.4524
  971MOL0     C31015   4.956   2.593   2.697 -0.7001 -0.0668  0.1415
  971MOL0     C31016   5.049   2.603   2.806 -0.9620 -0.6150  0.3245
  971MOL0     C31017   5.030   2.503   2.920 -0.3441  0.3306 -0.0806
  971MOL0     H31018   5.516   2.962   2.782 -2.7672 -1.0396  0.5687
  971MOL0     H31019   5.764   3.030   2.895 -0.6432  1.2364  0.2559
  971MOL0     H31020   5.883   2.766   3.238  3.3778  0.2906  3.8837
  971MOL0     H31021   5.978   2.795   3.099 -0.1150 -1.6093  0.5272
  971MOL0     H31022   5.951   2.943   3.356 -0.3778  0.5500 -0.8499
  971MOL0     H31023   6.059   3.006   3.228 -1.0818 -1.0915 -1.5797
  971MOL0     H31024   6.179   2.797   3.212 -1.6084  1.0806 -1.0590
  971MOL0     H31025   6.109   2.737   3.370 -0.0028  1.4994  2.7767
  971MOL0     H31026   6.288   2.976   3.310  2.2859 -1.4534 -1.6224
  971MOL0     H31027   6.222   2.938   3.476  0.9015 -0.4139  0.9116
  971MOL0     H31028   6.448   2.863   3.471  0.2430  0.9347 -1.2594
  971MOL0     H31029   6.329   2.723   3.477  1.9158 -2.9335 -2.4345
  971MOL0     H31030   6.396   2.669   3.265  1.5239 -0.5927 -0.0289
  971MOL0     H31031   6.448   2.834   3.232  1.6158 -0.3416 -1.1348
  971MOL0     H31032   6.587   2.615   3.395 -0.0259  0.1584  0.1810
  971MOL0     H31033   6.634   2.791   3.413 -0.5220  1.2625 -0.9102
  971MOL0     H31034   6.659   2.665   3.147 -1.4306  1.8126 -0.2834
  971MOL0     H31035   6.717   2.823   3.200  0.0343  2.2424  5.9224
  971MOL0     H31036   6.906   2.862   3.369  2.4820 -0.5771  3.3465
  971MOL0     H31037   7.190   2.708   3.449 -0.3775  3.3033 -2.0340
  971MOL0     H31038   7.077   2.802   3.542 -2.4173 -0.2588  0.6735
  971MOL0     H31039   6.992   2.582   3.655 -1.3131  4.4705 -0.1703
  971MOL0     H31040   7.157   2.516   3.615 -1.3784 -1.6585  1.2348
  971MOL0     H31041   7.139   2.599   3.827  1.7810  0.5041  2.2648
  971MOL0     H31042   7.124   2.767   3.773  0.9236  1.2554 -3.1435
  971MOL0     H31043   7.336   2.769   3.659  1.4155  0.2551  0.9033
  971MOL0     H31044   7.344   2.592   3.657  0.0279  1.2410 -1.1398
  971MOL0     H31045   7.559   2.780   3.637  0.4301  4.4525 -0.1767
  971MOL0     H31046   7.774   2.880   3.682 -2.2101 -1.0804 -1.3825
  971MOL0     H31047   7.969   3.040   4.291 -0.5630  0.8452 -1.2068
  971MOL0     H31048   8.195   3.096   4.393  2.6908  0.4423  0.3851
  971MOL0     H31049   8.548   2.915   4.189  1.1462  0.8388 -0.0489
  971MOL0     H31050   8.576   3.080   4.143 -0.3019 -0.0518  0.2276
  971MOL0     H31051   8.658   3.139   4.367 -0.5755  2.0048 -2.1335
  971MOL0     H31052   8.620   2.977   4.420 -2.6229  0.3492 -0.7189
  971MOL0     H31053   8.792   2.914   4.222 -2.5490  0.2581  0.9200
  971MOL0     H31054   8.838   3.081   4.223 -0.9603  1.7338  0.3409
  971MOL0     H31055   8.854   2.913   4.475  0.5587  0.3128  0.2934
  971MOL0     H31056   8.930   3.064   4.443 -2.0208  0.4550  1.2647
  971MOL0     H31057   9.106   2.884   4.420 -1.6269 -2.9896  2.0176
  971MOL0     H31058   9.069   2.951   4.255  0.6077 -0.3876 -0.6924
  971MOL0     H31059   8.941   2.709   4.378  0.1577  1.6533  1.2305
  971MOL0     H31060   8.939   2.761   4.203  0.4445  1.1615 -1.6047
  971MOL0     H31061   9.196   2.711   4.342 -0.6691  0.7579  0.8328
  971MOL0     H31062   9.168   2.702   4.170  1.1986  2.5277  0.9259
  971MOL0     H31063   9.052   2.516   4.192 -0.1720  2.7945 -0.5393
  971MOL0     H31064   9.213   2.487   4.270 -0.7253 -1.9064  2.2272
  971MOL0     H31065   8.372   2.995   4.015  1.0629 -2.0480  2.9001
  971MOL0     H31066   8.178   2.927   3.935  1.2918  1.6779 -1.0262
  971MOL0     H31067   7.693   2.885   4.103  1.0564 -3.4350  0.9881
  971MOL0     H31068   7.489   2.759   4.062 -0.0671 -0.8413 -1.4569
  971MOL0     H31069   5.657   2.777   3.209  0.5230  1.8398  0.5454
  971MOL0     H31070   5.491   2.655   3.072  1.3263  0.7946  1.4993
  971MOL0     H31071   5.249   2.834   2.634 -1.2139 -0.5143 -0.3596
  971MOL0     H31072   5.068   2.824   2.484  0.6150  0.5659  0.5585
  971MOL0     H31073   4.929   2.714   2.319 -0.3305  0.5902  0.4473
  971MOL0     H31074   4.869   2.855   2.408 -1.2864  0.9377 -2.0785
  971MOL0     H31075   4.715   2.645   2.258  1.7308  2.1141 -2.3298
  971MOL0     H31076   4.728   2.821   2.234 -0.4898  0.6806  0.5354
  971MOL0     H31077   4.617   2.873   2.432  1.5768 -0.5830  2.2853
  971MOL0     H31078   4.597   2.700   2.478 -1.3518 -0.0452 -0.2841
  971MOL0     H31079   4.447   2.655   2.289 -0.2256 -1.0594  4.9990
  971MOL0     H31080   4.392   2.813   2.371 -0.9374  0.3625 -1.7725
  971MOL0     H31081   4.441   2.895   1.966 -2.1534  0.0051  0.7871
  971MOL0     H31082   4.867   2.534   2.716  0.2440 -1.5013  0.3404
  971MOL0     H31083   4.956   2.423   2.907  0.0288 -0.0711  0.2229
  971MOL0     H31084   5.116   2.438   2.940 -1.9198 -0.9795  3.0835
  971MOL0     H31085   5.023   2.555   3.016 -1.2175 -1.7814  1.0730
  972MOL0     O31086   3.958   9.247   2.542 -0.3350  0.4861  0.2171
  972MOL0     C31087   3.987   9.336   2.461 -0.3062  0.5931 -0.8259
  972MOL0     O31088   4.098   9.419   2.472  0.5689  0.9666  0.2354
  972MOL0     C31089   4.186   9.402   2.576  0.2138  0.3158  0.1631
  972MOL0     C31090   4.281   9.302   2.573 -0.0290 -0.1543  0.3623
  972MOL0     C31091   4.372   9.291   2.676  0.2700 -0.3363  1.0706
  972MOL0     C31092   4.385   9.399   2.767  0.5365  0.4377  0.0255
  972MOL0     O31093   4.481   9.413   2.860 -0.6110  1.0033  0.5098
  972MOL0     C31094   4.573   9.300   2.896 -0.2877  0.1997 -0.0817
  972MOL0     C31095   4.707   9.296   2.806 -0.7496 -0.6645 -0.3730
  972MOL0     C31096   4.798   9.411   2.851 -0.1793 -0.2779 -0.4315
  972MOL0     C31097   4.917   9.450   2.754 -0.9597  0.3591  0.6382
  972MOL0     C31098   5.059   9.392   2.781 -0.4922 -0.3848 -0.9238
  972MOL0     C31099   5.173   9.453   2.694  0.5304  0.7687 -0.4988
  972MOL0     C31100   5.311   9.383   2.716 -0.0317 -1.0481  0.6282
  972MOL0     C31101   5.376   9.436   2.846  0.1325  0.7622  1.0956
  972MOL0     N31102   5.520   9.399   2.863 -0.4290 -0.1181  0.6421
  972MOL0     C31103   5.559   9.271   2.844 -0.7121  0.7198  0.3706
  972MOL0     C31104   5.692   9.274   2.862 -0.3082  0.7654 -0.0234
  972MOL0     C31105   5.781   9.159   2.872 -0.4406  0.2690  0.3598
  972MOL0     C31106   5.891   9.164   2.774 -0.5401  0.2494  0.6142
  972MOL0     C31107   5.847   9.127   2.633 -0.2445 -0.2967  0.2087
  972MOL0     C31108   5.963   9.109   2.533  0.0450  0.8148 -0.4043
  972MOL0     O31109   6.066   9.021   2.585 -0.3778  0.1564 -0.6384
  972MOL0     C31110   6.188   9.009   2.526 -0.0603 -0.1936 -0.0086
  972MOL0     C31111   6.230   9.061   2.398 -0.5638 -0.8531  0.4622
  972MOL0     C31112   6.365   9.055   2.356  0.1879  0.3719 -0.8586
  972MOL0     C31113   6.463   8.971   2.423  0.1826  0.1830 -0.3127
  972MOL0     C31114   6.603   8.972   2.379 -0.3718 -0.2807  0.5076
  972MOL0     O31115   6.695   8.900   2.457  0.0322 -0.8430  0.4577
  972MOL0     C31116   6.828   8.917   2.430  0.1063  0.4788  0.0354
  972MOL0     C31117   6.910   8.806   2.410  0.0875  0.2337  0.7297
  972MOL0     C31118   7.045   8.824   2.378 -0.2859 -0.9269  0.1236
  972MOL0     C31119   7.105   8.948   2.371  0.5261 -0.0876  0.5242
  972MOL0     O31120   7.243   8.958   2.342 -0.5525  0.1984  0.4218
  972MOL0     C31121   7.314   9.062   2.423 -0.7801 -0.4254  0.4049
  972MOL0     C31122   7.454   9.019   2.476 -0.6169 -0.4523  0.3714
  972MOL0     C31123   7.530   8.963   2.358 -0.9604  0.2371  1.1199
  972MOL0     C31124   7.671   8.936   2.392  0.2838  0.8760 -0.2186
  972MOL0     C31125   7.753   8.883   2.276  0.5907  0.6733 -0.1353
  972MOL0     C31126   7.770   8.981   2.163  0.3972 -0.5030 -0.0512
  972MOL0     C31127   7.864   8.932   2.054 -0.5618 -0.1666 -0.8067
  972MOL0     C31128   7.974   9.029   2.017  0.3482 -0.2006 -1.1546
  972MOL0    Cl31129   8.066   9.076   2.159 -0.2270 -0.2797  0.7402
  972MOL0     C31130   7.024   9.067   2.385 -0.0346  0.0353  0.8918
  972MOL0     C31131   6.887   9.049   2.422  0.7638 -0.7876  0.4490
  972MOL0     O31132   6.627   9.031   2.269 -0.3555 -0.1948  0.3955
  972MOL0     C31133   6.420   8.931   2.553 -0.3651  0.3727 -0.5315
  972MOL0     C31134   6.291   8.942   2.602 -0.4963  0.3163 -0.7419
  972MOL0     N31135   5.730   9.404   2.886 -0.0041 -1.0818 -0.4388
  972MOL0     N31136   5.628   9.479   2.882  0.4392 -0.5290  0.9780
  972MOL0     C31137   4.289   9.499   2.763 -0.6136 -0.5702 -0.7039
  972MOL0     C31138   4.193   9.503   2.670  0.4422 -0.2439  0.2154
  972MOL0     C31139   3.898   9.364   2.339 -1.3902  0.3451  0.1046
  972MOL0     C31140   3.928   9.469   2.253 -0.2460 -0.1147 -0.2962
  972MOL0     C31141   3.851   9.490   2.134  0.7847  0.0247 -0.5446
  972MOL0     C31142   3.731   9.415   2.122  0.3375  0.0232  0.3135
  972MOL0     O31143   3.646   9.425   2.014  0.2989 -0.3116 -0.5397
  972MOL0     C31144   3.643   9.553   1.955 -0.5973 -0.4628 -0.1159
  972MOL0     C31145   3.530   9.564   1.844  0.1479  0.5750  0.3918
  972MOL0     C31146   3.535   9.441   1.748  0.3166 -0.1144  0.2618
  972MOL0     C31147   3.441   9.423   1.617 -0.4983 -0.3471 -0.1725
  972MOL0     C31148   3.304   9.432   1.653  0.1357  1.1763  0.0820
  972MOL0     C31149   3.191   9.451   1.705 -0.2152  0.6325  0.9319
  972MOL0     C31150   3.693   9.316   2.207  0.4218  0.3330  0.6121
  972MOL0     C31151   3.776   9.290   2.319 -0.3705 -0.1036 -0.5095
  972MOL0     C31152   3.731   9.172   2.396 -0.6649  0.5643  0.4669
  972MOL0     H31153   4.282   9.218   2.504  0.6481  1.2998 -1.4909
  972MOL0     H31154   4.438   9.206   2.680  0.0723 -0.4759  1.3754
  972MOL0     H31155   4.586   9.309   3.005 -2.4498  0.1400  0.2295
  972MOL0     H31156   4.523   9.204   2.880  0.2660  0.2494 -2.4120
  972MOL0     H31157   4.677   9.309   2.702 -3.0693  1.4614  0.4464
  972MOL0     H31158   4.746   9.196   2.822 -0.3086 -0.6440 -1.2818
  972MOL0     H31159   4.843   9.378   2.945  2.2180  0.7487 -1.1282
  972MOL0     H31160   4.738   9.500   2.871  0.3626  0.7208 -2.9138
  972MOL0     H31161   4.899   9.414   2.653 -0.5376 -1.2087  1.0892
  972MOL0     H31162   4.919   9.559   2.758  1.9646  0.3905  0.5166
  972MOL0     H31163   5.095   9.402   2.883 -0.8401 -2.0563 -0.6191
  972MOL0     H31164   5.049   9.284   2.770 -0.5870 -0.4632 -0.0671
  972MOL0     H31165   5.147   9.427   2.591  1.8987 -0.7434 -0.4983
  972MOL0     H31166   5.169   9.562   2.704 -4.0398  0.7653 -0.1582
  972MOL0     H31167   5.376   9.418   2.636  1.6372 -0.0392  2.3607
  972MOL0     H31168   5.306   9.273   2.714  0.2162 -1.0501 -1.0023
  972MOL0     H31169   5.371   9.545   2.853 -1.4336  0.7316  0.8715
  972MOL0     H31170   5.320   9.387   2.926 -0.5135 -1.9225 -0.8606
  972MOL0     H31171   5.497   9.186   2.818  0.8207 -0.0692 -0.8856
  972MOL0     H31172   5.821   9.153   2.974  0.6085  1.5139  0.0559
  972MOL0     H31173   5.726   9.068   2.850  2.4437 -1.1193 -1.6682
  972MOL0     H31174   5.944   9.260   2.784 -1.9409  0.8891  2.5191
  972MOL0     H31175   5.956   9.081   2.800  2.6753  2.5689  0.6417
  972MOL0     H31176   5.779   9.205   2.595  0.9482  0.3520 -0.6757
  972MOL0     H31177   5.786   9.037   2.642 -0.8222  0.1972  1.5958
  972MOL0     H31178   6.016   9.202   2.512 -0.2761  1.5896  1.9561
  972MOL0     H31179   5.926   9.077   2.435 -1.5685  1.1045  0.0788
  972MOL0     H31180   6.164   9.118   2.333 -4.0712 -1.1547  3.4172
  972MOL0     H31181   6.391   9.114   2.269 -2.3815  2.4025 -0.3818
  972MOL0     H31182   6.866   8.709   2.428  0.2578 -0.1370 -0.7106
  972MOL0     H31183   7.094   8.729   2.360 -0.6241 -1.1560  0.4006
  972MOL0     H31184   7.321   9.147   2.354 -3.0565 -1.3914 -1.1834
  972MOL0     H31185   7.257   9.089   2.513 -0.5839  0.5987  0.2375
  972MOL0     H31186   7.513   9.099   2.522  2.4651 -1.4033 -1.6612
  972MOL0     H31187   7.438   8.933   2.542 -1.4505 -0.7809 -0.2488
  972MOL0     H31188   7.489   8.868   2.322 -0.3135  0.4296 -0.1924
  972MOL0     H31189   7.517   9.041   2.283  2.3362 -1.2305 -1.2387
  972MOL0     H31190   7.677   8.859   2.470 -3.1624  0.8089  0.1128
  972MOL0     H31191   7.712   9.033   2.424  0.0392  1.5430 -1.8302
  972MOL0     H31192   7.708   8.789   2.242 -0.3800  0.0255  2.6585
  972MOL0     H31193   7.852   8.855   2.314 -0.5106 -1.8924  1.0837
  972MOL0     H31194   7.674   9.000   2.116 -0.7688 -0.7772  2.0972
  972MOL0     H31195   7.809   9.078   2.195  2.0923 -0.7391 -1.2573
  972MOL0     H31196   7.797   8.915   1.970  0.3665 -0.6244 -1.4668
  972MOL0     H31197   7.920   8.844   2.088  1.2764  2.0800  2.6908
  972MOL0     H31198   8.039   8.970   1.952 -0.6230 -0.9440 -1.4810
  972MOL0     H31199   7.934   9.114   1.962  0.8920  0.8225 -0.0219
  972MOL0     H31200   7.070   9.165   2.376  2.9554 -1.2859  0.4533
  972MOL0     H31201   6.812   9.127   2.427 -1.0315 -2.4712  1.1541
  972MOL0     H31202   6.489   8.891   2.627 -1.6160  2.8391  2.1854
  972MOL0     H31203   6.255   8.901   2.695 -0.9328 -1.5531 -1.6922
  972MOL0     H31204   4.306   9.573   2.840  2.3375 -3.5149  1.8171
  972MOL0     H31205   4.120   9.583   2.669 -0.6182 -1.1862  0.1012
  972MOL0     H31206   4.026   9.514   2.264  0.5356 -2.1089  1.7318
  972MOL0     H31207   3.873   9.565   2.060 -1.2050 -0.8180 -2.0894
  972MOL0     H31208   3.740   9.571   1.907  0.0783  3.6725  2.3554
  972MOL0     H31209   3.635   9.620   2.040 -0.9847 -0.9491  0.2344
  972MOL0     H31210   3.542   9.661   1.794  2.3463 -0.6633 -1.6601
  972MOL0     H31211   3.431   9.558   1.891 -0.2013 -0.1382 -0.3948
  972MOL0     H31212   3.528   9.356   1.817  3.4176 -1.6687 -1.0979
  972MOL0     H31213   3.639   9.430   1.715  1.0544  0.8420  2.1549
  972MOL0     H31214   3.463   9.505   1.548  0.1008 -1.7936 -1.7810
  972MOL0     H31215   3.468   9.332   1.563  0.9293  0.2935 -0.6003
  972MOL0     H31216   3.098   9.464   1.756 -0.5276 -0.4347  0.6489
  972MOL0     H31217   3.595   9.272   2.194  1.3032 -1.1494 -1.6474
  972MOL0     H31218   3.803   9.090   2.410  1.2004  0.4343 -6.1965
  972MOL0     H31219   3.685   9.192   2.493 -2.2534 -0.0310 -0.1200
  972MOL0     H31220   3.651   9.125   2.338  0.8526 -1.0091 -0.4567
  973MOL0     O31221   3.764   2.403   1.989  0.2750  0.1933  0.1856
  973MOL0     C31222   3.843   2.495   1.985 -0.4186  0.6917  0.0515
  973MOL0     O31223   3.844   2.593   1.887 -0.2932  0.8138  0.3994
  973MOL0     C31224   3.718   2.626   1.845  0.5306  0.1195  0.4634
  973MOL0     C31225   3.655   2.559   1.746 -0.5755  0.5357  0.0691
  973MOL0     C31226   3.526   2.592   1.697  0.3155  0.2909 -0.4784
  973MOL0     C31227   3.461   2.704   1.760  0.0660 -0.3370 -1.4480
  973MOL0     O31228   3.339   2.745   1.721 -0.6724 -0.3112 -1.1100
  973MOL0     C31229   3.291   2.700   1.596  0.4732  0.3419  0.5269
  973MOL0     C31230   3.151   2.767   1.560 -0.2650  0.1894 -0.4191
  973MOL0     C31231   3.132   2.766   1.407 -1.8068 -0.1990  1.1935
  973MOL0     C31232   3.198   2.879   1.335 -0.3208 -0.6586  0.5153
  973MOL0     C31233   3.146   2.869   1.191 -0.1873 -0.0549  0.1445
  973MOL0     C31234   3.254   2.906   1.090  0.8004 -0.0570  0.2737
  973MOL0     C31235   3.263   3.061   1.049 -0.7318  0.4398 -0.2003
  973MOL0     C31236   3.283   3.164   1.169 -0.0118  0.9267 -0.3871
  973MOL0     N31237   3.354   3.291   1.139 -0.1185 -0.0110 -0.1456
  973MOL0     C31238   3.347   3.357   1.021  0.2338  0.5718 -0.5738
  973MOL0     C31239   3.401   3.480   1.042  0.4899  0.3827 -0.1982
  973MOL0     C31240   3.416   3.585   0.937  0.2690 -0.5851  0.0818
  973MOL0     C31241   3.364   3.718   1.002 -0.6681 -0.2562  0.4381
  973MOL0     C31242   3.440   3.813   1.098 -0.2675  0.5310 -0.2813
  973MOL0     C31243   3.566   3.861   1.035 -0.0476  0.6975  0.4329
  973MOL0     O31244   3.633   3.948   1.119 -0.3530  0.2918 -0.5678
  973MOL0     C31245   3.764   3.981   1.099  0.6407 -0.2872  0.1348
  973MOL0     C31246   3.834   4.042   1.206  0.5801 -0.9087  0.0138
  973MOL0     C31247   3.970   4.068   1.206 -0.0938 -0.6127  0.1431
  973MOL0     C31248   4.029   4.037   1.082 -0.0507 -0.5860  0.4189
  973MOL0     C31249   4.178   4.074   1.073 -0.1769 -0.0814 -0.2094
  973MOL0     O31250   4.237   4.145   1.180  0.0121  0.2694  0.0174
  973MOL0     C31251   4.373   4.148   1.179 -0.0702  0.3690 -0.5191
  973MOL0     C31252   4.440   4.267   1.171  0.1004  0.7542 -0.2926
  973MOL0     C31253   4.577   4.279   1.175 -0.5080 -0.3295 -0.1760
  973MOL0     C31254   4.655   4.163   1.172 -0.2168 -0.2016 -0.9197
  973MOL0     O31255   4.789   4.159   1.152  0.0226 -0.2344  0.0296
  973MOL0     C31256   4.859   4.288   1.141  0.4931  0.3097  0.0817
  973MOL0     C31257   5.010   4.270   1.137  1.0639 -0.2497  0.6148
  973MOL0     C31258   5.067   4.219   1.267 -0.4218  0.7837 -0.0535
  973MOL0     C31259   5.220   4.234   1.278 -0.1460 -0.1898 -0.7214
  973MOL0     C31260   5.277   4.370   1.314  0.0181 -0.2875  0.1613
  973MOL0     C31261   5.424   4.365   1.323 -0.6818  0.4549  0.0685
  973MOL0     C31262   5.481   4.503   1.357  0.1968  0.8697  0.8453
  973MOL0     C31263   5.634   4.486   1.356  0.4334 -0.3890  0.9698
  973MOL0    Cl31264   5.693   4.645   1.390 -0.7171  0.6484 -0.7622
  973MOL0     C31265   4.592   4.039   1.179  0.5296 -0.1566  0.1461
  973MOL0     C31266   4.458   4.033   1.189  0.6311 -0.7262 -0.3476
  973MOL0     O31267   4.246   4.012   0.987  1.2046 -0.2560 -0.0525
  973MOL0     C31268   3.963   3.981   0.971  0.0717  0.4611 -0.0256
  973MOL0     C31269   3.834   3.942   0.978 -0.1695 -1.0328 -0.7705
  973MOL0     N31270   3.432   3.489   1.176  0.5046 -0.2289 -0.5925
  973MOL0     N31271   3.400   3.378   1.230  0.6143  0.2531 -1.2917
  973MOL0     C31272   3.524   2.772   1.864  0.0298 -0.3555  0.8621
  973MOL0     C31273   3.655   2.734   1.902 -0.1164  0.0466  0.0816
  973MOL0     C31274   3.967   2.487   2.077  0.3768 -0.6017  0.0977
  973MOL0     C31275   3.978   2.372   2.162 -0.2267  0.0081 -0.2176
  973MOL0     C31276   4.086   2.364   2.250 -0.6329  0.8762 -0.7514
  973MOL0     C31277   4.176   2.464   2.270 -0.1581  0.2624 -0.2395
  973MOL0     O31278   4.281   2.446   2.361 -0.7331 -0.0296  0.2155
  973MOL0     C31279   4.357   2.327   2.343  0.4569  0.0664 -0.1877
  973MOL0     C31280   4.484   2.341   2.432 -0.3016 -0.3137 -0.0879
  973MOL0     C31281   4.462   2.316   2.577 -0.1739 -0.0779 -0.5320
  973MOL0     C31282   4.567   2.390   2.661 -0.0541 -0.6874 -0.0599
  973MOL0     C31283   4.699   2.330   2.659  0.0578  0.5218 -0.6973
  973MOL0     C31284   4.799   2.261   2.665  1.0055 -0.1832  0.1749
  973MOL0     C31285   4.169   2.574   2.183  0.1824 -0.2846 -0.3367
  973MOL0     C31286   4.065   2.590   2.088 -0.4663  0.2105  0.4403
  973MOL0     C31287   4.052   2.721   2.006  0.6449  0.2271 -0.3617
  973MOL0     H31288   3.709   2.477   1.699  2.9613  0.1091  4.2526
  973MOL0     H31289   3.484   2.550   1.606 -0.0916  2.0744 -1.1571
  973MOL0     H31290   3.361   2.736   1.520  0.8726  0.7864  1.0890
  973MOL0     H31291   3.297   2.591   1.586  1.4130  0.4788 -0.5560
  973MOL0     H31292   3.145   2.867   1.603 -3.4305  1.1183 -2.6570
  973MOL0     H31293   3.068   2.710   1.603 -0.2127  0.1929 -0.3132
  973MOL0     H31294   3.026   2.782   1.388 -1.1927  0.2070 -2.7570
  973MOL0     H31295   3.161   2.669   1.367 -0.0866  1.1461 -1.0888
  973MOL0     H31296   3.162   2.975   1.375 -2.6876 -1.2167 -0.1406
  973MOL0     H31297   3.306   2.866   1.337 -0.4337 -3.5063 -3.0413
  973MOL0     H31298   3.130   2.763   1.170  1.3934 -0.3377  0.2347
  973MOL0     H31299   3.065   2.941   1.177  2.1169  2.6790 -0.1258
  973MOL0     H31300   3.354   2.892   1.130  1.6764  0.6900 -1.5296
  973MOL0     H31301   3.236   2.845   1.001  0.0405  1.2283 -0.4875
  973MOL0     H31302   3.176   3.089   0.988 -3.8759 -2.2569  2.6716
  973MOL0     H31303   3.343   3.067   0.975 -1.7001 -1.4968 -1.4948
  973MOL0     H31304   3.186   3.194   1.209 -0.3297  3.2531 -2.6423
  973MOL0     H31305   3.349   3.112   1.240  1.3342  0.9438 -1.5789
  973MOL0     H31306   3.310   3.312   0.929  0.8770  2.1660 -1.6556
  973MOL0     H31307   3.518   3.590   0.898 -0.4655  0.8190 -1.8353
  973MOL0     H31308   3.345   3.568   0.856 -0.0603 -0.4825  0.3477
  973MOL0     H31309   3.332   3.785   0.922 -0.0003 -0.3789  0.0671
  973MOL0     H31310   3.270   3.690   1.052 -1.5005  0.1945 -0.8346
  973MOL0     H31311   3.467   3.758   1.188 -2.3386  0.1465  0.1344
  973MOL0     H31312   3.377   3.902   1.101 -3.0486 -1.0002 -4.5148
  973MOL0     H31313   3.547   3.903   0.936 -0.6387 -1.1853 -0.3038
  973MOL0     H31314   3.622   3.768   1.018  1.0252  1.0215  1.9796
  973MOL0     H31315   3.781   4.063   1.298 -0.4863 -0.4751 -0.6772
  973MOL0     H31316   4.022   4.115   1.289 -0.3398  0.5487 -0.3281
  973MOL0     H31317   4.379   4.356   1.171  1.7311  1.9152 -1.0224
  973MOL0     H31318   4.620   4.378   1.167 -1.8954  0.2077 -1.2705
  973MOL0     H31319   4.828   4.353   1.059  1.2061  1.7879  0.9420
  973MOL0     H31320   4.834   4.341   1.233 -2.3030 -1.4778  0.4681
  973MOL0     H31321   5.040   4.212   1.049  0.0161 -1.9137  1.3061
  973MOL0     H31322   5.042   4.375   1.132 -0.9842  0.4323  0.9629
  973MOL0     H31323   5.025   4.261   1.359 -0.7436  1.0050 -0.3025
  973MOL0     H31324   5.048   4.112   1.257  3.9176 -0.7819  4.1596
  973MOL0     H31325   5.269   4.191   1.190 -0.5745 -0.2644 -0.9225
  973MOL0     H31326   5.249   4.154   1.347 -1.8771 -0.8398 -0.7097
  973MOL0     H31327   5.234   4.416   1.403  3.2126  1.4098  0.9879
  973MOL0     H31328   5.262   4.437   1.229  2.0473 -2.4849 -2.0687
  973MOL0     H31329   5.461   4.289   1.392 -3.4779 -0.4690  0.6737
  973MOL0     H31330   5.463   4.341   1.224 -0.3383  0.7716  0.1210
  973MOL0     H31331   5.451   4.522   1.461 -0.2398 -0.1770  0.9213
  973MOL0     H31332   5.444   4.582   1.291 -0.3545  2.4680  2.9597
  973MOL0     H31333   5.665   4.406   1.424 -3.5725 -2.5757  0.5284
  973MOL0     H31334   5.660   4.455   1.254 -1.5601 -1.1889  0.6462
  973MOL0     H31335   4.638   3.941   1.183 -0.5069 -0.6785 -0.3974
  973MOL0     H31336   4.411   3.937   1.206 -0.2565 -0.4731 -1.2505
  973MOL0     H31337   4.018   3.958   0.880 -0.2933  2.4680 -0.8136
  973MOL0     H31338   3.786   3.894   0.894 -1.1963  0.2730 -0.9564
  973MOL0     H31339   3.489   2.858   1.920  4.0675  3.7987 -2.2481
  973MOL0     H31340   3.709   2.783   1.982 -1.1152 -1.5028  1.7714
  973MOL0     H31341   3.902   2.294   2.155 -0.1567 -0.0193 -0.7488
  973MOL0     H31342   4.104   2.268   2.298  1.1479  0.8978 -1.3209
  973MOL0     H31343   4.383   2.296   2.241 -1.2893 -2.5045  0.0683
  973MOL0     H31344   4.284   2.254   2.379 -0.1283 -0.6775 -2.6926
  973MOL0     H31345   4.537   2.435   2.419 -1.5270  0.6687  1.6134
  973MOL0     H31346   4.541   2.251   2.408  1.4902 -0.0436  2.7311
  973MOL0     H31347   4.478   2.210   2.599  1.9107  0.5773  1.5310
  973MOL0     H31348   4.361   2.345   2.607  0.2033 -0.4331  1.1981
  973MOL0     H31349   4.577   2.494   2.630  2.2164 -1.1728 -1.1566
  973MOL0     H31350   4.529   2.393   2.764  1.4228 -2.6860  0.5961
  973MOL0     H31351   4.884   2.196   2.660 -0.6934 -2.4455 -3.1817
  973MOL0     H31352   4.240   2.655   2.197 -2.8719  2.5802 -0.1079
  973MOL0     H31353   4.119   2.801   2.038 -0.2526  0.8451 -0.0055
  973MOL0     H31354   4.059   2.706   1.898  0.6018  1.4556 -0.5462
  973MOL0     H31355   3.950   2.756   2.025  0.5084  0.2497 -1.1212
  974MOL0     O31356   0.326   2.474   4.021  0.1838  0.3727 -0.4003
  974MOL0     C31357   0.262   2.388   3.960 -0.0139 -0.2853 -0.3731
  974MOL0     O31358   0.303   2.333   3.831 -0.4614 -1.3595  0.2068
  974MOL0     C31359   0.413   2.382   3.770  0.4295  0.2694  1.0117
  974MOL0     C31360   0.484   2.279   3.708 -0.6687  0.9311  0.1734
  974MOL0     C31361   0.614   2.301   3.662 -0.8702 -0.6086  0.2264
  974MOL0     C31362   0.674   2.433   3.668  0.0629 -0.2376  0.0053
  974MOL0     O31363   0.801   2.462   3.630 -0.0196 -0.0748  0.7520
  974MOL0     C31364   0.899   2.367   3.669 -0.5038  0.2799 -0.5635
  974MOL0     C31365   1.037   2.440   3.644  0.9081  0.2367  0.2993
  974MOL0     C31366   1.064   2.556   3.754  0.3146  0.3461  0.1153
  974MOL0     C31367   1.190   2.629   3.716 -1.2049  0.1430 -0.4692
  974MOL0     C31368   1.321   2.557   3.698  0.6223  0.2989  1.0320
  974MOL0     C31369   1.430   2.655   3.657 -0.2470 -0.0302 -0.2067
  974MOL0     C31370   1.558   2.590   3.619 -0.1501  0.5314 -0.3923
  974MOL0     C31371   1.637   2.545   3.744 -0.4102  1.6258 -0.2451
  974MOL0     N31372   1.664   2.654   3.834 -0.0757 -0.4556  0.4308
  974MOL0     C31373   1.712   2.780   3.800 -0.0876 -0.2022  0.2799
  974MOL0     C31374   1.723   2.843   3.917 -0.3440 -0.2095 -0.5262
  974MOL0     C31375   1.794   2.975   3.938  0.3329  0.6967 -1.1543
  974MOL0     C31376   1.930   2.974   4.014  0.5894 -0.1847  0.0151
  974MOL0     C31377   2.049   2.980   3.910  0.9765 -0.4870 -0.8102
  974MOL0     C31378   2.175   2.921   3.972 -0.1033 -1.0808  0.0070
  974MOL0     O31379   2.261   2.889   3.862 -0.4375 -0.3231 -0.4706
  974MOL0     C31380   2.394   2.880   3.886 -0.0861 -0.5335  0.3135
  974MOL0     C31381   2.469   2.889   4.008 -0.5445 -0.6601  0.1801
  974MOL0     C31382   2.602   2.893   4.022  0.0285  0.7369  0.3025
  974MOL0     C31383   2.682   2.875   3.898  1.2771  1.0064 -0.7064
  974MOL0     C31384   2.830   2.862   3.904 -0.2667  0.2796 -0.6839
  974MOL0     O31385   2.893   2.838   3.787  0.1367  0.4952 -0.1126
  974MOL0     C31386   3.026   2.837   3.787  0.3261  0.4291 -0.5605
  974MOL0     C31387   3.097   2.735   3.849 -0.3195 -0.5877 -1.0538
  974MOL0     C31388   3.238   2.736   3.847 -0.2403  0.1313  0.3350
  974MOL0     C31389   3.303   2.842   3.781  0.4594 -0.2500  0.0991
  974MOL0     O31390   3.435   2.857   3.769 -0.1578 -0.1476 -0.4063
  974MOL0     C31391   3.516   2.736   3.766 -0.1321  0.8505  0.4038
  974MOL0     C31392   3.646   2.769   3.695 -0.0259  0.3227 -0.4128
  974MOL0     C31393   3.723   2.642   3.666  0.3447  0.2854 -0.5937
  974MOL0     C31394   3.759   2.557   3.779 -0.2795 -0.6045 -0.0543
  974MOL0     C31395   3.858   2.440   3.736  0.0239  0.3252  0.2488
  974MOL0     C31396   3.998   2.467   3.679  0.1826  1.4038  0.4724
  974MOL0     C31397   4.062   2.351   3.598 -0.1296  0.3908  1.0963
  974MOL0     C31398   4.073   2.224   3.683 -0.1205  0.1396  0.4201
  974MOL0    Cl31399   4.207   2.222   3.797  0.0921 -0.0926  0.4109
  974MOL0     C31400   3.226   2.953   3.721 -0.0044  0.1916  0.1343
  974MOL0     C31401   3.091   2.940   3.725  0.6329  0.5312 -0.4879
  974MOL0     O31402   2.874   2.847   4.018 -0.7129 -0.2515  0.3568
  974MOL0     C31403   2.615   2.858   3.782  0.4869 -0.8491  0.9220
  974MOL0     C31404   2.469   2.869   3.774 -0.2123  0.1120  0.6051
  974MOL0     N31405   1.683   2.762   4.019  0.3938  0.6857  0.3681
  974MOL0     N31406   1.639   2.645   3.973  0.8195 -0.0109 -0.1875
  974MOL0     C31407   0.603   2.533   3.730  0.3061  0.5729 -0.3318
  974MOL0     C31408   0.469   2.509   3.778 -0.3066 -0.2918  0.2854
  974MOL0     C31409   0.132   2.334   4.012 -0.4954 -0.1542 -0.7705
  974MOL0     C31410   0.048   2.421   4.067  0.8375  0.6266 -0.9075
  974MOL0     C31411  -0.070   2.387   4.130 -0.0653 -0.4484 -0.5815
  974MOL0     C31412  -0.115   2.249   4.114 -0.1634  0.1539 -0.9124
  974MOL0     O31413  -0.238   2.217   4.153 -0.4776  0.2692  0.0462
  974MOL0     C31414  -0.320   2.305   4.230 -0.0890  0.4357  0.5013
  974MOL0     C31415  -0.471   2.257   4.228 -0.0812  0.0075  0.4775
  974MOL0     C31416  -0.546   2.347   4.325 -1.0935  0.2810 -0.2635
  974MOL0     C31417  -0.689   2.298   4.365  0.0627 -0.4572  0.4181
  974MOL0     C31418  -0.744   2.367   4.475  0.3188  0.4253 -0.4059
  974MOL0     C31419  -0.798   2.425   4.572  0.5394  0.7648  0.5630
  974MOL0     C31420  -0.037   2.156   4.048 -0.6487  0.3650 -0.9688
  974MOL0     C31421   0.087   2.200   4.002  0.0902  0.2886 -0.1442
  974MOL0     C31422   0.162   2.092   3.934  0.4944  0.7384  0.6039
  974MOL0     H31423   0.450   2.176   3.698  0.2531  0.6810 -0.5317
  974MOL0     H31424   0.667   2.216   3.620 -0.6420  0.4127 -1.6397
  974MOL0     H31425   0.886   2.326   3.769  0.2036 -1.1801 -1.0447
  974MOL0     H31426   0.895   2.279   3.605 -1.2697 -1.5570  1.8683
  974MOL0     H31427   1.035   2.477   3.541 -3.4906  0.1750  0.1634
  974MOL0     H31428   1.117   2.366   3.651  1.7074  1.1394  0.9301
  974MOL0     H31429   1.086   2.502   3.847  3.3957 -0.3773 -0.9231
  974MOL0     H31430   0.985   2.632   3.753 -2.9410 -2.7494 -1.2384
  974MOL0     H31431   1.161   2.667   3.618 -2.9339 -3.2173 -1.4307
  974MOL0     H31432   1.211   2.710   3.787  0.5750  2.0785 -3.0183
  974MOL0     H31433   1.350   2.510   3.792 -3.3437  0.7892  2.6821
  974MOL0     H31434   1.307   2.477   3.624 -1.8420  0.5192  1.1764
  974MOL0     H31435   1.406   2.725   3.576  1.9639  1.4297  0.2789
  974MOL0     H31436   1.440   2.723   3.742  0.8103 -2.1009  1.3951
  974MOL0     H31437   1.622   2.644   3.549  0.5361 -0.9210 -0.9056
  974MOL0     H31438   1.517   2.508   3.559 -1.5224  1.5330 -0.8915
  974MOL0     H31439   1.580   2.468   3.798 -3.0708  4.2751  1.0073
  974MOL0     H31440   1.732   2.506   3.708 -1.4624 -1.7812  0.2275
  974MOL0     H31441   1.731   2.822   3.702 -1.0259  1.7765  0.8858
  974MOL0     H31442   1.788   3.036   3.847 -1.5247  1.0365 -0.8450
  974MOL0     H31443   1.726   3.023   4.008 -2.0384 -1.4903 -1.8054
  974MOL0     H31444   1.931   3.056   4.086 -2.3407 -1.3173  1.5231
  974MOL0     H31445   1.943   2.889   4.081  0.1183  0.0754  0.4467
  974MOL0     H31446   2.068   3.082   3.875 -0.6512 -0.0169 -0.4153
  974MOL0     H31447   2.035   2.919   3.820 -2.1201 -0.8335 -0.1919
  974MOL0     H31448   2.159   2.835   4.038  0.3677  0.4169  2.2057
  974MOL0     H31449   2.205   3.003   4.039 -1.7472 -1.9411  1.9083
  974MOL0     H31450   2.413   2.894   4.100  1.5979 -0.1331  1.5323
  974MOL0     H31451   2.656   2.905   4.116  0.5439 -0.1516  0.1388
  974MOL0     H31452   3.048   2.649   3.893  1.4865 -1.5531 -0.8123
  974MOL0     H31453   3.292   2.651   3.888  0.9635 -0.0207 -1.4304
  974MOL0     H31454   3.543   2.712   3.869  0.8117  1.9818  0.4511
  974MOL0     H31455   3.467   2.658   3.707  0.9722  1.6189 -1.6348
  974MOL0     H31456   3.626   2.827   3.605 -1.3316  1.6002  0.6616
  974MOL0     H31457   3.706   2.828   3.764  1.8280  1.1659 -2.6272
  974MOL0     H31458   3.658   2.586   3.598 -0.3359  1.9245 -1.3262
  974MOL0     H31459   3.815   2.675   3.617  1.0454  1.5996  1.4380
  974MOL0     H31460   3.675   2.515   3.836  1.0297 -2.1086  0.8393
  974MOL0     H31461   3.811   2.619   3.852  0.9882  0.3148 -1.6645
  974MOL0     H31462   3.801   2.369   3.676  0.4810 -0.6131  0.9076
  974MOL0     H31463   3.882   2.389   3.830  2.4033 -2.8891 -1.8948
  974MOL0     H31464   3.988   2.558   3.620 -0.2178  1.9540  1.3553
  974MOL0     H31465   4.063   2.491   3.764  0.3209 -1.6297  1.3426
  974MOL0     H31466   4.160   2.381   3.558  0.1318 -1.2554  0.4222
  974MOL0     H31467   3.993   2.332   3.516 -0.6203  1.1884  1.3098
  974MOL0     H31468   3.983   2.198   3.738  0.3859 -2.6931  0.0563
  974MOL0     H31469   4.089   2.145   3.609  3.1688  0.3965  0.7080
  974MOL0     H31470   3.287   3.034   3.681  1.0486 -0.1505  0.9906
  974MOL0     H31471   3.021   3.018   3.697 -1.9368 -0.4115  2.6791
  974MOL0     H31472   2.673   2.846   3.691 -2.3063 -0.7518 -0.9972
  974MOL0     H31473   2.423   2.877   3.676  2.3260  3.3845 -0.5402
  974MOL0     H31474   0.651   2.631   3.734  0.3059  0.5170  2.1164
  974MOL0     H31475   0.409   2.587   3.823 -0.6178 -0.1716 -0.3266
  974MOL0     H31476   0.081   2.523   4.084 -1.0448  1.2529 -0.7325
  974MOL0     H31477  -0.123   2.465   4.184  0.7712  1.1789 -2.0182
  974MOL0     H31478  -0.325   2.404   4.184  0.7824 -0.3181 -1.3445
  974MOL0     H31479  -0.294   2.313   4.336 -1.3743  3.3867  0.6860
  974MOL0     H31480  -0.494   2.155   4.260  1.2397  0.8735  4.7231
  974MOL0     H31481  -0.512   2.257   4.126  1.8813 -1.7063 -0.3850
  974MOL0     H31482  -0.546   2.451   4.291  1.0699 -0.4106 -2.6965
  974MOL0     H31483  -0.492   2.356   4.419 -2.0781 -1.4053  0.5039
  974MOL0     H31484  -0.756   2.307   4.279 -0.6803 -0.3665  0.9914
  974MOL0     H31485  -0.680   2.192   4.393 -2.8062 -1.2219 -1.1899
  974MOL0     H31486  -0.842   2.472   4.658  0.1686 -0.9137  1.3344
  974MOL0     H31487  -0.064   2.052   4.040  2.2391 -0.5049 -0.3522
  974MOL0     H31488   0.142   2.097   3.827  0.4838 -1.8372  0.4062
  974MOL0     H31489   0.267   2.111   3.957  1.2574 -1.7560 -0.4682
  974MOL0     H31490   0.133   1.994   3.973  5.1414 -1.7426 -1.3350
  975MOL0     O31491   7.640   6.800   0.433  0.1902  0.2239 -0.1917
  975MOL0     C31492   7.580   6.815   0.538 -0.6008 -0.5696 -0.7189
  975MOL0     O31493   7.612   6.763   0.663 -0.2146 -0.5445  0.2387
  975MOL0     C31494   7.714   6.671   0.678 -0.6725  0.1873  1.0363
  975MOL0     C31495   7.732   6.561   0.582 -1.3361 -0.3421 -0.1608
  975MOL0     C31496   7.845   6.480   0.595 -0.4083  0.8324 -0.4302
  975MOL0     C31497   7.936   6.487   0.698  0.1403 -0.4226 -0.3508
  975MOL0     O31498   8.040   6.392   0.712 -0.4052  0.1975 -0.2888
  975MOL0     C31499   8.171   6.438   0.757  0.3981 -0.3933  0.4125
  975MOL0     C31500   8.280   6.329   0.733 -0.1269  0.0608  0.2610
  975MOL0     C31501   8.425   6.380   0.773 -0.1351  0.1266 -0.2009
  975MOL0     C31502   8.535   6.280   0.750 -0.0060 -0.1287  1.3211
  975MOL0     C31503   8.680   6.327   0.793  0.0815 -0.5320  0.0505
  975MOL0     C31504   8.775   6.208   0.785  0.3353 -0.3194 -0.4015
  975MOL0     C31505   8.872   6.216   0.899 -0.3928  0.3198 -0.1971
  975MOL0     C31506   8.986   6.324   0.895  0.8503 -0.5360  0.8425
  975MOL0     N31507   9.087   6.295   0.796  0.3151  0.6963 -0.1521
  975MOL0     C31508   9.083   6.351   0.669 -0.2241  0.3344 -0.4382
  975MOL0     C31509   9.177   6.279   0.596 -0.6193 -0.0941  0.2342
  975MOL0     C31510   9.229   6.294   0.454  0.5226  0.5103 -0.2065
  975MOL0     C31511   9.128   6.231   0.358 -0.7168 -0.2167 -0.6206
  975MOL0     C31512   9.145   6.073   0.355 -0.0473 -0.4602 -0.5825
  975MOL0     C31513   9.247   6.025   0.244  0.4115 -0.3272 -0.3579
  975MOL0     O31514   9.371   6.027   0.302  0.8612 -0.1817  0.0953
  975MOL0     C31515   9.489   6.015   0.223  0.2047  0.4781  0.9513
  975MOL0     C31516   9.592   6.039   0.297 -0.4985 -1.0317 -0.2372
  975MOL0     C31517   9.725   6.014   0.248 -0.4331 -0.9701  0.0552
  975MOL0     C31518   9.748   5.989   0.114 -0.0625  0.4962  1.0549
  975MOL0     C31519   9.879   5.963   0.057  0.3041  0.0862 -0.2270
  975MOL0     O31520   9.899   5.946  -0.078  0.0575  0.4609 -0.4081
  975MOL0     C31521  10.018   5.893  -0.129 -0.3672 -0.0630 -0.9913
  975MOL0     C31522  10.096   5.968  -0.225 -0.2807  0.7662 -0.1570
  975MOL0     C31523  10.209   5.910  -0.272 -0.3654 -0.4227  0.2498
  975MOL0     C31524  10.248   5.775  -0.250  0.0645 -0.1964  0.7280
  975MOL0     O31525  10.356   5.729  -0.328 -0.5166  0.6611 -0.6415
  975MOL0     C31526  10.417   5.610  -0.272  0.5024  0.5618  0.3475
  975MOL0     C31527  10.527   5.558  -0.370  0.4590  0.3385  0.0919
  975MOL0     C31528  10.590   5.430  -0.312  0.6767 -0.0835 -1.2632
  975MOL0     C31529  10.553   5.305  -0.386 -0.0698  0.0424 -0.0648
  975MOL0     C31530  10.650   5.189  -0.360  0.1383 -0.7971  0.2619
  975MOL0     C31531  10.785   5.209  -0.422 -0.0484  0.1443 -0.1875
  975MOL0     C31532  10.882   5.096  -0.384 -0.0672  0.0473  0.5853
  975MOL0     C31533  10.989   5.083  -0.491 -0.1851 -0.7606  0.1897
  975MOL0    Cl31534  10.937   5.032  -0.651  0.2206  0.2311 -0.2295
  975MOL0     C31535  10.168   5.698  -0.164  0.6561  0.6455  0.2382
  975MOL0     C31536  10.053   5.761  -0.098  0.4546  0.4103 -0.4186
  975MOL0     O31537   9.964   5.954   0.143 -0.8620 -0.0996 -0.4774
  975MOL0     C31538   9.635   5.969   0.033 -1.0728  0.5492 -0.6066
  975MOL0     C31539   9.508   5.989   0.085  0.5409 -0.3564  0.1239
  975MOL0     N31540   9.231   6.182   0.678  0.5674 -0.0425  0.7686
  975MOL0     N31541   9.168   6.187   0.792 -0.8303  0.1514  0.3779
  975MOL0     C31542   7.918   6.599   0.792  0.8663 -0.0246 -0.2666
  975MOL0     C31543   7.809   6.687   0.769 -1.4283  0.3727 -0.4276
  975MOL0     C31544   7.467   6.903   0.530  0.4807 -0.1265 -0.7466
  975MOL0     C31545   7.423   6.938   0.401 -0.8101  0.1992 -0.3086
  975MOL0     C31546   7.298   6.996   0.389 -0.6658  0.6211  0.6742
  975MOL0     C31547   7.237   7.047   0.493 -0.2014 -0.6603 -0.1096
  975MOL0     O31548   7.122   7.127   0.490  0.6369  0.5143 -0.5869
  975MOL0     C31549   7.075   7.181   0.364 -0.1635 -0.0052  0.1767
  975MOL0     C31550   6.975   7.291   0.399  0.1649 -0.2041  0.8786
  975MOL0     C31551   6.846   7.258   0.472 -0.6408 -0.5090 -0.0183
  975MOL0     C31552   6.756   7.382   0.497  0.0895 -0.1078 -0.0606
  975MOL0     C31553   6.637   7.343   0.574  0.0884 -0.5235 -0.6434
  975MOL0     C31554   6.538   7.310   0.637 -0.1943 -0.4547  0.6323
  975MOL0     C31555   7.284   7.030   0.621  0.1447 -0.0153  0.4198
  975MOL0     C31556   7.396   6.953   0.650 -0.4304  0.4944  0.4054
  975MOL0     C31557   7.436   6.944   0.794 -0.0937  0.6436 -0.0683
  975MOL0     H31558   7.657   6.564   0.504 -1.9196 -0.6385  0.3748
  975MOL0     H31559   7.848   6.397   0.525  1.4044  0.9376 -0.5150
  975MOL0     H31560   8.202   6.523   0.695 -1.6928 -1.1776 -1.8739
  975MOL0     H31561   8.170   6.458   0.864  1.3706  1.5812  0.1002
  975MOL0     H31562   8.281   6.294   0.629  1.0808 -0.7197  0.5081
  975MOL0     H31563   8.243   6.242   0.788 -0.3535 -0.1728 -0.2510
  975MOL0     H31564   8.414   6.402   0.879 -1.1784  1.0271 -0.4754
  975MOL0     H31565   8.453   6.474   0.723 -0.8187  0.4658  0.0443
  975MOL0     H31566   8.490   6.196   0.803 -2.2293  1.3287  1.8524
  975MOL0     H31567   8.541   6.245   0.646  0.5262 -0.7846  1.5631
  975MOL0     H31568   8.705   6.414   0.731  0.0927 -1.5535 -1.4180
  975MOL0     H31569   8.674   6.367   0.895  0.5396  0.9268 -0.4706
  975MOL0     H31570   8.722   6.112   0.784 -1.2358  0.5051  0.0135
  975MOL0     H31571   8.826   6.213   0.688 -0.8211  0.2455 -1.0117
  975MOL0     H31572   8.919   6.118   0.910 -0.9420  0.1967  1.4478
  975MOL0     H31573   8.818   6.223   0.995 -1.4716 -1.0440 -0.6677
  975MOL0     H31574   8.937   6.420   0.877 -1.4638 -1.5404  1.3367
  975MOL0     H31575   9.038   6.335   0.990 -0.6169  0.7682  1.5479
  975MOL0     H31576   9.004   6.423   0.652  0.3692  0.6477 -2.0880
  975MOL0     H31577   9.227   6.401   0.431 -1.0124  0.6426  0.4049
  975MOL0     H31578   9.326   6.246   0.442  0.0293 -1.3593  2.4528
  975MOL0     H31579   9.026   6.263   0.378  0.0637  3.3909 -1.6888
  975MOL0     H31580   9.139   6.257   0.253  2.8856 -0.6961 -0.5175
  975MOL0     H31581   9.048   6.032   0.325 -0.7195  0.3321  0.4287
  975MOL0     H31582   9.155   6.030   0.456 -0.8473 -2.4727 -1.3109
  975MOL0     H31583   9.238   6.087   0.154 -2.4950 -1.0376 -0.6418
  975MOL0     H31584   9.235   5.918   0.225  1.0051 -0.9588  2.3095
  975MOL0     H31585   9.580   6.077   0.398  0.7851  1.7760 -1.0469
  975MOL0     H31586   9.805   6.027   0.320 -0.4620 -0.2462 -0.0351
  975MOL0     H31587  10.073   6.070  -0.252  0.6969  0.6108 -1.6808
  975MOL0     H31588  10.270   5.968  -0.341 -1.4253  2.2602  1.4527
  975MOL0     H31589  10.462   5.624  -0.173  0.9757  0.3370  0.1693
  975MOL0     H31590  10.347   5.525  -0.266  1.6296 -0.8923 -3.8643
  975MOL0     H31591  10.478   5.546  -0.467  2.2153 -1.7506 -0.6127
  975MOL0     H31592  10.600   5.634  -0.398 -1.2458  2.3111  0.7366
  975MOL0     H31593  10.698   5.445  -0.303  0.4626  0.4949  1.5681
  975MOL0     H31594  10.561   5.423  -0.206 -1.3941 -1.4627 -1.8679
  975MOL0     H31595  10.553   5.321  -0.494 -0.2968 -1.0698 -0.2419
  975MOL0     H31596  10.455   5.270  -0.351  0.1495  0.0102  0.5305
  975MOL0     H31597  10.601   5.094  -0.384  1.7309 -0.9604 -2.7066
  975MOL0     H31598  10.670   5.182  -0.252 -1.9400  0.0792  0.7533
  975MOL0     H31599  10.766   5.204  -0.529  0.8048 -2.1442 -0.2887
  975MOL0     H31600  10.827   5.306  -0.392  0.8590 -1.1337  3.1848
  975MOL0     H31601  10.825   5.003  -0.372  1.4680 -1.0322 -0.1684
  975MOL0     H31602  10.932   5.115  -0.289  0.5712  0.8820  0.0954
  975MOL0     H31603  11.033   5.183  -0.502  0.5588 -0.9618  1.1281
  975MOL0     H31604  11.063   5.008  -0.462  0.5488  0.3357  1.3153
  975MOL0     H31605  10.195   5.598  -0.133 -1.4093 -0.1724 -0.4284
  975MOL0     H31606   9.996   5.724  -0.013  1.4354  0.6844  0.3731
  975MOL0     H31607   9.648   5.947  -0.073 -2.8698  2.0120 -1.1759
  975MOL0     H31608   9.429   5.959   0.017  0.8028 -1.3041  0.2320
  975MOL0     H31609   7.992   6.615   0.869  0.1867 -1.8403  0.8286
  975MOL0     H31610   7.811   6.768   0.840  3.1269  0.6895 -0.5993
  975MOL0     H31611   7.477   6.898   0.316  0.5766 -1.7679  1.4125
  975MOL0     H31612   7.252   7.002   0.291 -2.0904 -0.1354  1.2640
  975MOL0     H31613   7.036   7.097   0.306 -0.1937  0.8943 -1.1285
  975MOL0     H31614   7.163   7.221   0.313 -1.3901  0.4280 -1.7328
  975MOL0     H31615   6.957   7.334   0.300  0.5026 -1.3068  0.3180
  975MOL0     H31616   7.037   7.357   0.460 -0.0957  0.3791  0.5138
  975MOL0     H31617   6.866   7.198   0.561 -1.0251 -0.2722  0.2354
  975MOL0     H31618   6.793   7.200   0.396  2.0311 -0.2599 -2.1722
  975MOL0     H31619   6.811   7.462   0.548 -0.4250 -0.2145  0.6825
  975MOL0     H31620   6.723   7.429   0.404  1.3600  3.0055  0.9259
  975MOL0     H31621   6.446   7.290   0.688 -0.5711  1.9296  0.9997
  975MOL0     H31622   7.221   7.073   0.698  1.6697 -0.3665  1.9213
  975MOL0     H31623   7.362   7.001   0.852 -1.1203 -1.2523  0.5707
  975MOL0     H31624   7.434   6.842   0.832 -0.0752  0.4401 -0.6066
  975MOL0     H31625   7.534   6.986   0.818  0.7828 -0.5962 -1.3315
  976MOL0     O31626   7.128   6.304   0.547 -0.4260  0.1079 -0.1151
  976MOL0     C31627   7.034   6.373   0.533  0.6971 -0.3397 -0.1026
  976MOL0     O31628   7.023   6.484   0.447  0.0954 -0.1536  0.2080
  976MOL0     C31629   7.125   6.537   0.377  0.3398  0.2398 -0.4022
  976MOL0     C31630   7.264   6.509   0.397  0.1155 -0.6390 -0.3102
  976MOL0     C31631   7.354   6.571   0.304 -0.3950 -0.1094 -0.4650
  976MOL0     C31632   7.312   6.654   0.196  0.8786 -0.3625 -0.1514
  976MOL0     O31633   7.388   6.719   0.102  0.2190 -0.1335  0.2746
  976MOL0     C31634   7.528   6.700   0.106 -0.0123  0.5037  0.0039
  976MOL0     C31635   7.585   6.736  -0.029 -0.0885  0.5888  0.2407
  976MOL0     C31636   7.534   6.851  -0.109  0.2094 -0.1636 -0.7284
  976MOL0     C31637   7.547   6.989  -0.046 -0.2004  0.2837 -0.6326
  976MOL0     C31638   7.684   7.045  -0.035  0.0787 -0.1114  0.4162
  976MOL0     C31639   7.743   7.090  -0.161 -0.1702  0.3737  0.0321
  976MOL0     C31640   7.879   7.144  -0.151  0.2002  0.5123  0.6691
  976MOL0     C31641   7.911   7.232  -0.276 -0.0525 -0.6637 -0.1544
  976MOL0     N31642   8.058   7.267  -0.273  0.1895  0.2224  0.1504
  976MOL0     C31643   8.140   7.238  -0.172  0.0361  0.0283 -0.1446
  976MOL0     C31644   8.257   7.272  -0.230  0.8790  0.0237  0.0360
  976MOL0     C31645   8.393   7.238  -0.181 -0.2743  1.1097 -0.5379
  976MOL0     C31646   8.489   7.367  -0.190 -0.3304  0.0184 -0.2392
  976MOL0     C31647   8.626   7.316  -0.131  0.4373 -0.8764  0.3665
  976MOL0     C31648   8.708   7.215  -0.221 -0.2517  0.3668 -0.2949
  976MOL0     O31649   8.841   7.211  -0.162 -0.2725  0.6977 -0.0989
  976MOL0     C31650   8.948   7.298  -0.199  0.6452  0.0138  0.2190
  976MOL0     C31651   9.079   7.274  -0.149 -0.0142 -0.3203 -0.5819
  976MOL0     C31652   9.193   7.340  -0.198 -0.3643  0.2191 -0.4009
  976MOL0     C31653   9.180   7.453  -0.285  0.1245  0.6239 -0.2533
  976MOL0     C31654   9.288   7.526  -0.322 -0.0589 -0.9267  0.1437
  976MOL0     O31655   9.406   7.479  -0.269 -0.1180 -0.4023  0.1907
  976MOL0     C31656   9.529   7.535  -0.299  0.0177 -0.7790 -0.1609
  976MOL0     C31657   9.619   7.538  -0.195  0.3030  0.0030  0.2623
  976MOL0     C31658   9.745   7.594  -0.196 -0.0555  0.0682  0.1354
  976MOL0     C31659   9.802   7.648  -0.307  0.1829  0.1515 -0.6705
  976MOL0     O31660   9.927   7.708  -0.300 -0.1614 -0.2245  0.0582
  976MOL0     C31661  10.010   7.707  -0.420  0.9183 -0.1231  0.2408
  976MOL0     C31662  10.153   7.760  -0.387  1.4186  0.4554 -0.3141
  976MOL0     C31663  10.232   7.767  -0.516  0.1279  0.3126 -0.5123
  976MOL0     C31664  10.385   7.792  -0.497  0.3691 -0.1656 -0.1512
  976MOL0     C31665  10.446   7.789  -0.625 -0.4860  0.3898 -0.0925
  976MOL0     C31666  10.595   7.827  -0.630  0.0994 -0.3760  1.3989
  976MOL0     C31667  10.679   7.757  -0.523 -0.2795  0.6422  0.2545
  976MOL0     C31668  10.822   7.796  -0.531  0.1066  0.1232  0.0489
  976MOL0    Cl31669  10.837   7.972  -0.486  0.0324  0.1190 -0.5713
  976MOL0     C31670   9.714   7.650  -0.420  0.2033  0.3733 -1.0677
  976MOL0     C31671   9.584   7.596  -0.419  0.4885  0.0453  0.3308
  976MOL0     O31672   9.274   7.613  -0.409  0.1597 -0.5573 -0.0069
  976MOL0     C31673   9.044   7.482  -0.330  0.1338 -0.4818 -0.9065
  976MOL0     C31674   8.930   7.402  -0.292  0.1839  0.1530 -0.0305
  976MOL0     N31675   8.248   7.333  -0.350 -0.4045 -1.1002 -0.4441
  976MOL0     N31676   8.121   7.321  -0.379 -0.1623  0.1244  0.2189
  976MOL0     C31677   7.174   6.681   0.187 -0.5670 -0.2704 -0.7682
  976MOL0     C31678   7.081   6.627   0.273 -0.8953 -0.8101  0.1816
  976MOL0     C31679   6.908   6.347   0.615 -0.5059 -0.1090 -0.3220
  976MOL0     C31680   6.785   6.409   0.584 -0.4157 -0.0128 -0.5340
  976MOL0     C31681   6.669   6.378   0.648 -0.0500 -0.2632  0.2377
  976MOL0     C31682   6.665   6.291   0.756 -0.1453 -0.4761 -0.3055
  976MOL0     O31683   6.547   6.278   0.818 -0.0664  0.5441  0.1824
  976MOL0     C31684   6.513   6.149   0.867 -0.1567 -0.1938  0.2554
  976MOL0     C31685   6.367   6.148   0.866  0.0976 -0.7483 -0.4739
  976MOL0     C31686   6.313   6.020   0.935  0.0039 -0.4695 -0.3769
  976MOL0     C31687   6.162   6.017   0.976 -0.6513 -0.1978  0.4095
  976MOL0     C31688   6.079   6.016   0.858  0.1505  0.5934 -0.6051
  976MOL0     C31689   6.000   6.029   0.764  0.4630  0.3559  0.1386
  976MOL0     C31690   6.784   6.222   0.781  0.3091 -0.7464 -0.1511
  976MOL0     C31691   6.905   6.245   0.710 -0.4519  0.2115 -0.0720
  976MOL0     C31692   7.020   6.164   0.761  0.4774  0.8673  0.3608
  976MOL0     H31693   7.296   6.454   0.485 -0.5590 -0.0472  0.3199
  976MOL0     H31694   7.459   6.563   0.330 -0.4821 -0.5696 -0.2576
  976MOL0     H31695   7.570   6.759   0.188 -1.8763  1.7194  0.1427
  976MOL0     H31696   7.554   6.594   0.121 -2.0071 -0.0246 -0.0129
  976MOL0     H31697   7.581   6.656  -0.104 -0.4099  0.9464 -0.1340
  976MOL0     H31698   7.688   6.766  -0.009 -0.2578 -0.1675  2.4783
  976MOL0     H31699   7.432   6.827  -0.140  0.1887 -0.6394 -0.3118
  976MOL0     H31700   7.590   6.858  -0.203 -1.5550 -0.4214 -1.8550
  976MOL0     H31701   7.485   7.059  -0.102  0.5825  0.8996 -0.7620
  976MOL0     H31702   7.498   6.987   0.051 -0.4650  1.1125 -0.7453
  976MOL0     H31703   7.690   7.131   0.033 -1.8167  0.1746  0.2768
  976MOL0     H31704   7.758   6.978   0.008 -0.7481 -0.8364  0.7436
  976MOL0     H31705   7.741   7.009  -0.234 -1.6117 -0.3496  0.8374
  976MOL0     H31706   7.690   7.180  -0.194  1.9620  2.0018  0.8367
  976MOL0     H31707   7.948   7.060  -0.140  1.9405  1.1502 -3.3539
  976MOL0     H31708   7.888   7.203  -0.060 -1.9467 -0.8260  1.8382
  976MOL0     H31709   7.914   7.184  -0.374 -1.0420  2.5935 -1.9204
  976MOL0     H31710   7.845   7.319  -0.278 -0.9630 -1.2997  0.8874
  976MOL0     H31711   8.127   7.192  -0.075  0.6989 -0.4410 -0.2669
  976MOL0     H31712   8.381   7.207  -0.077 -1.6519 -1.3716 -1.3484
  976MOL0     H31713   8.428   7.153  -0.242 -0.8246  0.6697 -0.2464
  976MOL0     H31714   8.495   7.400  -0.294  1.5129 -0.7802 -0.4312
  976MOL0     H31715   8.451   7.451  -0.131  1.9447 -0.5648  2.2143
  976MOL0     H31716   8.595   7.270  -0.036 -2.7996 -0.2126 -0.2557
  976MOL0     H31717   8.688   7.403  -0.108  1.2588 -2.3040  4.5472
  976MOL0     H31718   8.709   7.242  -0.327 -0.0529  1.5333 -0.0152
  976MOL0     H31719   8.664   7.115  -0.212  1.0064 -0.0611  1.7520
  976MOL0     H31720   9.082   7.200  -0.069  2.5693 -0.1563 -0.4496
  976MOL0     H31721   9.291   7.304  -0.168 -1.0349  1.1579  3.4032
  976MOL0     H31722   9.572   7.511  -0.101 -0.2374  0.2292  0.0601
  976MOL0     H31723   9.790   7.591  -0.097 -2.6907 -0.4091  1.3998
  976MOL0     H31724  10.015   7.606  -0.461  2.3768  0.5413 -1.3202
  976MOL0     H31725   9.960   7.776  -0.489 -0.1663 -2.9019 -1.9530
  976MOL0     H31726  10.140   7.856  -0.335 -0.8784 -0.1629  0.3639
  976MOL0     H31727  10.198   7.691  -0.315  2.7874  0.6590 -0.9433
  976MOL0     H31728  10.213   7.671  -0.566  2.9589 -0.0201 -1.1626
  976MOL0     H31729  10.197   7.847  -0.581  0.3347 -0.0165 -1.0387
  976MOL0     H31730  10.415   7.709  -0.431 -1.0995 -1.2682 -0.8136
  976MOL0     H31731  10.416   7.888  -0.455  2.7537  0.0304 -2.1086
  976MOL0     H31732  10.402   7.873  -0.680  0.0670 -0.1672 -1.4316
  976MOL0     H31733  10.422   7.702  -0.687 -1.6922  1.6650 -1.4936
  976MOL0     H31734  10.624   7.800  -0.732 -0.0538  1.3072  0.8940
  976MOL0     H31735  10.607   7.935  -0.621 -1.0886 -0.1641  0.6614
  976MOL0     H31736  10.677   7.648  -0.532  2.4576  0.5710 -0.5506
  976MOL0     H31737  10.640   7.782  -0.424  0.8707  0.1264  0.8674
  976MOL0     H31738  10.879   7.728  -0.467 -2.5338 -2.0113  0.3097
  976MOL0     H31739  10.849   7.772  -0.634 -1.8984 -1.2562 -0.2024
  976MOL0     H31740   9.744   7.686  -0.518  1.3615  1.1005 -0.4638
  976MOL0     H31741   9.516   7.594  -0.504 -2.6201 -0.6395  2.6488
  976MOL0     H31742   9.037   7.575  -0.385  0.7214 -0.8322 -1.5938
  976MOL0     H31743   8.830   7.439  -0.312 -0.9022 -1.8489  1.3330
  976MOL0     H31744   7.149   6.744   0.103  2.6965  1.4607 -0.6028
  976MOL0     H31745   6.976   6.652   0.262 -0.6456 -0.0402 -0.6095
  976MOL0     H31746   6.772   6.486   0.509 -2.0330  1.8122  1.4743
  976MOL0     H31747   6.573   6.417   0.614 -0.9963 -0.1060  2.8293
  976MOL0     H31748   6.557   6.145   0.967  0.1196  1.1125  0.1971
  976MOL0     H31749   6.547   6.073   0.795  0.0918  1.6404 -1.6517
  976MOL0     H31750   6.337   6.159   0.761 -0.2662  0.8729 -0.2281
  976MOL0     H31751   6.327   6.233   0.921  0.7776  0.4935 -1.8228
  976MOL0     H31752   6.378   5.996   1.019 -0.2517 -2.4039 -0.6757
  976MOL0     H31753   6.323   5.934   0.868  1.9595  0.6046 -1.5847
  976MOL0     H31754   6.145   5.918   1.020  0.4267 -1.9871 -2.7802
  976MOL0     H31755   6.144   6.097   1.048  3.6850  2.8280 -1.3796
  976MOL0     H31756   5.918   6.036   0.695 -0.3897  1.5237  1.2208
  976MOL0     H31757   6.783   6.153   0.865 -1.0412  0.2207  0.6695
  976MOL0     H31758   7.027   6.074   0.699  0.6277  0.2523  1.2554
  976MOL0     H31759   7.108   6.230   0.764  1.2738 -0.2088  2.5402
  976MOL0     H31760   7.003   6.138   0.866 -0.6717  1.2468  0.2732
  977MOL0     O31761   1.635   1.468   2.392  0.1029  0.0466  0.0707
  977MOL0     C31762   1.620   1.585   2.373 -0.1383 -0.9723  0.3747
  977MOL0     O31763   1.707   1.684   2.416  0.1676  0.0346  0.0987
  977MOL0     C31764   1.799   1.642   2.504  0.7649 -0.8020  0.1948
  977MOL0     C31765   1.914   1.578   2.461  0.0132 -0.5272 -0.6960
  977MOL0     C31766   2.022   1.565   2.550  0.3752  0.3519 -0.0447
  977MOL0     C31767   2.009   1.610   2.686 -0.2151  0.3609  0.8685
  977MOL0     O31768   2.117   1.615   2.769  0.5212 -0.9223  0.1682
  977MOL0     C31769   2.114   1.539   2.893  0.0882  0.1845 -0.1185
  977MOL0     C31770   2.266   1.523   2.939 -0.3801  0.1818  0.0639
  977MOL0     C31771   2.314   1.639   3.021 -0.0760 -0.6913 -0.3059
  977MOL0     C31772   2.469   1.640   3.040 -0.0816  0.3404 -0.5976
  977MOL0     C31773   2.532   1.776   3.067  0.1724  0.0684  0.7599
  977MOL0     C31774   2.565   1.845   2.931 -0.1201  0.2901  0.2372
  977MOL0     C31775   2.624   1.994   2.954 -0.9127  0.2082 -1.3024
  977MOL0     C31776   2.768   1.997   3.014 -0.5467  0.2327  0.4871
  977MOL0     N31777   2.878   1.934   2.930  0.1745  0.1814 -0.0270
  977MOL0     C31778   2.934   1.991   2.820 -0.1045 -0.6363  0.2253
  977MOL0     C31779   3.034   1.908   2.786 -0.2348 -0.1045 -0.0271
  977MOL0     C31780   3.110   1.928   2.658 -0.6443  0.0070 -0.1161
  977MOL0     C31781   3.252   1.987   2.684  1.2930 -1.0962  0.6004
  977MOL0     C31782   3.234   2.140   2.702 -0.0221 -0.8610  0.0813
  977MOL0     C31783   3.374   2.192   2.709  0.7085  0.0468  0.7711
  977MOL0     O31784   3.383   2.330   2.732  0.6028  0.5950 -0.7162
  977MOL0     C31785   3.510   2.383   2.742 -0.6904  0.2664  0.0395
  977MOL0     C31786   3.526   2.521   2.748  0.9634  0.8358  0.2667
  977MOL0     C31787   3.648   2.578   2.775  0.4245  0.2623  0.0213
  977MOL0     C31788   3.764   2.502   2.770 -1.0913  0.0996 -0.5242
  977MOL0     C31789   3.898   2.568   2.802 -0.1662 -0.1836 -0.2751
  977MOL0     O31790   4.006   2.481   2.800 -0.2386  0.8881  0.0010
  977MOL0     C31791   4.123   2.547   2.789  0.0866 -0.8129 -0.2766
  977MOL0     C31792   4.170   2.578   2.665 -0.6462 -0.7172  0.8879
  977MOL0     C31793   4.287   2.659   2.656 -0.6284 -0.3311 -0.0416
  977MOL0     C31794   4.352   2.715   2.760  0.0154  0.0824  0.0828
  977MOL0     O31795   4.461   2.794   2.746 -0.1801  0.2042  0.5542
  977MOL0     C31796   4.575   2.757   2.820  0.3759 -0.5169  0.7094
  977MOL0     C31797   4.683   2.863   2.809  0.3673 -0.4470  0.1350
  977MOL0     C31798   4.646   2.987   2.891  0.3393 -0.8927 -0.2914
  977MOL0     C31799   4.765   3.065   2.925 -0.2398  0.1776  0.1309
  977MOL0     C31800   4.860   3.093   2.805 -1.4115  0.3063 -0.3179
  977MOL0     C31801   4.992   3.165   2.860  0.6896  0.3655  0.3490
  977MOL0     C31802   5.093   3.183   2.752  0.3284 -0.5476 -0.6024
  977MOL0     C31803   5.188   3.289   2.808 -0.0035  0.3013 -0.1278
  977MOL0    Cl31804   5.337   3.299   2.700  0.1667 -0.1915 -0.1817
  977MOL0     C31805   4.299   2.688   2.884 -0.5483  0.2070 -0.7375
  977MOL0     C31806   4.183   2.608   2.904 -0.0923 -1.1441 -0.8103
  977MOL0     O31807   3.897   2.685   2.828 -0.1262  0.0002  0.5005
  977MOL0     C31808   3.748   2.372   2.752  0.9444  0.8969 -0.3959
  977MOL0     C31809   3.629   2.312   2.742  0.0390  0.5438  0.5340
  977MOL0     N31810   3.034   1.805   2.882 -0.2627 -0.2695 -1.0008
  977MOL0     N31811   2.941   1.821   2.964  0.1963 -0.5171 -0.4395
  977MOL0     C31812   1.889   1.667   2.722 -0.0194  0.1641  0.0646
  977MOL0     C31813   1.785   1.694   2.631 -0.5044 -0.3509 -0.3989
  977MOL0     C31814   1.511   1.638   2.283  0.4191  0.0851  0.0847
  977MOL0     C31815   1.486   1.779   2.271  0.1286 -0.9324 -0.4090
  977MOL0     C31816   1.391   1.830   2.185 -0.4859 -0.5155  0.3839
  977MOL0     C31817   1.315   1.743   2.112  0.6345 -0.7046 -0.2319
  977MOL0     O31818   1.239   1.812   2.020 -0.0386  0.4149 -0.0305
  977MOL0     C31819   1.140   1.745   1.957  1.8483 -0.0138  1.2634
  977MOL0     C31820   1.112   1.819   1.828  0.0920 -0.8680  0.9976
  977MOL0     C31821   1.003   1.759   1.744  0.1763  0.2412 -0.2033
  977MOL0     C31822   0.868   1.768   1.811  0.9131  0.6590 -0.0070
  977MOL0     C31823   0.827   1.906   1.852  0.5157  0.2273 -0.4976
  977MOL0     C31824   0.783   2.012   1.906 -0.4196  0.7887  0.7375
  977MOL0     C31825   1.326   1.605   2.129  0.2627  0.3548 -0.6854
  977MOL0     C31826   1.429   1.554   2.204  0.2749  0.5107 -0.5793
  977MOL0     C31827   1.451   1.405   2.189  0.3924  0.2238 -0.1321
  977MOL0     H31828   1.918   1.548   2.356  0.2748  2.6065 -1.6770
  977MOL0     H31829   2.105   1.513   2.504 -0.7323 -1.6616  0.1283
  977MOL0     H31830   2.062   1.586   2.977  1.4133  0.1671  0.7413
  977MOL0     H31831   2.062   1.443   2.886 -3.1972  1.8377 -0.1691
  977MOL0     H31832   2.316   1.500   2.844  1.8910 -0.3632  1.3257
  977MOL0     H31833   2.276   1.430   2.995  0.3211 -0.0300 -0.4057
  977MOL0     H31834   2.263   1.643   3.118 -0.0237 -2.1356 -0.1834
  977MOL0     H31835   2.298   1.728   2.960  4.1893  0.4297 -0.1068
  977MOL0     H31836   2.495   1.572   3.122 -1.6656 -0.1684 -0.4680
  977MOL0     H31837   2.515   1.592   2.954  3.5217 -1.7445  2.2047
  977MOL0     H31838   2.461   1.840   3.119 -0.7304 -0.2180 -0.1068
  977MOL0     H31839   2.620   1.779   3.132  0.3929  2.6882  0.4420
  977MOL0     H31840   2.649   1.785   2.891 -1.1789 -0.8228 -0.3971
  977MOL0     H31841   2.478   1.852   2.865  0.3150  0.8700 -0.2897
  977MOL0     H31842   2.555   2.048   3.020 -0.0369 -0.0539 -0.1372
  977MOL0     H31843   2.638   2.046   2.859 -0.4370  1.5423 -0.5279
  977MOL0     H31844   2.788   2.102   3.037  0.5470  0.0162  0.5716
  977MOL0     H31845   2.765   1.930   3.101  0.8652 -1.6016 -0.7766
  977MOL0     H31846   2.905   2.083   2.770  2.1067 -0.6393 -1.1740
  977MOL0     H31847   3.122   1.828   2.616 -0.0606 -0.3940  0.9493
  977MOL0     H31848   3.047   2.000   2.605  0.6045  1.4078  0.2266
  977MOL0     H31849   3.292   1.944   2.776  1.6250 -1.1688  0.4225
  977MOL0     H31850   3.324   1.961   2.606  0.3448 -0.8012 -0.4014
  977MOL0     H31851   3.176   2.158   2.793 -0.0128  1.6049 -0.3424
  977MOL0     H31852   3.182   2.182   2.616  1.0465 -1.6355 -0.9788
  977MOL0     H31853   3.406   2.174   2.606 -1.8272  1.0963 -0.3070
  977MOL0     H31854   3.435   2.144   2.785 -1.2489 -2.6028  0.8086
  977MOL0     H31855   3.426   2.562   2.736 -0.3616 -2.4041 -1.2355
  977MOL0     H31856   3.643   2.686   2.780  2.2361  0.4908 -2.0360
  977MOL0     H31857   4.122   2.548   2.572 -2.3017  1.2885  1.0174
  977MOL0     H31858   4.329   2.681   2.558  1.1669  2.7600  1.2800
  977MOL0     H31859   4.546   2.757   2.925 -1.5794  1.0241  0.2350
  977MOL0     H31860   4.613   2.661   2.785 -0.8337 -0.4474 -0.9148
  977MOL0     H31861   4.773   2.826   2.860  0.2690  0.2467  0.8159
  977MOL0     H31862   4.709   2.890   2.706  2.6444  1.2676  1.0531
  977MOL0     H31863   4.583   3.053   2.832  0.9180  0.5802  0.6860
  977MOL0     H31864   4.590   2.966   2.982 -1.8264 -0.3606 -1.4423
  977MOL0     H31865   4.832   3.008   2.992 -0.4321  0.4075  0.5241
  977MOL0     H31866   4.736   3.159   2.973  0.5277  0.8992 -0.7830
  977MOL0     H31867   4.806   3.154   2.732  1.7730 -0.9240 -4.0160
  977MOL0     H31868   4.906   3.008   2.756  1.4210  0.9946  0.9728
  977MOL0     H31869   4.966   3.254   2.918 -2.6936  1.0302 -1.8976
  977MOL0     H31870   5.029   3.091   2.933  0.2262 -0.5291 -0.2989
  977MOL0     H31871   5.051   3.216   2.657  1.9952 -1.6256 -1.7487
  977MOL0     H31872   5.148   3.092   2.727 -0.6312 -1.1991 -0.4396
  977MOL0     H31873   5.144   3.388   2.801  2.0249  1.2743  0.0534
  977MOL0     H31874   5.218   3.251   2.906 -1.7621 -0.9773 -0.0451
  977MOL0     H31875   4.339   2.728   2.977  0.4903  2.8930 -2.2256
  977MOL0     H31876   4.159   2.586   3.007 -0.3156  3.0502  0.2036
  977MOL0     H31877   3.824   2.298   2.778 -1.4224 -1.2195  0.8917
  977MOL0     H31878   3.639   2.204   2.738 -0.8533  0.0298  5.3484
  977MOL0     H31879   1.877   1.717   2.817 -0.3779  2.1577 -0.9739
  977MOL0     H31880   1.701   1.755   2.663  1.9530  2.5831  1.0400
  977MOL0     H31881   1.541   1.851   2.332 -0.8204 -2.5625  2.6109
  977MOL0     H31882   1.379   1.938   2.174  2.6203 -0.2049 -1.0781
  977MOL0     H31883   1.056   1.747   2.027  0.3187  0.5754 -0.5097
  977MOL0     H31884   1.167   1.643   1.927  2.2544 -0.1609  2.0990
  977MOL0     H31885   1.203   1.826   1.769 -1.0364  4.5335 -0.7580
  977MOL0     H31886   1.085   1.920   1.861  0.2612 -1.0114  1.5848
  977MOL0     H31887   1.034   1.654   1.742 -1.5381 -0.3147  0.4865
  977MOL0     H31888   0.990   1.793   1.641 -1.7134 -2.9363 -1.1687
  977MOL0     H31889   0.782   1.747   1.747 -2.1378  0.9939  3.6292
  977MOL0     H31890   0.857   1.700   1.896 -2.5765 -0.9938 -1.6058
  977MOL0     H31891   0.752   2.108   1.944 -2.1741 -0.5592  3.0284
  977MOL0     H31892   1.263   1.536   2.074 -2.3174 -1.3157  3.8582
  977MOL0     H31893   1.560   1.401   2.179  0.3990 -1.6189  0.3694
  977MOL0     H31894   1.425   1.339   2.272 -1.6043 -0.3152 -1.1199
  977MOL0     H31895   1.395   1.370   2.102 -2.1686  0.4283  1.3341
  978MOL0     O31896   7.859   8.247   7.922 -0.3335  0.3790 -0.5838
  978MOL0     C31897   7.789   8.259   8.022  0.0464 -0.8402 -0.4185
  978MOL0     O31898   7.831   8.294   8.142  0.3422 -0.0766  0.5299
  978MOL0     C31899   7.958   8.328   8.173  0.0210  0.1978 -0.4195
  978MOL0     C31900   7.963   8.371   8.305 -0.5954 -0.1243 -0.5813
  978MOL0     C31901   8.083   8.424   8.361 -0.0520  0.6339 -0.3786
  978MOL0     C31902   8.197   8.433   8.279  0.9680 -0.3080 -0.8016
  978MOL0     O31903   8.315   8.464   8.343  0.3711 -0.7155  0.2741
  978MOL0     C31904   8.436   8.495   8.277  0.5289  0.8800 -0.3456
  978MOL0     C31905   8.545   8.517   8.384  0.2180  0.7301 -0.2503
  978MOL0     C31906   8.685   8.521   8.323 -0.1418 -0.0163 -0.1161
  978MOL0     C31907   8.707   8.657   8.245  0.1898  0.1985 -0.1921
  978MOL0     C31908   8.853   8.672   8.195  0.6565 -0.4878  0.3497
  978MOL0     C31909   8.886   8.817   8.140  0.6716  1.1155 -0.5783
  978MOL0     C31910   9.027   8.811   8.098 -0.0645 -0.1025  0.4925
  978MOL0     C31911   9.070   8.920   7.999  0.3910 -0.1137 -0.8983
  978MOL0     N31912   9.208   8.963   8.001  0.2139  0.9038  0.2645
  978MOL0     C31913   9.266   9.040   8.094  0.3451 -0.2531 -0.4687
  978MOL0     C31914   9.399   9.038   8.062 -0.6127 -0.1221  1.0571
  978MOL0     C31915   9.512   9.089   8.145 -0.1192 -0.2549  0.9701
  978MOL0     C31916   9.632   8.997   8.148  0.1540 -0.0156 -0.0718
  978MOL0     C31917   9.709   8.993   8.012  0.2002  0.5716 -0.2440
  978MOL0     C31918   9.859   9.023   8.030 -0.2183  0.2771 -0.1741
  978MOL0     O31919   9.916   9.026   7.899  0.0040 -0.1273 -0.4528
  978MOL0     C31920  10.049   9.059   7.888 -0.2142  0.6257  0.6782
  978MOL0     C31921  10.134   9.087   7.991  0.0796  1.2676 -0.4044
  978MOL0     C31922  10.267   9.117   7.975  0.1759  0.7960  0.2166
  978MOL0     C31923  10.321   9.118   7.845 -0.4147  0.2548  0.1620
  978MOL0     C31924  10.462   9.165   7.822  1.1025  1.1813  0.6213
  978MOL0     O31925  10.504   9.145   7.701  0.1134 -0.1575  0.8544
  978MOL0     C31926  10.632   9.183   7.664  0.0034 -0.2000 -0.6156
  978MOL0     C31927  10.650   9.267   7.552  0.6562  0.2113 -0.3252
  978MOL0     C31928  10.777   9.280   7.499 -0.1837 -0.4268 -0.6230
  978MOL0     C31929  10.895   9.234   7.556 -0.0763 -0.3725  0.2761
  978MOL0     O31930  11.016   9.260   7.497  0.0357  0.0415  0.2364
  978MOL0     C31931  11.125   9.171   7.530 -0.1213  0.5940  0.2647
  978MOL0     C31932  11.246   9.186   7.438  1.1887  0.3014  0.2737
  978MOL0     C31933  11.369   9.113   7.487 -0.8888  0.3349 -0.0974
  978MOL0     C31934  11.493   9.166   7.400 -0.5222  0.6379 -0.6675
  978MOL0     C31935  11.570   9.287   7.467  0.0425 -0.2627  0.0072
  978MOL0     C31936  11.516   9.426   7.423  0.1675 -0.1646  0.6196
  978MOL0     C31937  11.537   9.457   7.270 -0.0486  0.2766  0.6872
  978MOL0     C31938  11.686   9.476   7.231 -0.1007 -0.5779  0.8824
  978MOL0    Cl31939  11.754   9.613   7.326 -0.2332 -0.2530  0.2625
  978MOL0     C31940  10.878   9.165   7.677 -0.6311 -0.5629  0.6242
  978MOL0     C31941  10.748   9.147   7.727  0.9159 -0.7811  0.1175
  978MOL0     O31942  10.523   9.213   7.923 -0.2280 -0.0399 -0.0557
  978MOL0     C31943  10.232   9.105   7.729  0.1694  1.1743 -0.0344
  978MOL0     C31944  10.093   9.076   7.753 -0.1659  0.1131 -0.1442
  978MOL0     N31945   9.418   8.976   7.942  0.0026  0.6155 -0.1070
  978MOL0     N31946   9.301   8.933   7.905 -0.0209 -0.2244 -0.2912
  978MOL0     C31947   8.193   8.385   8.147  0.0054 -0.5681 -0.2411
  978MOL0     C31948   8.070   8.329   8.094 -0.0209  0.2882 -0.1379
  978MOL0     C31949   7.646   8.216   8.016  0.0982 -0.2015  0.0564
  978MOL0     C31950   7.564   8.211   8.133  0.8461  0.2885 -0.4642
  978MOL0     C31951   7.427   8.172   8.136  0.1087 -0.1722 -1.1468
  978MOL0     C31952   7.360   8.143   8.021  0.5031  1.0740 -0.0621
  978MOL0     O31953   7.226   8.126   8.030 -0.1864 -0.4256 -0.8257
  978MOL0     C31954   7.153   8.087   7.908 -0.4539  1.1387 -0.4118
  978MOL0     C31955   7.165   7.940   7.885  0.0081  0.7136 -0.2577
  978MOL0     C31956   7.123   7.855   8.001 -0.5864 -0.8283  0.5127
  978MOL0     C31957   7.172   7.707   7.993 -0.3735 -0.3115 -0.3354
  978MOL0     C31958   7.121   7.645   7.869 -0.6004  0.8521  0.0206
  978MOL0     C31959   7.106   7.587   7.763 -0.2098 -0.3009  0.3000
  978MOL0     C31960   7.434   8.136   7.902 -0.5610  0.2049  0.5906
  978MOL0     C31961   7.574   8.179   7.895 -0.1920  0.3352 -0.2450
  978MOL0     C31962   7.626   8.210   7.762 -0.6041 -0.1415  0.8471
  978MOL0     H31963   7.868   8.376   8.358  0.7040 -0.3232  1.9049
  978MOL0     H31964   8.089   8.456   8.464  1.6808  2.0457 -0.8605
  978MOL0     H31965   8.467   8.412   8.214 -1.0648 -0.5022  0.5761
  978MOL0     H31966   8.416   8.583   8.216 -1.7261 -0.0355 -1.0581
  978MOL0     H31967   8.551   8.442   8.463  0.6886  1.1118  0.0788
  978MOL0     H31968   8.531   8.613   8.435  1.6216  0.3047  1.0128
  978MOL0     H31969   8.696   8.440   8.250  3.0527 -0.4240  0.6296
  978MOL0     H31970   8.760   8.520   8.403 -1.4832  4.6742  1.4986
  978MOL0     H31971   8.630   8.665   8.168  0.2036 -0.7553 -0.3154
  978MOL0     H31972   8.686   8.736   8.317  0.5961 -0.4162  0.6278
  978MOL0     H31973   8.924   8.644   8.272  2.2247  0.0598 -0.8356
  978MOL0     H31974   8.870   8.601   8.114 -1.3283 -0.5120 -0.1026
  978MOL0     H31975   8.826   8.842   8.052  1.3538  1.8054 -0.8610
  978MOL0     H31976   8.865   8.897   8.211  1.0361  3.5536 -3.0438
  978MOL0     H31977   9.044   8.719   8.041  0.1023  0.5215 -0.4807
  978MOL0     H31978   9.088   8.804   8.189  2.0914  2.0746 -0.6618
  978MOL0     H31979   9.036   8.895   7.898  1.6365  1.8214 -1.8664
  978MOL0     H31980   9.006   9.001   8.036 -1.4110 -1.9165  0.1181
  978MOL0     H31981   9.210   9.078   8.179  0.4277 -2.0154  0.4247
  978MOL0     H31982   9.537   9.189   8.106 -0.2950 -1.7555 -3.5823
  978MOL0     H31983   9.476   9.104   8.247  0.2419  2.9694  0.7258
  978MOL0     H31984   9.695   9.018   8.235  2.2582  3.5632 -2.2178
  978MOL0     H31985   9.594   8.896   8.166 -0.1682  0.3792  1.6201
  978MOL0     H31986   9.661   9.048   7.931  0.8722  2.2581  0.4495
  978MOL0     H31987   9.716   8.886   7.990  1.8892  0.5576  0.1877
  978MOL0     H31988   9.906   8.949   8.095  0.7081  0.7025 -0.3498
  978MOL0     H31989   9.850   9.119   8.083  3.9272  0.0456  1.2965
  978MOL0     H31990  10.092   9.093   8.091 -1.8026  5.6629 -1.2146
  978MOL0     H31991  10.339   9.151   8.049  1.7664 -0.0939 -0.8645
  978MOL0     H31992  10.566   9.295   7.489  2.1520 -1.1792 -3.1141
  978MOL0     H31993  10.774   9.330   7.403  1.5365  0.5868 -0.1814
  978MOL0     H31994  11.160   9.177   7.633  3.2280 -2.1848 -0.5420
  978MOL0     H31995  11.081   9.074   7.505  1.3454 -0.2752  0.9445
  978MOL0     H31996  11.223   9.152   7.337 -0.0062  2.1856 -0.1419
  978MOL0     H31997  11.261   9.295   7.435 -0.1897  0.4895 -2.1257
  978MOL0     H31998  11.404   9.123   7.590  0.5604 -1.1624 -0.3935
  978MOL0     H31999  11.354   9.006   7.472 -0.8631  0.1333  1.2155
  978MOL0     H32000  11.474   9.192   7.296 -1.0520  1.6299 -0.3306
  978MOL0     H32001  11.561   9.080   7.403  0.1673  1.1087 -2.1284
  978MOL0     H32002  11.675   9.278   7.438  0.0226 -2.1485  0.3586
  978MOL0     H32003  11.563   9.276   7.575  0.8734 -0.3523  0.0611
  978MOL0     H32004  11.409   9.434   7.446  0.0094 -0.2090 -0.0783
  978MOL0     H32005  11.563   9.507   7.480  1.3278 -0.7444  0.5179
  978MOL0     H32006  11.486   9.551   7.248  2.1577  1.5474  0.7600
  978MOL0     H32007  11.503   9.378   7.202  1.6755  0.4194 -0.3888
  978MOL0     H32008  11.742   9.383   7.244  0.8622 -0.4260 -1.6991
  978MOL0     H32009  11.701   9.494   7.124  1.9341  0.0239  1.2299
  978MOL0     H32010  10.971   9.144   7.727  0.3135  1.4737 -0.1426
  978MOL0     H32011  10.749   9.097   7.823  0.8083 -3.3504 -1.1402
  978MOL0     H32012  10.254   9.118   7.623 -3.6538  0.8350 -1.0204
  978MOL0     H32013  10.020   9.068   7.674  0.0423  1.3827 -0.4927
  978MOL0     H32014   8.280   8.377   8.082 -1.1259 -3.2616 -1.6203
  978MOL0     H32015   8.076   8.287   7.994  1.2609  1.3896 -0.5651
  978MOL0     H32016   7.615   8.214   8.228 -1.9378  0.4917  1.1204
  978MOL0     H32017   7.380   8.161   8.233 -0.0564  0.5690 -1.1387
  978MOL0     H32018   7.179   8.142   7.817  0.5382 -1.6376 -1.9416
  978MOL0     H32019   7.047   8.103   7.928 -1.0997 -3.6341  1.4442
  978MOL0     H32020   7.267   7.911   7.858 -0.6116 -0.1728 -1.7809
  978MOL0     H32021   7.105   7.929   7.794  0.9673 -0.6293 -0.7667
  978MOL0     H32022   7.014   7.858   8.013 -0.8161  0.1223 -1.4844
  978MOL0     H32023   7.157   7.891   8.099 -0.3856  3.5635 -0.9612
  978MOL0     H32024   7.281   7.697   7.989 -0.3344  0.0517 -0.2189
  978MOL0     H32025   7.136   7.649   8.078  0.9405  1.1916  1.3432
  978MOL0     H32026   7.106   7.534   7.670 -1.6815 -0.5187  0.3952
  978MOL0     H32027   7.393   8.104   7.806 -0.2128  1.4706 -0.0019
  978MOL0     H32028   7.702   8.139   7.730  0.6735  0.9478  1.3883
  978MOL0     H32029   7.556   8.212   7.677  1.2651 -0.9260 -0.7948
  978MOL0     H32030   7.663   8.313   7.769 -2.3474  0.4047  3.6906
  979MOL0     O32031   9.910   8.520   2.647  0.0683  0.0024 -0.3919
  979MOL0     C32032   9.879   8.423   2.584 -0.1502 -0.5857 -0.0756
  979MOL0     O32033   9.972   8.354   2.512  0.0892  0.4247  0.4470
  979MOL0     C32034  10.094   8.399   2.505 -0.1917  0.2635  0.3627
  979MOL0     C32035  10.182   8.332   2.590 -0.3095  0.7152  0.3853
  979MOL0     C32036  10.308   8.382   2.615  0.0191  0.2752 -0.2823
  979MOL0     C32037  10.346   8.505   2.552  0.5808 -0.3603 -0.0869
  979MOL0     O32038  10.467   8.562   2.576 -0.2974  0.3442  0.5716
  979MOL0     C32039  10.481   8.663   2.676  0.5758 -0.1554 -0.4247
  979MOL0     C32040  10.435   8.633   2.820  0.0032  0.4873 -0.8950
  979MOL0     C32041  10.524   8.526   2.877 -0.2902 -0.0743 -0.7562
  979MOL0     C32042  10.459   8.457   2.999 -0.4205 -0.5117  1.0093
  979MOL0     C32043  10.561   8.395   3.097 -0.2373  0.0341  0.1857
  979MOL0     C32044  10.497   8.266   3.156  0.0071 -0.3379 -0.4071
  979MOL0     C32045  10.591   8.206   3.252  0.2961 -0.9726  0.1735
  979MOL0     C32046  10.533   8.073   3.304  0.1796 -0.3764  0.1898
  979MOL0     N32047  10.620   7.991   3.386 -0.1383 -0.4874  0.5071
  979MOL0     C32048  10.665   8.013   3.510  1.1621 -0.1490 -0.1159
  979MOL0     C32049  10.755   7.918   3.534  0.2315 -0.2721 -0.0027
  979MOL0     C32050  10.827   7.902   3.675  1.1207  0.0762 -0.0640
  979MOL0     C32051  10.978   7.894   3.659  0.1727  0.5141 -0.3523
  979MOL0     C32052  11.027   7.793   3.549 -0.1550 -0.3424  0.8787
  979MOL0     C32053  11.177   7.766   3.560 -0.3758  0.3407  0.4484
  979MOL0     O32054  11.247   7.887   3.588 -0.0711  0.5432  0.2370
  979MOL0     C32055  11.381   7.881   3.594  0.6126 -0.7864  0.3769
  979MOL0     C32056  11.452   7.766   3.630  0.6755  0.0929 -0.0828
  979MOL0     C32057  11.593   7.774   3.637 -0.0529  0.0125  0.1814
  979MOL0     C32058  11.665   7.891   3.591  0.6590 -0.7012 -0.4610
  979MOL0     C32059  11.808   7.906   3.600  0.8726 -0.3315 -0.0662
  979MOL0     O32060  11.882   7.816   3.676  0.4845  0.4897  0.1995
  979MOL0     C32061  12.014   7.851   3.681  0.5041  0.5777  0.2701
  979MOL0     C32062  12.050   7.948   3.775  0.3767  0.9437 -1.0212
  979MOL0     C32063  12.185   7.978   3.805  0.6312  0.1436 -0.0702
  979MOL0     C32064  12.287   7.928   3.723  0.1314  0.0871 -0.3049
  979MOL0     O32065  12.418   7.980   3.745  0.0279 -0.4103 -0.0386
  979MOL0     C32066  12.471   8.026   3.620 -0.0772 -0.6221  0.3732
  979MOL0     C32067  12.577   7.923   3.565  0.1439  0.1182  0.4728
  979MOL0     C32068  12.686   7.917   3.670 -0.2818 -0.1886  0.3051
  979MOL0     C32069  12.799   7.824   3.616 -1.3123  0.4832 -0.4948
  979MOL0     C32070  12.912   7.797   3.717 -0.1080 -0.6730  0.5654
  979MOL0     C32071  13.013   7.695   3.661 -0.5257 -0.0544 -0.6283
  979MOL0     C32072  13.093   7.755   3.539  0.6795 -0.9393  0.1112
  979MOL0     C32073  13.223   7.675   3.518 -0.4686  0.6283 -0.9414
  979MOL0    Cl32074  13.179   7.536   3.419 -0.4329  0.2384  0.2332
  979MOL0     C32075  12.246   7.835   3.627  0.0282  1.2419 -0.2906
  979MOL0     C32076  12.114   7.786   3.606  1.1118 -0.1013 -0.3505
  979MOL0     O32077  11.855   8.003   3.551  0.5775 -0.6578  0.5347
  979MOL0     C32078  11.587   8.006   3.558 -0.1856  0.3048 -0.4207
  979MOL0     C32079  11.450   8.003   3.567 -0.0126 -0.4614  0.3310
  979MOL0     N32080  10.765   7.832   3.423 -0.6598 -0.2495  1.0550
  979MOL0     N32081  10.683   7.880   3.333 -0.0640  0.5905  0.0633
  979MOL0     C32082  10.259   8.563   2.455 -0.1555  0.0355 -0.1610
  979MOL0     C32083  10.134   8.512   2.438 -0.5354  0.6852  1.2106
  979MOL0     C32084   9.735   8.390   2.581 -0.7618 -0.2061 -0.4306
  979MOL0     C32085   9.666   8.417   2.703  0.4529 -0.2921  0.0038
  979MOL0     C32086   9.528   8.396   2.708  0.5153  1.2371 -0.6704
  979MOL0     C32087   9.466   8.327   2.602  0.2585 -0.5316  0.1347
  979MOL0     O32088   9.341   8.283   2.624 -0.5630 -0.4171  0.1993
  979MOL0     C32089   9.236   8.359   2.558  0.5018 -0.2879  0.0303
  979MOL0     C32090   9.102   8.295   2.608  0.3087  0.6471 -0.7295
  979MOL0     C32091   9.072   8.321   2.761 -0.2615  0.2569 -1.8080
  979MOL0     C32092   8.974   8.222   2.829 -0.1835  0.2231 -0.2354
  979MOL0     C32093   9.027   8.086   2.836 -0.0294 -0.2805 -0.0734
  979MOL0     C32094   9.080   7.979   2.852 -0.3699 -0.3570  0.4421
  979MOL0     C32095   9.533   8.299   2.487 -0.4479 -0.2568 -0.6461
  979MOL0     C32096   9.667   8.336   2.466  0.5903 -0.2890  0.1772
  979MOL0     C32097   9.744   8.303   2.344 -0.3323 -0.3332  0.3273
  979MOL0     H32098  10.154   8.239   2.639  3.1764  0.1790  1.6320
  979MOL0     H32099  10.370   8.325   2.683  1.8052  4.4469  1.8954
  979MOL0     H32100  10.580   8.707   2.669 -0.5533  2.5497 -0.5970
  979MOL0     H32101  10.412   8.743   2.645  0.2542 -0.2839 -0.0540
  979MOL0     H32102  10.329   8.607   2.823  0.5372 -1.8608  0.7438
  979MOL0     H32103  10.451   8.728   2.872 -0.8974 -0.2601  0.8521
  979MOL0     H32104  10.612   8.581   2.910 -2.2584  2.3360  0.7698
  979MOL0     H32105  10.549   8.452   2.800  0.1611 -2.6562  1.7216
  979MOL0     H32106  10.403   8.529   3.060  2.3711  0.4937  2.5621
  979MOL0     H32107  10.388   8.379   2.970 -2.5144  1.0230  1.7364
  979MOL0     H32108  10.659   8.383   3.050  1.2482  0.2796  2.9664
  979MOL0     H32109  10.578   8.465   3.180  0.6287 -2.3514  2.1351
  979MOL0     H32110  10.412   8.299   3.216  2.2867  0.6109  2.5332
  979MOL0     H32111  10.459   8.189   3.088 -0.2491  0.4851 -1.2240
  979MOL0     H32112  10.608   8.276   3.334 -0.3959 -0.8671  0.2296
  979MOL0     H32113  10.686   8.190   3.200 -0.4218 -2.3228 -0.7784
  979MOL0     H32114  10.442   8.087   3.363 -0.6773 -1.5477 -0.8190
  979MOL0     H32115  10.501   8.011   3.220 -0.1169  2.4166 -1.8937
  979MOL0     H32116  10.635   8.095   3.574  0.0234 -1.6055  1.2733
  979MOL0     H32117  10.780   7.976   3.740 -3.3263 -1.4428 -1.1735
  979MOL0     H32118  10.796   7.808   3.721 -0.3700  1.7395  2.6364
  979MOL0     H32119  11.014   7.996   3.641 -3.9993  2.1935 -0.3974
  979MOL0     H32120  11.001   7.859   3.760 -1.4736 -2.0816 -0.7898
  979MOL0     H32121  11.000   7.829   3.450 -0.3622  1.8632  1.6899
  979MOL0     H32122  10.971   7.702   3.573  2.3664 -1.9865  0.9973
  979MOL0     H32123  11.216   7.725   3.467  1.4323  0.5770  1.0673
  979MOL0     H32124  11.190   7.691   3.638 -2.7217 -2.5613 -1.7334
  979MOL0     H32125  11.401   7.673   3.653 -0.5356 -0.1505 -3.3096
  979MOL0     H32126  11.654   7.689   3.666  2.1433  1.1550 -0.8586
  979MOL0     H32127  11.975   7.980   3.846 -0.2821 -2.1375 -0.1720
  979MOL0     H32128  12.213   8.041   3.889  2.4304  1.6720 -1.7209
  979MOL0     H32129  12.395   8.045   3.543 -0.1971 -0.3973  0.5454
  979MOL0     H32130  12.530   8.118   3.621 -0.3554 -0.4012 -1.4212
  979MOL0     H32131  12.530   7.826   3.545 -0.2858  0.1456  1.3144
  979MOL0     H32132  12.624   7.953   3.471  3.2114 -3.0244  0.7940
  979MOL0     H32133  12.730   8.018   3.676 -0.6720 -0.0185  0.3000
  979MOL0     H32134  12.638   7.890   3.764 -1.3547 -1.8214 -0.6605
  979MOL0     H32135  12.838   7.859   3.520 -0.5068 -2.4959 -1.3687
  979MOL0     H32136  12.759   7.723   3.600  1.8301 -0.6266 -2.0849
  979MOL0     H32137  12.872   7.766   3.814 -1.3747  0.8346  0.5566
  979MOL0     H32138  12.971   7.887   3.736  0.6400 -1.0502  0.0625
  979MOL0     H32139  13.082   7.682   3.744 -0.2168 -0.4651 -0.9473
  979MOL0     H32140  12.969   7.597   3.637 -1.8717  0.8284 -1.9740
  979MOL0     H32141  13.113   7.862   3.550  1.5793 -0.7865 -2.4110
  979MOL0     H32142  13.024   7.748   3.454  0.0941  0.5267  0.4280
  979MOL0     H32143  13.297   7.728   3.458 -1.1563  3.0992  0.2749
  979MOL0     H32144  13.274   7.647   3.611 -0.1958  1.4096 -0.8533
  979MOL0     H32145  12.320   7.784   3.567 -0.1796 -0.2692  0.6894
  979MOL0     H32146  12.081   7.723   3.524  1.5130 -0.6591 -0.0859
  979MOL0     H32147  11.635   8.093   3.514  0.1481  0.0367 -0.5960
  979MOL0     H32148  11.382   8.086   3.547  0.9429  0.0790 -0.7874
  979MOL0     H32149  10.290   8.652   2.400 -0.7869 -0.5650 -1.5269
  979MOL0     H32150  10.068   8.561   2.366  1.3045 -0.6249 -1.5388
  979MOL0     H32151   9.718   8.452   2.792  2.8975  1.2187 -1.8759
  979MOL0     H32152   9.466   8.428   2.791 -0.1809  0.1516 -0.7488
  979MOL0     H32153   9.234   8.351   2.449 -2.9261  0.6786 -0.0729
  979MOL0     H32154   9.238   8.464   2.591  0.5841 -0.7454  1.5815
  979MOL0     H32155   9.103   8.186   2.598  1.1880  0.5141  0.5722
  979MOL0     H32156   9.013   8.324   2.551 -0.0539  1.7977  0.3845
  979MOL0     H32157   9.027   8.420   2.769 -0.7654 -0.1362  2.5751
  979MOL0     H32158   9.165   8.329   2.818 -0.7720  1.4651 -1.1054
  979MOL0     H32159   8.948   8.249   2.932  1.1988 -0.8287  0.4291
  979MOL0     H32160   8.880   8.225   2.773 -0.0534 -0.1204 -0.4774
  979MOL0     H32161   9.136   7.888   2.862 -0.1417 -0.2131  0.4817
  979MOL0     H32162   9.478   8.241   2.414  2.5217 -3.6860 -0.4439
  979MOL0     H32163   9.835   8.358   2.318 -0.1819 -0.8020 -0.1582
  979MOL0     H32164   9.759   8.195   2.350 -0.4915 -0.2983  1.7184
  979MOL0     H32165   9.686   8.337   2.257  4.6828  1.8854 -2.5736
  980MOL0     O32166   7.686   6.636   8.130  0.1419 -0.4096 -0.2519
  980MOL0     C32167   7.602   6.691   8.199  0.2017 -0.1587  0.7344
  980MOL0     O32168   7.626   6.815   8.262  0.3516  0.2363 -0.4738
  980MOL0     C32169   7.742   6.878   8.233  0.5426 -0.5102  0.9520
  980MOL0     C32170   7.745   6.971   8.129  0.0465 -0.0446 -0.2380
  980MOL0     C32171   7.859   7.046   8.092  0.4800  0.6827  0.5640
  980MOL0     C32172   7.979   7.009   8.152 -1.2452  0.3962  0.6049
  980MOL0     O32173   8.099   7.063   8.115 -0.2537 -0.2078  0.2789
  980MOL0     C32174   8.104   7.178   8.025  0.8609  0.5029  0.2632
  980MOL0     C32175   8.084   7.148   7.881 -0.2888  0.0347  0.2936
  980MOL0     C32176   8.086   7.276   7.795  0.9689  0.6961  0.2545
  980MOL0     C32177   8.081   7.249   7.637 -0.4348 -0.6388  1.2615
  980MOL0     C32178   8.223   7.245   7.578 -0.2809  0.3658 -0.3302
  980MOL0     C32179   8.234   7.160   7.449  0.9493 -0.4330  0.5996
  980MOL0     C32180   8.372   7.164   7.383 -0.0541 -0.7232  0.1454
  980MOL0     C32181   8.483   7.101   7.464  0.4347  0.2127  0.0506
  980MOL0     N32182   8.618   7.130   7.404  0.0939 -0.3608 -0.7048
  980MOL0     C32183   8.680   7.054   7.310  1.7471  0.8359 -0.8204
  980MOL0     C32184   8.767   7.139   7.254 -0.3373 -0.6461 -0.0439
  980MOL0     C32185   8.844   7.105   7.129 -0.3406  0.7233  0.9734
  980MOL0     C32186   9.000   7.069   7.157  0.8050  0.7392 -0.1980
  980MOL0     C32187   9.072   7.202   7.204 -0.1602  0.0851 -0.4341
  980MOL0     C32188   9.226   7.187   7.205 -0.5049 -0.4415 -0.6118
  980MOL0     O32189   9.272   7.320   7.239  0.5908 -0.4579  0.7930
  980MOL0     C32190   9.386   7.349   7.171 -0.5337  0.2718  0.3400
  980MOL0     C32191   9.494   7.270   7.204  0.4946  0.3720  0.1056
  980MOL0     C32192   9.600   7.279   7.116 -0.2661  0.5835 -0.7482
  980MOL0     C32193   9.611   7.379   7.010 -0.5639  0.1093  0.0462
  980MOL0     C32194   9.730   7.382   6.910  0.5642  0.0446 -0.3259
  980MOL0     O32195   9.815   7.280   6.906  0.1635  0.1322  0.0911
  980MOL0     C32196   9.863   7.228   6.789 -0.2413  0.7267  0.0130
  980MOL0     C32197   9.799   7.244   6.671  0.3339  0.1230  0.2603
  980MOL0     C32198   9.850   7.189   6.552 -1.5875 -0.3807  0.9450
  980MOL0     C32199   9.969   7.111   6.540  0.1216 -0.2954 -0.7806
  980MOL0     O32200  10.010   7.059   6.426 -0.3493  1.4098 -0.1324
  980MOL0     C32201   9.926   6.976   6.358  0.5777  1.4801  0.4289
  980MOL0     C32202   9.965   6.836   6.400 -0.8057  0.7923 -0.1376
  980MOL0     C32203   9.903   6.723   6.304 -0.1567 -0.3248  0.0799
  980MOL0     C32204   9.757   6.696   6.324 -1.2571 -0.7198 -0.1011
  980MOL0     C32205   9.706   6.589   6.230  0.0370  0.0065 -0.4428
  980MOL0     C32206   9.561   6.552   6.246 -0.3483 -1.2259  0.4271
  980MOL0     C32207   9.540   6.470   6.370  0.4614  0.6065 -0.8712
  980MOL0     C32208   9.400   6.405   6.378  0.7445 -0.1369 -0.5854
  980MOL0    Cl32209   9.283   6.542   6.370  0.0523  0.1095 -0.5429
  980MOL0     C32210  10.034   7.102   6.661 -0.0550  0.1727  0.4641
  980MOL0     C32211   9.984   7.160   6.782 -0.9464 -0.1178 -0.2611
  980MOL0     O32212   9.759   7.483   6.848  1.2402 -0.1239 -0.8518
  980MOL0     C32213   9.508   7.473   7.002  0.4145 -1.0707  0.0523
  980MOL0     C32214   9.389   7.454   7.074 -0.2688  0.1566 -0.2605
  980MOL0     N32215   8.759   7.267   7.304 -0.1886 -0.4992 -0.5530
  980MOL0     N32216   8.667   7.257   7.400  0.7622  0.3132  0.0819
  980MOL0     C32217   7.975   6.913   8.255 -0.2492 -0.0549  0.7169
  980MOL0     C32218   7.859   6.847   8.298 -0.9363 -0.1649  0.1257
  980MOL0     C32219   7.455   6.644   8.197 -0.9793 -0.4816  0.4288
  980MOL0     C32220   7.361   6.730   8.262  0.2566  0.7159  0.9088
  980MOL0     C32221   7.224   6.702   8.256  0.1840 -0.1280  0.2302
  980MOL0     C32222   7.174   6.579   8.195 -0.7185  0.5605 -0.3231
  980MOL0     O32223   7.043   6.561   8.212  0.4222 -0.3833 -0.2821
  980MOL0     C32224   6.991   6.436   8.165 -1.2313  0.3093 -0.8771
  980MOL0     C32225   6.847   6.420   8.196  0.4170  0.7378  0.4194
  980MOL0     C32226   6.756   6.512   8.112 -0.1005  0.2739  0.1790
  980MOL0     C32227   6.638   6.557   8.191  0.4297  0.1533  0.2875
  980MOL0     C32228   6.551   6.457   8.249 -0.2208  0.6366  0.8564
  980MOL0     C32229   6.496   6.369   8.305  0.7073  0.3359  0.2395
  980MOL0     C32230   7.268   6.491   8.142  0.3612  1.3115  0.5773
  980MOL0     C32231   7.397   6.527   8.131 -0.6648  0.4672  0.0468
  980MOL0     C32232   7.490   6.421   8.076 -0.3021  0.6870  0.8417
  980MOL0     H32233   7.650   6.986   8.079  0.1470  0.4683 -0.2753
  980MOL0     H32234   7.846   7.118   8.011 -0.0739 -1.7561 -1.6557
  980MOL0     H32235   8.037   7.257   8.059 -0.1937  0.7728 -2.2395
  980MOL0     H32236   8.205   7.217   8.040  0.3494  1.7138  0.6766
  980MOL0     H32237   7.993   7.088   7.874 -0.9792  1.1602 -0.7047
  980MOL0     H32238   8.157   7.075   7.844 -1.8022 -0.8184 -1.1509
  980MOL0     H32239   8.177   7.332   7.819 -0.0669  2.1775  0.8594
  980MOL0     H32240   7.998   7.339   7.805 -0.6524 -1.1604 -1.3704
  980MOL0     H32241   8.020   7.162   7.609  1.7774 -2.0443  0.6013
  980MOL0     H32242   8.029   7.335   7.594 -1.7722 -2.9083 -2.0361
  980MOL0     H32243   8.257   7.347   7.559 -0.3896  0.8981  2.0519
  980MOL0     H32244   8.285   7.201   7.657 -2.7139  1.4464  2.3968
  980MOL0     H32245   8.196   7.060   7.470 -1.5319  0.3116 -0.0013
  980MOL0     H32246   8.168   7.211   7.378  0.9878 -1.1431  0.0408
  980MOL0     H32247   8.399   7.269   7.370 -2.7711  0.1771  1.1264
  980MOL0     H32248   8.363   7.115   7.286  0.2464 -0.8315  0.1715
  980MOL0     H32249   8.477   7.144   7.565 -1.8013 -0.5649  0.3005
  980MOL0     H32250   8.459   6.997   7.486 -2.1486  1.2214  2.6482
  980MOL0     H32251   8.651   6.960   7.265  0.8329  0.7885 -0.1704
  980MOL0     H32252   8.805   7.015   7.080  2.1921  0.7255 -1.2913
  980MOL0     H32253   8.833   7.184   7.054  0.4290 -0.9499 -0.9849
  980MOL0     H32254   9.011   6.994   7.235 -0.0935  1.8661  1.0757
  980MOL0     H32255   9.046   7.037   7.063  0.0367 -0.9247 -0.0508
  980MOL0     H32256   9.041   7.224   7.306 -0.4639  1.0662 -0.7240
  980MOL0     H32257   9.042   7.281   7.134  2.4718 -0.7855 -2.7033
  980MOL0     H32258   9.261   7.150   7.108 -1.2765 -1.8113 -0.3962
  980MOL0     H32259   9.259   7.101   7.264 -2.7062 -1.2020 -0.3672
  980MOL0     H32260   9.481   7.195   7.281  1.5302  0.3588  0.2851
  980MOL0     H32261   9.686   7.216   7.137 -0.4712  1.3907  3.3976
  980MOL0     H32262   9.695   7.275   6.672  0.0193 -0.7708 -1.5286
  980MOL0     H32263   9.801   7.207   6.457  0.3049 -0.0162 -0.0059
  980MOL0     H32264   9.821   7.002   6.375  0.1973 -0.5369  1.5417
  980MOL0     H32265   9.948   6.976   6.251 -1.3129 -2.8279 -0.1925
  980MOL0     H32266  10.074   6.834   6.397 -0.5879  3.3489  2.0414
  980MOL0     H32267   9.928   6.815   6.501  1.2868 -4.6220 -0.1630
  980MOL0     H32268   9.920   6.749   6.199  2.9063 -1.3817  0.2191
  980MOL0     H32269   9.962   6.635   6.331 -0.8173 -0.2787  1.8354
  980MOL0     H32270   9.701   6.789   6.315  2.2746  1.3948 -2.2235
  980MOL0     H32271   9.756   6.658   6.427  0.2986 -1.0707 -0.1970
  980MOL0     H32272   9.763   6.496   6.240 -1.5659 -1.0909 -1.0835
  980MOL0     H32273   9.727   6.632   6.131  1.6135  1.7730  0.5915
  980MOL0     H32274   9.508   6.648   6.243 -0.1170 -0.9824 -4.2135
  980MOL0     H32275   9.527   6.513   6.149  0.3999 -1.1830  0.1368
  980MOL0     H32276   9.539   6.528   6.462 -1.7034  2.0554 -1.7350
  980MOL0     H32277   9.615   6.390   6.377  1.4062  1.5010 -0.4970
  980MOL0     H32278   9.387   6.337   6.293  2.1040  1.1278 -1.8643
  980MOL0     H32279   9.392   6.353   6.474  0.2546  1.7996  0.4706
  980MOL0     H32280  10.127   7.047   6.674  1.1785  1.7345 -1.1403
  980MOL0     H32281  10.058   7.157   6.862 -0.4256  1.9042 -0.6081
  980MOL0     H32282   9.527   7.554   6.931 -0.3567  0.1127  1.1519
  980MOL0     H32283   9.299   7.511   7.056 -1.0884 -1.1067 -0.3260
  980MOL0     H32284   8.074   6.899   8.296 -0.4008 -2.8615  0.2871
  980MOL0     H32285   7.844   6.790   8.390 -3.0770  0.6597  0.3577
  980MOL0     H32286   7.400   6.817   8.313 -0.1409  2.1406 -1.0989
  980MOL0     H32287   7.152   6.758   8.316  0.5588 -0.1128  0.6652
  980MOL0     H32288   7.054   6.355   8.204  0.9695  1.0477 -2.7433
  980MOL0     H32289   7.005   6.435   8.057  0.7220 -3.8068 -0.7792
  980MOL0     H32290   6.839   6.441   8.303  0.3528  0.7145  0.4192
  980MOL0     H32291   6.819   6.314   8.194  3.5409 -0.1713 -1.0784
  980MOL0     H32292   6.726   6.461   8.021  0.4628  0.0856  0.0902
  980MOL0     H32293   6.812   6.589   8.058 -0.1200  0.0586 -0.1498
  980MOL0     H32294   6.670   6.613   8.279  1.3392  0.8344 -0.4627
  980MOL0     H32295   6.589   6.626   8.122 -0.8149 -1.9914 -1.1149
  980MOL0     H32296   6.460   6.292   8.370 -0.4602  2.9601  2.8988
  980MOL0     H32297   7.243   6.396   8.096  2.2383  0.4098  1.3280
  980MOL0     H32298   7.575   6.410   8.144 -0.6759  0.3517  1.2637
  980MOL0     H32299   7.443   6.322   8.080  0.3084  0.4059  1.2056
  980MOL0     H32300   7.528   6.427   7.974 -0.0711 -1.5630  0.7418
  981MOL0     O32301   8.234  10.431   9.209  0.0864  0.5173 -0.7265
  981MOL0     C32302   8.305  10.332   9.232  0.3885 -0.3671 -0.6448
  981MOL0     O32303   8.252  10.208   9.252 -0.0980 -0.2677 -0.0373
  981MOL0     C32304   8.117  10.201   9.264  0.2966 -0.6759 -0.5240
  981MOL0     C32305   8.047  10.090   9.213 -0.0225  0.3596 -0.3098
  981MOL0     C32306   7.920  10.068   9.255  0.3054  0.2012  0.1126
  981MOL0     C32307   7.845  10.158   9.346  0.1558  0.3552  0.7306
  981MOL0     O32308   7.707  10.131   9.363 -0.3564 -0.0647 -0.1199
  981MOL0     C32309   7.628  10.239   9.413  0.7301 -0.0651 -0.5378
  981MOL0     C32310   7.482  10.192   9.440  0.6007  0.4090 -0.2738
  981MOL0     C32311   7.390  10.299   9.490 -0.6622  0.4991 -0.5074
  981MOL0     C32312   7.360  10.411   9.395  0.0767  0.0289 -0.1680
  981MOL0     C32313   7.275  10.525   9.458 -0.4429  0.1963 -0.2250
  981MOL0     C32314   7.235  10.618   9.346  0.1826  0.1327 -0.7140
  981MOL0     C32315   7.118  10.703   9.389  0.1521 -0.3324 -0.0163
  981MOL0     C32316   7.126  10.786   9.521 -0.0583 -0.7003 -1.1206
  981MOL0     N32317   7.211  10.904   9.504 -0.1406  0.0867 -0.5956
  981MOL0     C32318   7.189  10.991   9.400 -0.1604  0.4294 -0.0884
  981MOL0     C32319   7.295  11.074   9.402 -0.8920 -0.6232  0.4769
  981MOL0     C32320   7.323  11.186   9.302  0.6875 -0.7996  0.4829
  981MOL0     C32321   7.460  11.253   9.313  0.4893 -0.1487  0.2492
  981MOL0     C32322   7.459  11.395   9.248 -0.0702  1.3168 -0.2092
  981MOL0     C32323   7.592  11.471   9.280 -0.0622  0.7853  0.0055
  981MOL0     O32324   7.576  11.597   9.217 -0.0002  0.0142  0.1108
  981MOL0     C32325   7.683  11.686   9.256 -0.1033  0.0010  0.9189
  981MOL0     C32326   7.794  11.657   9.337 -0.3220  1.2877 -0.3526
  981MOL0     C32327   7.901  11.747   9.362  0.4007 -1.2301  0.2174
  981MOL0     C32328   7.889  11.882   9.310  0.1281  0.2128  0.0312
  981MOL0     C32329   7.999  11.980   9.330  0.8426  0.4050 -0.2674
  981MOL0     O32330   8.110  11.941   9.383 -0.7018  0.2379  0.1607
  981MOL0     C32331   8.201  12.039   9.409 -0.8577  0.0683  0.1726
  981MOL0     C32332   8.221  12.076   9.541  0.7717 -0.7092  0.5443
  981MOL0     C32333   8.326  12.169   9.563 -0.5145  0.3611 -0.4615
  981MOL0     C32334   8.408  12.223   9.462  0.3371 -0.2358  0.8883
  981MOL0     O32335   8.509  12.323   9.484  0.2046 -0.8664  0.2927
  981MOL0     C32336   8.527  12.377   9.615  0.6274  0.0670 -0.6073
  981MOL0     C32337   8.632  12.486   9.610  0.7838  0.7883  0.0253
  981MOL0     C32338   8.766  12.430   9.598  0.2257 -0.1515  0.2620
  981MOL0     C32339   8.869  12.550   9.582  0.6268 -0.1306  0.7093
  981MOL0     C32340   9.006  12.490   9.544  0.3786  0.3925 -0.2888
  981MOL0     C32341   9.068  12.419   9.672  0.3213  0.1411  0.1062
  981MOL0     C32342   9.100  12.503   9.800 -0.6009 -0.5683  0.2624
  981MOL0     C32343   9.220  12.462   9.875  1.0624  0.1503  0.1868
  981MOL0    Cl32344   9.255  12.576  10.007 -0.1213 -0.4605  0.1485
  981MOL0     C32345   8.379  12.191   9.333 -0.3612 -1.1096  0.0150
  981MOL0     C32346   8.281  12.096   9.312 -0.2864 -0.7540  0.4952
  981MOL0     O32347   7.961  12.095   9.310 -0.2448  0.2301  0.0184
  981MOL0     C32348   7.770  11.916   9.230  0.0901 -0.0496  0.0064
  981MOL0     C32349   7.670  11.818   9.203 -0.3530  0.4805  0.4448
  981MOL0     N32350   7.374  11.044   9.515  0.5926 -0.3034 -0.9909
  981MOL0     N32351   7.327  10.934   9.567 -0.7844  0.4073  0.4687
  981MOL0     C32352   7.903  10.273   9.390 -1.6682  0.1771 -0.3221
  981MOL0     C32353   8.042  10.290   9.352 -0.0069  0.3473  0.8280
  981MOL0     C32354   8.454  10.345   9.243  0.1175  0.0149  0.1020
  981MOL0     C32355   8.532  10.220   9.252 -0.7302  0.9499 -0.6281
  981MOL0     C32356   8.666  10.226   9.278 -0.1816  0.0049  0.3605
  981MOL0     C32357   8.733  10.345   9.293 -0.2810  0.1377 -0.5107
  981MOL0     O32358   8.869  10.327   9.318 -0.4992 -0.0294  0.5780
  981MOL0     C32359   8.966  10.425   9.280  0.5960  0.4270  0.2725
  981MOL0     C32360   9.092  10.416   9.353  0.0178 -0.2309  0.8842
  981MOL0     C32361   9.189  10.317   9.300 -0.3321  0.4002  0.2778
  981MOL0     C32362   9.310  10.288   9.384 -1.1302 -0.5528 -0.8488
  981MOL0     C32363   9.430  10.306   9.308 -0.4424 -0.5747 -0.6354
  981MOL0     C32364   9.533  10.323   9.245 -0.0941 -0.1430 -0.9584
  981MOL0     C32365   8.668  10.463   9.277  1.0200 -0.9749  0.4050
  981MOL0     C32366   8.526  10.469   9.247 -0.9645 -1.0795 -0.2752
  981MOL0     C32367   8.470  10.610   9.229  0.7414  0.1514 -0.2330
  981MOL0     H32368   8.095  10.016   9.150 -4.7078 -0.8656 -2.8578
  981MOL0     H32369   7.859   9.988   9.213 -2.1818  1.4508  1.1724
  981MOL0     H32370   7.663  10.268   9.512  0.6605 -1.4973 -0.0691
  981MOL0     H32371   7.615  10.321   9.342 -2.0749  0.8521  0.8870
  981MOL0     H32372   7.481  10.104   9.505  2.7466  0.1888 -0.4444
  981MOL0     H32373   7.444  10.151   9.346  2.0422 -0.5139 -0.4899
  981MOL0     H32374   7.435  10.338   9.582  0.7781 -0.5172 -0.7589
  981MOL0     H32375   7.298  10.251   9.526  0.7875 -1.6189  0.5319
  981MOL0     H32376   7.454  10.447   9.354 -0.3549 -0.1079 -1.3203
  981MOL0     H32377   7.307  10.374   9.306 -1.1454  0.6429  0.2833
  981MOL0     H32378   7.182  10.503   9.511 -0.9351 -0.3386 -1.2827
  981MOL0     H32379   7.346  10.567   9.530  0.0443 -0.5911 -0.2387
  981MOL0     H32380   7.315  10.690   9.323  0.6110  0.5895  1.8696
  981MOL0     H32381   7.223  10.562   9.253 -0.8844 -2.2162  0.7541
  981MOL0     H32382   7.029  10.641   9.398  0.3074 -0.6376 -0.5516
  981MOL0     H32383   7.092  10.776   9.312  2.9795  2.2017  1.2077
  981MOL0     H32384   7.027  10.818   9.555  0.6245  1.0998 -0.6852
  981MOL0     H32385   7.165  10.718   9.597  1.9225 -1.8124 -3.0139
  981MOL0     H32386   7.111  10.969   9.328  1.5389 -1.5389 -1.4236
  981MOL0     H32387   7.296  11.153   9.202  1.1211 -1.4149  0.5667
  981MOL0     H32388   7.246  11.260   9.327  1.6634  0.3749  0.1306
  981MOL0     H32389   7.485  11.264   9.419  2.5448  0.4362 -0.2481
  981MOL0     H32390   7.530  11.179   9.272 -0.9225 -0.1132 -2.4127
  981MOL0     H32391   7.371  11.448   9.286 -0.9482 -1.1860  1.5171
  981MOL0     H32392   7.457  11.383   9.139 -1.4324  2.5832 -0.3651
  981MOL0     H32393   7.676  11.423   9.228 -1.1256 -2.9152  1.3847
  981MOL0     H32394   7.606  11.483   9.388 -1.6814  1.3137  0.1831
  981MOL0     H32395   7.812  11.559   9.382  1.6893  1.9821  0.5051
  981MOL0     H32396   7.985  11.716   9.424 -0.8810 -1.9634  1.6549
  981MOL0     H32397   8.149  12.050   9.618 -1.8955 -0.7947 -1.8306
  981MOL0     H32398   8.351  12.206   9.662 -0.5701  0.2339 -0.4006
  981MOL0     H32399   8.433  12.426   9.642  1.6244  1.0616  1.2247
  981MOL0     H32400   8.551  12.302   9.690 -1.1832 -0.4702 -0.5135
  981MOL0     H32401   8.605  12.551   9.526  0.8636  1.6230  0.6460
  981MOL0     H32402   8.614  12.542   9.702 -0.2120  4.3202 -2.1289
  981MOL0     H32403   8.795  12.377   9.690  1.9518 -0.6033 -0.5002
  981MOL0     H32404   8.776  12.365   9.511  0.4756 -1.4422  1.2273
  981MOL0     H32405   8.866  12.614   9.671 -0.7970  0.7172  0.0944
  981MOL0     H32406   8.849  12.609   9.492 -1.5290 -1.8093  0.0114
  981MOL0     H32407   9.083  12.563   9.518 -0.8707  2.3663  1.2085
  981MOL0     H32408   8.991  12.432   9.452 -1.9369 -1.1324  0.9635
  981MOL0     H32409   9.007  12.331   9.694  1.8363 -1.2465 -0.9398
  981MOL0     H32410   9.158  12.372   9.630 -0.9850 -1.6072 -0.8653
  981MOL0     H32411   9.021  12.511   9.875  1.3686 -2.0727  2.6495
  981MOL0     H32412   9.128  12.602   9.762 -1.9465 -0.7441 -1.3615
  981MOL0     H32413   9.221  12.358   9.907 -2.5807 -0.5977 -1.6622
  981MOL0     H32414   9.302  12.469   9.803  1.8594  0.5353  1.1029
  981MOL0     H32415   8.428  12.239   9.249  4.3690  1.6286  3.8459
  981MOL0     H32416   8.257  12.068   9.210 -0.2811  0.0040  0.2808
  981MOL0     H32417   7.765  12.013   9.183  0.3623  1.2215  2.4347
  981MOL0     H32418   7.588  11.847   9.139  0.2024  1.8086  0.3138
  981MOL0     H32419   7.852  10.352   9.444 -2.5613 -0.4262 -0.2584
  981MOL0     H32420   8.086  10.380   9.394 -2.8242  1.5195  1.4932
  981MOL0     H32421   8.481  10.124   9.254 -0.4361  0.7970 -0.5638
  981MOL0     H32422   8.727  10.138   9.294  1.1077  0.5643 -1.1336
  981MOL0     H32423   8.932  10.528   9.293  4.7917  2.0209  0.1820
  981MOL0     H32424   8.989  10.407   9.174  0.5584 -2.5387  0.6855
  981MOL0     H32425   9.073  10.394   9.458 -0.2137 -0.6430  0.7624
  981MOL0     H32426   9.125  10.520   9.350 -3.2797  0.9318  0.9210
  981MOL0     H32427   9.214  10.339   9.196 -1.4682  1.3286  0.1819
  981MOL0     H32428   9.131  10.225   9.302 -1.2378  0.9332 -0.5122
  981MOL0     H32429   9.322  10.345   9.476  1.3702 -1.6268 -0.4280
  981MOL0     H32430   9.314  10.181   9.407 -0.1689  0.1455  2.8270
  981MOL0     H32431   9.628  10.335   9.198  2.0417 -1.0326  2.6926
  981MOL0     H32432   8.726  10.555   9.271  0.4679 -0.7184 -3.8338
  981MOL0     H32433   8.415  10.629   9.137  0.7159  2.4660  0.2029
  981MOL0     H32434   8.408  10.632   9.317 -1.4817  0.2306 -1.7491
  981MOL0     H32435   8.554  10.680   9.237 -0.7745  1.8468  3.3012
  982MOL0     O32436   9.854   4.881   3.272 -0.0630  0.3943  0.6669
  982MOL0     C32437   9.820   4.975   3.339  0.6421 -0.2722  1.2236
  982MOL0     O32438   9.895   5.092   3.356  0.9606 -1.2374 -0.5171
  982MOL0     C32439  10.019   5.097   3.304 -0.5342  0.4408 -0.2890
  982MOL0     C32440  10.032   5.149   3.176 -0.2227  0.1688  0.5142
  982MOL0     C32441  10.162   5.161   3.124 -1.2560  0.1915  0.7396
  982MOL0     C32442  10.277   5.124   3.203 -0.3845  0.9333  0.0689
  982MOL0     O32443  10.410   5.165   3.172 -0.0465  0.8083  0.0947
  982MOL0     C32444  10.449   5.160   3.034 -0.2091 -0.0276 -0.3347
  982MOL0     C32445  10.599   5.190   3.006  0.0059 -0.3907  0.0211
  982MOL0     C32446  10.629   5.329   3.060  1.1715  0.1895  0.3024
  982MOL0     C32447  10.771   5.364   3.018 -0.3563 -0.5875 -0.2415
  982MOL0     C32448  10.878   5.265   3.071 -0.2023 -0.1560  0.2304
  982MOL0     C32449  11.011   5.329   3.043  0.2130 -0.0963 -0.1869
  982MOL0     C32450  11.122   5.225   3.051 -0.0466 -0.2629 -0.0195
  982MOL0     C32451  11.169   5.178   3.184  0.4113  0.2064 -0.3035
  982MOL0     N32452  11.303   5.113   3.180 -0.6647 -1.0688 -0.0391
  982MOL0     C32453  11.432   5.170   3.187 -0.7839  0.0021 -0.2879
  982MOL0     C32454  11.517   5.062   3.185  0.3489 -0.6551  0.0776
  982MOL0     C32455  11.663   5.079   3.205 -0.4306 -0.4913  0.2108
  982MOL0     C32456  11.747   5.049   3.074 -0.9590 -0.6451 -0.1531
  982MOL0     C32457  11.882   5.109   3.085 -0.1627 -0.4646  0.5869
  982MOL0     C32458  11.967   5.101   2.950 -0.3865 -0.3863  0.0482
  982MOL0     O32459  12.082   5.176   2.979 -0.1928  0.2250 -0.7416
  982MOL0     C32460  12.181   5.197   2.883  0.3399 -0.2220  0.0480
  982MOL0     C32461  12.312   5.206   2.927 -0.0911  0.0991 -0.0572
  982MOL0     C32462  12.423   5.219   2.841  0.2017  0.0792 -1.1102
  982MOL0     C32463  12.401   5.227   2.702 -0.7165  0.8375  0.1721
  982MOL0     C32464  12.521   5.240   2.616 -0.1657  0.0404 -0.1581
  982MOL0     O32465  12.639   5.250   2.685  0.2117  0.0626 -0.3383
  982MOL0     C32466  12.750   5.260   2.604  0.0231  0.2196 -0.7387
  982MOL0     C32467  12.775   5.160   2.507 -0.2943 -1.0189  0.3144
  982MOL0     C32468  12.888   5.166   2.424  0.0352  0.2535  0.2359
  982MOL0     C32469  12.977   5.280   2.431  0.3313  0.1424  0.2200
  982MOL0     O32470  13.103   5.292   2.364 -0.2383 -0.6871  0.2675
  982MOL0     C32471  13.159   5.179   2.300 -1.0319 -0.4067 -0.0861
  982MOL0     C32472  13.291   5.218   2.256 -0.8792  0.0796  0.3973
  982MOL0     C32473  13.382   5.089   2.223 -0.4836 -0.7569  0.5757
  982MOL0     C32474  13.503   5.122   2.135 -0.2121  0.7989  0.7354
  982MOL0     C32475  13.581   4.995   2.098  0.6597  0.3926  0.3384
  982MOL0     C32476  13.677   4.948   2.216  0.5226 -0.5039 -0.1169
  982MOL0     C32477  13.725   4.809   2.189  0.9159 -0.6027 -0.4050
  982MOL0     C32478  13.843   4.778   2.278 -0.5059 -0.5297 -0.5307
  982MOL0    Cl32479  13.798   4.705   2.433  0.7924  0.0153 -0.0269
  982MOL0     C32480  12.950   5.373   2.534  0.5413 -0.3612  0.1382
  982MOL0     C32481  12.839   5.364   2.618  0.1823 -0.8574  0.3516
  982MOL0     O32482  12.505   5.240   2.496 -0.4490 -0.1567 -0.2264
  982MOL0     C32483  12.266   5.207   2.654 -0.2572 -0.8445  0.5066
  982MOL0     C32484  12.155   5.202   2.742 -0.3870  0.3118 -0.1536
  982MOL0     N32485  11.447   4.942   3.173 -0.5948 -0.9215  0.0466
  982MOL0     N32486  11.323   4.976   3.191 -0.0018 -0.1171  0.6379
  982MOL0     C32487  10.250   5.065   3.330  0.2466 -0.5742  0.7179
  982MOL0     C32488  10.125   5.056   3.376  0.3743  0.9097 -0.1475
  982MOL0     C32489   9.685   4.977   3.383  0.2416  0.2467 -0.0662
  982MOL0     C32490   9.658   5.036   3.511  0.2747  0.3730  0.9677
  982MOL0     C32491   9.527   5.063   3.561 -0.0093  0.5613  1.2130
  982MOL0     C32492   9.418   5.023   3.479  1.0644  0.2735 -1.1003
  982MOL0     O32493   9.294   5.057   3.526  0.6456  0.4543  0.0945
  982MOL0     C32494   9.213   5.152   3.454  0.8083 -0.7165 -0.4512
  982MOL0     C32495   9.079   5.176   3.527 -0.0198 -0.2378 -0.5840
  982MOL0     C32496   9.101   5.267   3.648  0.4761 -0.6338  0.1897
  982MOL0     C32497   8.974   5.273   3.727 -0.4443 -0.2986 -0.0454
  982MOL0     C32498   8.962   5.142   3.805  0.1170 -0.4352  0.1478
  982MOL0     C32499   8.965   5.031   3.853 -0.0742  0.0503 -0.3079
  982MOL0     C32500   9.435   4.955   3.356 -0.0410  0.8240 -0.3759
  982MOL0     C32501   9.570   4.935   3.306  0.3166  1.5518 -0.1554
  982MOL0     C32502   9.586   4.845   3.186  0.2141 -0.3599  0.3298
  982MOL0     H32503   9.949   5.190   3.119  0.4403  2.3246  0.9958
  982MOL0     H32504  10.161   5.196   3.021  0.7458  0.4712  0.7634
  982MOL0     H32505  10.421   5.064   2.989 -0.4079  0.2538 -0.8084
  982MOL0     H32506  10.388   5.226   2.973 -2.3696 -2.0737 -0.4916
  982MOL0     H32507  10.599   5.190   2.896 -2.9341 -2.2753 -0.1060
  982MOL0     H32508  10.667   5.109   3.035 -0.2010  0.3153  2.7270
  982MOL0     H32509  10.636   5.321   3.169 -0.0368 -2.6886  0.2435
  982MOL0     H32510  10.554   5.402   3.026  0.3075 -1.6137 -1.9030
  982MOL0     H32511  10.785   5.366   2.909  2.8109 -0.0160  0.0876
  982MOL0     H32512  10.801   5.462   3.058 -1.5000  0.4216 -1.7148
  982MOL0     H32513  10.875   5.238   3.176  2.1246 -1.7109 -0.0163
  982MOL0     H32514  10.870   5.172   3.014  0.0387  0.5527 -1.0110
  982MOL0     H32515  11.009   5.380   2.945  1.2954 -2.0043 -1.2656
  982MOL0     H32516  11.034   5.403   3.120  0.5297 -0.1685 -0.2124
  982MOL0     H32517  11.207   5.272   3.000 -1.6481 -0.3631 -3.0098
  982MOL0     H32518  11.098   5.144   2.982 -0.4708  0.0464 -0.2417
  982MOL0     H32519  11.160   5.260   3.255  0.9751  0.4005 -0.4551
  982MOL0     H32520  11.101   5.097   3.214 -1.7733  2.7988  2.2931
  982MOL0     H32521  11.452   5.277   3.184 -3.7486  0.6280 -1.4543
  982MOL0     H32522  11.683   5.181   3.239  1.3339 -0.4883 -0.7318
  982MOL0     H32523  11.684   5.008   3.285 -1.6496  1.7875  2.7003
  982MOL0     H32524  11.754   4.940   3.071  1.4849 -0.5329 -0.3080
  982MOL0     H32525  11.700   5.101   2.990  1.6688  3.6185  0.6912
  982MOL0     H32526  11.932   5.069   3.174  1.1013  2.8821  1.5624
  982MOL0     H32527  11.863   5.211   3.121 -3.2967 -1.1731  1.2174
  982MOL0     H32528  11.914   5.137   2.862  3.3648  3.5151 -0.9695
  982MOL0     H32529  11.997   4.998   2.933  0.8712  0.3899 -3.0840
  982MOL0     H32530  12.324   5.207   3.035  1.7745  2.7627 -0.1808
  982MOL0     H32531  12.522   5.235   2.881 -0.2553 -1.1979  0.6449
  982MOL0     H32532  12.710   5.074   2.495 -2.4986  0.5997  0.0580
  982MOL0     H32533  12.902   5.085   2.353  1.3209 -1.1653  2.0336
  982MOL0     H32534  13.171   5.101   2.376  0.8423  1.2321  1.3869
  982MOL0     H32535  13.093   5.137   2.223 -2.3753 -1.0642  1.3749
  982MOL0     H32536  13.282   5.291   2.175 -0.7112  3.7215  3.3854
  982MOL0     H32537  13.352   5.271   2.330  0.6063  1.5904 -1.8075
  982MOL0     H32538  13.408   5.031   2.312 -0.9218 -1.8535  0.0130
  982MOL0     H32539  13.323   5.019   2.163 -2.7255  1.1401  0.4357
  982MOL0     H32540  13.569   5.191   2.189  1.8874 -2.2220  2.3361
  982MOL0     H32541  13.472   5.157   2.036 -0.8776 -4.0936 -1.0784
  982MOL0     H32542  13.651   5.018   2.017 -1.9407  1.5258 -1.7386
  982MOL0     H32543  13.506   4.923   2.066  0.4570  0.8078 -0.1370
  982MOL0     H32544  13.756   5.023   2.223 -0.9146  1.1486 -0.7547
  982MOL0     H32545  13.618   4.953   2.308 -0.3580 -1.3250 -0.6201
  982MOL0     H32546  13.769   4.804   2.089 -0.2253 -2.7347 -0.8663
  982MOL0     H32547  13.644   4.735   2.196 -0.0164  0.5115  1.0992
  982MOL0     H32548  13.908   4.703   2.230  0.9520  0.5164 -0.2573
  982MOL0     H32549  13.902   4.869   2.291 -2.5851  0.5867  1.8645
  982MOL0     H32550  13.013   5.459   2.553  1.0046 -1.0752  2.1120
  982MOL0     H32551  12.834   5.427   2.706  0.0305  0.0746 -0.3019
  982MOL0     H32552  12.245   5.206   2.547 -0.7759  3.4712  0.3972
  982MOL0     H32553  12.053   5.201   2.706 -0.5165  1.7898  0.1055
  982MOL0     H32554  10.337   5.037   3.388  1.2721  0.8713 -0.0630
  982MOL0     H32555  10.117   5.010   3.474 -0.6957  2.4373  0.5307
  982MOL0     H32556   9.727   5.079   3.583  1.0959 -1.3328  1.2630
  982MOL0     H32557   9.516   5.124   3.650 -0.5067 -1.1642  2.4109
  982MOL0     H32558   9.203   5.109   3.353  0.5354  0.1249 -0.7900
  982MOL0     H32559   9.257   5.252   3.450 -2.2207  0.8249  1.3835
  982MOL0     H32560   9.043   5.075   3.551  0.2095 -0.5366 -1.4520
  982MOL0     H32561   9.011   5.228   3.459 -0.9676 -1.1879 -0.3963
  982MOL0     H32562   9.142   5.366   3.625 -1.3922 -0.1017 -1.1692
  982MOL0     H32563   9.181   5.220   3.705  0.5263  1.3198  1.8391
  982MOL0     H32564   8.979   5.352   3.803  2.2638 -2.2067  1.9128
  982MOL0     H32565   8.892   5.275   3.654 -1.3208  0.3998  0.9367
  982MOL0     H32566   8.960   4.938   3.906 -3.2234  0.5577  0.4539
  982MOL0     H32567   9.345   4.941   3.297  1.0502  0.9184 -2.1610
  982MOL0     H32568   9.488   4.824   3.143  0.9924  0.1906 -1.8226
  982MOL0     H32569   9.645   4.895   3.109  1.6030 -2.2799  0.0867
  982MOL0     H32570   9.628   4.750   3.219 -0.6468 -1.1861 -0.8499
  983MOL0     O32571   4.766   0.662  10.858 -0.1242 -0.2067 -0.6069
  983MOL0     C32572   4.661   0.635  10.920 -0.0119  1.2966 -0.7050
  983MOL0     O32573   4.652   0.599  11.051 -0.0275 -0.2513  0.3281
  983MOL0     C32574   4.759   0.615  11.132  0.7669  0.2523 -0.1587
  983MOL0     C32575   4.716   0.567  11.256 -0.5863 -0.4805  0.0504
  983MOL0     C32576   4.801   0.579  11.370 -0.6331  0.8556 -0.5906
  983MOL0     C32577   4.930   0.629  11.358 -0.6618  0.0403  0.9218
  983MOL0     O32578   5.028   0.627  11.452  0.9109  0.1757  0.1389
  983MOL0     C32579   4.974   0.660  11.576  0.5339  0.1155 -0.6311
  983MOL0     C32580   5.091   0.695  11.670 -0.0269  0.5855  0.1265
  983MOL0     C32581   5.132   0.569  11.747 -0.5347 -0.2917  0.6379
  983MOL0     C32582   5.234   0.588  11.859 -0.3907  0.0514 -0.8231
  983MOL0     C32583   5.272   0.449  11.910 -0.3244  0.2416 -0.3799
  983MOL0     C32584   5.380   0.442  12.023  0.3171 -0.1952 -0.3674
  983MOL0     C32585   5.324   0.464  12.160  0.5818  0.2594  0.2802
  983MOL0     C32586   5.293   0.607  12.206 -1.3893  0.5762  0.4387
  983MOL0     N32587   5.418   0.661  12.251 -0.6175  0.1144 -0.8128
  983MOL0     C32588   5.468   0.646  12.381 -0.1632  0.1998  0.6367
  983MOL0     C32589   5.584   0.714  12.380 -0.9833 -0.1681  0.3448
  983MOL0     C32590   5.670   0.736  12.498  0.6593  0.3838 -0.7533
  983MOL0     C32591   5.814   0.678  12.479  0.8329  0.6243 -0.5983
  983MOL0     C32592   5.932   0.763  12.531 -0.0070 -0.6826 -0.5298
  983MOL0     C32593   5.952   0.890  12.448 -0.7358  0.4263 -0.3568
  983MOL0     O32594   6.044   0.978  12.519  0.1406 -0.2828  0.0259
  983MOL0     C32595   6.176   0.980  12.496 -0.4548  0.0065  0.4732
  983MOL0     C32596   6.218   1.013  12.371  0.1841  0.4399  0.1325
  983MOL0     C32597   6.348   1.029  12.333 -0.1870 -0.1304 -0.3459
  983MOL0     C32598   6.447   1.011  12.436  0.1648  0.0066 -0.0032
  983MOL0     C32599   6.594   1.047  12.415  1.0071  0.2923 -0.0954
  983MOL0     O32600   6.686   0.986  12.489  0.3498 -0.6526  0.1317
  983MOL0     C32601   6.827   1.004  12.484  0.5126 -0.1348 -0.8724
  983MOL0     C32602   6.903   0.932  12.579 -0.1373 -0.1217  0.5297
  983MOL0     C32603   7.045   0.951  12.598 -0.1717 -0.1980  0.4806
  983MOL0     C32604   7.117   1.029  12.506  0.5265 -0.0167 -0.4863
  983MOL0     O32605   7.254   1.021  12.507 -0.2335 -0.7575 -0.2487
  983MOL0     C32606   7.321   1.098  12.411 -0.8641 -0.2804  0.0565
  983MOL0     C32607   7.471   1.052  12.412  0.2427 -0.4000  0.9011
  983MOL0     C32608   7.554   1.075  12.543  0.3391 -0.0033 -0.2895
  983MOL0     C32609   7.562   1.220  12.580 -0.3524 -0.3366 -0.6536
  983MOL0     C32610   7.667   1.250  12.687 -0.2787  0.2888 -0.3569
  983MOL0     C32611   7.623   1.235  12.835 -0.8534  0.4999 -0.5219
  983MOL0     C32612   7.519   1.329  12.872  0.2138 -0.0821 -0.5031
  983MOL0     C32613   7.500   1.368  13.018  0.4864  0.3571 -0.5889
  983MOL0    Cl32614   7.640   1.440  13.096 -0.0951  0.0119  0.3589
  983MOL0     C32615   7.042   1.100  12.404  0.3941  0.1778  0.1352
  983MOL0     C32616   6.904   1.095  12.396  0.2487  1.2164 -0.2715
  983MOL0     O32617   6.610   1.115  12.317 -0.5043  0.6382 -0.2810
  983MOL0     C32618   6.406   0.972  12.568 -0.5937  0.3379  0.0687
  983MOL0     C32619   6.273   0.951  12.592  0.1353  0.0773  0.9925
  983MOL0     N32620   5.607   0.770  12.254 -0.1652 -0.2243  0.2787
  983MOL0     N32621   5.508   0.733  12.180  0.5369 -0.6540  0.0239
  983MOL0     C32622   4.968   0.676  11.232 -0.2601 -0.0607  1.0058
  983MOL0     C32623   4.880   0.681  11.123 -0.5597 -0.3861  1.0050
  983MOL0     C32624   4.532   0.631  10.844 -0.4484 -0.6005  0.7006
  983MOL0     C32625   4.510   0.723  10.743 -0.2488 -0.0467  0.4409
  983MOL0     C32626   4.386   0.728  10.672 -0.2636 -0.9773  0.4229
  983MOL0     C32627   4.290   0.632  10.698  0.2379 -0.2217  0.6514
  983MOL0     O32628   4.176   0.628  10.613  0.1177 -0.5434  0.0425
  983MOL0     C32629   4.100   0.504  10.600  0.9644 -0.0104 -0.0277
  983MOL0     C32630   3.996   0.535  10.504  0.0194  1.3417 -0.3475
  983MOL0     C32631   3.863   0.471  10.540  1.2664  0.9215 -0.5944
  983MOL0     C32632   3.761   0.515  10.429 -0.0054 -0.2174 -0.6301
  983MOL0     C32633   3.626   0.471  10.452  0.0284  0.1704  0.0855
  983MOL0     C32634   3.513   0.430  10.469 -0.3339 -0.2615  0.5355
  983MOL0     C32635   4.311   0.535  10.792  0.5202 -0.2601  0.6673
  983MOL0     C32636   4.432   0.530  10.865 -0.9333 -0.9905 -0.6542
  983MOL0     C32637   4.457   0.414  10.950  0.3058 -0.1187  0.6907
  983MOL0     H32638   4.625   0.508  11.268 -0.2005 -1.2734 -0.7630
  983MOL0     H32639   4.776   0.537  11.466  2.2792  0.4890  0.0978
  983MOL0     H32640   4.904   0.744  11.578  1.7247  1.1366  1.0319
  983MOL0     H32641   4.924   0.570  11.615  0.0418  1.4162  1.9867
  983MOL0     H32642   5.063   0.776  11.739  3.0978  0.7532  1.3761
  983MOL0     H32643   5.175   0.736  11.613  0.7890 -3.1579 -1.6759
  983MOL0     H32644   5.183   0.499  11.680 -3.7072 -2.7379  0.5794
  983MOL0     H32645   5.044   0.514  11.781  0.2901 -0.5711  2.4272
  983MOL0     H32646   5.328   0.619  11.813  1.8392 -2.3408  1.7782
  983MOL0     H32647   5.200   0.659  11.935 -1.9952 -0.8246 -0.6694
  983MOL0     H32648   5.186   0.390  11.943  1.4910 -1.9587  0.7863
  983MOL0     H32649   5.312   0.392  11.826 -2.6667 -0.6737 -0.9392
  983MOL0     H32650   5.423   0.342  12.015 -1.2426 -1.2076  2.4564
  983MOL0     H32651   5.458   0.517  12.005  3.5079 -2.8865  1.1936
  983MOL0     H32652   5.409   0.437  12.224  1.2930  0.1691 -0.6926
  983MOL0     H32653   5.239   0.396  12.176 -2.2418  3.9187  2.3803
  983MOL0     H32654   5.257   0.661  12.118  1.2064 -0.1258 -1.1857
  983MOL0     H32655   5.226   0.611  12.292 -2.8299 -0.1197 -0.5987
  983MOL0     H32656   5.413   0.600  12.462  0.7434 -0.7197  0.7495
  983MOL0     H32657   5.678   0.843  12.515 -3.0941  0.4843  1.2800
  983MOL0     H32658   5.619   0.679  12.576 -1.7177  0.0111 -2.4528
  983MOL0     H32659   5.814   0.585  12.535 -0.0275 -1.0677 -3.2020
  983MOL0     H32660   5.830   0.666  12.371 -0.5221  4.0916 -1.3128
  983MOL0     H32661   6.023   0.703  12.525  0.2287 -0.9775  3.3889
  983MOL0     H32662   5.914   0.794  12.634  1.1379  0.8912 -0.7809
  983MOL0     H32663   5.863   0.951  12.430 -0.2635  1.2071 -0.1163
  983MOL0     H32664   5.981   0.869  12.345 -1.0358  0.7035 -0.4981
  983MOL0     H32665   6.140   1.019  12.295 -2.6560 -3.1734  2.4204
  983MOL0     H32666   6.381   1.057  12.234  5.1962 -1.1668  0.8281
  983MOL0     H32667   6.857   0.876  12.660  1.4087  0.5585  1.9415
  983MOL0     H32668   7.090   0.899  12.682  1.7206  1.5509  0.6192
  983MOL0     H32669   7.282   1.085  12.310 -1.1719  0.8064  0.0225
  983MOL0     H32670   7.307   1.203  12.441  0.7913  0.2393 -0.8695
  983MOL0     H32671   7.461   0.945  12.390 -0.7028 -0.2320  0.4478
  983MOL0     H32672   7.525   1.095  12.327  3.2335 -1.1386  2.3253
  983MOL0     H32673   7.517   1.025  12.632  2.6191 -1.1370  0.0969
  983MOL0     H32674   7.653   1.030  12.530 -0.3954 -2.0243  0.7227
  983MOL0     H32675   7.464   1.246  12.621  1.7541  2.0702  3.5374
  983MOL0     H32676   7.575   1.276  12.488 -2.2214 -2.0081 -2.0342
  983MOL0     H32677   7.706   1.351  12.670  1.2841 -0.1271  0.6359
  983MOL0     H32678   7.754   1.187  12.668  0.3556  0.7495  0.9434
  983MOL0     H32679   7.589   1.133  12.854 -2.0325  1.3727  2.8074
  983MOL0     H32680   7.714   1.259  12.890 -0.9774  1.4335 -0.7062
  983MOL0     H32681   7.423   1.292  12.835 -0.5476  1.9900 -0.7242
  983MOL0     H32682   7.520   1.431  12.832  0.0683  0.1675  0.1133
  983MOL0     H32683   7.410   1.430  13.016  1.2039  1.4869 -3.4241
  983MOL0     H32684   7.467   1.280  13.073 -1.3107  0.5639 -1.2717
  983MOL0     H32685   7.087   1.151  12.319 -2.0331 -1.5727 -2.3585
  983MOL0     H32686   6.846   1.148  12.322  1.6508  1.3663 -1.2817
  983MOL0     H32687   6.470   0.967  12.655 -1.2925 -0.8078  0.5330
  983MOL0     H32688   6.229   0.914  12.684  0.6477  2.2527  2.1762
  983MOL0     H32689   5.070   0.709  11.214 -0.3696 -0.5472 -0.6976
  983MOL0     H32690   4.913   0.736  11.035 -1.3186  0.3151  1.1426
  983MOL0     H32691   4.586   0.798  10.722  0.2421 -0.5315  0.4623
  983MOL0     H32692   4.360   0.801  10.595  0.0231 -1.9551 -0.6270
  983MOL0     H32693   4.058   0.485  10.699  1.2621 -0.2752  0.0498
  983MOL0     H32694   4.155   0.417  10.564 -0.9252  0.3250 -4.3567
  983MOL0     H32695   4.021   0.514  10.399  1.6722 -1.1982  0.4662
  983MOL0     H32696   3.981   0.643  10.508 -1.2667  1.1726 -0.2151
  983MOL0     H32697   3.821   0.511  10.633 -0.3484 -3.7383  0.9553
  983MOL0     H32698   3.860   0.364  10.561  1.2865  0.9879 -0.2356
  983MOL0     H32699   3.750   0.624  10.430  0.6398 -0.1281 -1.6166
  983MOL0     H32700   3.790   0.484  10.328 -3.0260 -2.1897 -1.0151
  983MOL0     H32701   3.418   0.383  10.483  1.5599 -3.7196  3.4208
  983MOL0     H32702   4.237   0.456  10.803 -1.7805  1.4801 -1.1362
  983MOL0     H32703   4.564   0.393  10.941 -0.0950 -1.3417 -1.9867
  983MOL0     H32704   4.410   0.431  11.047 -2.3251 -1.7386 -0.1909
  983MOL0     H32705   4.402   0.331  10.906  2.3617  0.5613 -3.7775
  984MOL0     O32706   4.279   2.536   4.670  0.1530  0.0515  0.2033
  984MOL0     C32707   4.227   2.586   4.570 -0.1486 -0.1145 -0.4831
  984MOL0     O32708   4.301   2.663   4.480 -0.4835 -0.0922  0.5095
  984MOL0     C32709   4.443   2.675   4.494 -0.2987  0.2205  0.5346
  984MOL0     C32710   4.497   2.788   4.554  0.8826  0.3606 -0.4671
  984MOL0     C32711   4.635   2.806   4.565 -0.1694 -0.1457  0.2587
  984MOL0     C32712   4.720   2.720   4.488  0.2716  0.5298  0.0109
  984MOL0     O32713   4.852   2.739   4.460 -0.1436 -0.3137  0.2302
  984MOL0     C32714   4.920   2.840   4.535  0.6646  0.1941 -0.6128
  984MOL0     C32715   5.062   2.856   4.493 -0.1227  0.4821 -0.4405
  984MOL0     C32716   5.136   2.721   4.496 -0.0747 -0.8864 -0.1878
  984MOL0     C32717   5.297   2.733   4.490 -0.0027 -0.1042  0.1222
  984MOL0     C32718   5.347   2.777   4.630 -0.1036 -0.2178  0.3291
  984MOL0     C32719   5.498   2.800   4.629 -0.6390  0.1243  0.4722
  984MOL0     C32720   5.565   2.816   4.763 -0.2435  0.6490  0.3432
  984MOL0     C32721   5.701   2.783   4.730  0.1908  0.5472  0.0705
  984MOL0     N32722   5.799   2.817   4.838  0.2740 -0.5613 -0.2759
  984MOL0     C32723   5.851   2.945   4.871  0.0319 -0.1681  0.3483
  984MOL0     C32724   5.942   2.916   4.963 -0.3327 -0.1908 -0.0290
  984MOL0     C32725   6.042   3.010   5.021 -1.1241 -0.2367 -0.3353
  984MOL0     C32726   6.052   3.023   5.172 -0.2832 -0.2935 -0.2921
  984MOL0     C32727   6.121   2.897   5.238  0.6965  0.6680  0.4378
  984MOL0     C32728   6.272   2.925   5.272  1.2500  0.1859  0.3723
  984MOL0     O32729   6.291   3.030   5.369 -0.8265  0.9922  0.0337
  984MOL0     C32730   6.423   3.035   5.420 -0.4261  0.2505  0.4777
  984MOL0     C32731   6.498   3.149   5.390 -0.3092 -0.1380 -0.3936
  984MOL0     C32732   6.625   3.164   5.446  0.2787 -1.1261 -0.1513
  984MOL0     C32733   6.681   3.063   5.526  0.7008 -0.8475 -0.1911
  984MOL0     C32734   6.814   3.088   5.586 -0.4457  0.4228 -0.3135
  984MOL0     O32735   6.860   2.992   5.674 -0.9322 -0.6355 -0.0034
  984MOL0     C32736   6.989   3.016   5.732 -0.1395 -0.0608 -0.0623
  984MOL0     C32737   7.105   3.011   5.652 -0.3511  0.3945 -0.0080
  984MOL0     C32738   7.226   3.034   5.711  0.0557  0.4783 -0.1921
  984MOL0     C32739   7.238   3.068   5.845  0.4091  0.2533  0.1516
  984MOL0     O32740   7.358   3.093   5.889 -1.0527 -0.8597 -0.3284
  984MOL0     C32741   7.401   3.030   6.013  0.4311 -0.1749 -0.6374
  984MOL0     C32742   7.553   3.066   6.048  0.4658 -0.4013 -0.2750
  984MOL0     C32743   7.642   2.951   6.018 -0.0146 -0.9770  0.3184
  984MOL0     C32744   7.786   2.985   6.077 -0.0334 -0.0716 -0.1538
  984MOL0     C32745   7.882   2.872   6.052 -0.1425  0.4173  0.3971
  984MOL0     C32746   8.008   2.890   6.127 -0.7421 -0.6080 -0.1471
  984MOL0     C32747   8.097   2.769   6.099  0.0326 -0.5268 -1.2482
  984MOL0     C32748   8.208   2.769   6.201  0.0345 -0.4637 -0.0565
  984MOL0    Cl32749   8.301   2.612   6.202 -0.0169 -0.1103  0.3365
  984MOL0     C32750   7.117   3.066   5.923  0.2421 -0.4593 -0.3091
  984MOL0     C32751   6.991   3.037   5.865 -1.0121  0.0594 -0.7162
  984MOL0     O32752   6.877   3.188   5.558 -0.5002 -0.3562  0.1681
  984MOL0     C32753   6.608   2.950   5.558 -0.0030  1.5955  0.2287
  984MOL0     C32754   6.485   2.934   5.504  0.2602  0.4159 -0.0239
  984MOL0     N32755   5.935   2.781   4.993 -0.4017 -0.6643 -0.2394
  984MOL0     N32756   5.850   2.724   4.915 -0.1237 -0.0425  0.0714
  984MOL0     C32757   4.666   2.598   4.442  0.4890  0.4453 -0.3023
  984MOL0     C32758   4.530   2.581   4.446  0.1427  0.7495 -0.5936
  984MOL0     C32759   4.075   2.574   4.552 -0.1733  0.2598  0.1999
  984MOL0     C32760   4.007   2.691   4.506  0.1893  0.1215  0.0049
  984MOL0     C32761   3.873   2.705   4.511  1.0372  1.2143  0.3903
  984MOL0     C32762   3.796   2.587   4.530  0.3379 -0.1764 -1.0476
  984MOL0     O32763   3.661   2.601   4.522 -0.1957 -0.2363  0.0103
  984MOL0     C32764   3.577   2.492   4.553 -0.1389 -0.3273 -0.0347
  984MOL0     C32765   3.434   2.509   4.522 -0.8056 -0.4805  0.1131
  984MOL0     C32766   3.362   2.610   4.613  0.0113  0.3897 -1.2338
  984MOL0     C32767   3.222   2.625   4.561  0.6113  0.6664  0.4454
  984MOL0     C32768   3.145   2.496   4.572 -0.1652 -0.8596 -0.7983
  984MOL0     C32769   3.097   2.386   4.590 -0.3967  0.7156  0.1889
  984MOL0     C32770   3.862   2.467   4.565  0.1077 -0.4454 -0.0696
  984MOL0     C32771   3.999   2.461   4.569  0.0405  0.0236  0.4319
  984MOL0     C32772   4.064   2.336   4.603  0.3412 -0.1501 -0.2730
  984MOL0     H32773   4.440   2.867   4.601 -1.1068  0.5633 -2.9584
  984MOL0     H32774   4.673   2.892   4.619  2.1999 -1.2360  0.4205
  984MOL0     H32775   4.882   2.943   4.539 -0.0687 -0.0450 -1.2734
  984MOL0     H32776   4.935   2.801   4.637 -0.2669  3.2706  0.8250
  984MOL0     H32777   5.106   2.925   4.566 -1.3143 -1.8656  2.7543
  984MOL0     H32778   5.060   2.898   4.392 -2.9702  1.2300 -0.1509
  984MOL0     H32779   5.102   2.653   4.417 -7.1603  2.3779 -0.6856
  984MOL0     H32780   5.109   2.668   4.587 -1.1904  0.9754  0.6253
  984MOL0     H32781   5.330   2.630   4.469 -2.2524 -0.9345  0.4144
  984MOL0     H32782   5.329   2.804   4.413  0.2411 -0.2912  0.0473
  984MOL0     H32783   5.305   2.875   4.656  1.0897  0.4395 -0.1242
  984MOL0     H32784   5.321   2.706   4.709 -0.2508 -0.5758 -0.0360
  984MOL0     H32785   5.542   2.712   4.582 -0.1867 -0.8141  2.5361
  984MOL0     H32786   5.511   2.895   4.576  0.4106  1.4313  2.8746
  984MOL0     H32787   5.532   2.735   4.828  0.3895 -1.5233 -1.8916
  984MOL0     H32788   5.543   2.915   4.804 -1.8668  0.3994  0.1534
  984MOL0     H32789   5.713   2.677   4.705 -0.8125  0.1530  1.1547
  984MOL0     H32790   5.724   2.844   4.642 -3.2126 -0.4872 -1.6684
  984MOL0     H32791   5.825   3.037   4.821 -2.4149 -2.7716 -3.7860
  984MOL0     H32792   6.137   2.973   4.981 -1.6389 -0.4202 -1.4243
  984MOL0     H32793   6.031   3.113   4.986  0.8388  0.3263  0.5574
  984MOL0     H32794   6.106   3.116   5.192 -1.8706  0.6749 -0.2971
  984MOL0     H32795   5.951   3.038   5.211 -0.3551  1.6431 -1.1273
  984MOL0     H32796   6.124   2.801   5.186 -1.1004 -0.1376  1.7170
  984MOL0     H32797   6.068   2.879   5.333 -0.0140 -0.0638 -0.0848
  984MOL0     H32798   6.318   2.953   5.177  0.4855 -0.1606 -0.1021
  984MOL0     H32799   6.323   2.834   5.306 -0.9677 -1.5846 -0.7783
  984MOL0     H32800   6.460   3.223   5.320  2.4354  0.4196 -1.3937
  984MOL0     H32801   6.688   3.248   5.416  0.2949 -0.9598  0.3524
  984MOL0     H32802   7.106   2.992   5.545  0.9648  1.0059 -0.1315
  984MOL0     H32803   7.321   3.017   5.660 -0.1700 -5.7800  0.6897
  984MOL0     H32804   7.333   3.060   6.093  2.0305  0.5613  0.4910
  984MOL0     H32805   7.381   2.923   5.999 -1.2665 -0.0467  0.6331
  984MOL0     H32806   7.576   3.150   5.981  3.2854 -0.5881  0.3650
  984MOL0     H32807   7.553   3.098   6.153 -3.2113 -0.2280 -0.1972
  984MOL0     H32808   7.595   2.867   6.070  1.4202 -0.6472  2.2875
  984MOL0     H32809   7.649   2.927   5.912 -1.0225 -1.4373  0.3510
  984MOL0     H32810   7.779   2.986   6.186 -0.9832 -1.7482 -0.1713
  984MOL0     H32811   7.815   3.085   6.043 -2.2420  0.2661 -1.1767
  984MOL0     H32812   7.906   2.872   5.946 -0.5360  3.1963  0.2360
  984MOL0     H32813   7.834   2.780   6.086 -0.3461  0.1604 -0.5622
  984MOL0     H32814   8.050   2.980   6.080 -2.0071 -0.1469 -0.4126
  984MOL0     H32815   8.002   2.900   6.236  2.7555 -0.1334  0.1223
  984MOL0     H32816   8.150   2.785   6.005 -0.4136  3.7340 -0.9498
  984MOL0     H32817   8.039   2.677   6.093  0.3591 -0.8262 -0.0736
  984MOL0     H32818   8.275   2.852   6.177 -1.5080  0.6363 -0.7393
  984MOL0     H32819   8.173   2.782   6.303 -0.5431 -2.6850  0.0615
  984MOL0     H32820   7.128   3.106   6.023  0.4149  0.2754 -0.6135
  984MOL0     H32821   6.895   3.060   5.911 -1.1052  0.4231 -1.0844
  984MOL0     H32822   6.628   2.877   5.635 -1.0933 -1.6222 -2.3077
  984MOL0     H32823   6.422   2.851   5.535 -1.1888  0.8440 -1.6487
  984MOL0     H32824   4.729   2.525   4.392  1.0645 -1.9009  3.4389
  984MOL0     H32825   4.489   2.486   4.412 -2.4470  0.6383  2.3289
  984MOL0     H32826   4.082   2.769   4.496 -0.1622  1.3768  4.8516
  984MOL0     H32827   3.834   2.806   4.496  0.7460  0.8672 -1.5294
  984MOL0     H32828   3.586   2.469   4.660 -0.9992 -1.9329 -0.2784
  984MOL0     H32829   3.622   2.412   4.493 -0.0407  0.0124 -0.4170
  984MOL0     H32830   3.396   2.407   4.526  1.1704 -1.2057  2.2866
  984MOL0     H32831   3.430   2.554   4.423  0.0160  0.5924  0.5432
  984MOL0     H32832   3.412   2.708   4.609 -2.7802  1.8696 -4.0336
  984MOL0     H32833   3.365   2.576   4.717  2.0987  1.5018 -0.8725
  984MOL0     H32834   3.176   2.701   4.626  0.6198  0.5065  0.6391
  984MOL0     H32835   3.232   2.649   4.455  0.7679 -0.6579  0.1427
  984MOL0     H32836   3.067   2.284   4.601 -0.0896  0.4563 -1.1956
  984MOL0     H32837   3.807   2.378   4.592 -0.2502  0.5900  3.0913
  984MOL0     H32838   3.999   2.248   4.607 -1.4859  1.0809 -1.4894
  984MOL0     H32839   4.131   2.310   4.520 -1.2679 -1.3286 -1.2768
  984MOL0     H32840   4.125   2.339   4.694  2.2738 -4.2677 -1.1534
  985MOL0     O32841  11.219   0.128   5.189  0.3698 -0.4752 -0.0620
  985MOL0     C32842  11.162   0.046   5.263 -0.1092 -0.2343  0.0979
  985MOL0     O32843  11.216  -0.072   5.304 -0.7255  0.4145 -0.6207
  985MOL0     C32844  11.338  -0.120   5.264 -0.3353 -0.3823  0.1583
  985MOL0     C32845  11.402  -0.208   5.354  0.8882  0.0888  0.4823
  985MOL0     C32846  11.518  -0.274   5.314 -0.2089 -0.0167  0.4448
  985MOL0     C32847  11.567  -0.272   5.182 -0.6214  0.0071  0.3369
  985MOL0     O32848  11.678  -0.331   5.147  0.3993 -0.5339  0.4219
  985MOL0     C32849  11.804  -0.289   5.209 -0.5002  0.3284 -0.2147
  985MOL0     C32850  11.921  -0.357   5.126  0.0580 -0.2188 -0.3376
  985MOL0     C32851  12.059  -0.307   5.179 -0.2535 -0.1683  0.1779
  985MOL0     C32852  12.156  -0.412   5.122 -0.0326  0.0732 -0.7715
  985MOL0     C32853  12.297  -0.385   5.173 -0.0617  0.2931  0.7716
  985MOL0     C32854  12.406  -0.488   5.126 -0.4195  0.6858  0.0848
  985MOL0     C32855  12.539  -0.457   5.191  0.5870  0.3974  0.4592
  985MOL0     C32856  12.646  -0.555   5.147 -0.5797 -0.3640 -0.1499
  985MOL0     N32857  12.778  -0.500   5.182  0.2034 -0.1100 -0.3265
  985MOL0     C32858  12.840  -0.396   5.122  0.1187 -0.5756  0.3473
  985MOL0     C32859  12.961  -0.380   5.199  0.4870 -0.0161  0.7925
  985MOL0     C32860  13.073  -0.296   5.137  1.2420 -0.2720  0.3210
  985MOL0     C32861  13.207  -0.356   5.165  0.4751 -0.1559  0.3204
  985MOL0     C32862  13.215  -0.502   5.128  0.1185  0.1679  0.8741
  985MOL0     C32863  13.358  -0.547   5.128  0.3148 -0.0368 -0.1082
  985MOL0     O32864  13.361  -0.679   5.069 -0.6533 -0.6207 -0.0636
  985MOL0     C32865  13.467  -0.710   4.992  0.3314 -0.2050  0.4435
  985MOL0     C32866  13.598  -0.670   5.012 -0.3389 -0.8582  0.3997
  985MOL0     C32867  13.708  -0.706   4.932  0.4256  0.6293 -0.1132
  985MOL0     C32868  13.670  -0.781   4.812 -0.0351  0.1106  0.3010
  985MOL0     C32869  13.787  -0.819   4.723  1.1329 -0.3676 -0.2883
  985MOL0     O32870  13.900  -0.758   4.748  0.2900  0.1560  0.6504
  985MOL0     C32871  14.016  -0.784   4.687  0.0291  0.1062  1.1890
  985MOL0     C32872  14.041  -0.847   4.565  0.2342 -0.1990 -0.6189
  985MOL0     C32873  14.168  -0.859   4.517  0.3410  0.7571 -0.0325
  985MOL0     C32874  14.282  -0.813   4.587  0.7167  0.3433 -0.5647
  985MOL0     O32875  14.416  -0.823   4.557  0.6426 -0.1693  0.1193
  985MOL0     C32876  14.458  -0.909   4.455 -0.6311 -0.3945 -0.9097
  985MOL0     C32877  14.608  -0.888   4.417 -0.3659 -0.6869 -1.1225
  985MOL0     C32878  14.693  -0.942   4.524 -0.4322  1.1804 -0.0153
  985MOL0     C32879  14.835  -0.899   4.514 -0.4334 -0.3634  0.0397
  985MOL0     C32880  14.942  -1.000   4.570  0.3827  0.4285  0.4148
  985MOL0     C32881  15.077  -0.933   4.542 -0.5725  0.9003  0.1699
  985MOL0     C32882  15.188  -1.037   4.549  1.5592  0.2901  0.2151
  985MOL0     C32883  15.325  -0.975   4.587 -0.0886 -0.1543  1.0035
  985MOL0    Cl32884  15.331  -0.944   4.765  0.0654  0.9594  0.2285
  985MOL0     C32885  14.255  -0.762   4.718  0.1858 -0.2984  0.2609
  985MOL0     C32886  14.123  -0.759   4.770  0.1407 -0.5231  0.2942
  985MOL0     O32887  13.764  -0.897   4.630 -0.1801 -0.0198  0.0573
  985MOL0     C32888  13.535  -0.827   4.789 -0.2542 -0.1851  0.4099
  985MOL0     C32889  13.436  -0.797   4.882  0.1541  0.7131 -1.0025
  985MOL0     N32890  12.946  -0.466   5.305  0.3418 -0.9711  0.1812
  985MOL0     N32891  12.837  -0.540   5.293  0.7888 -0.1200 -0.1207
  985MOL0     C32892  11.501  -0.186   5.094  0.6675  0.1332 -1.1419
  985MOL0     C32893  11.385  -0.109   5.133  0.1375  0.0086 -0.4021
  985MOL0     C32894  11.026   0.077   5.322  0.5798 -0.0438  0.1895
  985MOL0     C32895  10.972  -0.018   5.417 -0.5170  0.0778  0.3582
  985MOL0     C32896  10.843  -0.013   5.462  0.0282  0.3337 -0.8521
  985MOL0     C32897  10.763   0.089   5.416  0.5530  0.1809  0.3189
  985MOL0     O32898  10.642   0.073   5.471 -0.1586 -0.1341  0.6117
  985MOL0     C32899  10.562   0.188   5.517  0.5733 -0.0286 -1.5558
  985MOL0     C32900  10.609   0.239   5.655 -0.1795  0.0861  0.2245
  985MOL0     C32901  10.583   0.129   5.762  0.0281  0.2164  0.3203
  985MOL0     C32902  10.572   0.165   5.905 -0.1835  0.0856 -0.5737
  985MOL0     C32903  10.700   0.236   5.944  0.1085  0.2846 -0.9240
  985MOL0     C32904  10.793   0.293   5.990  0.3480  0.5514 -0.8420
  985MOL0     C32905  10.809   0.194   5.336 -0.1488 -0.3766  0.0592
  985MOL0     C32906  10.938   0.189   5.289  0.5596 -0.4365  0.0933
  985MOL0     C32907  10.985   0.305   5.202  0.2252  0.6874 -0.9455
  985MOL0     H32908  11.363  -0.229   5.453  0.3423 -0.1953  0.2172
  985MOL0     H32909  11.580  -0.321   5.390  0.6843  0.3461 -0.0428
  985MOL0     H32910  11.821  -0.182   5.201 -0.5736  0.2444 -1.7664
  985MOL0     H32911  11.805  -0.323   5.313 -4.7127  1.0461  0.2402
  985MOL0     H32912  11.909  -0.339   5.019  0.9504  1.5663 -0.1666
  985MOL0     H32913  11.909  -0.466   5.130 -3.3277 -0.3273 -5.1657
  985MOL0     H32914  12.059  -0.295   5.288 -1.8323  2.6172 -0.0551
  985MOL0     H32915  12.077  -0.208   5.136  0.8142 -0.6680 -0.6067
  985MOL0     H32916  12.130  -0.515   5.147  0.3183  0.8352  3.3210
  985MOL0     H32917  12.158  -0.404   5.013 -3.1027  1.0842 -0.8647
  985MOL0     H32918  12.319  -0.283   5.140  2.7383 -0.3438  0.4544
  985MOL0     H32919  12.304  -0.383   5.283  0.1648  2.3804  0.7614
  985MOL0     H32920  12.375  -0.589   5.156  0.7349  1.1516  3.2066
  985MOL0     H32921  12.410  -0.491   5.017  0.1781 -0.4473  0.1185
  985MOL0     H32922  12.521  -0.455   5.298 -3.5310 -1.1948 -0.0375
  985MOL0     H32923  12.576  -0.361   5.155  1.2846 -0.7194 -2.0875
  985MOL0     H32924  12.635  -0.652   5.195  0.3247 -0.0862  0.6494
  985MOL0     H32925  12.652  -0.562   5.038  3.5883 -0.2909 -0.0631
  985MOL0     H32926  12.815  -0.356   5.024  2.6319 -0.5349 -0.3384
  985MOL0     H32927  13.068  -0.295   5.028  1.9792  0.5627  0.2838
  985MOL0     H32928  13.077  -0.196   5.181  2.0081  0.3204 -1.0230
  985MOL0     H32929  13.278  -0.292   5.111  0.3877 -0.4652 -0.1619
  985MOL0     H32930  13.212  -0.356   5.274 -2.1393  1.4644  0.5234
  985MOL0     H32931  13.166  -0.511   5.030 -0.2017  2.2604  0.8016
  985MOL0     H32932  13.159  -0.568   5.194 -1.9874 -0.6345 -1.5454
  985MOL0     H32933  13.404  -0.548   5.228 -0.6646  0.8316  0.3605
  985MOL0     H32934  13.411  -0.473   5.067 -1.5134 -0.3135 -2.1628
  985MOL0     H32935  13.622  -0.614   5.102  0.6889 -0.0808 -0.3319
  985MOL0     H32936  13.810  -0.693   4.964  0.4952 -0.8177  0.3157
  985MOL0     H32937  13.957  -0.871   4.501  1.8855  1.8723 -3.8544
  985MOL0     H32938  14.178  -0.909   4.422 -2.0650  0.0110  0.0538
  985MOL0     H32939  14.444  -1.009   4.497 -1.0020  0.6036  1.5015
  985MOL0     H32940  14.399  -0.889   4.366  0.6818  1.2453 -1.4567
  985MOL0     H32941  14.625  -0.943   4.324 -0.8290 -4.2421  0.7116
  985MOL0     H32942  14.629  -0.782   4.401  2.0167 -0.7276  1.0275
  985MOL0     H32943  14.660  -0.919   4.626 -0.7956 -0.8880  0.3911
  985MOL0     H32944  14.684  -1.051   4.533  1.2053  1.1952  4.6169
  985MOL0     H32945  14.846  -0.802   4.564  1.0535  0.1182 -1.1587
  985MOL0     H32946  14.865  -0.869   4.414  2.9820  0.2285  1.1011
  985MOL0     H32947  14.938  -1.101   4.526  0.6078 -0.7095  2.8577
  985MOL0     H32948  14.917  -1.018   4.675  1.3671  0.6506  0.7056
  985MOL0     H32949  15.079  -0.880   4.446 -0.6948 -0.0623 -0.3690
  985MOL0     H32950  15.112  -0.866   4.621 -1.7984  0.5572  1.0282
  985MOL0     H32951  15.191  -1.084   4.450  1.3941 -0.3956  0.5324
  985MOL0     H32952  15.167  -1.125   4.609  0.3113 -0.4827 -1.2829
  985MOL0     H32953  15.409  -1.043   4.567  0.2824  0.5803 -0.0253
  985MOL0     H32954  15.340  -0.886   4.526 -2.0046 -0.0914  0.5548
  985MOL0     H32955  14.327  -0.724   4.790 -0.7674  1.6939  0.2240
  985MOL0     H32956  14.103  -0.724   4.871  0.2551  1.4865 -0.3505
  985MOL0     H32957  13.511  -0.884   4.700  0.2777  0.5082 -0.1791
  985MOL0     H32958  13.330  -0.821   4.873  0.1018  1.2789 -2.1279
  985MOL0     H32959  11.548  -0.183   4.997 -0.5894  0.1778 -1.7690
  985MOL0     H32960  11.340  -0.048   5.056  0.3718  0.0116 -0.5383
  985MOL0     H32961  11.032  -0.103   5.448 -1.1434 -0.1159  1.0749
  985MOL0     H32962  10.809  -0.105   5.510  1.0991  0.6618  0.5932
  985MOL0     H32963  10.457   0.158   5.526  0.1701  1.0463 -2.3353
  985MOL0     H32964  10.551   0.268   5.443  0.2424 -0.5888 -2.1297
  985MOL0     H32965  10.561   0.331   5.691  1.5639  0.9367  0.5059
  985MOL0     H32966  10.717   0.256   5.653  0.7749 -4.0352  3.4858
  985MOL0     H32967  10.665   0.059   5.745 -1.3967 -0.9870 -2.0375
  985MOL0     H32968  10.495   0.071   5.732 -0.7579  0.2661  2.3556
  985MOL0     H32969  10.482   0.227   5.908  0.0589  0.4077  0.5662
  985MOL0     H32970  10.558   0.067   5.952  1.0911 -0.9579 -2.2246
  985MOL0     H32971  10.877   0.343   6.034  1.5325 -0.4630 -1.8577
  985MOL0     H32972  10.741   0.271   5.302 -1.2949 -0.2980  2.3145
  985MOL0     H32973  11.008   0.255   5.107 -0.8300 -0.3833 -0.6792
  985MOL0     H32974  10.908   0.377   5.174 -0.2057  0.0148 -1.5445
  985MOL0     H32975  11.081   0.343   5.238  0.5104  0.1683 -1.1467
  986MOL0     O32976   7.915   2.469   7.299 -0.0799  0.2705 -0.5134
  986MOL0     C32977   7.855   2.372   7.254 -0.5844 -0.2552  0.2044
  986MOL0     O32978   7.913   2.267   7.187 -0.2436  0.0091  0.0312
  986MOL0     C32979   8.050   2.239   7.202  0.6609 -0.8107  0.0407
  986MOL0     C32980   8.127   2.259   7.095 -1.3400 -0.3995 -0.2781
  986MOL0     C32981   8.258   2.226   7.106 -0.6229 -0.1200  0.4328
  986MOL0     C32982   8.325   2.186   7.229 -0.3816 -0.1538  0.5897
  986MOL0     O32983   8.456   2.134   7.237  0.2158 -0.2817 -0.3239
  986MOL0     C32984   8.554   2.198   7.149  0.7947 -0.4206  0.4202
  986MOL0     C32985   8.695   2.158   7.180  0.4188  0.1890 -0.2026
  986MOL0     C32986   8.762   2.244   7.295 -0.7301  0.4953  0.9520
  986MOL0     C32987   8.894   2.199   7.348  0.1726  0.1634 -0.2083
  986MOL0     C32988   9.005   2.221   7.240 -0.2864  0.3326 -0.4394
  986MOL0     C32989   9.147   2.196   7.290  0.5175  0.3862 -0.1155
  986MOL0     C32990   9.247   2.193   7.176  0.0393 -0.1669 -0.4181
  986MOL0     C32991   9.387   2.147   7.224  0.6539 -0.1153  0.7314
  986MOL0     N32992   9.483   2.153   7.117 -0.8367 -0.3910  0.6362
  986MOL0     C32993   9.539   2.045   7.059  0.8880  0.0812  0.7425
  986MOL0     C32994   9.646   2.082   6.991  0.1307 -0.1128  0.3465
  986MOL0     C32995   9.748   1.991   6.914  0.6026 -0.4707  0.3524
  986MOL0     C32996   9.887   2.040   6.919 -0.9232  0.0264  0.1262
  986MOL0     C32997   9.939   2.171   6.848  0.7946 -0.3995 -0.2998
  986MOL0     C32998  10.090   2.179   6.817 -0.6862  0.1446 -0.2146
  986MOL0     O32999  10.135   2.082   6.719  0.2348 -0.1466  0.6999
  986MOL0     C33000  10.151   2.131   6.590  0.1846  1.0199 -0.0805
  986MOL0     C33001  10.063   2.193   6.508 -0.0428 -0.0286  0.7554
  986MOL0     C33002  10.099   2.238   6.379 -0.2455  0.0500 -0.7083
  986MOL0     C33003  10.239   2.239   6.344 -0.3329 -0.6480  0.6884
  986MOL0     C33004  10.285   2.308   6.220  0.0294 -0.0617 -0.4364
  986MOL0     O33005  10.423   2.340   6.213  0.7078 -0.6089  1.6730
  986MOL0     C33006  10.483   2.418   6.120  0.9465 -0.7529  0.5811
  986MOL0     C33007  10.412   2.532   6.075 -0.0059  0.3411 -0.6371
  986MOL0     C33008  10.472   2.612   5.973  0.0211 -0.1595  0.6204
  986MOL0     C33009  10.600   2.583   5.922 -0.5680 -0.4140 -0.5531
  986MOL0     O33010  10.663   2.671   5.838  0.1234  0.1462 -0.0304
  986MOL0     C33011  10.738   2.606   5.732 -1.0654  0.2762  0.2761
  986MOL0     C33012  10.779   2.721   5.630  0.0880 -0.2835 -0.4611
  986MOL0     C33013  10.863   2.669   5.505 -0.4198 -0.3856 -0.3861
  986MOL0     C33014  11.016   2.659   5.536 -0.3845  0.3308 -0.1057
  986MOL0     C33015  11.101   2.607   5.416 -0.6319  0.4470 -0.5238
  986MOL0     C33016  11.248   2.595   5.460 -0.6927 -0.5144 -0.0569
  986MOL0     C33017  11.337   2.537   5.352 -0.2059  0.5641  0.6757
  986MOL0     C33018  11.486   2.534   5.380  0.1792 -0.2173 -0.0978
  986MOL0    Cl33019  11.557   2.405   5.283  0.0514  0.0775  0.1704
  986MOL0     C33020  10.665   2.473   5.977  0.4005 -0.5289 -0.2991
  986MOL0     C33021  10.604   2.389   6.068  0.0101 -0.0718  0.5320
  986MOL0     O33022  10.198   2.347   6.143  0.8039  1.2498  0.1079
  986MOL0     C33023  10.331   2.171   6.431 -0.5196  0.1299  0.2337
  986MOL0     C33024  10.284   2.129   6.553 -0.3273  0.3017  0.0051
  986MOL0     N33025   9.664   2.221   7.013  0.1403  0.0694 -0.5832
  986MOL0     N33026   9.558   2.262   7.085  0.1533 -0.2100  0.5928
  986MOL0     C33027   8.243   2.174   7.340  0.1839  0.0943 -0.4705
  986MOL0     C33028   8.101   2.208   7.329 -0.8223 -0.0376  0.2318
  986MOL0     C33029   7.712   2.361   7.258  0.2626  0.2564 -0.0139
  986MOL0     C33030   7.638   2.481   7.260  0.4960 -0.2359  0.0602
  986MOL0     C33031   7.501   2.489   7.271  1.1004  0.1558  0.6844
  986MOL0     C33032   7.416   2.382   7.254  0.2731 -0.1087  0.5846
  986MOL0     O33033   7.278   2.382   7.252 -0.3863  0.0889 -0.3446
  986MOL0     C33034   7.203   2.502   7.244  0.0363  0.2140  0.0384
  986MOL0     C33035   7.176   2.546   7.386 -0.1326  0.8608  1.2045
  986MOL0     C33036   7.078   2.454   7.461  0.1252 -0.2715  0.6465
  986MOL0     C33037   7.099   2.478   7.610 -0.0159  0.8214  1.6232
  986MOL0     C33038   7.047   2.364   7.679 -0.9997  0.3844  0.0977
  986MOL0     C33039   7.003   2.264   7.737 -0.9165 -1.2400  0.2178
  986MOL0     C33040   7.482   2.256   7.252 -0.0303 -0.5201  0.4716
  986MOL0     C33041   7.625   2.245   7.258 -0.2404  0.7242  0.9070
  986MOL0     C33042   7.680   2.102   7.275  0.5494 -0.0174 -0.0573
  986MOL0     H33043   8.095   2.285   6.995  1.6189 -0.0725 -1.2127
  986MOL0     H33044   8.306   2.252   7.012  0.4102  1.9229  1.4415
  986MOL0     H33045   8.527   2.174   7.046  2.4584 -1.2204  0.1289
  986MOL0     H33046   8.542   2.307   7.153 -3.1816 -0.5967 -2.0069
  986MOL0     H33047   8.754   2.169   7.089  2.0649 -3.9656  0.1500
  986MOL0     H33048   8.707   2.050   7.198  3.5126  0.0942 -2.0873
  986MOL0     H33049   8.692   2.241   7.378 -3.0568  2.2689 -0.7847
  986MOL0     H33050   8.780   2.344   7.253  1.6781 -0.3526 -0.2056
  986MOL0     H33051   8.915   2.255   7.439  3.2405 -3.4273  1.5771
  986MOL0     H33052   8.887   2.092   7.371 -2.0571  0.3521  0.2856
  986MOL0     H33053   8.984   2.153   7.157 -2.8981 -0.7839  1.0255
  986MOL0     H33054   8.997   2.323   7.202  0.6308  1.4451  2.1287
  986MOL0     H33055   9.171   2.276   7.361  3.2989 -1.6459  1.4624
  986MOL0     H33056   9.136   2.103   7.346 -1.2469  0.3687 -0.4407
  986MOL0     H33057   9.243   2.293   7.131 -1.8064 -0.1295 -0.2421
  986MOL0     H33058   9.216   2.120   7.101 -0.6789 -0.8239  0.4865
  986MOL0     H33059   9.423   2.206   7.309  2.5369 -0.5221  0.2490
  986MOL0     H33060   9.365   2.045   7.256 -0.5400 -0.1425 -0.1077
  986MOL0     H33061   9.503   1.944   7.075 -1.3953  1.1239  2.8078
  986MOL0     H33062   9.747   1.893   6.964  0.0499  0.5775  2.5142
  986MOL0     H33063   9.719   1.978   6.809 -2.1223  0.9150  0.8434
  986MOL0     H33064   9.915   2.054   7.024  1.9956 -0.5594 -0.4842
  986MOL0     H33065   9.955   1.963   6.882  0.4268  2.6812 -3.5186
  986MOL0     H33066   9.909   2.251   6.915 -1.0771  0.1877 -1.7560
  986MOL0     H33067   9.880   2.190   6.758  3.2147  4.0397 -1.2433
  986MOL0     H33068  10.138   2.155   6.912 -1.7248  0.3035  0.3648
  986MOL0     H33069  10.117   2.279   6.782  0.1518  0.6316  1.6959
  986MOL0     H33070   9.958   2.202   6.534 -0.0748  0.1511  0.5664
  986MOL0     H33071  10.036   2.301   6.317  1.9064  2.0461 -0.9932
  986MOL0     H33072  10.309   2.551   6.103  0.4698 -0.5344  1.9199
  986MOL0     H33073  10.424   2.696   5.923  0.7986 -0.6210 -0.9716
  986MOL0     H33074  10.827   2.562   5.777 -1.8123 -0.7096  0.8415
  986MOL0     H33075  10.692   2.520   5.683 -0.4121 -0.4672  0.9423
  986MOL0     H33076  10.689   2.772   5.597  0.0952 -1.0983 -1.8066
  986MOL0     H33077  10.831   2.798   5.688  0.3647 -1.7058  1.2896
  986MOL0     H33078  10.836   2.566   5.483 -2.8791  0.3034 -0.8225
  986MOL0     H33079  10.854   2.737   5.420  1.4379  0.0945 -0.2606
  986MOL0     H33080  11.031   2.590   5.619 -1.5407  0.2307  0.0409
  986MOL0     H33081  11.056   2.761   5.548  0.3597 -0.0306  0.5852
  986MOL0     H33082  11.090   2.676   5.333  1.5043  0.8460 -0.5072
  986MOL0     H33083  11.066   2.506   5.392 -1.9617  0.0730  2.5035
  986MOL0     H33084  11.299   2.687   5.491  0.0047 -0.3617 -1.5904
  986MOL0     H33085  11.257   2.528   5.546  0.2402 -1.0116 -0.5300
  986MOL0     H33086  11.331   2.592   5.258 -0.0408 -1.1477 -0.3758
  986MOL0     H33087  11.290   2.441   5.329 -2.1333  1.4586  0.6921
  986MOL0     H33088  11.528   2.635   5.370 -0.2440 -0.0984 -0.7357
  986MOL0     H33089  11.497   2.501   5.484  0.5875  1.2813  0.3712
  986MOL0     H33090  10.767   2.442   5.953  0.5734  0.1930 -0.5078
  986MOL0     H33091  10.650   2.295   6.097 -0.6633 -0.8641 -0.8445
  986MOL0     H33092  10.439   2.172   6.417 -0.0222  0.0798  3.3088
  986MOL0     H33093  10.345   2.093   6.635 -3.5597 -0.6274  2.1456
  986MOL0     H33094   8.290   2.140   7.432 -0.3826  1.1065  0.2173
  986MOL0     H33095   8.029   2.192   7.408  1.6825  0.4026  2.7587
  986MOL0     H33096   7.687   2.577   7.269 -0.9817  0.4397  1.2386
  986MOL0     H33097   7.449   2.582   7.294 -2.7301 -1.1533 -1.7196
  986MOL0     H33098   7.109   2.475   7.194 -1.3072  0.9460  2.0532
  986MOL0     H33099   7.254   2.582   7.191 -0.1555 -0.1908 -0.7801
  986MOL0     H33100   7.141   2.650   7.382 -1.2934  0.4621 -0.0997
  986MOL0     H33101   7.272   2.547   7.438  1.1285  1.1263 -1.0233
  986MOL0     H33102   7.108   2.354   7.428  0.4053  0.8485 -3.0108
  986MOL0     H33103   6.971   2.467   7.442  0.5819  0.6385 -1.7689
  986MOL0     H33104   7.207   2.484   7.628  0.4826 -1.4593 -0.0909
  986MOL0     H33105   7.048   2.564   7.654 -3.2095  0.2518 -0.5799
  986MOL0     H33106   6.959   2.181   7.787  1.4630 -2.8260 -0.1466
  986MOL0     H33107   7.427   2.162   7.253 -0.2286 -0.4037  0.4679
  986MOL0     H33108   7.785   2.106   7.304  1.5211  0.3930 -3.1898
  986MOL0     H33109   7.628   2.042   7.351  2.9039  0.1665  1.7992
  986MOL0     H33110   7.674   2.044   7.182  4.3979  0.8560 -0.9981
  987MOL0     O33111   4.275  10.748   1.155 -0.4059 -1.0248  0.0523
  987MOL0     C33112   4.242  10.783   1.038 -0.1081  0.2902 -0.8943
  987MOL0     O33113   4.324  10.846   0.953  0.3992  0.4613 -0.3084
  987MOL0     C33114   4.455  10.853   0.995  0.2832  1.6737 -0.3809
  987MOL0     C33115   4.541  10.746   0.967  0.0373 -0.3669 -0.3754
  987MOL0     C33116   4.674  10.741   1.007  0.8365  0.0893 -0.1301
  987MOL0     C33117   4.727  10.846   1.086 -0.2614 -0.0342  1.3806
  987MOL0     O33118   4.856  10.845   1.129 -0.2653 -0.2522  0.0778
  987MOL0     C33119   4.889  10.897   1.257  0.3387 -0.2179  0.3071
  987MOL0     C33120   5.023  10.843   1.296 -0.0002  0.5961 -0.4354
  987MOL0     C33121   5.024  10.818   1.443  0.2509 -0.4058 -0.2139
  987MOL0     C33122   5.150  10.762   1.495  0.4915 -0.5419  0.9065
  987MOL0     C33123   5.248  10.876   1.516 -1.4389  0.1319  0.5216
  987MOL0     C33124   5.352  10.835   1.628  0.6378  0.4262 -0.1123
  987MOL0     C33125   5.439  10.712   1.580 -0.2552  0.0216 -0.3081
  987MOL0     C33126   5.542  10.672   1.693 -0.6865  0.3794  0.3729
  987MOL0     N33127   5.668  10.757   1.675 -0.4592  0.4624  0.4087
  987MOL0     C33128   5.779  10.723   1.610 -0.4322 -0.2274 -0.6484
  987MOL0     C33129   5.872  10.814   1.649 -0.4403  0.2106  0.5376
  987MOL0     C33130   6.010  10.836   1.601 -0.9312 -1.0443  0.1028
  987MOL0     C33131   6.128  10.784   1.685  0.3898  0.3849  0.0331
  987MOL0     C33132   6.262  10.841   1.627  0.2613  0.1010 -0.6942
  987MOL0     C33133   6.385  10.766   1.673  0.0271 -0.1878 -0.2747
  987MOL0     O33134   6.487  10.847   1.627 -0.6165  0.2385  0.6235
  987MOL0     C33135   6.622  10.827   1.644  0.2331  0.2217 -0.3193
  987MOL0     C33136   6.721  10.908   1.586  0.6761 -0.3881 -0.3221
  987MOL0     C33137   6.858  10.874   1.601  0.4125  0.0855  0.2132
  987MOL0     C33138   6.898  10.770   1.680 -0.3265 -0.5321  0.4363
  987MOL0     C33139   7.053  10.744   1.702  0.0470  0.0376  0.1511
  987MOL0     O33140   7.090  10.655   1.799 -0.4695 -0.0592 -0.1885
  987MOL0     C33141   7.223  10.647   1.847 -0.4061 -0.7530  0.2658
  987MOL0     C33142   7.264  10.532   1.925 -0.5371 -0.6746 -0.3139
  987MOL0     C33143   7.389  10.521   1.988  0.4553  0.1684 -0.8232
  987MOL0     C33144   7.480  10.625   1.984 -0.6427 -0.0939  0.3284
  987MOL0     O33145   7.601  10.604   2.049 -0.0994 -0.7297 -0.0822
  987MOL0     C33146   7.686  10.708   2.082 -0.0946 -0.3721  0.1300
  987MOL0     C33147   7.791  10.695   2.189  0.4997  0.2012  0.1588
  987MOL0     C33148   7.901  10.591   2.156  0.1126 -0.2313 -0.7618
  987MOL0     C33149   7.989  10.569   2.286  0.1040  0.6908  0.0008
  987MOL0     C33150   8.065  10.699   2.320 -0.1384 -0.4785  0.4315
  987MOL0     C33151   8.166  10.690   2.437 -0.2540 -0.4138 -0.6302
  987MOL0     C33152   8.287  10.599   2.411 -0.2287  0.1747  0.7900
  987MOL0     C33153   8.367  10.594   2.537  0.6168 -0.0011  0.1962
  987MOL0    Cl33154   8.515  10.491   2.496 -0.3491  0.3561  0.5032
  987MOL0     C33155   7.446  10.740   1.909  0.3272 -0.0651 -0.1603
  987MOL0     C33156   7.321  10.754   1.836 -0.1500  0.3956 -0.3022
  987MOL0     O33157   7.135  10.802   1.621 -0.2187  0.2374 -0.1308
  987MOL0     C33158   6.801  10.684   1.731  1.1812 -0.4565  0.1229
  987MOL0     C33159   6.659  10.708   1.709  1.1172  0.2642  0.2705
  987MOL0     N33160   5.816  10.893   1.749 -0.3671 -0.5399  1.2308
  987MOL0     N33161   5.692  10.864   1.749  0.9081  0.0124  0.2437
  987MOL0     C33162   4.635  10.948   1.121  0.1246  0.1402 -0.5244
  987MOL0     C33163   4.502  10.954   1.077 -0.5611  0.7991 -0.2298
  987MOL0     C33164   4.100  10.727   0.997 -0.5339 -0.2799 -0.4424
  987MOL0     C33165   4.054  10.611   1.054  0.2407  0.1815 -0.2935
  987MOL0     C33166   3.932  10.567   1.018  0.0180 -0.1215 -0.9080
  987MOL0     C33167   3.849  10.636   0.930 -0.1764 -0.4187 -0.5743
  987MOL0     O33168   3.720  10.595   0.900  0.0628  0.4457  0.0657
  987MOL0     C33169   3.628  10.615   1.016  0.7035  0.3962  0.2202
  987MOL0     C33170   3.484  10.606   0.985  0.6095  0.5233 -0.5414
  987MOL0     C33171   3.427  10.727   0.905 -0.8952 -0.1175  0.1703
  987MOL0     C33172   3.366  10.831   1.000 -0.1494  0.6797  0.5847
  987MOL0     C33173   3.331  10.946   0.913  1.3805  0.8674 -0.9058
  987MOL0     C33174   3.322  11.039   0.837  0.1597 -0.0267 -0.5794
  987MOL0     C33175   3.883  10.759   0.879  0.0296  0.0336 -0.1355
  987MOL0     C33176   4.013  10.802   0.916 -0.1034  0.5402 -0.2485
  987MOL0     C33177   4.052  10.931   0.860  0.1039  0.1202 -0.8037
  987MOL0     H33178   4.507  10.663   0.905 -1.7959  0.2636 -0.2973
  987MOL0     H33179   4.732  10.660   0.965 -2.7440 -1.0922 -3.2744
  987MOL0     H33180   4.887  11.005   1.273  1.7128 -0.4384  2.2263
  987MOL0     H33181   4.819  10.850   1.326 -1.4825 -1.5721 -2.2752
  987MOL0     H33182   5.101  10.911   1.260  0.7763  0.6590  1.2533
  987MOL0     H33183   5.024  10.739   1.260 -2.5755 -0.4742  2.2497
  987MOL0     H33184   4.953  10.738   1.467  0.8596 -1.5447 -1.9888
  987MOL0     H33185   4.984  10.909   1.489  0.6606  0.2055 -1.0440
  987MOL0     H33186   5.126  10.703   1.584 -0.7006 -2.5017 -0.6264
  987MOL0     H33187   5.215  10.696   1.437  2.1850  1.7556  0.0594
  987MOL0     H33188   5.309  10.891   1.427 -2.1597 -2.2492 -0.4411
  987MOL0     H33189   5.201  10.973   1.535  0.1925  0.8906  0.8890
  987MOL0     H33190   5.411  10.927   1.627  0.6711  0.5515 -4.4569
  987MOL0     H33191   5.302  10.817   1.724  2.1158  1.8739  0.9871
  987MOL0     H33192   5.485  10.741   1.485 -0.6425 -1.1433 -0.8629
  987MOL0     H33193   5.379  10.623   1.563  0.1300 -0.3291  0.1382
  987MOL0     H33194   5.502  10.687   1.793  1.1353 -2.1230  1.5860
  987MOL0     H33195   5.569  10.567   1.680  0.3520  0.7110 -0.2687
  987MOL0     H33196   5.796  10.633   1.553 -1.8057 -0.2805 -1.0027
  987MOL0     H33197   6.012  10.800   1.498 -0.8773  0.0260 -0.2830
  987MOL0     H33198   6.018  10.944   1.586 -3.8673 -0.9270 -1.4912
  987MOL0     H33199   6.111  10.808   1.790  1.8151 -2.2132  0.9463
  987MOL0     H33200   6.126  10.675   1.676 -1.8149  0.3996 -0.2658
  987MOL0     H33201   6.279  10.948   1.643  2.0106 -0.3615  0.8185
  987MOL0     H33202   6.263  10.825   1.518 -0.7020 -0.2491 -0.6642
  987MOL0     H33203   6.383  10.662   1.637 -0.0069 -0.9747  1.8359
  987MOL0     H33204   6.388  10.752   1.782 -1.7106 -0.5113 -0.2229
  987MOL0     H33205   6.694  10.999   1.534 -1.1900 -1.4125 -1.2391
  987MOL0     H33206   6.937  10.939   1.562 -1.8744  3.6460  0.9968
  987MOL0     H33207   7.187  10.456   1.931 -1.6699  0.4030 -0.7120
  987MOL0     H33208   7.415  10.440   2.055  1.0949  2.1921  1.5003
  987MOL0     H33209   7.746  10.727   1.993 -0.7127  0.6627 -0.0871
  987MOL0     H33210   7.617  10.787   2.114  0.2711 -0.6776  1.7949
  987MOL0     H33211   7.839  10.792   2.204  0.5936  0.4361 -1.4946
  987MOL0     H33212   7.747  10.663   2.284  1.2988  0.1332  0.5141
  987MOL0     H33213   7.854  10.499   2.121 -1.9551  0.4364  0.0905
  987MOL0     H33214   7.965  10.632   2.078  1.8233  5.1787  2.9313
  987MOL0     H33215   8.055  10.483   2.273  2.4579  2.1258  1.7113
  987MOL0     H33216   7.918  10.539   2.364  1.3239 -0.1169  0.8302
  987MOL0     H33217   7.992  10.778   2.340  1.1615  1.2720 -1.3127
  987MOL0     H33218   8.124  10.738   2.236 -0.0614 -1.1342  0.1782
  987MOL0     H33219   8.204  10.788   2.467 -0.5633 -0.9229  1.5678
  987MOL0     H33220   8.126  10.649   2.530  3.0256  0.2931  1.2673
  987MOL0     H33221   8.355  10.647   2.340 -1.1683 -0.2427 -0.4374
  987MOL0     H33222   8.254  10.499   2.382 -1.1117  0.8480 -0.6701
  987MOL0     H33223   8.378  10.697   2.571  0.0921 -0.0565  0.5436
  987MOL0     H33224   8.311  10.537   2.610  0.0226 -2.9555 -2.3372
  987MOL0     H33225   7.505  10.830   1.923 -0.6178  0.2182  2.4772
  987MOL0     H33226   7.303  10.840   1.773 -0.1748  1.3474  0.9722
  987MOL0     H33227   6.823  10.598   1.794  2.5184 -0.2113  0.0319
  987MOL0     H33228   6.587  10.637   1.748  2.9889 -1.4026  0.8573
  987MOL0     H33229   4.670  11.038   1.172  1.7609 -0.2127 -0.9566
  987MOL0     H33230   4.434  11.035   1.103 -3.9168 -1.7170 -0.3409
  987MOL0     H33231   4.111  10.535   1.107 -1.4095 -1.5596 -0.8685
  987MOL0     H33232   3.893  10.470   1.046 -1.8097  1.2154  1.5489
  987MOL0     H33233   3.642  10.712   1.064 -1.3646  1.0998 -0.4926
  987MOL0     H33234   3.650  10.535   1.087 -0.1397 -1.3140 -1.3500
  987MOL0     H33235   3.421  10.590   1.072  0.8895  0.7204 -0.3013
  987MOL0     H33236   3.464  10.522   0.918  0.0665 -0.0651  0.3520
  987MOL0     H33237   3.360  10.689   0.827  2.5748  0.3307 -3.3842
  987MOL0     H33238   3.504  10.785   0.852 -0.3589  0.1879  1.2497
  987MOL0     H33239   3.274  10.796   1.048 -0.0155 -0.6440 -0.0993
  987MOL0     H33240   3.441  10.865   1.072 -0.2367  2.1462  0.0234
  987MOL0     H33241   3.317  11.114   0.760  0.5441 -1.1964 -1.7847
  987MOL0     H33242   3.813  10.824   0.827 -1.7643 -1.9790 -0.3583
  987MOL0     H33243   4.117  10.914   0.774 -0.6219  0.6515 -1.4757
  987MOL0     H33244   3.975  11.008   0.843  0.9233  2.8203  5.1522
  987MOL0     H33245   4.119  10.985   0.928  0.0238  2.6004 -2.5416
  988MOL0     O33246   8.544   8.306   0.028 -0.4773  0.1284  0.1840
  988MOL0     C33247   8.478   8.204   0.051 -0.8370  0.4122  0.8338
  988MOL0     O33248   8.529   8.091   0.119 -0.3929  0.8747  0.7079
  988MOL0     C33249   8.649   8.087   0.189 -0.0483 -0.0464 -0.4802
  988MOL0     C33250   8.684   7.960   0.219  0.5121  0.2164 -1.1585
  988MOL0     C33251   8.787   7.930   0.294 -0.7137  1.0490  0.0149
  988MOL0     C33252   8.873   8.026   0.345 -0.1162  0.5279  1.0380
  988MOL0     O33253   8.998   8.000   0.409 -0.5436 -0.6819 -0.3749
  988MOL0     C33254   8.991   7.894   0.504  0.3524  0.8269 -0.2621
  988MOL0     C33255   9.097   7.919   0.602  0.0585 -0.3077  0.6871
  988MOL0     C33256   9.165   7.791   0.646  0.3212 -0.1787  0.4301
  988MOL0     C33257   9.251   7.811   0.767 -0.1810 -0.4467  0.8799
  988MOL0     C33258   9.309   7.679   0.823 -0.1354 -0.2296  0.5730
  988MOL0     C33259   9.383   7.705   0.952 -0.6631  0.1229 -0.5028
  988MOL0     C33260   9.529   7.756   0.927 -0.2933  0.4255  0.7675
  988MOL0     C33261   9.621   7.732   1.054  0.0495  0.0298 -0.5395
  988MOL0     N33262   9.584   7.831   1.163  1.2547 -0.4091  0.1896
  988MOL0     C33263   9.640   7.824   1.294  0.6888  0.1744  0.4429
  988MOL0     C33264   9.558   7.905   1.370  0.4883  1.7306  0.0874
  988MOL0     C33265   9.575   7.941   1.512 -0.3164  0.8225 -0.4931
  988MOL0     C33266   9.715   8.010   1.536 -0.0290 -0.3694 -0.4906
  988MOL0     C33267   9.739   8.016   1.693  0.6430  0.0461 -0.2529
  988MOL0     C33268   9.873   8.092   1.726 -0.4463  0.3475 -0.2851
  988MOL0     O33269   9.975   7.994   1.743 -0.5399 -0.5342  0.4350
  988MOL0     C33270  10.106   8.033   1.762  0.5061 -0.6775  0.1612
  988MOL0     C33271  10.145   8.164   1.776 -0.5186 -0.6926  0.2313
  988MOL0     C33272  10.279   8.190   1.808  0.7405 -0.5082 -0.1194
  988MOL0     C33273  10.376   8.089   1.815  1.0245 -1.1099 -0.1348
  988MOL0     C33274  10.508   8.114   1.883  0.5609 -0.1226  0.3012
  988MOL0     O33275  10.513   8.231   1.960  0.2657  0.5092  0.0713
  988MOL0     C33276  10.610   8.258   2.057  0.4358  0.1700  0.8650
  988MOL0     C33277  10.557   8.324   2.167  0.0199  0.2972 -0.2836
  988MOL0     C33278  10.645   8.350   2.276 -0.4002  0.3336  0.2474
  988MOL0     C33279  10.776   8.304   2.280 -0.0632 -1.0455  0.4152
  988MOL0     O33280  10.868   8.338   2.378 -0.4042  0.4579  0.8754
  988MOL0     C33281  10.867   8.460   2.454 -0.1974  0.5029 -0.1786
  988MOL0     C33282  10.815   8.428   2.594  1.2079 -0.2852  0.0908
  988MOL0     C33283  10.896   8.337   2.687 -0.5208  0.3050  0.3008
  988MOL0     C33284  11.044   8.384   2.698  0.7500  0.8278  0.6608
  988MOL0     C33285  11.130   8.291   2.780 -0.0261 -0.3825  0.6768
  988MOL0     C33286  11.077   8.267   2.921  0.2762  0.2519 -0.0097
  988MOL0     C33287  11.054   8.395   3.010 -1.1210 -1.1937 -0.6278
  988MOL0     C33288  11.008   8.364   3.153  0.0700  0.0292 -0.2369
  988MOL0    Cl33289  11.145   8.316   3.256 -0.1738 -0.3051  0.3790
  988MOL0     C33290  10.816   8.232   2.167  0.3788 -0.1320 -0.4926
  988MOL0     C33291  10.738   8.209   2.057 -0.2239 -0.3801  0.5297
  988MOL0     O33292  10.591   8.032   1.878 -0.0192 -0.4949  0.6470
  988MOL0     C33293  10.323   7.956   1.807 -1.2426  0.0837 -0.7369
  988MOL0     C33294  10.197   7.928   1.777  0.2958  0.5218 -0.3233
  988MOL0     N33295   9.475   7.966   1.282 -0.4421  0.4139  0.5107
  988MOL0     N33296   9.487   7.920   1.160  0.9511  0.3879  0.7496
  988MOL0     C33297   8.844   8.159   0.313  0.3129 -0.6298  0.5756
  988MOL0     C33298   8.735   8.191   0.225 -0.4476  0.3140  0.4151
  988MOL0     C33299   8.345   8.203   0.003  0.0878  0.0993 -0.2748
  988MOL0     C33300   8.274   8.084   0.024 -0.5789  0.8861  0.9362
  988MOL0     C33301   8.142   8.073  -0.008  0.7185 -1.1787  0.2932
  988MOL0     C33302   8.074   8.181  -0.078 -0.0705 -0.3673 -1.0304
  988MOL0     O33303   7.942   8.167  -0.106  0.0937 -0.2423 -0.3367
  988MOL0     C33304   7.869   8.267  -0.182 -0.4657  0.1093 -0.1901
  988MOL0     C33305   7.870   8.256  -0.329  0.4721 -0.0605  0.0650
  988MOL0     C33306   7.978   8.314  -0.428 -1.1185 -0.6295 -0.6792
  988MOL0     C33307   7.958   8.470  -0.445 -0.7404 -0.3037  0.7335
  988MOL0     C33308   8.024   8.553  -0.343  0.0561  0.1551  0.0724
  988MOL0     C33309   8.075   8.633  -0.260  0.2305  0.5950 -0.4950
  988MOL0     C33310   8.147   8.294  -0.097  0.0767 -0.3439 -0.2267
  988MOL0     C33311   8.278   8.303  -0.065  0.7908 -0.2897  0.2566
  988MOL0     C33312   8.347   8.428  -0.119 -0.1698  0.2822 -0.3547
  988MOL0     H33313   8.624   7.875   0.186  0.0627  0.7076 -1.6233
  988MOL0     H33314   8.806   7.825   0.310  1.5997  1.5843  1.2624
  988MOL0     H33315   8.898   7.881   0.560  1.3345 -4.7487  0.7160
  988MOL0     H33316   9.018   7.799   0.456  2.5905  2.1120 -1.7337
  988MOL0     H33317   9.061   7.979   0.686 -0.0235  1.2245 -0.4075
  988MOL0     H33318   9.172   7.985   0.558 -1.6190  1.4207  0.2873
  988MOL0     H33319   9.233   7.762   0.566  0.2450  1.7907 -0.3900
  988MOL0     H33320   9.090   7.712   0.660 -0.1849  0.1072 -0.6122
  988MOL0     H33321   9.315   7.898   0.749 -2.6366  1.1553 -0.6172
  988MOL0     H33322   9.184   7.842   0.848 -2.6030  0.5124 -1.3618
  988MOL0     H33323   9.234   7.602   0.841  0.3339 -0.8342  0.0054
  988MOL0     H33324   9.378   7.635   0.750  0.0502 -1.8528  1.6707
  988MOL0     H33325   9.337   7.779   1.019  1.7293 -0.5943  2.1692
  988MOL0     H33326   9.397   7.609   1.003  2.4866  1.9523  2.5514
  988MOL0     H33327   9.525   7.861   0.897  1.7758  0.6416  1.1063
  988MOL0     H33328   9.586   7.700   0.852 -0.7208 -0.7148  1.2715
  988MOL0     H33329   9.607   7.632   1.097 -1.6208  0.3941 -0.1626
  988MOL0     H33330   9.720   7.744   1.011 -0.7167 -0.1173 -2.4288
  988MOL0     H33331   9.720   7.764   1.336 -1.0790 -2.1345  0.7662
  988MOL0     H33332   9.502   8.017   1.542  1.3154  1.1764  3.1099
  988MOL0     H33333   9.559   7.855   1.579 -0.3292  2.0014  1.0896
  988MOL0     H33334   9.798   7.950   1.497  0.6664  0.5547 -0.4632
  988MOL0     H33335   9.703   8.113   1.500  0.0944  0.6760  2.2002
  988MOL0     H33336   9.742   7.910   1.722 -0.3946  0.0212 -0.2179
  988MOL0     H33337   9.652   8.063   1.738  1.0853  1.1735 -0.5376
  988MOL0     H33338   9.856   8.143   1.821  2.6114  0.7126  0.1514
  988MOL0     H33339   9.902   8.166   1.651 -1.4353  0.6193 -0.4228
  988MOL0     H33340  10.079   8.251   1.774  0.1772 -0.1586 -2.0022
  988MOL0     H33341  10.303   8.294   1.823  2.1019 -1.0884  2.2461
  988MOL0     H33342  10.453   8.355   2.171 -0.5617 -1.3040 -1.8425
  988MOL0     H33343  10.611   8.418   2.352  0.9250  1.3075  0.0149
  988MOL0     H33344  10.969   8.499   2.458 -0.5767  1.6453 -1.2564
  988MOL0     H33345  10.802   8.535   2.409 -3.4254 -1.7418  0.4448
  988MOL0     H33346  10.793   8.523   2.643  0.1331 -0.6685  0.3826
  988MOL0     H33347  10.716   8.382   2.583  0.0903  2.1114 -0.7404
  988MOL0     H33348  10.843   8.330   2.783  0.9885  0.8799  1.2136
  988MOL0     H33349  10.908   8.239   2.640 -0.5149  1.5128 -2.3872
  988MOL0     H33350  11.044   8.481   2.748  1.2469  1.1501  0.0600
  988MOL0     H33351  11.087   8.394   2.597 -0.0356 -1.2320  0.0754
  988MOL0     H33352  11.230   8.331   2.798  1.1631 -3.1361  0.5855
  988MOL0     H33353  11.132   8.198   2.723  0.9199  0.9833 -1.6548
  988MOL0     H33354  10.982   8.212   2.917 -1.5045  3.1207 -0.5016
  988MOL0     H33355  11.156   8.206   2.965  1.0415 -0.2979 -2.0319
  988MOL0     H33356  10.989   8.468   2.960 -1.3249 -1.4750 -0.7727
  988MOL0     H33357  11.154   8.439   3.009 -0.6963 -2.0020 -3.8722
  988MOL0     H33358  10.971   8.458   3.196  1.3085 -1.1908  3.9771
  988MOL0     H33359  10.939   8.280   3.167  1.5721 -0.8618  2.4218
  988MOL0     H33360  10.915   8.191   2.158  1.4309  2.0371  0.3236
  988MOL0     H33361  10.780   8.144   1.981 -0.7187 -1.4109  1.1120
  988MOL0     H33362  10.388   7.869   1.818 -1.8164 -0.2522  0.0879
  988MOL0     H33363  10.178   7.821   1.777 -0.1857  0.5922 -1.3626
  988MOL0     H33364   8.923   8.228   0.342 -0.3766  1.3403 -1.8516
  988MOL0     H33365   8.726   8.291   0.184 -1.9808 -0.0585 -0.2216
  988MOL0     H33366   8.313   7.997   0.075  1.7287 -0.1276 -2.2545
  988MOL0     H33367   8.085   7.981   0.004 -0.8025 -0.3230 -0.0582
  988MOL0     H33368   7.906   8.366  -0.154  0.1949  0.0036 -0.6729
  988MOL0     H33369   7.763   8.257  -0.155 -0.8936 -0.3864 -1.9124
  988MOL0     H33370   7.771   8.293  -0.357  0.3668 -0.6728 -0.4040
  988MOL0     H33371   7.869   8.147  -0.344  0.7006 -0.3788  2.1059
  988MOL0     H33372   7.969   8.274  -0.530 -0.0828 -1.1373 -0.5852
  988MOL0     H33373   8.079   8.284  -0.399 -0.6902 -0.6126 -2.0480
  988MOL0     H33374   7.977   8.501  -0.548 -1.4056 -3.0108 -0.3047
  988MOL0     H33375   7.852   8.487  -0.422 -1.3678 -2.0505 -0.5890
  988MOL0     H33376   8.109   8.705  -0.189 -1.7729  1.1474 -0.0389
  988MOL0     H33377   8.106   8.378  -0.151  0.5346  0.9410  1.3419
  988MOL0     H33378   8.346   8.499  -0.036  0.8361  1.0172 -0.9352
  988MOL0     H33379   8.445   8.409  -0.164 -0.3513  0.6114 -0.8966
  988MOL0     H33380   8.293   8.473  -0.203 -1.0094 -0.6383 -0.3195
  989MOL0     O33381   8.155  11.220   2.362  0.3842  0.1519 -0.6800
  989MOL0     C33382   8.128  11.294   2.268  0.8891 -0.0872  0.0068
  989MOL0     O33383   8.181  11.422   2.258  0.0637  0.2407  0.5245
  989MOL0     C33384   8.267  11.463   2.352 -0.7660 -0.1838 -0.5966
  989MOL0     C33385   8.220  11.563   2.436 -0.2372  0.7888  0.2671
  989MOL0     C33386   8.310  11.617   2.528  0.1113 -0.0025  0.3153
  989MOL0     C33387   8.453  11.599   2.520  0.5139 -0.2457 -0.6999
  989MOL0     O33388   8.544  11.676   2.595  0.1386  0.0136  0.4139
  989MOL0     C33389   8.494  11.776   2.681 -0.5521  0.9144 -0.6509
  989MOL0     C33390   8.612  11.851   2.745  0.2757  0.4040  0.2490
  989MOL0     C33391   8.681  11.951   2.652  0.2816  0.0080  0.1502
  989MOL0     C33392   8.792  12.016   2.720 -0.4449  0.1874  0.2491
  989MOL0     C33393   8.852  12.124   2.635 -0.1286  0.4976 -0.1742
  989MOL0     C33394   8.993  12.070   2.603 -0.2167  0.5663 -0.4983
  989MOL0     C33395   9.062  12.160   2.500 -0.2460  0.7184 -0.1873
  989MOL0     C33396   9.184  12.096   2.429  0.7450 -0.0389 -0.3462
  989MOL0     N33397   9.253  12.201   2.345 -0.2630  0.1171 -0.1076
  989MOL0     C33398   9.317  12.309   2.403  0.3900 -1.3248  0.1635
  989MOL0     C33399   9.352  12.392   2.300 -0.2857 -0.4172  0.7401
  989MOL0     C33400   9.448  12.505   2.309 -1.3228 -0.2000 -0.7914
  989MOL0     C33401   9.504  12.565   2.437 -0.9384  0.8181  0.3868
  989MOL0     C33402   9.574  12.702   2.418  0.1265 -0.2535  0.1827
  989MOL0     C33403   9.645  12.750   2.548  0.0888  0.9525  0.6878
  989MOL0     O33404   9.688  12.879   2.540 -0.3203 -0.7358 -0.1887
  989MOL0     C33405   9.821  12.905   2.523  0.7575  0.4849  0.1511
  989MOL0     C33406   9.853  13.041   2.535 -0.6501 -0.1586 -0.5904
  989MOL0     C33407   9.981  13.087   2.515  0.1207  0.4000 -0.1537
  989MOL0     C33408  10.089  12.988   2.490 -0.2783 -0.6168 -0.3463
  989MOL0     C33409  10.224  13.034   2.460 -0.4260 -0.0828  0.2263
  989MOL0     O33410  10.321  12.932   2.473  0.1917  0.1686  0.0908
  989MOL0     C33411  10.448  12.976   2.479  0.1398  0.4644  0.2518
  989MOL0     C33412  10.531  12.957   2.593  0.3399 -0.3199  0.2335
  989MOL0     C33413  10.660  13.014   2.598 -0.8554 -0.0087 -0.1396
  989MOL0     C33414  10.717  13.074   2.481  0.0324  0.3933 -0.7544
  989MOL0     O33415  10.840  13.122   2.454  0.0333  0.5803 -0.4879
  989MOL0     C33416  10.944  13.113   2.557  0.3339 -0.6573  1.0245
  989MOL0     C33417  10.993  12.971   2.576  0.3422  0.5870  0.9125
  989MOL0     C33418  11.125  12.964   2.633 -0.2233  0.3724 -0.1258
  989MOL0     C33419  11.174  12.819   2.624 -0.1770 -0.3074  0.3333
  989MOL0     C33420  11.293  12.787   2.705  1.1467  0.4599  0.4404
  989MOL0     C33421  11.420  12.851   2.646  0.3231 -0.3028 -0.0063
  989MOL0     C33422  11.545  12.774   2.684 -0.4291  0.4162  0.0560
  989MOL0     C33423  11.655  12.875   2.645 -0.3062 -0.1913 -0.8488
  989MOL0    Cl33424  11.650  12.918   2.470 -0.4788 -0.3347 -0.3015
  989MOL0     C33425  10.637  13.087   2.373 -0.3740  0.0132  0.0020
  989MOL0     C33426  10.505  13.044   2.369 -0.7993  0.3154 -0.0469
  989MOL0     O33427  10.246  13.155   2.444 -0.1077  0.2884  0.0303
  989MOL0     C33428  10.054  12.854   2.488 -0.0560  0.5185  0.2530
  989MOL0     C33429   9.920  12.813   2.496  0.0822  0.4867 -0.7590
  989MOL0     N33430   9.313  12.332   2.175  0.3240 -0.5526 -0.5647
  989MOL0     N33431   9.253  12.218   2.210 -0.2295 -0.7234  0.7660
  989MOL0     C33432   8.496  11.505   2.431 -0.5560 -1.0479  0.1256
  989MOL0     C33433   8.406  11.433   2.352 -0.1221  0.8062 -0.1930
  989MOL0     C33434   8.004  11.261   2.182 -0.1426 -0.6254  0.3470
  989MOL0     C33435   7.920  11.370   2.152  0.5603 -0.2455  1.2334
  989MOL0     C33436   7.804  11.341   2.074  0.3554 -0.7969 -0.0713
  989MOL0     C33437   7.778  11.214   2.018 -0.3044 -0.7056 -0.3048
  989MOL0     O33438   7.677  11.223   1.920 -0.4293  0.1717 -0.4889
  989MOL0     C33439   7.631  11.091   1.895 -0.5655  0.5082 -0.5132
  989MOL0     C33440   7.515  11.101   1.799 -0.1948 -0.1652 -0.2217
  989MOL0     C33441   7.403  11.191   1.844 -0.0942 -0.7804  0.1423
  989MOL0     C33442   7.276  11.204   1.762 -0.0560 -0.0375 -0.4007
  989MOL0     C33443   7.298  11.272   1.636 -0.7151  0.5838  1.1985
  989MOL0     C33444   7.309  11.333   1.533  0.0953 -0.3921 -0.2404
  989MOL0     C33445   7.857  11.110   2.057  0.0120 -0.6314 -0.3703
  989MOL0     C33446   7.975  11.130   2.138  0.2008  0.3648  0.8600
  989MOL0     C33447   8.062  11.013   2.152 -0.6870  0.2258  0.2450
  989MOL0     H33448   8.117  11.596   2.428 -1.3872 -2.3222  0.7692
  989MOL0     H33449   8.259  11.680   2.600  1.9320  0.5114  1.2302
  989MOL0     H33450   8.431  11.841   2.619  0.8846  0.6403 -2.4862
  989MOL0     H33451   8.431  11.743   2.764 -0.7713 -0.3993 -1.3168
  989MOL0     H33452   8.686  11.775   2.770  1.8220  1.1408 -1.8357
  989MOL0     H33453   8.578  11.888   2.842  3.4651 -3.0407  2.9874
  989MOL0     H33454   8.612  12.025   2.610 -0.3667 -0.2593  0.7380
  989MOL0     H33455   8.730  11.899   2.569 -0.7178 -0.6968 -0.0141
  989MOL0     H33456   8.747  12.066   2.806 -1.5907 -1.2011  0.4968
  989MOL0     H33457   8.870  11.948   2.755 -0.1205  0.8400  0.8240
  989MOL0     H33458   8.786  12.142   2.549 -0.3507 -1.9927 -0.6114
  989MOL0     H33459   8.865  12.216   2.691 -3.3358  1.3593 -0.6220
  989MOL0     H33460   9.054  12.066   2.693  0.9152 -1.7300 -1.2725
  989MOL0     H33461   8.993  11.967   2.565 -0.4843  0.6230 -0.6562
  989MOL0     H33462   9.091  12.256   2.543  1.1263 -0.2926  1.2621
  989MOL0     H33463   8.994  12.185   2.418 -0.9308 -0.6032 -0.0499
  989MOL0     H33464   9.250  12.046   2.500 -0.3775 -1.1745 -0.0815
  989MOL0     H33465   9.136  12.021   2.366 -1.5222  1.3545 -0.3992
  989MOL0     H33466   9.330  12.333   2.508 -2.5186 -3.1332  1.0664
  989MOL0     H33467   9.538  12.476   2.253 -0.2993  2.3657 -0.6034
  989MOL0     H33468   9.398  12.590   2.261 -1.4416  0.0712 -0.1969
  989MOL0     H33469   9.421  12.580   2.507  0.9552  0.3620  2.8471
  989MOL0     H33470   9.581  12.502   2.482 -1.5431  0.3279  0.7469
  989MOL0     H33471   9.503  12.776   2.378  3.0061  2.1456 -0.9512
  989MOL0     H33472   9.651  12.693   2.341 -0.0820  1.2942 -0.2397
  989MOL0     H33473   9.720  12.681   2.588 -0.9012  0.4437  1.7154
  989MOL0     H33474   9.569  12.749   2.627  2.1127 -1.4977  2.8108
  989MOL0     H33475   9.783  13.121   2.558  1.4972  2.4632 -2.5645
  989MOL0     H33476  10.003  13.194   2.514  1.6059  0.1736  2.0718
  989MOL0     H33477  10.491  12.899   2.676  1.0517  1.0219  1.5689
  989MOL0     H33478  10.719  12.989   2.685 -2.7389 -0.2750  1.1181
  989MOL0     H33479  11.028  13.174   2.522  0.8106 -1.7730  0.1701
  989MOL0     H33480  10.914  13.159   2.651 -0.9721  1.0455 -0.1601
  989MOL0     H33481  10.918  12.934   2.646 -0.9050 -1.1033 -1.2209
  989MOL0     H33482  10.984  12.933   2.474 -1.3144  1.2020  0.7985
  989MOL0     H33483  11.191  13.022   2.568  0.7283 -2.4814 -1.9076
  989MOL0     H33484  11.125  13.009   2.732  0.3712  1.1265 -0.4573
  989MOL0     H33485  11.199  12.814   2.518  0.0104  2.4941  0.1522
  989MOL0     H33486  11.086  12.757   2.645 -0.9533  0.7565  0.3402
  989MOL0     H33487  11.297  12.678   2.705 -2.1952  0.2202 -0.9517
  989MOL0     H33488  11.271  12.820   2.806 -2.6067  1.6252 -0.6069
  989MOL0     H33489  11.413  12.850   2.537 -0.4238  1.0000  0.0076
  989MOL0     H33490  11.418  12.958   2.669 -1.3236 -0.3801  0.3057
  989MOL0     H33491  11.562  12.680   2.630  0.8114 -0.4591  1.8945
  989MOL0     H33492  11.544  12.740   2.788  1.7725 -2.1979 -0.6600
  989MOL0     H33493  11.656  12.963   2.709  2.9198 -0.1547 -0.8017
  989MOL0     H33494  11.752  12.833   2.673 -0.2729 -0.5388 -1.4617
  989MOL0     H33495  10.674  13.143   2.287 -1.0181  1.7553  0.7976
  989MOL0     H33496  10.445  13.086   2.289  1.5034  1.7531 -1.1193
  989MOL0     H33497  10.126  12.780   2.453 -0.6117  1.2299 -2.6988
  989MOL0     H33498   9.898  12.708   2.481 -2.9709  1.3189 -3.3137
  989MOL0     H33499   8.604  11.493   2.425 -0.6634 -1.4718 -1.3570
  989MOL0     H33500   8.440  11.352   2.288 -0.2606 -0.0665  0.8119
  989MOL0     H33501   7.933  11.474   2.179 -0.5065  0.0651  0.5850
  989MOL0     H33502   7.729  11.416   2.048  2.5455  1.8406  0.7694
  989MOL0     H33503   7.596  11.041   1.986 -1.0259 -0.1002 -1.0210
  989MOL0     H33504   7.708  11.028   1.850 -0.4153  1.1482 -1.1535
  989MOL0     H33505   7.477  10.999   1.786 -2.5321  0.1984  2.6789
  989MOL0     H33506   7.560  11.133   1.705  0.0760 -0.3000 -0.1393
  989MOL0     H33507   7.441  11.292   1.862 -1.6308 -0.3321  1.0621
  989MOL0     H33508   7.364  11.163   1.943 -1.6251  1.0182  0.0883
  989MOL0     H33509   7.222  11.110   1.751 -1.0043  0.5295 -0.7155
  989MOL0     H33510   7.215  11.272   1.822  2.4549  1.2979  0.8035
  989MOL0     H33511   7.330  11.374   1.436 -1.7887 -1.2754 -1.0691
  989MOL0     H33512   7.842  11.012   2.014  0.4164 -2.0935  2.5813
  989MOL0     H33513   8.017  10.919   2.119 -0.8159 -0.7733  3.0244
  989MOL0     H33514   8.153  11.013   2.091  0.7898  0.8738  2.3060
  989MOL0     H33515   8.099  11.008   2.255  0.0647  2.2400  0.1219
  990MOL0     O33516   6.677   8.445   1.156  0.2183  0.6883 -0.9593
  990MOL0     C33517   6.679   8.570   1.179 -0.7617  0.2906  0.5534
  990MOL0     O33518   6.788   8.643   1.172 -0.1144  0.1894  0.1371
  990MOL0     C33519   6.899   8.579   1.116 -0.6044  0.5975 -1.1045
  990MOL0     C33520   6.995   8.524   1.203 -0.0738 -0.8813  0.3332
  990MOL0     C33521   7.112   8.469   1.151 -0.6832 -0.5619 -0.9034
  990MOL0     C33522   7.131   8.451   1.010  0.8565 -0.8112 -0.5146
  990MOL0     O33523   7.252   8.409   0.948 -0.4279  0.7411  0.2181
  990MOL0     C33524   7.366   8.377   1.033  0.7702  0.3265 -0.0841
  990MOL0     C33525   7.481   8.352   0.935 -0.3045 -0.6761  0.6939
  990MOL0     C33526   7.613   8.381   1.006  0.3420  0.1759 -0.2774
  990MOL0     C33527   7.741   8.367   0.923 -0.4491  0.0616 -0.0374
  990MOL0     C33528   7.868   8.387   1.009 -0.8176 -0.5274 -0.0300
  990MOL0     C33529   7.997   8.311   0.961  0.6365 -0.2973 -0.4656
  990MOL0     C33530   8.106   8.303   1.069 -0.1587 -0.2957 -0.1422
  990MOL0     C33531   8.237   8.238   1.007  0.0364 -0.7694 -0.0333
  990MOL0     N33532   8.358   8.251   1.085 -0.4251 -0.1877  0.4150
  990MOL0     C33533   8.406   8.368   1.132  0.2344 -0.3266  0.3617
  990MOL0     C33534   8.520   8.345   1.183 -0.3398 -0.3186 -0.5273
  990MOL0     C33535   8.612   8.457   1.222 -0.6159 -0.1418 -0.8619
  990MOL0     C33536   8.748   8.390   1.228  1.2752  0.3820 -0.5004
  990MOL0     C33537   8.847   8.506   1.282 -0.8318  0.4814  1.1934
  990MOL0     C33538   8.988   8.444   1.315 -0.3163  0.5587  0.2295
  990MOL0     O33539   9.078   8.542   1.365  0.9056  0.7657  0.2815
  990MOL0     C33540   9.210   8.519   1.333 -0.2365  1.0799  0.2031
  990MOL0     C33541   9.292   8.622   1.289  0.5140 -0.0138  0.4434
  990MOL0     C33542   9.427   8.596   1.259 -0.1225  0.0877  0.4621
  990MOL0     C33543   9.485   8.465   1.275  0.7152 -0.2847  0.6296
  990MOL0     C33544   9.634   8.441   1.262  0.1073  1.0823  0.2836
  990MOL0     O33545   9.685   8.334   1.338  0.6137 -0.0169 -0.4774
  990MOL0     C33546   9.794   8.282   1.297 -1.1164 -0.4771  0.5488
  990MOL0     C33547   9.781   8.183   1.204  0.0245 -0.4375 -0.1335
  990MOL0     C33548   9.890   8.112   1.163 -1.0404  0.6453 -0.5872
  990MOL0     C33549  10.016   8.132   1.212 -0.1249 -0.8661  0.1626
  990MOL0     O33550  10.111   8.039   1.186  0.5660 -0.0594  0.0701
  990MOL0     C33551  10.243   8.033   1.245  0.4494  0.2953 -0.0751
  990MOL0     C33552  10.257   8.005   1.392 -0.2534 -0.2969 -0.8948
  990MOL0     C33553  10.220   7.855   1.416 -0.5156 -0.1453 -0.2917
  990MOL0     C33554  10.064   7.829   1.406 -0.0078 -0.3650 -0.6936
  990MOL0     C33555  10.037   7.692   1.468 -0.4194  0.5706 -0.1350
  990MOL0     C33556  10.051   7.575   1.367 -0.6125 -0.4728 -0.1367
  990MOL0     C33557   9.988   7.451   1.429  0.0469 -0.1568 -0.2288
  990MOL0     C33558   9.835   7.450   1.386  0.2060  0.0220  0.4271
  990MOL0    Cl33559   9.829   7.392   1.210  0.0319  0.0372 -0.4867
  990MOL0     C33560  10.028   8.228   1.319 -0.0498  0.1919  0.0713
  990MOL0     C33561   9.915   8.292   1.365 -1.4396 -0.5507 -0.1660
  990MOL0     O33562   9.695   8.508   1.179  0.0925 -0.1167  0.1479
  990MOL0     C33563   9.401   8.363   1.323 -0.0514  0.1515  0.5176
  990MOL0     C33564   9.261   8.388   1.346  0.4278 -0.3907 -0.3094
  990MOL0     N33565   8.546   8.210   1.177  0.4850  0.6617  1.0389
  990MOL0     N33566   8.442   8.153   1.128  0.8644 -0.0675  0.2903
  990MOL0     C33567   7.030   8.490   0.930 -0.0440 -0.9736 -0.6701
  990MOL0     C33568   6.915   8.550   0.978 -0.1570  0.1821  0.6062
  990MOL0     C33569   6.557   8.636   1.208 -0.0301 -0.5935 -0.2693
  990MOL0     C33570   6.483   8.582   1.309 -0.2176 -0.4919  0.2510
  990MOL0     C33571   6.361   8.641   1.346 -0.4136 -0.0841  0.8591
  990MOL0     C33572   6.316   8.759   1.286 -0.1275  0.4236 -0.5849
  990MOL0     O33573   6.201   8.819   1.336 -0.3174 -0.1895  0.2584
  990MOL0     C33574   6.172   8.960   1.305  1.4393 -0.6412  0.3818
  990MOL0     C33575   6.025   8.997   1.356  1.0333  0.0504 -0.0714
  990MOL0     C33576   5.926   8.985   1.247 -0.1692  0.3272  0.6055
  990MOL0     C33577   5.909   8.851   1.168  0.3765 -0.5103  0.4165
  990MOL0     C33578   5.780   8.835   1.105 -0.1323 -0.4230 -0.8880
  990MOL0     C33579   5.674   8.807   1.070  0.6698 -0.8804  0.3173
  990MOL0     C33580   6.393   8.811   1.178  0.6458  0.0580 -0.8158
  990MOL0     C33581   6.512   8.759   1.143 -0.1971 -0.5319  0.2696
  990MOL0     C33582   6.601   8.823   1.031  0.2417  0.7113 -0.4510
  990MOL0     H33583   6.984   8.538   1.310 -6.3998 -2.6491  0.3088
  990MOL0     H33584   7.195   8.442   1.215 -0.9015  0.4360 -0.1690
  990MOL0     H33585   7.392   8.466   1.091  2.5266  1.1059 -1.9610
  990MOL0     H33586   7.350   8.292   1.100  0.3409 -2.3788 -3.3922
  990MOL0     H33587   7.468   8.417   0.848  0.5172  1.5898  2.1734
  990MOL0     H33588   7.478   8.248   0.901 -1.1148 -0.1380 -0.9899
  990MOL0     H33589   7.617   8.325   1.100  0.1935 -1.2284 -1.0750
  990MOL0     H33590   7.624   8.485   1.038 -0.4478 -0.7297  3.3673
  990MOL0     H33591   7.756   8.267   0.881 -0.2211  0.7387 -1.6512
  990MOL0     H33592   7.747   8.426   0.831  1.8336  1.8785  1.1565
  990MOL0     H33593   7.886   8.495   1.003 -4.5514  0.2009 -5.0282
  990MOL0     H33594   7.838   8.350   1.107  0.9080 -1.8109  0.0729
  990MOL0     H33595   7.971   8.212   0.923 -1.7265 -0.2163  0.7359
  990MOL0     H33596   8.033   8.369   0.876  0.0788  0.5124 -0.1667
  990MOL0     H33597   8.080   8.235   1.151  0.6144 -0.3780  0.0498
  990MOL0     H33598   8.124   8.405   1.105 -3.4245  0.1742  0.3983
  990MOL0     H33599   8.220   8.131   0.990  0.4705 -0.3790 -3.7967
  990MOL0     H33600   8.262   8.283   0.911 -1.1882  3.1530  1.3122
  990MOL0     H33601   8.359   8.465   1.118 -0.0413 -0.4968  0.0862
  990MOL0     H33602   8.602   8.533   1.144 -2.1596  0.7880  0.1879
  990MOL0     H33603   8.591   8.500   1.321 -1.0070 -2.6374  0.2471
  990MOL0     H33604   8.750   8.309   1.301  0.8802 -0.7032 -1.6655
  990MOL0     H33605   8.797   8.360   1.135 -0.1190  0.9708 -1.4694
  990MOL0     H33606   8.802   8.552   1.370 -2.1697 -1.8140  1.8105
  990MOL0     H33607   8.862   8.582   1.206 -0.5999 -2.5302 -2.0365
  990MOL0     H33608   9.029   8.393   1.228 -0.9898 -1.0672  0.8344
  990MOL0     H33609   8.987   8.357   1.381  1.1238 -0.7987 -1.4213
  990MOL0     H33610   9.254   8.722   1.273  2.0516  0.7415  1.3619
  990MOL0     H33611   9.497   8.678   1.243 -1.6834  1.3775 -0.0830
  990MOL0     H33612   9.683   8.165   1.160  0.3353 -0.7737 -0.6948
  990MOL0     H33613   9.876   8.038   1.085 -0.8870  1.4752 -1.4214
  990MOL0     H33614  10.311   7.971   1.186  1.3981  0.2887  0.9778
  990MOL0     H33615  10.291   8.130   1.227 -0.1956  0.9559  1.5405
  990MOL0     H33616  10.366   8.012   1.397 -0.2698 -0.4637 -0.2459
  990MOL0     H33617  10.219   8.080   1.463  0.8329 -1.5535  1.1208
  990MOL0     H33618  10.277   7.796   1.344 -2.3529 -1.6760 -0.5708
  990MOL0     H33619  10.257   7.830   1.516  0.2792  1.6723 -0.0938
  990MOL0     H33620  10.032   7.846   1.303  0.5233 -1.0856 -0.9846
  990MOL0     H33621  10.012   7.900   1.471  0.8200 -0.2715 -0.1166
  990MOL0     H33622   9.934   7.695   1.506 -1.2091 -2.1859 -1.8100
  990MOL0     H33623  10.104   7.681   1.554  1.0523 -2.2539 -1.5214
  990MOL0     H33624  10.004   7.610   1.275  3.7305  3.3989 -1.2943
  990MOL0     H33625  10.152   7.564   1.326 -1.3916  0.1455 -2.4101
  990MOL0     H33626  10.002   7.455   1.538  0.1823 -2.1499 -0.1428
  990MOL0     H33627  10.035   7.363   1.385 -0.4478 -0.0191 -1.0582
  990MOL0     H33628   9.787   7.363   1.434  0.3412 -0.4244 -0.2283
  990MOL0     H33629   9.774   7.538   1.407  1.4837  0.8545  0.7433
  990MOL0     H33630  10.121   8.238   1.375  0.1639  4.1201 -0.7431
  990MOL0     H33631   9.914   8.358   1.451  0.2508 -0.0685 -0.4812
  990MOL0     H33632   9.437   8.262   1.340  4.0762  1.3524 -0.0385
  990MOL0     H33633   9.196   8.306   1.377 -0.7412  0.8965  0.8233
  990MOL0     H33634   7.038   8.488   0.822  2.0196 -1.1123 -0.5612
  990MOL0     H33635   6.848   8.589   0.902  1.8695  0.0696 -1.3418
  990MOL0     H33636   6.515   8.492   1.360 -0.5352  0.0637  1.4567
  990MOL0     H33637   6.291   8.598   1.417 -0.7784 -1.9155 -0.5437
  990MOL0     H33638   6.174   8.995   1.202 -0.6496 -0.9172  0.1994
  990MOL0     H33639   6.249   9.029   1.340 -0.1777  2.0498 -1.0270
  990MOL0     H33640   6.025   9.104   1.381 -0.5472  0.4046 -1.4025
  990MOL0     H33641   6.005   8.944   1.449  4.7436  0.7572  1.3120
  990MOL0     H33642   5.956   9.057   1.169  1.6843 -4.4467 -3.7017
  990MOL0     H33643   5.831   9.015   1.291 -1.4499 -2.6684  0.1328
  990MOL0     H33644   5.995   8.847   1.101 -0.2244  1.7370 -0.5907
  990MOL0     H33645   5.911   8.763   1.233  1.3720 -0.1338  0.8992
  990MOL0     H33646   5.575   8.769   1.056 -0.3896  2.0109 -0.9621
  990MOL0     H33647   6.358   8.908   1.143  1.6189  0.7804  0.1202
  990MOL0     H33648   6.591   8.754   0.947  0.8054  3.0732 -2.5787
  990MOL0     H33649   6.551   8.915   1.001 -1.5983 -0.7421 -2.1117
  990MOL0     H33650   6.706   8.845   1.049  0.1815  0.6810 -0.0513
  991MOL0     O33651   3.278   3.851   6.073  0.2286 -0.3054 -0.3303
  991MOL0     C33652   3.247   3.959   6.132  0.5012 -0.1209 -0.2792
  991MOL0     O33653   3.335   4.055   6.157  0.6611  0.3227  0.7620
  991MOL0     C33654   3.471   4.042   6.134  0.7755  0.4877  0.3785
  991MOL0     C33655   3.548   4.102   6.235  0.5073  0.4896 -0.0715
  991MOL0     C33656   3.684   4.091   6.226 -0.4910  0.1083  0.1011
  991MOL0     C33657   3.742   4.008   6.125 -0.8866  1.1142 -0.6169
  991MOL0     O33658   3.875   3.981   6.128  0.9059 -0.0385  0.3324
  991MOL0     C33659   3.966   4.082   6.166 -0.1107 -0.1029  0.4302
  991MOL0     C33660   4.102   4.056   6.102 -0.7919  0.2086  0.7862
  991MOL0     C33661   4.226   4.115   6.183  0.2424 -0.1530  0.0557
  991MOL0     C33662   4.355   4.084   6.110 -0.3226 -0.3039 -0.3088
  991MOL0     C33663   4.481   4.129   6.183 -0.2615  0.5747  0.1833
  991MOL0     C33664   4.599   4.058   6.111  0.0058 -0.0211  0.3342
  991MOL0     C33665   4.727   4.115   6.158 -0.0770  0.2201 -0.3775
  991MOL0     C33666   4.845   4.053   6.074 -0.3003  0.3437  0.3708
  991MOL0     N33667   4.978   4.087   6.127 -0.4884 -0.2626 -1.0344
  991MOL0     C33668   5.067   3.995   6.177  0.4367  0.5471  0.0834
  991MOL0     C33669   5.170   4.069   6.222  0.8048 -0.1185  0.4757
  991MOL0     C33670   5.287   4.016   6.289 -0.8961  0.3599  0.0945
  991MOL0     C33671   5.360   3.908   6.204 -0.2953  0.2616  0.5321
  991MOL0     C33672   5.493   3.868   6.278  0.6472 -0.1540  0.0582
  991MOL0     C33673   5.553   3.743   6.208 -0.2435 -0.8818 -0.8103
  991MOL0     O33674   5.579   3.773   6.073 -0.1524 -0.4734  0.3710
  991MOL0     C33675   5.674   3.882   6.058  0.1034 -0.0268  0.3147
  991MOL0     C33676   5.806   3.892   6.105 -1.0378 -0.2809 -1.3962
  991MOL0     C33677   5.883   4.005   6.074  0.2290  0.7886 -0.2495
  991MOL0     C33678   5.836   4.107   5.985 -0.2311  0.2713  0.3468
  991MOL0     C33679   5.935   4.208   5.934 -1.0094  0.6677  0.7917
  991MOL0     O33680   5.884   4.285   5.838  0.5813  0.2500 -0.6346
  991MOL0     C33681   5.956   4.397   5.801  0.7145 -0.1107  0.1041
  991MOL0     C33682   6.072   4.392   5.734  0.0706  0.9602 -0.6612
  991MOL0     C33683   6.142   4.507   5.698 -0.1435  0.4625  0.4621
  991MOL0     C33684   6.090   4.632   5.721  0.4902  0.7841 -0.5403
  991MOL0     O33685   6.135   4.748   5.676  0.1679 -0.0987  0.8285
  991MOL0     C33686   6.200   4.749   5.550 -0.3699 -0.1086 -0.0936
  991MOL0     C33687   6.316   4.844   5.557 -0.9995 -0.3641  0.3029
  991MOL0     C33688   6.423   4.793   5.660  0.3850 -0.4533  0.0260
  991MOL0     C33689   6.530   4.896   5.688  0.2524 -0.2115  0.3295
  991MOL0     C33690   6.648   4.875   5.772  0.2309 -0.2368 -0.2983
  991MOL0     C33691   6.616   4.882   5.923  0.4065  0.6578 -0.1096
  991MOL0     C33692   6.747   4.874   5.997 -0.0045 -0.1377  0.5895
  991MOL0     C33693   6.712   4.863   6.150 -0.6862  0.1653 -0.6747
  991MOL0    Cl33694   6.863   4.858   6.251  0.4825  0.1644  0.7048
  991MOL0     C33695   5.975   4.641   5.797  0.0681  0.5565 -0.0847
  991MOL0     C33696   5.903   4.522   5.830 -0.5394  0.6735 -1.0835
  991MOL0     O33697   6.047   4.194   5.971  0.3683 -0.1740 -0.2169
  991MOL0     C33698   5.710   4.081   5.924  0.4320  0.0495  0.8293
  991MOL0     C33699   5.631   3.982   5.971  0.9426  0.2747  0.1034
  991MOL0     N33700   5.133   4.205   6.213 -0.6044  0.2894  0.3028
  991MOL0     N33701   5.019   4.208   6.163  0.1468 -0.3066 -0.4354
  991MOL0     C33702   3.668   3.950   6.028  0.9537  0.1941 -0.6035
  991MOL0     C33703   3.530   3.974   6.025  0.7519  0.4895 -0.5606
  991MOL0     C33704   3.104   3.994   6.156 -0.2717  0.7186  0.3272
  991MOL0     C33705   3.012   3.908   6.091  0.1442  0.2558 -0.8169
  991MOL0     C33706   2.878   3.919   6.124  0.3846  1.1779  0.5162
  991MOL0     C33707   2.826   4.011   6.203 -0.1656 -0.7322 -0.0481
  991MOL0     O33708   2.688   4.019   6.195  0.2110 -0.5208 -0.5044
  991MOL0     C33709   2.627   4.141   6.250 -0.3037 -0.2773 -0.0745
  991MOL0     C33710   2.481   4.125   6.272 -0.9993 -0.3260 -0.3336
  991MOL0     C33711   2.441   4.019   6.377 -0.1590 -0.4594 -0.2491
  991MOL0     C33712   2.296   3.998   6.382 -0.0482 -0.7251  0.4108
  991MOL0     C33713   2.221   4.107   6.455 -0.4946 -0.3875 -0.0795
  991MOL0     C33714   2.152   4.191   6.505  0.3458 -0.2570  0.6186
  991MOL0     C33715   2.919   4.101   6.260 -0.2799 -0.2916 -0.4206
  991MOL0     C33716   3.056   4.098   6.238  0.6906 -0.1305 -0.1242
  991MOL0     C33717   3.148   4.199   6.302  0.1069 -0.5287 -0.1241
  991MOL0     H33718   3.491   4.142   6.318  0.8656 -0.6196  0.7300
  991MOL0     H33719   3.743   4.145   6.300  0.9625  1.4253 -1.9285
  991MOL0     H33720   3.931   4.183   6.146  1.1254  0.3728  0.5547
  991MOL0     H33721   3.989   4.081   6.273  0.7919 -1.5503  0.2629
  991MOL0     H33722   4.100   4.104   6.004  0.1283 -2.8865 -0.8921
  991MOL0     H33723   4.124   3.952   6.078  0.5232  0.7851 -0.7339
  991MOL0     H33724   4.225   4.070   6.283 -2.8093  3.0987  1.7568
  991MOL0     H33725   4.212   4.222   6.200 -2.7725 -0.7295  1.9474
  991MOL0     H33726   4.359   3.976   6.096  2.2890 -0.5167  1.4156
  991MOL0     H33727   4.354   4.144   6.018  1.1494 -0.2455 -0.3102
  991MOL0     H33728   4.479   4.239   6.182 -2.1630  0.6146  1.5044
  991MOL0     H33729   4.477   4.108   6.291  0.4788  0.9863  0.2976
  991MOL0     H33730   4.599   3.951   6.136 -0.3668 -0.2300 -0.5578
  991MOL0     H33731   4.601   4.067   6.002  2.7756 -1.1347  0.1884
  991MOL0     H33732   4.749   4.092   6.262 -1.0166  0.0580 -0.2101
  991MOL0     H33733   4.722   4.224   6.145  3.0543  0.3550 -1.3224
  991MOL0     H33734   4.831   3.945   6.075  1.1292  0.1076 -1.4618
  991MOL0     H33735   4.840   4.088   5.971  2.4987  0.7078  0.2995
  991MOL0     H33736   5.055   3.888   6.185 -2.8717  0.8231  0.3015
  991MOL0     H33737   5.363   4.093   6.307  1.1248 -1.5845  0.4383
  991MOL0     H33738   5.254   3.969   6.382  1.2150 -2.7855 -0.5884
  991MOL0     H33739   5.301   3.816   6.189  1.3648 -0.6673 -0.6533
  991MOL0     H33740   5.381   3.949   6.105 -1.5855 -0.2733  0.0053
  991MOL0     H33741   5.467   3.847   6.382  0.1443  1.4142  0.2653
  991MOL0     H33742   5.559   3.956   6.275  0.9355 -0.1935  2.9525
  991MOL0     H33743   5.490   3.654   6.212 -0.1338 -0.9356  0.0605
  991MOL0     H33744   5.649   3.725   6.259 -0.6190 -0.6438 -0.0095
  991MOL0     H33745   5.843   3.815   6.171 -1.2993 -1.8635 -3.0023
  991MOL0     H33746   5.976   4.025   6.126  0.4421  1.0865 -0.7357
  991MOL0     H33747   6.115   4.298   5.700  2.6130  2.3549 -1.5464
  991MOL0     H33748   6.239   4.486   5.654 -1.8036  0.3857 -3.5199
  991MOL0     H33749   6.237   4.655   5.507  2.4394  0.7435  0.2617
  991MOL0     H33750   6.136   4.801   5.478  1.7036 -0.1507 -2.0856
  991MOL0     H33751   6.356   4.881   5.462 -4.3520  0.2984 -0.9938
  991MOL0     H33752   6.283   4.947   5.579 -0.9241  0.0569 -1.4385
  991MOL0     H33753   6.372   4.765   5.752 -3.0117  0.3719 -1.4377
  991MOL0     H33754   6.486   4.714   5.618  3.0526  1.5033  0.0863
  991MOL0     H33755   6.481   4.985   5.729  0.1839 -0.3708  0.5997
  991MOL0     H33756   6.581   4.925   5.595  1.8196  1.4567  1.6274
  991MOL0     H33757   6.719   4.956   5.752 -0.0745  0.0408 -0.2593
  991MOL0     H33758   6.696   4.778   5.753  0.5864 -0.0067 -0.5901
  991MOL0     H33759   6.569   4.979   5.942 -0.7628  0.8458 -3.3552
  991MOL0     H33760   6.553   4.800   5.958  0.0659  0.8578 -0.2483
  991MOL0     H33761   6.813   4.961   5.987 -2.3187  1.6203 -0.3622
  991MOL0     H33762   6.794   4.782   5.962 -3.2323 -1.8312  0.4390
  991MOL0     H33763   6.648   4.945   6.183  1.0557  0.9397  0.9903
  991MOL0     H33764   6.655   4.771   6.162 -0.3951  0.1648  0.9135
  991MOL0     H33765   5.935   4.736   5.831  1.0501 -0.1600  3.4967
  991MOL0     H33766   5.805   4.522   5.877  0.7699 -1.3140  1.8932
  991MOL0     H33767   5.673   4.156   5.856  0.5108  2.3254  3.1338
  991MOL0     H33768   5.536   3.961   5.923 -1.3186  2.7224  3.1012
  991MOL0     H33769   3.705   3.895   5.942 -0.5536  0.0905 -1.2121
  991MOL0     H33770   3.461   3.945   5.947  0.1640 -2.3883  0.8801
  991MOL0     H33771   3.032   3.824   6.027  0.0490 -1.5594  1.4022
  991MOL0     H33772   2.818   3.844   6.074  2.9707  0.1648 -1.2495
  991MOL0     H33773   2.647   4.218   6.175  0.9183  1.1038  1.5883
  991MOL0     H33774   2.664   4.182   6.344 -3.7804  0.1058  1.2512
  991MOL0     H33775   2.422   4.100   6.184 -0.7942 -0.1232 -0.5301
  991MOL0     H33776   2.438   4.220   6.305 -0.9439 -0.4652  0.1583
  991MOL0     H33777   2.476   4.054   6.474 -3.0971  3.8009 -0.4457
  991MOL0     H33778   2.472   3.920   6.342 -1.0527 -0.8231 -0.0548
  991MOL0     H33779   2.261   3.994   6.278  3.4281  0.5681 -0.9461
  991MOL0     H33780   2.299   3.898   6.426  2.7566 -2.0663 -2.4011
  991MOL0     H33781   2.096   4.274   6.542  2.3556  2.5694 -2.1267
  991MOL0     H33782   2.879   4.173   6.331  0.5702  1.7535 -1.9050
  991MOL0     H33783   3.228   4.244   6.243 -0.5101  3.1991  1.5595
  991MOL0     H33784   3.085   4.284   6.330 -0.8620 -1.1670 -0.3309
  991MOL0     H33785   3.194   4.162   6.395 -0.7325 -0.7535  0.2114
  992MOL0     O33786   6.390   1.843   4.176  0.2792 -0.4256 -0.4011
  992MOL0     C33787   6.432   1.774   4.081  0.3914  0.2259  0.4636
  992MOL0     O33788   6.563   1.765   4.054 -0.1019 -0.4317 -0.2985
  992MOL0     C33789   6.645   1.839   4.131  0.2813  0.1051  0.7593
  992MOL0     C33790   6.685   1.790   4.254  0.4097 -1.1656 -1.0526
  992MOL0     C33791   6.760   1.871   4.335  0.1565 -0.2737  0.4386
  992MOL0     C33792   6.809   2.001   4.298  1.2793 -0.3376 -0.8281
  992MOL0     O33793   6.897   2.059   4.391  0.1564  0.4919 -0.1244
  992MOL0     C33794   6.939   2.193   4.358  0.0987 -0.1442 -0.3303
  992MOL0     C33795   7.017   2.246   4.480  0.7233 -0.3165 -0.2013
  992MOL0     C33796   7.128   2.142   4.523  0.3369 -0.4457  0.0277
  992MOL0     C33797   7.217   2.211   4.622  0.9553  0.2956  0.2289
  992MOL0     C33798   7.368   2.167   4.610 -0.1728  0.3941  0.5004
  992MOL0     C33799   7.439   2.215   4.485 -0.1445 -0.5979 -0.0395
  992MOL0     C33800   7.586   2.174   4.479  0.7803 -0.1584 -0.1157
  992MOL0     C33801   7.651   2.196   4.342 -0.1374  0.5355 -0.6785
  992MOL0     N33802   7.789   2.153   4.348 -1.1502 -0.1025  0.6400
  992MOL0     C33803   7.834   2.029   4.376 -0.2781 -1.2853  0.4487
  992MOL0     C33804   7.971   2.045   4.396 -0.0578 -1.1516  0.3746
  992MOL0     C33805   8.054   1.924   4.440 -0.5257 -0.3326  0.4794
  992MOL0     C33806   8.210   1.936   4.422  0.4358  1.1546 -0.4097
  992MOL0     C33807   8.275   1.803   4.451 -0.2953 -0.8099 -0.6329
  992MOL0     C33808   8.429   1.798   4.453  0.5484 -0.3024 -0.8446
  992MOL0     O33809   8.481   1.808   4.323  0.0953 -0.1137 -0.2655
  992MOL0     C33810   8.612   1.779   4.315 -0.3901 -0.6510  0.2286
  992MOL0     C33811   8.666   1.815   4.192  0.3676 -0.1034  0.9722
  992MOL0     C33812   8.796   1.787   4.167  0.8337  0.1077  0.7402
  992MOL0     C33813   8.873   1.713   4.261  0.3498 -0.0782  0.8270
  992MOL0     C33814   9.010   1.656   4.218 -0.4901  0.0463 -0.6015
  992MOL0     O33815   9.085   1.587   4.312  0.3092 -0.0399 -0.1684
  992MOL0     C33816   9.204   1.531   4.276 -0.0305 -0.2882 -0.2754
  992MOL0     C33817   9.230   1.397   4.312  0.3858  0.3562  0.1616
  992MOL0     C33818   9.359   1.344   4.290 -0.5573 -0.1811  0.4582
  992MOL0     C33819   9.467   1.420   4.243  0.4199 -0.0782 -0.0386
  992MOL0     O33820   9.581   1.346   4.236 -0.4983 -0.0007  0.5672
  992MOL0     C33821   9.703   1.402   4.181  0.2204 -0.7539 -0.5056
  992MOL0     C33822   9.771   1.280   4.136  0.2844 -0.1352 -0.5646
  992MOL0     C33823   9.870   1.311   4.026  0.0339 -0.3874  0.6035
  992MOL0     C33824   9.965   1.196   4.001 -1.2313  0.1950  0.2463
  992MOL0     C33825  10.025   1.203   3.858 -0.8143  0.6896  0.7024
  992MOL0     C33826   9.929   1.147   3.754  0.4092  0.1578  0.3651
  992MOL0     C33827   9.884   0.998   3.769  0.7323 -0.6157 -0.1625
  992MOL0     C33828   9.842   0.946   3.635  1.0854 -0.0115 -0.7562
  992MOL0    Cl33829   9.979   0.905   3.521 -0.6825 -0.0533 -0.3601
  992MOL0     C33830   9.445   1.556   4.204  0.0838  0.2354  0.6344
  992MOL0     C33831   9.318   1.613   4.219  0.3029  0.3461 -0.3893
  992MOL0     O33832   9.051   1.688   4.103  0.1140  0.5087  0.3528
  992MOL0     C33833   8.816   1.688   4.390  0.3989  0.6881  1.3274
  992MOL0     C33834   8.690   1.736   4.421 -0.5612 -0.1163 -0.9793
  992MOL0     N33835   7.999   2.183   4.386  0.0007  0.1909  0.0569
  992MOL0     N33836   7.888   2.247   4.357 -0.4411  1.1269 -0.9681
  992MOL0     C33837   6.770   2.049   4.177  0.2660 -0.1779  0.2091
  992MOL0     C33838   6.684   1.969   4.100  0.8267 -0.1532 -0.1320
  992MOL0     C33839   6.323   1.708   4.001 -0.3281 -0.8334  0.2035
  992MOL0     C33840   6.189   1.699   4.056 -0.0769 -0.1575  0.3693
  992MOL0     C33841   6.084   1.648   3.983  0.4878 -0.3683 -0.6475
  992MOL0     C33842   6.104   1.613   3.852 -0.7769 -0.2081 -0.6357
  992MOL0     O33843   5.990   1.564   3.785 -0.8328 -0.3137 -0.4945
  992MOL0     C33844   6.003   1.560   3.646  1.0571 -0.5892 -0.1810
  992MOL0     C33845   6.010   1.423   3.597 -0.0742  0.5178  0.5200
  992MOL0     C33846   5.878   1.364   3.598  0.6265 -0.3839 -0.0295
  992MOL0     C33847   5.887   1.215   3.579  0.2834 -0.7086  0.4113
  992MOL0     C33848   5.753   1.170   3.524 -0.2837  0.1422 -0.0401
  992MOL0     C33849   5.650   1.129   3.474 -0.4818  0.5286  0.5029
  992MOL0     C33850   6.236   1.607   3.797 -0.3165  0.1888 -0.0456
  992MOL0     C33851   6.345   1.655   3.872 -0.4479  0.3484  0.0753
  992MOL0     C33852   6.483   1.651   3.807 -0.5863 -0.1775  0.4751
  992MOL0     H33853   6.656   1.697   4.302  2.5298 -1.2896  0.0910
  992MOL0     H33854   6.788   1.833   4.433  0.3305 -0.9366  0.1323
  992MOL0     H33855   7.000   2.187   4.268  1.7251  1.6554  0.5622
  992MOL0     H33856   6.855   2.260   4.343 -2.0523 -2.2913  1.3844
  992MOL0     H33857   6.947   2.260   4.563  0.0471  0.0364 -0.8185
  992MOL0     H33858   7.051   2.349   4.468  0.0368  0.1697  1.7617
  992MOL0     H33859   7.182   2.104   4.435  0.4311 -0.0848 -0.0721
  992MOL0     H33860   7.086   2.049   4.562  2.3122 -1.0409  0.8501
  992MOL0     H33861   7.216   2.318   4.600 -3.0185  0.8345  2.2332
  992MOL0     H33862   7.172   2.203   4.721  0.1219 -4.5963 -0.2883
  992MOL0     H33863   7.422   2.191   4.702  1.7135 -0.5061 -0.3195
  992MOL0     H33864   7.364   2.058   4.605 -1.4876  0.4722 -3.3259
  992MOL0     H33865   7.385   2.184   4.395 -0.5169 -2.0326  0.6603
  992MOL0     H33866   7.434   2.325   4.485  3.3463 -0.2727  1.8512
  992MOL0     H33867   7.598   2.075   4.525  1.8582 -1.2728 -2.5883
  992MOL0     H33868   7.645   2.237   4.545  1.0637 -0.3034 -0.2285
  992MOL0     H33869   7.604   2.131   4.268  2.4249 -0.0794 -1.8740
  992MOL0     H33870   7.636   2.302   4.320  0.0449  1.1009  1.6867
  992MOL0     H33871   7.764   1.947   4.368 -0.9718 -0.5408 -2.0750
  992MOL0     H33872   8.035   1.908   4.546  0.7150  1.1628  0.9470
  992MOL0     H33873   8.021   1.840   4.377  0.2385  1.2902 -2.2506
  992MOL0     H33874   8.234   1.967   4.319  1.0623 -2.0234 -1.3405
  992MOL0     H33875   8.250   2.005   4.497  0.1098  0.8579  0.0396
  992MOL0     H33876   8.229   1.723   4.393 -3.5264 -0.3839  1.1340
  992MOL0     H33877   8.242   1.774   4.551  0.7080 -1.3929 -0.4530
  992MOL0     H33878   8.464   1.709   4.505  2.2358  0.2350 -1.0132
  992MOL0     H33879   8.455   1.892   4.503 -0.8173  1.0565 -2.5519
  992MOL0     H33880   8.602   1.854   4.114 -0.9986 -0.6649  1.7641
  992MOL0     H33881   8.821   1.791   4.061  1.2922 -4.5372  0.4801
  992MOL0     H33882   9.156   1.338   4.365  4.0394 -0.7317  4.7376
  992MOL0     H33883   9.380   1.238   4.300 -1.6866 -0.6930 -1.9703
  992MOL0     H33884   9.688   1.474   4.100  0.4827 -2.3557 -2.0411
  992MOL0     H33885   9.772   1.443   4.256  0.0971 -1.1525 -0.1684
  992MOL0     H33886   9.818   1.227   4.219  1.0349  1.3478 -0.0113
  992MOL0     H33887   9.702   1.208   4.093  1.8888 -1.6104 -0.7876
  992MOL0     H33888   9.821   1.331   3.930  1.6984  2.2060  0.2103
  992MOL0     H33889   9.929   1.400   4.050  1.7893 -0.8444 -1.6613
  992MOL0     H33890   9.927   1.094   4.010  2.7020 -1.6412 -1.5022
  992MOL0     H33891  10.039   1.213   4.080 -0.5244 -0.2018 -0.3192
  992MOL0     H33892  10.121   1.149   3.857  0.2301  2.4696 -0.7697
  992MOL0     H33893  10.049   1.306   3.831  0.4928  0.0706 -0.6446
  992MOL0     H33894   9.838   1.207   3.755  0.7725  0.8934 -2.4313
  992MOL0     H33895   9.982   1.152   3.658  2.8675  0.2157  1.6450
  992MOL0     H33896   9.812   0.982   3.850 -1.2263  1.0171 -1.4662
  992MOL0     H33897   9.973   0.938   3.786  1.6137  0.0411 -2.1399
  992MOL0     H33898   9.775   0.860   3.653  0.8072  0.0705 -1.3564
  992MOL0     H33899   9.765   1.003   3.581  0.1802 -1.6002 -1.2277
  992MOL0     H33900   9.527   1.620   4.175 -0.4888  1.2478  1.1972
  992MOL0     H33901   9.300   1.716   4.190  0.0824  0.2780 -0.5057
  992MOL0     H33902   8.867   1.625   4.462  0.7486 -0.0959  0.4151
  992MOL0     H33903   8.658   1.731   4.525 -0.8798  2.7653 -0.8575
  992MOL0     H33904   6.801   2.148   4.143  0.0700  0.2428  1.2267
  992MOL0     H33905   6.652   2.011   4.005  3.3226  0.6451 -0.6977
  992MOL0     H33906   6.170   1.724   4.159  0.4073 -0.8124  0.6273
  992MOL0     H33907   5.988   1.636   4.033  1.1979 -2.3596  0.3772
  992MOL0     H33908   6.087   1.615   3.604  2.4560 -2.2792  0.3247
  992MOL0     H33909   5.915   1.615   3.612  0.7401 -0.4896  0.7668
  992MOL0     H33910   6.095   1.368   3.639  0.4236  1.7243  1.1336
  992MOL0     H33911   6.034   1.424   3.490 -1.3095  1.7957  0.2274
  992MOL0     H33912   5.807   1.414   3.532 -0.3011 -2.0864 -0.3971
  992MOL0     H33913   5.827   1.383   3.693  1.5844  0.3525  0.3537
  992MOL0     H33914   5.947   1.207   3.488  0.5495  0.2736  0.4886
  992MOL0     H33915   5.922   1.160   3.667  0.8468  2.0676  2.0419
  992MOL0     H33916   5.564   1.095   3.420 -1.6609  0.9316  2.0719
  992MOL0     H33917   6.247   1.575   3.694  1.3671  0.3454  0.0544
  992MOL0     H33918   6.524   1.753   3.807 -1.2746  0.1063  0.0834
  992MOL0     H33919   6.552   1.591   3.868 -1.6896  0.2068  2.1810
  992MOL0     H33920   6.483   1.609   3.707  0.0758  3.0220 -1.0058
  993MOL0     O33921   7.219   2.264   1.244  0.3099 -0.0708 -0.1696
  993MOL0     C33922   7.184   2.177   1.322  0.3630  0.4252  0.6368
  993MOL0     O33923   7.235   2.152   1.445 -0.2278  0.0385  0.2165
  993MOL0     C33924   7.370   2.170   1.462  0.3648 -0.2766 -0.7622
  993MOL0     C33925   7.459   2.116   1.376  0.2018  0.2036 -1.1648
  993MOL0     C33926   7.596   2.113   1.407  0.7242 -0.7709 -0.4946
  993MOL0     C33927   7.643   2.162   1.527 -0.0096 -0.7397  0.0152
  993MOL0     O33928   7.777   2.148   1.551  0.3886 -0.4590  0.6381
  993MOL0     C33929   7.855   2.259   1.606 -0.4843 -0.8359  0.1542
  993MOL0     C33930   8.006   2.211   1.589  0.2241  0.1352 -0.0858
  993MOL0     C33931   8.091   2.341   1.611 -1.0961  0.1356  0.6502
  993MOL0     C33932   8.245   2.307   1.629  0.2759  0.3760 -0.3410
  993MOL0     C33933   8.321   2.410   1.718  0.3943  0.1182 -0.0208
  993MOL0     C33934   8.344   2.540   1.644  0.4455  0.2573 -0.3315
  993MOL0     C33935   8.404   2.533   1.506  0.5975  0.4559 -0.8732
  993MOL0     C33936   8.448   2.673   1.444  0.3568  0.7956 -0.6457
  993MOL0     N33937   8.574   2.705   1.506 -0.0936  0.0785 -0.2893
  993MOL0     C33938   8.688   2.677   1.444 -0.1384  0.6626 -0.8769
  993MOL0     C33939   8.784   2.695   1.533 -0.1613  0.1389  0.0069
  993MOL0     C33940   8.930   2.668   1.526 -0.8154 -0.6065 -1.0572
  993MOL0     C33941   8.978   2.599   1.404  0.4002 -0.3480  0.0527
  993MOL0     C33942   9.132   2.595   1.387 -0.2710  0.1088  0.7381
  993MOL0     C33943   9.167   2.586   1.237 -0.4221  0.2833 -0.5823
  993MOL0     O33944   9.163   2.719   1.185 -0.5247 -0.9084 -0.2013
  993MOL0     C33945   9.281   2.789   1.177 -0.2163 -0.4577 -0.4671
  993MOL0     C33946   9.269   2.907   1.102 -0.2456  0.0440 -0.5618
  993MOL0     C33947   9.376   2.999   1.099 -0.8376 -0.2497 -0.8274
  993MOL0     C33948   9.504   2.965   1.146  0.3673 -0.3878 -0.3548
  993MOL0     C33949   9.621   3.060   1.142  0.4390 -0.5629 -0.0351
  993MOL0     O33950   9.747   3.015   1.180  0.3629  0.2127  0.8610
  993MOL0     C33951   9.855   3.092   1.157  0.3265 -0.6488 -0.1336
  993MOL0     C33952   9.900   3.106   1.027 -0.1403 -0.4356  0.6556
  993MOL0     C33953  10.014   3.182   0.993 -0.1191 -0.1171 -0.4111
  993MOL0     C33954  10.094   3.226   1.098 -0.2213 -0.5744  1.4471
  993MOL0     O33955  10.206   3.298   1.069  0.7974  0.7210  0.1570
  993MOL0     C33956  10.327   3.236   1.100 -0.3754 -0.2289 -0.4000
  993MOL0     C33957  10.427   3.275   0.991  0.5498  0.3253 -0.4476
  993MOL0     C33958  10.564   3.198   1.008  0.3379 -0.0413  0.0059
  993MOL0     C33959  10.662   3.247   0.893  1.1293  0.8569 -1.0559
  993MOL0     C33960  10.795   3.171   0.883 -0.2111 -0.8449 -0.5891
  993MOL0     C33961  10.905   3.231   0.952  0.8125 -0.6872 -0.3380
  993MOL0     C33962  11.020   3.139   0.996  0.4733  0.0542 -0.2701
  993MOL0     C33963  11.141   3.215   1.063  0.1270  0.1941  0.3114
  993MOL0    Cl33964  11.118   3.272   1.231 -0.0836  0.1904  0.0033
  993MOL0     C33965  10.054   3.204   1.232 -0.3712 -0.9184  0.1037
  993MOL0     C33966   9.937   3.144   1.257  0.3896  0.6302 -0.1242
  993MOL0     O33967   9.601   3.173   1.098 -0.0895  0.5639  0.8035
  993MOL0     C33968   9.511   2.850   1.217  0.4921  1.2492 -0.1859
  993MOL0     C33969   9.404   2.762   1.240  0.1896  0.1184 -0.3008
  993MOL0     N33970   8.723   2.748   1.648 -0.4084  0.3227  0.4890
  993MOL0     N33971   8.599   2.751   1.631  0.5156  0.6142  0.4040
  993MOL0     C33972   7.553   2.226   1.615 -0.6406  0.8022 -0.0620
  993MOL0     C33973   7.416   2.232   1.577 -0.2491  0.2415 -0.4264
  993MOL0     C33974   7.071   2.086   1.291  0.3946  0.0866  0.2584
  993MOL0     C33975   7.063   1.962   1.359  0.8967 -0.4956 -0.0945
  993MOL0     C33976   6.958   1.876   1.342 -1.0291 -1.2845 -0.8792
  993MOL0     C33977   6.860   1.898   1.245  0.0820 -0.7238 -0.7896
  993MOL0     O33978   6.752   1.811   1.231 -0.5742 -0.2286  0.7234
  993MOL0     C33979   6.629   1.866   1.180  0.2009  0.3495  0.2643
  993MOL0     C33980   6.516   1.775   1.221 -0.0649  0.8448  0.0961
  993MOL0     C33981   6.386   1.844   1.264  0.8279 -0.2237  0.5335
  993MOL0     C33982   6.289   1.863   1.147 -0.2236 -1.1529 -0.1506
  993MOL0     C33983   6.342   1.944   1.038  0.6577  0.4811  0.1535
  993MOL0     C33984   6.393   2.002   0.950 -0.8550 -0.5225 -0.3799
  993MOL0     C33985   6.872   2.020   1.177 -0.3796  0.6693  0.7320
  993MOL0     C33986   6.965   2.113   1.202 -0.9383 -0.5164  0.5636
  993MOL0     C33987   6.962   2.250   1.135 -0.5792  0.2417 -0.2440
  993MOL0     H33988   7.407   2.084   1.286  0.1386  0.0117 -1.0585
  993MOL0     H33989   7.667   2.071   1.337  2.8767  1.3714  0.2367
  993MOL0     H33990   7.830   2.355   1.561 -2.1130 -0.2936  2.0498
  993MOL0     H33991   7.823   2.268   1.711 -4.5952 -1.9938 -0.8366
  993MOL0     H33992   8.020   2.175   1.487 -2.7084 -2.8809  0.4258
  993MOL0     H33993   8.026   2.126   1.654 -1.9789 -1.1603 -1.0145
  993MOL0     H33994   8.059   2.386   1.705  0.1193 -1.9075  2.1233
  993MOL0     H33995   8.072   2.415   1.533  1.0424  0.6805  0.5721
  993MOL0     H33996   8.263   2.211   1.677 -2.7859 -1.3350 -2.2674
  993MOL0     H33997   8.278   2.294   1.525 -2.6395  1.6323 -1.5437
  993MOL0     H33998   8.270   2.427   1.814  0.9677 -0.7304  0.4467
  993MOL0     H33999   8.416   2.363   1.746  0.1636 -3.0338 -3.6509
  993MOL0     H34000   8.255   2.602   1.627 -0.6293 -1.4719 -1.3519
  993MOL0     H34001   8.403   2.591   1.720 -0.7903 -0.9756  1.5583
  993MOL0     H34002   8.331   2.488   1.438  0.7971  2.0537 -2.2086
  993MOL0     H34003   8.481   2.455   1.504 -1.3327 -1.5821 -0.3131
  993MOL0     H34004   8.461   2.654   1.337  2.2414  0.8365 -0.4492
  993MOL0     H34005   8.374   2.753   1.458 -1.3211 -0.4012 -2.1719
  993MOL0     H34006   8.704   2.639   1.343 -0.4653 -0.1229 -0.6438
  993MOL0     H34007   8.983   2.762   1.544 -0.4199 -0.7517 -1.4586
  993MOL0     H34008   8.948   2.597   1.607 -2.2468  0.2918  0.1156
  993MOL0     H34009   8.937   2.498   1.399  0.5423 -0.4141  0.2133
  993MOL0     H34010   8.928   2.650   1.322 -0.7849 -0.9996  0.3430
  993MOL0     H34011   9.183   2.511   1.435  0.3214  1.5048  2.6711
  993MOL0     H34012   9.179   2.684   1.430  0.3597 -0.3327  0.9898
  993MOL0     H34013   9.094   2.528   1.179 -0.0678 -0.8274  0.0589
  993MOL0     H34014   9.257   2.528   1.216 -0.6126 -0.3208  0.2624
  993MOL0     H34015   9.172   2.932   1.061 -1.1716  1.0328  2.0286
  993MOL0     H34016   9.353   3.090   1.045 -1.3131 -0.0787 -0.3452
  993MOL0     H34017   9.840   3.064   0.947 -3.2668  2.9366  0.9444
  993MOL0     H34018  10.049   3.210   0.894 -0.6040 -1.5660 -1.0182
  993MOL0     H34019  10.358   3.278   1.197 -0.3041 -0.5928 -0.2620
  993MOL0     H34020  10.324   3.127   1.106  3.7653 -0.6057 -1.7658
  993MOL0     H34021  10.376   3.258   0.896 -2.5740  2.0733  0.7648
  993MOL0     H34022  10.442   3.383   1.001 -0.2523  0.4791 -0.8881
  993MOL0     H34023  10.614   3.222   1.102 -0.0839  0.1371  0.1876
  993MOL0     H34024  10.549   3.090   0.997 -2.4728  0.3018 -0.1412
  993MOL0     H34025  10.665   3.356   0.905 -0.8282  1.0637 -2.0477
  993MOL0     H34026  10.610   3.235   0.798  0.3853 -0.3633 -0.5196
  993MOL0     H34027  10.826   3.178   0.779  1.1005 -3.5581 -0.4476
  993MOL0     H34028  10.781   3.063   0.892  0.3275 -0.7491  2.3706
  993MOL0     H34029  10.925   3.322   0.895  0.0820  0.4350  1.1414
  993MOL0     H34030  10.869   3.275   1.045  0.2744  3.2158 -2.2079
  993MOL0     H34031  11.053   3.073   0.916 -0.9206  0.0163 -0.8370
  993MOL0     H34032  10.976   3.076   1.074  2.0591 -0.4358  0.2845
  993MOL0     H34033  11.215   3.135   1.063  0.3797  0.4203  0.8339
  993MOL0     H34034  11.174   3.296   0.997  0.8807  1.7087  2.4303
  993MOL0     H34035  10.111   3.233   1.319 -0.1802 -1.4278  0.1541
  993MOL0     H34036   9.907   3.118   1.358  0.3867  0.6932 -0.1091
  993MOL0     H34037   9.608   2.828   1.261 -0.3890 -1.5336  0.5839
  993MOL0     H34038   9.407   2.674   1.304 -1.6877  0.4877  0.3600
  993MOL0     H34039   7.598   2.260   1.708  1.1305 -1.6064  0.0522
  993MOL0     H34040   7.340   2.271   1.645 -0.4275 -0.3953 -0.2506
  993MOL0     H34041   7.147   1.936   1.422  2.1696  1.1024 -1.0504
  993MOL0     H34042   6.956   1.787   1.404 -0.5772 -1.7171 -1.4716
  993MOL0     H34043   6.630   1.871   1.071 -2.6195  0.2486  0.1629
  993MOL0     H34044   6.606   1.966   1.217 -1.1626 -0.2419  1.1131
  993MOL0     H34045   6.563   1.716   1.300 -0.3856  3.3580  2.3125
  993MOL0     H34046   6.491   1.711   1.136  0.8172  2.5975 -1.5693
  993MOL0     H34047   6.399   1.941   1.313  0.2380  0.5497 -0.8042
  993MOL0     H34048   6.335   1.784   1.340  1.3292 -0.0147  1.0450
  993MOL0     H34049   6.254   1.768   1.105 -0.8599  0.3083 -3.1385
  993MOL0     H34050   6.200   1.914   1.185 -0.5796 -1.7204 -0.2000
  993MOL0     H34051   6.437   2.058   0.870  1.3450 -1.0652  0.3630
  993MOL0     H34052   6.802   2.038   1.097 -2.5758 -1.8340  1.9492
  993MOL0     H34053   7.022   2.251   1.043  0.5157  2.1459  0.4393
  993MOL0     H34054   6.857   2.278   1.118 -0.6146 -0.7955 -2.0585
  993MOL0     H34055   7.003   2.317   1.210  0.5489 -0.9568  0.2467
  994MOL0     O34056   5.742   0.982   8.913  0.1728  0.2653 -0.5285
  994MOL0     C34057   5.795   1.029   9.018 -0.9794 -1.1523  0.8446
  994MOL0     O34058   5.750   1.012   9.144 -0.3867  0.5129 -0.1385
  994MOL0     C34059   5.626   0.957   9.174 -0.4442  1.0407 -1.2591
  994MOL0     C34060   5.627   0.905   9.309 -0.3383 -0.7441 -0.4667
  994MOL0     C34061   5.515   0.851   9.377  0.3017 -0.0957  0.6022
  994MOL0     C34062   5.394   0.843   9.300  0.5637 -0.0728 -0.3856
  994MOL0     O34063   5.293   0.782   9.374 -0.0869 -0.3244  0.1660
  994MOL0     C34064   5.167   0.793   9.310  0.4931  0.6569 -0.1349
  994MOL0     C34065   5.060   0.750   9.413 -0.2798 -0.6756 -0.3409
  994MOL0     C34066   4.951   0.666   9.338  0.8744 -0.4297  0.1165
  994MOL0     C34067   4.841   0.645   9.450  0.6192 -0.1382  0.7185
  994MOL0     C34068   4.724   0.569   9.386  0.4394 -0.9263 -0.8412
  994MOL0     C34069   4.609   0.555   9.484  0.2743 -0.4451 -0.0010
  994MOL0     C34070   4.483   0.512   9.402  0.2590  0.3050  0.4712
  994MOL0     C34071   4.364   0.481   9.487 -0.7682  0.8373 -0.0138
  994MOL0     N34072   4.290   0.599   9.540  0.5015 -0.0532 -0.2421
  994MOL0     C34073   4.157   0.626   9.504 -0.3656  0.3384  0.0446
  994MOL0     C34074   4.130   0.747   9.565  0.6819  0.5057  0.2166
  994MOL0     C34075   3.987   0.810   9.552 -0.2663 -0.0520 -0.1063
  994MOL0     C34076   3.916   0.814   9.682  0.6474 -0.0956 -0.0236
  994MOL0     C34077   3.780   0.907   9.647 -1.0813  0.8771  0.3531
  994MOL0     C34078   3.657   0.824   9.645 -0.2709 -0.1378  0.6100
  994MOL0     O34079   3.670   0.762   9.520  0.2137  0.7620 -0.5275
  994MOL0     C34080   3.556   0.714   9.466  1.2996 -0.8133  0.3021
  994MOL0     C34081   3.538   0.732   9.327 -0.9962  0.7139 -0.1244
  994MOL0     C34082   3.423   0.682   9.264  0.0259  0.3577  0.1100
  994MOL0     C34083   3.320   0.611   9.337 -0.9308  0.8159 -0.3429
  994MOL0     C34084   3.192   0.564   9.273  0.5290  0.2627  1.1319
  994MOL0     O34085   3.093   0.517   9.352  0.7311  0.9179 -0.3516
  994MOL0     C34086   2.989   0.440   9.317  0.1038  0.3593  0.1569
  994MOL0     C34087   2.939   0.418   9.186 -0.6642  0.7445 -0.7244
  994MOL0     C34088   2.816   0.359   9.176 -0.7284  0.9317  0.7023
  994MOL0     C34089   2.746   0.292   9.283  0.0225 -0.3613  0.8702
  994MOL0     O34090   2.629   0.216   9.272  0.2322  0.0555  0.1085
  994MOL0     C34091   2.608   0.148   9.146  0.2240  0.0788 -0.9622
  994MOL0     C34092   2.504   0.038   9.177 -1.1208  0.8484  0.1847
  994MOL0     C34093   2.366   0.095   9.191 -0.4229  0.3604 -0.3427
  994MOL0     C34094   2.289  -0.020   9.244 -0.1860  0.3746  0.2852
  994MOL0     C34095   2.134   0.006   9.261 -0.1299 -0.1454 -0.4151
  994MOL0     C34096   2.079  -0.084   9.367 -0.7228 -0.1336 -0.1843
  994MOL0     C34097   1.931  -0.053   9.383  0.0833  0.5960  0.0996
  994MOL0     C34098   1.921   0.028   9.505  0.1565 -0.0707 -0.5663
  994MOL0    Cl34099   2.006   0.180   9.505  0.3171  0.5090 -0.4039
  994MOL0     C34100   2.791   0.320   9.409  0.1143  0.3924 -0.3013
  994MOL0     C34101   2.914   0.382   9.425 -0.8054  0.2221  0.1092
  994MOL0     O34102   3.191   0.559   9.150 -1.3131  0.5332 -0.5756
  994MOL0     C34103   3.348   0.584   9.468  0.6117  0.6342  0.6529
  994MOL0     C34104   3.461   0.644   9.532  0.1160  0.3366  0.4994
  994MOL0     N34105   4.238   0.789   9.642  0.3723  0.8591  0.2831
  994MOL0     N34106   4.330   0.700   9.629 -0.3542 -0.0329 -0.6012
  994MOL0     C34107   5.394   0.879   9.161  0.1318 -0.5405 -0.1475
  994MOL0     C34108   5.511   0.934   9.105  0.4048 -0.4450  0.6572
  994MOL0     C34109   5.906   1.129   9.017  0.0263 -0.3802  0.7914
  994MOL0     C34110   5.991   1.156   9.122  0.2808  0.2918 -0.6361
  994MOL0     C34111   6.093   1.254   9.124 -0.1925 -0.4566  0.5935
  994MOL0     C34112   6.131   1.321   9.008  0.3647  0.2662 -0.4870
  994MOL0     O34113   6.228   1.416   9.009 -0.2379  0.5451  0.7920
  994MOL0     C34114   6.273   1.468   8.880 -0.3235  0.1246 -0.7400
  994MOL0     C34115   6.413   1.527   8.888  1.0039  0.5568  0.4242
  994MOL0     C34116   6.429   1.658   8.956 -0.1330 -0.0617  0.6691
  994MOL0     C34117   6.373   1.664   9.106  0.6958 -0.3185  0.2897
  994MOL0     C34118   6.394   1.801   9.160 -0.7238  0.8875  0.1614
  994MOL0     C34119   6.426   1.915   9.196  0.5814 -0.4726 -0.1204
  994MOL0     C34120   6.038   1.311   8.900 -0.2183  0.0082 -0.5240
  994MOL0     C34121   5.929   1.211   8.903  0.2820 -0.2106  0.5807
  994MOL0     C34122   5.839   1.220   8.777 -0.5216 -0.4213 -0.3660
  994MOL0     H34123   5.717   0.922   9.368 -2.0378  0.4363  1.9681
  994MOL0     H34124   5.510   0.800   9.473 -2.4624  0.1479  0.6657
  994MOL0     H34125   5.153   0.896   9.277  3.1730  2.1273  2.7821
  994MOL0     H34126   5.162   0.726   9.224  2.2969  0.2467  0.0288
  994MOL0     H34127   5.034   0.852   9.443  1.4981  0.0191 -0.9975
  994MOL0     H34128   5.103   0.692   9.495 -0.4857 -1.9274 -1.0870
  994MOL0     H34129   4.982   0.570   9.297 -1.9986  0.4119 -4.7734
  994MOL0     H34130   4.916   0.727   9.254  1.0201  1.0016  1.0469
  994MOL0     H34131   4.878   0.594   9.539  2.0395  2.3160  1.6139
  994MOL0     H34132   4.796   0.738   9.486  0.5037  1.0582 -2.2482
  994MOL0     H34133   4.708   0.623   9.292  1.1546  2.7807  0.9746
  994MOL0     H34134   4.754   0.469   9.352 -0.4595 -0.9819 -1.5118
  994MOL0     H34135   4.626   0.474   9.555 -0.0732 -0.1630  0.4138
  994MOL0     H34136   4.592   0.650   9.537  1.2753  0.0067 -0.4649
  994MOL0     H34137   4.505   0.421   9.346 -0.4114  1.8686 -2.4995
  994MOL0     H34138   4.446   0.581   9.326 -1.9570 -1.3608 -0.0742
  994MOL0     H34139   4.292   0.428   9.423 -1.2496  0.9481  0.4338
  994MOL0     H34140   4.394   0.419   9.571  0.2749 -0.7048 -1.4551
  994MOL0     H34141   4.098   0.563   9.438  1.1797 -0.9008 -0.2276
  994MOL0     H34142   4.011   0.912   9.519  2.3048 -0.4623  0.3091
  994MOL0     H34143   3.923   0.751   9.487 -2.1415  1.4540  0.2792
  994MOL0     H34144   3.888   0.713   9.713  1.1183  0.7882  3.7366
  994MOL0     H34145   3.977   0.857   9.762  1.5061  0.9800 -1.2116
  994MOL0     H34146   3.795   0.977   9.564  1.8079  0.2896  0.2635
  994MOL0     H34147   3.781   0.974   9.733 -2.3102 -0.2680  1.2853
  994MOL0     H34148   3.564   0.881   9.649 -0.9667 -1.0544 -1.2671
  994MOL0     H34149   3.659   0.758   9.732  1.4224  1.5612  1.9433
  994MOL0     H34150   3.623   0.780   9.280 -0.0261  1.5998  2.3745
  994MOL0     H34151   3.403   0.666   9.159 -1.4729 -0.4614  0.4962
  994MOL0     H34152   2.981   0.472   9.102  1.1420 -2.0744 -1.7899
  994MOL0     H34153   2.777   0.350   9.075  3.3127  3.3466 -1.3132
  994MOL0     H34154   2.561   0.222   9.081  1.0939  3.6886  2.1507
  994MOL0     H34155   2.700   0.107   9.104 -0.3002  0.8065 -2.9212
  994MOL0     H34156   2.501  -0.034   9.095 -2.6084 -0.6278  1.4634
  994MOL0     H34157   2.537  -0.019   9.264 -4.6843 -1.2856  0.3579
  994MOL0     H34158   2.375   0.175   9.265 -0.4361 -2.0206  2.3851
  994MOL0     H34159   2.326   0.134   9.097  1.3560  2.3165 -0.3586
  994MOL0     H34160   2.327  -0.065   9.337 -0.3216 -2.9109 -1.0916
  994MOL0     H34161   2.301  -0.103   9.173 -2.0614 -0.8385  1.2961
  994MOL0     H34162   2.085   0.004   9.163  2.6268 -0.5713 -1.8975
  994MOL0     H34163   2.121   0.107   9.299  2.1652 -0.1345  0.4982
  994MOL0     H34164   2.089  -0.186   9.329  0.0475 -1.2003  2.6945
  994MOL0     H34165   2.134  -0.087   9.461 -0.4539 -0.1435 -0.3390
  994MOL0     H34166   1.871  -0.145   9.384  1.0374 -0.0426 -0.0293
  994MOL0     H34167   1.888   0.007   9.303 -0.7263 -1.7086 -1.2810
  994MOL0     H34168   1.813   0.041   9.520  0.2384 -0.3716  0.3276
  994MOL0     H34169   1.963  -0.029   9.589 -1.2257 -0.0832  0.1419
  994MOL0     H34170   2.750   0.281   9.501  0.5261  0.6357 -0.0126
  994MOL0     H34171   2.943   0.400   9.529 -0.0778 -2.0787  0.3531
  994MOL0     H34172   3.277   0.522   9.522 -1.6953  2.5861  0.0279
  994MOL0     H34173   3.476   0.619   9.637 -0.6340  1.1696  0.8153
  994MOL0     H34174   5.301   0.872   9.106 -0.0419 -1.7610  0.2664
  994MOL0     H34175   5.515   0.953   8.998 -1.3245  0.7983  0.7650
  994MOL0     H34176   5.975   1.092   9.208 -2.2270  0.0677 -1.1778
  994MOL0     H34177   6.147   1.262   9.217 -2.0105  1.2669  1.5735
  994MOL0     H34178   6.214   1.557   8.858 -0.4689 -0.2771 -2.0656
  994MOL0     H34179   6.280   1.405   8.791  0.8801  2.0568 -2.0943
  994MOL0     H34180   6.450   1.546   8.787 -2.4642 -3.3491 -1.9045
  994MOL0     H34181   6.483   1.461   8.940  5.3009  3.9964 -0.4255
  994MOL0     H34182   6.378   1.733   8.895  1.3222  0.7134  0.3561
  994MOL0     H34183   6.536   1.682   8.948 -0.1515 -0.0411  0.4974
  994MOL0     H34184   6.267   1.642   9.091  1.0988 -3.4649  1.2562
  994MOL0     H34185   6.415   1.583   9.166  2.9737 -0.5912 -1.5357
  994MOL0     H34186   6.452   2.014   9.226  2.4702 -0.6282 -1.0877
  994MOL0     H34187   6.054   1.375   8.814  2.5344 -0.3312 -0.3543
  994MOL0     H34188   5.830   1.326   8.751  2.9179  0.1872  0.4260
  994MOL0     H34189   5.899   1.176   8.696  0.6622  0.1255  0.1840
  994MOL0     H34190   5.739   1.177   8.789 -0.6577  0.5002  2.5355
  995MOL0     O34191  10.446   7.465  10.065 -0.2682 -0.0128  0.3441
  995MOL0     C34192  10.368   7.450  10.159 -0.6998  0.4362 -0.0626
  995MOL0     O34193  10.408   7.435  10.286 -0.0513 -0.3577 -0.3474
  995MOL0     C34194  10.547   7.438  10.306  0.0547  0.3093 -0.4932
  995MOL0     C34195  10.631   7.339  10.257  0.1428  0.1807 -0.4907
  995MOL0     C34196  10.766   7.340  10.301 -0.0737 -0.5260 -0.3213
  995MOL0     C34197  10.812   7.438  10.391  0.2552  0.0963 -0.0358
  995MOL0     O34198  10.948   7.440  10.429 -0.4974  0.2720  0.0282
  995MOL0     C34199  10.986   7.324  10.503 -0.8837  0.4339 -1.4555
  995MOL0     C34200  11.137   7.317  10.554  0.7326 -0.3224  0.1729
  995MOL0     C34201  11.231   7.288  10.437  0.1111 -0.2426 -0.2288
  995MOL0     C34202  11.358   7.221  10.482 -0.6142 -0.5263  0.6826
  995MOL0     C34203  11.447   7.314  10.563  0.2718  0.1377  1.1539
  995MOL0     C34204  11.592   7.286  10.561 -0.2691 -0.9863 -1.1280
  995MOL0     C34205  11.631   7.151  10.625  0.4061  0.0308  0.4832
  995MOL0     C34206  11.766   7.095  10.579  0.4419  0.1163  0.3996
  995MOL0     N34207  11.882   7.178  10.618  0.0544  0.1436 -0.3740
  995MOL0     C34208  11.935   7.211  10.733  0.6080  0.1929  0.1267
  995MOL0     C34209  12.059   7.254  10.716 -0.4856  0.1655  0.2695
  995MOL0     C34210  12.157   7.285  10.826 -0.0678 -0.1295 -0.6057
  995MOL0     C34211  12.255   7.178  10.877 -0.4487  0.4091 -0.0296
  995MOL0     C34212  12.366   7.153  10.770 -0.2586 -0.1077  0.3615
  995MOL0     C34213  12.469   7.053  10.821 -0.4427  0.6478  0.8778
  995MOL0     O34214  12.556   7.115  10.909 -0.2087  0.4820 -0.5706
  995MOL0     C34215  12.656   7.049  10.987 -0.3548  0.0070  0.9318
  995MOL0     C34216  12.703   6.915  10.968  0.0269 -0.2624 -0.1871
  995MOL0     C34217  12.807   6.860  11.046  0.1949 -0.3609 -0.0400
  995MOL0     C34218  12.864   6.938  11.150  0.4708  0.3191 -0.8001
  995MOL0     C34219  12.961   6.885  11.239 -0.2197 -0.4702  0.6840
  995MOL0     O34220  12.999   6.753  11.209  0.1084  0.4703  0.2178
  995MOL0     C34221  13.069   6.676  11.299  0.1512 -0.1545  0.2523
  995MOL0     C34222  13.187   6.727  11.356  0.8279  0.0860  0.3427
  995MOL0     C34223  13.268   6.654  11.444  0.1011  0.1094  1.2181
  995MOL0     C34224  13.237   6.513  11.462  0.0113  0.4527 -0.5555
  995MOL0     O34225  13.307   6.419  11.527  0.2755 -0.0972  0.1846
  995MOL0     C34226  13.396   6.347  11.441  0.8308 -0.6969 -0.6945
  995MOL0     C34227  13.520   6.321  11.510 -0.1828  0.6498 -0.8300
  995MOL0     C34228  13.625   6.239  11.430  0.2121 -0.9856  0.2046
  995MOL0     C34229  13.652   6.286  11.283  1.2061  0.0207  0.5953
  995MOL0     C34230  13.729   6.181  11.208 -0.0535 -0.5043  0.6449
  995MOL0     C34231  13.870   6.157  11.258  0.1715  0.2481  0.4828
  995MOL0     C34232  13.925   6.043  11.167  0.1448 -0.2406 -0.1860
  995MOL0     C34233  14.070   6.030  11.198 -0.1950  0.5312 -0.5418
  995MOL0    Cl34234  14.132   5.905  11.086 -0.1257  0.0528  0.1765
  995MOL0     C34235  13.122   6.464  11.407  0.1147 -0.7135  0.2804
  995MOL0     C34236  13.035   6.540  11.327 -0.7775  0.9065 -0.1050
  995MOL0     O34237  12.986   6.947  11.348  0.2326 -0.7446  0.2782
  995MOL0     C34238  12.817   7.076  11.163 -0.0039  0.1451  0.4618
  995MOL0     C34239  12.715   7.128  11.082 -0.2076  0.4786 -0.4755
  995MOL0     N34240  12.082   7.247  10.582 -0.3201  0.0053 -0.1031
  995MOL0     N34241  11.971   7.223  10.525 -0.1911  0.0844  0.3107
  995MOL0     C34242  10.732   7.537  10.437 -0.6544 -0.4303  0.1477
  995MOL0     C34243  10.600   7.538  10.397 -0.5568  0.5874 -0.3895
  995MOL0     C34244  10.220   7.459  10.139  0.1060 -0.4913  0.1160
  995MOL0     C34245  10.156   7.356  10.207  0.7320 -0.0432  0.0550
  995MOL0     C34246  10.016   7.343  10.204  0.3398  0.2100 -0.2208
  995MOL0     C34247   9.936   7.432  10.133  0.3117  0.5117  0.0249
  995MOL0     O34248   9.800   7.415  10.099 -0.7661  0.2533 -0.1082
  995MOL0     C34249   9.723   7.314  10.166  0.3908  0.1233  0.0631
  995MOL0     C34250   9.570   7.332  10.147  0.6396 -0.7614 -0.3854
  995MOL0     C34251   9.495   7.226  10.225  0.6090 -0.5194 -0.0850
  995MOL0     C34252   9.354   7.292  10.277  0.3462 -0.4054 -0.1570
  995MOL0     C34253   9.266   7.182  10.324 -0.2002 -0.3433  0.1957
  995MOL0     C34254   9.196   7.094  10.349  0.6598  0.7688  0.1902
  995MOL0     C34255  10.002   7.536  10.073  0.1231  0.2543 -0.1173
  995MOL0     C34256  10.139   7.552  10.080 -0.1145  0.1789  0.3199
  995MOL0     C34257  10.187   7.654   9.980 -0.2367 -1.0906 -0.0431
  995MOL0     H34258  10.586   7.268  10.188  0.8662  0.1345 -0.9170
  995MOL0     H34259  10.838   7.264  10.272  1.5280  0.3521  1.1963
  995MOL0     H34260  10.934   7.322  10.599  1.0098 -2.3899 -0.3462
  995MOL0     H34261  10.962   7.223  10.467 -1.2548 -0.9185  2.1908
  995MOL0     H34262  11.142   7.245  10.635  2.6602  0.0076  0.3944
  995MOL0     H34263  11.176   7.414  10.588 -0.4341 -0.4877  2.1059
  995MOL0     H34264  11.258   7.386  10.396 -0.4828 -0.2637 -0.6794
  995MOL0     H34265  11.179   7.225  10.365 -0.2276 -3.0246  2.2703
  995MOL0     H34266  11.334   7.138  10.549  2.4713 -1.9363  0.2267
  995MOL0     H34267  11.410   7.182  10.394 -2.9916 -0.7133 -0.7191
  995MOL0     H34268  11.440   7.411  10.513  0.8197  0.6316  2.0085
  995MOL0     H34269  11.406   7.336  10.662 -2.2588 -2.2280  0.7614
  995MOL0     H34270  11.630   7.289  10.459  5.1652 -1.2264  0.6052
  995MOL0     H34271  11.645   7.365  10.614 -0.9763 -1.0544 -0.2844
  995MOL0     H34272  11.564   7.069  10.597  1.3121 -1.1244  1.5480
  995MOL0     H34273  11.635   7.166  10.733  0.7265  0.5151  0.4062
  995MOL0     H34274  11.785   6.996  10.620  1.5598  0.9780  2.0610
  995MOL0     H34275  11.771   7.075  10.471  2.6990 -4.2470  1.0879
  995MOL0     H34276  11.890   7.179  10.827 -0.1616  2.1875  0.4731
  995MOL0     H34277  12.223   7.366  10.796  1.3193 -0.7928  0.5175
  995MOL0     H34278  12.095   7.318  10.911  3.0988 -0.1065  1.8709
  995MOL0     H34279  12.297   7.205  10.974 -0.1693  0.0269 -0.0417
  995MOL0     H34280  12.192   7.089  10.882 -2.6698  1.9059  0.1852
  995MOL0     H34281  12.425   7.241  10.742 -1.0229 -0.2867 -2.0923
  995MOL0     H34282  12.314   7.111  10.683 -0.9238 -0.2060  0.7999
  995MOL0     H34283  12.536   7.015  10.743 -2.8915  4.8852 -3.8652
  995MOL0     H34284  12.412   6.973  10.870 -1.4582 -0.5946 -2.1009
  995MOL0     H34285  12.658   6.859  10.886 -0.3123  1.3205 -1.1367
  995MOL0     H34286  12.847   6.762  11.025 -1.7319 -1.3553  0.7253
  995MOL0     H34287  13.204   6.833  11.345  0.5433  0.1036  0.0638
  995MOL0     H34288  13.353   6.706  11.487  1.9056  0.0465 -2.0139
  995MOL0     H34289  13.350   6.250  11.419  1.0502 -0.5718 -1.7402
  995MOL0     H34290  13.410   6.400  11.346 -0.6771  0.5037 -0.2914
  995MOL0     H34291  13.574   6.412  11.536  1.3444 -0.5226  0.3228
  995MOL0     H34292  13.494   6.262  11.598  1.7954  0.3196 -0.4213
  995MOL0     H34293  13.717   6.238  11.490 -0.7618  0.2290  1.7820
  995MOL0     H34294  13.598   6.133  11.432 -0.0421 -0.9153  0.7244
  995MOL0     H34295  13.699   6.385  11.279 -0.8655  1.0936  0.7757
  995MOL0     H34296  13.562   6.303  11.223  1.3450  1.0750  0.6612
  995MOL0     H34297  13.722   6.207  11.102 -1.4110 -0.6802  0.6666
  995MOL0     H34298  13.667   6.094  11.228  2.0849 -1.8650  1.6858
  995MOL0     H34299  13.927   6.250  11.249 -2.8488  2.1489 -0.5835
  995MOL0     H34300  13.860   6.118  11.360 -5.3704 -0.9159 -0.2174
  995MOL0     H34301  13.906   6.069  11.062  0.6884 -1.8492 -0.7187
  995MOL0     H34302  13.877   5.946  11.183 -0.5624  0.1673  0.2164
  995MOL0     H34303  14.119   6.126  11.179  1.3827  0.1463  1.2335
  995MOL0     H34304  14.089   5.992  11.299 -2.2779 -0.2085 -0.3779
  995MOL0     H34305  13.106   6.359  11.429  0.0486 -0.3073  2.3822
  995MOL0     H34306  12.952   6.486  11.284 -2.2107  1.8228  1.4081
  995MOL0     H34307  12.861   7.128  11.247 -0.2123 -1.4567  1.6289
  995MOL0     H34308  12.684   7.229  11.104  2.5823  1.3615 -0.1817
  995MOL0     H34309  10.772   7.599  10.516  0.0965 -1.0101  0.2403
  995MOL0     H34310  10.527   7.614  10.423  2.0903  3.1677 -0.0457
  995MOL0     H34311  10.211   7.292  10.275  0.2369 -1.6992 -1.0521
  995MOL0     H34312   9.970   7.267  10.266 -0.1232  1.1347  0.6172
  995MOL0     H34313   9.745   7.336  10.271  1.4475  1.4396 -0.4173
  995MOL0     H34314   9.745   7.209  10.144  1.9066  0.8430 -2.2711
  995MOL0     H34315   9.557   7.310  10.040  2.7729 -0.3441 -0.7707
  995MOL0     H34316   9.536   7.434  10.163  0.5816 -0.6944 -0.9193
  995MOL0     H34317   9.549   7.202  10.317 -3.4576  1.4711  3.1698
  995MOL0     H34318   9.488   7.141  10.157  0.6059  1.2623 -2.4493
  995MOL0     H34319   9.364   7.375  10.348 -0.0081  0.0472 -0.6269
  995MOL0     H34320   9.308   7.341  10.190 -2.4487 -0.6797  1.0644
  995MOL0     H34321   9.126   7.021  10.384 -0.0605  1.0057 -0.7148
  995MOL0     H34322   9.929   7.604  10.029 -2.0033  0.0051  2.7525
  995MOL0     H34323  10.143   7.633   9.882  1.2460  0.5174 -1.1376
  995MOL0     H34324  10.159   7.755  10.011  0.3623 -1.7358  2.9190
  995MOL0     H34325  10.296   7.656   9.966 -0.2071  0.3190  0.2002
  996MOL0     O34326   4.381   8.881   9.982  0.0760 -0.5387 -0.2453
  996MOL0     C34327   4.327   8.815   9.893 -0.1668  0.3263 -0.0979
  996MOL0     O34328   4.342   8.683   9.863  0.2850 -0.2988  0.4521
  996MOL0     C34329   4.452   8.610   9.897  0.2730  0.3754  0.0132
  996MOL0     C34330   4.571   8.656   9.957 -0.3795  0.2697  0.1276
  996MOL0     C34331   4.671   8.572  10.012  0.1954  0.3387 -0.5716
  996MOL0     C34332   4.648   8.439   9.994 -0.4234  0.4839  0.4054
  996MOL0     O34333   4.758   8.362  10.039 -0.0426 -0.2524  0.4060
  996MOL0     C34334   4.751   8.219  10.028 -0.3391  0.2598  0.4380
  996MOL0     C34335   4.896   8.164  10.066  0.0189 -0.2164 -0.4195
  996MOL0     C34336   4.893   8.013  10.081 -0.2837 -0.3040 -0.0024
  996MOL0     C34337   5.033   7.959  10.095  0.1326  0.1584  0.7954
  996MOL0     C34338   5.024   7.809  10.133 -0.6802  1.3191  0.2641
  996MOL0     C34339   5.156   7.764  10.192 -0.2684 -0.4336  0.5434
  996MOL0     C34340   5.186   7.610  10.172  0.0239  0.2333 -0.8286
  996MOL0     C34341   5.311   7.551  10.237  0.2999 -0.5442 -0.4069
  996MOL0     N34342   5.436   7.616  10.209 -0.3957  0.1736 -1.0231
  996MOL0     C34343   5.493   7.729  10.264  0.3542  0.7777 -0.2664
  996MOL0     C34344   5.614   7.733  10.206  0.0969 -0.2149 -0.6144
  996MOL0     C34345   5.699   7.850  10.223 -0.4522  0.0511 -0.3343
  996MOL0     C34346   5.814   7.812  10.308  0.1994  0.3192  0.8139
  996MOL0     C34347   5.899   7.927  10.359  0.2844 -0.8109 -0.0609
  996MOL0     C34348   6.003   7.876  10.465 -0.1551  0.1888 -0.4547
  996MOL0     O34349   6.138   7.852  10.412 -0.7782  0.1456 -0.6329
  996MOL0     C34350   6.244   7.817  10.488  0.3867  0.5348 -0.3102
  996MOL0     C34351   6.242   7.796  10.624  0.2354  0.6858 -0.8906
  996MOL0     C34352   6.352   7.752  10.696 -0.4780 -0.6189 -0.9361
  996MOL0     C34353   6.481   7.758  10.628  0.4734  0.4563 -1.0734
  996MOL0     C34354   6.608   7.729  10.712  0.1317  0.5740 -0.4476
  996MOL0     O34355   6.723   7.726  10.638  0.4501  0.2061  0.1572
  996MOL0     C34356   6.851   7.704  10.689 -0.3997 -0.1545  0.0774
  996MOL0     C34357   6.895   7.747  10.812 -0.6428  0.8147 -0.1198
  996MOL0     C34358   7.037   7.738  10.833 -0.4399 -0.2556  0.8211
  996MOL0     C34359   7.124   7.676  10.740  0.6753 -0.7292 -0.2550
  996MOL0     O34360   7.261   7.671  10.751 -0.8833  0.5500 -0.5076
  996MOL0     C34361   7.320   7.733  10.864  0.1252  0.0464 -0.7508
  996MOL0     C34362   7.476   7.722  10.850  0.8507  0.0560 -0.0294
  996MOL0     C34363   7.555   7.769  10.982  0.0470  0.4707  0.0169
  996MOL0     C34364   7.683   7.694  10.978 -0.9333  0.1307 -0.8816
  996MOL0     C34365   7.784   7.754  11.073 -0.4310 -0.2350 -0.1590
  996MOL0     C34366   7.906   7.668  11.079  0.2863 -0.5104 -0.6803
  996MOL0     C34367   8.017   7.730  11.157 -0.0711 -0.6189 -0.3259
  996MOL0     C34368   8.118   7.621  11.192  0.2303 -0.2903 -0.6088
  996MOL0    Cl34369   8.251   7.708  11.278  0.0121  0.0814 -0.1131
  996MOL0     C34370   7.075   7.629  10.618  0.5894  0.0419  0.2372
  996MOL0     C34371   6.937   7.640  10.599 -0.3018  0.5680  0.8256
  996MOL0     O34372   6.604   7.720  10.834 -0.0449 -0.3926 -0.3533
  996MOL0     C34373   6.488   7.777  10.488 -0.3439 -1.4767 -0.2042
  996MOL0     C34374   6.368   7.800  10.423 -0.9522  0.5808  0.3246
  996MOL0     N34375   5.631   7.630  10.124  0.0206 -0.5567  0.2096
  996MOL0     N34376   5.523   7.559  10.124  0.1507 -0.1318  0.0555
  996MOL0     C34377   4.534   8.386   9.915  0.3533  0.1966 -0.0779
  996MOL0     C34378   4.442   8.473   9.870  0.1083  0.4290  0.7648
  996MOL0     C34379   4.233   8.883   9.794 -0.1199  0.3290 -0.2985
  996MOL0     C34380   4.206   8.824   9.668  0.2156 -0.8440 -0.4356
  996MOL0     C34381   4.128   8.895   9.571 -0.0741  1.7405  0.4379
  996MOL0     C34382   4.100   9.032   9.589 -0.0049 -0.0343 -0.7087
  996MOL0     O34383   4.039   9.116   9.497 -0.3834  0.5725 -0.1554
  996MOL0     C34384   4.100   9.093   9.365 -0.0449 -0.9573 -1.1506
  996MOL0     C34385   3.982   9.082   9.267 -0.8282 -0.2438  0.4048
  996MOL0     C34386   3.924   9.226   9.243  0.2720 -0.1463  0.1075
  996MOL0     C34387   3.808   9.220   9.151 -0.4509 -0.8549  0.0029
  996MOL0     C34388   3.848   9.177   9.021 -0.6053  0.9900 -0.3440
  996MOL0     C34389   3.882   9.145   8.915  0.0400  0.1214  0.4451
  996MOL0     C34390   4.119   9.086   9.715 -0.1532  1.0581 -0.8111
  996MOL0     C34391   4.182   9.010   9.821 -0.0791 -0.3060  0.2247
  996MOL0     C34392   4.195   9.078   9.950 -0.6772  0.2253 -0.0402
  996MOL0     H34393   4.578   8.763   9.974 -3.2763  0.4500  0.7791
  996MOL0     H34394   4.752   8.603  10.077 -0.5979 -3.0868  2.4131
  996MOL0     H34395   4.689   8.183  10.111  0.6732 -1.0748  0.6644
  996MOL0     H34396   4.715   8.192   9.929  1.7993  1.1358 -0.6448
  996MOL0     H34397   4.919   8.224  10.155  2.5726  0.8379 -1.7044
  996MOL0     H34398   4.976   8.197  10.000  1.6158  1.3990  2.1132
  996MOL0     H34399   4.861   7.982   9.980  0.9191  0.9622 -0.8102
  996MOL0     H34400   4.820   7.990  10.159 -1.0128 -1.8204 -1.0699
  996MOL0     H34401   5.082   7.976  10.000  1.7312 -1.1291  1.3489
  996MOL0     H34402   5.086   8.011  10.176  0.2388 -2.6778  2.6926
  996MOL0     H34403   4.949   7.776  10.206 -0.2010 -1.1375 -0.2722
  996MOL0     H34404   5.003   7.747  10.046 -3.4559  2.3249  0.1218
  996MOL0     H34405   5.230   7.831  10.148 -1.9581  0.7973 -0.4967
  996MOL0     H34406   5.150   7.785  10.300  0.2870  0.2773  0.4408
  996MOL0     H34407   5.196   7.591  10.065 -0.3738 -4.6608 -0.2269
  996MOL0     H34408   5.103   7.552  10.213 -0.9456  1.7335 -0.5869
  996MOL0     H34409   5.298   7.554  10.346  2.0988  1.2277 -0.1872
  996MOL0     H34410   5.313   7.444  10.211 -1.5144 -0.7391  0.1074
  996MOL0     H34411   5.441   7.793  10.335 -0.9698  1.5020 -1.8433
  996MOL0     H34412   5.753   7.888  10.135  1.3569  1.0347  1.1118
  996MOL0     H34413   5.649   7.935  10.272 -1.2535  0.2231 -1.4124
  996MOL0     H34414   5.757   7.763  10.388 -0.6863 -2.1695 -1.1883
  996MOL0     H34415   5.875   7.739  10.254 -4.7861 -1.0088 -3.8668
  996MOL0     H34416   5.835   8.007  10.398 -0.1669 -0.2743 -1.8068
  996MOL0     H34417   5.959   7.974  10.280 -1.7763 -0.8327 -1.7245
  996MOL0     H34418   5.974   7.774  10.492 -1.7497  1.1201  1.5727
  996MOL0     H34419   6.008   7.943  10.551 -0.9169 -0.6858  0.2936
  996MOL0     H34420   6.161   7.824  10.690 -0.4714  1.4183 -2.0510
  996MOL0     H34421   6.335   7.735  10.802 -1.3483  3.3788 -0.2913
  996MOL0     H34422   6.822   7.781  10.885  0.0520  1.7851  0.1418
  996MOL0     H34423   7.067   7.782  10.928 -1.7237 -0.4373  1.3224
  996MOL0     H34424   7.300   7.840  10.850  2.5591  0.2115 -4.6225
  996MOL0     H34425   7.265   7.718  10.957 -1.2373  1.1917 -1.3248
  996MOL0     H34426   7.499   7.616  10.833  1.5204  0.3390 -0.9341
  996MOL0     H34427   7.514   7.780  10.766  0.8474  3.3268  2.0516
  996MOL0     H34428   7.564   7.878  10.986 -2.5210  0.7095  0.8408
  996MOL0     H34429   7.508   7.742  11.077 -0.8619  2.0732  0.0564
  996MOL0     H34430   7.727   7.703  10.878  0.8356  1.8496 -0.0176
  996MOL0     H34431   7.657   7.590  10.997  0.9060 -0.0761  0.7689
  996MOL0     H34432   7.742   7.759  11.174  0.2423  1.1046  0.0887
  996MOL0     H34433   7.804   7.856  11.039 -0.1278  0.1877  1.1836
  996MOL0     H34434   7.874   7.573  11.123  1.2937 -0.7128 -0.3681
  996MOL0     H34435   7.949   7.644  10.981  1.2215  0.9060 -0.6529
  996MOL0     H34436   7.983   7.784  11.246 -0.6934 -1.8167  0.1856
  996MOL0     H34437   8.067   7.810  11.101  0.5195  0.3015  1.4359
  996MOL0     H34438   8.071   7.551  11.263  0.9830  2.0378  2.4051
  996MOL0     H34439   8.167   7.579  11.103  0.8110 -1.2641  0.1376
  996MOL0     H34440   7.132   7.589  10.535 -1.8386  1.3632 -2.2596
  996MOL0     H34441   6.893   7.609  10.505  1.9098 -3.6450  0.9578
  996MOL0     H34442   6.580   7.778  10.430 -2.6029 -0.0194 -4.0644
  996MOL0     H34443   6.374   7.826  10.318 -0.4212  2.7913  0.8453
  996MOL0     H34444   4.521   8.281   9.892 -3.9944  0.0218  2.1618
  996MOL0     H34445   4.351   8.439   9.821 -0.9624 -1.1558  3.6270
  996MOL0     H34446   4.252   8.727   9.653  1.7200 -0.2253 -0.0685
  996MOL0     H34447   4.098   8.846   9.480  1.2829 -0.0317  0.8931
  996MOL0     H34448   4.176   9.018   9.341  2.3918  1.5554 -1.9100
  996MOL0     H34449   4.161   9.183   9.352 -1.4236  1.0729  3.9073
  996MOL0     H34450   3.905   9.009   9.293 -0.9756 -0.3585 -0.3138
  996MOL0     H34451   4.024   9.046   9.172  0.3143  2.0767 -0.0458
  996MOL0     H34452   4.006   9.277   9.191  1.8127 -3.2052 -0.7266
  996MOL0     H34453   3.878   9.265   9.334 -2.5733 -1.0532 -0.8443
  996MOL0     H34454   3.744   9.142   9.193 -0.1376  0.5794  3.4393
  996MOL0     H34455   3.760   9.316   9.133 -1.6470 -1.4907 -0.3390
  996MOL0     H34456   3.905   9.100   8.820 -0.6877 -0.0518  0.3482
  996MOL0     H34457   4.085   9.186   9.740  2.6387  1.9385 -0.1821
  996MOL0     H34458   4.180   9.011  10.035 -0.2045 -3.1671 -2.4356
  996MOL0     H34459   4.295   9.120   9.959 -1.3913  2.0548 -0.2377
  996MOL0     H34460   4.125   9.162   9.953 -0.5815  0.3416 -0.7684
  997MOL0     O34461   0.602   3.290   6.609 -0.2405  0.3678 -0.6894
  997MOL0     C34462   0.554   3.386   6.671  0.4699 -0.4538  0.1470
  997MOL0     O34463   0.631   3.498   6.715 -0.1680  0.3804 -0.2013
  997MOL0     C34464   0.768   3.501   6.700 -0.3814 -0.1005  0.2665
  997MOL0     C34465   0.841   3.551   6.804 -0.6771  0.8030  0.0131
  997MOL0     C34466   0.984   3.552   6.795 -0.6422  0.3941  0.9354
  997MOL0     C34467   1.050   3.525   6.675 -1.0574 -0.0802  0.0274
  997MOL0     O34468   1.184   3.553   6.666  0.0453  0.2432 -0.0803
  997MOL0     C34469   1.257   3.511   6.550  0.1160 -0.0774  0.0770
  997MOL0     C34470   1.400   3.538   6.549  0.2946  0.3172  0.1473
  997MOL0     C34471   1.420   3.685   6.534  0.1611  0.1124  0.5296
  997MOL0     C34472   1.570   3.717   6.487  0.6314  0.1867 -0.8104
  997MOL0     C34473   1.593   3.870   6.515 -0.3667  0.7374  0.0128
  997MOL0     C34474   1.728   3.909   6.485 -0.6182  1.0490  0.6591
  997MOL0     C34475   1.756   4.042   6.554 -0.2072  0.6369 -0.8166
  997MOL0     C34476   1.782   4.144   6.448  0.1046 -0.2703  0.5795
  997MOL0     N34477   1.783   4.279   6.495 -0.2288 -0.8608  0.1631
  997MOL0     C34478   1.804   4.394   6.410  0.7185 -0.0003  0.5246
  997MOL0     C34479   1.837   4.489   6.500  0.8204 -0.2189 -0.1233
  997MOL0     C34480   1.880   4.630   6.477  0.2935 -0.2047 -1.1485
  997MOL0     C34481   2.029   4.635   6.433 -0.6649 -0.6743 -0.7091
  997MOL0     C34482   2.073   4.759   6.358 -0.8175 -0.2907  1.2543
  997MOL0     C34483   2.222   4.772   6.344  0.0741  0.4447 -0.5989
  997MOL0     O34484   2.287   4.753   6.468  0.8372  0.3041 -0.0637
  997MOL0     C34485   2.411   4.688   6.471  0.6352 -0.6335  0.0516
  997MOL0     C34486   2.494   4.669   6.354  0.2600 -0.4067  0.3873
  997MOL0     C34487   2.615   4.601   6.363  0.3639 -1.1632  0.2296
  997MOL0     C34488   2.662   4.551   6.487 -0.7160  0.5059  0.1636
  997MOL0     C34489   2.790   4.455   6.501  0.0168 -0.5028 -0.0491
  997MOL0     O34490   2.842   4.423   6.629 -0.5020  0.2811 -0.5321
  997MOL0     C34491   2.930   4.321   6.640 -0.1593 -0.1201 -0.7856
  997MOL0     C34492   2.879   4.189   6.654 -0.5048 -1.3176  0.1249
  997MOL0     C34493   2.965   4.078   6.656  0.0954  0.3388 -0.5649
  997MOL0     C34494   3.106   4.102   6.665  0.9666  0.3883 -0.5173
  997MOL0     O34495   3.209   4.011   6.649 -0.0610  0.7354  0.4204
  997MOL0     C34496   3.165   3.887   6.586 -0.6706 -0.3278  0.3435
  997MOL0     C34497   3.304   3.823   6.559  0.2901 -0.9145 -0.3500
  997MOL0     C34498   3.283   3.713   6.448 -0.2705  0.5358  0.2907
  997MOL0     C34499   3.220   3.581   6.499 -0.8333 -0.4105  0.4875
  997MOL0     C34500   3.205   3.474   6.390 -1.5310  0.3888 -0.5179
  997MOL0     C34501   3.135   3.356   6.459  0.3601 -0.2882  0.2533
  997MOL0     C34502   3.115   3.226   6.384  0.1657 -0.2674  0.1899
  997MOL0     C34503   3.262   3.180   6.347 -0.1093  0.1386 -0.1763
  997MOL0    Cl34504   3.273   3.009   6.294 -0.1048  0.3406  0.7873
  997MOL0     C34505   3.147   4.233   6.666 -0.6082 -0.2219 -0.1354
  997MOL0     C34506   3.060   4.341   6.667  0.6609 -0.7271  0.3484
  997MOL0     O34507   2.842   4.419   6.392  0.3236  0.4811 -0.0128
  997MOL0     C34508   2.583   4.581   6.602  0.1544 -0.3309 -0.3506
  997MOL0     C34509   2.456   4.643   6.597  0.5696 -0.2550 -0.1487
  997MOL0     N34510   1.832   4.444   6.631  0.3316  0.2799  0.8889
  997MOL0     N34511   1.807   4.316   6.624 -0.1579  0.8396  0.0550
  997MOL0     C34512   0.975   3.480   6.570 -0.9760 -0.8039 -0.9370
  997MOL0     C34513   0.836   3.469   6.585  0.1971  0.4882 -0.3470
  997MOL0     C34514   0.409   3.405   6.704  0.8389  0.1671 -1.0454
  997MOL0     C34515   0.370   3.503   6.802  0.0213 -0.9855 -0.4228
  997MOL0     C34516   0.238   3.521   6.845 -0.4180  0.4252  0.7753
  997MOL0     C34517   0.145   3.435   6.787 -0.9013  1.2646 -1.0856
  997MOL0     O34518   0.019   3.434   6.846  0.5500  0.1007  0.9239
  997MOL0     C34519  -0.091   3.354   6.793  0.8045  0.6149 -0.8472
  997MOL0     C34520  -0.089   3.208   6.833 -0.2683 -0.1508 -0.1123
  997MOL0     C34521  -0.210   3.135   6.805  1.1961 -0.2003  0.4395
  997MOL0     C34522  -0.325   3.175   6.899  0.0631 -0.3513  0.2825
  997MOL0     C34523  -0.417   3.065   6.917  0.4106 -0.2309 -0.3792
  997MOL0     C34524  -0.493   2.977   6.932  0.4053  0.5004 -0.5983
  997MOL0     C34525   0.179   3.340   6.692  0.7570  0.5942  0.4473
  997MOL0     C34526   0.311   3.326   6.641  0.0187 -0.1900  0.2755
  997MOL0     C34527   0.336   3.220   6.536 -0.4092 -1.1441 -0.3708
  997MOL0     H34528   0.784   3.580   6.892  3.0564  0.4915  2.7691
  997MOL0     H34529   1.036   3.586   6.884 -0.3869  0.0595  0.9179
  997MOL0     H34530   1.240   3.404   6.532 -2.9470  0.6100 -1.7571
  997MOL0     H34531   1.208   3.565   6.469 -1.2881  3.7569  3.1822
  997MOL0     H34532   1.442   3.480   6.467 -0.9765 -3.0146  1.6840
  997MOL0     H34533   1.440   3.503   6.645 -0.0813  0.3242  0.3088
  997MOL0     H34534   1.409   3.730   6.633 -2.0633  2.2825 -0.5885
  997MOL0     H34535   1.338   3.728   6.477  2.0091  0.6211 -1.9179
  997MOL0     H34536   1.637   3.648   6.539 -1.5643 -1.6543 -0.2764
  997MOL0     H34537   1.594   3.716   6.380  1.1879  0.5608 -0.6967
  997MOL0     H34538   1.536   3.926   6.439 -2.4601 -1.0332  0.1891
  997MOL0     H34539   1.566   3.901   6.616  0.2803  2.5265 -0.3140
  997MOL0     H34540   1.799   3.837   6.527  1.2025  3.1406  1.3130
  997MOL0     H34541   1.734   3.912   6.375 -2.7446 -1.1659  0.3772
  997MOL0     H34542   1.835   4.034   6.628  1.2471  2.2370 -2.1246
  997MOL0     H34543   1.667   4.071   6.611 -1.0173 -0.7180 -1.3402
  997MOL0     H34544   1.878   4.126   6.398  0.0646  1.0128 -0.0092
  997MOL0     H34545   1.720   4.131   6.360 -0.8559  0.4106  1.1413
  997MOL0     H34546   1.802   4.390   6.302 -2.2152 -0.9116  0.5304
  997MOL0     H34547   1.829   4.677   6.393 -2.2443 -0.3234  0.2357
  997MOL0     H34548   1.848   4.685   6.566 -2.8926 -2.6973 -0.5827
  997MOL0     H34549   2.088   4.643   6.525  0.7506  0.8371 -1.6945
  997MOL0     H34550   2.072   4.544   6.392  1.4063 -0.5777  1.0326
  997MOL0     H34551   2.041   4.847   6.414  4.6436  0.8679  3.2337
  997MOL0     H34552   2.042   4.757   6.253 -0.0176  1.0285  0.9598
  997MOL0     H34553   2.263   4.868   6.312  1.8219 -0.5764 -1.5956
  997MOL0     H34554   2.256   4.701   6.267  1.2203  0.2549  0.0462
  997MOL0     H34555   2.460   4.678   6.251 -1.4663 -3.1083  0.6193
  997MOL0     H34556   2.667   4.581   6.270  1.3704  3.0292 -0.2980
  997MOL0     H34557   2.771   4.176   6.646 -1.1666  2.1884  1.3782
  997MOL0     H34558   2.914   3.983   6.652 -1.0975  0.9438 -0.4723
  997MOL0     H34559   3.105   3.823   6.650 -1.1672 -0.1817  0.0331
  997MOL0     H34560   3.110   3.913   6.495 -2.6690 -0.4332  1.4597
  997MOL0     H34561   3.365   3.902   6.513  0.1332 -0.8092 -0.3813
  997MOL0     H34562   3.352   3.790   6.651  0.4396  0.4714  0.0894
  997MOL0     H34563   3.234   3.758   6.361 -0.6857 -0.6616 -0.1181
  997MOL0     H34564   3.385   3.685   6.423 -1.0453 -1.9685 -0.4170
  997MOL0     H34565   3.122   3.612   6.537 -0.3429  0.0160  1.4269
  997MOL0     H34566   3.269   3.546   6.591  1.6270  0.0512 -0.5662
  997MOL0     H34567   3.309   3.455   6.365 -0.6265  3.3437  0.5471
  997MOL0     H34568   3.161   3.497   6.292  0.9591 -0.8325 -2.0221
  997MOL0     H34569   3.193   3.340   6.550  1.2818 -2.2242 -0.6192
  997MOL0     H34570   3.037   3.389   6.495  0.6124  1.3926 -0.5054
  997MOL0     H34571   3.058   3.246   6.293 -0.6764  2.3142  1.1939
  997MOL0     H34572   3.066   3.155   6.452 -1.8218  1.5568  0.7960
  997MOL0     H34573   3.293   3.242   6.263 -1.0713  1.0977  0.1438
  997MOL0     H34574   3.331   3.213   6.425 -0.4764 -1.5938  0.9431
  997MOL0     H34575   3.250   4.264   6.655 -1.1563  1.5832 -0.6293
  997MOL0     H34576   3.111   4.437   6.675  1.0067 -1.0299  2.6067
  997MOL0     H34577   2.619   4.539   6.695  2.6823 -2.0873 -2.0177
  997MOL0     H34578   2.388   4.651   6.682  2.2348  0.6462  1.1749
  997MOL0     H34579   1.010   3.431   6.479  0.2975 -2.1976  0.2470
  997MOL0     H34580   0.772   3.428   6.507 -3.7755  0.9775  2.3706
  997MOL0     H34581   0.439   3.577   6.840 -0.7790 -0.2360 -0.4015
  997MOL0     H34582   0.232   3.606   6.912  1.9022  1.2590  0.0373
  997MOL0     H34583  -0.098   3.368   6.685 -1.7500 -1.8834 -1.1455
  997MOL0     H34584  -0.183   3.396   6.835 -0.0310 -2.1937  0.4015
  997MOL0     H34585  -0.047   3.191   6.933  3.6387 -0.7964 -1.6714
  997MOL0     H34586  -0.012   3.156   6.776  0.9463 -0.2914  1.5631
  997MOL0     H34587  -0.198   3.027   6.810 -1.8800 -0.7807 -1.7411
  997MOL0     H34588  -0.244   3.147   6.702  0.0570 -1.5811  0.6206
  997MOL0     H34589  -0.290   3.216   6.994  0.3669 -0.6674  0.3086
  997MOL0     H34590  -0.378   3.257   6.850 -1.0383 -2.2076 -1.8464
  997MOL0     H34591  -0.570   2.910   6.966  0.5068  1.2736  1.2992
  997MOL0     H34592   0.098   3.286   6.646 -1.9120  3.9558  0.8198
  997MOL0     H34593   0.253   3.191   6.470 -0.1119 -1.1158 -0.7644
  997MOL0     H34594   0.417   3.260   6.474 -0.9734  2.1535  0.8185
  997MOL0     H34595   0.364   3.134   6.597 -1.0541  0.0407  1.6806
  998MOL0     O34596   8.188   8.043   7.849 -0.0686  0.5599 -0.6116
  998MOL0     C34597   8.193   7.924   7.850  0.2512  1.2857  0.5710
  998MOL0     O34598   8.298   7.846   7.895 -0.5498 -0.3395 -0.0526
  998MOL0     C34599   8.415   7.901   7.943  0.3566  0.3467 -0.3062
  998MOL0     C34600   8.532   7.823   7.935 -0.1108 -0.3226 -0.0630
  998MOL0     C34601   8.661   7.861   7.990  0.0413 -0.4366  0.7126
  998MOL0     C34602   8.663   7.984   8.066  0.5285  0.4672  0.8916
  998MOL0     O34603   8.774   8.006   8.139 -0.2362  0.1973  0.4214
  998MOL0     C34604   8.795   8.132   8.185  0.5730 -0.0869 -0.2083
  998MOL0     C34605   8.933   8.148   8.245  0.4863  0.0578  1.0341
  998MOL0     C34606   9.044   8.181   8.145 -0.1920 -0.3422  0.3981
  998MOL0     C34607   9.039   8.322   8.079  0.0313  0.2277 -0.0109
  998MOL0     C34608   9.163   8.329   7.987  1.0751 -0.2314  0.0603
  998MOL0     C34609   9.274   8.411   8.042 -0.0628 -0.8950 -1.1213
  998MOL0     C34610   9.384   8.451   7.942 -0.7825  0.4037 -0.0500
  998MOL0     C34611   9.455   8.580   7.981 -0.4460  0.3827  0.6834
  998MOL0     N34612   9.514   8.574   8.116  0.4185 -0.0617 -0.1241
  998MOL0     C34613   9.651   8.545   8.148 -0.0989 -0.3727  0.9721
  998MOL0     C34614   9.663   8.553   8.280  0.8845 -0.0213 -1.5007
  998MOL0     C34615   9.781   8.553   8.362 -1.1760 -0.1269 -0.0116
  998MOL0     C34616   9.900   8.628   8.291  0.3133 -0.1225  0.3601
  998MOL0     C34617   9.965   8.730   8.379 -0.3659  0.1561  0.7260
  998MOL0     C34618  10.095   8.782   8.315  0.4478 -0.0774 -0.5950
  998MOL0     O34619  10.127   8.898   8.388 -0.1077 -1.0231 -0.5179
  998MOL0     C34620  10.242   8.960   8.341 -0.4185  0.5650 -0.4159
  998MOL0     C34621  10.250   9.089   8.372  0.3407  1.2350 -0.2505
  998MOL0     C34622  10.364   9.161   8.341  0.8156 -0.0120 -1.1513
  998MOL0     C34623  10.476   9.105   8.281  0.1834  0.0414 -0.3828
  998MOL0     C34624  10.605   9.178   8.275 -0.3638  0.4479 -1.1958
  998MOL0     O34625  10.708   9.116   8.230 -1.0652 -0.2797  0.5976
  998MOL0     C34626  10.822   9.165   8.187 -0.9376 -1.0517  1.8866
  998MOL0     C34627  10.938   9.104   8.220 -1.1405  0.8193 -0.3396
  998MOL0     C34628  11.065   9.150   8.163  0.2027 -0.8988  0.4411
  998MOL0     C34629  11.070   9.257   8.069 -0.1335  0.4823 -0.0222
  998MOL0     O34630  11.192   9.288   8.017 -0.2534  0.3628  0.1690
  998MOL0     C34631  11.199   9.350   7.891  0.0057 -0.8051  0.1790
  998MOL0     C34632  11.334   9.353   7.825 -0.4050  0.1913  0.5060
  998MOL0     C34633  11.420   9.468   7.878 -0.5982  0.2160  0.8143
  998MOL0     C34634  11.561   9.473   7.810  0.1137 -0.3373  0.4025
  998MOL0     C34635  11.640   9.593   7.852 -0.0701 -0.0457 -0.0107
  998MOL0     C34636  11.747   9.651   7.746  0.3401 -0.2856  0.5332
  998MOL0     C34637  11.842   9.766   7.800 -0.0092 -0.0488 -0.3993
  998MOL0     C34638  11.766   9.887   7.850 -0.4803  0.2448 -0.6572
  998MOL0    Cl34639  11.874  10.019   7.859  0.0943 -0.1228 -0.0194
  998MOL0     C34640  10.949   9.306   8.025 -0.1252 -0.6570 -0.3431
  998MOL0     C34641  10.824   9.263   8.085 -0.9238  0.0575 -0.4689
  998MOL0     O34642  10.605   9.295   8.316 -0.4162 -0.4446 -0.1322
  998MOL0     C34643  10.467   8.976   8.239  0.4489 -0.3153  0.6352
  998MOL0     C34644  10.351   8.904   8.270  0.5441 -0.2281  0.2844
  998MOL0     N34645   9.530   8.578   8.327 -0.5772 -0.1220  0.5773
  998MOL0     N34646   9.441   8.572   8.231 -0.1589 -0.1925  0.5598
  998MOL0     C34647   8.547   8.059   8.082 -0.2454 -0.4055  0.0185
  998MOL0     C34648   8.431   8.021   8.019 -0.2620 -0.0259 -1.1369
  998MOL0     C34649   8.067   7.853   7.808  0.1381  0.5003 -0.5665
  998MOL0     C34650   7.939   7.926   7.821 -0.4537 -0.0785 -0.0061
  998MOL0     C34651   7.816   7.866   7.792  0.3952 -0.4323 -0.6833
  998MOL0     C34652   7.808   7.742   7.736 -0.9766  0.2527 -0.0800
  998MOL0     O34653   7.694   7.687   7.685  1.3048 -0.7236 -0.2763
  998MOL0     C34654   7.569   7.759   7.713  0.0046  0.3056  0.8135
  998MOL0     C34655   7.447   7.681   7.648 -0.0038 -0.2179  0.8307
  998MOL0     C34656   7.459   7.657   7.492  0.1024 -0.1851 -0.0418
  998MOL0     C34657   7.346   7.591   7.436 -0.6270  0.8360  0.1503
  998MOL0     C34658   7.334   7.454   7.487 -0.2657  0.3238 -1.0638
  998MOL0     C34659   7.327   7.356   7.562 -0.0284 -0.2553 -0.0827
  998MOL0     C34660   7.930   7.668   7.728 -0.2668 -0.0696  0.1999
  998MOL0     C34661   8.062   7.721   7.761  1.4722 -0.1011 -0.2114
  998MOL0     C34662   8.183   7.637   7.722 -0.2888  0.5627 -0.4099
  998MOL0     H34663   8.522   7.739   7.868  1.5672 -2.0843  1.7512
  998MOL0     H34664   8.743   7.791   7.974 -0.6002 -0.9926 -0.2455
  998MOL0     H34665   8.782   8.194   8.095 -0.2949 -0.7078 -0.5178
  998MOL0     H34666   8.724   8.161   8.262  2.3697 -0.9894  1.8726
  998MOL0     H34667   8.942   8.062   8.311  0.8938  1.4798  2.9122
  998MOL0     H34668   8.945   8.229   8.317 -1.1015 -0.9709  2.5404
  998MOL0     H34669   9.023   8.114   8.061 -1.4638  1.3768 -0.7328
  998MOL0     H34670   9.142   8.172   8.193 -0.0760  0.4206  0.3160
  998MOL0     H34671   8.949   8.343   8.020 -0.2809 -0.8902  0.0510
  998MOL0     H34672   9.039   8.395   8.160  0.0019  0.7376 -0.4677
  998MOL0     H34673   9.205   8.231   7.964  2.1856  0.9856 -3.9241
  998MOL0     H34674   9.127   8.372   7.893 -1.3360 -2.1862  0.0011
  998MOL0     H34675   9.238   8.503   8.088  3.4731  0.5850 -0.9901
  998MOL0     H34676   9.326   8.350   8.117 -0.0065  3.6701  3.0748
  998MOL0     H34677   9.343   8.479   7.845  1.4101  0.8923 -0.8860
  998MOL0     H34678   9.458   8.372   7.928  0.8833  2.1472 -1.4924
  998MOL0     H34679   9.533   8.622   7.917 -0.0202  1.1668  1.6908
  998MOL0     H34680   9.375   8.655   7.980 -2.9996 -2.1725  0.3809
  998MOL0     H34681   9.732   8.524   8.079  0.5285  0.0092  1.5794
  998MOL0     H34682   9.767   8.597   8.461  0.7151  1.6255 -0.4571
  998MOL0     H34683   9.808   8.447   8.376 -0.6727 -0.1371 -0.9615
  998MOL0     H34684   9.980   8.555   8.274  0.3992  0.2319 -0.8070
  998MOL0     H34685   9.870   8.670   8.195 -2.5662 -2.3187  0.1812
  998MOL0     H34686   9.984   8.686   8.477 -1.2050 -0.6449  0.5497
  998MOL0     H34687   9.894   8.811   8.398 -0.9806 -0.4144  0.9380
  998MOL0     H34688  10.076   8.809   8.211 -0.9316 -3.0213 -1.2072
  998MOL0     H34689  10.173   8.706   8.313  0.9775  0.4736 -1.3636
  998MOL0     H34690  10.160   9.131   8.417 -0.0860 -0.3937  0.5015
  998MOL0     H34691  10.368   9.265   8.370  0.7659 -0.5883  1.0957
  998MOL0     H34692  10.932   9.032   8.301  1.8134  0.9241  0.0673
  998MOL0     H34693  11.157   9.100   8.191  0.4313 -1.2030 -0.8010
  998MOL0     H34694  11.126   9.301   7.827 -1.1098  0.7539  0.2230
  998MOL0     H34695  11.162   9.448   7.920  1.3001  0.1701 -1.3208
  998MOL0     H34696  11.384   9.258   7.848  2.5673  1.3941 -0.4130
  998MOL0     H34697  11.329   9.365   7.716 -1.9036 -0.8067  0.4440
  998MOL0     H34698  11.377   9.565   7.853  1.5625  1.4556  1.6056
  998MOL0     H34699  11.437   9.451   7.985 -2.0199 -0.7430  0.9208
  998MOL0     H34700  11.536   9.476   7.703  0.3226  0.3026  0.3645
  998MOL0     H34701  11.622   9.384   7.825  1.4332 -0.0610 -2.6448
  998MOL0     H34702  11.681   9.558   7.947  2.8772 -1.0624 -1.5114
  998MOL0     H34703  11.561   9.660   7.885 -1.1810 -1.3456  0.0641
  998MOL0     H34704  11.816   9.573   7.712 -2.0938 -3.0573  1.5453
  998MOL0     H34705  11.690   9.692   7.662  1.0737 -1.2860 -0.4898
  998MOL0     H34706  11.904   9.803   7.717  0.3225 -0.5130 -0.3638
  998MOL0     H34707  11.917   9.731   7.871  1.6115  3.3351 -0.2257
  998MOL0     H34708  11.689   9.914   7.778  0.7259  0.6280 -1.8394
  998MOL0     H34709  11.722   9.871   7.949  0.3597  4.9023  0.7363
  998MOL0     H34710  10.945   9.382   7.948  1.8308 -2.3478 -2.2655
  998MOL0     H34711  10.732   9.321   8.073 -1.7282 -1.2159 -0.6840
  998MOL0     H34712  10.551   8.925   8.192 -0.2894 -0.9977  0.0368
  998MOL0     H34713  10.356   8.800   8.238  1.0717  0.8442 -3.6165
  998MOL0     H34714   8.545   8.151   8.138  1.4299  0.8021 -1.7774
  998MOL0     H34715   8.341   8.077   8.043  1.5128  1.8680  1.6688
  998MOL0     H34716   7.942   8.025   7.864  1.4412  0.2263 -0.7200
  998MOL0     H34717   7.726   7.925   7.808  0.0593 -1.4804  1.7360
  998MOL0     H34718   7.572   7.861   7.673 -3.2964  0.0635 -0.3499
  998MOL0     H34719   7.549   7.770   7.820 -1.6655  0.8215  0.4820
  998MOL0     H34720   7.356   7.737   7.671  0.6514  0.3066  2.3021
  998MOL0     H34721   7.421   7.589   7.702 -2.9338 -0.9350 -1.4925
  998MOL0     H34722   7.555   7.609   7.471  0.4573 -0.2048  1.5137
  998MOL0     H34723   7.466   7.756   7.445  2.8115 -2.3331 -4.9337
  998MOL0     H34724   7.252   7.646   7.446 -0.2565  1.9573 -2.0137
  998MOL0     H34725   7.363   7.595   7.328 -1.0438 -0.1356  0.0414
  998MOL0     H34726   7.343   7.266   7.618 -1.0041  0.8139  2.0512
  998MOL0     H34727   7.916   7.576   7.672  0.8667 -1.0116  1.4115
  998MOL0     H34728   8.260   7.709   7.694  1.4852 -0.9118  0.4818
  998MOL0     H34729   8.217   7.565   7.797 -3.1865 -1.3018 -0.6839
  998MOL0     H34730   8.163   7.573   7.635 -0.4791  1.2418 -0.8681
  999MOL0     O34731   9.694   2.361   8.475  0.3522 -0.4490  0.3474
  999MOL0     C34732   9.633   2.451   8.531 -0.8505  0.0267  0.9029
  999MOL0     O34733   9.666   2.585   8.522 -0.0737 -0.7596  0.1019
  999MOL0     C34734   9.782   2.619   8.463 -0.9176 -0.9526 -0.5287
  999MOL0     C34735   9.790   2.753   8.430 -0.6399  0.1187  0.2959
  999MOL0     C34736   9.905   2.798   8.379  0.7478 -0.2931  0.3370
  999MOL0     C34737  10.015   2.715   8.357 -0.7535  0.1749 -0.4617
  999MOL0     O34738  10.119   2.763   8.283 -0.5531  0.2042  0.3917
  999MOL0     C34739  10.127   2.700   8.155 -0.1121  0.0125  0.1551
  999MOL0     C34740  10.246   2.759   8.076 -0.3127 -0.6277  0.6394
  999MOL0     C34741  10.293   2.683   7.947  0.5162 -0.2356  0.7402
  999MOL0     C34742  10.441   2.723   7.909 -0.2094  0.0346 -0.7619
  999MOL0     C34743  10.490   2.675   7.767 -0.6763 -0.2862 -0.6068
  999MOL0     C34744  10.617   2.742   7.714  0.1193  0.0358 -0.4771
  999MOL0     C34745  10.755   2.690   7.772 -0.6325  0.1792 -0.5548
  999MOL0     C34746  10.869   2.771   7.697 -0.1493  0.9995  0.2048
  999MOL0     N34747  10.907   2.703   7.575  0.4950  0.7751  0.4445
  999MOL0     C34748  10.931   2.771   7.460 -0.1126  0.5202  0.3986
  999MOL0     C34749  10.990   2.686   7.375  0.1628  0.2509  0.6711
  999MOL0     C34750  11.037   2.717   7.229 -0.4956  0.3294 -0.2881
  999MOL0     C34751  11.143   2.826   7.228  0.4530  0.3885  0.5413
  999MOL0     C34752  11.195   2.823   7.088 -0.2984  0.6035 -0.4955
  999MOL0     C34753  11.300   2.925   7.075 -0.5924 -0.0643  0.4371
  999MOL0     O34754  11.340   2.915   6.939  0.4064 -0.5276 -0.0597
  999MOL0     C34755  11.465   2.872   6.904  1.0531 -0.2610 -0.2229
  999MOL0     C34756  11.588   2.873   6.979 -0.0406  0.4988  0.1024
  999MOL0     C34757  11.708   2.827   6.913  0.1590  0.3283 -0.3472
  999MOL0     C34758  11.704   2.798   6.772 -0.0385 -0.6847 -0.3783
  999MOL0     C34759  11.833   2.765   6.700  0.4486 -0.3022 -0.0869
  999MOL0     O34760  11.940   2.836   6.735 -0.4977  0.0633  0.2006
  999MOL0     C34761  12.048   2.864   6.657  0.0431  0.5698  0.2358
  999MOL0     C34762  12.179   2.858   6.710 -0.8914  0.3070  0.2511
  999MOL0     C34763  12.292   2.884   6.632 -0.1571  0.3304 -0.1232
  999MOL0     C34764  12.288   2.905   6.495 -0.6112  1.4337  0.4463
  999MOL0     O34765  12.395   2.934   6.410  1.0426 -0.5027 -0.1166
  999MOL0     C34766  12.532   2.953   6.464  0.0052 -0.0892  0.8083
  999MOL0     C34767  12.552   3.097   6.519 -0.0221 -0.0320 -0.1162
  999MOL0     C34768  12.693   3.113   6.579 -0.9949 -0.1377 -0.0245
  999MOL0     C34769  12.796   3.114   6.464  0.0131  0.4385  0.8449
  999MOL0     C34770  12.923   3.179   6.513 -0.8441 -0.2607  0.6658
  999MOL0     C34771  13.021   3.237   6.410  0.5925  0.5218  0.0670
  999MOL0     C34772  13.065   3.129   6.316 -0.0973  0.3737 -0.4675
  999MOL0     C34773  13.194   3.154   6.232 -1.1755 -0.3431  0.3908
  999MOL0    Cl34774  13.323   3.193   6.345  0.1659  0.1343  0.1442
  999MOL0     C34775  12.159   2.912   6.437 -0.5132 -0.7397  0.0293
  999MOL0     C34776  12.045   2.886   6.512  0.3570 -0.0727  0.3522
  999MOL0     O34777  11.825   2.686   6.607  0.5364  0.6401  0.7007
  999MOL0     C34778  11.585   2.797   6.704  0.4412 -0.1967  0.0735
  999MOL0     C34779  11.470   2.832   6.771 -0.4336 -0.2762  0.5939
  999MOL0     N34780  11.000   2.565   7.440  0.4040  0.2587  0.3587
  999MOL0     N34781  10.958   2.584   7.558 -0.4590  0.1591  0.2143
  999MOL0     C34782  10.018   2.585   8.409  0.0931  0.1954  0.1570
  999MOL0     C34783   9.903   2.541   8.463 -0.3184  0.3897  0.8369
  999MOL0     C34784   9.514   2.400   8.606 -0.3153 -0.5487  1.0942
  999MOL0     C34785   9.396   2.451   8.548 -0.7874 -0.0087 -0.7651
  999MOL0     C34786   9.277   2.408   8.601 -0.2895  0.0837  0.4297
  999MOL0     C34787   9.275   2.320   8.707 -0.6543  0.4469 -0.7968
  999MOL0     O34788   9.168   2.270   8.775 -0.3068  0.3294 -0.1884
  999MOL0     C34789   9.037   2.313   8.726  0.1726  1.1617 -0.3011
  999MOL0     C34790   8.928   2.246   8.808 -0.0450  0.1421 -0.5792
  999MOL0     C34791   8.797   2.298   8.759 -0.1185 -0.9118  0.5082
  999MOL0     C34792   8.694   2.193   8.790  0.2773 -0.0737 -0.0711
  999MOL0     C34793   8.673   2.179   8.936  0.0888  0.2585 -0.4329
  999MOL0     C34794   8.665   2.170   9.056  0.6712  0.7497 -0.1754
  999MOL0     C34795   9.396   2.287   8.774  0.1618  0.1117  0.2402
  999MOL0     C34796   9.518   2.322   8.719 -0.2168  0.4003  0.0535
  999MOL0     C34797   9.636   2.283   8.791 -1.1455 -0.5343  0.5256
  999MOL0     H34798   9.707   2.823   8.436 -1.3042 -0.6136 -0.0545
  999MOL0     H34799   9.909   2.903   8.352 -0.2967 -0.6169 -1.1947
  999MOL0     H34800  10.153   2.596   8.180 -2.2559 -1.1490 -2.0859
  999MOL0     H34801  10.030   2.705   8.105  0.4243 -0.2743 -0.9455
  999MOL0     H34802  10.334   2.768   8.140  1.2262  1.4214 -1.5761
  999MOL0     H34803  10.234   2.864   8.047 -2.2650 -0.5369  1.6202
  999MOL0     H34804  10.229   2.709   7.862 -1.4522 -0.8796  1.9599
  999MOL0     H34805  10.296   2.574   7.958  3.2763 -0.6681 -2.4758
  999MOL0     H34806  10.440   2.833   7.909  3.8462  0.2425 -2.8789
  999MOL0     H34807  10.514   2.677   7.975 -0.7124 -0.0144 -0.2263
  999MOL0     H34808  10.508   2.567   7.776  1.4315  0.1645  1.6222
  999MOL0     H34809  10.416   2.705   7.692 -0.8512 -2.5700 -1.4478
  999MOL0     H34810  10.622   2.730   7.605  3.1719  0.0318 -0.4031
  999MOL0     H34811  10.602   2.851   7.719 -2.4067 -0.2853  0.4219
  999MOL0     H34812  10.772   2.582   7.761 -0.7908  0.2942 -2.2219
  999MOL0     H34813  10.761   2.708   7.879  2.5732  1.5906 -0.8684
  999MOL0     H34814  10.831   2.870   7.671 -5.1259 -0.1345  2.0080
  999MOL0     H34815  10.958   2.785   7.759 -0.8964  1.3893  1.2035
  999MOL0     H34816  10.911   2.875   7.435 -0.0861  1.0478  2.3810
  999MOL0     H34817  11.081   2.621   7.200 -0.6509  0.3017 -0.4303
  999MOL0     H34818  10.958   2.738   7.156 -0.2833 -2.2285 -1.3553
  999MOL0     H34819  11.103   2.923   7.259 -0.0737  0.8137 -1.3586
  999MOL0     H34820  11.229   2.793   7.287  0.9323 -1.6181 -1.1540
  999MOL0     H34821  11.117   2.840   7.013  1.2344  5.4765 -1.3023
  999MOL0     H34822  11.245   2.729   7.064 -0.4250  0.9103 -2.0694
  999MOL0     H34823  11.388   2.921   7.140  0.6906 -0.2948 -1.2437
  999MOL0     H34824  11.253   3.024   7.086 -1.4983 -0.2384 -1.4756
  999MOL0     H34825  11.606   2.903   7.082  2.7928 -2.7307  0.7691
  999MOL0     H34826  11.807   2.836   6.956  1.0504 -1.9202 -1.7015
  999MOL0     H34827  12.187   2.842   6.817  0.2227 -1.2630 -0.0208
  999MOL0     H34828  12.385   2.887   6.687 -1.7106 -1.1486  2.8101
  999MOL0     H34829  12.548   2.872   6.535 -2.1330 -0.2661  1.1588
  999MOL0     H34830  12.608   2.960   6.387 -0.0183  3.8002  0.9389
  999MOL0     H34831  12.545   3.174   6.442  1.9994 -0.6904 -1.0338
  999MOL0     H34832  12.486   3.118   6.603 -0.0931  1.2297 -0.4588
  999MOL0     H34833  12.701   3.211   6.628 -0.7156 -0.1051 -0.1318
  999MOL0     H34834  12.718   3.027   6.642  0.1900 -0.9990 -1.6105
  999MOL0     H34835  12.763   3.183   6.386 -3.0715 -1.2536  0.4718
  999MOL0     H34836  12.812   3.014   6.421 -1.3430  0.3789  0.4212
  999MOL0     H34837  12.982   3.113   6.577  0.4638  0.8442  0.6306
  999MOL0     H34838  12.899   3.275   6.559  0.5675  1.3041 -1.6646
  999MOL0     H34839  12.983   3.311   6.339  3.0956 -1.4414 -3.5978
  999MOL0     H34840  13.102   3.290   6.460  0.6670  0.2796  0.2037
  999MOL0     H34841  12.982   3.106   6.248 -1.1899  0.6380  0.7235
  999MOL0     H34842  13.083   3.044   6.382 -1.2531  1.9339  2.0235
  999MOL0     H34843  13.207   3.060   6.178  0.3296 -0.4580  0.8964
  999MOL0     H34844  13.178   3.236   6.161  2.2098  1.3763  1.3714
  999MOL0     H34845  12.157   2.949   6.335 -1.2690 -0.5681  0.1020
  999MOL0     H34846  11.948   2.880   6.463  2.2474  0.1785 -3.9571
  999MOL0     H34847  11.580   2.758   6.602 -2.1777 -2.3091  0.8987
  999MOL0     H34848  11.376   2.849   6.721  0.4305  1.5211 -0.5117
  999MOL0     H34849  10.105   2.522   8.396 -0.1514 -0.0346 -0.4304
  999MOL0     H34850   9.905   2.438   8.495  0.9691  0.4390  0.9558
  999MOL0     H34851   9.404   2.525   8.469  1.1445 -0.1114 -0.7277
  999MOL0     H34852   9.188   2.455   8.559 -0.9113 -1.5013 -0.1039
  999MOL0     H34853   9.019   2.285   8.622  0.4958  0.9618 -0.3047
  999MOL0     H34854   9.022   2.420   8.741 -0.1838  1.0559  0.1095
  999MOL0     H34855   8.931   2.278   8.912 -0.2711  1.9331 -1.0897
  999MOL0     H34856   8.920   2.137   8.802 -0.8761  0.0940  1.1132
  999MOL0     H34857   8.792   2.313   8.650 -1.3639  1.8665  0.8828
  999MOL0     H34858   8.771   2.394   8.805 -1.7277 -1.7430  1.4410
  999MOL0     H34859   8.602   2.221   8.738  1.5758  2.5723 -1.1554
  999MOL0     H34860   8.724   2.096   8.749  0.0306  0.4468 -1.5696
  999MOL0     H34861   8.665   2.176   9.163 -1.3641 -0.1108 -0.0676
  999MOL0     H34862   9.400   2.230   8.867 -1.1133 -1.4969 -0.6354
  999MOL0     H34863   9.733   2.318   8.754 -1.5233  5.3045  3.7798
  999MOL0     H34864   9.628   2.322   8.893  2.3744  0.3155  0.5891
  999MOL0     H34865   9.628   2.174   8.787 -3.3854 -0.4116 -3.1274
 1000MOL0     O34866   1.028   8.317   6.405  0.9279 -0.1315  0.3888
 1000MOL0     C34867   0.920   8.365   6.370 -0.2436 -1.1538  0.4733
 1000MOL0     O34868   0.907   8.503   6.340 -0.0418 -0.2855  0.0067
 1000MOL0     C34869   1.023   8.578   6.324  0.4251  0.0874  0.4949
 1000MOL0     C34870   1.079   8.588   6.203 -0.4553  0.4773 -0.4712
 1000MOL0     C34871   1.205   8.648   6.193 -0.4729  0.0581  1.1130
 1000MOL0     C34872   1.276   8.696   6.305 -0.0196 -0.4459 -0.2422
 1000MOL0     O34873   1.388   8.777   6.298 -0.5411  0.1418  0.0900
 1000MOL0     C34874   1.488   8.743   6.206 -0.8009  0.2831 -0.3747
 1000MOL0     C34875   1.583   8.631   6.247 -0.2534  0.7468 -0.1042
 1000MOL0     C34876   1.697   8.655   6.349  0.7658 -0.4685 -0.3110
 1000MOL0     C34877   1.759   8.522   6.387 -0.1470  0.2670  0.3578
 1000MOL0     C34878   1.890   8.525   6.462 -0.0618  0.0489  0.6534
 1000MOL0     C34879   2.010   8.564   6.374 -1.0183 -0.6401 -0.7720
 1000MOL0     C34880   2.143   8.562   6.457 -0.3836  0.3628  0.2264
 1000MOL0     C34881   2.158   8.667   6.564 -0.5830  0.3248 -0.4869
 1000MOL0     N34882   2.269   8.649   6.657 -0.2565 -0.6182  0.3859
 1000MOL0     C34883   2.402   8.693   6.635  0.2496  0.3814 -0.6024
 1000MOL0     C34884   2.461   8.665   6.753 -0.4167  0.7349  0.7164
 1000MOL0     C34885   2.605   8.720   6.779 -0.2841  0.2932  0.0824
 1000MOL0     C34886   2.604   8.825   6.888 -0.2229  0.1674  0.4099
 1000MOL0     C34887   2.740   8.824   6.971  0.4714  0.3199 -0.2666
 1000MOL0     C34888   2.852   8.889   6.890  0.7582 -0.0569 -0.1908
 1000MOL0     O34889   2.971   8.893   6.962  0.3896 -0.0122  0.0264
 1000MOL0     C34890   3.081   8.952   6.902 -0.5064  0.7387 -0.0062
 1000MOL0     C34891   3.203   8.937   6.974 -0.6829  0.4414 -0.0502
 1000MOL0     C34892   3.321   8.999   6.939  0.4161  0.5444  0.3858
 1000MOL0     C34893   3.316   9.070   6.815  0.1233  0.1142 -0.4584
 1000MOL0     C34894   3.449   9.123   6.761 -0.5961  0.1069  0.0148
 1000MOL0     O34895   3.557   9.108   6.836 -0.8284  0.5626 -0.1249
 1000MOL0     C34896   3.679   9.162   6.805 -0.2974  0.4020  0.3843
 1000MOL0     C34897   3.704   9.288   6.752 -0.1133 -0.1065 -0.4745
 1000MOL0     C34898   3.836   9.320   6.719  0.5982 -0.0126 -0.4403
 1000MOL0     C34899   3.945   9.232   6.759  0.7034  0.3734 -0.9410
 1000MOL0     O34900   4.077   9.274   6.733 -0.3106  0.2060 -0.1383
 1000MOL0     C34901   4.111   9.309   6.598  0.4657 -0.6245  0.1873
 1000MOL0     C34902   4.263   9.285   6.558 -0.6950  1.1711 -0.1437
 1000MOL0     C34903   4.350   9.407   6.605 -0.1513  0.6194  0.4727
 1000MOL0     C34904   4.310   9.454   6.752 -0.1679  0.1138  0.2714
 1000MOL0     C34905   4.399   9.557   6.811 -0.7467  0.3259 -0.2416
 1000MOL0     C34906   4.381   9.576   6.963  0.0180 -0.5937 -0.6197
 1000MOL0     C34907   4.376   9.445   7.046 -0.1268 -0.1781 -0.2559
 1000MOL0     C34908   4.425   9.464   7.191  0.7529 -0.0932 -0.6165
 1000MOL0    Cl34909   4.306   9.576   7.260  0.4458  0.0919 -0.2549
 1000MOL0     C34910   3.916   9.109   6.827 -0.5613  0.2019  0.8823
 1000MOL0     C34911   3.783   9.073   6.847 -0.0674 -0.2537 -0.5516
 1000MOL0     O34912   3.444   9.179   6.656  0.2589  0.1732 -0.0741
 1000MOL0     C34913   3.199   9.098   6.746 -0.7963  0.1925  0.3707
 1000MOL0     C34914   3.080   9.044   6.795  0.3955  0.0841 -0.0236
 1000MOL0     N34915   2.382   8.599   6.844  0.7978  0.1766  0.4168
 1000MOL0     N34916   2.264   8.593   6.780 -0.1902  0.3908  0.3217
 1000MOL0     C34917   1.207   8.705   6.425  0.0931  0.3158  0.0608
 1000MOL0     C34918   1.081   8.638   6.432 -0.2177 -0.1761  0.0376
 1000MOL0     C34919   0.800   8.282   6.359  0.0402 -0.5251 -0.0221
 1000MOL0     C34920   0.813   8.140   6.400  0.1864 -0.2144 -0.5824
 1000MOL0     C34921   0.700   8.051   6.396  0.3404 -0.1655 -0.1138
 1000MOL0     C34922   0.572   8.095   6.358  0.2214 -0.9133 -0.1555
 1000MOL0     O34923   0.459   8.012   6.376  0.0258  0.2590 -0.1756
 1000MOL0     C34924   0.332   8.058   6.333  0.5799  0.4656 -1.0586
 1000MOL0     C34925   0.213   7.976   6.390  0.0060 -0.3025 -0.1682
 1000MOL0     C34926   0.245   7.828   6.385 -0.7290  0.4648  0.5994
 1000MOL0     C34927   0.133   7.740   6.439  1.0152 -0.7833  0.3716
 1000MOL0     C34928   0.057   7.660   6.339 -0.3589 -0.3294 -0.0524
 1000MOL0     C34929   0.004   7.599   6.246  0.7979 -0.1876  0.1633
 1000MOL0     C34930   0.562   8.228   6.307 -0.3746  0.0427 -0.6670
 1000MOL0     C34931   0.672   8.324   6.310  0.5484 -0.5235 -0.0753
 1000MOL0     C34932   0.642   8.458   6.254  0.0161 -0.5147 -0.0831
 1000MOL0     H34933   1.026   8.555   6.114  0.9389 -0.5783 -0.9440
 1000MOL0     H34934   1.257   8.628   6.100  0.4620 -0.8045  1.7925
 1000MOL0     H34935   1.446   8.727   6.107  0.9549 -1.4091 -0.8983
 1000MOL0     H34936   1.548   8.835   6.206  0.6432 -0.6203 -0.1225
 1000MOL0     H34937   1.622   8.612   6.146 -2.1499  4.3137 -1.7273
 1000MOL0     H34938   1.526   8.546   6.286 -1.2903  1.6265  0.3670
 1000MOL0     H34939   1.659   8.696   6.443 -0.4987  2.5648 -2.0062
 1000MOL0     H34940   1.775   8.723   6.314  1.5262 -0.8921  0.5166
 1000MOL0     H34941   1.690   8.465   6.450 -0.3949  0.8548  0.6278
 1000MOL0     H34942   1.772   8.461   6.298  0.2484 -1.0702  1.3023
 1000MOL0     H34943   1.858   8.602   6.533 -1.2154 -0.7624  1.0502
 1000MOL0     H34944   1.900   8.434   6.521 -3.2198 -0.4820  0.5567
 1000MOL0     H34945   2.016   8.493   6.290  0.3115 -1.3983 -0.0674
 1000MOL0     H34946   1.998   8.667   6.338 -0.4345 -0.1012  0.5209
 1000MOL0     H34947   2.230   8.573   6.392  0.8200 -2.3900  1.1888
 1000MOL0     H34948   2.149   8.465   6.508 -0.6810 -0.0504 -0.5107
 1000MOL0     H34949   2.168   8.759   6.506 -2.3458  1.3730  0.7469
 1000MOL0     H34950   2.064   8.666   6.622  1.6288  2.7586  3.6496
 1000MOL0     H34951   2.449   8.744   6.552  1.0321 -0.3087 -0.5938
 1000MOL0     H34952   2.658   8.627   6.803 -1.1351 -0.0674  0.6277
 1000MOL0     H34953   2.655   8.755   6.689  2.8404 -2.2905  0.6187
 1000MOL0     H34954   2.589   8.919   6.834 -2.3171  0.8846  2.1214
 1000MOL0     H34955   2.526   8.808   6.963  2.2449 -1.2731  2.8825
 1000MOL0     H34956   2.771   8.725   7.004 -0.8670  0.8871  3.1097
 1000MOL0     H34957   2.737   8.890   7.058  2.3636 -0.6052  0.5683
 1000MOL0     H34958   2.815   8.992   6.881 -1.5849 -0.5432  2.4178
 1000MOL0     H34959   2.860   8.841   6.792 -3.4135 -2.8626  0.6142
 1000MOL0     H34960   3.208   8.880   7.066  4.8932  0.6835  0.1398
 1000MOL0     H34961   3.417   8.985   6.987  0.6423  0.6674 -0.0229
 1000MOL0     H34962   3.618   9.353   6.740  0.7974  1.5966  1.7138
 1000MOL0     H34963   3.846   9.414   6.666 -0.5077 -0.0075 -0.6563
 1000MOL0     H34964   4.043   9.256   6.531  2.1724 -1.2727 -1.1138
 1000MOL0     H34965   4.086   9.413   6.573  0.3104 -0.4482  1.0197
 1000MOL0     H34966   4.296   9.195   6.610  1.9145  2.7388  1.1658
 1000MOL0     H34967   4.275   9.285   6.450  0.1909  1.2754 -0.0507
 1000MOL0     H34968   4.456   9.383   6.611 -0.3057 -0.4830 -0.7902
 1000MOL0     H34969   4.330   9.488   6.535 -1.0139 -2.0876 -2.6561
 1000MOL0     H34970   4.322   9.359   6.805 -0.5681 -0.6722 -1.0154
 1000MOL0     H34971   4.209   9.496   6.750  0.3242  1.3671 -2.2456
 1000MOL0     H34972   4.393   9.655   6.764  2.0607  0.9459  0.5037
 1000MOL0     H34973   4.497   9.522   6.777 -1.1837  0.5587 -1.7850
 1000MOL0     H34974   4.464   9.636   7.002 -1.6121 -0.2075  2.6476
 1000MOL0     H34975   4.286   9.627   6.980 -0.1325 -1.2615  0.6630
 1000MOL0     H34976   4.443   9.375   6.995  0.7616  0.5859 -0.1657
 1000MOL0     H34977   4.272   9.413   7.044 -0.5599  1.2079 -1.9005
 1000MOL0     H34978   4.417   9.368   7.244 -0.6646 -1.0226 -2.3721
 1000MOL0     H34979   4.532   9.482   7.205  1.4057 -4.0565  1.1005
 1000MOL0     H34980   3.997   9.040   6.845  1.3226  1.6598 -1.3707
 1000MOL0     H34981   3.764   8.978   6.896 -0.5967 -0.0610 -0.3722
 1000MOL0     H34982   3.196   9.166   6.662  2.1706  0.5722  0.4722
 1000MOL0     H34983   2.984   9.065   6.748 -2.1051  0.5588  4.6360
 1000MOL0     H34984   1.258   8.749   6.510  3.0453 -2.9665  0.2536
 1000MOL0     H34985   1.030   8.624   6.527 -0.1826  3.4003  0.7578
 1000MOL0     H34986   0.908   8.099   6.432  0.4432  0.0973 -0.9303
 1000MOL0     H34987   0.706   7.950   6.436  0.2604  0.4977  1.6794
 1000MOL0     H34988   0.335   8.053   6.224  4.2709  5.3234 -1.4872
 1000MOL0     H34989   0.302   8.162   6.348 -0.4512 -0.0036  0.4738
 1000MOL0     H34990   0.128   7.997   6.325  0.3957 -1.2575 -1.0170
 1000MOL0     H34991   0.190   8.010   6.491 -2.9591 -1.4235 -0.3749
 1000MOL0     H34992   0.333   7.809   6.447  0.9906  0.2952 -1.7662
 1000MOL0     H34993   0.278   7.813   6.282  1.2206  0.4661  1.1929
 1000MOL0     H34994   0.174   7.671   6.513 -2.0013 -3.1593  0.0325
 1000MOL0     H34995   0.057   7.803   6.485 -0.1972 -1.7868 -0.2001
 1000MOL0     H34996  -0.048   7.545   6.170 -0.0020 -0.0985  0.6333
 1000MOL0     H34997   0.468   8.271   6.274 -0.9362 -0.0861  0.6808
 1000MOL0     H34998   0.711   8.475   6.171  0.3438 -2.1290 -0.1696
 1000MOL0     H34999   0.542   8.458   6.210 -0.7841 -0.2078  1.6626
 1000MOL0     H35000   0.652   8.535   6.331 -0.8777 -0.5243  0.0524
 1001MOL0     O35001   6.145   9.036   4.003 -1.1970 -0.3542  0.2406
 1001MOL0     C35002   6.146   8.932   3.943  0.8084  1.0996  0.1049
 1001MOL0     O35003   6.249   8.871   3.887 -0.7726  0.2112  0.0526
 1001MOL0     C35004   6.369   8.931   3.846  0.1405 -0.2795  0.1939
 1001MOL0     C35005   6.407   9.070   3.875  0.7751  0.3676 -0.1425
 1001MOL0     C35006   6.536   9.109   3.839  0.7410 -0.5209  0.6757
 1001MOL0     C35007   6.624   9.023   3.771 -0.0195  0.6733  0.1872
 1001MOL0     O35008   6.744   9.049   3.713 -0.1539  0.1465  0.4363
 1001MOL0     C35009   6.783   9.190   3.716 -0.3665  0.3477  0.6114
 1001MOL0     C35010   6.913   9.198   3.636 -0.0094 -0.3268 -1.0860
 1001MOL0     C35011   7.023   9.094   3.666  0.1876 -0.1065 -0.3336
 1001MOL0     C35012   7.113   9.067   3.540 -0.3648 -0.3172  0.0368
 1001MOL0     C35013   7.242   9.001   3.577  0.2478 -0.6944  0.0175
 1001MOL0     C35014   7.353   9.090   3.638  0.9848  0.2710  0.0878
 1001MOL0     C35015   7.490   9.029   3.622  0.1192  0.1011 -0.1625
 1001MOL0     C35016   7.517   8.913   3.723 -0.2381 -0.0146  0.6208
 1001MOL0     N35017   7.659   8.903   3.761 -0.5042 -0.4524  0.0718
 1001MOL0     C35018   7.756   8.993   3.803  0.0434 -0.1926  0.0133
 1001MOL0     C35019   7.877   8.935   3.817  0.2069 -0.4982 -0.4400
 1001MOL0     C35020   8.011   8.991   3.875 -0.2082 -0.1372  0.0570
 1001MOL0     C35021   8.141   8.915   3.841  0.1105 -0.9739  0.6281
 1001MOL0     C35022   8.188   8.891   3.696 -0.3528 -0.3516  0.3868
 1001MOL0     C35023   8.332   8.831   3.708  0.1537  0.2184 -0.2491
 1001MOL0     O35024   8.389   8.840   3.568 -0.2832  0.0636 -0.6888
 1001MOL0     C35025   8.521   8.864   3.567  0.1374  0.0523  0.6990
 1001MOL0     C35026   8.566   8.980   3.508 -0.4525 -0.0744  0.3299
 1001MOL0     C35027   8.704   9.010   3.492 -0.3636  1.2584  0.1709
 1001MOL0     C35028   8.797   8.918   3.545  0.6402  0.3387 -0.6606
 1001MOL0     C35029   8.939   8.944   3.537  0.4461  0.4123 -0.0877
 1001MOL0     O35030   8.981   9.020   3.434 -0.0771  0.3850  0.3754
 1001MOL0     C35031   9.114   9.043   3.414  0.4281 -1.0461 -0.6384
 1001MOL0     C35032   9.168   9.009   3.293  0.0448 -0.4782 -0.0441
 1001MOL0     C35033   9.303   9.057   3.257 -0.0655  0.9252 -1.3466
 1001MOL0     C35034   9.378   9.118   3.353 -0.2247 -0.6391  0.5050
 1001MOL0     O35035   9.497   9.175   3.328  0.1906  0.3702  0.4375
 1001MOL0     C35036   9.580   9.108   3.226 -0.6625 -0.4141  0.2000
 1001MOL0     C35037   9.713   9.163   3.274 -0.1239  0.3632  0.7098
 1001MOL0     C35038   9.825   9.058   3.220  0.6382  0.1382  0.1526
 1001MOL0     C35039   9.973   9.084   3.266  1.1329  0.3461  0.0999
 1001MOL0     C35040  10.074   8.970   3.240  0.3686  0.1938 -0.1202
 1001MOL0     C35041  10.203   8.997   3.308 -1.0536 -0.3762  0.4513
 1001MOL0     C35042  10.302   8.889   3.277  0.4566  0.4945  0.2007
 1001MOL0     C35043  10.429   8.922   3.338 -0.6922 -0.0407 -0.0046
 1001MOL0    Cl35044  10.503   9.055   3.246  0.0326 -0.0774  0.7249
 1001MOL0     C35045   9.330   9.147   3.478  0.3092  0.1218  0.2431
 1001MOL0     C35046   9.192   9.109   3.509 -0.3518  0.6744  0.4547
 1001MOL0     O35047   9.018   8.882   3.606 -0.5817  0.1991 -0.4219
 1001MOL0     C35048   8.751   8.796   3.603 -0.5012 -0.4475 -0.0667
 1001MOL0     C35049   8.620   8.769   3.598  0.6705 -0.5041  0.4650
 1001MOL0     N35050   7.863   8.807   3.774 -0.6541  0.0557 -0.1200
 1001MOL0     N35051   7.736   8.790   3.741 -0.0258  0.1677  0.1951
 1001MOL0     C35052   6.589   8.887   3.761 -0.7698 -0.0655  0.0116
 1001MOL0     C35053   6.463   8.840   3.798 -0.4227 -0.2428 -0.4554
 1001MOL0     C35054   6.025   8.846   3.957  0.0141  0.9878 -0.7083
 1001MOL0     C35055   6.039   8.708   3.938  0.2919 -0.9133  1.2186
 1001MOL0     C35056   5.928   8.628   3.949  0.4196 -0.0760  0.9148
 1001MOL0     C35057   5.804   8.676   3.991  0.2859  0.1710 -0.6598
 1001MOL0     O35058   5.715   8.570   4.014  0.4341  0.1492  0.6576
 1001MOL0     C35059   5.579   8.599   4.055 -0.5052 -0.6149  0.4451
 1001MOL0     C35060   5.479   8.485   4.055  0.1942  0.2330 -0.9087
 1001MOL0     C35061   5.328   8.529   4.053 -0.7126 -0.1923 -0.5782
 1001MOL0     C35062   5.248   8.397   4.038  0.3391 -0.2655  0.1198
 1001MOL0     C35063   5.110   8.424   4.007  0.5198 -0.0754 -0.6785
 1001MOL0     C35064   4.991   8.443   3.989 -0.3776  0.0669 -0.1009
 1001MOL0     C35065   5.786   8.816   4.006  0.5299  0.2229  0.1456
 1001MOL0     C35066   5.895   8.899   3.994  0.0060 -0.6058 -0.0576
 1001MOL0     C35067   5.866   9.043   4.002  0.2188 -0.2255 -0.3851
 1001MOL0     H35068   6.330   9.135   3.915 -0.0195 -0.9212  0.4818
 1001MOL0     H35069   6.566   9.213   3.842 -2.0797  0.3728  3.4941
 1001MOL0     H35070   6.705   9.246   3.663  0.4663 -1.0405 -2.3339
 1001MOL0     H35071   6.798   9.225   3.818 -0.2425 -0.2690  0.8080
 1001MOL0     H35072   6.948   9.301   3.644  0.5790 -0.5504 -0.7294
 1001MOL0     H35073   6.882   9.190   3.531  0.4809  2.6220 -1.5428
 1001MOL0     H35074   6.978   9.000   3.699  0.7175 -0.5727 -0.9237
 1001MOL0     H35075   7.081   9.132   3.750  0.5628 -0.4432 -0.4432
 1001MOL0     H35076   7.058   9.008   3.466 -0.8863 -0.9385  0.9116
 1001MOL0     H35077   7.146   9.163   3.499  0.6604 -0.0347  1.4568
 1001MOL0     H35078   7.221   8.918   3.645 -5.3477  1.1413  1.0463
 1001MOL0     H35079   7.279   8.959   3.483 -0.4503  0.4004 -0.7665
 1001MOL0     H35080   7.346   9.189   3.593 -2.3729  0.5237  0.9135
 1001MOL0     H35081   7.336   9.086   3.746 -1.3209  1.6596 -0.1439
 1001MOL0     H35082   7.558   9.114   3.633 -1.0175  1.4666 -2.7056
 1001MOL0     H35083   7.516   9.002   3.519 -0.3540  3.9951 -1.4639
 1001MOL0     H35084   7.463   8.936   3.815 -1.0364  1.8108 -0.2478
 1001MOL0     H35085   7.492   8.815   3.683  1.7030  1.0674 -3.8316
 1001MOL0     H35086   7.740   9.100   3.815 -0.3854 -0.1241 -1.0654
 1001MOL0     H35087   8.027   9.094   3.840  0.9064 -1.3229 -3.2964
 1001MOL0     H35088   8.002   8.987   3.984  0.2705 -3.8842  0.0637
 1001MOL0     H35089   8.225   8.970   3.886 -0.0775  1.3233 -1.6187
 1001MOL0     H35090   8.133   8.816   3.888 -0.0368 -1.9637 -1.3593
 1001MOL0     H35091   8.185   8.985   3.642  2.8016 -1.2989 -1.7188
 1001MOL0     H35092   8.139   8.816   3.633  0.4613  0.0330 -0.7241
 1001MOL0     H35093   8.325   8.726   3.739 -0.6175  0.3964  0.2089
 1001MOL0     H35094   8.398   8.885   3.777 -2.0280  0.5202  1.7433
 1001MOL0     H35095   8.490   9.053   3.482 -0.7609 -0.5193 -0.0336
 1001MOL0     H35096   8.729   9.101   3.438 -0.7562 -0.2498 -2.7732
 1001MOL0     H35097   9.101   8.987   3.211  2.3023  1.6591 -2.6887
 1001MOL0     H35098   9.342   9.044   3.156 -1.8257  3.1323 -2.4158
 1001MOL0     H35099   9.567   9.000   3.239 -0.5071 -0.3566  0.8758
 1001MOL0     H35100   9.562   9.147   3.126  2.7542  1.0945  0.0325
 1001MOL0     H35101   9.729   9.261   3.229 -0.0970 -0.2971 -0.7914
 1001MOL0     H35102   9.715   9.176   3.383 -2.3864  1.6545  0.6619
 1001MOL0     H35103   9.801   8.953   3.237  0.2876 -0.1810 -2.0218
 1001MOL0     H35104   9.808   9.064   3.112 -3.0448 -3.5969  0.2771
 1001MOL0     H35105   9.971   9.106   3.373  0.4147  2.0370 -0.2245
 1001MOL0     H35106  10.014   9.178   3.228  1.1824  0.7518  1.1199
 1001MOL0     H35107  10.074   8.967   3.131 -1.5690  1.6216 -0.2228
 1001MOL0     H35108  10.040   8.869   3.264  0.1217  0.6526  1.5962
 1001MOL0     H35109  10.234   9.089   3.258 -1.2639 -2.0190 -2.9910
 1001MOL0     H35110  10.186   8.997   3.416  0.9650 -1.2461  0.7987
 1001MOL0     H35111  10.315   8.870   3.170 -0.3997  2.9562 -0.4071
 1001MOL0     H35112  10.270   8.792   3.315  0.2605  0.4991  0.0474
 1001MOL0     H35113  10.429   8.952   3.443 -1.8179 -1.1135  0.3282
 1001MOL0     H35114  10.492   8.832   3.338  1.4681  1.3252 -2.5360
 1001MOL0     H35115   9.391   9.203   3.549  0.5351 -0.9217  0.8913
 1001MOL0     H35116   9.163   9.141   3.609  2.1083  2.0915  0.8109
 1001MOL0     H35117   8.826   8.722   3.630  0.9350  0.5934 -1.0022
 1001MOL0     H35118   8.578   8.677   3.639 -0.2307  0.2313  1.2549
 1001MOL0     H35119   6.661   8.813   3.727  0.3138  1.0381 -0.1441
 1001MOL0     H35120   6.450   8.733   3.795  0.1803 -0.4446  1.7997
 1001MOL0     H35121   6.136   8.664   3.917  0.3296 -1.1870  1.9461
 1001MOL0     H35122   5.937   8.523   3.925 -1.5228  0.2067 -1.4392
 1001MOL0     H35123   5.534   8.663   3.979  2.3555 -1.2424 -1.9534
 1001MOL0     H35124   5.585   8.659   4.146 -2.3122 -1.3466  1.1043
 1001MOL0     H35125   5.504   8.417   4.136  1.0927 -1.6315 -2.6452
 1001MOL0     H35126   5.496   8.440   3.957 -0.4343  2.3175 -2.0452
 1001MOL0     H35127   5.310   8.597   3.969 -0.6606 -0.5722 -0.9039
 1001MOL0     H35128   5.300   8.585   4.142 -1.6182  0.9857 -1.5749
 1001MOL0     H35129   5.299   8.344   3.957 -0.1601 -0.4368 -0.0900
 1001MOL0     H35130   5.248   8.336   4.129 -3.4411 -1.1193 -0.2673
 1001MOL0     H35131   4.894   8.455   3.947 -0.2922 -1.7024 -0.9056
 1001MOL0     H35132   5.689   8.852   4.037  0.8876  1.7048 -0.3922
 1001MOL0     H35133   5.911   9.103   3.922  2.2920 -1.3397 -0.1206
 1001MOL0     H35134   5.758   9.062   3.999 -0.3506 -2.0458  3.3398
 1001MOL0     H35135   5.912   9.078   4.095  2.0246  1.6686 -1.8930
 1002MOL0     O35136   1.952   0.097   6.813  0.2842  0.1755  0.3798
 1002MOL0     C35137   1.900   0.136   6.706  0.2447 -0.2903  0.9637
 1002MOL0     O35138   1.967   0.206   6.602  0.3980  0.4048 -0.5839
 1002MOL0     C35139   2.101   0.204   6.578  0.1268  0.1297 -0.2342
 1002MOL0     C35140   2.158   0.323   6.532 -0.3562 -0.3196  0.1797
 1002MOL0     C35141   2.299   0.327   6.504 -0.1997  0.0409 -1.3253
 1002MOL0     C35142   2.380   0.218   6.531 -0.5606  0.0268 -0.3187
 1002MOL0     O35143   2.514   0.221   6.504 -0.0461 -0.4649  0.2391
 1002MOL0     C35144   2.544   0.248   6.363  0.2771 -0.9701 -0.1395
 1002MOL0     C35145   2.674   0.344   6.351  1.2084  0.1449  0.3019
 1002MOL0     C35146   2.739   0.317   6.213 -0.9304 -1.0531  0.1114
 1002MOL0     C35147   2.882   0.373   6.203 -1.0971  0.5070  0.6206
 1002MOL0     C35148   2.934   0.326   6.065  0.0874 -0.1467  0.0819
 1002MOL0     C35149   3.072   0.249   6.067 -0.4052 -0.7916 -0.3864
 1002MOL0     C35150   3.193   0.335   6.091 -0.7612  1.1243 -0.6992
 1002MOL0     C35151   3.216   0.364   6.239  0.2091 -1.1254 -0.1956
 1002MOL0     N35152   3.349   0.410   6.278 -0.1043  0.0322 -0.9481
 1002MOL0     C35153   3.422   0.339   6.379  0.2742 -0.7876  0.6988
 1002MOL0     C35154   3.549   0.375   6.365 -0.1288  0.4727  0.4802
 1002MOL0     C35155   3.667   0.324   6.452 -0.1602  1.0920 -0.3320
 1002MOL0     C35156   3.774   0.438   6.451 -0.4529 -0.1430 -0.7580
 1002MOL0     C35157   3.884   0.418   6.542 -0.0822  0.3642 -0.5773
 1002MOL0     C35158   3.971   0.538   6.568 -0.0201  0.9811  0.7516
 1002MOL0     O35159   4.050   0.565   6.456  0.2708 -0.2688  0.0161
 1002MOL0     C35160   4.158   0.491   6.414  0.2630  0.1615 -0.2908
 1002MOL0     C35161   4.233   0.534   6.306  0.1747  0.2287  0.3989
 1002MOL0     C35162   4.339   0.460   6.262 -0.6137 -0.3772 -0.3206
 1002MOL0     C35163   4.384   0.342   6.321  1.0350 -0.1443  0.5429
 1002MOL0     C35164   4.493   0.269   6.269  0.0373 -0.5254 -0.7774
 1002MOL0     O35165   4.530   0.149   6.328 -0.3655  0.8492  0.3634
 1002MOL0     C35166   4.653   0.091   6.312 -0.7181  0.3056 -1.0021
 1002MOL0     C35167   4.774   0.153   6.352  0.8630  0.3042  0.6895
 1002MOL0     C35168   4.894   0.084   6.331 -0.1680 -0.4999  0.7122
 1002MOL0     C35169   4.895  -0.046   6.293  0.6809 -0.6290 -0.7274
 1002MOL0     O35170   5.018  -0.106   6.286 -0.3099 -0.2306  0.1687
 1002MOL0     C35171   5.022  -0.242   6.239 -0.5052 -0.5312 -1.1253
 1002MOL0     C35172   5.161  -0.288   6.191  0.2689 -1.1194 -0.3298
 1002MOL0     C35173   5.203  -0.203   6.070 -0.4908  0.7215  0.4205
 1002MOL0     C35174   5.339  -0.243   6.014  0.1014  0.1567 -0.2293
 1002MOL0     C35175   5.351  -0.222   5.863  0.9607  0.6330 -0.1285
 1002MOL0     C35176   5.277  -0.326   5.781  0.1123  0.0189  0.4182
 1002MOL0     C35177   5.269  -0.285   5.631 -0.3944  0.2485  0.3310
 1002MOL0     C35178   5.159  -0.171   5.620  0.1592  0.3640  0.5816
 1002MOL0    Cl35179   5.096  -0.134   5.470 -0.3157  0.2489  0.0402
 1002MOL0     C35180   4.773  -0.114   6.258  0.5561 -0.2009  1.0563
 1002MOL0     C35181   4.656  -0.041   6.261 -1.0313 -1.0657  0.0912
 1002MOL0     O35182   4.561   0.331   6.189 -0.0521 -0.1245 -0.9437
 1002MOL0     C35183   4.319   0.308   6.448  0.0383 -0.5484  0.2467
 1002MOL0     C35184   4.205   0.379   6.488  0.8175  0.4489  0.1838
 1002MOL0     N35185   3.561   0.463   6.256  0.0747 -0.2147 -0.5725
 1002MOL0     N35186   3.443   0.480   6.203 -0.7273  0.0039  0.1797
 1002MOL0     C35187   2.333   0.100   6.585  0.2281 -0.6183 -0.3050
 1002MOL0     C35188   2.188   0.098   6.606 -0.8011  0.8395  0.3786
 1002MOL0     C35189   1.748   0.116   6.691  0.8848  0.3275 -0.0049
 1002MOL0     C35190   1.686   0.067   6.801  0.5870  0.0311  0.8838
 1002MOL0     C35191   1.547   0.062   6.806 -1.0388 -0.4017 -0.7117
 1002MOL0     C35192   1.467   0.098   6.693 -0.1225  0.3841  0.2441
 1002MOL0     O35193   1.329   0.091   6.690  0.0921 -0.4097 -0.0741
 1002MOL0     C35194   1.254   0.098   6.818  0.3625  0.5152 -0.3265
 1002MOL0     C35195   1.110   0.133   6.778 -0.3153  0.0598  0.6363
 1002MOL0     C35196   1.040   0.155   6.914 -0.4728  0.1948  1.2879
 1002MOL0     C35197   0.896   0.191   6.890  0.3941 -0.1001  0.6209
 1002MOL0     C35198   0.814   0.186   7.009 -0.2267 -0.2170 -0.2713
 1002MOL0     C35199   0.729   0.184   7.095  0.0123  0.9351  0.3410
 1002MOL0     C35200   1.527   0.139   6.579  0.0367 -0.7282 -0.1184
 1002MOL0     C35201   1.672   0.150   6.576  0.8778  0.1240 -0.7392
 1002MOL0     C35202   1.720   0.206   6.446 -1.1351 -0.0228 -0.2616
 1002MOL0     H35203   2.096   0.411   6.518  1.7194  1.0801 -0.6577
 1002MOL0     H35204   2.358   0.412   6.471  0.5150  0.4752  0.8837
 1002MOL0     H35205   2.558   0.149   6.320  2.0198 -0.0191 -1.9472
 1002MOL0     H35206   2.468   0.298   6.303 -0.2763 -1.1866  0.3783
 1002MOL0     H35207   2.740   0.311   6.432 -1.9165 -0.7851  2.6681
 1002MOL0     H35208   2.645   0.449   6.358 -1.6009 -0.5912  0.9989
 1002MOL0     H35209   2.678   0.364   6.136  0.0973  0.1256 -0.0028
 1002MOL0     H35210   2.748   0.210   6.193  3.6665 -0.6450 -1.0064
 1002MOL0     H35211   2.872   0.481   6.206 -0.4988  0.5591  1.0042
 1002MOL0     H35212   2.957   0.345   6.278  2.1918 -0.1279 -2.6036
 1002MOL0     H35213   2.868   0.254   6.016  0.0449  0.6508 -1.0483
 1002MOL0     H35214   2.940   0.419   6.008 -2.9293  0.6273  0.8382
 1002MOL0     H35215   3.069   0.168   6.141  4.0556  0.3201  1.3044
 1002MOL0     H35216   3.081   0.199   5.970  0.1130 -1.7998  0.1644
 1002MOL0     H35217   3.193   0.425   6.028 -2.1249  1.3266 -0.4336
 1002MOL0     H35218   3.281   0.275   6.065  0.9914  2.3786  1.9553
 1002MOL0     H35219   3.152   0.450   6.262  2.0711 -0.0184  1.0965
 1002MOL0     H35220   3.193   0.266   6.283  1.4611 -3.3068 -3.9387
 1002MOL0     H35221   3.377   0.274   6.454  1.3260 -5.3634 -2.2457
 1002MOL0     H35222   3.635   0.303   6.554  1.4648 -0.5143 -0.1175
 1002MOL0     H35223   3.703   0.228   6.415  1.3038  0.9306  1.4070
 1002MOL0     H35224   3.822   0.439   6.353  1.5727 -1.2746  0.1377
 1002MOL0     H35225   3.733   0.536   6.476  2.2877  0.8648  0.1807
 1002MOL0     H35226   3.928   0.321   6.515 -0.9738  0.2209 -1.5708
 1002MOL0     H35227   3.842   0.392   6.640  0.6297 -2.4390 -0.9157
 1002MOL0     H35228   4.038   0.525   6.653  1.5816 -0.7873 -0.6943
 1002MOL0     H35229   3.905   0.621   6.595 -0.4304  0.1428  2.5081
 1002MOL0     H35230   4.200   0.619   6.248 -1.9977 -0.6208  0.2988
 1002MOL0     H35231   4.391   0.504   6.178  0.0199  3.1634  1.7477
 1002MOL0     H35232   4.759   0.246   6.407 -3.6819  0.3234 -0.1698
 1002MOL0     H35233   4.993   0.114   6.366  0.1717 -1.1624  0.3494
 1002MOL0     H35234   4.997  -0.310   6.321 -0.5045 -1.5829 -1.9815
 1002MOL0     H35235   4.962  -0.267   6.152  1.1449  1.8433 -3.0850
 1002MOL0     H35236   5.227  -0.284   6.278 -1.5471 -1.1700  1.1115
 1002MOL0     H35237   5.143  -0.391   6.159 -2.9267 -1.0080  0.7371
 1002MOL0     H35238   5.134  -0.231   5.989 -0.8440 -1.6982  1.4669
 1002MOL0     H35239   5.197  -0.094   6.082  0.1807  0.6943  1.0592
 1002MOL0     H35240   5.336  -0.351   6.028 -2.0631  0.2519  0.2422
 1002MOL0     H35241   5.418  -0.194   6.073 -2.2368  0.9322  2.4678
 1002MOL0     H35242   5.453  -0.231   5.823 -0.2128 -0.8217 -3.0500
 1002MOL0     H35243   5.324  -0.118   5.843  3.2451  1.8183  2.3058
 1002MOL0     H35244   5.335  -0.419   5.773 -0.4210 -0.2677 -0.1691
 1002MOL0     H35245   5.179  -0.350   5.823 -1.5344  2.4420 -1.7330
 1002MOL0     H35246   5.241  -0.358   5.555 -0.4576  1.3319 -0.7232
 1002MOL0     H35247   5.371  -0.258   5.599  0.0924 -2.3207 -0.5134
 1002MOL0     H35248   5.088  -0.194   5.700  0.6685  0.6938  1.1408
 1002MOL0     H35249   5.206  -0.076   5.649 -0.9259  0.5923  1.6958
 1002MOL0     H35250   4.766  -0.216   6.224 -1.7214  0.9811 -2.5603
 1002MOL0     H35251   4.566  -0.080   6.213 -0.3222 -0.0294 -2.2188
 1002MOL0     H35252   4.363   0.217   6.488  0.2572 -0.4380  0.2528
 1002MOL0     H35253   4.156   0.347   6.579 -0.5300 -3.3761 -1.6616
 1002MOL0     H35254   2.400   0.016   6.600  0.2665 -0.3465  1.2308
 1002MOL0     H35255   2.148   0.001   6.636 -0.0699  0.7673  1.1923
 1002MOL0     H35256   1.740   0.037   6.890  1.1476  2.3861  1.3985
 1002MOL0     H35257   1.494   0.027   6.894  0.7904 -1.3261  0.0753
 1002MOL0     H35258   1.297   0.184   6.872  0.0466  1.6014 -1.7528
 1002MOL0     H35259   1.261   0.001   6.868 -0.8193  0.0573 -1.0168
 1002MOL0     H35260   1.063   0.055   6.718 -0.3115  1.4081 -1.2144
 1002MOL0     H35261   1.125   0.224   6.719 -1.1334 -1.4498 -2.0959
 1002MOL0     H35262   1.084   0.215   6.993 -1.4887 -0.4946  2.4183
 1002MOL0     H35263   1.032   0.054   6.955 -2.0896 -1.1294 -1.9087
 1002MOL0     H35264   0.887   0.293   6.850  0.9005  0.9888  3.1327
 1002MOL0     H35265   0.847   0.126   6.817 -0.3105 -1.9047  2.6295
 1002MOL0     H35266   0.671   0.180   7.184  0.9844  0.1178  0.9715
 1002MOL0     H35267   1.463   0.170   6.497 -0.1949 -1.4389 -0.2057
 1002MOL0     H35268   1.649   0.199   6.363 -2.3007  3.3064  0.3135
 1002MOL0     H35269   1.741   0.312   6.461 -0.6628 -0.1814  0.2395
 1002MOL0     H35270   1.816   0.163   6.416 -1.0830  0.3213 -0.5864
 1003MOL0     O35271  10.508   2.506   1.061 -0.0112  0.7013 -0.9298
 1003MOL0     C35272  10.434   2.515   1.155  0.1955  0.2418  0.3490
 1003MOL0     O35273  10.438   2.604   1.256 -0.6343  0.0930 -0.1390
 1003MOL0     C35274  10.525   2.709   1.254 -0.3442 -0.4417 -0.2620
 1003MOL0     C35275  10.469   2.810   1.327  0.9653 -0.2861 -0.2201
 1003MOL0     C35276  10.530   2.929   1.351 -0.2785 -0.0669 -0.3439
 1003MOL0     C35277  10.654   2.955   1.288  0.6572  0.8029  0.5311
 1003MOL0     O35278  10.739   3.060   1.312 -0.2310  0.1160 -0.0380
 1003MOL0     C35279  10.726   3.138   1.432  0.7189  0.1600 -0.0808
 1003MOL0     C35280  10.839   3.244   1.433  0.2246 -0.7073 -0.2298
 1003MOL0     C35281  10.830   3.349   1.547 -0.2017  0.1704  0.4379
 1003MOL0     C35282  10.922   3.468   1.530 -1.2709 -0.1903  0.5083
 1003MOL0     C35283  10.897   3.557   1.406  0.2779  0.3208  0.3274
 1003MOL0     C35284  10.956   3.696   1.432 -0.6817  0.0770  0.4825
 1003MOL0     C35285  11.110   3.686   1.435 -0.3846  1.2674  0.7565
 1003MOL0     C35286  11.180   3.811   1.489  0.4959 -0.0873  0.1360
 1003MOL0     N35287  11.321   3.785   1.505  0.4362 -0.2841 -0.1074
 1003MOL0     C35288  11.383   3.704   1.599  0.0123 -0.1251  0.2915
 1003MOL0     C35289  11.514   3.737   1.581 -0.6287 -0.4113 -0.7414
 1003MOL0     C35290  11.642   3.707   1.671  0.8645  0.2738 -0.9576
 1003MOL0     C35291  11.743   3.596   1.619 -0.3062  0.4386  0.5732
 1003MOL0     C35292  11.776   3.613   1.471 -0.3647 -0.3291 -0.2578
 1003MOL0     C35293  11.866   3.504   1.423 -0.2285  0.4597  0.9644
 1003MOL0     O35294  11.909   3.520   1.290  0.4991 -0.4641  0.6591
 1003MOL0     C35295  12.030   3.489   1.240 -0.1020 -0.4006 -0.2333
 1003MOL0     C35296  12.076   3.566   1.140  1.0048  0.2144  0.1882
 1003MOL0     C35297  12.206   3.554   1.090 -0.1217  0.0665  0.0023
 1003MOL0     C35298  12.293   3.457   1.155 -0.6252  0.1722 -0.7251
 1003MOL0     C35299  12.437   3.447   1.132 -0.0108  0.0772 -1.5201
 1003MOL0     O35300  12.489   3.533   1.044  0.4734  0.3206 -0.1999
 1003MOL0     C35301  12.617   3.526   0.990 -0.1570  0.4446  0.3178
 1003MOL0     C35302  12.644   3.607   0.879  0.5146  0.2140  1.4823
 1003MOL0     C35303  12.769   3.610   0.816  1.2546  0.6421  0.3162
 1003MOL0     C35304  12.866   3.511   0.852 -0.6183  0.6510 -0.7225
 1003MOL0     O35305  12.981   3.510   0.773  0.1063 -0.1757 -0.2479
 1003MOL0     C35306  13.093   3.435   0.819 -0.3409  0.0331 -0.4230
 1003MOL0     C35307  13.220   3.476   0.738  0.2368 -0.9741  0.1398
 1003MOL0     C35308  13.350   3.417   0.799 -0.1160 -0.1033 -0.1264
 1003MOL0     C35309  13.441   3.391   0.681 -0.5320 -0.0025  0.1703
 1003MOL0     C35310  13.577   3.346   0.731  0.7282 -0.3782  0.5016
 1003MOL0     C35311  13.672   3.286   0.622  0.3456 -0.3099 -0.1153
 1003MOL0     C35312  13.813   3.313   0.664  0.0401  0.0290 -0.3994
 1003MOL0     C35313  13.916   3.253   0.576  0.1797  0.0977  0.1775
 1003MOL0    Cl35314  13.967   3.087   0.627  0.1074 -0.3642 -0.1102
 1003MOL0     C35315  12.839   3.432   0.965  0.0694 -0.3418  0.0139
 1003MOL0     C35316  12.721   3.442   1.040 -0.5174  0.9145 -0.0376
 1003MOL0     O35317  12.491   3.346   1.183  0.2710  0.2055  0.4026
 1003MOL0     C35318  12.229   3.377   1.261  0.0250  0.9984 -0.1312
 1003MOL0     C35319  12.102   3.388   1.291  0.1801  0.5503  0.0004
 1003MOL0     N35320  11.529   3.836   1.480 -0.2594  0.1313 -0.0446
 1003MOL0     N35321  11.410   3.852   1.426 -0.2437 -0.2195 -0.2377
 1003MOL0     C35322  10.702   2.856   1.193 -0.9537 -0.1395 -0.2038
 1003MOL0     C35323  10.651   2.730   1.189  0.1650 -1.0420 -0.3903
 1003MOL0     C35324  10.328   2.408   1.167 -0.6760 -0.6577 -0.3009
 1003MOL0     C35325  10.315   2.319   1.273  0.2421  0.5761  0.6258
 1003MOL0     C35326  10.207   2.236   1.289 -0.4841 -0.7050  0.3508
 1003MOL0     C35327  10.111   2.225   1.194  0.8839  0.1771  0.6048
 1003MOL0     O35328  10.013   2.127   1.208  0.4899 -0.8824  0.2021
 1003MOL0     C35329   9.965   2.068   1.086 -0.4449  0.1153  0.2086
 1003MOL0     C35330   9.914   1.934   1.126  0.2749 -0.0359 -0.3413
 1003MOL0     C35331   9.796   1.937   1.234 -0.4699  0.4396 -0.9410
 1003MOL0     C35332   9.662   1.970   1.162  0.5299  0.0205  0.5870
 1003MOL0     C35333   9.538   1.958   1.240  0.1761  0.9287 -0.0025
 1003MOL0     C35334   9.448   1.926   1.317  0.8394 -0.7122 -0.4538
 1003MOL0     C35335  10.124   2.307   1.080 -0.2294  0.0621  0.7748
 1003MOL0     C35336  10.233   2.387   1.059 -0.0277  0.6192  0.2398
 1003MOL0     C35337  10.238   2.474   0.934  0.0817 -0.1018  0.6134
 1003MOL0     H35338  10.373   2.800   1.376  1.9956 -2.4427  1.5768
 1003MOL0     H35339  10.485   3.008   1.411 -1.6407  0.1565 -1.5853
 1003MOL0     H35340  10.629   3.187   1.420 -1.0914 -3.6122 -3.5202
 1003MOL0     H35341  10.720   3.074   1.520 -2.9828 -0.5247 -0.6356
 1003MOL0     H35342  10.837   3.303   1.342  1.9983  0.1886  0.2607
 1003MOL0     H35343  10.937   3.194   1.438  0.6387 -0.2329 -2.4863
 1003MOL0     H35344  10.835   3.305   1.647 -0.3702  0.5101  0.5997
 1003MOL0     H35345  10.734   3.401   1.538 -0.3402 -0.3782 -1.7135
 1003MOL0     H35346  10.904   3.540   1.610  0.8501  1.2674 -0.2225
 1003MOL0     H35347  11.024   3.428   1.535 -1.6455 -1.3627 -0.7756
 1003MOL0     H35348  10.942   3.510   1.318  0.7369  2.3827 -0.6026
 1003MOL0     H35349  10.789   3.571   1.394  0.3052  0.4774  0.2537
 1003MOL0     H35350  10.928   3.770   1.357 -1.5227 -0.3985  0.3114
 1003MOL0     H35351  10.922   3.744   1.524 -0.6736  0.5131  0.2609
 1003MOL0     H35352  11.160   3.663   1.341 -1.9960 -2.1549  0.5593
 1003MOL0     H35353  11.146   3.600   1.493 -0.9845  1.0094  0.7605
 1003MOL0     H35354  11.155   3.896   1.425 -0.0127  0.5481  1.1503
 1003MOL0     H35355  11.125   3.829   1.582  1.1871  1.2816  0.3069
 1003MOL0     H35356  11.328   3.660   1.682 -3.1885  0.1344 -1.5588
 1003MOL0     H35357  11.700   3.800   1.662  0.3632  0.7761  0.6952
 1003MOL0     H35358  11.619   3.695   1.777  0.3175 -1.9253 -1.2827
 1003MOL0     H35359  11.837   3.605   1.675  1.3180  0.8397 -2.0605
 1003MOL0     H35360  11.702   3.495   1.630  2.3748 -0.8291 -0.2852
 1003MOL0     H35361  11.837   3.702   1.456 -0.5879 -0.4759 -2.4615
 1003MOL0     H35362  11.684   3.622   1.411 -0.6161  0.6534  0.2567
 1003MOL0     H35363  11.820   3.405   1.432  0.3114 -0.3320 -2.9462
 1003MOL0     H35364  11.951   3.502   1.491  0.4837 -1.1434  0.0953
 1003MOL0     H35365  12.003   3.638   1.106 -0.3276 -1.0679  0.2563
 1003MOL0     H35366  12.246   3.624   1.017  2.0764  0.1375  1.1767
 1003MOL0     H35367  12.565   3.671   0.842  1.0614 -1.1840 -2.5706
 1003MOL0     H35368  12.796   3.673   0.732 -0.6633  0.2287 -0.6607
 1003MOL0     H35369  13.120   3.452   0.924  1.3223 -3.4198 -0.1346
 1003MOL0     H35370  13.074   3.328   0.806 -0.7083  0.1858 -1.1487
 1003MOL0     H35371  13.210   3.455   0.631  1.4200  0.1608 -0.2226
 1003MOL0     H35372  13.218   3.585   0.738 -1.2555 -0.9751  1.1812
 1003MOL0     H35373  13.392   3.495   0.863 -1.5399  0.3020  0.3568
 1003MOL0     H35374  13.335   3.321   0.851 -1.3404 -0.8903 -1.8476
 1003MOL0     H35375  13.459   3.477   0.615  1.8933 -1.1793 -0.8237
 1003MOL0     H35376  13.405   3.302   0.628  0.4651 -1.2035  1.4663
 1003MOL0     H35377  13.548   3.270   0.804 -0.3318  0.2722  0.7716
 1003MOL0     H35378  13.633   3.427   0.779  1.3710 -0.6713  0.2641
 1003MOL0     H35379  13.649   3.183   0.593 -5.6865  0.7994 -0.4733
 1003MOL0     H35380  13.657   3.343   0.530 -1.0932 -2.3656 -1.2447
 1003MOL0     H35381  13.827   3.264   0.761 -1.1629  0.4015 -0.0161
 1003MOL0     H35382  13.834   3.420   0.672  1.7931 -0.0148 -3.2323
 1003MOL0     H35383  13.898   3.260   0.468  4.0784  1.9847 -0.5588
 1003MOL0     H35384  14.007   3.313   0.591 -1.1417  2.1142  0.5728
 1003MOL0     H35385  12.920   3.367   0.997  2.2538  2.0866 -0.2842
 1003MOL0     H35386  12.718   3.391   1.136 -2.2014  1.8967  0.4676
 1003MOL0     H35387  12.284   3.301   1.314 -1.1283 -0.9639 -1.6107
 1003MOL0     H35388  12.060   3.320   1.365 -0.4282  0.1541 -0.6936
 1003MOL0     H35389  10.792   2.874   1.135  1.7184 -4.1755  2.2281
 1003MOL0     H35390  10.694   2.659   1.120  1.6094  1.1891 -1.9065
 1003MOL0     H35391  10.399   2.312   1.342  1.1366  0.9107 -0.3868
 1003MOL0     H35392  10.190   2.179   1.380 -0.8578 -0.3181  0.5203
 1003MOL0     H35393  10.043   2.045   1.013  0.5452  0.2271  1.1999
 1003MOL0     H35394   9.881   2.129   1.050 -1.6249 -0.4228  1.9016
 1003MOL0     H35395   9.996   1.871   1.164  0.7847  0.9637  0.2456
 1003MOL0     H35396   9.874   1.884   1.037  0.1543 -0.0145 -0.2991
 1003MOL0     H35397   9.810   2.018   1.306 -1.1167  0.5188 -0.8971
 1003MOL0     H35398   9.789   1.846   1.295 -0.1192  1.9068  1.4288
 1003MOL0     H35399   9.669   2.077   1.142  0.1814  0.5820  3.0500
 1003MOL0     H35400   9.659   1.912   1.069 -0.4201 -0.4723  0.9020
 1003MOL0     H35401   9.379   1.900   1.394  0.5630 -0.9076 -0.7642
 1003MOL0     H35402  10.044   2.311   1.007  1.0470 -1.1055 -0.7820
 1003MOL0     H35403  10.273   2.576   0.954  1.2849  0.2779 -2.7099
 1003MOL0     H35404  10.297   2.423   0.857  0.4459 -0.5211  1.1683
 1003MOL0     H35405  10.134   2.489   0.904 -0.2521  2.3068  2.5998
 1004MOL0     O35406   8.426   4.485   9.266  0.8460 -0.2879 -0.7974
 1004MOL0     C35407   8.347   4.499   9.174  0.3282  0.2126  0.3238
 1004MOL0     O35408   8.366   4.581   9.059  0.2676 -0.2980  0.0855
 1004MOL0     C35409   8.485   4.644   9.016  0.0575 -0.6598 -0.0526
 1004MOL0     C35410   8.468   4.750   8.921  0.3825  0.1739 -0.3241
 1004MOL0     C35411   8.569   4.843   8.891  0.2700  0.3696 -0.1600
 1004MOL0     C35412   8.697   4.822   8.938  0.6746 -0.6397  0.3185
 1004MOL0     O35413   8.809   4.891   8.904  0.2692 -0.5031  0.0076
 1004MOL0     C35414   8.799   5.027   8.860  0.4810  0.3510  0.0488
 1004MOL0     C35415   8.939   5.088   8.835  0.8550  0.1374  2.2152
 1004MOL0     C35416   8.912   5.230   8.791 -0.4766 -0.2434  0.4298
 1004MOL0     C35417   9.051   5.303   8.790  0.6442 -0.2415 -0.7373
 1004MOL0     C35418   9.149   5.250   8.682  0.0704 -0.3400 -0.1115
 1004MOL0     C35419   9.263   5.359   8.657  0.2131  0.4339  0.7019
 1004MOL0     C35420   9.389   5.308   8.583  0.2028  0.4320  0.9823
 1004MOL0     C35421   9.474   5.422   8.515  1.0615 -0.3068  0.2546
 1004MOL0     N35422   9.589   5.361   8.435  1.0592  0.2846 -0.3035
 1004MOL0     C35423   9.714   5.350   8.486 -0.0475  0.1950  0.5146
 1004MOL0     C35424   9.785   5.292   8.382  0.7449  0.3327  0.5417
 1004MOL0     C35425   9.939   5.261   8.392  0.3104 -0.9489 -0.4785
 1004MOL0     C35426  10.018   5.352   8.304  0.8959  0.2277  0.4523
 1004MOL0     C35427  10.166   5.315   8.298  0.5564  0.6253 -0.5469
 1004MOL0     C35428  10.260   5.389   8.205 -0.3459 -0.4235  1.0638
 1004MOL0     O35429  10.398   5.368   8.251  0.0750  0.1457 -0.1553
 1004MOL0     C35430  10.507   5.402   8.168 -0.0300  0.2310 -0.1647
 1004MOL0     C35431  10.506   5.433   8.034  0.1695 -0.6053 -1.0442
 1004MOL0     C35432  10.620   5.470   7.960  0.3783  0.6389  0.2068
 1004MOL0     C35433  10.744   5.469   8.024  0.2681 -0.4630  0.1448
 1004MOL0     C35434  10.871   5.501   7.954  0.7842 -0.0332  0.6260
 1004MOL0     O35435  10.989   5.525   8.024  0.2886  0.7781 -0.6855
 1004MOL0     C35436  11.084   5.591   7.959 -0.6552  0.1687  0.2714
 1004MOL0     C35437  11.191   5.521   7.895 -0.2723  0.6522  0.5761
 1004MOL0     C35438  11.275   5.597   7.813  1.0739  0.7318  1.5668
 1004MOL0     C35439  11.263   5.735   7.799 -0.9020 -0.3025 -0.0080
 1004MOL0     O35440  11.349   5.808   7.721 -0.8670 -1.1365  0.4964
 1004MOL0     C35441  11.416   5.914   7.799  0.3002  0.6829 -0.5919
 1004MOL0     C35442  11.519   5.978   7.702 -0.2029 -0.0410 -0.6558
 1004MOL0     C35443  11.627   5.872   7.686  0.0802 -0.0720 -0.8746
 1004MOL0     C35444  11.736   5.941   7.603 -0.1924 -0.4254 -0.2682
 1004MOL0     C35445  11.834   5.844   7.552 -0.4723 -0.3681 -0.2915
 1004MOL0     C35446  11.943   5.917   7.465 -0.0507 -0.0331 -0.0495
 1004MOL0     C35447  12.049   5.819   7.408  0.2516  0.2698  0.0417
 1004MOL0     C35448  11.984   5.695   7.332 -0.2370 -0.8613 -0.2965
 1004MOL0    Cl35449  12.125   5.626   7.247 -0.0837 -0.3059 -0.4465
 1004MOL0     C35450  11.167   5.805   7.874 -1.0205 -0.2302  0.0241
 1004MOL0     C35451  11.081   5.731   7.955  0.1668  0.7337 -0.1889
 1004MOL0     O35452  10.865   5.495   7.835  0.9590  0.4067 -0.1965
 1004MOL0     C35453  10.753   5.441   8.165  0.7595 -0.8670  0.5875
 1004MOL0     C35454  10.638   5.401   8.226 -1.1848  0.3296  0.1407
 1004MOL0     N35455   9.693   5.263   8.279 -0.4941  0.2916 -0.5029
 1004MOL0     N35456   9.572   5.303   8.312  0.7167 -0.4966  0.2796
 1004MOL0     C35457   8.714   4.722   9.028  0.3871  0.4543  0.4180
 1004MOL0     C35458   8.613   4.635   9.072 -0.1971 -0.2826 -0.0663
 1004MOL0     C35459   8.206   4.437   9.195 -0.1440 -0.7613  0.2996
 1004MOL0     C35460   8.131   4.444   9.071 -0.5191 -0.6932 -0.0071
 1004MOL0     C35461   8.005   4.397   9.067  0.1131  1.3721  0.4501
 1004MOL0     C35462   7.938   4.358   9.178 -0.1931  0.6876 -0.8471
 1004MOL0     O35463   7.805   4.321   9.176  0.0804  0.1558 -0.3901
 1004MOL0     C35464   7.721   4.384   9.077  0.1648 -0.3643  0.6330
 1004MOL0     C35465   7.662   4.284   8.971 -0.7713  0.6334 -0.4389
 1004MOL0     C35466   7.573   4.184   9.049 -0.2630 -0.1467 -0.4530
 1004MOL0     C35467   7.438   4.231   9.108  0.1115  1.1861 -0.0409
 1004MOL0     C35468   7.356   4.118   9.157  0.1717  0.3098 -0.9383
 1004MOL0     C35469   7.289   4.031   9.198  0.0106  0.0537  0.6154
 1004MOL0     C35470   8.010   4.339   9.304 -0.4363  0.8023 -0.0914
 1004MOL0     C35471   8.140   4.379   9.309 -0.7713 -0.0280  0.0535
 1004MOL0     C35472   8.214   4.376   9.449  1.4137 -1.1022 -0.1214
 1004MOL0     H35473   8.368   4.769   8.882  0.0514  1.1387  0.9625
 1004MOL0     H35474   8.551   4.932   8.831 -4.1788 -0.2510 -0.0457
 1004MOL0     H35475   8.746   5.034   8.764 -0.2231  0.4561  0.4375
 1004MOL0     H35476   8.737   5.089   8.926  0.2099  1.7834 -1.4772
 1004MOL0     H35477   8.998   5.046   8.753 -0.0847  1.4086  0.8375
 1004MOL0     H35478   9.001   5.080   8.925  2.3156 -1.8330  1.0963
 1004MOL0     H35479   8.845   5.283   8.859  1.5773  3.5797 -0.2579
 1004MOL0     H35480   8.866   5.228   8.692  0.8810  1.2040 -0.2754
 1004MOL0     H35481   9.032   5.411   8.781  2.1133  0.1077  0.0058
 1004MOL0     H35482   9.097   5.294   8.889 -4.3253  0.7795  2.0321
 1004MOL0     H35483   9.190   5.150   8.697 -0.3585 -0.7264 -1.4163
 1004MOL0     H35484   9.094   5.239   8.589 -2.7480 -0.5513  1.4840
 1004MOL0     H35485   9.231   5.443   8.595  0.2199  2.1354  2.9033
 1004MOL0     H35486   9.299   5.401   8.751  0.6704 -1.3707  1.3778
 1004MOL0     H35487   9.346   5.243   8.506  1.0444  0.1186  0.7579
 1004MOL0     H35488   9.446   5.259   8.662  2.9131  1.8330  0.0402
 1004MOL0     H35489   9.402   5.468   8.447  1.4138 -0.2043 -0.0520
 1004MOL0     H35490   9.507   5.492   8.592  0.3651 -0.1063  0.3732
 1004MOL0     H35491   9.766   5.381   8.576 -0.4170  2.8412 -0.0779
 1004MOL0     H35492   9.964   5.281   8.497  1.6847 -3.0414 -0.3383
 1004MOL0     H35493   9.964   5.157   8.371 -0.5533 -0.9242 -1.7092
 1004MOL0     H35494   9.968   5.347   8.207  1.8603 -1.2440  0.0021
 1004MOL0     H35495  10.019   5.456   8.338  4.6545  0.7045 -0.6770
 1004MOL0     H35496  10.173   5.210   8.266  0.4251  0.1867  0.7872
 1004MOL0     H35497  10.196   5.321   8.404 -1.5206 -0.6556  0.1735
 1004MOL0     H35498  10.238   5.496   8.203  0.9878 -0.1059 -1.7929
 1004MOL0     H35499  10.247   5.349   8.104 -0.7462 -0.1553  1.0071
 1004MOL0     H35500  10.409   5.434   7.985 -2.0920  0.2905  3.0451
 1004MOL0     H35501  10.607   5.479   7.853  0.5106 -1.9037 -0.0833
 1004MOL0     H35502  11.190   5.412   7.900  1.7784  0.3243 -3.0909
 1004MOL0     H35503  11.358   5.558   7.755 -1.0082  0.3114 -1.3319
 1004MOL0     H35504  11.347   5.995   7.822  0.7742  1.8597 -3.0795
 1004MOL0     H35505  11.464   5.881   7.892  1.2730  1.7879 -0.6759
 1004MOL0     H35506  11.475   5.989   7.603 -3.7851 -2.1505  0.4943
 1004MOL0     H35507  11.557   6.076   7.731 -2.6776  1.3009 -1.6258
 1004MOL0     H35508  11.665   5.846   7.785 -1.5346  1.0275  0.0736
 1004MOL0     H35509  11.588   5.787   7.629 -5.2197  2.0571 -0.9144
 1004MOL0     H35510  11.778   6.030   7.649 -3.3507  1.5328 -0.8722
 1004MOL0     H35511  11.694   5.971   7.507 -2.1704 -1.4251  0.2199
 1004MOL0     H35512  11.789   5.767   7.489  3.0983 -0.8798 -2.5119
 1004MOL0     H35513  11.884   5.791   7.634 -0.1959  0.1420 -0.1230
 1004MOL0     H35514  11.895   5.970   7.383 -0.8102  1.5355  1.3599
 1004MOL0     H35515  11.992   5.991   7.528  1.4347 -2.6244  2.0704
 1004MOL0     H35516  12.112   5.773   7.485 -1.1902  0.3172  1.2767
 1004MOL0     H35517  12.116   5.873   7.340  4.0353 -1.6699  1.8793
 1004MOL0     H35518  11.938   5.629   7.406 -3.8088  2.4227  0.7321
 1004MOL0     H35519  11.907   5.724   7.259  1.1108  1.9944 -0.7300
 1004MOL0     H35520  11.133   5.908   7.872 -0.7294 -0.1423 -1.9378
 1004MOL0     H35521  11.003   5.789   8.003 -0.4436  0.3812 -0.7338
 1004MOL0     H35522  10.853   5.439   8.209  1.6177 -0.3007 -1.2382
 1004MOL0     H35523  10.642   5.373   8.331  0.2930 -1.9180 -0.4489
 1004MOL0     H35524   8.815   4.708   9.066  2.2552  0.9473 -3.8138
 1004MOL0     H35525   8.640   4.560   9.146  0.2233  1.2444  1.3629
 1004MOL0     H35526   8.185   4.473   8.982  0.9492 -0.5844  0.8783
 1004MOL0     H35527   7.959   4.388   8.969  1.7735 -3.5025 -0.1644
 1004MOL0     H35528   7.766   4.461   9.014 -3.6915  2.4844  1.0145
 1004MOL0     H35529   7.641   4.438   9.128  0.5751  2.4370 -1.4759
 1004MOL0     H35530   7.738   4.246   8.903 -1.3059  1.0944 -1.2999
 1004MOL0     H35531   7.591   4.341   8.910  0.3520  0.9670 -1.4546
 1004MOL0     H35532   7.636   4.135   9.125  0.0142  0.8151 -0.0525
 1004MOL0     H35533   7.537   4.114   8.973  0.1782  0.0921 -0.8845
 1004MOL0     H35534   7.466   4.294   9.193  0.0793  2.1423 -0.7303
 1004MOL0     H35535   7.390   4.285   9.026  2.4673  2.0570 -0.9299
 1004MOL0     H35536   7.240   3.939   9.222 -0.6398 -0.3464 -1.9062
 1004MOL0     H35537   7.962   4.296   9.391 -1.1754  1.1679 -0.3071
 1004MOL0     H35538   8.294   4.301   9.453  0.8586 -1.7495 -0.8752
 1004MOL0     H35539   8.258   4.476   9.460 -0.1531 -0.2630 -1.1429
 1004MOL0     H35540   8.136   4.356   9.523  3.1531 -0.2671  2.0350
 1005MOL0     O35541   0.598  10.029   1.091 -1.1222  0.1290  0.3563
 1005MOL0     C35542   0.526  10.020   1.000  0.0459  0.0025  0.2456
 1005MOL0     O35543   0.529  10.093   0.887 -0.0797 -0.2715 -0.0960
 1005MOL0     C35544   0.628  10.185   0.876  0.5642  0.8898 -0.6689
 1005MOL0     C35545   0.756  10.141   0.863 -0.3798 -0.0731 -0.1070
 1005MOL0     C35546   0.855  10.247   0.856 -0.1633  0.3517 -0.9694
 1005MOL0     C35547   0.828  10.377   0.866  0.7512 -0.4596 -0.8720
 1005MOL0     O35548   0.939  10.453   0.857 -0.1826 -0.0865 -0.7382
 1005MOL0     C35549   0.937  10.589   0.811 -0.0799  0.9350 -0.6852
 1005MOL0     C35550   0.939  10.600   0.662 -0.0071 -0.1618 -0.0624
 1005MOL0     C35551   1.072  10.567   0.600  0.0339 -0.2188 -0.2709
 1005MOL0     C35552   1.062  10.561   0.452  0.7085  0.0842  0.3237
 1005MOL0     C35553   1.193  10.510   0.390 -0.4738  0.0438  0.3447
 1005MOL0     C35554   1.228  10.362   0.424 -0.4326  0.7485 -0.1912
 1005MOL0     C35555   1.372  10.337   0.373 -0.6290 -0.3072 -0.9931
 1005MOL0     C35556   1.484  10.404   0.454 -0.1264 -0.0630 -0.4291
 1005MOL0     N35557   1.595  10.440   0.366  0.1254  0.0281 -0.1029
 1005MOL0     C35558   1.702  10.358   0.329 -0.0486  0.3785  0.2738
 1005MOL0     C35559   1.771  10.441   0.244 -0.2096 -0.3058 -0.0029
 1005MOL0     C35560   1.897  10.396   0.184 -0.3707 -1.4982  0.5090
 1005MOL0     C35561   2.022  10.471   0.220 -1.0024 -0.8254 -0.2265
 1005MOL0     C35562   2.141  10.445   0.130 -0.4101 -0.1882 -0.3267
 1005MOL0     C35563   2.280  10.520   0.171  0.5834 -0.4653  0.1466
 1005MOL0     O35564   2.318  10.487   0.304 -0.2097 -0.8626  0.9823
 1005MOL0     C35565   2.388  10.375   0.325  0.4146 -0.7109  1.0442
 1005MOL0     C35566   2.434  10.293   0.223  0.4845 -1.1725 -0.4773
 1005MOL0     C35567   2.499  10.181   0.259  0.6899  0.2507 -0.7482
 1005MOL0     C35568   2.528  10.142   0.394  0.3732  0.6420  0.1054
 1005MOL0     C35569   2.600  10.015   0.426  0.5586 -0.3244 -1.1182
 1005MOL0     O35570   2.591   9.971   0.562  0.3012 -0.2447  0.3982
 1005MOL0     C35571   2.644   9.852   0.592  0.5744  0.2719 -0.1659
 1005MOL0     C35572   2.767   9.809   0.548 -1.0115  0.3161 -0.6884
 1005MOL0     C35573   2.805   9.676   0.561 -0.9535 -0.5339 -0.2772
 1005MOL0     C35574   2.725   9.584   0.639 -0.2160 -0.4264 -0.4453
 1005MOL0     O35575   2.777   9.457   0.651  0.2843  0.2276  0.4172
 1005MOL0     C35576   2.688   9.353   0.604 -0.4632 -0.7450  0.1126
 1005MOL0     C35577   2.771   9.226   0.634 -0.8199  0.4710 -0.2873
 1005MOL0     C35578   2.891   9.207   0.546 -0.2378  0.6473  0.0093
 1005MOL0     C35579   2.956   9.067   0.572 -0.4045 -0.5832  0.0116
 1005MOL0     C35580   3.089   9.042   0.482  0.9311 -0.2822 -0.4253
 1005MOL0     C35581   3.053   9.033   0.335  0.4113  0.0785  1.0297
 1005MOL0     C35582   3.179   9.016   0.246  0.0293 -0.1236 -0.1085
 1005MOL0     C35583   3.128   8.979   0.105 -0.0780 -0.1980 -1.0888
 1005MOL0    Cl35584   3.093   8.799   0.107  0.0237 -0.6290  0.3220
 1005MOL0     C35585   2.605   9.634   0.687  0.5584 -0.0336 -0.7286
 1005MOL0     C35586   2.565   9.767   0.671 -0.4324  0.5877  0.4403
 1005MOL0     O35587   2.637   9.944   0.328 -0.5683  0.4520  0.0852
 1005MOL0     C35588   2.477  10.219   0.493 -0.0589 -0.9352 -0.3277
 1005MOL0     C35589   2.412  10.340   0.457 -0.3731  0.0120  0.1478
 1005MOL0     N35590   1.715  10.564   0.244 -0.5077 -0.2716  0.7769
 1005MOL0     N35591   1.611  10.563   0.316  0.1692 -0.1812  0.0661
 1005MOL0     C35592   0.693  10.419   0.877  0.1298 -0.1402  0.0669
 1005MOL0     C35593   0.598  10.319   0.879  0.2576  0.1546 -0.1209
 1005MOL0     C35594   0.415   9.923   1.003 -0.8934  0.0072 -0.0114
 1005MOL0     C35595   0.286   9.964   0.970  0.2322 -0.4291 -0.0057
 1005MOL0     C35596   0.181   9.874   0.975  0.5341 -0.0553 -0.0572
 1005MOL0     C35597   0.205   9.742   1.014 -0.3844 -0.4929 -0.0435
 1005MOL0     O35598   0.100   9.663   1.021 -0.0811  0.1207 -0.1736
 1005MOL0     C35599   0.107   9.533   1.083  0.2095  0.2957 -0.4519
 1005MOL0     C35600  -0.026   9.460   1.063 -0.3615  0.4453  0.1238
 1005MOL0     C35601  -0.016   9.315   1.110  0.0589  0.6510 -0.4276
 1005MOL0     C35602   0.059   9.301   1.252 -0.3513 -0.8187 -0.6507
 1005MOL0     C35603   0.205   9.313   1.249 -1.1188 -0.8905 -0.2116
 1005MOL0     C35604   0.324   9.298   1.225  0.0509 -0.7279 -1.3158
 1005MOL0     C35605   0.331   9.696   1.048 -0.3901  1.0454  0.8663
 1005MOL0     C35606   0.433   9.788   1.045 -0.8323 -0.0944  0.1346
 1005MOL0     C35607   0.569   9.725   1.066  0.2973 -0.2970  0.4905
 1005MOL0     H35608   0.776  10.034   0.869  0.1824  0.0227 -0.2761
 1005MOL0     H35609   0.961  10.225   0.851  0.2328  1.3170  1.8113
 1005MOL0     H35610   0.844  10.641   0.834 -0.3988 -0.2572  0.9311
 1005MOL0     H35611   1.025  10.633   0.859  1.8793 -2.2551 -0.9994
 1005MOL0     H35612   0.916  10.703   0.630  2.3453  0.1198 -1.0056
 1005MOL0     H35613   0.865  10.531   0.620  0.7138 -0.5104 -0.7721
 1005MOL0     H35614   1.101  10.468   0.635 -2.4212 -0.8402  0.1890
 1005MOL0     H35615   1.151  10.636   0.632  1.6102 -0.6849 -2.8602
 1005MOL0     H35616   0.975  10.502   0.420 -0.3870  0.3123  2.6511
 1005MOL0     H35617   1.046  10.664   0.419  3.6298  0.4889 -0.0430
 1005MOL0     H35618   1.182  10.514   0.281  1.0894 -2.3126  0.0275
 1005MOL0     H35619   1.269  10.579   0.428  1.0751 -2.0241  1.2282
 1005MOL0     H35620   1.209  10.345   0.531  1.0898 -3.7341 -0.4211
 1005MOL0     H35621   1.162  10.284   0.385 -4.3603  2.1304  2.9948
 1005MOL0     H35622   1.380  10.363   0.267  1.5406  1.3453 -0.4922
 1005MOL0     H35623   1.399  10.232   0.388 -1.0819 -0.1558  1.2692
 1005MOL0     H35624   1.435  10.486   0.509 -4.2401  0.6277 -4.5118
 1005MOL0     H35625   1.536  10.343   0.528  0.7494 -0.4396 -1.3314
 1005MOL0     H35626   1.712  10.252   0.350 -2.1653 -0.4649 -2.4080
 1005MOL0     H35627   1.924  10.291   0.198  0.5610 -1.1563  1.4493
 1005MOL0     H35628   1.891  10.405   0.075  0.7674 -1.1203  0.4639
 1005MOL0     H35629   2.016  10.578   0.201 -0.8769 -1.0416 -1.6175
 1005MOL0     H35630   2.055  10.442   0.320  0.1163 -1.2484 -0.7074
 1005MOL0     H35631   2.124  10.485   0.029 -0.0694 -1.5418 -0.9390
 1005MOL0     H35632   2.159  10.339   0.110  1.0892  0.0010 -0.1272
 1005MOL0     H35633   2.266  10.628   0.170  0.6702 -0.4470  0.7577
 1005MOL0     H35634   2.358  10.496   0.098  2.8802  0.2220  2.2297
 1005MOL0     H35635   2.428  10.299   0.114  2.2048 -1.8567 -0.6440
 1005MOL0     H35636   2.552  10.127   0.181  3.2942 -1.1827  1.8226
 1005MOL0     H35637   2.839   9.859   0.484  2.1650 -2.5145  0.3466
 1005MOL0     H35638   2.899   9.635   0.525 -0.9938 -0.9281  0.0579
 1005MOL0     H35639   2.593   9.347   0.657 -1.6939  0.3127 -1.8356
 1005MOL0     H35640   2.678   9.356   0.495  3.5385 -0.0144 -0.3903
 1005MOL0     H35641   2.799   9.230   0.739 -0.5138 -1.8931 -0.2293
 1005MOL0     H35642   2.704   9.140   0.622 -1.4993  1.3003 -3.4655
 1005MOL0     H35643   2.854   9.224   0.444 -0.0454  0.5119 -0.0822
 1005MOL0     H35644   2.960   9.292   0.549 -0.2687  0.6920 -0.4260
 1005MOL0     H35645   2.890   8.985   0.543 -2.2180  1.3128 -1.6040
 1005MOL0     H35646   2.993   9.056   0.674  0.6562  0.0028 -0.2880
 1005MOL0     H35647   3.151   8.959   0.516  4.0699  1.9261 -0.3489
 1005MOL0     H35648   3.158   9.126   0.497  0.5176 -0.0047 -0.0114
 1005MOL0     H35649   2.991   8.944   0.325  2.0871 -0.9885 -0.5325
 1005MOL0     H35650   2.998   9.117   0.292 -2.4978 -2.9048 -1.6568
 1005MOL0     H35651   3.244   8.936   0.282  0.5412  0.4682  0.3118
 1005MOL0     H35652   3.236   9.109   0.237 -1.5711  1.0149  0.8467
 1005MOL0     H35653   3.041   9.036   0.071 -0.0569  2.1007  2.2848
 1005MOL0     H35654   3.215   9.010   0.046  0.6538  1.4772  0.7752
 1005MOL0     H35655   2.544   9.564   0.743  0.0913  0.7444 -0.2405
 1005MOL0     H35656   2.463   9.792   0.702 -1.8174 -1.8969 -1.7576
 1005MOL0     H35657   2.489  10.174   0.591  2.3287 -2.4052 -1.2230
 1005MOL0     H35658   2.392  10.412   0.535  1.4501 -0.7290  1.3714
 1005MOL0     H35659   0.669  10.525   0.866  1.4960  0.2553  0.7291
 1005MOL0     H35660   0.495  10.345   0.904 -0.0368 -2.7674  2.2630
 1005MOL0     H35661   0.261  10.068   0.954 -1.2476 -0.6661  0.6512
 1005MOL0     H35662   0.081   9.912   0.958  1.0772  0.9314 -1.2075
 1005MOL0     H35663   0.115   9.545   1.191  1.1760 -1.8831 -0.2305
 1005MOL0     H35664   0.186   9.472   1.039 -0.4511 -0.0227 -1.2117
 1005MOL0     H35665  -0.041   9.452   0.955  0.5507  1.1342 -0.0722
 1005MOL0     H35666  -0.111   9.503   1.116 -1.9458  0.1442 -2.0194
 1005MOL0     H35667   0.035   9.253   1.036  2.1898  0.5943  1.0097
 1005MOL0     H35668  -0.116   9.274   1.130 -0.0995  1.7153  1.1976
 1005MOL0     H35669   0.020   9.380   1.316 -0.1901 -2.1989  1.2358
 1005MOL0     H35670   0.047   9.209   1.310  0.9619 -0.6261 -0.0212
 1005MOL0     H35671   0.429   9.298   1.202  0.6883 -0.9958  1.2062
 1005MOL0     H35672   0.359   9.594   1.073  0.3434  1.2441  0.8949
 1005MOL0     H35673   0.648   9.777   1.011 -1.0554  2.0882  0.6473
 1005MOL0     H35674   0.605   9.724   1.170 -3.0295  0.3321  1.7959
 1005MOL0     H35675   0.578   9.624   1.025  0.8316 -0.6273  1.3769
 1006MOL0     O35676   3.591   4.623   3.568  0.0934  0.1311 -0.8002
 1006MOL0     C35677   3.655   4.701   3.637 -0.5531 -0.9734  0.0921
 1006MOL0     O35678   3.613   4.757   3.759  0.0973  0.0680  0.0811
 1006MOL0     C35679   3.476   4.778   3.758  0.6780  0.2398  0.2403
 1006MOL0     C35680   3.409   4.865   3.668 -0.3280 -0.6965 -0.8291
 1006MOL0     C35681   3.266   4.864   3.665 -0.5412  0.2175 -0.2150
 1006MOL0     C35682   3.194   4.777   3.745 -0.2213  0.9177 -0.7809
 1006MOL0     O35683   3.060   4.766   3.720 -0.0744 -0.1121  0.0708
 1006MOL0     C35684   2.974   4.880   3.742  0.8670  0.4029  0.2204
 1006MOL0     C35685   2.828   4.839   3.734  0.3582  0.2575 -0.2722
 1006MOL0     C35686   2.740   4.954   3.790 -0.1323  0.2136  0.3297
 1006MOL0     C35687   2.583   4.913   3.782 -0.3896  0.0735  0.1483
 1006MOL0     C35688   2.488   5.030   3.824  0.1787  0.3083  0.3026
 1006MOL0     C35689   2.478   5.060   3.966 -0.5974 -0.5819 -0.1132
 1006MOL0     C35690   2.399   5.174   4.018  0.3157  0.2961 -0.9588
 1006MOL0     C35691   2.261   5.192   3.953  0.5295  0.8632 -0.6396
 1006MOL0     N35692   2.195   5.293   4.032  0.0083 -0.5877  0.3995
 1006MOL0     C35693   2.248   5.421   4.056 -0.5646 -0.0047  0.2805
 1006MOL0     C35694   2.162   5.490   4.133 -0.2631  0.9610 -0.0086
 1006MOL0     C35695   2.186   5.629   4.187 -0.2656 -0.1968 -0.1869
 1006MOL0     C35696   2.263   5.627   4.316 -0.1025 -0.2401  0.0803
 1006MOL0     C35697   2.406   5.670   4.313 -0.4724 -1.0482 -0.5064
 1006MOL0     C35698   2.499   5.585   4.229  0.4473 -0.3568 -0.4273
 1006MOL0     O35699   2.500   5.444   4.248 -0.5655 -0.6082 -0.0004
 1006MOL0     C35700   2.618   5.379   4.223 -0.4073  0.7340  0.4700
 1006MOL0     C35701   2.720   5.430   4.141  0.1012  0.6898  0.4800
 1006MOL0     C35702   2.842   5.356   4.130  0.7007 -0.4067  0.6878
 1006MOL0     C35703   2.858   5.233   4.197 -0.6330 -0.1850 -0.5169
 1006MOL0     C35704   2.992   5.172   4.187  0.5681 -0.3273  1.0213
 1006MOL0     O35705   3.074   5.221   4.086  0.1329 -0.0730  0.2166
 1006MOL0     C35706   3.207   5.187   4.094 -0.3386  0.1440 -0.5250
 1006MOL0     C35707   3.263   5.112   3.998  0.3231  0.0276 -0.3685
 1006MOL0     C35708   3.398   5.064   4.010 -0.4056 -0.3569 -0.2013
 1006MOL0     C35709   3.473   5.092   4.123 -0.3315 -0.1725  0.0844
 1006MOL0     O35710   3.597   5.030   4.148 -0.4280 -0.2651  0.3013
 1006MOL0     C35711   3.639   4.932   4.046 -0.2043  0.5340  0.3726
 1006MOL0     C35712   3.790   4.901   4.069 -0.3358 -0.1442 -0.0459
 1006MOL0     C35713   3.867   5.032   4.059 -0.4479 -0.5384 -0.2695
 1006MOL0     C35714   4.011   4.989   4.084  0.1052 -1.1556 -0.3980
 1006MOL0     C35715   4.108   5.111   4.075 -0.1699 -0.2925  0.8216
 1006MOL0     C35716   4.143   5.163   3.929 -0.2160  0.5689  0.2839
 1006MOL0     C35717   4.204   5.309   3.940  0.5812 -0.0275  0.6713
 1006MOL0     C35718   4.275   5.348   3.815  0.2221  0.1287  0.6545
 1006MOL0    Cl35719   4.177   5.360   3.663  0.0172 -0.4858 -0.4634
 1006MOL0     C35720   3.413   5.168   4.229  0.2706 -0.4588  0.5845
 1006MOL0     C35721   3.284   5.217   4.207 -0.0771 -1.0728  0.1365
 1006MOL0     O35722   3.021   5.078   4.261 -0.1563  0.4899  0.1372
 1006MOL0     C35723   2.758   5.176   4.273  0.3891  0.0833 -0.1935
 1006MOL0     C35724   2.633   5.243   4.277 -0.7468  0.2065  0.5717
 1006MOL0     N35725   2.051   5.411   4.151 -0.7035 -0.1507 -0.3962
 1006MOL0     N35726   2.076   5.294   4.107  0.0416 -0.3442  0.2951
 1006MOL0     C35727   3.261   4.692   3.838  1.4711 -1.0372  0.1797
 1006MOL0     C35728   3.402   4.695   3.840  0.0875  0.8681  0.3171
 1006MOL0     C35729   3.801   4.726   3.603  0.0739 -0.8156 -0.1718
 1006MOL0     C35730   3.861   4.814   3.685 -1.1469  0.1785  0.7313
 1006MOL0     C35731   3.989   4.858   3.653  0.2788  0.5590 -0.5331
 1006MOL0     C35732   4.059   4.815   3.542  1.0093  0.1215  0.7396
 1006MOL0     O35733   4.178   4.867   3.511  1.1053 -0.4494 -0.4039
 1006MOL0     C35734   4.278   4.826   3.603  0.0422  0.7982  0.4340
 1006MOL0     C35735   4.401   4.765   3.541  0.1961 -0.4859 -0.1205
 1006MOL0     C35736   4.378   4.618   3.515  0.4404 -0.0791  0.0141
 1006MOL0     C35737   4.375   4.538   3.652  0.6924  0.5433 -0.2147
 1006MOL0     C35738   4.487   4.568   3.742 -0.8451 -0.2371 -0.3808
 1006MOL0     C35739   4.585   4.598   3.814  1.1395  0.6685 -0.5453
 1006MOL0     C35740   3.999   4.717   3.460  0.3778 -0.2295 -0.2080
 1006MOL0     C35741   3.864   4.681   3.484  0.0826  0.4949 -0.1484
 1006MOL0     C35742   3.802   4.588   3.392 -0.5893  0.1206  0.2177
 1006MOL0     H35743   3.472   4.931   3.609 -2.0037  3.3466  1.4973
 1006MOL0     H35744   3.216   4.925   3.591  0.1032  0.3511 -0.5470
 1006MOL0     H35745   2.985   4.915   3.845 -1.8476  0.6787  0.4790
 1006MOL0     H35746   2.990   4.964   3.673 -1.0285  1.0466  0.5183
 1006MOL0     H35747   2.816   4.752   3.799  1.8096  1.5108  1.7657
 1006MOL0     H35748   2.803   4.815   3.630  2.5820 -1.0311 -0.5598
 1006MOL0     H35749   2.758   5.055   3.754 -0.9164  0.5705  0.8949
 1006MOL0     H35750   2.764   4.948   3.897  0.6047 -2.5276  0.0827
 1006MOL0     H35751   2.562   4.873   3.682  1.6462 -2.6979  0.6937
 1006MOL0     H35752   2.574   4.834   3.858  2.9448  0.6604  1.3420
 1006MOL0     H35753   2.512   5.117   3.762  0.6190  1.3997  1.9460
 1006MOL0     H35754   2.386   5.000   3.799 -0.6810  0.4151  3.3641
 1006MOL0     H35755   2.432   4.968   4.006 -0.4903 -1.1468 -1.2578
 1006MOL0     H35756   2.581   5.058   4.003 -0.4392 -0.4228 -0.5447
 1006MOL0     H35757   2.460   5.263   3.999  1.3756 -0.2959 -0.4329
 1006MOL0     H35758   2.392   5.166   4.127  2.9974 -3.4013 -0.8757
 1006MOL0     H35759   2.277   5.236   3.854  1.2930  2.4913  0.1629
 1006MOL0     H35760   2.210   5.096   3.957 -0.1927  1.2930  2.3717
 1006MOL0     H35761   2.345   5.462   4.033 -1.9310  3.9870  0.8569
 1006MOL0     H35762   2.237   5.689   4.111  2.7710  1.0324  2.5747
 1006MOL0     H35763   2.087   5.675   4.193 -0.0678  0.1354  0.6346
 1006MOL0     H35764   2.217   5.698   4.386  0.5105 -0.2413  0.4919
 1006MOL0     H35765   2.249   5.526   4.357  1.4251 -0.9909 -1.1472
 1006MOL0     H35766   2.440   5.675   4.417  0.5737  0.6316 -0.8808
 1006MOL0     H35767   2.404   5.774   4.277 -2.4652 -1.5772 -2.1146
 1006MOL0     H35768   2.593   5.634   4.258 -0.6357  2.0009 -0.7124
 1006MOL0     H35769   2.474   5.604   4.124  0.3402  0.8218 -0.2006
 1006MOL0     H35770   2.726   5.530   4.098  1.2469  0.5893  0.3871
 1006MOL0     H35771   2.929   5.400   4.083  0.9633  0.7161  2.1387
 1006MOL0     H35772   3.209   5.085   3.908  0.5130 -0.2069 -0.4142
 1006MOL0     H35773   3.439   5.000   3.932 -0.8760 -1.8593  0.7404
 1006MOL0     H35774   3.578   4.841   4.047  1.8405 -0.9311 -0.4927
 1006MOL0     H35775   3.635   4.969   3.943  2.7990 -4.0167 -1.7350
 1006MOL0     H35776   3.803   4.844   4.161  0.1378 -0.5600 -0.3683
 1006MOL0     H35777   3.814   4.832   3.987  1.8322 -3.3368  3.0079
 1006MOL0     H35778   3.852   5.085   3.965 -1.4770 -1.2956 -0.5469
 1006MOL0     H35779   3.836   5.097   4.142  2.8986 -1.4151  1.8802
 1006MOL0     H35780   4.035   4.909   4.013 -1.1820 -0.0577 -2.1583
 1006MOL0     H35781   4.022   4.952   4.187 -1.3485 -0.4659  0.0250
 1006MOL0     H35782   4.205   5.086   4.119  1.2792 -0.6885 -2.2789
 1006MOL0     H35783   4.059   5.196   4.123 -1.2303  0.6158 -1.6877
 1006MOL0     H35784   4.211   5.101   3.870 -1.6278 -0.3623 -0.4063
 1006MOL0     H35785   4.055   5.179   3.865  0.0866 -0.9920 -0.5723
 1006MOL0     H35786   4.278   5.311   4.020  1.6842  0.7445 -0.3287
 1006MOL0     H35787   4.118   5.377   3.947 -0.6929 -0.8679 -3.5642
 1006MOL0     H35788   4.316   5.443   3.851 -0.2716  0.8597 -0.6464
 1006MOL0     H35789   4.361   5.282   3.802 -1.5643 -2.2440  0.2648
 1006MOL0     H35790   3.464   5.201   4.320 -0.0568 -0.1318  0.6492
 1006MOL0     H35791   3.235   5.278   4.282 -2.8679 -3.5543  0.4589
 1006MOL0     H35792   2.758   5.080   4.323  0.1000  1.0911  1.8238
 1006MOL0     H35793   2.539   5.203   4.315 -2.7505  0.9988 -3.0282
 1006MOL0     H35794   3.191   4.636   3.900 -1.4228  1.9257 -0.0906
 1006MOL0     H35795   3.453   4.621   3.900 -0.7149  0.5070  0.5793
 1006MOL0     H35796   3.816   4.853   3.776  0.4469 -0.1164  1.6826
 1006MOL0     H35797   4.030   4.932   3.721  0.4587 -1.1837  1.3544
 1006MOL0     H35798   4.245   4.770   3.691 -1.6258  0.6048 -0.2894
 1006MOL0     H35799   4.314   4.917   3.653 -0.0492  1.1210 -0.0808
 1006MOL0     H35800   4.487   4.769   3.610 -0.1794 -2.6065  0.5578
 1006MOL0     H35801   4.430   4.801   3.442  1.9358 -1.8951 -0.1754
 1006MOL0     H35802   4.455   4.568   3.456  2.1200  1.1935  1.0362
 1006MOL0     H35803   4.287   4.611   3.454  1.3696 -0.2811 -1.3905
 1006MOL0     H35804   4.282   4.551   3.707  1.1659 -0.7692  0.9369
 1006MOL0     H35805   4.389   4.436   3.617  3.9700  1.2203 -1.2456
 1006MOL0     H35806   4.664   4.624   3.882  2.1689 -1.3550 -0.8983
 1006MOL0     H35807   4.064   4.679   3.382  2.1133  0.9659  0.5880
 1006MOL0     H35808   3.716   4.634   3.342  0.1343  0.3772 -0.8246
 1006MOL0     H35809   3.872   4.552   3.316  1.0161  0.2850  1.5362
 1006MOL0     H35810   3.771   4.502   3.453  0.8861  2.0275  4.0086
 1007MOL0     O35811   7.112   5.623  10.556 -0.6164 -0.2972 -0.1578
 1007MOL0     C35812   7.174   5.716  10.604 -0.4000  0.3316 -0.3626
 1007MOL0     O35813   7.308   5.712  10.617 -0.8741  0.3579 -0.2206
 1007MOL0     C35814   7.397   5.598  10.613 -0.3341  1.1079  0.8361
 1007MOL0     C35815   7.527   5.618  10.558  0.0930 -0.0675  1.3622
 1007MOL0     C35816   7.622   5.509  10.547 -0.0489  0.1357  0.3032
 1007MOL0     C35817   7.595   5.380  10.598  0.5712  0.5536 -0.2093
 1007MOL0     O35818   7.706   5.297  10.597 -0.6046  0.6738 -0.4526
 1007MOL0     C35819   7.698   5.171  10.671 -0.1141  0.2344  0.1698
 1007MOL0     C35820   7.825   5.095  10.647 -0.1549  0.4113 -0.3433
 1007MOL0     C35821   7.940   5.158  10.715  1.2973 -0.9421 -0.2744
 1007MOL0     C35822   8.019   5.082  10.825  0.4307 -0.1854  0.1154
 1007MOL0     C35823   8.098   4.962  10.776  0.1578 -0.0965 -0.2967
 1007MOL0     C35824   8.159   4.878  10.896 -0.3522  0.0488  0.7927
 1007MOL0     C35825   8.282   4.803  10.842  0.4252  0.1926 -0.2257
 1007MOL0     C35826   8.264   4.727  10.716 -0.1665 -0.3664  0.7346
 1007MOL0     N35827   8.401   4.673  10.679  0.9936 -0.2701 -0.3979
 1007MOL0     C35828   8.443   4.547  10.712  0.2929 -0.3958  0.2378
 1007MOL0     C35829   8.571   4.538  10.666  0.0490 -0.2504  0.5562
 1007MOL0     C35830   8.666   4.425  10.655 -0.5074 -0.4445 -0.2808
 1007MOL0     C35831   8.801   4.461  10.595 -0.5379 -0.0224 -0.0188
 1007MOL0     C35832   8.903   4.367  10.641  0.4403 -0.0406  0.5561
 1007MOL0     C35833   9.039   4.389  10.564  0.6103 -0.3317  0.3221
 1007MOL0     O35834   9.145   4.305  10.620  0.0021  0.0965  0.3753
 1007MOL0     C35835   9.272   4.339  10.574  1.0909 -0.0525  0.2459
 1007MOL0     C35836   9.380   4.276  10.630 -1.4071  0.3335  0.1987
 1007MOL0     C35837   9.512   4.286  10.584 -0.5301 -0.2171  0.1497
 1007MOL0     C35838   9.538   4.358  10.466 -0.6245 -0.6500  0.5024
 1007MOL0     C35839   9.675   4.391  10.421  0.2807 -1.0042 -0.4011
 1007MOL0     O35840   9.775   4.356  10.510  0.1893 -0.5779  0.2349
 1007MOL0     C35841   9.899   4.417  10.486  0.3277  0.4722 -0.0523
 1007MOL0     C35842   9.983   4.370  10.380  0.5606 -0.1182  0.1754
 1007MOL0     C35843  10.104   4.431  10.357  0.1104  0.4037  0.0865
 1007MOL0     C35844  10.156   4.524  10.443  0.0418 -1.0081  0.2980
 1007MOL0     O35845  10.279   4.580  10.432 -0.3308 -0.0098  0.2515
 1007MOL0     C35846  10.335   4.587  10.300 -0.0415 -0.2177 -0.3527
 1007MOL0     C35847  10.443   4.693  10.288 -0.2071 -0.1941  0.1168
 1007MOL0     C35848  10.586   4.635  10.331 -0.9255 -0.3153 -0.3255
 1007MOL0     C35849  10.692   4.732  10.278  0.2294  1.1592  0.0248
 1007MOL0     C35850  10.825   4.698  10.348 -0.4809 -0.1559  0.6842
 1007MOL0     C35851  10.923   4.806  10.321  0.2990  0.9815 -0.8480
 1007MOL0     C35852  11.052   4.785  10.391 -0.1051 -0.4831  0.3826
 1007MOL0     C35853  11.165   4.880  10.343 -0.6520 -0.1425  0.6421
 1007MOL0    Cl35854  11.121   5.052  10.375  0.3599  0.0401 -0.0077
 1007MOL0     C35855  10.078   4.577  10.550 -0.1352 -0.1002  0.3330
 1007MOL0     C35856   9.951   4.516  10.571 -0.2196 -0.0583  0.4327
 1007MOL0     O35857   9.700   4.455  10.317  0.1730  0.0994  0.1257
 1007MOL0     C35858   9.431   4.415  10.405  0.7356  0.0632 -0.3841
 1007MOL0     C35859   9.301   4.406  10.459 -0.7475 -0.0219 -0.2882
 1007MOL0     N35860   8.605   4.669  10.626  0.0853 -0.0145 -0.0351
 1007MOL0     N35861   8.499   4.745  10.617 -0.4528 -0.0440  0.3664
 1007MOL0     C35862   7.477   5.368  10.668  0.6775  0.7548 -0.6885
 1007MOL0     C35863   7.378   5.470  10.679 -0.0219  0.1248 -0.3796
 1007MOL0     C35864   7.119   5.839  10.667  0.4312  0.3022  0.2233
 1007MOL0     C35865   7.203   5.936  10.714  0.4315 -0.6242  0.6142
 1007MOL0     C35866   7.152   6.063  10.765  0.2697  0.0777 -0.1111
 1007MOL0     C35867   7.014   6.086  10.768 -0.8080 -0.5140 -0.8157
 1007MOL0     O35868   6.979   6.214  10.796 -0.0082  0.3368  0.0446
 1007MOL0     C35869   6.867   6.223  10.882  0.9201 -0.2603 -0.2796
 1007MOL0     C35870   6.769   6.318  10.823 -0.7362 -0.1005  0.3508
 1007MOL0     C35871   6.700   6.263  10.697  1.0217 -0.4103  0.3856
 1007MOL0     C35872   6.587   6.362  10.649 -0.0859 -0.2206 -0.1594
 1007MOL0     C35873   6.483   6.387  10.742 -0.1967 -0.3788  0.3375
 1007MOL0     C35874   6.410   6.415  10.832  0.4259 -0.2568  0.4164
 1007MOL0     C35875   6.922   5.985  10.722 -0.6982 -0.1637  0.2033
 1007MOL0     C35876   6.977   5.867  10.673 -0.1471  0.9339 -0.4399
 1007MOL0     C35877   6.871   5.770  10.635  0.5510  0.3361 -0.1466
 1007MOL0     H35878   7.558   5.711  10.512 -1.4518 -0.4909 -0.6653
 1007MOL0     H35879   7.720   5.529  10.505 -0.2076  0.1689 -0.0561
 1007MOL0     H35880   7.687   5.189  10.779  1.9699 -1.6109  0.7476
 1007MOL0     H35881   7.608   5.116  10.642 -0.0199  0.4644 -0.5827
 1007MOL0     H35882   7.855   5.084  10.542  1.6265  0.2162  0.1427
 1007MOL0     H35883   7.815   4.997  10.695  0.3459  1.4114  1.9567
 1007MOL0     H35884   7.898   5.243  10.770 -1.9501 -2.6434  0.1331
 1007MOL0     H35885   8.011   5.185  10.637 -0.9979 -0.0229 -2.1771
 1007MOL0     H35886   8.082   5.154  10.879  0.1017  0.6376 -0.5840
 1007MOL0     H35887   7.940   5.048  10.891  0.1574 -0.7003 -0.4650
 1007MOL0     H35888   8.036   4.894  10.716 -0.0929  1.0818 -1.4278
 1007MOL0     H35889   8.175   5.003  10.711  0.2603 -0.8644 -0.6673
 1007MOL0     H35890   8.192   4.947  10.975  1.2398  0.3196 -0.0476
 1007MOL0     H35891   8.082   4.811  10.935 -2.8286  1.2732 -1.6503
 1007MOL0     H35892   8.304   4.731  10.922  0.4863  3.4678  2.9457
 1007MOL0     H35893   8.369   4.868  10.831  1.3472 -0.6127  1.8265
 1007MOL0     H35894   8.196   4.643  10.736 -1.6784  0.1592 -1.7488
 1007MOL0     H35895   8.224   4.788  10.634  2.0851  0.4756  0.1991
 1007MOL0     H35896   8.398   4.473  10.776 -2.3740 -0.9311 -2.0571
 1007MOL0     H35897   8.675   4.369  10.749 -0.5521 -3.5105 -1.9665
 1007MOL0     H35898   8.626   4.352  10.584  0.0648 -0.5592 -0.4902
 1007MOL0     H35899   8.777   4.455  10.489 -0.3865 -0.9120 -0.0154
 1007MOL0     H35900   8.832   4.562  10.621  0.0242  0.4239 -2.2001
 1007MOL0     H35901   8.869   4.269  10.607  0.9765  0.1444 -0.5588
 1007MOL0     H35902   8.929   4.370  10.747  4.8949 -1.5920 -0.2688
 1007MOL0     H35903   9.060   4.496  10.574  2.3029 -0.5618 -0.4641
 1007MOL0     H35904   9.012   4.368  10.460 -0.7174 -1.7420  0.9029
 1007MOL0     H35905   9.364   4.209  10.714 -2.7204  2.4866  1.7786
 1007MOL0     H35906   9.598   4.231  10.622 -0.1358  1.0623  1.2303
 1007MOL0     H35907   9.945   4.294  10.314  1.0266  1.8825 -2.5732
 1007MOL0     H35908  10.167   4.385  10.282 -2.2738 -0.4942 -1.4976
 1007MOL0     H35909  10.373   4.488  10.275  1.5802  0.3294 -0.1295
 1007MOL0     H35910  10.254   4.606  10.229  0.4235 -2.6111 -1.6362
 1007MOL0     H35911  10.454   4.734  10.187 -1.3840  1.0462  0.4736
 1007MOL0     H35912  10.416   4.776  10.354 -0.7879 -0.6040  0.3977
 1007MOL0     H35913  10.585   4.625  10.440 -4.2615  1.6843 -0.0332
 1007MOL0     H35914  10.603   4.545  10.271 -2.7521 -0.6478 -0.3775
 1007MOL0     H35915  10.654   4.834  10.283 -2.1236  0.3331 -0.0516
 1007MOL0     H35916  10.697   4.712  10.171  0.0648 -1.0506  0.3805
 1007MOL0     H35917  10.872   4.610  10.302  0.2427  1.0022 -0.8721
 1007MOL0     H35918  10.823   4.689  10.457  1.4241 -0.2158  0.7474
 1007MOL0     H35919  10.956   4.809  10.217  0.2781  0.1430 -0.8879
 1007MOL0     H35920  10.878   4.901  10.353  2.6095  1.4627  1.2743
 1007MOL0     H35921  11.092   4.684  10.393  2.3778  0.4157  3.3557
 1007MOL0     H35922  11.041   4.815  10.495  0.7369  1.4873 -0.0448
 1007MOL0     H35923  11.257   4.859  10.397  0.3355 -2.8463 -1.8294
 1007MOL0     H35924  11.181   4.858  10.237 -4.3310 -0.0322 -0.0745
 1007MOL0     H35925  10.116   4.654  10.617 -2.2339  2.6027 -1.3354
 1007MOL0     H35926   9.893   4.552  10.655 -3.5697 -2.0777 -0.8206
 1007MOL0     H35927   9.441   4.479  10.318 -1.0518  0.7527 -0.1331
 1007MOL0     H35928   9.224   4.460  10.406  0.2942  2.3766  0.5074
 1007MOL0     H35929   7.462   5.269  10.710 -0.6763  1.4675  0.6040
 1007MOL0     H35930   7.292   5.447  10.740 -0.6402 -2.5159 -2.0645
 1007MOL0     H35931   7.311   5.933  10.713  0.4623 -0.3355  1.5734
 1007MOL0     H35932   7.218   6.144  10.795  1.6787 -0.2943 -2.0212
 1007MOL0     H35933   6.908   6.253  10.979  1.1934 -3.1226  0.6008
 1007MOL0     H35934   6.817   6.127  10.898  0.1520 -0.0347 -1.2143
 1007MOL0     H35935   6.814   6.416  10.809  0.8754 -1.0383 -1.4798
 1007MOL0     H35936   6.691   6.325  10.900 -1.0897 -1.1541  0.1114
 1007MOL0     H35937   6.662   6.161  10.711 -1.4223  0.3105 -0.3766
 1007MOL0     H35938   6.771   6.247  10.615  2.0039 -1.0237  1.3336
 1007MOL0     H35939   6.635   6.454  10.613  2.1837 -2.4271 -3.2615
 1007MOL0     H35940   6.549   6.310  10.561  2.1352  0.6619 -1.7485
 1007MOL0     H35941   6.347   6.441  10.914  0.7757 -0.7928  0.8595
 1007MOL0     H35942   6.817   6.006  10.734 -0.4574  0.7669  0.7161
 1007MOL0     H35943   6.872   5.757  10.527 -0.3065  4.5096 -0.8312
 1007MOL0     H35944   6.876   5.672  10.684 -2.7133 -0.2075 -0.7062
 1007MOL0     H35945   6.771   5.806  10.659 -0.1680 -1.5605 -0.1081
 1008MOL0     O35946   4.450  10.676   0.531 -0.5310 -0.3987 -0.2065
 1008MOL0     C35947   4.390  10.634   0.440 -0.2567 -0.2945  1.2181
 1008MOL0     O35948   4.437  10.623   0.315 -0.3940  0.2029 -0.0222
 1008MOL0     C35949   4.567  10.658   0.285  1.2473 -0.8462  0.1908
 1008MOL0     C35950   4.590  10.714   0.159 -0.0364 -0.3743  0.2100
 1008MOL0     C35951   4.724  10.726   0.122 -0.6047 -0.0519 -0.3475
 1008MOL0     C35952   4.836  10.695   0.201  0.0860 -0.1484 -0.2666
 1008MOL0     O35953   4.964  10.712   0.147  0.2664 -0.3091  0.1208
 1008MOL0     C35954   5.078  10.753   0.229  0.9569  0.0897 -1.1603
 1008MOL0     C35955   5.194  10.746   0.138  0.1324  0.7322  0.0255
 1008MOL0     C35956   5.330  10.764   0.216  0.4860 -0.3758 -0.1264
 1008MOL0     C35957   5.449  10.688   0.156 -0.3798 -0.5899 -0.4681
 1008MOL0     C35958   5.563  10.783   0.180 -0.3556  0.4597  0.2516
 1008MOL0     C35959   5.689  10.702   0.136 -0.3724 -0.0236  0.3532
 1008MOL0     C35960   5.823  10.791   0.153  0.6286 -0.6480 -0.7928
 1008MOL0     C35961   5.880  10.812   0.295  0.4868  0.0295  0.0157
 1008MOL0     N35962   6.015  10.873   0.301  0.8189  0.1997 -0.4777
 1008MOL0     C35963   6.113  10.834   0.389 -0.7173 -0.1798  0.9396
 1008MOL0     C35964   6.210  10.926   0.363  0.2246  0.5410  0.2945
 1008MOL0     C35965   6.340  10.919   0.439  0.3784  0.8032  0.0505
 1008MOL0     C35966   6.454  10.865   0.353 -0.0859 -0.3702  0.7033
 1008MOL0     C35967   6.423  10.717   0.309  0.0374  0.1059  0.1622
 1008MOL0     C35968   6.522  10.661   0.216  0.2801 -0.1771  0.1583
 1008MOL0     O35969   6.646  10.687   0.275 -0.2943  0.4130 -0.2646
 1008MOL0     C35970   6.755  10.621   0.227 -1.1088  0.6307  0.2571
 1008MOL0     C35971   6.867  10.685   0.266  0.0136  0.7152 -0.8340
 1008MOL0     C35972   6.996  10.625   0.247  0.5704  0.2262 -0.5546
 1008MOL0     C35973   7.004  10.508   0.160 -0.2971  0.1232 -0.7680
 1008MOL0     C35974   7.125  10.440   0.124 -0.0413 -0.2546 -1.1446
 1008MOL0     O35975   7.240  10.485   0.184  0.3050 -0.5477  0.0522
 1008MOL0     C35976   7.359  10.449   0.131  0.3162  0.0407  0.4483
 1008MOL0     C35977   7.444  10.377   0.205 -0.0318 -0.4216 -0.5592
 1008MOL0     C35978   7.563  10.347   0.157 -0.3914 -0.2675 -0.0087
 1008MOL0     C35979   7.596  10.370   0.019 -0.5976 -0.7708  0.0938
 1008MOL0     O35980   7.712  10.320  -0.026 -0.7798 -0.3574  0.1357
 1008MOL0     C35981   7.760  10.352  -0.165  0.1386  0.5007 -0.7089
 1008MOL0     C35982   7.887  10.282  -0.217 -0.4458 -0.0268 -0.1707
 1008MOL0     C35983   8.018  10.311  -0.139  0.9297 -0.4321 -0.4959
 1008MOL0     C35984   8.140  10.265  -0.222 -1.4323  0.1949 -0.1566
 1008MOL0     C35985   8.278  10.314  -0.164  0.2413  0.3623 -0.6367
 1008MOL0     C35986   8.344  10.224  -0.058 -0.2490  0.9623 -0.5117
 1008MOL0     C35987   8.369  10.069  -0.088 -0.2936  0.4809 -0.5775
 1008MOL0     C35988   8.481  10.005  -0.009 -0.0070 -0.7889  0.2014
 1008MOL0    Cl35989   8.628  10.084  -0.027 -0.1049  0.0713 -0.2554
 1008MOL0     C35990   7.511  10.446  -0.058 -0.6990  0.9191  0.4433
 1008MOL0     C35991   7.391  10.483  -0.003  0.0111 -0.9782 -0.1069
 1008MOL0     O35992   7.125  10.357   0.035  0.2963 -0.6748  0.0483
 1008MOL0     C35993   6.882  10.460   0.110 -0.4365 -0.8664 -0.3731
 1008MOL0     C35994   6.754  10.514   0.149  1.1037  0.9377  0.1851
 1008MOL0     N35995   6.168  11.024   0.275  0.4422 -0.5348 -0.7882
 1008MOL0     N35996   6.046  10.992   0.245  0.0512  0.4326  0.2815
 1008MOL0     C35997   4.808  10.667   0.337 -0.3170 -0.0261  1.0922
 1008MOL0     C35998   4.675  10.646   0.378 -0.5043 -0.4454  0.7451
 1008MOL0     C35999   4.254  10.588   0.463 -0.3525 -0.1929 -0.1850
 1008MOL0     C36000   4.169  10.563   0.355 -0.4170 -0.4635  0.3799
 1008MOL0     C36001   4.039  10.510   0.359  0.7129 -1.0739  0.0267
 1008MOL0     C36002   3.979  10.496   0.482  0.6218 -0.1206 -0.2412
 1008MOL0     O36003   3.850  10.456   0.482  0.7779  0.6756  0.8289
 1008MOL0     C36004   3.794  10.440   0.612  0.0652  0.3194 -0.0595
 1008MOL0     C36005   3.644  10.391   0.618 -0.1429  0.7614  0.1204
 1008MOL0     C36006   3.558  10.483   0.533 -0.2238  0.4885  0.4151
 1008MOL0     C36007   3.416  10.487   0.579  0.4899 -0.0284  0.5091
 1008MOL0     C36008   3.328  10.507   0.465  0.1974 -0.1575 -0.5892
 1008MOL0     C36009   3.263  10.497   0.360 -0.0565  0.0257  0.8238
 1008MOL0     C36010   4.063  10.514   0.595  0.8542 -0.4540 -0.1907
 1008MOL0     C36011   4.198  10.544   0.590 -0.7672  0.5372 -0.7003
 1008MOL0     C36012   4.267  10.559   0.723 -0.0094 -0.8245  1.2829
 1008MOL0     H36013   4.509  10.734   0.090  0.1671 -1.8106 -0.4859
 1008MOL0     H36014   4.760  10.753   0.024  5.6226  2.2085  2.0485
 1008MOL0     H36015   5.067  10.853   0.272  2.4808  0.0585 -0.6489
 1008MOL0     H36016   5.087  10.684   0.314 -0.5431 -0.3347 -1.3196
 1008MOL0     H36017   5.190  10.825   0.062 -0.3282  2.5016  1.8340
 1008MOL0     H36018   5.197  10.648   0.089 -0.2103  0.9583 -0.4532
 1008MOL0     H36019   5.322  10.717   0.314  2.0159  1.4960  0.9588
 1008MOL0     H36020   5.349  10.870   0.232  0.8924 -0.4593 -0.0436
 1008MOL0     H36021   5.472  10.599   0.214  2.2425  1.8621  2.6684
 1008MOL0     H36022   5.435  10.661   0.051  0.6257 -1.2095 -0.4505
 1008MOL0     H36023   5.543  10.877   0.126 -0.4174  0.7114  0.7079
 1008MOL0     H36024   5.569  10.811   0.285 -1.8885  1.9959 -0.0293
 1008MOL0     H36025   5.712  10.616   0.199 -1.0017 -1.6697 -1.5495
 1008MOL0     H36026   5.676  10.672   0.032  1.0461 -0.8457  0.3932
 1008MOL0     H36027   5.801  10.894   0.121  1.7526  0.9961  3.0847
 1008MOL0     H36028   5.895  10.746   0.084 -0.3175  0.1853 -2.3820
 1008MOL0     H36029   5.805  10.878   0.339  1.5939  1.1495  0.2556
 1008MOL0     H36030   5.885  10.720   0.355  3.9516 -0.3212 -0.6364
 1008MOL0     H36031   6.115  10.757   0.466 -1.1698 -3.1834 -1.8491
 1008MOL0     H36032   6.361  11.013   0.493  2.9672 -2.0042  4.5709
 1008MOL0     H36033   6.323  10.850   0.522 -3.0693  0.4637 -0.7868
 1008MOL0     H36034   6.466  10.927   0.264 -4.1695 -1.9352 -1.2144
 1008MOL0     H36035   6.544  10.867   0.414  0.1180 -1.0252  0.4363
 1008MOL0     H36036   6.320  10.706   0.276 -0.1511 -0.6876  0.9593
 1008MOL0     H36037   6.427  10.641   0.388  0.9324 -1.2184 -1.1061
 1008MOL0     H36038   6.523  10.712   0.120  1.7913  0.9978  0.7549
 1008MOL0     H36039   6.493  10.558   0.192  2.1199 -1.3741  2.5343
 1008MOL0     H36040   6.876  10.772   0.331  1.6418 -0.8234  1.1492
 1008MOL0     H36041   7.082  10.666   0.298 -0.0833  0.3707  0.4720
 1008MOL0     H36042   7.419  10.376   0.311 -0.3706 -1.9704 -0.6317
 1008MOL0     H36043   7.629  10.288   0.220  1.5664  1.2719 -0.5103
 1008MOL0     H36044   7.683  10.339  -0.241  0.2308  1.9174 -1.0756
 1008MOL0     H36045   7.777  10.460  -0.162 -1.3082  0.7627  2.5747
 1008MOL0     H36046   7.871  10.175  -0.230 -1.3845  0.3849 -3.3251
 1008MOL0     H36047   7.897  10.321  -0.319 -0.5372 -1.1159 -0.6154
 1008MOL0     H36048   8.026  10.420  -0.126  1.0535 -0.4041 -0.7866
 1008MOL0     H36049   8.007  10.264  -0.041  0.8364 -1.3731 -0.9448
 1008MOL0     H36050   8.145  10.311  -0.321  0.8947 -3.1969 -1.8176
 1008MOL0     H36051   8.138  10.156  -0.232  3.0758 -0.3364  2.2571
 1008MOL0     H36052   8.257  10.414  -0.122 -0.8134  0.2737 -0.9091
 1008MOL0     H36053   8.353  10.332  -0.241 -0.9624 -0.1793 -1.9686
 1008MOL0     H36054   8.429  10.286  -0.030 -0.8598  2.3424 -1.5846
 1008MOL0     H36055   8.274  10.221   0.027  0.2315 -1.4463 -0.1291
 1008MOL0     H36056   8.398  10.057  -0.193  0.4291  0.2665 -0.3589
 1008MOL0     H36057   8.277  10.016  -0.062 -1.1211  2.4528  0.6848
 1008MOL0     H36058   8.460  10.019   0.098 -1.3253 -0.5558 -0.0614
 1008MOL0     H36059   8.480   9.898  -0.031 -0.7427 -0.4145 -1.8199
 1008MOL0     H36060   7.521  10.468  -0.164  2.0828  1.8379  0.8208
 1008MOL0     H36061   7.319  10.537  -0.063 -2.1523 -2.2150  1.2551
 1008MOL0     H36062   6.872  10.377   0.041 -0.6034  0.3633 -1.8589
 1008MOL0     H36063   6.660  10.470   0.117  0.5080  0.3014  2.5719
 1008MOL0     H36064   4.893  10.674   0.404 -0.5351  1.4872  1.2523
 1008MOL0     H36065   4.659  10.616   0.481  2.7771 -1.0016  1.1822
 1008MOL0     H36066   4.207  10.574   0.254 -2.7280  0.7646 -0.4310
 1008MOL0     H36067   3.976  10.483   0.275 -0.0359 -1.1730  0.6063
 1008MOL0     H36068   3.803  10.537   0.661  1.6789  0.5864 -0.7889
 1008MOL0     H36069   3.856  10.365   0.663  2.7864  1.3147 -1.7005
 1008MOL0     H36070   3.615  10.390   0.723  2.0040 -0.2850  0.7380
 1008MOL0     H36071   3.648  10.294   0.569  2.0369 -0.9669  3.3986
 1008MOL0     H36072   3.566  10.446   0.430 -0.9839 -0.8539  0.8112
 1008MOL0     H36073   3.594  10.585   0.547 -0.5966  0.5901  0.6388
 1008MOL0     H36074   3.391  10.389   0.621 -0.3035 -0.8226 -1.6854
 1008MOL0     H36075   3.396  10.574   0.642  1.4307 -0.0112  0.8077
 1008MOL0     H36076   3.187  10.498   0.285  0.0458 -1.8034  0.6521
 1008MOL0     H36077   4.027  10.504   0.697  2.9076 -1.6700  0.4835
 1008MOL0     H36078   4.364  10.508   0.717 -0.1569 -0.8827 -1.8939
 1008MOL0     H36079   4.283  10.661   0.757 -1.2300 -0.6944  1.4893
 1008MOL0     H36080   4.211  10.510   0.804  2.0227 -3.3640  1.3092
 1009MOL0     O36081   6.402   3.727   9.959  0.2903  0.0839 -0.1405
 1009MOL0     C36082   6.395   3.760  10.074  0.1493  0.0973  0.7115
 1009MOL0     O36083   6.283   3.809  10.135 -0.0847 -0.6824 -0.1075
 1009MOL0     C36084   6.175   3.845  10.057  0.1469  0.1728 -0.0666
 1009MOL0     C36085   6.181   3.917   9.939 -0.0173  0.2030 -1.3433
 1009MOL0     C36086   6.060   3.953   9.881 -0.7193  0.1991 -0.9307
 1009MOL0     C36087   5.941   3.925   9.934  0.5251  0.3558 -0.6664
 1009MOL0     O36088   5.811   3.954   9.886 -0.6174 -0.5433  0.0480
 1009MOL0     C36089   5.786   3.994   9.748 -0.0187  0.0178  0.0417
 1009MOL0     C36090   5.643   3.941   9.731 -0.8260 -0.7289  0.0522
 1009MOL0     C36091   5.591   3.973   9.583 -0.9692 -0.0009  0.4156
 1009MOL0     C36092   5.444   3.983   9.560 -0.1691 -0.6217  0.9897
 1009MOL0     C36093   5.396   4.003   9.415 -0.4927  0.0044 -0.0152
 1009MOL0     C36094   5.450   4.132   9.352  0.1005 -0.4667  0.6757
 1009MOL0     C36095   5.415   4.149   9.196 -0.1747 -0.6593 -0.4891
 1009MOL0     C36096   5.470   4.024   9.118  0.0213  0.1790 -0.3057
 1009MOL0     N36097   5.610   4.001   9.137 -0.7174 -0.1068 -0.4327
 1009MOL0     C36098   5.669   3.915   9.230  0.5325  0.3092 -0.0315
 1009MOL0     C36099   5.797   3.946   9.233  0.1814 -0.5048  1.7268
 1009MOL0     C36100   5.891   3.857   9.302  0.2432 -0.1050 -0.0654
 1009MOL0     C36101   6.028   3.850   9.248 -0.5762 -0.7070 -0.0113
 1009MOL0     C36102   6.035   3.762   9.123 -0.4743  1.0695  0.6433
 1009MOL0     C36103   6.166   3.773   9.050  0.0839  0.2024  0.0818
 1009MOL0     O36104   6.272   3.731   9.136  0.3038  0.4393  0.6565
 1009MOL0     C36105   6.402   3.736   9.094 -0.6170 -0.0302  0.3943
 1009MOL0     C36106   6.443   3.783   8.964  0.0369 -0.4739  0.1079
 1009MOL0     C36107   6.580   3.798   8.937 -0.0793  0.2255  0.4221
 1009MOL0     C36108   6.679   3.763   9.032 -0.8191  0.0946 -0.0617
 1009MOL0     C36109   6.821   3.754   8.979  0.2283  0.2575 -0.9745
 1009MOL0     O36110   6.837   3.762   8.840 -0.4078 -0.5618 -0.0236
 1009MOL0     C36111   6.957   3.727   8.784 -0.3391 -0.4866  0.2108
 1009MOL0     C36112   7.000   3.789   8.660 -0.4267 -0.1560 -1.2553
 1009MOL0     C36113   7.117   3.736   8.602 -0.7475 -1.1007 -0.4316
 1009MOL0     C36114   7.193   3.634   8.672 -0.0767  0.6887 -0.5126
 1009MOL0     O36115   7.317   3.583   8.643 -0.1641 -0.0528 -0.5573
 1009MOL0     C36116   7.362   3.607   8.507  0.6317 -0.1379 -0.7256
 1009MOL0     C36117   7.366   3.459   8.455 -0.4508  0.7481  0.9423
 1009MOL0     C36118   7.227   3.400   8.418 -0.1760  0.5200  0.3710
 1009MOL0     C36119   7.182   3.284   8.509 -0.7747  0.4295  1.2955
 1009MOL0     C36120   7.043   3.218   8.480 -0.2709 -0.0377 -0.1161
 1009MOL0     C36121   7.055   3.098   8.377 -0.0587 -0.2369 -0.8493
 1009MOL0     C36122   6.932   3.022   8.332  1.1720 -0.2144  0.0393
 1009MOL0     C36123   6.837   2.989   8.447 -0.5978 -0.1132 -0.3040
 1009MOL0    Cl36124   6.718   2.878   8.383 -0.0255 -0.2137 -0.3757
 1009MOL0     C36125   7.143   3.573   8.779  0.2102  0.0657 -0.2828
 1009MOL0     C36126   7.024   3.607   8.827 -0.5185 -0.9011  0.1673
 1009MOL0     O36127   6.906   3.745   9.070  0.0117  0.6274  0.7056
 1009MOL0     C36128   6.635   3.713   9.159  0.0660 -0.2742 -0.6010
 1009MOL0     C36129   6.500   3.700   9.186 -0.2980 -0.1445 -0.0343
 1009MOL0     N36130   5.820   4.053   9.141  1.6419  0.7228 -0.0938
 1009MOL0     N36131   5.709   4.081   9.085 -0.7122  0.0103  0.2530
 1009MOL0     C36132   5.940   3.844  10.050  0.0721 -0.0233  0.0312
 1009MOL0     C36133   6.055   3.807  10.115  0.7229  0.6925 -0.3637
 1009MOL0     C36134   6.499   3.712  10.167  0.7117  0.0118  0.3624
 1009MOL0     C36135   6.467   3.711  10.301 -0.0251  0.2872  0.0652
 1009MOL0     C36136   6.560   3.677  10.393  0.1474  0.1685  0.1741
 1009MOL0     C36137   6.690   3.654  10.357  0.4223 -0.0735  0.1488
 1009MOL0     O36138   6.790   3.633  10.446 -0.2559 -0.3814 -0.0821
 1009MOL0     C36139   6.770   3.674  10.583 -0.1356  0.1000  0.0904
 1009MOL0     C36140   6.903   3.663  10.661 -0.3575 -0.7703  0.6443
 1009MOL0     C36141   6.936   3.524  10.691  0.5559  0.3852  0.0906
 1009MOL0     C36142   7.037   3.494  10.798 -0.0476 -0.6574 -0.3339
 1009MOL0     C36143   7.155   3.585  10.780  0.4259  0.2636 -0.5919
 1009MOL0     C36144   7.260   3.645  10.755 -0.9072  0.6793 -0.6550
 1009MOL0     C36145   6.719   3.648  10.220 -0.0489 -0.7104  0.5632
 1009MOL0     C36146   6.629   3.683  10.127  0.3708 -0.0796  0.8945
 1009MOL0     C36147   6.675   3.678   9.982  0.0904 -0.2209 -0.1754
 1009MOL0     H36148   6.279   3.953   9.909  1.1610 -0.9756  0.8466
 1009MOL0     H36149   6.069   4.024   9.799 -1.4945  1.4763  0.0518
 1009MOL0     H36150   5.796   4.102   9.732 -0.6631  0.5792  2.7953
 1009MOL0     H36151   5.854   3.938   9.684  0.5473 -0.2501  0.8596
 1009MOL0     H36152   5.574   3.977   9.807 -0.2116  0.1551  0.2066
 1009MOL0     H36153   5.657   3.833   9.736 -1.8652 -0.8397  0.7628
 1009MOL0     H36154   5.629   3.891   9.520  0.7444  1.6556 -0.8294
 1009MOL0     H36155   5.639   4.063   9.543  0.6036  0.6157  3.4297
 1009MOL0     H36156   5.396   3.894   9.599 -0.7627  0.7955  3.7565
 1009MOL0     H36157   5.407   4.059   9.629 -0.6558  1.0503 -0.9769
 1009MOL0     H36158   5.429   3.912   9.365  2.1338 -1.5315  4.0480
 1009MOL0     H36159   5.286   4.003   9.410 -0.4525  0.2803 -2.2076
 1009MOL0     H36160   5.406   4.216   9.406 -0.2912  1.2077 -2.0665
 1009MOL0     H36161   5.559   4.128   9.352  0.1182  0.0161 -0.1181
 1009MOL0     H36162   5.474   4.232   9.157 -1.6894 -0.3148 -2.2180
 1009MOL0     H36163   5.307   4.160   9.181 -0.3865 -2.1572 -0.2232
 1009MOL0     H36164   5.423   3.929   9.146  0.0510  0.6969  1.6605
 1009MOL0     H36165   5.453   4.042   9.012 -0.6654 -0.4753 -0.3131
 1009MOL0     H36166   5.616   3.839   9.287 -0.1627  2.1661  1.9481
 1009MOL0     H36167   5.899   3.900   9.402 -0.4324 -0.2863  0.0761
 1009MOL0     H36168   5.859   3.752   9.312  0.0279 -0.2054 -1.5962
 1009MOL0     H36169   6.073   3.943   9.214 -1.2823 -1.4951 -3.4930
 1009MOL0     H36170   6.093   3.803   9.322  1.4453 -2.2086 -2.5754
 1009MOL0     H36171   5.953   3.783   9.054  0.2149  1.7000 -0.0012
 1009MOL0     H36172   6.022   3.657   9.151  0.4395  1.4148  2.5663
 1009MOL0     H36173   6.176   3.876   9.014  0.2359 -0.8503 -3.2522
 1009MOL0     H36174   6.162   3.705   8.964 -0.2454  0.6059 -0.2266
 1009MOL0     H36175   6.371   3.816   8.890 -0.1085  1.0375  0.8829
 1009MOL0     H36176   6.601   3.853   8.846 -2.4247  0.6055  0.0394
 1009MOL0     H36177   6.926   3.858   8.621 -1.3071 -1.5030 -2.0573
 1009MOL0     H36178   7.161   3.799   8.526 -2.8841  0.0571 -0.7829
 1009MOL0     H36179   7.292   3.667   8.449 -2.4404 -0.2040  2.5822
 1009MOL0     H36180   7.458   3.659   8.514  1.0043 -0.3964 -3.1533
 1009MOL0     H36181   7.445   3.438   8.382  0.9805  1.7243  2.1461
 1009MOL0     H36182   7.411   3.395   8.532  1.4588  0.0915 -0.6355
 1009MOL0     H36183   7.150   3.476   8.431  1.3706  2.1128  0.5637
 1009MOL0     H36184   7.217   3.366   8.314 -0.6076  0.7529  0.3359
 1009MOL0     H36185   7.178   3.335   8.606 -0.7729 -2.0668  2.7147
 1009MOL0     H36186   7.259   3.206   8.511  1.1785  2.2729  1.9098
 1009MOL0     H36187   6.970   3.288   8.437  0.2917  1.0319  0.6446
 1009MOL0     H36188   7.006   3.179   8.575 -0.4152  2.1891  0.8040
 1009MOL0     H36189   7.103   3.143   8.289 -0.0053 -0.7511 -1.0866
 1009MOL0     H36190   7.127   3.025   8.416  0.1933  0.7515  0.6002
 1009MOL0     H36191   6.962   2.932   8.278  1.0403 -0.5012  0.4409
 1009MOL0     H36192   6.867   3.078   8.264  0.1595  0.2937  1.3883
 1009MOL0     H36193   6.905   2.954   8.525 -0.4796  0.1422 -0.2872
 1009MOL0     H36194   6.789   3.076   8.492 -0.0969  0.4318 -0.7874
 1009MOL0     H36195   7.199   3.494   8.828  1.0984  0.2185 -1.0237
 1009MOL0     H36196   6.990   3.547   8.911 -0.7253 -1.5196 -0.3472
 1009MOL0     H36197   6.703   3.684   9.237  0.1475 -2.9982 -1.6004
 1009MOL0     H36198   6.475   3.637   9.271 -0.5505 -0.3152 -0.2322
 1009MOL0     H36199   5.841   3.820  10.087 -0.1641 -3.3793 -2.3248
 1009MOL0     H36200   6.054   3.746  10.205 -1.4006  2.3466  0.8329
 1009MOL0     H36201   6.369   3.739  10.338 -0.9164  0.8507 -2.4644
 1009MOL0     H36202   6.531   3.679  10.498 -2.0974  0.8491 -0.3942
 1009MOL0     H36203   6.696   3.616  10.639 -0.3009 -0.2780 -0.5182
 1009MOL0     H36204   6.738   3.779  10.586  2.2245  0.8728  2.1012
 1009MOL0     H36205   6.902   3.732  10.746  1.8803  0.9055 -0.5722
 1009MOL0     H36206   6.975   3.708  10.592 -4.4473  1.5306 -2.5684
 1009MOL0     H36207   6.967   3.474  10.599  1.5482 -1.6887  1.4630
 1009MOL0     H36208   6.844   3.471  10.719  0.5847  0.3012  0.0292
 1009MOL0     H36209   6.983   3.505  10.892 -2.2396 -0.2772 -1.5686
 1009MOL0     H36210   7.074   3.392  10.790 -4.9692 -2.8468  1.4272
 1009MOL0     H36211   7.349   3.701  10.733  1.9096 -3.4009 -0.6988
 1009MOL0     H36212   6.823   3.633  10.192  0.4037 -0.7528  2.1479
 1009MOL0     H36213   6.660   3.777   9.938  0.5542  0.0457  0.2450
 1009MOL0     H36214   6.777   3.641   9.968 -0.4134 -1.4998 -0.5117
 1009MOL0     H36215   6.612   3.606   9.930 -0.9295  1.0846 -0.7998
 1010MOL0     O36216   5.848   9.720  10.847  0.6900 -0.2237 -0.0350
 1010MOL0     C36217   5.780   9.710  10.746 -0.2583  0.1776  0.7710
 1010MOL0     O36218   5.807   9.624  10.641  0.0706  0.2206 -0.2398
 1010MOL0     C36219   5.933   9.566  10.665 -0.2519  0.6950 -0.3367
 1010MOL0     C36220   5.930   9.437  10.722  0.2249  0.1423  1.0318
 1010MOL0     C36221   6.042   9.383  10.771  0.3945  0.5473  0.2274
 1010MOL0     C36222   6.158   9.458  10.761 -0.0628  0.4764  0.0894
 1010MOL0     O36223   6.264   9.403  10.818  1.4958 -0.3780 -0.1517
 1010MOL0     C36224   6.320   9.281  10.773  0.6429  0.4169 -0.4777
 1010MOL0     C36225   6.469   9.280  10.807  0.1239 -0.2680  0.0545
 1010MOL0     C36226   6.551   9.397  10.748 -0.2294  0.5921 -0.8093
 1010MOL0     C36227   6.682   9.390  10.810  0.0739 -0.7543 -0.0880
 1010MOL0     C36228   6.771   9.506  10.770  0.6041  0.6168  0.1564
 1010MOL0     C36229   6.917   9.491  10.818 -0.0481  0.8309 -0.5036
 1010MOL0     C36230   7.002   9.610  10.784  0.7525 -0.1984 -0.2953
 1010MOL0     C36231   7.134   9.595  10.848 -0.1821  0.5987  0.4908
 1010MOL0     N36232   7.232   9.689  10.794 -0.5113 -0.6899  0.1808
 1010MOL0     C36233   7.273   9.799  10.862 -0.1002  0.1674  0.5216
 1010MOL0     C36234   7.332   9.870  10.768  0.3424  0.4790  0.3137
 1010MOL0     C36235   7.392  10.008  10.787 -0.3546  0.9758  0.5479
 1010MOL0     C36236   7.539   9.997  10.827 -0.0805  0.0745 -0.1228
 1010MOL0     C36237   7.610  10.134  10.814  0.5861  0.2789  0.7370
 1010MOL0     C36238   7.763  10.126  10.846  0.0616  0.2960 -0.4808
 1010MOL0     O36239   7.826  10.038  10.749 -0.0054  0.5364 -0.4475
 1010MOL0     C36240   7.961  10.043  10.745 -0.4635 -0.0088 -0.1174
 1010MOL0     C36241   8.007   9.949  10.648  0.1470  0.2184  0.1367
 1010MOL0     C36242   8.142   9.944  10.616  0.2394  0.5067  1.2844
 1010MOL0     C36243   8.236  10.018  10.683 -0.1434 -0.1611 -0.0052
 1010MOL0     C36244   8.387  10.004  10.666 -1.2419 -0.3240  0.4917
 1010MOL0     O36245   8.462  10.017  10.780 -0.1466 -0.2884 -0.2162
 1010MOL0     C36246   8.600  10.018  10.793  0.0939 -0.6442  0.0257
 1010MOL0     C36247   8.692   9.964  10.700  0.4376 -0.0806 -0.2053
 1010MOL0     C36248   8.829   9.968  10.729 -0.6106  0.3012  0.0481
 1010MOL0     C36249   8.880  10.017  10.849  0.2560  0.9111 -0.5699
 1010MOL0     O36250   9.017  10.014  10.867 -0.3807  0.0419  0.5820
 1010MOL0     C36251   9.062  10.015  11.009 -0.2410  0.0082  0.1359
 1010MOL0     C36252   9.199   9.949  11.024  0.0731 -0.5400  0.6079
 1010MOL0     C36253   9.297  10.033  10.939  0.1439 -0.5353  0.0532
 1010MOL0     C36254   9.434  10.008  10.982 -0.3000  0.0820 -0.5029
 1010MOL0     C36255   9.513  10.067  10.867 -0.0155  0.3397 -0.5311
 1010MOL0     C36256   9.664  10.065  10.878  0.4239  0.6084 -0.0071
 1010MOL0     C36257   9.727  10.175  10.801 -0.2468 -0.0087  0.3925
 1010MOL0     C36258   9.873  10.157  10.792 -0.2529  0.0287  0.8359
 1010MOL0    Cl36259   9.906  10.039  10.663 -0.2095  0.5056  0.0620
 1010MOL0     C36260   8.789  10.070  10.940 -0.4379 -0.1995 -0.5596
 1010MOL0     C36261   8.647  10.059  10.914 -0.2997  1.3645 -0.0169
 1010MOL0     O36262   8.436   9.978  10.559  0.1913  0.4793  0.2524
 1010MOL0     C36263   8.199  10.109  10.775  0.5453 -0.8666 -0.5728
 1010MOL0     C36264   8.058  10.124  10.806  0.4716  0.0802 -1.1649
 1010MOL0     N36265   7.350   9.789  10.658  1.0314  0.0172 -0.6970
 1010MOL0     N36266   7.292   9.676  10.673 -0.4736  0.6327  0.1310
 1010MOL0     C36267   6.170   9.571  10.691  0.5137 -0.1927  0.0423
 1010MOL0     C36268   6.059   9.633  10.640 -0.3014 -0.0578 -0.0910
 1010MOL0     C36269   5.663   9.788  10.718  0.0092 -0.1181 -0.1863
 1010MOL0     C36270   5.603   9.781  10.592 -0.4922 -0.1438 -0.2972
 1010MOL0     C36271   5.484   9.860  10.552 -0.5899 -0.2876  0.0854
 1010MOL0     C36272   5.450   9.964  10.637  0.4649 -0.2388  0.0657
 1010MOL0     O36273   5.358  10.060  10.603 -0.0169  0.2543  0.1267
 1010MOL0     C36274   5.268  10.034  10.497 -0.7698 -0.1273  0.9745
 1010MOL0     C36275   5.195  10.166  10.489 -0.2059 -1.1694 -0.1445
 1010MOL0     C36276   5.113  10.210  10.609 -0.1857  0.3059 -0.5850
 1010MOL0     C36277   5.034  10.096  10.690  1.1314 -0.6506  0.0777
 1010MOL0     C36278   4.920  10.040  10.603 -0.2005 -0.3517  0.3645
 1010MOL0     C36279   4.847  10.003  10.515 -0.4289 -0.1356 -0.1806
 1010MOL0     C36280   5.501   9.973  10.763 -0.7634 -0.3986  0.8750
 1010MOL0     C36281   5.606   9.888  10.805 -0.6749 -0.1170  0.2429
 1010MOL0     C36282   5.660   9.930  10.946 -0.2069  0.0087  0.5507
 1010MOL0     H36283   5.829   9.397  10.723 -0.2861  1.3800  0.6226
 1010MOL0     H36284   6.035   9.300  10.841  4.6249 -0.6566 -0.4751
 1010MOL0     H36285   6.284   9.192  10.826  2.4423 -1.1232 -1.6849
 1010MOL0     H36286   6.312   9.266  10.665 -1.5799  0.0380 -0.3085
 1010MOL0     H36287   6.512   9.187  10.768  2.5039  1.0374 -0.6240
 1010MOL0     H36288   6.480   9.290  10.916  0.0339  0.4026  0.0023
 1010MOL0     H36289   6.519   9.498  10.776  1.6939  1.1334 -0.4721
 1010MOL0     H36290   6.546   9.392  10.639 -0.2177 -0.8003 -0.7599
 1010MOL0     H36291   6.671   9.399  10.919  3.6788  2.1082  0.2116
 1010MOL0     H36292   6.735   9.296  10.793  1.7669 -0.3102  2.1759
 1010MOL0     H36293   6.778   9.521  10.662  1.1802 -5.2433 -0.9152
 1010MOL0     H36294   6.723   9.597  10.808 -1.1653 -0.6245  1.0273
 1010MOL0     H36295   6.921   9.466  10.925 -0.0761 -1.3686 -0.9732
 1010MOL0     H36296   6.954   9.404  10.764 -2.7734 -1.0842  0.5297
 1010MOL0     H36297   6.953   9.702  10.818 -1.2675 -1.1521 -0.4859
 1010MOL0     H36298   7.005   9.623  10.676  0.7816 -1.7932 -0.5034
 1010MOL0     H36299   7.126   9.617  10.955  0.1203  0.3983  0.5536
 1010MOL0     H36300   7.176   9.495  10.836 -0.0680  0.7642 -0.5495
 1010MOL0     H36301   7.247   9.839  10.959  1.1432  0.9490  0.5637
 1010MOL0     H36302   7.382  10.063  10.693  0.0555  2.4724  1.3507
 1010MOL0     H36303   7.344  10.063  10.868 -1.6212  0.2423  0.3296
 1010MOL0     H36304   7.547   9.954  10.927  1.2400 -0.9778 -0.6623
 1010MOL0     H36305   7.574   9.932  10.746 -0.4111 -0.2291 -0.0249
 1010MOL0     H36306   7.557  10.210  10.872 -1.2218  1.4984 -2.2608
 1010MOL0     H36307   7.607  10.161  10.708  1.9743  3.7971  1.4269
 1010MOL0     H36308   7.770  10.084  10.947  2.1685  0.8771 -0.3456
 1010MOL0     H36309   7.808  10.225  10.854  0.2321  0.1156  1.0401
 1010MOL0     H36310   7.940   9.875  10.606 -0.6606  0.3951  1.0888
 1010MOL0     H36311   8.175   9.874  10.539 -0.7327  2.0924 -0.6777
 1010MOL0     H36312   8.656   9.909  10.613  0.3547  0.8317 -0.7541
 1010MOL0     H36313   8.896   9.922  10.658  0.0575 -0.2037  0.9744
 1010MOL0     H36314   9.063  10.113  11.057  0.9614 -0.3598  0.9036
 1010MOL0     H36315   8.981   9.959  11.056 -0.5821  1.8520  1.8616
 1010MOL0     H36316   9.214   9.962  11.132 -0.5605  2.8561  0.3797
 1010MOL0     H36317   9.197   9.843  10.996 -0.5019 -0.4079  0.1312
 1010MOL0     H36318   9.277   9.981  10.845 -2.0397  2.8489 -1.5260
 1010MOL0     H36319   9.269  10.138  10.932  2.4142  0.0736 -0.8209
 1010MOL0     H36320   9.462   9.903  10.995  1.5883  0.4711 -1.1505
 1010MOL0     H36321   9.458  10.062  11.073 -1.3935  0.1809 -0.2667
 1010MOL0     H36322   9.496  10.174  10.853  5.3044  1.3447 -1.4458
 1010MOL0     H36323   9.479  10.017  10.776 -2.3519 -1.1082  1.0308
 1010MOL0     H36324   9.694  10.059  10.983 -1.7342 -6.0159  0.7062
 1010MOL0     H36325   9.697   9.967  10.844 -0.1242  0.0732  0.9602
 1010MOL0     H36326   9.713  10.269  10.855  1.0317  0.3440  0.1208
 1010MOL0     H36327   9.676  10.178  10.704 -0.5881  0.0859  0.5732
 1010MOL0     H36328   9.910  10.253  10.755  2.4014 -0.7347  1.2802
 1010MOL0     H36329   9.927  10.126  10.882  2.7027 -0.2270 -0.8843
 1010MOL0     H36330   8.814  10.131  11.026  0.2191  0.7009 -1.3520
 1010MOL0     H36331   8.572  10.079  10.989 -0.0891 -1.0601  0.9288
 1010MOL0     H36332   8.262  10.171  10.839 -3.5343  2.3328  0.7883
 1010MOL0     H36333   8.017  10.193  10.879  0.9576 -1.4019  0.5820
 1010MOL0     H36334   6.268   9.610  10.667  0.3351 -0.1303 -0.6244
 1010MOL0     H36335   6.064   9.720  10.575 -0.0505  0.2989  0.4001
 1010MOL0     H36336   5.633   9.709  10.517 -1.5018 -1.6273  0.6655
 1010MOL0     H36337   5.441   9.827  10.458 -0.0935 -3.1496  0.7524
 1010MOL0     H36338   5.191   9.960  10.523 -2.8475  2.3302  2.2750
 1010MOL0     H36339   5.313  10.012  10.400  1.6540  1.7260  1.5913
 1010MOL0     H36340   5.117  10.150  10.414  0.2663 -1.8271 -0.5055
 1010MOL0     H36341   5.266  10.240  10.453 -1.7644 -1.2466 -3.7988
 1010MOL0     H36342   5.035  10.283  10.584  0.8823  1.0717 -1.8211
 1010MOL0     H36343   5.179  10.266  10.675  0.0092 -0.2018 -0.3420
 1010MOL0     H36344   5.103  10.014  10.710  0.5871 -1.5939 -1.6937
 1010MOL0     H36345   4.983  10.139  10.777 -1.1878 -1.5068 -0.7802
 1010MOL0     H36346   4.792   9.971  10.429  2.7219 -0.2181 -2.3742
 1010MOL0     H36347   5.466  10.057  10.822 -0.1691  1.2765 -1.0411
 1010MOL0     H36348   5.683   9.839  11.001  2.7505  0.6196  0.4595
 1010MOL0     H36349   5.749   9.991  10.928 -1.7565  1.5726 -2.8158
 1010MOL0     H36350   5.586   9.985  11.006 -1.7685 -1.4622  0.0645
 1011MOL0     O36351   3.236   4.194   4.027  0.0519  0.2627 -0.1431
 1011MOL0     C36352   3.189   4.284   3.958  0.1056 -0.1660 -0.3107
 1011MOL0     O36353   3.261   4.358   3.870  0.7046 -0.4468 -0.2849
 1011MOL0     C36354   3.399   4.360   3.881  0.5893  0.1226  0.4890
 1011MOL0     C36355   3.468   4.344   4.000  0.0184 -0.0778 -0.2469
 1011MOL0     C36356   3.613   4.331   4.001  0.2876 -0.6433 -0.1197
 1011MOL0     C36357   3.689   4.371   3.888  0.1050 -0.1816 -0.2162
 1011MOL0     O36358   3.830   4.377   3.870  0.3694 -1.0338 -0.3832
 1011MOL0     C36359   3.894   4.441   3.984  1.3678  0.0037  0.4934
 1011MOL0     C36360   4.036   4.493   3.941 -0.1881 -0.2403 -0.0441
 1011MOL0     C36361   4.085   4.596   4.038 -0.1898 -0.6763 -0.6831
 1011MOL0     C36362   4.123   4.530   4.174  0.3388 -1.2052 -0.2965
 1011MOL0     C36363   4.179   4.631   4.266  0.9306  0.0240  0.4648
 1011MOL0     C36364   4.073   4.686   4.362  0.4194 -0.3660 -0.3687
 1011MOL0     C36365   4.144   4.797   4.445 -0.6664  0.4312 -0.0926
 1011MOL0     C36366   4.210   4.726   4.569  0.3045  0.3704  0.4855
 1011MOL0     N36367   4.320   4.798   4.623 -0.2713 -0.3194 -0.7159
 1011MOL0     C36368   4.316   4.928   4.648  0.7384  0.8102  0.6992
 1011MOL0     C36369   4.443   4.965   4.656 -0.3178 -0.2535  0.4506
 1011MOL0     C36370   4.505   5.099   4.642  0.8279 -0.2830  0.4663
 1011MOL0     C36371   4.501   5.141   4.495 -0.1387  0.3873 -0.8872
 1011MOL0     C36372   4.573   5.276   4.477 -0.2116  0.3022 -0.3812
 1011MOL0     C36373   4.723   5.264   4.472 -0.8968 -0.3822 -0.0329
 1011MOL0     O36374   4.765   5.190   4.353  0.5715 -0.1592 -0.2983
 1011MOL0     C36375   4.895   5.211   4.314  0.2275  0.2152  1.0080
 1011MOL0     C36376   5.017   5.249   4.382 -0.2830  0.1431 -0.8615
 1011MOL0     C36377   5.141   5.268   4.320  0.4454  0.6703 -0.2379
 1011MOL0     C36378   5.145   5.259   4.179  1.0146  0.5058 -1.1641
 1011MOL0     C36379   5.272   5.288   4.103 -0.7282  1.2975 -0.0214
 1011MOL0     O36380   5.366   5.349   4.183  0.8213  0.1902 -0.6861
 1011MOL0     C36381   5.494   5.387   4.142  0.0415 -0.2102  0.7543
 1011MOL0     C36382   5.565   5.334   4.032  0.0425 -0.3464 -0.1942
 1011MOL0     C36383   5.693   5.370   4.003 -0.0438  0.8215 -0.3964
 1011MOL0     C36384   5.758   5.467   4.080  0.6671 -0.0167 -0.4086
 1011MOL0     O36385   5.874   5.520   4.033  0.4657 -0.1200  0.0775
 1011MOL0     C36386   5.982   5.460   4.105 -0.4437  0.0585 -0.3397
 1011MOL0     C36387   6.108   5.509   4.050 -0.0562  0.3455  0.0897
 1011MOL0     C36388   6.121   5.667   4.067  0.0741  0.0602  0.0066
 1011MOL0     C36389   6.266   5.708   4.062 -1.2409 -0.6437 -0.0661
 1011MOL0     C36390   6.266   5.855   4.097 -0.2909  0.1587  0.1187
 1011MOL0     C36391   6.403   5.931   4.074 -0.1340 -0.1361 -0.0292
 1011MOL0     C36392   6.394   6.082   4.111 -0.0621  0.2501 -0.2219
 1011MOL0     C36393   6.510   6.172   4.047  0.1266 -0.1792  0.2270
 1011MOL0    Cl36394   6.485   6.359   4.066  0.4424  0.0049  0.0602
 1011MOL0     C36395   5.696   5.516   4.190  0.2221 -0.2199 -0.7548
 1011MOL0     C36396   5.565   5.475   4.227  0.0322  0.2376  0.3001
 1011MOL0     O36397   5.289   5.246   3.989 -0.3899  1.0562 -0.1226
 1011MOL0     C36398   5.031   5.212   4.115  0.0982 -0.7255  0.7313
 1011MOL0     C36399   4.917   5.180   4.177 -0.2188  0.0342 -1.0099
 1011MOL0     N36400   4.522   4.848   4.679 -0.5208  0.1520  0.3010
 1011MOL0     N36401   4.441   4.748   4.659  0.1573 -0.2612 -0.4896
 1011MOL0     C36402   3.618   4.400   3.776  0.4002  0.9481  0.5061
 1011MOL0     C36403   3.475   4.380   3.762  0.3541 -0.6299 -1.2157
 1011MOL0     C36404   3.043   4.320   3.973  0.2074 -0.2062  0.3208
 1011MOL0     C36405   2.989   4.421   3.880  0.0786  0.0970 -0.2674
 1011MOL0     C36406   2.853   4.453   3.882 -0.5296  0.2360  0.0686
 1011MOL0     C36407   2.766   4.382   3.965 -0.5528  0.1317  0.7905
 1011MOL0     O36408   2.629   4.393   3.977  0.3261  0.5856  0.5327
 1011MOL0     C36409   2.584   4.520   3.919  0.2904 -0.6613 -0.1792
 1011MOL0     C36410   2.439   4.550   3.961  0.1968 -0.1906 -0.0099
 1011MOL0     C36411   2.338   4.483   3.870 -0.7575  1.0891  0.0142
 1011MOL0     C36412   2.200   4.532   3.902  1.0195 -0.4840 -0.8427
 1011MOL0     C36413   2.188   4.679   3.882  0.2252  0.1912 -0.4878
 1011MOL0     C36414   2.181   4.795   3.851  0.0988 -0.3026 -0.2312
 1011MOL0     C36415   2.816   4.283   4.049  0.6339  0.1727 -0.8112
 1011MOL0     C36416   2.951   4.250   4.057  0.0897  0.3338  0.1139
 1011MOL0     C36417   2.969   4.123   4.135  0.2651  0.5984 -0.7621
 1011MOL0     H36418   3.423   4.318   4.096  2.5218  0.1932  1.0671
 1011MOL0     H36419   3.649   4.300   4.099  4.1919  0.6369 -0.9758
 1011MOL0     H36420   3.832   4.529   4.003 -0.2718 -0.4630 -2.1642
 1011MOL0     H36421   3.900   4.377   4.073  1.4173  1.7865  1.8285
 1011MOL0     H36422   4.024   4.533   3.839 -1.4553  2.2079  0.9814
 1011MOL0     H36423   4.117   4.420   3.935  0.5875  0.2770  2.6017
 1011MOL0     H36424   4.001   4.661   4.063  0.5800  0.0766  0.0252
 1011MOL0     H36425   4.168   4.648   3.988  1.8938 -1.9136  1.2859
 1011MOL0     H36426   4.038   4.475   4.216  0.3171  0.2026  1.6567
 1011MOL0     H36427   4.204   4.460   4.151  1.3499 -0.3983  0.7301
 1011MOL0     H36428   4.259   4.590   4.329  2.4144 -1.4827 -2.2348
 1011MOL0     H36429   4.224   4.711   4.207  1.6398 -0.9050 -0.2690
 1011MOL0     H36430   3.990   4.732   4.307  0.3885  0.7394  0.5732
 1011MOL0     H36431   4.029   4.609   4.426  0.8186  0.8029  1.3654
 1011MOL0     H36432   4.086   4.885   4.475 -0.5937  0.2292  0.6594
 1011MOL0     H36433   4.228   4.831   4.383  0.2888 -0.6818  0.5497
 1011MOL0     H36434   4.130   4.713   4.643 -0.5820  2.0524 -0.1465
 1011MOL0     H36435   4.266   4.635   4.547  0.9274  0.7464  0.4944
 1011MOL0     H36436   4.229   4.988   4.626 -0.8586 -1.8696 -0.7922
 1011MOL0     H36437   4.438   5.169   4.693  0.9052  1.6040 -1.8654
 1011MOL0     H36438   4.605   5.099   4.688  0.5486 -0.2970  1.0772
 1011MOL0     H36439   4.553   5.065   4.436 -0.4789  1.8894 -3.2942
 1011MOL0     H36440   4.398   5.155   4.461 -0.0836  3.1633 -0.1236
 1011MOL0     H36441   4.544   5.337   4.563  0.4489 -2.5817  2.0503
 1011MOL0     H36442   4.544   5.318   4.381  2.1997  0.5371 -1.0835
 1011MOL0     H36443   4.769   5.220   4.561  0.2456  0.9695  0.0683
 1011MOL0     H36444   4.762   5.366   4.467 -0.1417 -0.6792 -0.4185
 1011MOL0     H36445   5.023   5.262   4.490  1.1181 -0.6198 -0.8237
 1011MOL0     H36446   5.223   5.305   4.380  0.5167 -0.3227  0.3074
 1011MOL0     H36447   5.515   5.258   3.973 -1.5166 -0.1627  0.8173
 1011MOL0     H36448   5.752   5.328   3.923  0.2521  0.7854 -0.1582
 1011MOL0     H36449   5.974   5.480   4.212 -5.4535 -2.6052  0.0597
 1011MOL0     H36450   5.974   5.353   4.084 -1.5130  0.3448 -1.5277
 1011MOL0     H36451   6.194   5.466   4.102 -2.4493 -2.4953  2.0145
 1011MOL0     H36452   6.109   5.489   3.942  0.4328 -0.3980  0.2256
 1011MOL0     H36453   6.080   5.721   3.981 -0.0734  0.0208  0.0515
 1011MOL0     H36454   6.070   5.705   4.157  1.8950  1.0507  0.6715
 1011MOL0     H36455   6.308   5.696   3.961  4.5313 -0.3581  1.9757
 1011MOL0     H36456   6.329   5.659   4.136 -1.4727  1.2802  1.4601
 1011MOL0     H36457   6.244   5.857   4.204 -2.1144 -2.0875 -0.1268
 1011MOL0     H36458   6.187   5.908   4.042 -1.1219 -1.6880 -0.5569
 1011MOL0     H36459   6.480   5.890   4.140 -0.9488  1.6593  2.1933
 1011MOL0     H36460   6.436   5.932   3.969 -0.6238  3.0193 -0.2595
 1011MOL0     H36461   6.387   6.097   4.220 -0.8229  0.2892 -0.2684
 1011MOL0     H36462   6.304   6.125   4.068  1.0278  1.6950 -1.1382
 1011MOL0     H36463   6.606   6.146   4.093 -0.5954 -3.1138  0.3015
 1011MOL0     H36464   6.525   6.146   3.942  3.2823  1.5684  0.1136
 1011MOL0     H36465   5.754   5.584   4.252 -0.2058 -1.9056  1.6279
 1011MOL0     H36466   5.522   5.496   4.325  1.6422 -0.0498  1.1146
 1011MOL0     H36467   5.040   5.192   4.009 -0.1710 -3.8592  1.1863
 1011MOL0     H36468   4.831   5.149   4.119 -0.7992  0.0797 -0.2038
 1011MOL0     H36469   3.668   4.421   3.682  1.6559  2.3504  1.4345
 1011MOL0     H36470   3.431   4.396   3.664 -0.4921 -2.2579 -1.1270
 1011MOL0     H36471   3.047   4.483   3.813  0.9319 -0.3512  0.0454
 1011MOL0     H36472   2.823   4.530   3.811  1.6367  1.8899  0.8356
 1011MOL0     H36473   2.594   4.513   3.810  1.2357 -5.3985 -0.0154
 1011MOL0     H36474   2.639   4.605   3.961 -0.4303 -0.4931  0.4377
 1011MOL0     H36475   2.431   4.659   3.973  3.2158 -0.0016  1.1780
 1011MOL0     H36476   2.425   4.511   4.062  0.2547  1.4853  0.6901
 1011MOL0     H36477   2.332   4.379   3.905  0.3574  0.6478 -1.0405
 1011MOL0     H36478   2.354   4.489   3.762  0.6655 -2.2906 -0.0875
 1011MOL0     H36479   2.110   4.487   3.858 -0.3438  0.6562  0.6715
 1011MOL0     H36480   2.185   4.514   4.009  2.8617  0.4548 -0.3991
 1011MOL0     H36481   2.166   4.900   3.835 -1.5311 -0.2158  1.5019
 1011MOL0     H36482   2.745   4.232   4.113  3.8980 -0.8234  2.3339
 1011MOL0     H36483   3.011   4.039   4.079 -1.4227 -1.4418  0.8799
 1011MOL0     H36484   3.039   4.156   4.212  1.7943  0.2998 -1.9559
 1011MOL0     H36485   2.880   4.085   4.186  0.5094  0.0027 -0.7714
 1012MOL0     O36486   2.751   1.268   0.867 -0.5144  0.2146  0.0469
 1012MOL0     C36487   2.757   1.206   0.759 -0.7502  1.2078 -0.9465
 1012MOL0     O36488   2.865   1.174   0.686 -0.4434 -0.2673  0.4199
 1012MOL0     C36489   2.984   1.225   0.731  0.7956  0.4680 -0.3956
 1012MOL0     C36490   3.013   1.355   0.710 -0.1876 -0.5784 -0.1958
 1012MOL0     C36491   3.135   1.410   0.736 -0.9443  0.0846 -0.1752
 1012MOL0     C36492   3.233   1.324   0.795  0.4669 -0.0773  0.8701
 1012MOL0     O36493   3.364   1.354   0.830 -0.1659  0.0406 -0.4222
 1012MOL0     C36494   3.445   1.407   0.727  0.4459  0.2747  1.0131
 1012MOL0     C36495   3.569   1.462   0.804 -0.1186 -0.6792 -0.5258
 1012MOL0     C36496   3.666   1.346   0.831 -0.3588 -1.0208 -0.0414
 1012MOL0     C36497   3.773   1.391   0.931  0.3828 -0.8187  0.7398
 1012MOL0     C36498   3.888   1.300   0.960 -0.3215  0.4401 -1.0203
 1012MOL0     C36499   3.981   1.356   1.069  0.0494 -0.0946 -0.3490
 1012MOL0     C36500   4.071   1.251   1.127 -0.5937  0.5129  0.5978
 1012MOL0     C36501   4.173   1.184   1.039  0.5179  0.9891 -0.1237
 1012MOL0     N36502   4.284   1.276   1.022  0.1412  0.3675 -0.0176
 1012MOL0     C36503   4.382   1.313   1.099  0.6513 -0.3470 -0.5358
 1012MOL0     C36504   4.461   1.389   1.023  1.6071  0.6169 -0.1120
 1012MOL0     C36505   4.590   1.443   1.079  0.6818 -0.4193 -0.8726
 1012MOL0     C36506   4.698   1.336   1.118 -0.4909 -0.0169  0.3398
 1012MOL0     C36507   4.825   1.410   1.166 -0.4133  0.1562  0.2014
 1012MOL0     C36508   4.934   1.334   1.232 -0.2385 -0.4050 -0.0377
 1012MOL0     O36509   5.016   1.422   1.307 -0.0437  1.3262 -0.7234
 1012MOL0     C36510   5.111   1.366   1.392  0.2513 -0.7746  0.0395
 1012MOL0     C36511   5.112   1.236   1.435  0.9107 -0.5597  0.3987
 1012MOL0     C36512   5.201   1.199   1.539  0.5015  0.7085  1.1779
 1012MOL0     C36513   5.309   1.274   1.575  0.4033 -0.0075  0.0780
 1012MOL0     C36514   5.419   1.231   1.667 -0.4350 -0.6946 -0.5613
 1012MOL0     O36515   5.533   1.312   1.665  0.8324  0.1825  0.6327
 1012MOL0     C36516   5.637   1.295   1.756  0.7077  1.1093 -0.7601
 1012MOL0     C36517   5.761   1.328   1.708  0.5760  0.4922  0.3688
 1012MOL0     C36518   5.874   1.331   1.801 -0.4904 -0.3719 -0.5787
 1012MOL0     C36519   5.846   1.321   1.936  0.2334  0.5341 -1.1150
 1012MOL0     O36520   5.935   1.321   2.043 -0.0294 -0.3743  0.7795
 1012MOL0     C36521   6.082   1.342   2.028  0.2265 -0.4976 -0.1273
 1012MOL0     C36522   6.112   1.484   2.072  0.3387  0.1716  0.0191
 1012MOL0     C36523   6.264   1.494   2.125 -0.7375  0.0098  0.0892
 1012MOL0     C36524   6.378   1.482   2.017  0.3160 -0.0031 -0.0351
 1012MOL0     C36525   6.520   1.537   2.065 -0.1789 -0.2906  0.5546
 1012MOL0     C36526   6.527   1.683   2.039  0.5609 -0.7517  0.5960
 1012MOL0     C36527   6.668   1.751   2.063  0.4949 -0.0464 -0.0714
 1012MOL0     C36528   6.688   1.771   2.217 -0.1297 -0.2581 -0.0366
 1012MOL0    Cl36529   6.571   1.892   2.276 -0.0592  0.1443  0.1783
 1012MOL0     C36530   5.713   1.290   1.979  0.2186 -0.0483 -0.0604
 1012MOL0     C36531   5.606   1.270   1.894 -0.3540  0.1359  0.2636
 1012MOL0     O36532   5.406   1.123   1.724 -0.6676  0.4276  0.3623
 1012MOL0     C36533   5.315   1.406   1.520 -0.5975 -0.5721  0.4452
 1012MOL0     C36534   5.211   1.450   1.434 -0.0032 -0.1736 -0.3152
 1012MOL0     N36535   4.418   1.379   0.887  0.0560 -0.5741  0.1591
 1012MOL0     N36536   4.314   1.320   0.894  0.4634  1.1496 -0.6422
 1012MOL0     C36537   3.206   1.192   0.822 -0.4861 -0.2368 -0.0869
 1012MOL0     C36538   3.077   1.144   0.790 -0.2578  0.1602 -0.3507
 1012MOL0     C36539   2.621   1.149   0.710  0.0476 -0.8693  1.3389
 1012MOL0     C36540   2.626   1.074   0.591 -0.3758  1.6348 -0.0077
 1012MOL0     C36541   2.510   1.008   0.548  0.1187 -0.7015 -0.2744
 1012MOL0     C36542   2.387   1.035   0.607  1.1844 -1.0167  0.4681
 1012MOL0     O36543   2.275   0.981   0.551 -0.1199 -0.5477 -0.2179
 1012MOL0     C36544   2.163   1.057   0.510  0.4242  0.4295  0.3549
 1012MOL0     C36545   2.080   0.957   0.435 -0.2110  0.9988 -0.7715
 1012MOL0     C36546   1.987   1.023   0.342  0.1449 -0.1688  0.9304
 1012MOL0     C36547   1.864   1.062   0.417  0.2561  0.2057 -0.8582
 1012MOL0     C36548   1.773   1.143   0.343  0.8131 -0.1450  0.4877
 1012MOL0     C36549   1.707   1.210   0.264 -0.0686 -0.3808  0.0594
 1012MOL0     C36550   2.384   1.115   0.715  0.3729 -0.6886 -0.3098
 1012MOL0     C36551   2.497   1.177   0.769 -1.2244  0.1930  0.1094
 1012MOL0     C36552   2.472   1.256   0.891 -0.6985  0.0631  0.1557
 1012MOL0     H36553   2.924   1.401   0.667 -1.5517 -1.8483  1.1226
 1012MOL0     H36554   3.154   1.516   0.726 -1.5313  0.7334  4.0223
 1012MOL0     H36555   3.480   1.330   0.657  0.5478  1.3377 -0.1334
 1012MOL0     H36556   3.394   1.487   0.674 -0.7156  0.2075  1.9866
 1012MOL0     H36557   3.537   1.484   0.906 -0.7016 -0.6487 -0.7126
 1012MOL0     H36558   3.616   1.547   0.753  2.0945 -1.7485 -0.3827
 1012MOL0     H36559   3.710   1.324   0.733  2.6013 -2.0141  1.3905
 1012MOL0     H36560   3.607   1.263   0.872 -0.5720 -0.6154  0.4851
 1012MOL0     H36561   3.819   1.480   0.887  0.4862 -0.3390  1.7950
 1012MOL0     H36562   3.726   1.424   1.024  2.3555  0.8864  1.2000
 1012MOL0     H36563   3.844   1.203   0.983 -0.3259  0.6828  0.0627
 1012MOL0     H36564   3.952   1.300   0.872  0.2574 -0.9420 -0.6297
 1012MOL0     H36565   4.039   1.441   1.032  0.2430 -0.5817 -1.1639
 1012MOL0     H36566   3.916   1.383   1.153  0.4006 -1.0016  0.2362
 1012MOL0     H36567   4.009   1.164   1.148 -1.7342  0.7425 -1.5385
 1012MOL0     H36568   4.111   1.284   1.224  0.2009  2.3744 -0.3028
 1012MOL0     H36569   4.212   1.095   1.089 -0.0410  1.3848  1.0363
 1012MOL0     H36570   4.135   1.161   0.939 -2.9847 -2.1318  1.7041
 1012MOL0     H36571   4.401   1.299   1.205  2.0138  0.8925 -0.5863
 1012MOL0     H36572   4.632   1.512   1.005 -0.6994  1.9052  0.3655
 1012MOL0     H36573   4.559   1.505   1.164 -1.3663 -1.3084 -0.9042
 1012MOL0     H36574   4.662   1.270   1.197 -0.4352 -0.8543 -0.3222
 1012MOL0     H36575   4.716   1.264   1.038 -1.0696  0.2388 -0.0284
 1012MOL0     H36576   4.795   1.480   1.245  0.8208 -0.0623  0.8916
 1012MOL0     H36577   4.869   1.470   1.086  0.1852  0.6062  0.8589
 1012MOL0     H36578   4.985   1.276   1.155 -1.1462 -0.5726 -0.5266
 1012MOL0     H36579   4.888   1.263   1.302  1.0861  0.8260  2.1862
 1012MOL0     H36580   5.033   1.165   1.412 -1.0938  1.9656 -1.1317
 1012MOL0     H36581   5.195   1.101   1.587 -0.2643  1.4145  2.6018
 1012MOL0     H36582   5.765   1.343   1.601 -0.0646 -1.7868 -0.0260
 1012MOL0     H36583   5.973   1.369   1.776 -0.3379 -0.3989 -0.0186
 1012MOL0     H36584   6.121   1.267   2.098 -2.4358 -1.0379  0.9011
 1012MOL0     H36585   6.131   1.323   1.933  1.1476  0.4802  0.1320
 1012MOL0     H36586   6.100   1.549   1.984  3.0351  0.9350  0.1283
 1012MOL0     H36587   6.048   1.510   2.157  0.7889  0.3400  0.3096
 1012MOL0     H36588   6.272   1.595   2.166  3.3743 -0.6175  1.2859
 1012MOL0     H36589   6.274   1.422   2.207 -1.8664 -2.4606 -1.8225
 1012MOL0     H36590   6.350   1.530   1.922 -2.4105 -0.0761  0.6481
 1012MOL0     H36591   6.387   1.374   2.002 -0.4947 -0.5433  2.8661
 1012MOL0     H36592   6.593   1.480   2.006 -2.8527 -1.8225 -1.5146
 1012MOL0     H36593   6.530   1.516   2.172 -3.2973 -1.0994  0.7595
 1012MOL0     H36594   6.492   1.708   1.939  1.3635  1.8742  0.8900
 1012MOL0     H36595   6.452   1.724   2.107  1.6873  0.6663  1.0287
 1012MOL0     H36596   6.678   1.843   2.004  1.1740 -1.4725 -2.3236
 1012MOL0     H36597   6.746   1.683   2.026  0.8537  0.5680 -0.4587
 1012MOL0     H36598   6.665   1.678   2.270 -1.5932 -0.7446 -1.4396
 1012MOL0     H36599   6.785   1.814   2.244 -0.2898 -1.0090  1.8838
 1012MOL0     H36600   5.686   1.276   2.084 -0.0633 -1.8393 -0.3324
 1012MOL0     H36601   5.506   1.244   1.927 -0.6404  1.7015  0.7353
 1012MOL0     H36602   5.397   1.474   1.541 -1.5814  1.6518 -2.1607
 1012MOL0     H36603   5.200   1.553   1.402  1.0152 -0.2973 -1.1303
 1012MOL0     H36604   3.280   1.133   0.874  1.9896  2.4806 -0.2390
 1012MOL0     H36605   3.053   1.042   0.819 -0.1134  0.2457  0.0742
 1012MOL0     H36606   2.719   1.048   0.541 -2.4543 -2.8823 -2.1264
 1012MOL0     H36607   2.514   0.933   0.470  0.5265 -2.4188  1.3284
 1012MOL0     H36608   2.195   1.134   0.439  2.5308  0.0900  0.8681
 1012MOL0     H36609   2.109   1.099   0.595 -0.8403 -2.0221  0.8533
 1012MOL0     H36610   2.022   0.893   0.502 -1.7527  1.2548 -1.8101
 1012MOL0     H36611   2.146   0.890   0.380  3.8671  2.3028  1.9908
 1012MOL0     H36612   1.965   0.953   0.261  0.1856  0.3719  0.4465
 1012MOL0     H36613   2.026   1.114   0.296 -2.4256  0.1702 -0.7430
 1012MOL0     H36614   1.812   0.978   0.464 -1.0842  2.9098  3.0575
 1012MOL0     H36615   1.900   1.123   0.501 -0.0277  0.6391 -1.0513
 1012MOL0     H36616   1.660   1.286   0.205  0.5725 -0.4916 -0.6145
 1012MOL0     H36617   2.289   1.145   0.759  2.0934  0.9598  2.5969
 1012MOL0     H36618   2.367   1.285   0.891 -0.8171 -0.1439  2.5664
 1012MOL0     H36619   2.485   1.203   0.986 -0.6338  0.0289  0.1281
 1012MOL0     H36620   2.530   1.348   0.905 -1.6368  0.4980  1.3214
 1013MOL0     O36621   0.087   5.790   5.087 -0.2219 -0.3035  0.2192
 1013MOL0     C36622   0.057   5.731   5.189 -0.4459  0.0844  0.3271
 1013MOL0     O36623   0.137   5.634   5.249 -0.5137  0.3616 -0.0254
 1013MOL0     C36624   0.246   5.571   5.185 -0.2242 -0.7662  0.0604
 1013MOL0     C36625   0.341   5.517   5.269  0.8172  0.8062 -0.1123
 1013MOL0     C36626   0.444   5.432   5.218 -0.7462 -0.9669  0.7420
 1013MOL0     C36627   0.461   5.424   5.082  0.1115 -0.1336  0.5042
 1013MOL0     O36628   0.561   5.342   5.036 -0.6352  0.3163  0.7214
 1013MOL0     C36629   0.591   5.348   4.899 -0.6918 -0.1852 -1.0740
 1013MOL0     C36630   0.683   5.224   4.875  0.0822 -0.1683 -0.0511
 1013MOL0     C36631   0.731   5.221   4.733 -0.0391  0.4372  0.5305
 1013MOL0     C36632   0.807   5.338   4.668  0.4209  0.4560 -0.5327
 1013MOL0     C36633   0.870   5.297   4.537  0.7168  0.0196 -0.2099
 1013MOL0     C36634   0.985   5.388   4.503  0.1621  0.3227  0.2121
 1013MOL0     C36635   1.055   5.353   4.365  0.0018  0.1384  0.7509
 1013MOL0     C36636   1.174   5.452   4.348 -0.3578 -0.9043  0.4174
 1013MOL0     N36637   1.274   5.419   4.245  0.7792 -0.2726  0.5696
 1013MOL0     C36638   1.322   5.301   4.211  0.4277  0.0939  0.0124
 1013MOL0     C36639   1.444   5.327   4.155  0.1688 -0.4029  0.6683
 1013MOL0     C36640   1.538   5.216   4.109 -0.3791 -0.4889 -0.5318
 1013MOL0     C36641   1.684   5.260   4.092  0.0932  0.1144  0.1004
 1013MOL0     C36642   1.722   5.337   3.966 -0.3401 -1.2210  0.6877
 1013MOL0     C36643   1.693   5.253   3.839  0.1761 -0.0896  0.3473
 1013MOL0     O36644   1.773   5.137   3.835 -0.0773 -0.6957 -0.1880
 1013MOL0     C36645   1.873   5.134   3.741 -0.0314 -0.9476  0.1152
 1013MOL0     C36646   1.986   5.225   3.736 -0.1897  0.3818 -0.9655
 1013MOL0     C36647   2.083   5.207   3.636 -0.0606  0.1719 -0.2028
 1013MOL0     C36648   2.078   5.103   3.547  0.0686 -0.5345 -0.5739
 1013MOL0     C36649   2.193   5.073   3.464  0.2012  0.1601  0.0842
 1013MOL0     O36650   2.314   5.094   3.517 -0.6304 -0.7863  0.9949
 1013MOL0     C36651   2.424   5.127   3.438 -0.0936  0.4732 -0.0643
 1013MOL0     C36652   2.527   5.043   3.446  0.1874  0.3746 -0.5503
 1013MOL0     C36653   2.650   5.082   3.385 -0.2070  1.5250  0.1731
 1013MOL0     C36654   2.666   5.199   3.323 -0.5505 -0.0631 -0.4167
 1013MOL0     O36655   2.793   5.224   3.269  0.1942 -0.2068 -0.6290
 1013MOL0     C36656   2.806   5.314   3.159 -0.4232 -0.4778  0.4493
 1013MOL0     C36657   2.943   5.335   3.096 -0.7144  1.0049 -0.9248
 1013MOL0     C36658   3.049   5.377   3.194  0.2333 -1.1553  0.3753
 1013MOL0     C36659   3.058   5.528   3.228  0.1910  0.1876 -0.5457
 1013MOL0     C36660   3.099   5.600   3.103  0.1329  0.3261 -0.1925
 1013MOL0     C36661   3.117   5.753   3.132  0.1799  0.1201 -0.0277
 1013MOL0     C36662   3.135   5.833   3.002 -0.9779 -0.2813 -0.4231
 1013MOL0     C36663   3.156   5.981   3.038  0.8606  0.8920  0.6755
 1013MOL0    Cl36664   3.236   6.071   2.908  0.2638 -0.0392  0.0971
 1013MOL0     C36665   2.554   5.285   3.302 -0.4737 -0.1962  0.6883
 1013MOL0     C36666   2.433   5.249   3.362  0.3349  0.1984 -0.0114
 1013MOL0     O36667   2.177   5.035   3.346  0.3060  0.0816 -0.6526
 1013MOL0     C36668   1.963   5.024   3.553  0.4228 -0.1590  0.3345
 1013MOL0     C36669   1.858   5.045   3.645 -0.3239 -0.0439 -0.2530
 1013MOL0     N36670   1.452   5.462   4.130 -0.0593 -0.6583  0.2376
 1013MOL0     N36671   1.349   5.517   4.187 -0.2665  0.3189 -0.9719
 1013MOL0     C36672   0.376   5.498   4.994 -0.2997  0.7594  0.0066
 1013MOL0     C36673   0.265   5.561   5.044  0.5740  0.3268 -0.7559
 1013MOL0     C36674  -0.070   5.766   5.259  0.1996  0.4374 -0.6156
 1013MOL0     C36675  -0.112   5.675   5.359  0.4370  0.0401  0.1952
 1013MOL0     C36676  -0.247   5.682   5.414 -0.0758 -0.6626 -0.1678
 1013MOL0     C36677  -0.329   5.795   5.383  0.1521 -0.4894  0.2672
 1013MOL0     O36678  -0.437   5.817   5.463 -0.3105  0.7009 -0.7315
 1013MOL0     C36679  -0.509   5.937   5.458 -0.5200  0.4487 -0.1918
 1013MOL0     C36680  -0.618   5.925   5.568  0.4796  0.1001 -1.8865
 1013MOL0     C36681  -0.746   5.853   5.514 -0.0816  0.2313 -0.6738
 1013MOL0     C36682  -0.804   5.915   5.384  0.0147  0.1548  0.2580
 1013MOL0     C36683  -0.887   6.033   5.426 -0.5899  0.3957  0.1652
 1013MOL0     C36684  -0.948   6.138   5.442  0.3250  0.3003 -0.3621
 1013MOL0     C36685  -0.287   5.887   5.280 -0.4488  0.1966 -0.2435
 1013MOL0     C36686  -0.155   5.878   5.222  0.1313  0.4092  0.2567
 1013MOL0     C36687  -0.119   5.974   5.107 -0.4381 -0.6894 -0.1182
 1013MOL0     H36688   0.319   5.503   5.374  2.7123  1.9291  0.4747
 1013MOL0     H36689   0.502   5.378   5.292  0.5101 -2.1083 -0.9962
 1013MOL0     H36690   0.497   5.342   4.843 -1.8180  1.4459  0.5125
 1013MOL0     H36691   0.645   5.443   4.894 -2.1424  1.0624  2.9345
 1013MOL0     H36692   0.623   5.134   4.893 -1.0515  0.3944 -0.8166
 1013MOL0     H36693   0.768   5.223   4.944 -2.1888 -0.3371  2.9527
 1013MOL0     H36694   0.647   5.192   4.669  1.4842 -0.7022 -1.0351
 1013MOL0     H36695   0.792   5.130   4.734  0.0042  0.4298 -0.9333
 1013MOL0     H36696   0.736   5.419   4.649 -2.0771 -1.8670 -1.7865
 1013MOL0     H36697   0.873   5.376   4.747 -0.6676 -0.0313  0.6456
 1013MOL0     H36698   0.897   5.191   4.547  0.0045 -0.5478 -3.1840
 1013MOL0     H36699   0.805   5.307   4.450  1.7163  1.1215 -0.8682
 1013MOL0     H36700   0.954   5.491   4.485 -1.1097 -0.5277 -3.0797
 1013MOL0     H36701   1.065   5.390   4.578  0.7204 -0.2082 -0.3453
 1013MOL0     H36702   0.977   5.365   4.290 -0.3088  4.0361  1.5088
 1013MOL0     H36703   1.090   5.249   4.359  2.3040  0.8716  0.4902
 1013MOL0     H36704   1.129   5.551   4.334  0.3124 -0.3547  2.0397
 1013MOL0     H36705   1.229   5.459   4.442 -2.0270 -0.4983  1.4039
 1013MOL0     H36706   1.290   5.202   4.241 -0.3886  0.8761  1.8282
 1013MOL0     H36707   1.534   5.132   4.179  1.1093 -1.3850 -1.4579
 1013MOL0     H36708   1.501   5.180   4.012  0.4488  0.0991 -1.0844
 1013MOL0     H36709   1.694   5.345   4.161 -1.3477  0.1924  0.2523
 1013MOL0     H36710   1.760   5.186   4.118 -0.2562 -0.8572 -1.5474
 1013MOL0     H36711   1.828   5.360   3.971 -0.4490 -0.6341  0.3393
 1013MOL0     H36712   1.660   5.426   3.958  0.2985 -0.5506  2.7202
 1013MOL0     H36713   1.711   5.303   3.744  1.7888 -2.2199 -0.5515
 1013MOL0     H36714   1.591   5.216   3.827  0.8953 -2.2870  0.6630
 1013MOL0     H36715   1.988   5.302   3.813  2.4621  0.2593 -0.8436
 1013MOL0     H36716   2.169   5.269   3.657  0.3874 -0.6286  0.4008
 1013MOL0     H36717   2.521   4.947   3.496 -0.9299  0.5654 -0.2864
 1013MOL0     H36718   2.741   5.023   3.392  1.1396  3.5568  0.5891
 1013MOL0     H36719   2.725   5.293   3.088 -0.6981 -1.3161  0.9991
 1013MOL0     H36720   2.775   5.412   3.196  0.5112 -0.5070  1.3536
 1013MOL0     H36721   2.970   5.241   3.047 -1.9260  1.1363 -1.8998
 1013MOL0     H36722   2.923   5.410   3.019 -1.8925  1.3115 -0.3428
 1013MOL0     H36723   3.027   5.325   3.288 -1.8313 -3.4826 -1.2691
 1013MOL0     H36724   3.149   5.353   3.157  0.4732  2.2934 -1.5967
 1013MOL0     H36725   3.138   5.553   3.298 -0.2454  2.3994 -0.7904
 1013MOL0     H36726   2.968   5.558   3.281  1.4397  2.2225  0.5477
 1013MOL0     H36727   3.027   5.585   3.022 -1.1273  1.6587  0.6338
 1013MOL0     H36728   3.194   5.559   3.068 -1.5015 -2.5169 -1.6367
 1013MOL0     H36729   3.021   5.788   3.171  0.2165 -1.3392  1.5173
 1013MOL0     H36730   3.200   5.772   3.201  0.3071  1.9175 -0.6166
 1013MOL0     H36731   3.051   5.824   2.932 -0.2090 -0.3955 -1.3596
 1013MOL0     H36732   3.227   5.811   2.947 -1.4921 -0.0162 -1.4136
 1013MOL0     H36733   3.064   6.023   3.080  0.9408 -0.0822  1.8884
 1013MOL0     H36734   3.223   5.975   3.124  0.3563  0.2324  1.0291
 1013MOL0     H36735   2.559   5.360   3.224  0.9008 -0.0729  0.8749
 1013MOL0     H36736   2.344   5.310   3.345  0.0179 -0.6190 -1.5067
 1013MOL0     H36737   1.951   4.953   3.472 -0.5243 -0.7349  0.9605
 1013MOL0     H36738   1.771   4.981   3.645 -1.0015  0.8612 -1.3358
 1013MOL0     H36739   0.399   5.503   4.888 -0.2746  0.1281 -0.0230
 1013MOL0     H36740   0.194   5.614   4.981 -1.1346  0.0213  0.8397
 1013MOL0     H36741  -0.057   5.588   5.395  1.4742  1.2578  1.6960
 1013MOL0     H36742  -0.284   5.606   5.481  0.2718 -0.0593  0.7314
 1013MOL0     H36743  -0.543   5.966   5.358  1.4861  0.2180 -0.9774
 1013MOL0     H36744  -0.436   6.009   5.495  1.4420 -1.5887  0.1021
 1013MOL0     H36745  -0.641   6.027   5.600 -1.8821 -1.4975  2.4768
 1013MOL0     H36746  -0.592   5.876   5.663 -2.9396  3.0151  0.8521
 1013MOL0     H36747  -0.832   5.848   5.580 -0.1282 -1.0252 -0.8022
 1013MOL0     H36748  -0.715   5.749   5.498  2.2749  0.8694 -0.6959
 1013MOL0     H36749  -0.737   5.945   5.304  0.9437  0.9722  1.2987
 1013MOL0     H36750  -0.874   5.847   5.336 -1.2278  1.2305  0.4820
 1013MOL0     H36751  -1.002   6.230   5.447 -0.5435 -0.0244 -2.7207
 1013MOL0     H36752  -0.354   5.960   5.237 -1.1376  0.9366  1.9494
 1013MOL0     H36753  -0.197   6.045   5.081  1.8238  2.1705  0.4071
 1013MOL0     H36754  -0.026   6.032   5.113 -0.8970  0.0253  0.2817
 1013MOL0     H36755  -0.113   5.917   5.014 -1.6436 -0.0757 -0.5972
 1014MOL0     O36756  10.148   9.581   9.556 -0.4515 -0.3208  0.0621
 1014MOL0     C36757  10.113   9.525   9.454  0.3097 -0.2400  0.3313
 1014MOL0     O36758  10.197   9.471   9.367  0.8667 -0.1165  0.6504
 1014MOL0     C36759  10.336   9.491   9.375  0.3041  1.0433 -1.0879
 1014MOL0     C36760  10.390   9.618   9.388  0.0179 -0.2989  0.5560
 1014MOL0     C36761  10.533   9.632   9.388  0.2161 -0.2204 -0.1160
 1014MOL0     C36762  10.616   9.525   9.368 -1.3607  0.3245  0.6485
 1014MOL0     O36763  10.758   9.561   9.374 -0.2518 -0.2459 -0.0531
 1014MOL0     C36764  10.858   9.463   9.334  0.6987  0.6169 -0.7808
 1014MOL0     C36765  10.980   9.545   9.291  0.2636 -0.2995 -0.6863
 1014MOL0     C36766  11.114   9.478   9.315  0.6570 -0.1890 -0.0925
 1014MOL0     C36767  11.129   9.354   9.238  0.5355 -0.1997  0.0640
 1014MOL0     C36768  11.143   9.372   9.096  0.1183  0.3932 -0.5742
 1014MOL0     C36769  11.199   9.251   9.023 -0.2643 -0.9001  0.8606
 1014MOL0     C36770  11.124   9.118   9.042  0.4628  0.3526 -0.4975
 1014MOL0     C36771  10.973   9.116   9.030  0.7958  0.5516 -0.1397
 1014MOL0     N36772  10.918   9.174   8.915 -0.3923 -0.2876  0.0244
 1014MOL0     C36773  10.966   9.147   8.787 -0.5679 -0.1554  0.6102
 1014MOL0     C36774  10.873   9.210   8.714  0.1970  0.0696 -0.2970
 1014MOL0     C36775  10.875   9.216   8.567  0.1984  0.2538 -0.8386
 1014MOL0     C36776  10.854   9.361   8.525 -0.8128  1.0411 -0.4257
 1014MOL0     C36777  10.976   9.455   8.547  0.5886  0.1153 -1.3097
 1014MOL0     C36778  11.090   9.404   8.464 -0.3562 -0.6963 -0.5710
 1014MOL0     O36779  11.169   9.311   8.543 -0.0448  0.0828 -0.2331
 1014MOL0     C36780  11.264   9.236   8.476  0.8074  0.3799  0.7575
 1014MOL0     C36781  11.336   9.143   8.552 -0.2495  0.3560  0.1871
 1014MOL0     C36782  11.452   9.085   8.495  0.8053  0.8958 -0.4227
 1014MOL0     C36783  11.492   9.121   8.364 -0.9342  0.2142 -0.1771
 1014MOL0     C36784  11.620   9.068   8.310  0.2477 -0.1340 -0.7293
 1014MOL0     O36785  11.689   8.972   8.377 -0.6661  0.5948  0.2268
 1014MOL0     C36786  11.801   8.916   8.315 -0.4094  0.1592  0.0421
 1014MOL0     C36787  11.820   8.881   8.181  0.7870  0.6300  0.7644
 1014MOL0     C36788  11.940   8.828   8.137  0.4538  0.2669 -0.1061
 1014MOL0     C36789  12.040   8.793   8.227  0.5657  0.6272  0.2384
 1014MOL0     O36790  12.154   8.735   8.179  0.3795 -0.1489  0.6358
 1014MOL0     C36791  12.275   8.737   8.265  1.1645  0.0607 -0.4360
 1014MOL0     C36792  12.396   8.702   8.189  0.3958  0.6401 -0.0465
 1014MOL0     C36793  12.445   8.816   8.099  0.5421 -0.5059 -0.0855
 1014MOL0     C36794  12.572   8.764   8.031  1.6005  0.3030 -0.4635
 1014MOL0     C36795  12.647   8.860   7.933  0.7549  0.5150  0.6866
 1014MOL0     C36796  12.683   8.996   8.002  0.5054  0.3280 -0.3173
 1014MOL0     C36797  12.757   9.095   7.919  0.7440  0.6861 -0.6077
 1014MOL0     C36798  12.789   9.213   7.999  0.0457  0.1337 -0.3415
 1014MOL0    Cl36799  12.854   9.333   7.881  0.2328 -0.7196 -0.1279
 1014MOL0     C36800  12.011   8.806   8.365 -0.6226  0.4721 -0.2252
 1014MOL0     C36801  11.896   8.866   8.406  0.3267  0.0104  0.3631
 1014MOL0     O36802  11.637   9.096   8.192  0.3502  0.0917 -0.5084
 1014MOL0     C36803  11.420   9.216   8.289  0.0448 -0.2655 -0.3655
 1014MOL0     C36804  11.305   9.264   8.346 -0.3723 -0.2657  0.3198
 1014MOL0     N36805  10.765   9.247   8.789 -0.5764  0.5295 -1.0527
 1014MOL0     N36806  10.798   9.229   8.912  0.1995  0.4169  0.1152
 1014MOL0     C36807  10.564   9.395   9.354 -0.0356 -0.3928 -0.1195
 1014MOL0     C36808  10.424   9.379   9.363  1.0925 -0.6144 -0.3809
 1014MOL0     C36809   9.967   9.524   9.427 -0.5377 -0.4060 -0.2242
 1014MOL0     C36810   9.908   9.446   9.328 -0.4185  0.0693  0.2284
 1014MOL0     C36811   9.775   9.445   9.303 -0.9301  0.0010 -0.1679
 1014MOL0     C36812   9.693   9.531   9.369  0.2793  0.5920 -0.7729
 1014MOL0     O36813   9.563   9.542   9.344  0.2295  0.0305  0.7219
 1014MOL0     C36814   9.504   9.478   9.227  0.2516 -0.2441  0.0605
 1014MOL0     C36815   9.351   9.509   9.201 -0.0119 -0.1173 -0.3157
 1014MOL0     C36816   9.270   9.452   9.316  0.3881  0.0198 -0.2959
 1014MOL0     C36817   9.114   9.487   9.312 -0.3164  0.3503 -0.1201
 1014MOL0     C36818   9.059   9.441   9.433  0.3905 -0.1850 -1.2231
 1014MOL0     C36819   9.006   9.396   9.528  0.5232  0.5324 -0.6507
 1014MOL0     C36820   9.739   9.599   9.481 -0.1331  0.2062 -0.0332
 1014MOL0     C36821   9.874   9.606   9.506  0.2010  0.3490  0.1927
 1014MOL0     C36822   9.902   9.690   9.624 -0.7056 -0.7163 -0.0479
 1014MOL0     H36823  10.318   9.699   9.397 -2.6048 -2.5875  1.2194
 1014MOL0     H36824  10.577   9.732   9.386  2.1395 -1.0295 -0.2388
 1014MOL0     H36825  10.885   9.399   9.419 -0.7794  1.4796  0.4012
 1014MOL0     H36826  10.822   9.409   9.246 -1.8723 -0.8207  1.0101
 1014MOL0     H36827  10.976   9.640   9.344  1.4339 -0.8854  0.4966
 1014MOL0     H36828  10.963   9.566   9.185  1.3641  0.8599 -0.6512
 1014MOL0     H36829  11.136   9.454   9.419  0.8801 -6.3259 -1.1515
 1014MOL0     H36830  11.189   9.554   9.292 -0.5195  1.7126  1.9153
 1014MOL0     H36831  11.224   9.315   9.275  0.8497 -0.3064 -0.8577
 1014MOL0     H36832  11.053   9.276   9.253  1.9786 -1.3976  1.6356
 1014MOL0     H36833  11.045   9.402   9.058 -1.1625  0.5854  2.5557
 1014MOL0     H36834  11.212   9.454   9.073  0.8903  0.4326  1.6580
 1014MOL0     H36835  11.194   9.271   8.916 -0.2248  1.0952  1.2027
 1014MOL0     H36836  11.305   9.245   9.047  0.6232  2.8734 -1.4177
 1014MOL0     H36837  11.144   9.078   9.142 -0.1796 -0.1402 -0.5611
 1014MOL0     H36838  11.160   9.054   8.960 -0.3224 -2.7935  1.4280
 1014MOL0     H36839  10.939   9.012   9.035 -2.3469  1.4855 -0.2336
 1014MOL0     H36840  10.917   9.163   9.112  0.6459 -0.5942  0.4298
 1014MOL0     H36841  11.056   9.092   8.761  1.7416  2.8769  1.5384
 1014MOL0     H36842  10.958   9.164   8.517 -0.1591 -3.3779  1.9463
 1014MOL0     H36843  10.792   9.150   8.543  1.4483 -0.2484 -4.4320
 1014MOL0     H36844  10.830   9.343   8.420 -0.6913  1.1211 -0.4675
 1014MOL0     H36845  10.767   9.402   8.577 -0.9235 -0.5233  0.6724
 1014MOL0     H36846  11.001   9.468   8.653  0.6750  0.3215 -1.3553
 1014MOL0     H36847  10.941   9.550   8.508 -2.1996 -0.3843 -0.2335
 1014MOL0     H36848  11.157   9.489   8.447  1.0100 -1.4997  0.5524
 1014MOL0     H36849  11.058   9.360   8.369  3.0908  1.6540 -3.0727
 1014MOL0     H36850  11.305   9.104   8.648  1.6527  1.1038  1.1546
 1014MOL0     H36851  11.503   9.008   8.552  1.3464  0.8933 -0.9048
 1014MOL0     H36852  11.734   8.894   8.116 -1.2081 -1.7171  2.7055
 1014MOL0     H36853  11.949   8.804   8.031  2.2010 -0.3801  0.1605
 1014MOL0     H36854  12.284   8.837   8.308 -1.5639 -0.3342  1.2740
 1014MOL0     H36855  12.255   8.663   8.343  1.3643 -1.4670 -1.7776
 1014MOL0     H36856  12.478   8.665   8.251  0.5090  3.5433  1.7171
 1014MOL0     H36857  12.368   8.615   8.129  2.2547  0.4343 -0.6802
 1014MOL0     H36858  12.369   8.852   8.029 -0.3494 -1.6368  0.2611
 1014MOL0     H36859  12.469   8.896   8.168 -0.1520 -0.1334 -0.2715
 1014MOL0     H36860  12.556   8.669   7.978 -2.3330  3.1709 -5.3161
 1014MOL0     H36861  12.644   8.723   8.102  0.1995 -0.9419  0.2918
 1014MOL0     H36862  12.577   8.877   7.851  0.2650  0.9973  1.1966
 1014MOL0     H36863  12.739   8.816   7.894 -0.0083  1.4461 -2.4906
 1014MOL0     H36864  12.591   9.040   8.041 -0.7696 -2.0200 -0.4926
 1014MOL0     H36865  12.751   8.981   8.086  1.8456  2.0730 -1.0252
 1014MOL0     H36866  12.706   9.121   7.826  3.5161  2.5681 -1.7561
 1014MOL0     H36867  12.850   9.047   7.886  0.9152 -2.1481  3.2736
 1014MOL0     H36868  12.705   9.262   8.048  0.4155 -0.8224  1.3118
 1014MOL0     H36869  12.864   9.203   8.078 -0.4125 -0.5348  0.0162
 1014MOL0     H36870  12.079   8.759   8.435 -3.2481 -1.7854  0.9821
 1014MOL0     H36871  11.884   8.893   8.511 -3.5804 -1.2358  0.3944
 1014MOL0     H36872  11.448   9.260   8.194  0.5670 -0.0297 -0.1024
 1014MOL0     H36873  11.252   9.341   8.291 -0.6416 -0.3536  0.4554
 1014MOL0     H36874  10.630   9.309   9.346  1.4805  0.6876  0.2607
 1014MOL0     H36875  10.385   9.278   9.363 -0.1272 -0.1734 -1.8702
 1014MOL0     H36876   9.957   9.370   9.268 -1.1500  0.4444 -0.8758
 1014MOL0     H36877   9.749   9.392   9.212  1.2218  1.0866 -1.5135
 1014MOL0     H36878   9.516   9.369   9.232  0.0398 -0.2599  0.2868
 1014MOL0     H36879   9.549   9.513   9.134 -0.5359 -1.4453 -0.8200
 1014MOL0     H36880   9.319   9.465   9.106 -0.9428 -0.0186 -0.0585
 1014MOL0     H36881   9.330   9.616   9.191 -1.1827  0.0150  2.6253
 1014MOL0     H36882   9.311   9.480   9.413 -0.9111  3.5626 -0.6256
 1014MOL0     H36883   9.282   9.344   9.301  0.2135  0.2426 -2.3357
 1014MOL0     H36884   9.097   9.595   9.304 -1.4689  0.1092 -1.3277
 1014MOL0     H36885   9.064   9.443   9.225 -0.9428 -0.9636  0.8867
 1014MOL0     H36886   8.970   9.340   9.613  2.4965 -1.7540 -1.2151
 1014MOL0     H36887   9.672   9.652   9.547 -0.8212  0.3967 -0.8671
 1014MOL0     H36888   9.817   9.752   9.655  0.5692  0.3547  1.4908
 1014MOL0     H36889   9.916   9.617   9.703 -0.0976 -0.3695  0.1721
 1014MOL0     H36890   9.987   9.758   9.610 -1.3924  0.3043  0.5658
 1015MOL0     O36891   3.603   1.086   9.152 -0.8163 -0.2603  0.0723
 1015MOL0     C36892   3.501   1.159   9.159  0.7251  0.2340  0.2053
 1015MOL0     O36893   3.496   1.295   9.184 -0.6637 -0.2320  0.2591
 1015MOL0     C36894   3.605   1.375   9.198 -0.3426 -0.2020 -0.2999
 1015MOL0     C36895   3.716   1.351   9.117  0.1156  1.0945 -0.1474
 1015MOL0     C36896   3.831   1.435   9.126 -0.1220 -0.3785 -0.4149
 1015MOL0     C36897   3.833   1.537   9.223 -1.2517  0.4328 -0.3516
 1015MOL0     O36898   3.953   1.601   9.262 -0.1420 -0.3240  0.1299
 1015MOL0     C36899   4.064   1.549   9.193 -0.2944  0.4293 -0.3279
 1015MOL0     C36900   4.178   1.654   9.192 -0.2321 -0.0621 -0.0635
 1015MOL0     C36901   4.307   1.601   9.120  0.5026 -0.6046  0.9945
 1015MOL0     C36902   4.398   1.504   9.178  0.4683 -0.1976 -0.3195
 1015MOL0     C36903   4.520   1.473   9.088  0.0099 -0.2809  0.1051
 1015MOL0     C36904   4.613   1.378   9.156 -0.5132  0.0730  0.7105
 1015MOL0     C36905   4.713   1.425   9.250 -0.4995  0.4233 -0.3679
 1015MOL0     C36906   4.838   1.498   9.200 -0.7440 -0.1023 -0.5990
 1015MOL0     N36907   4.906   1.566   9.313  0.7017 -0.2599  0.1550
 1015MOL0     C36908   4.930   1.522   9.435  0.2452 -0.7981  0.1762
 1015MOL0     C36909   4.998   1.630   9.495  0.9127  0.6644 -0.4371
 1015MOL0     C36910   5.073   1.622   9.620  0.1490 -0.0769  1.0351
 1015MOL0     C36911   5.216   1.581   9.591 -0.2350 -0.2642  1.2686
 1015MOL0     C36912   5.313   1.581   9.718 -0.5920  0.1459 -0.0751
 1015MOL0     C36913   5.456   1.556   9.673 -0.4526  0.2675  0.7380
 1015MOL0     O36914   5.525   1.520   9.801 -0.2535  0.3858  0.6463
 1015MOL0     C36915   5.646   1.568   9.841 -0.2875  0.0030  0.5843
 1015MOL0     C36916   5.728   1.643   9.759 -0.0229 -0.7013 -0.3526
 1015MOL0     C36917   5.860   1.690   9.803  0.8194 -0.1721 -0.3666
 1015MOL0     C36918   5.913   1.643   9.922  0.7481  0.4743 -0.5697
 1015MOL0     C36919   6.041   1.705   9.977  0.6676 -0.0121 -0.2004
 1015MOL0     O36920   6.065   1.830   9.932 -1.0114  0.1729  0.0080
 1015MOL0     C36921   6.169   1.901   9.982 -0.4776 -0.4009 -0.0983
 1015MOL0     C36922   6.303   1.850   9.988  0.4774 -0.5051  0.4154
 1015MOL0     C36923   6.404   1.922  10.042 -0.2151  0.1705 -0.8379
 1015MOL0     C36924   6.385   2.053  10.094  0.0060 -0.8916  1.0823
 1015MOL0     O36925   6.474   2.137  10.162  0.4479 -0.0187  0.4821
 1015MOL0     C36926   6.602   2.069  10.194  0.8013  0.0022 -0.2230
 1015MOL0     C36927   6.683   2.159  10.283 -0.0608 -0.1722 -0.2877
 1015MOL0     C36928   6.814   2.093  10.314 -0.0224  0.6444  0.6506
 1015MOL0     C36929   6.918   2.197  10.342 -0.6775 -0.6794 -0.4924
 1015MOL0     C36930   7.053   2.131  10.379 -0.2893  0.3792 -0.1621
 1015MOL0     C36931   7.051   2.084  10.525 -0.6592  0.0323 -0.2621
 1015MOL0     C36932   7.196   2.040  10.566  0.1146 -0.3398 -0.6780
 1015MOL0     C36933   7.170   1.912  10.650 -0.6836  0.7453 -0.2169
 1015MOL0    Cl36934   7.318   1.860  10.746  0.3899 -0.1531  0.1862
 1015MOL0     C36935   6.256   2.107  10.092 -0.6600 -0.3607 -0.0973
 1015MOL0     C36936   6.147   2.035  10.034  0.2214  0.7925 -0.7435
 1015MOL0     O36937   6.108   1.647  10.058  0.4444  0.1778  0.4663
 1015MOL0     C36938   5.829   1.555  10.001 -0.6713  0.0718  0.3597
 1015MOL0     C36939   5.696   1.522   9.965  0.2317  0.1869  0.8098
 1015MOL0     N36940   5.013   1.730   9.399 -0.8472 -0.1066 -0.2936
 1015MOL0     N36941   4.966   1.688   9.290 -0.1188  0.6687 -0.6886
 1015MOL0     C36942   3.720   1.562   9.308  0.5215 -0.1666  0.3223
 1015MOL0     C36943   3.601   1.488   9.282 -0.4996  0.2534 -0.6291
 1015MOL0     C36944   3.371   1.097   9.118  0.9246 -0.9070  1.0444
 1015MOL0     C36945   3.384   0.976   9.041  0.1505 -0.5387 -0.5613
 1015MOL0     C36946   3.275   0.911   9.009 -0.0744  0.3845  0.3146
 1015MOL0     C36947   3.153   0.952   9.045  0.5438  0.8966  0.2083
 1015MOL0     O36948   3.037   0.885   9.010 -0.5758  0.2302 -0.0641
 1015MOL0     C36949   3.028   0.794   8.901 -0.4455 -1.3585  0.7337
 1015MOL0     C36950   3.071   0.868   8.765 -0.6381  0.5771  0.7573
 1015MOL0     C36951   2.983   0.990   8.731 -0.0432  0.2618 -0.9401
 1015MOL0     C36952   2.838   0.956   8.702  0.4062 -0.1346 -0.5599
 1015MOL0     C36953   2.767   1.075   8.680  0.8750 -0.5618  0.4339
 1015MOL0     C36954   2.701   1.176   8.678 -0.1723 -0.0888  0.1385
 1015MOL0     C36955   3.133   1.065   9.128  1.0700  0.2211  0.3913
 1015MOL0     C36956   3.241   1.148   9.155  0.1784 -0.4877 -0.3651
 1015MOL0     C36957   3.206   1.276   9.225 -0.0993  0.6962 -0.2451
 1015MOL0     H36958   3.721   1.274   9.040  1.3441  1.3763 -0.3828
 1015MOL0     H36959   3.912   1.399   9.062 -1.8988 -0.4166 -2.8074
 1015MOL0     H36960   4.099   1.471   9.260 -1.0955  0.1692 -0.2068
 1015MOL0     H36961   4.063   1.521   9.087  4.0128  1.1153 -0.7649
 1015MOL0     H36962   4.207   1.679   9.295  0.2826 -0.5185 -0.0879
 1015MOL0     H36963   4.142   1.745   9.144 -1.9351 -0.3832  0.5162
 1015MOL0     H36964   4.372   1.686   9.096  1.2924 -1.0619  1.4995
 1015MOL0     H36965   4.282   1.563   9.021 -0.0446 -0.1018  0.9333
 1015MOL0     H36966   4.428   1.544   9.275 -0.8507 -1.2248  0.5393
 1015MOL0     H36967   4.347   1.409   9.195 -1.4298  0.6833 -0.7663
 1015MOL0     H36968   4.477   1.427   8.998 -0.8705 -0.3903  0.5684
 1015MOL0     H36969   4.570   1.568   9.068  0.9126 -1.1329 -1.8827
 1015MOL0     H36970   4.555   1.298   9.204 -1.6301  2.2663  3.3015
 1015MOL0     H36971   4.669   1.334   9.073 -1.0263 -2.0507  1.4286
 1015MOL0     H36972   4.754   1.342   9.309  2.3844  0.0314 -2.6681
 1015MOL0     H36973   4.660   1.484   9.325 -0.0808 -2.4997  2.4845
 1015MOL0     H36974   4.904   1.422   9.156  0.0655  2.5709 -4.5585
 1015MOL0     H36975   4.824   1.567   9.116 -1.6723 -1.0135 -1.2219
 1015MOL0     H36976   4.918   1.421   9.471  1.0814 -0.5537  1.2023
 1015MOL0     H36977   5.074   1.717   9.674  1.0658 -0.1906  1.2528
 1015MOL0     H36978   5.018   1.548   9.679 -0.7100 -0.5720 -0.3560
 1015MOL0     H36979   5.222   1.477   9.556  0.3529  0.0985  0.2650
 1015MOL0     H36980   5.264   1.653   9.525 -1.4431 -0.2256  0.4100
 1015MOL0     H36981   5.270   1.502   9.780 -1.4181  0.3421 -0.3836
 1015MOL0     H36982   5.315   1.675   9.775  1.0800  0.9363 -1.3482
 1015MOL0     H36983   5.498   1.651   9.638  0.3553  0.0239  1.0078
 1015MOL0     H36984   5.465   1.477   9.597 -4.1454 -0.5525  0.9806
 1015MOL0     H36985   5.693   1.688   9.666 -0.1355 -1.1830 -0.5497
 1015MOL0     H36986   5.911   1.763   9.741  0.4981  2.5110  2.3095
 1015MOL0     H36987   6.321   1.751   9.948 -0.7124 -1.2538  1.6471
 1015MOL0     H36988   6.502   1.876  10.040  1.2141  2.9256  0.1771
 1015MOL0     H36989   6.586   1.972  10.243 -0.6484  1.1041  1.6152
 1015MOL0     H36990   6.661   2.053  10.104  1.1712  0.8724 -0.1354
 1015MOL0     H36991   6.707   2.250  10.227  0.4421  0.5096  1.0019
 1015MOL0     H36992   6.633   2.186  10.376  1.9309  4.2705 -0.2622
 1015MOL0     H36993   6.795   2.031  10.402  1.0343  2.4467  2.2170
 1015MOL0     H36994   6.844   2.044  10.220  2.6206  3.2630 -0.0114
 1015MOL0     H36995   6.900   2.269  10.422  2.0610  0.8921 -1.1847
 1015MOL0     H36996   6.933   2.241  10.243 -1.5162 -0.8108 -0.6834
 1015MOL0     H36997   7.131   2.207  10.374 -0.0451  0.0819 -1.1450
 1015MOL0     H36998   7.082   2.051  10.310  1.6552  0.9708 -0.0942
 1015MOL0     H36999   7.020   2.169  10.587  0.0342 -0.8492  1.3256
 1015MOL0     H37000   6.976   2.010  10.553 -1.4690  1.3818  1.3269
 1015MOL0     H37001   7.250   2.110  10.631  0.9002 -2.1796  0.7472
 1015MOL0     H37002   7.256   2.026  10.476  0.1336 -3.2964 -0.3143
 1015MOL0     H37003   7.087   1.918  10.720  0.6023  0.5382  1.3881
 1015MOL0     H37004   7.139   1.835  10.578 -4.4237  2.0895 -0.2745
 1015MOL0     H37005   6.239   2.210  10.121 -2.2414 -0.2451 -1.2799
 1015MOL0     H37006   6.044   2.071  10.035 -0.3514 -0.1353  4.8046
 1015MOL0     H37007   5.871   1.525  10.096 -0.4838 -2.0475 -0.3490
 1015MOL0     H37008   5.641   1.468  10.041  0.2768 -0.3438  0.4646
 1015MOL0     H37009   3.709   1.648   9.372 -1.7418 -0.6727  0.7016
 1015MOL0     H37010   3.502   1.512   9.319 -0.6180 -0.8485 -0.1932
 1015MOL0     H37011   3.483   0.946   9.007  0.9702 -0.2191  1.4580
 1015MOL0     H37012   3.295   0.815   8.961 -1.0943  0.1698  0.2902
 1015MOL0     H37013   2.926   0.760   8.877 -0.5524 -0.1053 -0.8033
 1015MOL0     H37014   3.090   0.706   8.922  3.6851  1.1387  0.1404
 1015MOL0     H37015   3.071   0.791   8.687  3.2404  0.0622  1.0247
 1015MOL0     H37016   3.173   0.908   8.771  0.0268 -0.3337 -2.4307
 1015MOL0     H37017   3.028   1.043   8.646  0.4505  3.1433  0.9721
 1015MOL0     H37018   3.003   1.061   8.811 -0.4008 -0.0009 -0.6145
 1015MOL0     H37019   2.836   0.892   8.613  0.5684  2.2779 -2.4168
 1015MOL0     H37020   2.788   0.902   8.783 -1.9800  0.6575 -1.4134
 1015MOL0     H37021   2.644   1.266   8.688  0.1466 -0.1178  3.5333
 1015MOL0     H37022   3.037   1.100   9.165 -0.7348 -1.1258 -2.6535
 1015MOL0     H37023   3.117   1.263   9.288 -0.6910  1.5586 -0.8629
 1015MOL0     H37024   3.289   1.307   9.288 -1.4832  5.0525 -0.2084
 1015MOL0     H37025   3.189   1.352   9.147 -1.0745 -0.3179 -1.0534
 1016MOL0     O37026   3.971   2.748   5.369 -0.2392  0.0593 -0.2802
 1016MOL0     C37027   3.910   2.841   5.413  0.0358 -0.3483 -0.6615
 1016MOL0     O37028   3.955   2.965   5.425  0.1064  0.6786 -0.4977
 1016MOL0     C37029   4.082   2.991   5.395 -0.4029  0.0680 -0.2921
 1016MOL0     C37030   4.120   3.023   5.266  0.1743  0.4197  0.6373
 1016MOL0     C37031   4.244   3.079   5.233 -0.3128 -0.2581 -0.1555
 1016MOL0     C37032   4.316   3.126   5.343 -0.1972 -0.2995  0.2420
 1016MOL0     O37033   4.431   3.196   5.298  0.0014 -1.4422 -0.5942
 1016MOL0     C37034   4.500   3.272   5.405  0.0434  0.9357  0.9472
 1016MOL0     C37035   4.596   3.355   5.330 -0.7963  0.1355 -0.1784
 1016MOL0     C37036   4.701   3.280   5.250 -0.1840  0.3255  0.2351
 1016MOL0     C37037   4.826   3.263   5.337  1.2998  0.0393 -0.2020
 1016MOL0     C37038   4.937   3.181   5.262  0.4960  0.4214 -0.3220
 1016MOL0     C37039   5.038   3.128   5.372  0.0196 -0.1503  0.5446
 1016MOL0     C37040   5.165   3.079   5.310  0.9357  0.4636 -0.5894
 1016MOL0     C37041   5.267   3.065   5.421  0.9406  0.5674 -0.4442
 1016MOL0     N37042   5.397   3.035   5.371  0.0142  0.2170 -0.2500
 1016MOL0     C37043   5.436   2.949   5.279 -0.5469  0.5589 -0.0739
 1016MOL0     C37044   5.568   2.967   5.261  0.0460 -0.4976 -0.4293
 1016MOL0     C37045   5.655   2.880   5.176 -0.9144 -1.1405  0.4225
 1016MOL0     C37046   5.647   2.734   5.214  0.5018 -0.6928 -0.1475
 1016MOL0     C37047   5.762   2.696   5.307  0.4855  0.6913 -0.1815
 1016MOL0     C37048   5.780   2.797   5.421 -0.6344 -1.1591  0.3403
 1016MOL0     O37049   5.883   2.728   5.489  0.7322  0.6781  0.6248
 1016MOL0     C37050   5.981   2.800   5.555 -0.3265  0.1182  0.8372
 1016MOL0     C37051   6.104   2.739   5.584 -0.1361 -0.0865 -0.0368
 1016MOL0     C37052   6.202   2.804   5.662  0.4902  0.6043  0.0274
 1016MOL0     C37053   6.185   2.933   5.706  0.7478 -0.4524 -0.6926
 1016MOL0     C37054   6.287   2.987   5.802  0.4951 -0.0567  1.0232
 1016MOL0     O37055   6.291   3.125   5.824 -0.4999  0.4724 -0.0707
 1016MOL0     C37056   6.384   3.185   5.911 -0.1933  0.0504 -0.2469
 1016MOL0     C37057   6.520   3.156   5.938 -0.1122  1.1570  0.1095
 1016MOL0     C37058   6.602   3.239   6.015  1.3593 -0.0529 -0.1918
 1016MOL0     C37059   6.552   3.369   6.060 -0.1235 -0.7838 -0.9630
 1016MOL0     O37060   6.638   3.448   6.132 -0.0395  0.5717 -0.2663
 1016MOL0     C37061   6.610   3.590   6.145 -0.6006  0.2151 -0.7514
 1016MOL0     C37062   6.740   3.650   6.221  0.2970  0.3602  0.9264
 1016MOL0     C37063   6.799   3.586   6.354  0.0210  0.2241 -0.4626
 1016MOL0     C37064   6.921   3.659   6.408 -0.9164 -0.0620 -0.2374
 1016MOL0     C37065   6.972   3.592   6.535 -0.9888 -0.2103 -0.4122
 1016MOL0     C37066   7.082   3.672   6.607  0.0465 -0.0043 -0.3136
 1016MOL0     C37067   7.191   3.722   6.518  0.0818 -0.0130 -0.4209
 1016MOL0     C37068   7.309   3.791   6.590  0.2977  0.2781  0.9907
 1016MOL0    Cl37069   7.398   3.700   6.708  0.2887 -1.1449 -0.4191
 1016MOL0     C37070   6.416   3.392   6.041  0.4057 -0.5754 -0.0267
 1016MOL0     C37071   6.339   3.303   5.964 -0.2830  0.0554 -0.2470
 1016MOL0     O37072   6.356   2.910   5.865  1.2944  0.4356  0.5316
 1016MOL0     C37073   6.060   2.992   5.686  0.1071  0.2208  0.1155
 1016MOL0     C37074   5.963   2.932   5.605 -0.3421  0.9630 -0.1463
 1016MOL0     N37075   5.612   3.070   5.347 -0.1452  0.7659  0.2916
 1016MOL0     N37076   5.500   3.116   5.404 -0.4865 -0.6181 -0.7669
 1016MOL0     C37077   4.288   3.087   5.472  1.4778  0.2227 -0.2375
 1016MOL0     C37078   4.172   3.010   5.499 -0.4267 -0.6439  0.4674
 1016MOL0     C37079   3.776   2.822   5.467 -0.8858  0.4908 -0.3019
 1016MOL0     C37080   3.717   2.924   5.539  0.1696  0.5631  0.4319
 1016MOL0     C37081   3.598   2.904   5.606 -0.0094 -0.5718 -0.0718
 1016MOL0     C37082   3.530   2.787   5.590 -0.3528  0.1408  0.1710
 1016MOL0     O37083   3.404   2.792   5.651 -0.5372  0.5969 -0.4003
 1016MOL0     C37084   3.313   2.678   5.662 -0.1529 -0.4035 -0.0148
 1016MOL0     C37085   3.248   2.631   5.532  0.6369 -0.4729  0.2286
 1016MOL0     C37086   3.126   2.712   5.485  0.3363  0.4714  0.8725
 1016MOL0     C37087   3.090   2.644   5.354  0.2193 -0.1441 -0.2494
 1016MOL0     C37088   2.967   2.713   5.306  0.2179  0.1727  0.0488
 1016MOL0     C37089   2.873   2.765   5.256 -0.6169 -0.1261  0.4977
 1016MOL0     C37090   3.588   2.681   5.526  0.7705 -0.6088  0.4279
 1016MOL0     C37091   3.706   2.689   5.464  0.1625  0.2120 -0.2747
 1016MOL0     C37092   3.749   2.564   5.392 -0.1308  0.3107 -0.2880
 1016MOL0     H37093   4.066   2.995   5.176  1.0651  5.4707 -1.8377
 1016MOL0     H37094   4.276   3.096   5.131  0.2700 -2.7636 -0.4610
 1016MOL0     H37095   4.424   3.327   5.461 -1.2564  1.2016 -0.9979
 1016MOL0     H37096   4.553   3.212   5.479  3.4738  2.2050 -0.3007
 1016MOL0     H37097   4.657   3.420   5.393 -0.2579  0.1534 -0.7136
 1016MOL0     H37098   4.538   3.421   5.265  0.6783 -0.3866 -2.0857
 1016MOL0     H37099   4.730   3.320   5.152 -2.2065  0.1012 -0.5137
 1016MOL0     H37100   4.657   3.185   5.220  1.8577 -0.4589 -0.4260
 1016MOL0     H37101   4.877   3.355   5.369  1.0260  0.0231  0.2905
 1016MOL0     H37102   4.794   3.209   5.427  2.0541 -1.1980 -0.6419
 1016MOL0     H37103   4.902   3.097   5.201 -2.1791  0.5337  0.9058
 1016MOL0     H37104   4.982   3.251   5.190 -0.0075  1.2165  0.1119
 1016MOL0     H37105   5.057   3.219   5.431  2.1675 -0.1084 -0.1345
 1016MOL0     H37106   4.996   3.051   5.436  2.3078 -1.2833  0.7562
 1016MOL0     H37107   5.214   3.153   5.245  2.1970 -1.4180 -1.8703
 1016MOL0     H37108   5.145   2.984   5.261 -1.3313  0.7748 -0.3812
 1016MOL0     H37109   5.268   3.159   5.477 -2.4527 -0.8428  2.3224
 1016MOL0     H37110   5.233   2.984   5.487 -1.3612  1.0229 -1.0022
 1016MOL0     H37111   5.378   2.880   5.219 -1.3708 -0.8674  2.2176
 1016MOL0     H37112   5.628   2.914   5.075  2.3609  0.1948 -0.1347
 1016MOL0     H37113   5.756   2.917   5.193 -1.3030  0.4640 -0.4807
 1016MOL0     H37114   5.554   2.723   5.270  1.2041 -1.1158  0.9830
 1016MOL0     H37115   5.637   2.683   5.117  1.0221  1.2111 -1.2535
 1016MOL0     H37116   5.859   2.699   5.257  0.8388  0.6409  0.4820
 1016MOL0     H37117   5.735   2.596   5.344 -1.2887  0.0569 -2.9206
 1016MOL0     H37118   5.686   2.802   5.478 -1.4546 -1.2929 -0.9611
 1016MOL0     H37119   5.813   2.896   5.387 -0.1140 -0.5615  2.4327
 1016MOL0     H37120   6.135   2.638   5.560  3.4958  0.4856  1.5902
 1016MOL0     H37121   6.290   2.744   5.682  0.6405 -0.6956 -3.8069
 1016MOL0     H37122   6.556   3.066   5.890  1.4125  2.0680 -0.5374
 1016MOL0     H37123   6.709   3.222   6.021  1.7768  1.3400 -2.4456
 1016MOL0     H37124   6.591   3.644   6.052 -1.3160  2.1769  0.4802
 1016MOL0     H37125   6.524   3.601   6.211  0.0366 -2.1660  0.6454
 1016MOL0     H37126   6.817   3.656   6.145 -0.2807 -2.0762  0.0685
 1016MOL0     H37127   6.710   3.750   6.256 -0.0576  1.4797 -2.2726
 1016MOL0     H37128   6.728   3.593   6.437  0.9651  2.9707  0.2180
 1016MOL0     H37129   6.825   3.485   6.322 -3.2525 -0.6467 -0.7601
 1016MOL0     H37130   6.906   3.765   6.430 -2.6322 -0.5084  1.0321
 1016MOL0     H37131   6.999   3.644   6.334 -0.1216  1.4718  0.2494
 1016MOL0     H37132   7.012   3.491   6.522 -0.5140 -0.5479  2.7228
 1016MOL0     H37133   6.893   3.572   6.608 -0.2666 -1.4702  0.0439
 1016MOL0     H37134   7.038   3.769   6.634  1.7311  1.2454 -1.7776
 1016MOL0     H37135   7.119   3.626   6.699 -1.9159  0.4836  0.7807
 1016MOL0     H37136   7.142   3.796   6.454 -2.4893 -0.6552  0.6815
 1016MOL0     H37137   7.217   3.644   6.446 -2.5924  0.4289 -2.0037
 1016MOL0     H37138   7.388   3.820   6.520 -2.0661 -2.1191 -3.0711
 1016MOL0     H37139   7.263   3.877   6.640 -1.1089  0.5266 -0.6249
 1016MOL0     H37140   6.369   3.487   6.064 -0.1011 -0.4069 -1.6479
 1016MOL0     H37141   6.234   3.324   5.944  0.1253  0.6228 -1.9814
 1016MOL0     H37142   6.050   3.088   5.736  2.5485  0.2944  0.5549
 1016MOL0     H37143   5.871   2.988   5.594 -0.9644 -0.1534 -0.9009
 1016MOL0     H37144   4.355   3.121   5.550  1.1502 -0.0730  0.1778
 1016MOL0     H37145   4.153   2.969   5.597  0.9861  1.5373  1.7344
 1016MOL0     H37146   3.762   3.023   5.538 -1.2543  1.2911 -2.5261
 1016MOL0     H37147   3.556   2.980   5.671  2.8474  0.2904  0.9103
 1016MOL0     H37148   3.226   2.706   5.723  1.9161  0.5408  2.7212
 1016MOL0     H37149   3.352   2.596   5.724  0.1218  1.0065  1.7734
 1016MOL0     H37150   3.213   2.528   5.541 -0.2531 -0.2860 -0.8862
 1016MOL0     H37151   3.319   2.631   5.448  0.8048 -1.7641  0.3521
 1016MOL0     H37152   3.157   2.817   5.471  2.2362 -0.1140  0.3131
 1016MOL0     H37153   3.047   2.713   5.560  0.6927  3.3588  1.3427
 1016MOL0     H37154   3.169   2.663   5.281 -0.5864 -0.2867 -1.1854
 1016MOL0     H37155   3.075   2.536   5.363  2.1332 -0.5633 -1.5751
 1016MOL0     H37156   2.798   2.824   5.207 -2.1759 -1.2057  1.5142
 1016MOL0     H37157   3.529   2.590   5.525 -2.3179  1.2443  0.6905
 1016MOL0     H37158   3.771   2.589   5.288  1.5788 -2.8658 -0.7823
 1016MOL0     H37159   3.837   2.528   5.444  0.2092  1.6265  0.0918
 1016MOL0     H37160   3.664   2.495   5.386 -1.5821  1.9618  0.3048
 1017MOL0     O37161  10.489   1.653   1.821 -0.8395  0.2172  0.1085
 1017MOL0     C37162  10.436   1.587   1.903  0.3786  0.3576 -0.1629
 1017MOL0     O37163  10.499   1.550   2.021 -0.0668  0.0925  1.0492
 1017MOL0     C37164  10.635   1.570   2.039  0.0567  0.0860  0.4646
 1017MOL0     C37165  10.727   1.460   2.057 -0.6319 -0.2081  1.5657
 1017MOL0     C37166  10.864   1.480   2.074 -0.0862  0.5067 -0.1114
 1017MOL0     C37167  10.917   1.607   2.065 -0.1681 -0.9192 -0.3342
 1017MOL0     O37168  11.052   1.616   2.076  0.0916  0.5874 -0.3212
 1017MOL0     C37169  11.096   1.719   2.165 -0.0367 -0.1904 -0.1777
 1017MOL0     C37170  11.245   1.710   2.186  0.6430  0.0844  0.4508
 1017MOL0     C37171  11.297   1.838   2.258  0.1216  0.0615  0.0868
 1017MOL0     C37172  11.411   1.793   2.354 -0.3179 -0.4536  0.7231
 1017MOL0     C37173  11.447   1.905   2.451 -0.3446 -0.2399 -0.4322
 1017MOL0     C37174  11.525   2.015   2.385  0.4195 -0.7715 -0.2411
 1017MOL0     C37175  11.563   2.137   2.479  0.4236  0.3248  0.0858
 1017MOL0     C37176  11.670   2.094   2.579 -0.0954 -1.0513 -0.0366
 1017MOL0     N37177  11.802   2.091   2.508  0.0706 -0.1195 -0.0187
 1017MOL0     C37178  11.889   1.983   2.514 -0.5993 -0.5718 -0.0406
 1017MOL0     C37179  11.998   2.025   2.447  0.0498 -0.3043 -0.0343
 1017MOL0     C37180  12.093   1.918   2.397  1.2178 -0.3169 -0.5467
 1017MOL0     C37181  12.225   1.975   2.381  0.9740  0.1285 -0.3621
 1017MOL0     C37182  12.302   1.893   2.275  0.1087 -0.7139  0.0698
 1017MOL0     C37183  12.360   1.771   2.333 -0.3913  0.2883 -0.0047
 1017MOL0     O37184  12.458   1.821   2.423  0.2276 -0.2266 -0.2072
 1017MOL0     C37185  12.526   1.729   2.493  0.1600 -0.8842  0.1124
 1017MOL0     C37186  12.513   1.590   2.489 -0.1278  1.0896 -0.1161
 1017MOL0     C37187  12.598   1.513   2.574  1.7030 -1.1667  0.0698
 1017MOL0     C37188  12.688   1.581   2.659 -0.4086  0.4306 -0.8843
 1017MOL0     C37189  12.783   1.504   2.746 -0.2729  0.1954  0.3121
 1017MOL0     O37190  12.902   1.555   2.789 -0.4647  0.0917  0.2680
 1017MOL0     C37191  12.987   1.478   2.855 -0.4071  0.4677 -0.1586
 1017MOL0     C37192  12.986   1.481   2.997 -0.1459 -0.1453  0.6194
 1017MOL0     C37193  13.078   1.397   3.068  1.4625 -0.3676 -0.3668
 1017MOL0     C37194  13.166   1.318   2.994 -0.7598  1.0698  0.8620
 1017MOL0     O37195  13.260   1.223   3.046  0.1422  0.6619 -0.4939
 1017MOL0     C37196  13.316   1.240   3.179 -0.0311 -0.2707 -0.0379
 1017MOL0     C37197  13.422   1.142   3.219 -0.2144  0.0779 -0.9736
 1017MOL0     C37198  13.567   1.183   3.173 -0.3789 -0.2219  0.2996
 1017MOL0     C37199  13.652   1.248   3.287  0.0853 -0.4498  0.1174
 1017MOL0     C37200  13.790   1.286   3.229  1.4074  0.5123 -0.5321
 1017MOL0     C37201  13.879   1.334   3.346  0.2123 -0.5191 -0.1885
 1017MOL0     C37202  14.027   1.351   3.303  0.2013 -0.4800  0.5070
 1017MOL0     C37203  14.102   1.379   3.428 -0.1746 -0.1332  0.5915
 1017MOL0    Cl37204  14.271   1.426   3.380  0.6244  0.1712  0.5494
 1017MOL0     C37205  13.176   1.327   2.855  0.5211 -0.9504  0.1904
 1017MOL0     C37206  13.085   1.414   2.785 -0.4860  0.2979 -0.6661
 1017MOL0     O37207  12.746   1.396   2.770  0.2538  0.1338  0.5050
 1017MOL0     C37208  12.705   1.723   2.652 -0.5425 -0.6862 -0.4515
 1017MOL0     C37209  12.626   1.794   2.566 -0.4452  0.3385  0.4252
 1017MOL0     N37210  11.968   2.153   2.400 -0.2350 -0.7691 -0.7772
 1017MOL0     N37211  11.852   2.192   2.447 -0.1169 -0.5728 -0.0453
 1017MOL0     C37212  10.830   1.718   2.039  0.1225  0.6413 -0.6109
 1017MOL0     C37213  10.692   1.699   2.036  0.1003 -0.1360  0.5825
 1017MOL0     C37214  10.299   1.532   1.871 -0.1313 -0.5486  0.0737
 1017MOL0     C37215  10.270   1.515   1.737 -0.0183  0.2583 -0.1961
 1017MOL0     C37216  10.153   1.467   1.684  0.7636 -0.0708  0.2542
 1017MOL0     C37217  10.048   1.432   1.774 -0.2022  0.4063  0.1103
 1017MOL0     O37218   9.928   1.397   1.723 -0.3507 -0.3886 -0.3362
 1017MOL0     C37219   9.828   1.497   1.744  0.9268 -0.1277 -0.1572
 1017MOL0     C37220   9.697   1.435   1.686 -0.2241  0.2940  0.2383
 1017MOL0     C37221   9.652   1.292   1.719 -0.5167 -0.2789 -0.0735
 1017MOL0     C37222   9.567   1.272   1.839 -0.0189 -0.2411 -0.0696
 1017MOL0     C37223   9.654   1.283   1.956 -0.2247 -0.8927 -0.2002
 1017MOL0     C37224   9.733   1.300   2.042  0.4521 -0.1888 -1.1765
 1017MOL0     C37225  10.067   1.444   1.915  0.7907 -0.9394  0.0965
 1017MOL0     C37226  10.191   1.493   1.961  0.6799  1.1048 -0.1725
 1017MOL0     C37227  10.201   1.516   2.116  0.2987 -0.1065  0.4151
 1017MOL0     H37228  10.694   1.357   2.065  0.8892 -0.8792 -0.1547
 1017MOL0     H37229  10.936   1.400   2.090  1.9564  1.6602 -2.7409
 1017MOL0     H37230  11.065   1.813   2.117  0.6173 -0.5330 -1.3047
 1017MOL0     H37231  11.044   1.712   2.261 -0.0418 -0.1292 -0.1750
 1017MOL0     H37232  11.291   1.692   2.088 -1.5412  0.7558 -0.7496
 1017MOL0     H37233  11.259   1.626   2.256  0.8756 -0.0991  0.1872
 1017MOL0     H37234  11.214   1.872   2.320 -1.1952  0.4409 -1.8122
 1017MOL0     H37235  11.333   1.914   2.188  0.6028  0.5747  0.8765
 1017MOL0     H37236  11.379   1.700   2.402 -1.5861  0.9262  2.6734
 1017MOL0     H37237  11.503   1.781   2.295 -1.4518  1.3178 -1.5948
 1017MOL0     H37238  11.360   1.948   2.502 -0.5817 -0.1885 -0.8732
 1017MOL0     H37239  11.512   1.850   2.520 -2.0296 -3.2435 -1.0138
 1017MOL0     H37240  11.624   1.978   2.356  2.4016  1.3523  3.2192
 1017MOL0     H37241  11.469   2.056   2.300 -0.9851 -0.3565  0.8420
 1017MOL0     H37242  11.473   2.175   2.529 -0.5801  0.1142 -1.4992
 1017MOL0     H37243  11.604   2.213   2.413  1.2882 -0.0709  0.1590
 1017MOL0     H37244  11.669   2.165   2.663 -0.6741 -2.8952  1.5828
 1017MOL0     H37245  11.650   1.995   2.621 -0.3880 -1.4913 -1.1860
 1017MOL0     H37246  11.877   1.882   2.550  1.3803  0.3706  3.7736
 1017MOL0     H37247  12.107   1.837   2.470  1.1896 -1.0526 -1.3409
 1017MOL0     H37248  12.049   1.873   2.308  0.2566 -1.7966  0.6239
 1017MOL0     H37249  12.208   2.072   2.334 -1.7169  0.0955  0.3638
 1017MOL0     H37250  12.279   1.994   2.474  0.7325 -0.6543 -0.0570
 1017MOL0     H37251  12.383   1.952   2.232  1.0796 -3.4056 -2.1007
 1017MOL0     H37252  12.241   1.873   2.186 -1.3287  1.4718  0.4740
 1017MOL0     H37253  12.408   1.722   2.248  1.3036  2.7019 -0.5648
 1017MOL0     H37254  12.286   1.712   2.386 -0.3413  3.6283  4.3269
 1017MOL0     H37255  12.439   1.536   2.431 -0.0115 -1.4437  1.8745
 1017MOL0     H37256  12.598   1.405   2.587 -0.0686 -1.3441 -1.0433
 1017MOL0     H37257  12.925   1.549   3.055  0.3451  1.3476 -0.5320
 1017MOL0     H37258  13.077   1.397   3.176  0.8192  2.3498 -0.3068
 1017MOL0     H37259  13.374   1.332   3.184 -0.1761 -0.1994  0.3818
 1017MOL0     H37260  13.237   1.240   3.255 -0.7746  1.4462 -0.7429
 1017MOL0     H37261  13.423   1.144   3.328 -0.9289 -0.0072 -0.9676
 1017MOL0     H37262  13.399   1.043   3.181  2.2853 -0.8646 -0.2528
 1017MOL0     H37263  13.610   1.090   3.132  0.1145 -1.4042  3.2637
 1017MOL0     H37264  13.569   1.258   3.094 -0.5131  0.1374  0.6391
 1017MOL0     H37265  13.656   1.169   3.362 -0.9900  0.9998  1.7645
 1017MOL0     H37266  13.598   1.335   3.325  0.1879 -0.8328  1.1574
 1017MOL0     H37267  13.770   1.368   3.159 -1.0293  1.2969  0.9565
 1017MOL0     H37268  13.840   1.205   3.175  1.2530 -1.2645  1.8261
 1017MOL0     H37269  13.845   1.429   3.388  2.9776 -0.5929  2.5409
 1017MOL0     H37270  13.877   1.254   3.421 -0.8619 -1.0101 -0.7193
 1017MOL0     H37271  14.043   1.435   3.234 -1.4735  0.4480  1.1822
 1017MOL0     H37272  14.067   1.255   3.271  0.0320 -0.5491  0.5020
 1017MOL0     H37273  14.053   1.450   3.495  0.1356  1.1165 -0.4689
 1017MOL0     H37274  14.103   1.287   3.487  0.9988 -0.9064 -0.5717
 1017MOL0     H37275  13.255   1.285   2.794  0.3284  0.5547 -1.1512
 1017MOL0     H37276  13.087   1.433   2.679 -0.9305 -1.2613 -0.9862
 1017MOL0     H37277  12.792   1.761   2.705 -0.6370 -1.4879  0.2958
 1017MOL0     H37278  12.644   1.899   2.545  1.3088  0.7034  3.1970
 1017MOL0     H37279  10.859   1.822   2.036 -1.5036  1.2147  1.2959
 1017MOL0     H37280  10.630   1.786   2.017  1.4719  0.6280 -0.5888
 1017MOL0     H37281  10.341   1.544   1.661 -0.6076 -1.6118 -1.5233
 1017MOL0     H37282  10.134   1.460   1.577  1.8980 -1.0127  0.0827
 1017MOL0     H37283   9.854   1.587   1.688  1.4604 -0.5955 -0.6826
 1017MOL0     H37284   9.819   1.534   1.846  0.9613  3.1476 -1.2397
 1017MOL0     H37285   9.694   1.447   1.577 -1.2395 -0.0125  0.2178
 1017MOL0     H37286   9.615   1.498   1.720 -0.7400 -1.1455  1.8220
 1017MOL0     H37287   9.727   1.213   1.708 -2.4420 -2.3197  0.6549
 1017MOL0     H37288   9.578   1.285   1.638 -0.1712  0.6450 -0.4864
 1017MOL0     H37289   9.480   1.338   1.845 -0.4554 -0.8538  0.4476
 1017MOL0     H37290   9.537   1.167   1.846  2.3594 -0.9798 -0.3077
 1017MOL0     H37291   9.791   1.318   2.130  0.3639 -2.7826 -0.4967
 1017MOL0     H37292   9.989   1.423   1.987  1.1826 -0.7522  0.5771
 1017MOL0     H37293  10.219   1.623   2.126 -0.4728 -0.0022  0.6701
 1017MOL0     H37294  10.110   1.489   2.170  0.3791 -0.1786  0.5154
 1017MOL0     H37295  10.286   1.462   2.159 -0.4779  0.0903  2.2535
 1018MOL0     O37296   9.352  10.779   2.651  0.0038  0.0182 -0.1048
 1018MOL0     C37297   9.338  10.875   2.728  0.2780 -0.1987  0.0403
 1018MOL0     O37298   9.443  10.954   2.780  0.1954 -0.2962 -0.2728
 1018MOL0     C37299   9.571  10.909   2.738 -0.4105 -0.6260 -0.2373
 1018MOL0     C37300   9.663  10.881   2.835 -0.2737 -0.5774 -0.0540
 1018MOL0     C37301   9.787  10.839   2.803 -0.4460  0.3462 -0.3931
 1018MOL0     C37302   9.824  10.815   2.670  0.1440 -0.0771 -0.7031
 1018MOL0     O37303   9.940  10.755   2.638 -0.1800 -0.2314 -0.3077
 1018MOL0     C37304   9.970  10.736   2.494 -0.1053  0.5785  0.7759
 1018MOL0     C37305  10.082  10.645   2.459 -0.2331 -0.4903  0.0495
 1018MOL0     C37306  10.218  10.713   2.488  0.5677 -0.2260  0.3380
 1018MOL0     C37307  10.321  10.610   2.495 -0.3057  0.0511 -0.6792
 1018MOL0     C37308  10.462  10.667   2.517 -0.0887 -0.2555  0.1104
 1018MOL0     C37309  10.512  10.751   2.395 -0.9029 -1.1194 -0.6752
 1018MOL0     C37310  10.658  10.802   2.422  0.0132  0.2499  0.6895
 1018MOL0     C37311  10.757  10.705   2.358 -0.0624 -1.3180 -0.7434
 1018MOL0     N37312  10.899  10.730   2.375  0.1589 -0.5312  0.1179
 1018MOL0     C37313  10.970  10.771   2.484  0.3422 -0.6808  0.3961
 1018MOL0     C37314  11.093  10.769   2.448 -1.2860 -0.1110 -0.0212
 1018MOL0     C37315  11.206  10.795   2.548  0.1268 -0.5551  0.0609
 1018MOL0     C37316  11.262  10.937   2.544  0.0806 -0.0812 -0.6897
 1018MOL0     C37317  11.354  10.976   2.657 -0.1722 -0.7991 -0.2948
 1018MOL0     C37318  11.471  10.882   2.672  0.3825  0.3674 -0.3941
 1018MOL0     O37319  11.583  10.950   2.731  0.5260  0.3148  0.0490
 1018MOL0     C37320  11.711  10.894   2.734 -0.2133  0.7341 -0.3382
 1018MOL0     C37321  11.738  10.756   2.708 -0.7281  0.6647 -0.2937
 1018MOL0     C37322  11.867  10.706   2.725  0.2162  0.1961  0.3113
 1018MOL0     C37323  11.978  10.798   2.740 -0.1948  0.7087 -0.3876
 1018MOL0     C37324  12.118  10.745   2.743  0.8586  0.0369  0.0127
 1018MOL0     O37325  12.206  10.833   2.806  0.0904 -1.1187  0.4445
 1018MOL0     C37326  12.341  10.822   2.805 -0.4868  0.3308 -0.7663
 1018MOL0     C37327  12.417  10.767   2.701 -0.1908  0.0347 -0.2568
 1018MOL0     C37328  12.555  10.768   2.708 -0.7019 -0.9252 -0.4661
 1018MOL0     C37329  12.620  10.809   2.828  0.3614 -0.6913  1.2712
 1018MOL0     O37330  12.748  10.797   2.848  0.0999 -0.1802  0.3833
 1018MOL0     C37331  12.811  10.680   2.798  0.5655  0.2154 -0.5607
 1018MOL0     C37332  12.946  10.672   2.866 -0.1043  0.1890  0.5415
 1018MOL0     C37333  13.023  10.803   2.857  0.7716 -0.9068 -1.0957
 1018MOL0     C37334  13.168  10.783   2.909 -0.1985  0.3100 -0.0698
 1018MOL0     C37335  13.258  10.880   2.833  0.1420  0.0141  0.3784
 1018MOL0     C37336  13.390  10.909   2.896  0.3819  0.0086 -1.1908
 1018MOL0     C37337  13.484  10.971   2.787  0.3863  0.0152 -0.2900
 1018MOL0     C37338  13.638  10.946   2.810 -0.1641 -0.0165 -0.0546
 1018MOL0    Cl37339  13.678  11.035   2.965 -0.0771  0.1747 -0.2574
 1018MOL0     C37340  12.547  10.862   2.932  0.4056 -0.1351  0.1758
 1018MOL0     C37341  12.412  10.865   2.921 -0.0498  0.0673  1.0582
 1018MOL0     O37342  12.142  10.634   2.690  0.2203  0.4289  0.4710
 1018MOL0     C37343  11.951  10.936   2.775 -0.4627  0.6843 -0.6446
 1018MOL0     C37344  11.815  10.977   2.766 -0.2357  0.3825  0.6256
 1018MOL0     N37345  11.113  10.719   2.315 -0.0016 -0.7365  0.0900
 1018MOL0     N37346  10.990  10.725   2.270 -0.4765 -0.3262  0.2155
 1018MOL0     C37347   9.739  10.870   2.572  0.3644  0.1474 -0.4079
 1018MOL0     C37348   9.603  10.910   2.603  0.8966  0.6137 -0.7707
 1018MOL0     C37349   9.195  10.915   2.766  0.5946  0.6908 -0.3174
 1018MOL0     C37350   9.179  10.988   2.885 -0.0031  0.1740 -0.6896
 1018MOL0     C37351   9.053  11.009   2.930  0.0911 -0.1696 -0.0200
 1018MOL0     C37352   8.936  10.973   2.863 -0.6382 -0.3496 -0.2840
 1018MOL0     O37353   8.810  10.996   2.908  0.1623 -0.0456  0.5266
 1018MOL0     C37354   8.793  11.048   3.043 -0.4501 -0.0716 -0.2375
 1018MOL0     C37355   8.819  11.196   3.053 -0.9325  0.0499  0.3137
 1018MOL0     C37356   8.676  11.263   3.068  0.2016  1.2933  0.8574
 1018MOL0     C37357   8.670  11.390   2.975  0.3195 -0.0429  0.1472
 1018MOL0     C37358   8.614  11.363   2.838 -0.3724 -0.8336  0.2305
 1018MOL0     C37359   8.584  11.329   2.723 -0.3787  0.4226  0.7685
 1018MOL0     C37360   8.951  10.920   2.738 -0.3145 -0.4784  0.3005
 1018MOL0     C37361   9.088  10.883   2.683 -0.1530 -0.2479 -0.1329
 1018MOL0     C37362   9.089  10.828   2.548 -0.0200 -0.2467  0.0654
 1018MOL0     H37363   9.643  10.902   2.940  1.8738  1.1077  0.1207
 1018MOL0     H37364   9.847  10.810   2.889 -3.0144 -2.1540  0.6962
 1018MOL0     H37365   9.877  10.696   2.454 -0.2395  2.0428 -0.4806
 1018MOL0     H37366   9.973  10.833   2.443  2.1738  2.3434  3.9025
 1018MOL0     H37367  10.081  10.612   2.355 -1.9950  1.1248 -0.5056
 1018MOL0     H37368  10.079  10.561   2.529  2.0939 -0.3949  0.3417
 1018MOL0     H37369  10.204  10.777   2.575 -4.2468 -0.3222 -0.1302
 1018MOL0     H37370  10.234  10.782   2.405 -0.0672  0.4199  0.7468
 1018MOL0     H37371  10.298  10.542   2.577 -2.5127 -0.4555 -1.6491
 1018MOL0     H37372  10.318  10.558   2.399 -0.2053 -2.2024  0.4889
 1018MOL0     H37373  10.468  10.727   2.609  0.6544  1.4356 -0.9873
 1018MOL0     H37374  10.529  10.582   2.529 -0.7774 -0.8569 -0.2423
 1018MOL0     H37375  10.504  10.696   2.301 -1.5537 -2.5891  0.2020
 1018MOL0     H37376  10.456  10.844   2.380  0.6972 -0.1084 -0.6101
 1018MOL0     H37377  10.662  10.807   2.531  2.4226 -1.6609  0.7614
 1018MOL0     H37378  10.670  10.899   2.371  2.7782 -0.6040 -0.4988
 1018MOL0     H37379  10.731  10.612   2.409  0.2229 -0.4621  1.0229
 1018MOL0     H37380  10.739  10.703   2.250 -1.8499 -0.2590 -0.5121
 1018MOL0     H37381  10.945  10.796   2.586 -0.0738  0.5817 -0.0005
 1018MOL0     H37382  11.163  10.774   2.646 -2.0210 -3.7417 -1.3704
 1018MOL0     H37383  11.292  10.731   2.527  1.9866  1.9565 -0.3383
 1018MOL0     H37384  11.313  10.954   2.448 -3.5497  2.5527 -2.3678
 1018MOL0     H37385  11.173  11.000   2.536  2.4680  3.6009 -0.5481
 1018MOL0     H37386  11.307  10.964   2.755  3.8467 -1.5455  1.7547
 1018MOL0     H37387  11.391  11.078   2.657  1.2096 -1.1163  3.4892
 1018MOL0     H37388  11.504  10.842   2.575 -0.0114 -1.8460  0.3327
 1018MOL0     H37389  11.448  10.793   2.730 -1.3352  0.1272 -1.3883
 1018MOL0     H37390  11.675  10.674   2.674  2.5117 -1.6185 -1.2359
 1018MOL0     H37391  11.880  10.604   2.690  0.6403  1.2539 -2.9873
 1018MOL0     H37392  12.366  10.713   2.622 -2.3547  2.3426 -0.5338
 1018MOL0     H37393  12.620  10.737   2.627  2.6739  1.2948  1.1800
 1018MOL0     H37394  12.745  10.597   2.824 -1.4842  2.1397  0.6900
 1018MOL0     H37395  12.819  10.687   2.689 -1.4530  0.4194 -0.7295
 1018MOL0     H37396  12.938  10.638   2.970 -1.8076  1.7146  0.9498
 1018MOL0     H37397  13.004  10.590   2.822 -0.5867  0.4623 -0.6558
 1018MOL0     H37398  13.009  10.849   2.759 -0.0777  1.0635 -0.1063
 1018MOL0     H37399  12.971  10.867   2.928 -1.1119 -0.3050 -2.9460
 1018MOL0     H37400  13.209  10.684   2.889 -0.8301 -0.2426  1.2601
 1018MOL0     H37401  13.173  10.798   3.017  1.2043  2.0240 -0.3249
 1018MOL0     H37402  13.212  10.979   2.824  0.0809 -0.0558 -0.1032
 1018MOL0     H37403  13.265  10.836   2.733  2.9281  1.4339 -0.1407
 1018MOL0     H37404  13.386  10.987   2.972  0.1460  0.6124 -1.8091
 1018MOL0     H37405  13.429  10.817   2.940 -0.7505 -0.1704 -0.5155
 1018MOL0     H37406  13.466  11.079   2.791  1.8263  0.3103 -1.1037
 1018MOL0     H37407  13.455  10.926   2.692 -1.3227 -1.3418  0.8153
 1018MOL0     H37408  13.667  10.840   2.818 -3.5569 -1.1808 -1.4186
 1018MOL0     H37409  13.705  10.982   2.731  2.5123  1.2742  2.5899
 1018MOL0     H37410  12.608  10.898   3.015  0.4630  2.1599 -0.8044
 1018MOL0     H37411  12.350  10.902   3.001 -0.4851 -0.9335  1.1953
 1018MOL0     H37412  12.028  10.997   2.820 -0.9886  2.9553 -2.6431
 1018MOL0     H37413  11.800  11.082   2.790 -0.3533  0.8383 -1.3093
 1018MOL0     H37414   9.760  10.875   2.465  0.1234 -2.4640 -0.6512
 1018MOL0     H37415   9.532  10.941   2.527  1.1946  1.8249 -0.5737
 1018MOL0     H37416   9.265  11.013   2.946 -1.7383 -0.0839  2.0477
 1018MOL0     H37417   9.049  11.069   3.020 -1.4664 -0.6687  0.2680
 1018MOL0     H37418   8.869  11.002   3.107 -0.5817  1.8066  1.3542
 1018MOL0     H37419   8.702  11.002   3.083  0.5958 -1.1682  0.9647
 1018MOL0     H37420   8.874  11.220   2.962 -1.6893  0.8054  0.0366
 1018MOL0     H37421   8.887  11.215   3.137 -0.8720  1.0049  0.0627
 1018MOL0     H37422   8.674  11.306   3.169 -4.5498  0.4381  1.4058
 1018MOL0     H37423   8.587  11.199   3.060 -0.2423  2.1087 -1.2301
 1018MOL0     H37424   8.617  11.471   3.026  2.3075  2.3567 -1.3614
 1018MOL0     H37425   8.768  11.438   2.966 -0.5005  1.7298  0.2393
 1018MOL0     H37426   8.547  11.305   2.625 -1.9400  0.7857  1.2486
 1018MOL0     H37427   8.865  10.902   2.674  1.0936  0.5384 -2.0219
 1018MOL0     H37428   8.992  10.829   2.498  0.6686 -0.1632 -1.3263
 1018MOL0     H37429   9.164  10.886   2.493 -0.2956  1.1563  1.1110
 1018MOL0     H37430   9.121  10.726   2.569 -0.3753 -0.8011 -1.8799
 1019MOL0     O37431   3.026   8.842   3.111 -0.8928  0.7413 -0.2471
 1019MOL0     C37432   3.004   8.901   3.007  0.3096 -0.0478  1.1843
 1019MOL0     O37433   3.079   8.999   2.958  0.5028 -0.2653  0.3458
 1019MOL0     C37434   3.174   9.067   3.031 -0.1702 -0.8603  1.1402
 1019MOL0     C37435   3.132   9.143   3.140 -0.8144  0.0101  0.0822
 1019MOL0     C37436   3.219   9.221   3.225 -0.5954 -0.7798  0.3195
 1019MOL0     C37437   3.351   9.230   3.188 -0.6525 -0.5760 -0.1379
 1019MOL0     O37438   3.442   9.313   3.253  0.4297  0.0534 -0.5748
 1019MOL0     C37439   3.391   9.407   3.351 -0.5278 -0.6245 -0.1721
 1019MOL0     C37440   3.385   9.326   3.485 -0.2787  0.4336 -0.1910
 1019MOL0     C37441   3.527   9.327   3.539  0.2755 -0.6859  0.7162
 1019MOL0     C37442   3.541   9.238   3.659  0.1256  0.3326  0.8181
 1019MOL0     C37443   3.684   9.239   3.717 -1.1485  0.4477 -1.0241
 1019MOL0     C37444   3.687   9.123   3.816 -0.5387  0.6566  0.0670
 1019MOL0     C37445   3.825   9.097   3.880 -0.6211 -0.2746 -0.4476
 1019MOL0     C37446   3.925   9.065   3.772  0.4604  0.1947  0.2047
 1019MOL0     N37447   4.062   9.029   3.825 -0.2644 -0.3379 -0.0158
 1019MOL0     C37448   4.147   8.932   3.778  0.3374  0.4376  0.2460
 1019MOL0     C37449   4.258   8.933   3.855  0.2818 -0.6485 -0.8046
 1019MOL0     C37450   4.375   8.846   3.827  0.1639  0.1125  0.5279
 1019MOL0     C37451   4.506   8.888   3.892  0.5863  0.3331  0.4939
 1019MOL0     C37452   4.617   8.800   3.841 -0.2268  0.3711  0.0259
 1019MOL0     C37453   4.763   8.864   3.842 -0.0482  0.5835  0.5569
 1019MOL0     O37454   4.807   8.898   3.978 -0.0510 -0.4705  0.5036
 1019MOL0     C37455   4.938   8.924   3.996 -1.1780 -0.2022  0.5261
 1019MOL0     C37456   4.962   9.019   4.096 -1.0422  0.3615 -0.2116
 1019MOL0     C37457   5.095   9.060   4.124  0.8527  0.6963 -0.4387
 1019MOL0     C37458   5.200   9.000   4.055 -0.2780  1.6805  0.7814
 1019MOL0     C37459   5.345   9.034   4.098  0.1191  0.7674 -0.4871
 1019MOL0     O37460   5.377   9.140   4.179 -0.2150  0.1513 -0.3612
 1019MOL0     C37461   5.508   9.151   4.234 -0.8339 -0.2913 -0.1142
 1019MOL0     C37462   5.573   9.056   4.312 -0.3135  0.1211 -0.0441
 1019MOL0     C37463   5.705   9.072   4.374  0.1554 -0.4489 -0.0149
 1019MOL0     C37464   5.771   9.185   4.336 -0.1017 -0.5579 -0.4742
 1019MOL0     O37465   5.904   9.208   4.353  0.0628  0.2063 -0.2508
 1019MOL0     C37466   5.996   9.121   4.417 -0.6821  0.4100  0.3651
 1019MOL0     C37467   6.137   9.186   4.437 -0.0371 -0.4982 -0.2477
 1019MOL0     C37468   6.236   9.146   4.318 -0.2167  0.1302 -0.7971
 1019MOL0     C37469   6.374   9.222   4.340 -0.4137 -0.2701 -0.3440
 1019MOL0     C37470   6.462   9.213   4.213 -0.2779 -0.3498 -0.0527
 1019MOL0     C37471   6.599   9.258   4.255 -1.1941 -0.1609 -0.1043
 1019MOL0     C37472   6.701   9.213   4.159  0.1564  0.2079 -0.2647
 1019MOL0     C37473   6.833   9.287   4.192  0.2057 -0.5594 -0.1126
 1019MOL0    Cl37474   6.914   9.222   4.342  0.0561 -0.2411  0.0280
 1019MOL0     C37475   5.710   9.284   4.259  0.3870 -0.0277 -0.1484
 1019MOL0     C37476   5.583   9.267   4.213  0.1199  0.0516 -0.2700
 1019MOL0     O37477   5.427   8.946   4.067 -0.2749 -0.4875 -0.2283
 1019MOL0     C37478   5.172   8.905   3.957 -0.6104 -0.4329 -0.2187
 1019MOL0     C37479   5.042   8.863   3.932 -1.1602  0.9880 -0.0325
 1019MOL0     N37480   4.238   9.020   3.959  0.6782  0.5236 -0.9201
 1019MOL0     N37481   4.124   9.081   3.937 -0.2609  0.4940  0.3339
 1019MOL0     C37482   3.395   9.153   3.077 -0.2121 -0.3254 -0.2911
 1019MOL0     C37483   3.308   9.077   2.993  0.0275 -0.1945  0.2018
 1019MOL0     C37484   2.892   8.844   2.921 -0.2370 -0.7006  0.1138
 1019MOL0     C37485   2.919   8.826   2.788 -0.2837 -0.4365 -0.4412
 1019MOL0     C37486   2.818   8.777   2.701  0.1070 -0.2038 -0.1279
 1019MOL0     C37487   2.683   8.760   2.750 -0.3514  0.3709  0.3555
 1019MOL0     O37488   2.597   8.718   2.654  0.3218  0.7060 -0.3072
 1019MOL0     C37489   2.469   8.661   2.684  0.1117 -0.2647 -0.2074
 1019MOL0     C37490   2.433   8.553   2.588 -0.3094  0.1282  1.0404
 1019MOL0     C37491   2.296   8.484   2.630 -1.0682 -0.0367 -0.3679
 1019MOL0     C37492   2.226   8.433   2.513  0.5971  0.4359  0.2246
 1019MOL0     C37493   2.084   8.414   2.550  0.4951  0.6558 -0.2575
 1019MOL0     C37494   1.961   8.393   2.577  0.5781  0.3685 -0.0000
 1019MOL0     C37495   2.661   8.770   2.887 -1.3815  0.1585 -0.4482
 1019MOL0     C37496   2.771   8.805   2.974  0.6603  0.7380  0.5430
 1019MOL0     C37497   2.730   8.814   3.114  0.4253  0.4830  0.4914
 1019MOL0     H37498   3.026   9.140   3.161 -0.7773  1.7356  0.6385
 1019MOL0     H37499   3.175   9.272   3.310  0.9072  0.3722  0.4505
 1019MOL0     H37500   3.467   9.484   3.359 -0.0353 -1.1613  0.4505
 1019MOL0     H37501   3.292   9.453   3.342  0.8695  2.3859 -1.3003
 1019MOL0     H37502   3.331   9.231   3.476 -1.1733  0.4516  3.4315
 1019MOL0     H37503   3.318   9.369   3.561  0.3701  1.1073  0.0062
 1019MOL0     H37504   3.547   9.431   3.565  0.9563 -1.0724  1.8001
 1019MOL0     H37505   3.585   9.295   3.452 -2.7692 -0.0118 -1.7340
 1019MOL0     H37506   3.480   9.280   3.739  1.4627 -0.2661  2.2181
 1019MOL0     H37507   3.498   9.140   3.642 -2.1427  1.0417  2.0279
 1019MOL0     H37508   3.760   9.212   3.643 -0.6316  0.4920 -0.5102
 1019MOL0     H37509   3.691   9.331   3.775 -3.0467 -1.3002  2.2871
 1019MOL0     H37510   3.614   9.143   3.895 -1.8967  1.5669 -1.3672
 1019MOL0     H37511   3.655   9.033   3.762 -0.8774  0.1460  1.0773
 1019MOL0     H37512   3.816   9.022   3.959  1.4513 -0.0099  0.1006
 1019MOL0     H37513   3.858   9.183   3.939 -1.6348  0.4192 -0.8666
 1019MOL0     H37514   3.898   8.981   3.708 -1.9066 -1.1584  2.7462
 1019MOL0     H37515   3.942   9.159   3.719 -0.6793  0.3156  0.0380
 1019MOL0     H37516   4.123   8.862   3.698  0.2455  0.5693  0.1576
 1019MOL0     H37517   4.346   8.748   3.866 -1.8887  0.7197  0.6614
 1019MOL0     H37518   4.398   8.851   3.721  1.0555 -0.1947  0.6988
 1019MOL0     H37519   4.530   8.994   3.876 -1.0676  1.4158  4.0573
 1019MOL0     H37520   4.494   8.887   4.001  0.0982  1.1751  0.4608
 1019MOL0     H37521   4.587   8.772   3.739  1.9232 -1.0264 -0.3114
 1019MOL0     H37522   4.618   8.700   3.887  0.9650 -0.2162 -1.1777
 1019MOL0     H37523   4.761   8.953   3.779  1.8098 -0.5156 -1.1600
 1019MOL0     H37524   4.815   8.782   3.793 -1.3573 -0.3376  0.6580
 1019MOL0     H37525   4.880   9.061   4.154  0.7397  2.5612  0.9090
 1019MOL0     H37526   5.113   9.129   4.205 -1.1893  0.1962  0.4864
 1019MOL0     H37527   5.515   8.968   4.337 -3.1694  2.2021  1.1825
 1019MOL0     H37528   5.745   8.980   4.417 -2.0452 -1.7182 -0.5198
 1019MOL0     H37529   5.958   9.088   4.514 -1.4363 -1.0389 -0.3936
 1019MOL0     H37530   6.014   9.030   4.359 -2.2079 -0.1115  0.6631
 1019MOL0     H37531   6.135   9.295   4.441 -2.6838 -0.4279 -1.1511
 1019MOL0     H37532   6.192   9.155   4.526  2.8585 -0.8401 -2.0469
 1019MOL0     H37533   6.261   9.040   4.325  0.3347  0.3496  1.1566
 1019MOL0     H37534   6.204   9.167   4.216  1.8381  0.5507 -1.4066
 1019MOL0     H37535   6.426   9.176   4.424  1.5673 -1.0353 -1.8921
 1019MOL0     H37536   6.360   9.328   4.363  0.3446 -0.1015 -0.6071
 1019MOL0     H37537   6.413   9.274   4.136 -0.8407  0.4562  0.9082
 1019MOL0     H37538   6.461   9.109   4.180  0.1574 -0.3694 -0.0120
 1019MOL0     H37539   6.609   9.366   4.265  0.8821 -0.2336 -0.7708
 1019MOL0     H37540   6.639   9.208   4.344  0.9640  1.9074  0.1883
 1019MOL0     H37541   6.668   9.224   4.055  1.4325 -2.6945 -1.0817
 1019MOL0     H37542   6.727   9.108   4.175  3.2692  0.9423  0.0351
 1019MOL0     H37543   6.900   9.288   4.106  2.3930  0.8595  1.5021
 1019MOL0     H37544   6.806   9.393   4.195  0.2833 -0.4056 -2.5214
 1019MOL0     H37545   5.768   9.372   4.236 -1.5957  1.3110 -0.2432
 1019MOL0     H37546   5.545   9.354   4.159 -1.1935  0.2958  0.9853
 1019MOL0     H37547   5.256   8.854   3.911 -0.3716  1.2964 -1.8158
 1019MOL0     H37548   5.030   8.781   3.863 -0.7069 -2.8613  4.0093
 1019MOL0     H37549   3.504   9.151   3.070  0.0888 -0.7924  2.8496
 1019MOL0     H37550   3.342   9.025   2.903 -0.1602  1.9351 -1.1696
 1019MOL0     H37551   3.012   8.862   2.745 -0.6910 -0.5651 -1.4512
 1019MOL0     H37552   2.846   8.767   2.597 -1.7496 -2.7598 -0.4840
 1019MOL0     H37553   2.393   8.739   2.695  0.0885 -0.6025  2.7349
 1019MOL0     H37554   2.482   8.610   2.780 -0.3703 -4.0243 -1.9300
 1019MOL0     H37555   2.513   8.478   2.596 -0.1196  0.5233  3.4266
 1019MOL0     H37556   2.437   8.598   2.488 -1.9658  1.5165  1.5619
 1019MOL0     H37557   2.239   8.559   2.686 -0.1461 -2.3552  4.1725
 1019MOL0     H37558   2.325   8.407   2.702 -0.8703  2.0649  1.9252
 1019MOL0     H37559   2.228   8.499   2.426 -1.2991 -1.0317 -1.0169
 1019MOL0     H37560   2.270   8.343   2.468  2.8115  1.2489  0.6094
 1019MOL0     H37561   1.855   8.379   2.588  0.1257  1.1152 -2.6587
 1019MOL0     H37562   2.560   8.757   2.925 -1.1336 -1.6193 -0.3391
 1019MOL0     H37563   2.756   8.722   3.166 -4.1260 -1.6843 -0.5252
 1019MOL0     H37564   2.766   8.904   3.164  0.3226  1.7205 -1.5516
 1019MOL0     H37565   2.621   8.815   3.122  0.3249 -1.3387 -0.1756
 1020MOL0     O37566   2.962   0.857   9.615  0.3335  0.4559  0.7223
 1020MOL0     C37567   2.970   0.856   9.491 -0.5034 -0.8357  0.3803
 1020MOL0     O37568   3.078   0.907   9.417  0.2677 -0.4546 -0.5977
 1020MOL0     C37569   3.165   0.990   9.485 -0.9449  0.0790  0.8281
 1020MOL0     C37570   3.132   1.093   9.571 -0.2542 -0.7101 -0.1654
 1020MOL0     C37571   3.225   1.197   9.602 -0.6769  0.3902 -1.3212
 1020MOL0     C37572   3.355   1.183   9.548  0.3973 -0.2127 -1.1568
 1020MOL0     O37573   3.446   1.276   9.600 -0.1322  0.7575 -0.0827
 1020MOL0     C37574   3.566   1.305   9.528 -0.2860  0.2950  0.5336
 1020MOL0     C37575   3.693   1.273   9.609 -0.3223  0.5912 -1.0141
 1020MOL0     C37576   3.821   1.328   9.533 -0.1994  1.0219 -0.4303
 1020MOL0     C37577   3.952   1.303   9.606 -0.7564  0.0006 -0.8031
 1020MOL0     C37578   4.068   1.336   9.518  0.5448 -1.0382 -0.1670
 1020MOL0     C37579   4.193   1.298   9.587  0.4696  0.1085 -0.2754
 1020MOL0     C37580   4.318   1.330   9.503  0.5040 -0.8276 -0.0000
 1020MOL0     C37581   4.443   1.257   9.551  0.8198 -0.0583  0.6796
 1020MOL0     N37582   4.549   1.344   9.608 -0.5812  0.3160  0.2967
 1020MOL0     C37583   4.543   1.454   9.688  0.4682  0.2863  0.4066
 1020MOL0     C37584   4.665   1.474   9.738 -0.2879 -0.4902 -0.3189
 1020MOL0     C37585   4.710   1.591   9.825  0.5101  0.1201  0.1890
 1020MOL0     C37586   4.775   1.546   9.960 -0.6792  0.3900  0.1389
 1020MOL0     C37587   4.805   1.665  10.057 -0.2272  0.9196  0.7628
 1020MOL0     C37588   4.918   1.760  10.000 -0.5275 -0.2544  0.3412
 1020MOL0     O37589   5.035   1.684  10.018  0.3216 -0.4529 -0.3498
 1020MOL0     C37590   5.158   1.736  10.053 -0.4406  0.4787  0.7206
 1020MOL0     C37591   5.273   1.641  10.046 -0.0874 -0.2342  1.0433
 1020MOL0     C37592   5.399   1.676  10.097  0.0988  0.3442  0.1101
 1020MOL0     C37593   5.417   1.807  10.155  0.3416 -0.4288 -0.4203
 1020MOL0     C37594   5.555   1.844  10.210  0.5585 -0.0017 -0.0370
 1020MOL0     O37595   5.570   1.975  10.254  0.0358  0.5516  0.4739
 1020MOL0     C37596   5.690   2.002  10.324  0.0796 -0.8497 -1.7650
 1020MOL0     C37597   5.685   2.046  10.459  0.6253  0.4594 -0.3198
 1020MOL0     C37598   5.799   2.084  10.533 -0.1180  0.2740  0.3828
 1020MOL0     C37599   5.924   2.089  10.469  1.0231 -0.5768 -0.0695
 1020MOL0     O37600   6.035   2.137  10.544 -0.3177 -0.1794 -0.6461
 1020MOL0     C37601   6.155   2.173  10.475 -0.1658 -0.4115 -0.7425
 1020MOL0     C37602   6.228   2.278  10.558  0.7414  0.3363  0.2532
 1020MOL0     C37603   6.354   2.312  10.482  1.1540  0.0966 -0.2521
 1020MOL0     C37604   6.399   2.456  10.525 -0.1829  1.1719  0.6132
 1020MOL0     C37605   6.442   2.477  10.670 -0.4805 -0.6363  0.1138
 1020MOL0     C37606   6.564   2.405  10.717 -0.9657 -0.1468  0.7249
 1020MOL0     C37607   6.620   2.451  10.849  0.9583  1.0169 -0.1971
 1020MOL0     C37608   6.529   2.415  10.964 -0.2986  0.1689  0.5025
 1020MOL0    Cl37609   6.505   2.241  10.966 -0.2505 -0.2395 -0.1445
 1020MOL0     C37610   5.925   2.057  10.328 -0.3353 -0.5543 -0.1215
 1020MOL0     C37611   5.809   2.009  10.260 -0.8577 -0.3519 -0.1133
 1020MOL0     O37612   5.648   1.763  10.202  0.1906  0.0978  0.4875
 1020MOL0     C37613   5.312   1.902  10.152  1.2565  1.0147 -0.5704
 1020MOL0     C37614   5.185   1.859  10.105  0.0769 -0.1475  0.3533
 1020MOL0     N37615   4.747   1.382   9.670 -0.2272  0.3554 -0.9360
 1020MOL0     N37616   4.681   1.307   9.591 -0.7557 -0.5925  0.2186
 1020MOL0     C37617   3.384   1.082   9.467 -0.7218  0.1938  0.1161
 1020MOL0     C37618   3.290   0.988   9.430 -1.1967 -0.5963 -0.2980
 1020MOL0     C37619   2.861   0.795   9.399 -0.5209  1.1623 -0.0763
 1020MOL0     C37620   2.894   0.756   9.265  0.0289  0.6716 -0.7777
 1020MOL0     C37621   2.804   0.696   9.184  1.4648 -0.1058  0.0637
 1020MOL0     C37622   2.676   0.667   9.231  0.4652 -0.1692 -0.2352
 1020MOL0     O37623   2.581   0.604   9.150  0.4063  1.2471  0.5044
 1020MOL0     C37624   2.471   0.519   9.200 -0.1362 -1.1047  0.4426
 1020MOL0     C37625   2.397   0.463   9.074 -0.4899  0.3712 -0.3250
 1020MOL0     C37626   2.291   0.564   9.016  0.3458  0.4395  0.3048
 1020MOL0     C37627   2.217   0.483   8.897  0.2526  0.4322 -0.6202
 1020MOL0     C37628   2.122   0.379   8.946  0.4348 -1.2020 -0.3275
 1020MOL0     C37629   2.028   0.317   8.987  0.1148  0.4233  0.2421
 1020MOL0     C37630   2.648   0.694   9.364  0.2796  0.8507  0.5379
 1020MOL0     C37631   2.733   0.761   9.445  0.2425  0.5009 -0.1692
 1020MOL0     C37632   2.669   0.823   9.572 -1.6735 -0.2115 -0.4659
 1020MOL0     H37633   3.027   1.096   9.595 -0.1651  1.1013  0.1234
 1020MOL0     H37634   3.195   1.278   9.668 -0.8179 -1.6267  1.2711
 1020MOL0     H37635   3.557   1.261   9.429 -0.7997  1.0295  0.2509
 1020MOL0     H37636   3.559   1.410   9.500  0.7744  0.1138 -0.4905
 1020MOL0     H37637   3.688   1.164   9.622 -3.4615  0.9749  3.0166
 1020MOL0     H37638   3.699   1.299   9.715  1.0063 -0.9017 -0.6631
 1020MOL0     H37639   3.821   1.435   9.509  3.4608  1.6573  1.5941
 1020MOL0     H37640   3.845   1.280   9.438  2.2068  1.9779 -0.3683
 1020MOL0     H37641   3.958   1.367   9.694  1.2207  0.7234 -1.4110
 1020MOL0     H37642   3.959   1.201   9.645  0.5145 -0.0161 -1.0470
 1020MOL0     H37643   4.061   1.278   9.425  0.1902 -0.0910 -0.7410
 1020MOL0     H37644   4.066   1.440   9.485 -1.1300 -1.0284 -0.1333
 1020MOL0     H37645   4.197   1.336   9.689 -1.4349  0.3342 -0.2413
 1020MOL0     H37646   4.183   1.189   9.586 -0.7041  0.0928 -4.1360
 1020MOL0     H37647   4.323   1.439   9.505 -0.8928 -0.7393  2.1217
 1020MOL0     H37648   4.289   1.308   9.400 -2.6429  1.2952  0.2835
 1020MOL0     H37649   4.413   1.198   9.637  1.4501  2.3180  2.6544
 1020MOL0     H37650   4.485   1.199   9.469  1.9658 -0.3334  1.4425
 1020MOL0     H37651   4.461   1.523   9.704  0.1172 -0.4124  1.7879
 1020MOL0     H37652   4.785   1.645   9.767  0.9943  3.1671  3.2786
 1020MOL0     H37653   4.624   1.655   9.845  0.0926 -0.9870  2.2668
 1020MOL0     H37654   4.711   1.468  10.002 -0.5062 -0.4357 -1.0625
 1020MOL0     H37655   4.871   1.496   9.940 -0.4975  0.7535  0.0880
 1020MOL0     H37656   4.822   1.639  10.162 -1.4650  0.1765  0.7967
 1020MOL0     H37657   4.710   1.717  10.066 -1.0718 -0.0747 -1.5075
 1020MOL0     H37658   4.919   1.847  10.066  1.9539 -0.0917  0.2102
 1020MOL0     H37659   4.898   1.793   9.897 -0.7808 -0.2479  0.3912
 1020MOL0     H37660   5.263   1.547   9.992  2.0985  1.8210 -3.3907
 1020MOL0     H37661   5.478   1.602  10.089 -0.8853 -0.7890  0.5407
 1020MOL0     H37662   5.593   2.039  10.517  1.0569  3.7587  0.9728
 1020MOL0     H37663   5.785   2.106  10.639 -0.4268  3.9502 -0.2865
 1020MOL0     H37664   6.219   2.085  10.478 -0.7450 -0.8237  1.9816
 1020MOL0     H37665   6.147   2.216  10.374  1.6891 -0.4401 -0.9434
 1020MOL0     H37666   6.171   2.371  10.560  0.8132  0.4321 -1.1743
 1020MOL0     H37667   6.246   2.237  10.658 -0.5542 -1.7523 -0.3030
 1020MOL0     H37668   6.429   2.236  10.503  0.6657  0.0933  1.6845
 1020MOL0     H37669   6.339   2.310  10.374 -1.8760 -3.4583  0.0351
 1020MOL0     H37670   6.314   2.523  10.507  0.6803  2.2251  0.3826
 1020MOL0     H37671   6.467   2.500  10.453  2.0656  0.1832  2.0163
 1020MOL0     H37672   6.370   2.437  10.743 -1.6638  2.5068  0.8216
 1020MOL0     H37673   6.444   2.585  10.687 -2.2514 -0.3898 -0.9038
 1020MOL0     H37674   6.554   2.296  10.720  1.0465 -0.3920 -0.0080
 1020MOL0     H37675   6.637   2.429  10.640 -2.1011 -1.2344 -0.7331
 1020MOL0     H37676   6.614   2.560  10.840  0.1953  0.9686 -0.3388
 1020MOL0     H37677   6.720   2.408  10.865  0.0718 -1.7754 -1.5822
 1020MOL0     H37678   6.573   2.439  11.061 -0.4111 -0.4101  0.7006
 1020MOL0     H37679   6.436   2.473  10.958 -1.9218 -2.4376 -1.8401
 1020MOL0     H37680   6.017   2.059  10.270 -0.1866  1.5262  0.0911
 1020MOL0     H37681   5.832   1.985  10.157 -0.1728  0.0074 -0.0534
 1020MOL0     H37682   5.314   2.004  10.188 -0.4353  1.2063 -0.9683
 1020MOL0     H37683   5.105   1.931  10.105 -0.0556 -0.2370 -1.7498
 1020MOL0     H37684   3.487   1.076   9.434  0.0656  2.1811  1.9921
 1020MOL0     H37685   3.313   0.908   9.360  1.0567  0.0021 -0.3016
 1020MOL0     H37686   2.992   0.773   9.223  0.4866  1.7692  0.6575
 1020MOL0     H37687   2.835   0.683   9.081  0.3452  2.8821 -0.7781
 1020MOL0     H37688   2.396   0.583   9.249  0.4880  0.5596 -0.6777
 1020MOL0     H37689   2.510   0.436   9.259 -0.9295 -2.0577 -0.3493
 1020MOL0     H37690   2.328   0.390   9.117 -0.9108  0.3565 -1.0257
 1020MOL0     H37691   2.472   0.426   9.004 -0.6983 -2.1927  0.7077
 1020MOL0     H37692   2.333   0.660   8.984  0.1944  0.9828  1.6506
 1020MOL0     H37693   2.220   0.590   9.095  0.9258 -0.7932  1.2677
 1020MOL0     H37694   2.155   0.560   8.849  0.2154  1.2657  0.7058
 1020MOL0     H37695   2.290   0.448   8.823 -0.5726 -0.7420 -0.8925
 1020MOL0     H37696   1.947   0.256   9.023  0.3329  0.5075  0.9074
 1020MOL0     H37697   2.554   0.664   9.410  0.8489 -1.7234  0.1740
 1020MOL0     H37698   2.639   0.750   9.648  1.4341 -0.3492  0.7494
 1020MOL0     H37699   2.738   0.891   9.622 -3.1170 -0.2464  1.7260
 1020MOL0     H37700   2.578   0.878   9.544 -2.5094 -0.9377  0.7241
 1021MOL0     O37701   8.476   9.128   2.649  1.0818 -0.4995  0.2597
 1021MOL0     C37702   8.505   9.059   2.555 -0.8119 -0.0261  0.8372
 1021MOL0     O37703   8.406   8.976   2.490 -0.6552 -0.6189  0.4003
 1021MOL0     C37704   8.277   8.982   2.538  0.0737 -0.7322  0.0062
 1021MOL0     C37705   8.184   9.066   2.483 -0.0969 -0.2918  0.8406
 1021MOL0     C37706   8.056   9.069   2.527 -0.3126  0.3211 -0.5298
 1021MOL0     C37707   8.014   9.008   2.643  0.2557  0.2673 -0.5406
 1021MOL0     O37708   7.886   9.022   2.679 -0.4432  0.0460 -0.8830
 1021MOL0     C37709   7.825   8.920   2.767 -0.1349 -0.3087 -0.3286
 1021MOL0     C37710   7.672   8.969   2.783 -0.1599 -0.0988  0.0392
 1021MOL0     C37711   7.592   8.868   2.868 -0.1478  0.7509 -0.5243
 1021MOL0     C37712   7.667   8.803   2.995 -0.4490  0.0586 -0.5291
 1021MOL0     C37713   7.579   8.711   3.080 -1.0146 -0.4392 -0.1818
 1021MOL0     C37714   7.630   8.694   3.230  0.7825 -0.6348  0.0548
 1021MOL0     C37715   7.771   8.625   3.238  0.8914 -1.3284  0.8417
 1021MOL0     C37716   7.783   8.564   3.369 -0.9808  0.1173 -0.3199
 1021MOL0     N37717   7.912   8.497   3.386  0.0586  0.4657  0.4494
 1021MOL0     C37718   8.021   8.548   3.455  0.1031 -0.1404 -0.3954
 1021MOL0     C37719   8.109   8.448   3.441 -0.6994  0.3467 -0.7055
 1021MOL0     C37720   8.242   8.445   3.511  0.0924 -0.0880  0.5420
 1021MOL0     C37721   8.358   8.453   3.408 -0.3082  0.0158 -0.5482
 1021MOL0     C37722   8.490   8.399   3.477 -0.6367 -0.3844 -0.0301
 1021MOL0     C37723   8.611   8.364   3.391 -1.1824  1.1133  0.2508
 1021MOL0     O37724   8.652   8.480   3.307 -0.1172  0.7221 -0.4661
 1021MOL0     C37725   8.777   8.471   3.245  0.7968  0.6823 -0.6962
 1021MOL0     C37726   8.845   8.590   3.203  0.0320 -0.9825  0.5973
 1021MOL0     C37727   8.972   8.583   3.149  0.2210 -0.1072  0.2777
 1021MOL0     C37728   9.040   8.462   3.151 -0.6082 -0.5759  0.0438
 1021MOL0     C37729   9.177   8.457   3.098  0.1626  0.6515 -0.3377
 1021MOL0     O37730   9.233   8.331   3.107  0.0367 -0.3644  0.4668
 1021MOL0     C37731   9.367   8.306   3.088 -0.6027 -0.0914 -1.1211
 1021MOL0     C37732   9.404   8.183   3.056  0.8819 -0.2302 -0.1956
 1021MOL0     C37733   9.535   8.143   3.031  0.4670 -0.4849 -0.8042
 1021MOL0     C37734   9.639   8.230   3.075  0.4392  0.1490  0.4846
 1021MOL0     O37735   9.777   8.201   3.067  0.5930 -0.0685  0.0316
 1021MOL0     C37736   9.810   8.059   3.047 -0.4377 -0.1531 -0.7459
 1021MOL0     C37737   9.963   8.049   3.034 -0.2881  0.5599 -0.6621
 1021MOL0     C37738  10.009   8.130   2.913 -0.0546 -0.0413  0.1753
 1021MOL0     C37739  10.153   8.130   2.903 -0.4905 -0.3876  0.3920
 1021MOL0     C37740  10.214   8.000   2.849 -0.1662  0.1684  0.1122
 1021MOL0     C37741  10.366   8.016   2.854  0.4577  0.0942 -0.2707
 1021MOL0     C37742  10.447   7.891   2.820  0.2281 -0.1404 -0.3941
 1021MOL0     C37743  10.586   7.899   2.884 -0.4285 -0.3578 -0.1909
 1021MOL0    Cl37744  10.700   8.022   2.827  0.3646 -0.3153  0.0526
 1021MOL0     C37745   9.599   8.362   3.102 -0.8445  0.4054  0.5285
 1021MOL0     C37746   9.471   8.402   3.115 -0.0886 -0.0537 -0.2354
 1021MOL0     O37747   9.238   8.560   3.068  0.1129 -0.3621 -0.2550
 1021MOL0     C37748   8.965   8.347   3.185  0.4018  0.4112  0.6786
 1021MOL0     C37749   8.838   8.348   3.219 -0.1540  0.0589 -0.4749
 1021MOL0     N37750   8.053   8.345   3.358 -0.2820  0.4468 -0.4563
 1021MOL0     N37751   7.937   8.378   3.331  0.5190  0.9516  0.1614
 1021MOL0     C37752   8.109   8.924   2.705 -0.2445  0.4698  0.3955
 1021MOL0     C37753   8.236   8.904   2.648 -0.6421  0.4979  0.7325
 1021MOL0     C37754   8.650   9.050   2.515  0.1032  0.1582  0.0498
 1021MOL0     C37755   8.685   8.943   2.421 -0.0023 -1.1184 -0.4296
 1021MOL0     C37756   8.818   8.938   2.373 -0.0037 -0.2186  1.0915
 1021MOL0     C37757   8.916   9.027   2.418 -0.4134  0.5553 -0.2007
 1021MOL0     O37758   9.044   9.019   2.383  0.3899 -0.1875  0.1930
 1021MOL0     C37759   9.096   8.906   2.308  0.6368 -0.9288 -0.1060
 1021MOL0     C37760   9.250   8.889   2.329  0.2674 -0.2831  0.2400
 1021MOL0     C37761   9.335   9.021   2.326 -0.0665 -0.2639  0.8399
 1021MOL0     C37762   9.481   8.982   2.362  0.5084 -0.5070 -0.0924
 1021MOL0     C37763   9.554   9.099   2.418  0.5912  0.2887  0.3360
 1021MOL0     C37764   9.599   9.200   2.459  0.3300 -0.5828  0.0576
 1021MOL0     C37765   8.877   9.123   2.511  0.3230 -0.2357  0.2365
 1021MOL0     C37766   8.748   9.144   2.551  0.1903 -0.9524  0.0761
 1021MOL0     C37767   8.723   9.259   2.641 -0.4919 -0.4650 -0.1855
 1021MOL0     H37768   8.213   9.139   2.408 -1.6096 -0.3237  0.1908
 1021MOL0     H37769   7.984   9.135   2.478 -2.1202 -1.6254 -0.6523
 1021MOL0     H37770   7.819   8.826   2.711 -1.4099  0.7458 -2.0770
 1021MOL0     H37771   7.878   8.901   2.860 -5.3387 -1.4015  2.7970
 1021MOL0     H37772   7.623   8.968   2.685  1.3477 -0.9138 -0.7462
 1021MOL0     H37773   7.666   9.068   2.829  2.4449  0.0985  0.1296
 1021MOL0     H37774   7.546   8.797   2.798  3.0123 -2.1493  0.0383
 1021MOL0     H37775   7.517   8.937   2.907 -0.4592  0.2024 -0.1340
 1021MOL0     H37776   7.756   8.747   2.964 -0.3489  0.0459 -0.2203
 1021MOL0     H37777   7.699   8.883   3.062  2.9335 -1.0732 -0.5681
 1021MOL0     H37778   7.480   8.757   3.079  0.3690  2.8150 -0.7875
 1021MOL0     H37779   7.579   8.612   3.035  0.4420 -1.0937  1.1467
 1021MOL0     H37780   7.632   8.792   3.278 -1.3079  1.7554 -4.1985
 1021MOL0     H37781   7.553   8.640   3.285  0.4640 -0.1015  0.1362
 1021MOL0     H37782   7.844   8.705   3.225  0.4340 -1.2655 -1.9846
 1021MOL0     H37783   7.761   8.544   3.164 -3.2463 -0.8301  0.6000
 1021MOL0     H37784   7.773   8.633   3.452 -0.2896 -1.9747  1.5969
 1021MOL0     H37785   7.699   8.494   3.382 -1.2460  0.7071  1.2290
 1021MOL0     H37786   8.040   8.636   3.516  1.9226  0.2070 -1.3822
 1021MOL0     H37787   8.246   8.520   3.591  1.5559 -0.3865  0.7839
 1021MOL0     H37788   8.245   8.347   3.559 -0.3770 -1.0430 -1.3084
 1021MOL0     H37789   8.340   8.382   3.326  0.7481 -0.6163 -0.2566
 1021MOL0     H37790   8.373   8.555   3.372 -3.1272  1.6403  2.3556
 1021MOL0     H37791   8.467   8.309   3.535  1.4588 -0.9253  0.0543
 1021MOL0     H37792   8.520   8.478   3.547  0.7451  1.3093 -2.3916
 1021MOL0     H37793   8.591   8.275   3.330  3.2650  0.6563 -0.9083
 1021MOL0     H37794   8.684   8.332   3.465 -1.7422  0.2955  0.4637
 1021MOL0     H37795   8.792   8.685   3.205  0.8319 -0.5247  2.8442
 1021MOL0     H37796   9.032   8.665   3.110  2.4007 -0.7988  1.9688
 1021MOL0     H37797   9.326   8.108   3.049 -0.1256  0.5156  1.9264
 1021MOL0     H37798   9.554   8.044   2.992  0.5394 -1.1651  0.9121
 1021MOL0     H37799   9.766   7.991   3.120 -3.5072 -1.3273 -3.4009
 1021MOL0     H37800   9.766   8.039   2.948  1.1732  1.5365 -1.8645
 1021MOL0     H37801  10.006   8.090   3.126  1.5506 -2.1830 -0.1769
 1021MOL0     H37802   9.994   7.945   3.015  0.1835  0.0036  2.5823
 1021MOL0     H37803   9.963   8.103   2.817 -1.1934 -0.5866  0.8448
 1021MOL0     H37804   9.967   8.231   2.916  1.9818  0.9131 -1.1113
 1021MOL0     H37805  10.199   8.156   2.998  0.0398  0.0151  0.0360
 1021MOL0     H37806  10.174   8.216   2.839  0.5292 -1.8141 -1.2847
 1021MOL0     H37807  10.185   7.974   2.747  0.4653 -3.0609  0.6362
 1021MOL0     H37808  10.177   7.915   2.908 -2.0473 -0.0839 -1.3181
 1021MOL0     H37809  10.392   8.095   2.783 -0.0550  0.9982  0.5089
 1021MOL0     H37810  10.394   8.059   2.951  0.0054 -0.5589  0.1583
 1021MOL0     H37811  10.461   7.884   2.712  0.0460  1.1452 -0.5241
 1021MOL0     H37812  10.392   7.806   2.862  1.3286 -1.2135 -1.0800
 1021MOL0     H37813  10.578   7.928   2.989 -0.1276  1.9513 -0.7421
 1021MOL0     H37814  10.639   7.804   2.876 -1.9241 -1.1678 -0.7402
 1021MOL0     H37815   9.681   8.431   3.121  0.2370 -0.4416 -0.8322
 1021MOL0     H37816   9.446   8.504   3.140 -0.1349 -0.5782  2.1209
 1021MOL0     H37817   9.018   8.252   3.179  3.6925  1.8928  2.9979
 1021MOL0     H37818   8.789   8.253   3.235 -2.0021  0.9383 -0.5402
 1021MOL0     H37819   8.072   8.869   2.791 -1.6026  0.2138 -0.3204
 1021MOL0     H37820   8.308   8.836   2.692 -0.0929  1.8994  2.0661
 1021MOL0     H37821   8.613   8.864   2.399  0.5301 -1.6666 -0.2085
 1021MOL0     H37822   8.841   8.859   2.302  0.4829  0.6080  0.3085
 1021MOL0     H37823   9.091   8.934   2.202  0.9046  2.4342  0.6644
 1021MOL0     H37824   9.046   8.809   2.321  2.0136 -2.0231 -2.2851
 1021MOL0     H37825   9.273   8.829   2.241  1.8291  0.1679  0.3062
 1021MOL0     H37826   9.276   8.827   2.415  1.5091 -1.7141 -1.0944
 1021MOL0     H37827   9.298   9.096   2.396 -0.3368  0.2979  0.1000
 1021MOL0     H37828   9.340   9.063   2.225 -0.4444 -0.7668  0.6086
 1021MOL0     H37829   9.484   8.896   2.430  0.3638 -1.0832 -0.7945
 1021MOL0     H37830   9.526   8.937   2.273  1.8233  0.9866 -0.2190
 1021MOL0     H37831   9.612   9.300   2.495 -0.1632 -0.0186 -1.2541
 1021MOL0     H37832   8.961   9.189   2.532  1.2155 -0.6819 -1.6557
 1021MOL0     H37833   8.810   9.325   2.642 -1.1579  0.4308 -0.4261
 1021MOL0     H37834   8.640   9.315   2.598  0.4721 -0.6561 -2.5006
 1021MOL0     H37835   8.701   9.228   2.743 -1.6362  2.4629  0.5396
 1022MOL0     O37836   2.755   2.691   3.190 -0.0691  0.0332  0.3417
 1022MOL0     C37837   2.725   2.714   3.305  0.4229 -1.2615 -0.4060
 1022MOL0     O37838   2.808   2.763   3.402  0.1443  0.1248 -0.4355
 1022MOL0     C37839   2.926   2.824   3.370  0.4828  0.2039  0.5504
 1022MOL0     C37840   3.029   2.783   3.446 -0.6227 -0.3080  0.2068
 1022MOL0     C37841   3.165   2.812   3.423  0.1120 -0.1707  0.3691
 1022MOL0     C37842   3.195   2.876   3.298  0.1682 -0.2117 -1.2152
 1022MOL0     O37843   3.317   2.917   3.249 -0.0937  0.4037 -0.1732
 1022MOL0     C37844   3.431   2.851   3.305  0.2389  0.7543 -0.0671
 1022MOL0     C37845   3.562   2.906   3.234  0.0558  0.2665  0.2123
 1022MOL0     C37846   3.593   3.049   3.275  0.8022  0.1798  0.5138
 1022MOL0     C37847   3.718   3.093   3.199  1.0728 -1.4123 -0.6908
 1022MOL0     C37848   3.791   3.216   3.259 -0.0482 -0.9873 -0.6444
 1022MOL0     C37849   3.910   3.250   3.180  0.0512  0.4482  0.2424
 1022MOL0     C37850   3.999   3.352   3.251  0.1475  0.0068 -1.0724
 1022MOL0     C37851   4.102   3.284   3.340  0.2588 -0.2676  0.2741
 1022MOL0     N37852   4.185   3.385   3.401  0.3606 -1.2841  0.0971
 1022MOL0     C37853   4.160   3.477   3.497  0.0122  0.0339 -0.0162
 1022MOL0     C37854   4.282   3.531   3.527 -0.1710  0.4631  0.2867
 1022MOL0     C37855   4.323   3.623   3.646 -0.6138 -0.0521  0.1863
 1022MOL0     C37856   4.281   3.763   3.602  0.4382 -0.6809 -0.0961
 1022MOL0     C37857   4.341   3.863   3.706 -0.3049  0.2367 -0.3610
 1022MOL0     C37858   4.494   3.893   3.698 -0.5857  0.7885  0.2111
 1022MOL0     O37859   4.559   3.802   3.790 -0.3743  0.1112 -0.3604
 1022MOL0     C37860   4.695   3.796   3.763 -0.4494  0.5493  0.1188
 1022MOL0     C37861   4.741   3.672   3.719 -0.2250 -0.0666  0.2485
 1022MOL0     C37862   4.879   3.661   3.698 -0.2813  0.2736 -0.9834
 1022MOL0     C37863   4.974   3.761   3.733 -0.1777 -0.7525 -0.2476
 1022MOL0     C37864   5.119   3.736   3.737  0.1691 -0.8704  0.1641
 1022MOL0     O37865   5.169   3.619   3.696  0.2151 -0.0066  0.7613
 1022MOL0     C37866   5.292   3.578   3.741  0.1672  0.4853  0.8611
 1022MOL0     C37867   5.387   3.542   3.646  0.0370  0.0235 -0.5736
 1022MOL0     C37868   5.519   3.501   3.687  0.0605  0.3144 -1.0409
 1022MOL0     C37869   5.552   3.507   3.823  0.2213 -0.9762 -0.0539
 1022MOL0     O37870   5.678   3.467   3.863 -0.6366 -0.2539  0.3356
 1022MOL0     C37871   5.705   3.455   4.011  0.8095 -0.7346  0.7639
 1022MOL0     C37872   5.843   3.392   4.018 -1.0561  0.2225  0.3158
 1022MOL0     C37873   5.946   3.500   3.961  0.4463  0.6109 -0.1809
 1022MOL0     C37874   6.093   3.450   4.005  0.5209  0.0545  0.6461
 1022MOL0     C37875   6.194   3.545   3.935  0.5031 -0.0695 -0.5966
 1022MOL0     C37876   6.331   3.496   3.981 -0.2524 -0.2451 -0.3503
 1022MOL0     C37877   6.450   3.575   3.921  0.6408 -0.4088  0.7119
 1022MOL0     C37878   6.442   3.724   3.941  0.7530 -0.2966 -0.1617
 1022MOL0    Cl37879   6.588   3.808   3.856 -0.1310 -0.4240 -0.2532
 1022MOL0     C37880   5.444   3.532   3.917  0.3757  0.0399  0.1705
 1022MOL0     C37881   5.323   3.566   3.877 -0.2362  0.1367 -0.2209
 1022MOL0     O37882   5.189   3.827   3.786 -0.2930 -0.3447  0.4420
 1022MOL0     C37883   4.920   3.878   3.785  0.7620  0.1673 -0.3204
 1022MOL0     C37884   4.785   3.901   3.792  0.4204 -0.2667 -0.1714
 1022MOL0     N37885   4.380   3.476   3.447 -1.0810 -0.1505 -0.0481
 1022MOL0     N37886   4.317   3.386   3.377 -0.3504 -0.3505 -0.1154
 1022MOL0     C37887   3.087   2.908   3.220  0.4070 -0.0130  0.4298
 1022MOL0     C37888   2.957   2.888   3.255 -0.3122 -1.0320 -0.8426
 1022MOL0     C37889   2.591   2.678   3.365 -0.4509  0.1017  1.1024
 1022MOL0     C37890   2.581   2.604   3.484  0.6320  0.2744 -0.0876
 1022MOL0     C37891   2.452   2.541   3.522 -0.7861 -0.5277 -1.0854
 1022MOL0     C37892   2.337   2.578   3.460  0.4391  0.4759  0.1207
 1022MOL0     O37893   2.227   2.516   3.512  0.3365 -0.1963  0.6401
 1022MOL0     C37894   2.094   2.520   3.455  0.2270 -0.1903 -0.5702
 1022MOL0     C37895   2.047   2.659   3.480 -0.2129  1.1541  0.3786
 1022MOL0     C37896   1.906   2.676   3.431  0.1140 -0.2775  0.2634
 1022MOL0     C37897   1.853   2.824   3.440  0.1520  0.9691  0.5329
 1022MOL0     C37898   1.722   2.818   3.372 -0.6794  0.3122 -0.3960
 1022MOL0     C37899   1.616   2.795   3.321  0.0737 -0.7221  0.0883
 1022MOL0     C37900   2.352   2.676   3.350  0.2543  0.9918  0.5917
 1022MOL0     C37901   2.473   2.720   3.297 -0.5047 -0.3039  0.4105
 1022MOL0     C37902   2.462   2.818   3.179 -0.3139  0.2585 -0.0136
 1022MOL0     H37903   3.006   2.723   3.534 -1.7642  1.7719  1.4064
 1022MOL0     H37904   3.236   2.766   3.492 -0.4178 -0.7847  0.5132
 1022MOL0     H37905   3.429   2.876   3.411 -3.0446 -0.9567  0.4241
 1022MOL0     H37906   3.416   2.744   3.286  0.5227  0.8231 -0.7152
 1022MOL0     H37907   3.543   2.904   3.126  1.8970 -1.0312 -0.1433
 1022MOL0     H37908   3.649   2.845   3.259  1.7566  1.0631 -3.1493
 1022MOL0     H37909   3.597   3.060   3.383  0.4291 -0.1182  0.5599
 1022MOL0     H37910   3.510   3.113   3.243 -0.8900 -1.4021  1.5427
 1022MOL0     H37911   3.788   3.009   3.199  0.4086 -1.9980  1.0055
 1022MOL0     H37912   3.681   3.109   3.097  0.2830 -3.9340 -0.8644
 1022MOL0     H37913   3.724   3.303   3.263 -0.1847 -1.1222  1.3378
 1022MOL0     H37914   3.821   3.194   3.362 -2.4160  2.9675  1.1630
 1022MOL0     H37915   3.963   3.159   3.151 -1.9508 -0.8242  0.3665
 1022MOL0     H37916   3.868   3.290   3.087 -1.2180 -1.5163 -0.0978
 1022MOL0     H37917   3.937   3.418   3.313 -1.8547 -0.8969 -2.0034
 1022MOL0     H37918   4.046   3.415   3.175 -1.4879  0.1094 -2.0540
 1022MOL0     H37919   4.048   3.234   3.422  1.3864  5.1432  4.9360
 1022MOL0     H37920   4.168   3.215   3.287  0.7178  2.1449 -2.5485
 1022MOL0     H37921   4.064   3.495   3.543 -1.1744  3.2638 -3.2534
 1022MOL0     H37922   4.280   3.585   3.739  0.1699 -2.2835 -0.3121
 1022MOL0     H37923   4.432   3.623   3.644 -0.5890 -1.6258 -1.5968
 1022MOL0     H37924   4.311   3.794   3.502 -0.9714  0.1228 -0.3071
 1022MOL0     H37925   4.172   3.772   3.600  0.4252  1.5199  2.8647
 1022MOL0     H37926   4.326   3.823   3.806 -1.4368 -5.6225 -2.4875
 1022MOL0     H37927   4.289   3.959   3.697  0.5841  1.0832  2.5262
 1022MOL0     H37928   4.509   3.993   3.740  0.9147 -0.3233  2.5717
 1022MOL0     H37929   4.536   3.889   3.597 -0.6526  2.4371  0.0948
 1022MOL0     H37930   4.675   3.589   3.695 -0.4524 -0.0633  0.8527
 1022MOL0     H37931   4.915   3.571   3.649  1.0724  1.1532 -1.6597
 1022MOL0     H37932   5.361   3.550   3.541 -2.6986  1.8678  0.1178
 1022MOL0     H37933   5.596   3.476   3.615  1.7666 -0.8225  1.0398
 1022MOL0     H37934   5.700   3.554   4.058 -0.3240  0.2336 -1.2309
 1022MOL0     H37935   5.637   3.390   4.066 -0.5625 -0.4389 -0.5104
 1022MOL0     H37936   5.875   3.376   4.121  3.9637  2.3045 -0.5991
 1022MOL0     H37937   5.843   3.300   3.960  0.7217  0.0613  0.4983
 1022MOL0     H37938   5.952   3.481   3.853  0.0422 -1.0750  0.0714
 1022MOL0     H37939   5.922   3.603   3.990  1.1946  0.4444  1.1182
 1022MOL0     H37940   6.106   3.344   3.981  0.3093 -0.1362  1.3395
 1022MOL0     H37941   6.090   3.458   4.114 -1.7952 -2.3481  0.8558
 1022MOL0     H37942   6.169   3.644   3.976 -0.5792 -0.1265 -1.0908
 1022MOL0     H37943   6.183   3.549   3.826  1.1518  2.2931 -0.6328
 1022MOL0     H37944   6.338   3.487   4.090 -0.2728  1.1883 -0.2099
 1022MOL0     H37945   6.321   3.391   3.953 -1.7114 -1.0920  2.8316
 1022MOL0     H37946   6.431   3.562   3.814 -0.3704  0.5052  0.7615
 1022MOL0     H37947   6.553   3.552   3.947  1.4211  1.6493 -0.3579
 1022MOL0     H37948   6.348   3.762   3.901  1.4675  0.2125 -1.4206
 1022MOL0     H37949   6.445   3.740   4.050 -3.6977 -0.3905  0.1340
 1022MOL0     H37950   5.472   3.524   4.022  2.1273  1.4517 -0.1576
 1022MOL0     H37951   5.251   3.594   3.953  0.2192  0.8333 -0.0421
 1022MOL0     H37952   4.989   3.955   3.817  0.7494 -0.3130  0.9000
 1022MOL0     H37953   4.756   4.000   3.824  1.6634 -0.7163  2.6785
 1022MOL0     H37954   3.126   2.948   3.127  0.0620  0.7274  0.5920
 1022MOL0     H37955   2.880   2.928   3.190  1.0030  1.1485 -1.1573
 1022MOL0     H37956   2.666   2.597   3.552  1.2132 -0.4776 -0.8648
 1022MOL0     H37957   2.453   2.502   3.623 -2.3509  5.0006  1.4509
 1022MOL0     H37958   2.033   2.446   3.507 -1.2064  0.7845 -0.8068
 1022MOL0     H37959   2.111   2.497   3.349  0.8459  1.3730 -0.8466
 1022MOL0     H37960   2.109   2.738   3.437  1.4485  0.7397  1.8946
 1022MOL0     H37961   2.055   2.675   3.588 -0.2168  1.5166  0.3292
 1022MOL0     H37962   1.836   2.607   3.479  3.0714 -1.0198  3.9374
 1022MOL0     H37963   1.901   2.660   3.323 -3.4782  1.7697 -0.0211
 1022MOL0     H37964   1.849   2.864   3.542 -3.4161 -1.9472  1.7422
 1022MOL0     H37965   1.920   2.883   3.376  1.6519  0.2498  1.3940
 1022MOL0     H37966   1.529   2.791   3.258  0.5656  2.5680 -0.9699
 1022MOL0     H37967   2.260   2.694   3.296 -0.3434  0.1214  1.2847
 1022MOL0     H37968   2.360   2.808   3.143 -0.7672 -1.2050  1.5540
 1022MOL0     H37969   2.491   2.921   3.205 -0.6203  0.3215  0.0752
 1022MOL0     H37970   2.520   2.784   3.093 -0.6603  2.9211 -1.3893
 1023MOL0     O37971   5.921   0.865   3.965  0.3378 -0.2849  0.5754
 1023MOL0     C37972   5.860   0.961   3.911  0.5458 -0.0422 -0.8562
 1023MOL0     O37973   5.895   1.093   3.925 -0.3013  0.5230 -0.7943
 1023MOL0     C37974   6.005   1.137   3.995  0.0088 -0.0501 -0.1221
 1023MOL0     C37975   6.095   1.213   3.921 -0.1962  0.1155 -0.9210
 1023MOL0     C37976   6.214   1.261   3.969 -0.1434  0.0172  0.4772
 1023MOL0     C37977   6.246   1.233   4.103  0.1023 -0.0854 -0.4162
 1023MOL0     O37978   6.355   1.284   4.168  0.2747 -0.0788  0.6017
 1023MOL0     C37979   6.464   1.326   4.087 -0.3906 -0.2521  0.1353
 1023MOL0     C37980   6.562   1.405   4.167  0.0921  0.2556 -0.7435
 1023MOL0     C37981   6.630   1.314   4.277 -0.6949 -0.4168  0.5375
 1023MOL0     C37982   6.773   1.375   4.316  0.3366 -1.1579  0.3630
 1023MOL0     C37983   6.869   1.288   4.403  0.6518  0.1108 -0.3695
 1023MOL0     C37984   7.013   1.321   4.387 -0.1058  0.1089 -0.2486
 1023MOL0     C37985   7.053   1.464   4.398  0.9785  0.1208 -0.3437
 1023MOL0     C37986   7.208   1.482   4.383 -0.5231 -0.5527  1.2849
 1023MOL0     N37987   7.286   1.420   4.480  0.5636 -0.2608 -0.6567
 1023MOL0     C37988   7.376   1.492   4.555 -0.6382 -0.2073 -0.2339
 1023MOL0     C37989   7.478   1.408   4.576 -0.5258  0.8949 -0.3841
 1023MOL0     C37990   7.599   1.441   4.659  0.1236  1.3456 -0.3732
 1023MOL0     C37991   7.694   1.314   4.673  0.0273 -0.1304 -0.3846
 1023MOL0     C37992   7.804   1.326   4.776  0.2597  0.2825 -0.5657
 1023MOL0     C37993   7.905   1.433   4.765 -0.2550  0.3878  0.3918
 1023MOL0     O37994   7.919   1.476   4.628 -0.6198 -0.2808 -0.0265
 1023MOL0     C37995   8.043   1.459   4.570  0.4475  0.3204 -0.0180
 1023MOL0     C37996   8.041   1.393   4.446  0.0469  0.4618  0.6954
 1023MOL0     C37997   8.166   1.368   4.384  0.6879  0.1224 -0.2227
 1023MOL0     C37998   8.291   1.403   4.437  0.3367  0.1602  0.3587
 1023MOL0     C37999   8.416   1.365   4.361  0.3402 -0.6202  0.0577
 1023MOL0     O38000   8.533   1.421   4.399 -0.4259  0.1327 -0.3847
 1023MOL0     C38001   8.636   1.392   4.322 -0.0674 -0.4935  0.9664
 1023MOL0     C38002   8.662   1.455   4.196  0.2546  0.1969  0.5874
 1023MOL0     C38003   8.766   1.413   4.108  1.0505  0.2422  1.1578
 1023MOL0     C38004   8.855   1.321   4.168 -1.2982 -0.0094  0.1268
 1023MOL0     O38005   8.956   1.262   4.094  0.6559 -0.4265 -1.1815
 1023MOL0     C38006   9.054   1.341   4.027 -1.3561  0.7596  0.5062
 1023MOL0     C38007   9.051   1.340   3.878  0.4383 -0.4987 -0.0257
 1023MOL0     C38008   9.089   1.470   3.811  0.4617 -0.7756  0.1219
 1023MOL0     C38009   9.233   1.491   3.783 -0.7905  0.5715  0.5126
 1023MOL0     C38010   9.277   1.409   3.656 -0.4631 -0.2795 -0.1795
 1023MOL0     C38011   9.432   1.405   3.669  0.4175 -0.0341  0.3763
 1023MOL0     C38012   9.489   1.318   3.552  0.3074  0.7966  0.1466
 1023MOL0     C38013   9.642   1.346   3.530 -0.3552 -0.7743 -0.0459
 1023MOL0    Cl38014   9.717   1.209   3.452 -0.5323 -0.1607  0.6227
 1023MOL0     C38015   8.843   1.285   4.299  0.3790  0.5318  0.2183
 1023MOL0     C38016   8.729   1.315   4.377 -1.1641  1.0805 -0.1023
 1023MOL0     O38017   8.401   1.285   4.273 -0.8142 -0.0427  0.1524
 1023MOL0     C38018   8.285   1.465   4.559 -0.0092 -0.1595  0.2813
 1023MOL0     C38019   8.165   1.495   4.634  0.4465 -0.0180  0.7529
 1023MOL0     N38020   7.452   1.296   4.505 -0.7689  0.0019  1.3959
 1023MOL0     N38021   7.340   1.300   4.444  0.2532 -0.0265  0.2268
 1023MOL0     C38022   6.151   1.164   4.182  0.6777 -0.3483  0.8334
 1023MOL0     C38023   6.035   1.113   4.131 -1.2314  0.3244  0.1149
 1023MOL0     C38024   5.729   0.937   3.835 -0.1936 -0.1005 -0.1821
 1023MOL0     C38025   5.722   0.811   3.771  0.4828 -0.0067 -0.1608
 1023MOL0     C38026   5.618   0.775   3.679 -0.2836  0.2748  0.2892
 1023MOL0     C38027   5.523   0.871   3.648  0.1356  0.0228  1.0238
 1023MOL0     O38028   5.424   0.868   3.552  0.2278  0.0029 -0.2097
 1023MOL0     C38029   5.385   0.745   3.500  1.1445  0.6861 -0.5157
 1023MOL0     C38030   5.241   0.768   3.438 -1.1437  0.0188 -0.3413
 1023MOL0     C38031   5.138   0.777   3.542 -0.8338  0.8578  0.2571
 1023MOL0     C38032   5.104   0.634   3.586 -0.3594  0.0043 -0.7339
 1023MOL0     C38033   4.991   0.635   3.684  1.2715  0.7120  0.5644
 1023MOL0     C38034   4.895   0.638   3.768 -0.4605  0.0083  1.7079
 1023MOL0     C38035   5.522   0.989   3.726 -0.6020  0.6446  0.1806
 1023MOL0     C38036   5.621   1.025   3.819  0.9541  0.8996  0.0141
 1023MOL0     C38037   5.623   1.153   3.889  0.3632  0.3456  0.7526
 1023MOL0     H38038   6.073   1.259   3.825  0.8288  0.9835 -0.7525
 1023MOL0     H38039   6.284   1.308   3.902 -1.2650  0.5339 -0.3763
 1023MOL0     H38040   6.512   1.237   4.044 -2.3547 -1.0747 -0.4771
 1023MOL0     H38041   6.438   1.396   4.007 -0.0702  0.2473  0.4613
 1023MOL0     H38042   6.530   1.503   4.203  3.1657  1.4748 -1.0684
 1023MOL0     H38043   6.644   1.435   4.102  0.4804  2.5796  0.6771
 1023MOL0     H38044   6.655   1.219   4.228 -0.5869  0.4516 -1.1380
 1023MOL0     H38045   6.559   1.301   4.360 -1.4965 -2.2569 -0.3632
 1023MOL0     H38046   6.823   1.390   4.220 -1.1347 -2.4673 -0.6496
 1023MOL0     H38047   6.760   1.472   4.365  1.8924 -0.2098 -1.0030
 1023MOL0     H38048   6.831   1.296   4.505  0.1318 -0.5720 -0.5076
 1023MOL0     H38049   6.854   1.185   4.371  3.7070  0.3813 -3.1450
 1023MOL0     H38050   7.073   1.255   4.451 -1.1844  1.0634  1.8204
 1023MOL0     H38051   7.036   1.286   4.286 -2.9104  1.5568 -1.4625
 1023MOL0     H38052   7.028   1.494   4.500  1.5956 -0.9375  0.1418
 1023MOL0     H38053   7.000   1.520   4.321  2.2344  0.2788 -1.1107
 1023MOL0     H38054   7.233   1.453   4.280 -3.5031  0.3483  0.1831
 1023MOL0     H38055   7.235   1.588   4.379 -2.2094 -0.1209  0.0435
 1023MOL0     H38056   7.370   1.595   4.589  0.1962  0.5788 -2.2923
 1023MOL0     H38057   7.654   1.525   4.616 -0.0822  1.3379 -0.6517
 1023MOL0     H38058   7.567   1.463   4.762 -0.8126 -2.2922  0.2583
 1023MOL0     H38059   7.639   1.222   4.696  0.4246 -0.5288 -0.9972
 1023MOL0     H38060   7.750   1.305   4.580  0.2234 -0.7380 -0.2158
 1023MOL0     H38061   7.860   1.232   4.775  0.4684  0.3892  0.3746
 1023MOL0     H38062   7.759   1.328   4.875 -0.8577  1.1960 -1.0621
 1023MOL0     H38063   8.000   1.391   4.800 -0.1264  0.0783 -0.3188
 1023MOL0     H38064   7.870   1.511   4.833  0.4682  0.7006  0.4207
 1023MOL0     H38065   7.945   1.365   4.404 -1.5276  2.4311  2.7350
 1023MOL0     H38066   8.168   1.311   4.292  0.9303 -3.0528  1.6005
 1023MOL0     H38067   8.585   1.523   4.161 -1.6485 -1.1654  1.9007
 1023MOL0     H38068   8.760   1.447   4.005 -1.8157 -1.4681  0.6409
 1023MOL0     H38069   9.050   1.448   4.050  2.9286  1.4998 -1.2342
 1023MOL0     H38070   9.151   1.304   4.062 -0.5018  1.6150 -0.8546
 1023MOL0     H38071   9.121   1.265   3.842  0.7992 -1.0413  1.7095
 1023MOL0     H38072   8.950   1.307   3.852  0.0448  0.3584  0.3550
 1023MOL0     H38073   9.030   1.478   3.719  1.6221  0.1388 -0.5791
 1023MOL0     H38074   9.055   1.552   3.875  0.8422  0.0986 -0.7582
 1023MOL0     H38075   9.281   1.455   3.874 -3.1634  1.3994  2.1725
 1023MOL0     H38076   9.266   1.595   3.775 -3.2430  1.4281  0.7761
 1023MOL0     H38077   9.251   1.469   3.568  2.8447  1.2837 -0.2790
 1023MOL0     H38078   9.217   1.318   3.654 -3.0381  1.2037  2.4397
 1023MOL0     H38079   9.473   1.507   3.663  1.4682 -0.4729 -0.3842
 1023MOL0     H38080   9.462   1.368   3.768  1.1120  0.4694  0.3667
 1023MOL0     H38081   9.449   1.343   3.453 -1.2425  1.6846  0.9568
 1023MOL0     H38082   9.476   1.211   3.570 -1.6572  0.4284 -2.8472
 1023MOL0     H38083   9.652   1.444   3.481  0.1732 -0.3725  0.8431
 1023MOL0     H38084   9.704   1.348   3.620  0.6546 -0.1302 -0.7342
 1023MOL0     H38085   8.929   1.229   4.335 -0.7595 -0.7772  1.0044
 1023MOL0     H38086   8.717   1.293   4.482 -0.4774  1.6456  0.0984
 1023MOL0     H38087   8.381   1.497   4.598  0.2006  1.1902 -1.2327
 1023MOL0     H38088   8.162   1.549   4.728 -0.0982  0.5345  0.4279
 1023MOL0     H38089   6.169   1.162   4.289 -2.7818  1.8637  1.6370
 1023MOL0     H38090   5.975   1.054   4.200  0.2851  0.4038  1.5993
 1023MOL0     H38091   5.803   0.743   3.792 -1.0461 -1.7407  0.3796
 1023MOL0     H38092   5.618   0.677   3.632 -0.2887  0.4276 -0.0332
 1023MOL0     H38093   5.378   0.669   3.578 -1.4094  2.3297  1.0214
 1023MOL0     H38094   5.458   0.710   3.427  0.4641  0.4966 -1.1223
 1023MOL0     H38095   5.215   0.694   3.362  0.8459  0.1002 -1.1684
 1023MOL0     H38096   5.247   0.862   3.381 -0.1403 -0.0358 -0.3353
 1023MOL0     H38097   5.054   0.833   3.500  0.7436  3.8223  0.8133
 1023MOL0     H38098   5.182   0.834   3.625  3.4470 -1.0752 -0.4259
 1023MOL0     H38099   5.080   0.571   3.500  2.8897 -2.0003 -0.3330
 1023MOL0     H38100   5.192   0.589   3.632 -0.8743  1.3532  1.7877
 1023MOL0     H38101   4.821   0.647   3.845 -2.4076  3.0599 -0.2756
 1023MOL0     H38102   5.441   1.059   3.711 -1.6597 -0.2321  1.5387
 1023MOL0     H38103   5.715   1.202   3.857  0.9318 -2.2854 -2.0954
 1023MOL0     H38104   5.537   1.215   3.860  1.8924  1.6852 -1.1065
 1023MOL0     H38105   5.632   1.134   3.997 -1.8422  2.1363  1.3317
 1024MOL0     O38106   8.175   7.090  10.364 -0.8260  0.2104 -0.3524
 1024MOL0     C38107   8.154   7.176  10.451  0.3707  0.2598  0.8100
 1024MOL0     O38108   8.228   7.194  10.569 -0.0599  0.3516  0.3032
 1024MOL0     C38109   8.358   7.194  10.570  0.2896  0.2015 -0.0263
 1024MOL0     C38110   8.452   7.167  10.467  0.2032  1.1699  0.7869
 1024MOL0     C38111   8.589   7.161  10.490 -0.0881 -0.8340  0.2718
 1024MOL0     C38112   8.629   7.185  10.621  0.3892 -0.6415  0.5695
 1024MOL0     O38113   8.760   7.161  10.642 -0.4605  0.0919 -0.3524
 1024MOL0     C38114   8.837   7.270  10.700 -0.4358  0.3373  0.0889
 1024MOL0     C38115   8.985   7.257  10.665 -0.0677  0.1740 -0.0717
 1024MOL0     C38116   9.038   7.123  10.720 -0.0391  0.5920 -0.0937
 1024MOL0     C38117   9.188   7.128  10.776 -0.0890  0.2977  0.5391
 1024MOL0     C38118   9.290   7.176  10.676  1.2632 -0.3431 -0.1672
 1024MOL0     C38119   9.420   7.221  10.749  0.8521 -0.3261  0.0825
 1024MOL0     C38120   9.532   7.281  10.661  0.4856 -0.0610  0.0359
 1024MOL0     C38121   9.660   7.271  10.731 -0.2099  0.1660 -0.2631
 1024MOL0     N38122   9.760   7.342  10.657  0.6727 -1.0816  0.2456
 1024MOL0     C38123   9.871   7.398  10.717 -0.3141 -0.6371  0.0021
 1024MOL0     C38124   9.964   7.403  10.614 -0.0289 -0.5958  0.6343
 1024MOL0     C38125  10.107   7.443  10.643 -0.2548 -0.7741  0.0059
 1024MOL0     C38126  10.214   7.329  10.649 -0.5016  0.7905 -0.5096
 1024MOL0     C38127  10.361   7.384  10.672 -0.4579 -0.2372  0.4911
 1024MOL0     C38128  10.464   7.275  10.668  0.6065 -0.0673 -0.4740
 1024MOL0     O38129  10.587   7.343  10.692  0.0603  0.2647  0.1227
 1024MOL0     C38130  10.697   7.271  10.739  0.2937  0.4687 -0.1007
 1024MOL0     C38131  10.717   7.136  10.716 -0.4811 -0.0578 -0.1643
 1024MOL0     C38132  10.835   7.073  10.767 -0.8633 -0.1940  0.1713
 1024MOL0     C38133  10.930   7.145  10.842  0.0018  0.4181  0.2878
 1024MOL0     C38134  11.062   7.085  10.879 -0.4208 -0.8622  0.0963
 1024MOL0     O38135  11.159   7.172  10.929 -0.4267  0.1627 -0.3148
 1024MOL0     C38136  11.267   7.113  10.975 -0.3932 -0.2676 -0.2744
 1024MOL0     C38137  11.280   7.090  11.120  0.0777  0.2530  0.1873
 1024MOL0     C38138  11.402   7.028  11.165  0.1798 -0.1444  0.2960
 1024MOL0     C38139  11.501   6.995  11.082 -0.3941  0.0902 -0.0205
 1024MOL0     O38140  11.607   6.925  11.132 -0.6616  0.7082 -0.4204
 1024MOL0     C38141  11.731   6.939  11.066  0.9009 -0.1753  0.1723
 1024MOL0     C38142  11.839   6.931  11.164 -0.1954 -0.7202  0.1781
 1024MOL0     C38143  11.976   6.969  11.117  0.0019 -0.6626  0.2004
 1024MOL0     C38144  12.061   6.935  11.242 -0.2366  0.1031  0.2075
 1024MOL0     C38145  12.208   6.979  11.215  0.1644  0.4078 -0.2604
 1024MOL0     C38146  12.314   6.901  11.293  0.3306 -0.8376 -0.2436
 1024MOL0     C38147  12.451   6.912  11.238  0.4655 -0.5223 -0.0336
 1024MOL0     C38148  12.555   6.865  11.338 -0.7680  1.1239  0.2290
 1024MOL0    Cl38149  12.527   6.693  11.365 -0.0590 -0.0013  0.2548
 1024MOL0     C38150  11.488   7.011  10.945 -0.5962  0.2155 -0.9155
 1024MOL0     C38151  11.369   7.070  10.888  0.3575  0.5891 -0.3141
 1024MOL0     O38152  11.077   6.966  10.880  0.0983  0.2954  0.5164
 1024MOL0     C38153  10.906   7.279  10.866  0.0529 -0.6041 -0.0683
 1024MOL0     C38154  10.796   7.341  10.809 -0.6311  0.4956 -0.3859
 1024MOL0     N38155   9.898   7.370  10.496 -0.3520  0.1189  0.2089
 1024MOL0     N38156   9.778   7.323  10.525  0.6212  0.5637  0.5488
 1024MOL0     C38157   8.547   7.220  10.718 -0.8690  0.1100 -0.4017
 1024MOL0     C38158   8.411   7.228  10.696 -0.0524  0.0899 -0.4341
 1024MOL0     C38159   8.022   7.251  10.450  0.8829  0.2431 -0.6748
 1024MOL0     C38160   7.966   7.304  10.571  0.7035  0.3668  0.7481
 1024MOL0     C38161   7.845   7.376  10.573 -0.4201  0.1095 -0.5711
 1024MOL0     C38162   7.775   7.393  10.456 -0.1862 -0.8460 -1.0965
 1024MOL0     O38163   7.654   7.458  10.464 -0.5544 -0.2068 -0.5006
 1024MOL0     C38164   7.653   7.595  10.423  0.2401  0.3483  0.4077
 1024MOL0     C38165   7.509   7.643  10.440 -0.2545  0.2001 -0.4681
 1024MOL0     C38166   7.459   7.770  10.373 -0.2392  0.1641 -1.4108
 1024MOL0     C38167   7.309   7.807  10.392 -0.4664  0.4080  0.1532
 1024MOL0     C38168   7.230   7.728  10.301  0.9316 -1.0287 -0.1500
 1024MOL0     C38169   7.169   7.648  10.232  0.5494  0.0319 -0.9526
 1024MOL0     C38170   7.814   7.339  10.342 -0.6512 -0.6473  0.1119
 1024MOL0     C38171   7.937   7.263  10.333  0.9423 -0.9126 -0.5087
 1024MOL0     C38172   7.978   7.227  10.198 -0.7222 -0.2555  0.1816
 1024MOL0     H38173   8.412   7.144  10.368  0.7654  3.1350  0.0606
 1024MOL0     H38174   8.657   7.132  10.411  1.4133 -0.8045  1.5190
 1024MOL0     H38175   8.788   7.359  10.661 -1.3908 -1.0882 -2.1454
 1024MOL0     H38176   8.831   7.262  10.809 -0.4710  2.8871  0.3471
 1024MOL0     H38177   9.045   7.328  10.723 -1.8524  1.9010 -0.2617
 1024MOL0     H38178   8.998   7.268  10.557  0.8046  1.2416  0.1282
 1024MOL0     H38179   9.041   7.049  10.639 -1.1041  1.0268 -0.5596
 1024MOL0     H38180   8.970   7.093  10.800  0.2703  1.7684  0.6206
 1024MOL0     H38181   9.191   7.195  10.863 -1.2680  0.1998  0.6687
 1024MOL0     H38182   9.215   7.031  10.818 -0.8836  0.4979  1.5601
 1024MOL0     H38183   9.300   7.096  10.602 -2.1586 -0.3225 -0.8214
 1024MOL0     H38184   9.256   7.264  10.621 -0.2950  1.0775  2.8161
 1024MOL0     H38185   9.390   7.287  10.831 -2.6630  1.9728 -2.7517
 1024MOL0     H38186   9.454   7.136  10.809 -1.8938 -0.8488  1.0361
 1024MOL0     H38187   9.509   7.388  10.650 -0.1035  0.2016  3.1281
 1024MOL0     H38188   9.540   7.224  10.568 -0.3419 -0.1745  0.0223
 1024MOL0     H38189   9.644   7.312  10.831  0.8730  0.5363 -0.2196
 1024MOL0     H38190   9.695   7.168  10.747 -1.1315 -0.2403 -0.8142
 1024MOL0     H38191   9.890   7.402  10.824  0.4364  1.4482 -0.1787
 1024MOL0     H38192  10.151   7.512  10.571 -2.2611 -1.6243 -2.1860
 1024MOL0     H38193  10.108   7.486  10.743 -2.0946 -3.3158  1.2543
 1024MOL0     H38194  10.196   7.250  10.723 -1.8194  2.1446  0.6790
 1024MOL0     H38195  10.222   7.288  10.548  1.7405  1.5104 -0.6744
 1024MOL0     H38196  10.366   7.437  10.768  2.6398  1.9223 -0.6950
 1024MOL0     H38197  10.392   7.457  10.598  0.7969 -1.0788  0.1408
 1024MOL0     H38198  10.483   7.228  10.572 -0.5966 -3.1107  0.6496
 1024MOL0     H38199  10.451   7.191  10.737 -0.7933 -1.7719 -2.6953
 1024MOL0     H38200  10.658   7.066  10.657 -0.2407 -0.5290  0.1512
 1024MOL0     H38201  10.861   6.974  10.731  2.0561  0.8672 -0.8594
 1024MOL0     H38202  11.191   7.120  11.175  0.8602  1.2217  0.9707
 1024MOL0     H38203  11.403   7.012  11.273 -0.2252  0.5719  0.4083
 1024MOL0     H38204  11.752   6.861  10.992  3.6150  1.4986 -0.9822
 1024MOL0     H38205  11.739   7.032  11.008 -0.2000 -1.5216 -2.2915
 1024MOL0     H38206  11.815   7.007  11.239 -1.2573  0.6947 -1.5142
 1024MOL0     H38207  11.834   6.830  11.204 -0.6536 -0.4120  0.9170
 1024MOL0     H38208  12.005   6.902  11.036 -0.3550 -0.2489 -0.2712
 1024MOL0     H38209  11.994   7.068  11.076  0.7515 -1.2933 -1.0431
 1024MOL0     H38210  12.052   6.827  11.252  0.2092 -0.1151 -1.4477
 1024MOL0     H38211  12.025   6.988  11.331  0.5947  2.6787 -0.8825
 1024MOL0     H38212  12.221   7.086  11.228 -2.3514  0.6576  0.7640
 1024MOL0     H38213  12.220   6.958  11.108  0.9370 -0.6879  0.0266
 1024MOL0     H38214  12.314   6.940  11.395  1.9284 -2.6727  0.5210
 1024MOL0     H38215  12.288   6.796  11.303 -1.8618 -0.1921  1.9450
 1024MOL0     H38216  12.474   7.014  11.205  2.1498 -1.2912 -1.4015
 1024MOL0     H38217  12.457   6.850  11.148  3.0305 -0.2091 -0.1505
 1024MOL0     H38218  12.655   6.894  11.302  0.3568 -2.9190 -0.4880
 1024MOL0     H38219  12.548   6.910  11.437  3.0838 -3.1399  2.9034
 1024MOL0     H38220  11.565   6.974  10.877  0.1304 -0.9787  0.5028
 1024MOL0     H38221  11.354   7.071  10.780 -0.2882 -0.7285 -0.2583
 1024MOL0     H38222  10.974   7.341  10.924  2.0695 -0.9999 -1.8896
 1024MOL0     H38223  10.782   7.448  10.815 -1.5917  0.3468  0.4105
 1024MOL0     H38224   8.584   7.242  10.818 -0.1317 -1.2214 -0.3555
 1024MOL0     H38225   8.338   7.260  10.770  1.4063  1.5410  0.4502
 1024MOL0     H38226   8.027   7.309  10.661  3.7552  1.4581 -1.2376
 1024MOL0     H38227   7.800   7.414  10.665  1.0792  0.6984 -0.0514
 1024MOL0     H38228   7.689   7.594  10.319 -0.1319 -0.6338  0.2811
 1024MOL0     H38229   7.708   7.657  10.494 -0.6923  1.5872  0.0766
 1024MOL0     H38230   7.495   7.645  10.548  1.9145 -3.5040  0.0344
 1024MOL0     H38231   7.444   7.563  10.404 -0.7527  1.9009 -3.7838
 1024MOL0     H38232   7.480   7.750  10.267 -0.2698  1.8924 -1.7728
 1024MOL0     H38233   7.520   7.852  10.414 -0.6558  0.4164 -1.2897
 1024MOL0     H38234   7.270   7.795  10.493 -3.5339 -2.7931 -1.1752
 1024MOL0     H38235   7.297   7.911  10.362 -1.8564  1.6092  4.2355
 1024MOL0     H38236   7.115   7.583  10.166 -0.8871 -0.1593  0.3636
 1024MOL0     H38237   7.746   7.344  10.258 -0.7109 -0.1379  0.1866
 1024MOL0     H38238   7.993   7.119  10.188  0.2472  0.0187 -1.9178
 1024MOL0     H38239   7.901   7.254  10.125 -1.5883 -0.9051  0.8365
 1024MOL0     H38240   8.074   7.272  10.170 -0.4730 -1.4937 -1.0207
  11.34099  11.34099  11.34099
